Gromacs Runs On Most of All Computer Systems in water t= 510.00000 step= 510000
11558
    1RG35     P    1   2.147   2.865   4.498
    1RG35   O1P    2   2.173   2.795   4.373
    1RG35   O2P    3   2.058   2.981   4.485
    1RG35   O5'    4   2.064   2.765   4.576
    1RG35   C5'    5   1.966   2.809   4.674
    1RG35  H5'1    6   1.891   2.878   4.635
    1RG35  H5'2    7   2.030   2.858   4.748
    1RG35   C4'    8   1.898   2.690   4.741
    1RG35   H4'    9   1.811   2.733   4.791
    1RG35   O4'   10   1.856   2.597   4.646
    1RG35   C1'   11   1.893   2.471   4.692
    1RG35   H1'   12   1.813   2.427   4.751
    1RG35    N9   13   1.923   2.383   4.577
    1RG35    C8   14   2.014   2.406   4.477
    1RG35    H8   15   2.059   2.503   4.462
    1RG35    N7   16   2.029   2.303   4.395
    1RG35    C5   17   1.955   2.200   4.454
    1RG35    C6   18   1.949   2.060   4.432
    1RG35    O6   19   2.016   1.995   4.352
    1RG35    N1   20   1.855   1.996   4.506
    1RG35    H1   21   1.856   1.895   4.504
    1RG35    C2   22   1.796   2.057   4.605
    1RG35    N2   23   1.731   1.983   4.689
    1RG35   H21   24   1.704   1.890   4.661
    1RG35   H22   25   1.697   2.020   4.776
    1RG35    N3   26   1.802   2.186   4.639
    1RG35    C4   27   1.886   2.252   4.560
    1RG35   C3'   28   1.982   2.619   4.845
    1RG35   H3'   29   2.078   2.671   4.850
    1RG35   C2'   30   2.023   2.493   4.768
    1RG35  H2'1   31   2.102   2.526   4.700
    1RG35   O2'   32   2.055   2.385   4.854
    1RG35  HO'2   33   2.105   2.315   4.811
    1RG35   O3'   34   1.921   2.589   4.974
    1RG35   H3T   35   1.988   2.529   5.007
    1RG35   O3P   36   2.263   2.888   4.582
    2SOL     OW   37   0.445   0.119   0.432
    2SOL    HW2   38   0.448   0.037   0.382
    2SOL    HW3   39   0.533   0.156   0.423
    2SOL    MW4   40   0.457   0.113   0.424
    3SOL     OW   41   4.032   0.056   0.510
    3SOL    HW2   42   4.110   0.103   0.481
    3SOL    HW3   43   4.034  -0.027   0.463
    3SOL    MW4   44   4.042   0.051   0.500
    4SOL     OW   45   3.807   0.461   0.496
    4SOL    HW2   46   3.725   0.467   0.448
    4SOL    HW3   47   3.783   0.477   0.587
    4SOL    MW4   48   3.793   0.464   0.502
    5SOL     OW   49   0.367   1.468   0.493
    5SOL    HW2   50   0.367   1.372   0.492
    5SOL    HW3   51   0.275   1.491   0.479
    5SOL    MW4   52   0.355   1.458   0.491
    6SOL     OW   53   1.383   0.854   0.448
    6SOL    HW2   54   1.473   0.882   0.463
    6SOL    HW3   55   1.349   0.837   0.536
    6SOL    MW4   56   1.390   0.856   0.462
    7SOL     OW   57   0.224   0.462   0.465
    7SOL    HW2   58   0.215   0.487   0.556
    7SOL    HW3   59   0.193   0.371   0.462
    7SOL    MW4   60   0.219   0.453   0.476
    8SOL     OW   61   0.504   0.918   0.430
    8SOL    HW2   62   0.500   0.903   0.525
    8SOL    HW3   63   0.485   0.832   0.392
    8SOL    MW4   64   0.501   0.904   0.438
    9SOL     OW   65   0.947   0.890   0.456
    9SOL    HW2   66   0.931   0.902   0.550
    9SOL    HW3   67   0.869   0.925   0.414
    9SOL    MW4   68   0.935   0.896   0.463
   10SOL     OW   69   0.725   1.008   0.309
   10SOL    HW2   70   0.720   0.992   0.215
   10SOL    HW3   71   0.640   0.980   0.343
   10SOL    MW4   72   0.713   1.002   0.301
   11SOL     OW   73   0.186   1.974   0.250
   11SOL    HW2   74   0.172   1.924   0.170
   11SOL    HW3   75   0.280   1.963   0.269
   11SOL    MW4   76   0.197   1.966   0.242
   12SOL     OW   77   4.117   2.344   0.568
   12SOL    HW2   78   4.039   2.292   0.591
   12SOL    HW3   79   4.095   2.433   0.597
   12SOL    MW4   80   4.104   2.349   0.575
   13SOL     OW   81   0.077   1.573   0.454
   13SOL    HW2   82   0.039   1.487   0.472
   13SOL    HW3   83   0.055   1.625   0.531
   13SOL    MW4   84   0.069   1.568   0.466
   14SOL     OW   85   0.782   2.413   0.234
   14SOL    HW2   86   0.875   2.415   0.258
   14SOL    HW3   87   0.767   2.497   0.191
   14SOL    MW4   88   0.792   2.425   0.232
   15SOL     OW   89   0.209   2.738   0.496
   15SOL    HW2   90   0.204   2.829   0.465
   15SOL    HW3   91   0.283   2.701   0.448
   15SOL    MW4   92   0.218   2.745   0.486
   16SOL     OW   93   4.134   3.439   0.451
   16SOL    HW2   94   4.149   3.367   0.390
   16SOL    HW3   95   4.115   3.397   0.535
   16SOL    MW4   96   4.134   3.424   0.454
   17SOL     OW   97   0.206   2.991   0.405
   17SOL    HW2   98   0.278   3.050   0.424
   17SOL    HW3   99   0.134   3.047   0.376
   17SOL    MW4  100   0.206   3.006   0.403
   18SOL     OW  101   0.677   3.283   0.368
   18SOL    HW2  102   0.770   3.273   0.389
   18SOL    HW3  103   0.661   3.377   0.373
   18SOL    MW4  104   0.687   3.294   0.371
   19SOL     OW  105   0.641   3.810   0.334
   19SOL    HW2  106   0.717   3.781   0.284
   19SOL    HW3  107   0.654   3.904   0.345
   19SOL    MW4  108   0.652   3.819   0.329
   20SOL     OW  109   4.314   3.853   0.389
   20SOL    HW2  110   4.324   3.924   0.453
   20SOL    HW3  111   4.330   3.773   0.439
   20SOL    MW4  112   4.318   3.852   0.404
   21SOL     OW  113   0.167   3.687   0.137
   21SOL    HW2  114   0.231   3.730   0.193
   21SOL    HW3  115   0.197   3.597   0.130
   21SOL    MW4  116   0.179   3.681   0.144
   22SOL     OW  117   4.441   4.471   0.420
   22SOL    HW2  118   4.426   4.386   0.378
   22SOL    HW3  119   4.399   4.464   0.505
   22SOL    MW4  120   4.433   4.459   0.426
   23SOL     OW  121   4.375   4.205   0.307
   23SOL    HW2  122   4.409   4.124   0.270
   23SOL    HW3  123   4.280   4.195   0.301
   23SOL    MW4  124   4.367   4.193   0.301
   24SOL     OW  125   0.017   3.960   0.215
   24SOL    HW2  126  -0.050   3.906   0.256
   24SOL    HW3  127   0.062   3.900   0.155
   24SOL    MW4  128   0.014   3.945   0.212
   25SOL     OW  129   0.451   3.150   0.450
   25SOL    HW2  130   0.452   3.194   0.535
   25SOL    HW3  131   0.527   3.184   0.405
   25SOL    MW4  132   0.461   3.160   0.455
   26SOL     OW  133   0.456   4.526   0.317
   26SOL    HW2  134   0.377   4.479   0.341
   26SOL    HW3  135   0.470   4.504   0.225
   26SOL    MW4  136   0.448   4.517   0.308
   27SOL     OW  137   0.155   0.197   0.478
   27SOL    HW2  138   0.128   0.163   0.563
   27SOL    HW3  139   0.236   0.150   0.457
   27SOL    MW4  140   0.162   0.186   0.486
   28SOL     OW  141   0.028   0.617   0.391
   28SOL    HW2  142   0.054   0.658   0.309
   28SOL    HW3  143   0.104   0.563   0.415
   28SOL    MW4  144   0.042   0.615   0.383
   29SOL     OW  145   0.903   4.463   0.329
   29SOL    HW2  146   0.980   4.440   0.381
   29SOL    HW3  147   0.833   4.409   0.366
   29SOL    MW4  148   0.904   4.453   0.341
   30SOL     OW  149   1.194   1.028   0.340
   30SOL    HW2  150   1.114   0.987   0.374
   30SOL    HW3  151   1.263   0.965   0.360
   30SOL    MW4  152   1.192   1.015   0.347
   31SOL     OW  153   0.664   0.489   0.475
   31SOL    HW2  154   0.742   0.536   0.445
   31SOL    HW3  155   0.662   0.409   0.422
   31SOL    MW4  156   0.674   0.485   0.464
   32SOL     OW  157   0.342   1.183   0.469
   32SOL    HW2  158   0.381   1.104   0.432
   32SOL    HW3  159   0.248   1.172   0.455
   32SOL    MW4  160   0.335   1.171   0.462
   33SOL     OW  161   0.224   2.245   0.216
   33SOL    HW2  162   0.143   2.292   0.238
   33SOL    HW3  163   0.198   2.153   0.214
   33SOL    MW4  164   0.210   2.239   0.219
   34SOL     OW  165   0.650   2.123   0.230
   34SOL    HW2  166   0.668   2.160   0.144
   34SOL    HW3  167   0.731   2.079   0.255
   34SOL    MW4  168   0.663   2.122   0.222
   35SOL     OW  169   0.835   2.695   0.147
   35SOL    HW2  170   0.917   2.660   0.112
   35SOL    HW3  171   0.862   2.765   0.206
   35SOL    MW4  172   0.849   2.699   0.150
   36SOL     OW  173   0.576   2.639   0.060
   36SOL    HW2  174   0.592   2.642  -0.034
   36SOL    HW3  175   0.660   2.663   0.100
   36SOL    MW4  176   0.589   2.643   0.053
   37SOL     OW  177   3.930   2.462   0.255
   37SOL    HW2  178   3.898   2.423   0.174
   37SOL    HW3  179   4.021   2.435   0.261
   37SOL    MW4  180   3.938   2.453   0.245
   38SOL     OW  181   1.282   2.460   0.426
   38SOL    HW2  182   1.329   2.383   0.395
   38SOL    HW3  183   1.335   2.534   0.398
   38SOL    MW4  184   1.295   2.460   0.418
   39SOL     OW  185   0.590   2.526   0.474
   39SOL    HW2  186   0.550   2.594   0.419
   39SOL    HW3  187   0.677   2.560   0.494
   39SOL    MW4  188   0.596   2.540   0.469
   40SOL     OW  189   4.279   3.174   0.293
   40SOL    HW2  190   4.244   3.152   0.207
   40SOL    HW3  191   4.279   3.091   0.341
   40SOL    MW4  192   4.274   3.160   0.288
   41SOL     OW  193   0.464   2.718   0.332
   41SOL    HW2  194   0.474   2.713   0.237
   41SOL    HW3  195   0.523   2.788   0.359
   41SOL    MW4  196   0.473   2.726   0.323
   42SOL     OW  197   0.959   0.453   0.142
   42SOL    HW2  198   0.921   0.484   0.059
   42SOL    HW3  199   0.902   0.489   0.209
   42SOL    MW4  200   0.946   0.462   0.140
   43SOL     OW  201   0.359   3.605   0.480
   43SOL    HW2  202   0.354   3.689   0.434
   43SOL    HW3  203   0.449   3.576   0.467
   43SOL    MW4  204   0.370   3.613   0.472
   44SOL     OW  205   0.648   3.574   0.461
   44SOL    HW2  206   0.637   3.660   0.421
   44SOL    HW3  207   0.655   3.592   0.555
   44SOL    MW4  208   0.647   3.588   0.468
   45SOL     OW  209   1.133   3.598   0.544
   45SOL    HW2  210   1.068   3.562   0.484
   45SOL    HW3  211   1.208   3.538   0.537
   45SOL    MW4  212   1.134   3.585   0.535
   46SOL     OW  213   0.243   4.383   0.428
   46SOL    HW2  214   0.154   4.417   0.414
   46SOL    HW3  215   0.234   4.288   0.418
   46SOL    MW4  216   0.230   4.375   0.425
   47SOL     OW  217   0.930   3.515   0.381
   47SOL    HW2  218   0.926   3.545   0.290
   47SOL    HW3  219   0.840   3.522   0.413
   47SOL    MW4  220   0.917   3.520   0.373
   48SOL     OW  221   0.657   4.357   0.430
   48SOL    HW2  222   0.575   4.405   0.421
   48SOL    HW3  223   0.674   4.355   0.524
   48SOL    MW4  224   0.648   4.363   0.441
   49SOL     OW  225   0.700   0.216   0.348
   49SOL    HW2  226   0.761   0.157   0.395
   49SOL    HW3  227   0.697   0.180   0.259
   49SOL    MW4  228   0.708   0.203   0.342
   50SOL     OW  229   0.915   0.625   0.388
   50SOL    HW2  230   0.935   0.716   0.408
   50SOL    HW3  231   0.995   0.577   0.410
   50SOL    MW4  232   0.928   0.630   0.393
   51SOL     OW  233   0.461   0.646   0.388
   51SOL    HW2  234   0.390   0.583   0.393
   51SOL    HW3  235   0.538   0.599   0.419
   51SOL    MW4  236   0.462   0.632   0.393
   52SOL     OW  237   1.405   0.564   0.466
   52SOL    HW2  238   1.454   0.552   0.547
   52SOL    HW3  239   1.412   0.657   0.446
   52SOL    MW4  240   1.412   0.575   0.474
   53SOL     OW  241   1.890   0.759   0.402
   53SOL    HW2  242   1.813   0.808   0.431
   53SOL    HW3  243   1.862   0.717   0.320
   53SOL    MW4  244   1.876   0.760   0.395
   54SOL     OW  245   1.526   0.456   0.251
   54SOL    HW2  246   1.490   0.494   0.330
   54SOL    HW3  247   1.471   0.490   0.180
   54SOL    MW4  248   1.514   0.466   0.252
   55SOL     OW  249   0.842   1.752   0.447
   55SOL    HW2  250   0.770   1.692   0.427
   55SOL    HW3  251   0.865   1.733   0.538
   55SOL    MW4  252   0.835   1.742   0.456
   56SOL     OW  253   0.766   1.289   0.461
   56SOL    HW2  254   0.749   1.214   0.403
   56SOL    HW3  255   0.857   1.313   0.443
   56SOL    MW4  256   0.776   1.282   0.451
   57SOL     OW  257   1.326   1.432   0.187
   57SOL    HW2  258   1.261   1.487   0.231
   57SOL    HW3  259   1.274   1.363   0.146
   57SOL    MW4  260   1.310   1.430   0.187
   58SOL     OW  261   1.054   1.329   0.423
   58SOL    HW2  262   1.146   1.307   0.439
   58SOL    HW3  263   1.057   1.416   0.383
   58SOL    MW4  264   1.066   1.338   0.420
   59SOL     OW  265   1.058   1.591   0.337
   59SOL    HW2  266   1.138   1.643   0.334
   59SOL    HW3  267   0.991   1.652   0.367
   59SOL    MW4  268   1.060   1.606   0.341
   60SOL     OW  269   4.472   2.314   0.331
   60SOL    HW2  270   4.381   2.323   0.302
   60SOL    HW3  271   4.487   2.389   0.388
   60SOL    MW4  272   4.462   2.325   0.335
   61SOL     OW  273   0.479   1.919   0.357
   61SOL    HW2  274   0.539   1.846   0.337
   61SOL    HW3  275   0.512   1.991   0.303
   61SOL    MW4  276   0.492   1.919   0.347
   62SOL     OW  277   0.749   2.248   0.524
   62SOL    HW2  278   0.807   2.184   0.484
   62SOL    HW3  279   0.807   2.308   0.570
   62SOL    MW4  280   0.764   2.247   0.525
   63SOL     OW  281   0.357   2.250   0.457
   63SOL    HW2  282   0.312   2.205   0.528
   63SOL    HW3  283   0.294   2.252   0.385
   63SOL    MW4  284   0.343   2.244   0.456
   64SOL     OW  285   0.873   2.594   0.491
   64SOL    HW2  286   0.909   2.540   0.421
   64SOL    HW3  287   0.880   2.539   0.569
   64SOL    MW4  288   0.879   2.580   0.492
   65SOL     OW  289   1.048   2.480   0.295
   65SOL    HW2  290   1.116   2.464   0.360
   65SOL    HW3  291   1.089   2.538   0.231
   65SOL    MW4  292   1.062   2.485   0.295
   66SOL     OW  293   0.641   2.898   0.434
   66SOL    HW2  294   0.597   2.979   0.460
   66SOL    HW3  295   0.668   2.858   0.516
   66SOL    MW4  296   0.639   2.903   0.448
   67SOL     OW  297   0.963   3.234   0.416
   67SOL    HW2  298   0.968   3.235   0.511
   67SOL    HW3  299   0.982   3.324   0.390
   67SOL    MW4  300   0.966   3.246   0.425
   68SOL     OW  301   2.172   3.618   0.467
   68SOL    HW2  302   2.135   3.639   0.553
   68SOL    HW3  303   2.127   3.538   0.441
   68SOL    MW4  304   2.161   3.610   0.475
   69SOL     OW  305   0.922   4.073   0.520
   69SOL    HW2  306   0.841   4.068   0.469
   69SOL    HW3  307   0.894   4.072   0.611
   69SOL    MW4  308   0.908   4.073   0.525
   70SOL     OW  309   0.653   4.073   0.419
   70SOL    HW2  310   0.625   4.062   0.510
   70SOL    HW3  311   0.639   4.166   0.401
   70SOL    MW4  312   0.648   4.084   0.429
   71SOL     OW  313   1.092   4.313   0.479
   71SOL    HW2  314   1.034   4.236   0.472
   71SOL    HW3  315   1.095   4.332   0.573
   71SOL    MW4  316   1.085   4.305   0.490
   72SOL     OW  317   1.135   0.466   0.481
   72SOL    HW2  318   1.123   0.388   0.427
   72SOL    HW3  319   1.222   0.498   0.458
   72SOL    MW4  320   1.145   0.460   0.471
   73SOL     OW  321   0.927   0.047   0.420
   73SOL    HW2  322   0.907  -0.042   0.391
   73SOL    HW3  323   0.921   0.044   0.516
   73SOL    MW4  324   0.924   0.035   0.429
   74SOL     OW  325   1.387   0.192   0.292
   74SOL    HW2  326   1.294   0.214   0.286
   74SOL    HW3  327   1.432   0.276   0.286
   74SOL    MW4  328   1.381   0.206   0.291
   75SOL     OW  329   2.130   0.027   0.332
   75SOL    HW2  330   2.158  -0.061   0.355
   75SOL    HW3  331   2.035   0.027   0.346
   75SOL    MW4  332   2.121   0.016   0.337
   76SOL     OW  333   1.115   0.240   0.309
   76SOL    HW2  334   1.066   0.171   0.354
   76SOL    HW3  335   1.050   0.287   0.257
   76SOL    MW4  336   1.100   0.237   0.308
   77SOL     OW  337   2.289   0.507   0.441
   77SOL    HW2  338   2.195   0.512   0.458
   77SOL    HW3  339   2.304   0.414   0.423
   77SOL    MW4  340   2.278   0.495   0.441
   78SOL     OW  341   2.384   0.973   0.433
   78SOL    HW2  342   2.395   0.937   0.345
   78SOL    HW3  343   2.289   0.970   0.448
   78SOL    MW4  344   2.373   0.968   0.423
   79SOL     OW  345   1.718   1.207   0.376
   79SOL    HW2  346   1.662   1.234   0.449
   79SOL    HW3  347   1.687   1.259   0.302
   79SOL    MW4  348   1.707   1.218   0.376
   80SOL     OW  349   1.655   0.908   0.440
   80SOL    HW2  350   1.683   0.908   0.532
   80SOL    HW3  351   1.665   0.998   0.411
   80SOL    MW4  352   1.660   0.920   0.448
   81SOL     OW  353   1.323   1.269   0.435
   81SOL    HW2  354   1.302   1.181   0.404
   81SOL    HW3  355   1.342   1.318   0.355
   81SOL    MW4  356   1.323   1.264   0.420
   82SOL     OW  357   1.697   1.662   0.365
   82SOL    HW2  358   1.791   1.667   0.386
   82SOL    HW3  359   1.655   1.642   0.448
   82SOL    MW4  360   1.704   1.660   0.379
   83SOL     OW  361   1.174   2.669   0.106
   83SOL    HW2  362   1.204   2.658   0.016
   83SOL    HW3  363   1.254   2.684   0.157
   83SOL    MW4  364   1.189   2.669   0.101
   84SOL     OW  365   1.366   2.728   0.305
   84SOL    HW2  366   1.283   2.744   0.350
   84SOL    HW3  367   1.431   2.774   0.357
   84SOL    MW4  368   1.364   2.736   0.318
   85SOL     OW  369   2.294   1.767   0.470
   85SOL    HW2  370   2.323   1.678   0.450
   85SOL    HW3  371   2.375   1.817   0.481
   85SOL    MW4  372   2.308   1.762   0.469
   86SOL     OW  373   1.666   2.085   0.427
   86SOL    HW2  374   1.709   2.168   0.448
   86SOL    HW3  375   1.732   2.018   0.448
   86SOL    MW4  376   1.680   2.087   0.432
   87SOL     OW  377   0.890   2.034   0.394
   87SOL    HW2  378   0.986   2.031   0.391
   87SOL    HW3  379   0.864   1.944   0.412
   87SOL    MW4  380   0.899   2.021   0.396
   88SOL     OW  381   0.905   2.946   0.325
   88SOL    HW2  382   0.926   3.038   0.337
   88SOL    HW3  383   0.815   2.938   0.356
   88SOL    MW4  384   0.896   2.957   0.330
   89SOL     OW  385   1.996   2.201   0.407
   89SOL    HW2  386   2.002   2.155   0.324
   89SOL    HW3  387   2.081   2.242   0.419
   89SOL    MW4  388   2.008   2.201   0.398
   90SOL     OW  389   2.003   0.500   0.487
   90SOL    HW2  390   1.982   0.591   0.465
   90SOL    HW3  391   1.930   0.449   0.452
   90SOL    MW4  392   1.991   0.505   0.480
   91SOL     OW  393   1.072   3.848   0.395
   91SOL    HW2  394   1.084   3.784   0.465
   91SOL    HW3  395   1.014   3.914   0.434
   91SOL    MW4  396   1.066   3.848   0.410
   92SOL     OW  397   1.997   2.725   0.315
   92SOL    HW2  398   2.007   2.816   0.344
   92SOL    HW3  399   2.087   2.693   0.306
   92SOL    MW4  400   2.010   2.733   0.318
   93SOL     OW  401   1.334   3.967   0.455
   93SOL    HW2  402   1.271   3.917   0.403
   93SOL    HW3  403   1.322   4.057   0.427
   93SOL    MW4  404   1.324   3.972   0.445
   94SOL     OW  405   1.741   3.055   0.458
   94SOL    HW2  406   1.828   3.023   0.481
   94SOL    HW3  407   1.687   2.976   0.453
   94SOL    MW4  408   1.745   3.040   0.460
   95SOL     OW  409   2.191   3.898   0.450
   95SOL    HW2  410   2.192   3.803   0.435
   95SOL    HW3  411   2.274   3.929   0.415
   95SOL    MW4  412   2.202   3.889   0.444
   96SOL     OW  413   0.879   3.769   0.196
   96SOL    HW2  414   0.958   3.802   0.239
   96SOL    HW3  415   0.879   3.812   0.110
   96SOL    MW4  416   0.890   3.779   0.190
   97SOL     OW  417   1.876   4.664   0.428
   97SOL    HW2  418   1.803   4.720   0.455
   97SOL    HW3  419   1.846   4.575   0.449
   97SOL    MW4  420   1.862   4.660   0.434
   98SOL     OW  421   1.997   4.658   0.674
   98SOL    HW2  422   2.016   4.564   0.679
   98SOL    HW3  423   1.954   4.670   0.589
   98SOL    MW4  424   1.994   4.647   0.664
   99SOL     OW  425   2.498   4.414   0.250
   99SOL    HW2  426   2.542   4.472   0.312
   99SOL    HW3  427   2.476   4.470   0.175
   99SOL    MW4  428   2.501   4.429   0.248
  100SOL     OW  429   1.355   4.261   0.381
  100SOL    HW2  430   1.267   4.289   0.408
  100SOL    HW3  431   1.402   4.343   0.366
  100SOL    MW4  432   1.349   4.275   0.382
  101SOL     OW  433   2.535   0.607   0.487
  101SOL    HW2  434   2.444   0.585   0.465
  101SOL    HW3  435   2.558   0.677   0.427
  101SOL    MW4  436   2.526   0.613   0.476
  102SOL     OW  437   1.505   1.880   0.305
  102SOL    HW2  438   1.566   1.806   0.311
  102SOL    HW3  439   1.558   1.956   0.329
  102SOL    MW4  440   1.520   1.880   0.309
  103SOL     OW  441   1.993   1.185   0.482
  103SOL    HW2  442   2.025   1.272   0.458
  103SOL    HW3  443   1.905   1.181   0.445
  103SOL    MW4  444   1.985   1.196   0.474
  104SOL     OW  445   2.482   1.247   0.428
  104SOL    HW2  446   2.573   1.219   0.430
  104SOL    HW3  447   2.431   1.168   0.446
  104SOL    MW4  448   2.487   1.233   0.430
  105SOL     OW  449   2.481   1.955   0.497
  105SOL    HW2  450   2.451   2.026   0.440
  105SOL    HW3  451   2.572   1.942   0.474
  105SOL    MW4  452   2.489   1.963   0.487
  106SOL     OW  453   1.609   1.426   0.214
  106SOL    HW2  454   1.527   1.441   0.167
  106SOL    HW3  455   1.632   1.511   0.249
  106SOL    MW4  456   1.601   1.439   0.212
  107SOL     OW  457   1.285   1.743   0.383
  107SOL    HW2  458   1.361   1.791   0.351
  107SOL    HW3  459   1.306   1.721   0.473
  107SOL    MW4  460   1.298   1.746   0.390
  108SOL     OW  461   2.233   2.370   0.480
  108SOL    HW2  462   2.218   2.449   0.427
  108SOL    HW3  463   2.245   2.403   0.569
  108SOL    MW4  464   2.232   2.385   0.485
  109SOL     OW  465   1.773   3.328   0.481
  109SOL    HW2  466   1.765   3.239   0.447
  109SOL    HW3  467   1.866   3.350   0.470
  109SOL    MW4  468   1.784   3.319   0.475
  110SOL     OW  469   1.087   2.758   0.439
  110SOL    HW2  470   1.047   2.839   0.408
  110SOL    HW3  471   1.013   2.700   0.458
  110SOL    MW4  472   1.072   2.761   0.438
  111SOL     OW  473   1.542   3.498   0.453
  111SOL    HW2  474   1.632   3.466   0.447
  111SOL    HW3  475   1.550   3.593   0.445
  111SOL    MW4  476   1.555   3.507   0.451
  112SOL     OW  477   1.162   2.016   0.423
  112SOL    HW2  478   1.163   2.033   0.518
  112SOL    HW3  479   1.208   1.932   0.414
  112SOL    MW4  480   1.169   2.007   0.435
  113SOL     OW  481   3.585   1.654   0.445
  113SOL    HW2  482   3.501   1.632   0.403
  113SOL    HW3  483   3.570   1.636   0.538
  113SOL    MW4  484   3.572   1.649   0.452
  114SOL     OW  485   1.779   2.329   0.518
  114SOL    HW2  486   1.865   2.298   0.489
  114SOL    HW3  487   1.777   2.421   0.494
  114SOL    MW4  488   1.790   2.337   0.511
  115SOL     OW  489   1.366   2.212   0.371
  115SOL    HW2  490   1.431   2.178   0.310
  115SOL    HW3  491   1.305   2.139   0.384
  115SOL    MW4  492   1.367   2.198   0.365
  116SOL     OW  493   1.305   3.377   0.504
  116SOL    HW2  494   1.394   3.410   0.491
  116SOL    HW3  495   1.279   3.343   0.418
  116SOL    MW4  496   1.313   3.377   0.491
  117SOL     OW  497   2.438   3.571   0.527
  117SOL    HW2  498   2.346   3.577   0.504
  117SOL    HW3  499   2.439   3.573   0.623
  117SOL    MW4  500   2.426   3.572   0.537
  118SOL     OW  501   1.778   4.402   0.449
  118SOL    HW2  502   1.723   4.328   0.474
  118SOL    HW3  503   1.868   4.368   0.454
  118SOL    MW4  504   1.783   4.388   0.453
  119SOL     OW  505   1.564   3.775   0.493
  119SOL    HW2  506   1.492   3.831   0.465
  119SOL    HW3  507   1.641   3.833   0.490
  119SOL    MW4  508   1.565   3.790   0.489
  120SOL     OW  509   1.518   4.503   0.356
  120SOL    HW2  510   1.513   4.555   0.276
  120SOL    HW3  511   1.606   4.465   0.354
  120SOL    MW4  512   1.529   4.505   0.345
  121SOL     OW  513   1.392   0.022   0.516
  121SOL    HW2  514   1.371   0.075   0.440
  121SOL    HW3  515   1.443  -0.051   0.481
  121SOL    MW4  516   1.396   0.020   0.502
  122SOL     OW  517   2.382   4.479   0.644
  122SOL    HW2  518   2.367   4.427   0.723
  122SOL    HW3  519   2.391   4.569   0.676
  122SOL    MW4  520   2.381   4.484   0.659
  123SOL     OW  521   2.273   0.229   0.419
  123SOL    HW2  522   2.262   0.214   0.513
  123SOL    HW3  523   2.220   0.161   0.378
  123SOL    MW4  524   2.265   0.218   0.426
  124SOL     OW  525   2.898   1.466   0.343
  124SOL    HW2  526   2.869   1.460   0.252
  124SOL    HW3  527   2.879   1.379   0.379
  124SOL    MW4  528   2.892   1.453   0.335
  125SOL     OW  529   2.950   0.408   0.489
  125SOL    HW2  530   2.866   0.418   0.444
  125SOL    HW3  531   2.999   0.487   0.465
  125SOL    MW4  532   2.946   0.420   0.480
  126SOL     OW  533   2.103   0.940   0.462
  126SOL    HW2  534   2.062   1.026   0.473
  126SOL    HW3  535   2.031   0.880   0.447
  126SOL    MW4  536   2.088   0.944   0.461
  127SOL     OW  537   2.756   1.226   0.451
  127SOL    HW2  538   2.778   1.134   0.437
  127SOL    HW3  539   2.800   1.249   0.533
  127SOL    MW4  540   2.765   1.217   0.460
  128SOL     OW  541   2.675   1.652   0.422
  128SOL    HW2  542   2.731   1.576   0.405
  128SOL    HW3  543   2.659   1.651   0.516
  128SOL    MW4  544   2.680   1.642   0.432
  129SOL     OW  545   3.022   1.877   0.494
  129SOL    HW2  546   3.069   1.934   0.556
  129SOL    HW3  547   3.081   1.870   0.419
  129SOL    MW4  548   3.036   1.884   0.493
  130SOL     OW  549   2.883   4.626   0.438
  130SOL    HW2  550   2.936   4.700   0.468
  130SOL    HW3  551   2.937   4.549   0.458
  130SOL    MW4  552   2.897   4.626   0.445
  131SOL     OW  553   1.974   1.685   0.460
  131SOL    HW2  554   1.947   1.765   0.505
  131SOL    HW3  555   2.050   1.711   0.408
  131SOL    MW4  556   1.980   1.699   0.459
  132SOL     OW  557   1.578   1.583   0.609
  132SOL    HW2  558   1.635   1.623   0.675
  132SOL    HW3  559   1.489   1.609   0.636
  132SOL    MW4  560   1.574   1.592   0.621
  133SOL     OW  561   2.401   2.196   0.363
  133SOL    HW2  562   2.346   2.263   0.405
  133SOL    HW3  563   2.491   2.226   0.377
  133SOL    MW4  564   2.405   2.209   0.370
  134SOL     OW  565   2.688   2.223   0.476
  134SOL    HW2  566   2.718   2.152   0.420
  134SOL    HW3  567   2.719   2.199   0.564
  134SOL    MW4  568   2.696   2.211   0.480
  135SOL     OW  569   2.520   2.698   0.459
  135SOL    HW2  570   2.590   2.633   0.461
  135SOL    HW3  571   2.518   2.734   0.547
  135SOL    MW4  572   2.529   2.694   0.471
  136SOL     OW  573   1.810   2.624   0.521
  136SOL    HW2  574   1.856   2.659   0.598
  136SOL    HW3  575   1.866   2.647   0.447
  136SOL    MW4  576   1.824   2.632   0.522
  137SOL     OW  577   1.592   2.807   0.470
  137SOL    HW2  578   1.588   2.814   0.565
  137SOL    HW3  579   1.654   2.736   0.453
  137SOL    MW4  580   1.600   2.799   0.480
  138SOL     OW  581   1.979   4.028   0.328
  138SOL    HW2  582   1.963   3.980   0.248
  138SOL    HW3  583   2.048   3.979   0.373
  138SOL    MW4  584   1.986   4.015   0.324
  139SOL     OW  585   2.447   4.054   0.383
  139SOL    HW2  586   2.489   3.967   0.385
  139SOL    HW3  587   2.495   4.102   0.316
  139SOL    MW4  588   2.459   4.049   0.375
  140SOL     OW  589   1.761   3.987   0.498
  140SOL    HW2  590   1.703   4.064   0.498
  140SOL    HW3  591   1.831   4.010   0.438
  140SOL    MW4  592   1.762   4.000   0.490
  141SOL     OW  593   2.046   3.367   0.380
  141SOL    HW2  594   2.101   3.298   0.417
  141SOL    HW3  595   2.047   3.350   0.286
  141SOL    MW4  596   2.053   3.355   0.373
  142SOL     OW  597   2.247   4.413   0.382
  142SOL    HW2  598   2.327   4.397   0.333
  142SOL    HW3  599   2.277   4.440   0.469
  142SOL    MW4  600   2.261   4.414   0.387
  143SOL     OW  601   2.021   4.265   0.469
  143SOL    HW2  602   2.000   4.192   0.410
  143SOL    HW3  603   2.085   4.317   0.421
  143SOL    MW4  604   2.027   4.262   0.455
  144SOL     OW  605   3.066   0.164   0.537
  144SOL    HW2  606   3.031   0.250   0.515
  144SOL    HW3  607   3.063   0.160   0.632
  144SOL    MW4  608   3.061   0.175   0.547
  145SOL     OW  609   2.546   3.789   0.395
  145SOL    HW2  610   2.517   3.715   0.448
  145SOL    HW3  611   2.533   3.760   0.304
  145SOL    MW4  612   2.540   3.775   0.390
  146SOL     OW  613   2.530   4.213   0.613
  146SOL    HW2  614   2.496   4.297   0.583
  146SOL    HW3  615   2.498   4.150   0.548
  146SOL    MW4  616   2.521   4.216   0.601
  147SOL     OW  617   2.539   0.161   0.436
  147SOL    HW2  618   2.577   0.233   0.385
  147SOL    HW3  619   2.445   0.182   0.440
  147SOL    MW4  620   2.531   0.174   0.430
  148SOL     OW  621   1.785   0.380   0.365
  148SOL    HW2  622   1.760   0.306   0.421
  148SOL    HW3  623   1.701   0.414   0.332
  148SOL    MW4  624   1.771   0.374   0.368
  149SOL     OW  625   3.095   0.639   0.399
  149SOL    HW2  626   3.102   0.724   0.442
  149SOL    HW3  627   3.184   0.604   0.401
  149SOL    MW4  628   3.108   0.646   0.405
  150SOL     OW  629   2.409   1.514   0.431
  150SOL    HW2  630   2.429   1.422   0.411
  150SOL    HW3  631   2.490   1.561   0.412
  150SOL    MW4  632   2.422   1.508   0.426
  151SOL     OW  633   2.635   0.801   0.326
  151SOL    HW2  634   2.682   0.881   0.351
  151SOL    HW3  635   2.702   0.744   0.288
  151SOL    MW4  636   2.650   0.804   0.325
  152SOL     OW  637   3.056   1.620   0.534
  152SOL    HW2  638   3.011   1.560   0.473
  152SOL    HW3  639   3.023   1.707   0.510
  152SOL    MW4  640   3.045   1.624   0.523
  153SOL     OW  641   3.390   1.304   0.468
  153SOL    HW2  642   3.482   1.321   0.446
  153SOL    HW3  643   3.392   1.277   0.560
  153SOL    MW4  644   3.402   1.302   0.477
  154SOL     OW  645   3.431   2.005   0.474
  154SOL    HW2  646   3.417   2.097   0.496
  154SOL    HW3  647   3.524   2.000   0.451
  154SOL    MW4  648   3.442   2.017   0.474
  155SOL     OW  649   2.692   0.180   0.701
  155SOL    HW2  650   2.681   0.271   0.729
  155SOL    HW3  651   2.643   0.173   0.620
  155SOL    MW4  652   2.684   0.191   0.694
  156SOL     OW  653   3.118   2.089   0.673
  156SOL    HW2  654   3.023   2.101   0.678
  156SOL    HW3  655   3.135   2.017   0.734
  156SOL    MW4  656   3.108   2.081   0.682
  157SOL     OW  657   2.712   2.513   0.503
  157SOL    HW2  658   2.796   2.542   0.468
  157SOL    HW3  659   2.706   2.421   0.478
  157SOL    MW4  660   2.722   2.505   0.496
  158SOL     OW  661   2.737   1.935   0.401
  158SOL    HW2  662   2.818   1.932   0.451
  158SOL    HW3  663   2.723   1.844   0.374
  158SOL    MW4  664   2.745   1.922   0.404
  159SOL     OW  665   2.276   2.614   0.347
  159SOL    HW2  666   2.322   2.575   0.273
  159SOL    HW3  667   2.346   2.653   0.400
  159SOL    MW4  668   2.291   2.614   0.345
  160SOL     OW  669   2.669   2.929   0.499
  160SOL    HW2  670   2.623   2.881   0.430
  160SOL    HW3  671   2.617   2.912   0.578
  160SOL    MW4  672   2.656   2.920   0.500
  161SOL     OW  673   3.016   3.157   0.523
  161SOL    HW2  674   3.097   3.143   0.572
  161SOL    HW3  675   2.989   3.070   0.495
  161SOL    MW4  676   3.023   3.144   0.525
  162SOL     OW  677   3.517   3.050   0.411
  162SOL    HW2  678   3.499   2.957   0.426
  162SOL    HW3  679   3.496   3.064   0.319
  162SOL    MW4  680   3.512   3.040   0.401
  163SOL     OW  681   2.209   3.182   0.508
  163SOL    HW2  682   2.234   3.222   0.591
  163SOL    HW3  683   2.292   3.167   0.462
  163SOL    MW4  684   2.223   3.185   0.513
  164SOL     OW  685   1.597   4.204   0.520
  164SOL    HW2  686   1.579   4.258   0.597
  164SOL    HW3  687   1.514   4.200   0.473
  164SOL    MW4  688   1.583   4.211   0.524
  165SOL     OW  689   3.398   4.090   0.463
  165SOL    HW2  690   3.315   4.114   0.421
  165SOL    HW3  691   3.378   4.010   0.512
  165SOL    MW4  692   3.384   4.082   0.464
  166SOL     OW  693   2.822   3.389   0.517
  166SOL    HW2  694   2.768   3.348   0.585
  166SOL    HW3  695   2.891   3.324   0.500
  166SOL    MW4  696   2.824   3.375   0.524
  167SOL     OW  697   2.593   3.382   0.392
  167SOL    HW2  698   2.682   3.384   0.428
  167SOL    HW3  699   2.544   3.444   0.447
  167SOL    MW4  700   2.598   3.391   0.404
  168SOL     OW  701   3.930   3.983   0.579
  168SOL    HW2  702   3.972   3.958   0.497
  168SOL    HW3  703   3.857   4.039   0.552
  168SOL    MW4  704   3.926   3.988   0.565
  169SOL     OW  705   3.146   4.174   0.391
  169SOL    HW2  706   3.142   4.262   0.426
  169SOL    HW3  707   3.055   4.153   0.368
  169SOL    MW4  708   3.133   4.183   0.392
  170SOL     OW  709   3.333   0.213   0.411
  170SOL    HW2  710   3.264   0.162   0.452
  170SOL    HW3  711   3.413   0.164   0.428
  170SOL    MW4  712   3.334   0.200   0.418
  171SOL     OW  713   2.610   4.559   0.431
  171SOL    HW2  714   2.568   4.644   0.421
  171SOL    HW3  715   2.702   4.575   0.409
  171SOL    MW4  716   2.617   4.572   0.427
  172SOL     OW  717   2.867   4.104   0.383
  172SOL    HW2  718   2.847   4.015   0.412
  172SOL    HW3  719   2.789   4.132   0.335
  172SOL    MW4  720   2.854   4.096   0.380
  173SOL     OW  721   2.692   0.409   0.357
  173SOL    HW2  722   2.629   0.461   0.407
  173SOL    HW3  723   2.728   0.470   0.293
  173SOL    MW4  724   2.688   0.424   0.355
  174SOL     OW  725   3.125   0.910   0.465
  174SOL    HW2  726   3.132   0.894   0.559
  174SOL    HW3  727   3.211   0.943   0.440
  174SOL    MW4  728   3.137   0.912   0.474
  175SOL     OW  729   3.322   0.498   0.511
  175SOL    HW2  730   3.303   0.404   0.502
  175SOL    HW3  731   3.404   0.511   0.464
  175SOL    MW4  732   3.330   0.487   0.504
  176SOL     OW  733   3.683   0.913   0.433
  176SOL    HW2  734   3.720   0.832   0.397
  176SOL    HW3  735   3.665   0.892   0.525
  176SOL    MW4  736   3.685   0.899   0.441
  177SOL     OW  737   3.451   0.332   0.163
  177SOL    HW2  738   3.513   0.263   0.139
  177SOL    HW3  739   3.394   0.292   0.229
  177SOL    MW4  740   3.452   0.318   0.169
  178SOL     OW  741   3.450   1.867   0.724
  178SOL    HW2  742   3.439   1.926   0.649
  178SOL    HW3  743   3.364   1.865   0.765
  178SOL    MW4  744   3.437   1.875   0.719
  179SOL     OW  745   3.250   1.851   0.327
  179SOL    HW2  746   3.253   1.757   0.346
  179SOL    HW3  747   3.312   1.890   0.389
  179SOL    MW4  748   3.259   1.844   0.338
  180SOL     OW  749   3.381   0.988   0.400
  180SOL    HW2  750   3.468   0.951   0.415
  180SOL    HW3  751   3.398   1.078   0.372
  180SOL    MW4  752   3.395   0.995   0.398
  181SOL     OW  753   3.919   1.767   0.336
  181SOL    HW2  754   3.853   1.820   0.380
  181SOL    HW3  755   3.871   1.725   0.264
  181SOL    MW4  756   3.904   1.768   0.332
  182SOL     OW  757   3.287   2.280   0.602
  182SOL    HW2  758   3.238   2.208   0.642
  182SOL    HW3  759   3.360   2.296   0.662
  182SOL    MW4  760   3.290   2.273   0.615
  183SOL     OW  761   3.591   2.581   0.578
  183SOL    HW2  762   3.605   2.584   0.672
  183SOL    HW3  763   3.589   2.487   0.557
  183SOL    MW4  764   3.593   2.569   0.588
  184SOL     OW  765   2.029   2.948   0.532
  184SOL    HW2  766   2.037   2.903   0.616
  184SOL    HW3  767   2.101   3.011   0.532
  184SOL    MW4  768   2.040   2.950   0.543
  185SOL     OW  769   3.307   2.634   0.273
  185SOL    HW2  770   3.226   2.664   0.234
  185SOL    HW3  771   3.303   2.538   0.268
  185SOL    MW4  772   3.296   2.625   0.267
  186SOL     OW  773   2.952   2.859   0.765
  186SOL    HW2  774   2.958   2.860   0.670
  186SOL    HW3  775   3.032   2.816   0.794
  186SOL    MW4  776   2.963   2.853   0.756
  187SOL     OW  777   2.845   0.634   0.252
  187SOL    HW2  778   2.907   0.646   0.323
  187SOL    HW3  779   2.899   0.624   0.174
  187SOL    MW4  780   2.860   0.634   0.251
  188SOL     OW  781   2.890   4.233   0.623
  188SOL    HW2  782   2.876   4.186   0.541
  188SOL    HW3  783   2.974   4.201   0.655
  188SOL    MW4  784   2.899   4.222   0.617
  189SOL     OW  785   3.235   3.581   0.580
  189SOL    HW2  786   3.279   3.512   0.532
  189SOL    HW3  787   3.245   3.556   0.672
  189SOL    MW4  788   3.242   3.568   0.586
  190SOL     OW  789   3.802   3.371   0.535
  190SOL    HW2  790   3.811   3.466   0.525
  190SOL    HW3  791   3.885   3.343   0.574
  190SOL    MW4  792   3.814   3.380   0.539
  191SOL     OW  793   3.552   3.401   0.658
  191SOL    HW2  794   3.629   3.378   0.606
  191SOL    HW3  795   3.482   3.347   0.622
  191SOL    MW4  796   3.553   3.391   0.646
  192SOL     OW  797   2.796   3.853   0.492
  192SOL    HW2  798   2.852   3.775   0.493
  192SOL    HW3  799   2.714   3.823   0.455
  192SOL    MW4  800   2.793   3.839   0.487
  193SOL     OW  801   2.484   3.133   0.406
  193SOL    HW2  802   2.541   3.076   0.458
  193SOL    HW3  803   2.524   3.219   0.412
  193SOL    MW4  804   2.497   3.137   0.414
  194SOL     OW  805   4.419   0.081   0.341
  194SOL    HW2  806   4.500   0.121   0.372
  194SOL    HW3  807   4.432  -0.013   0.354
  194SOL    MW4  808   4.431   0.074   0.347
  195SOL     OW  809   3.796   0.202   0.465
  195SOL    HW2  810   3.818   0.294   0.479
  195SOL    HW3  811   3.876   0.155   0.487
  195SOL    MW4  812   3.810   0.208   0.470
  196SOL     OW  813   3.569   0.508   0.352
  196SOL    HW2  814   3.540   0.442   0.289
  196SOL    HW3  815   3.588   0.585   0.298
  196SOL    MW4  816   3.568   0.510   0.336
  197SOL     OW  817   3.787   0.709   0.250
  197SOL    HW2  818   3.875   0.677   0.269
  197SOL    HW3  819   3.801   0.785   0.193
  197SOL    MW4  820   3.800   0.715   0.245
  198SOL     OW  821   4.030   0.629   0.407
  198SOL    HW2  822   4.109   0.575   0.399
  198SOL    HW3  823   3.969   0.574   0.455
  198SOL    MW4  824   4.033   0.614   0.412
  199SOL     OW  825   4.399   0.854   0.460
  199SOL    HW2  826   4.304   0.851   0.452
  199SOL    HW3  827   4.427   0.764   0.445
  199SOL    MW4  828   4.390   0.842   0.457
  200SOL     OW  829   3.912   1.110   0.479
  200SOL    HW2  830   3.893   1.148   0.564
  200SOL    HW3  831   3.854   1.034   0.472
  200SOL    MW4  832   3.902   1.105   0.489
  201SOL     OW  833   4.099   1.601   0.448
  201SOL    HW2  834   4.036   1.668   0.423
  201SOL    HW3  835   4.172   1.614   0.388
  201SOL    MW4  836   4.100   1.611   0.437
  202SOL     OW  837   3.666   1.377   0.461
  202SOL    HW2  838   3.747   1.359   0.413
  202SOL    HW3  839   3.657   1.473   0.458
  202SOL    MW4  840   3.675   1.388   0.454
  203SOL     OW  841   3.299   1.580   0.414
  203SOL    HW2  842   3.224   1.605   0.467
  203SOL    HW3  843   3.288   1.486   0.399
  203SOL    MW4  844   3.288   1.571   0.419
  204SOL     OW  845   2.815   0.965   0.452
  204SOL    HW2  846   2.785   0.966   0.543
  204SOL    HW3  847   2.907   0.940   0.457
  204SOL    MW4  848   2.823   0.962   0.465
  205SOL     OW  849   3.603   2.288   0.491
  205SOL    HW2  850   3.616   2.307   0.398
  205SOL    HW3  851   3.691   2.273   0.525
  205SOL    MW4  852   3.616   2.289   0.483
  206SOL     OW  853   4.240   2.945   0.474
  206SOL    HW2  854   4.272   2.860   0.446
  206SOL    HW3  855   4.146   2.933   0.486
  206SOL    MW4  856   4.232   2.932   0.472
  207SOL     OW  857   2.993   2.569   0.427
  207SOL    HW2  858   3.034   2.557   0.513
  207SOL    HW3  859   3.015   2.489   0.379
  207SOL    MW4  860   3.001   2.556   0.432
  208SOL     OW  861   2.962   3.621   0.551
  208SOL    HW2  862   3.054   3.603   0.531
  208SOL    HW3  863   2.919   3.536   0.540
  208SOL    MW4  864   2.969   3.607   0.547
  209SOL     OW  865   3.454   2.791   0.478
  209SOL    HW2  866   3.501   2.711   0.501
  209SOL    HW3  867   3.398   2.765   0.405
  209SOL    MW4  868   3.453   2.777   0.471
  210SOL     OW  869   3.971   2.903   0.471
  210SOL    HW2  870   3.934   2.821   0.438
  210SOL    HW3  871   3.919   2.972   0.429
  210SOL    MW4  872   3.960   2.902   0.461
  211SOL     OW  873   3.848   2.640   0.451
  211SOL    HW2  874   3.871   2.578   0.382
  211SOL    HW3  875   3.758   2.616   0.475
  211SOL    MW4  876   3.839   2.628   0.445
  212SOL     OW  877   3.863   4.058   0.247
  212SOL    HW2  878   3.923   3.984   0.255
  212SOL    HW3  879   3.832   4.055   0.157
  212SOL    MW4  880   3.867   4.048   0.236
  213SOL     OW  881   3.176   2.365   0.354
  213SOL    HW2  882   3.221   2.347   0.437
  213SOL    HW3  883   3.140   2.281   0.327
  213SOL    MW4  884   3.178   2.352   0.361
  214SOL     OW  885   3.284   3.860   0.600
  214SOL    HW2  886   3.301   3.879   0.692
  214SOL    HW3  887   3.276   3.765   0.596
  214SOL    MW4  888   3.285   3.850   0.612
  215SOL     OW  889   4.314   3.997   0.621
  215SOL    HW2  890   4.286   3.943   0.695
  215SOL    HW3  891   4.257   4.074   0.624
  215SOL    MW4  892   4.303   4.000   0.631
  216SOL     OW  893   3.682   4.127   0.457
  216SOL    HW2  894   3.721   4.081   0.383
  216SOL    HW3  895   3.588   4.115   0.447
  216SOL    MW4  896   3.675   4.119   0.446
  217SOL     OW  897   3.696   4.407   0.494
  217SOL    HW2  898   3.680   4.313   0.487
  217SOL    HW3  899   3.747   4.417   0.574
  217SOL    MW4  900   3.701   4.396   0.503
  218SOL     OW  901   4.258   0.205   0.510
  218SOL    HW2  902   4.323   0.154   0.462
  218SOL    HW3  903   4.293   0.208   0.600
  218SOL    MW4  904   4.271   0.198   0.516
  219SOL     OW  905   4.109   0.882   0.507
  219SOL    HW2  906   4.056   0.953   0.471
  219SOL    HW3  907   4.069   0.802   0.472
  219SOL    MW4  908   4.097   0.881   0.498
  220SOL     OW  909   0.629   1.555   0.407
  220SOL    HW2  910   0.668   1.468   0.408
  220SOL    HW3  911   0.540   1.542   0.441
  220SOL    MW4  912   0.622   1.542   0.412
  221SOL     OW  913   4.248   0.467   0.425
  221SOL    HW2  914   4.257   0.372   0.433
  221SOL    HW3  915   4.332   0.495   0.389
  221SOL    MW4  916   4.260   0.458   0.421
  222SOL     OW  917   4.385   1.352   0.480
  222SOL    HW2  918   4.325   1.399   0.421
  222SOL    HW3  919   4.337   1.347   0.563
  222SOL    MW4  920   4.371   1.358   0.483
  223SOL     OW  921   3.595   4.666   0.498
  223SOL    HW2  922   3.635   4.580   0.484
  223SOL    HW3  923   3.661   4.728   0.466
  223SOL    MW4  924   3.609   4.663   0.492
  224SOL     OW  925   3.928   1.362   0.353
  224SOL    HW2  926   3.955   1.275   0.382
  224SOL    HW3  927   4.005   1.417   0.369
  224SOL    MW4  928   3.942   1.358   0.359
  225SOL     OW  929   0.059   1.109   0.428
  225SOL    HW2  930   0.003   1.186   0.438
  225SOL    HW3  931  -0.001   1.038   0.408
  225SOL    MW4  932   0.044   1.110   0.427
  226SOL     OW  933   4.197   2.390   0.305
  226SOL    HW2  934   4.177   2.347   0.388
  226SOL    HW3  935   4.203   2.483   0.327
  226SOL    MW4  936   4.195   2.397   0.319
  227SOL     OW  937   4.333   1.587   0.285
  227SOL    HW2  938   4.416   1.612   0.326
  227SOL    HW3  939   4.321   1.651   0.215
  227SOL    MW4  940   4.343   1.599   0.281
  228SOL     OW  941   0.485   2.379   0.170
  228SOL    HW2  942   0.390   2.369   0.166
  228SOL    HW3  943   0.503   2.459   0.122
  228SOL    MW4  944   0.475   2.388   0.164
  229SOL     OW  945   0.020   2.097   0.497
  229SOL    HW2  946   0.049   2.033   0.433
  229SOL    HW3  947  -0.001   2.175   0.446
  229SOL    MW4  948   0.021   2.099   0.482
  230SOL     OW  949   0.008   2.551   0.494
  230SOL    HW2  950   0.065   2.628   0.494
  230SOL    HW3  951  -0.003   2.529   0.586
  230SOL    MW4  952   0.014   2.558   0.506
  231SOL     OW  953   4.331   3.603   0.530
  231SOL    HW2  954   4.409   3.556   0.503
  231SOL    HW3  955   4.258   3.555   0.492
  231SOL    MW4  956   4.331   3.591   0.522
  232SOL     OW  957   4.255   2.665   0.447
  232SOL    HW2  958   4.204   2.643   0.525
  232SOL    HW3  959   4.342   2.629   0.464
  232SOL    MW4  960   4.260   2.658   0.460
  233SOL     OW  961   0.346   3.825   0.310
  233SOL    HW2  962   0.323   3.916   0.331
  233SOL    HW3  963   0.442   3.825   0.308
  233SOL    MW4  964   0.356   3.837   0.312
  234SOL     OW  965   0.122   3.498   0.356
  234SOL    HW2  966   0.106   3.573   0.300
  234SOL    HW3  967   0.206   3.516   0.398
  234SOL    MW4  968   0.131   3.510   0.354
  235SOL     OW  969   0.022   3.236   0.413
  235SOL    HW2  970   0.058   3.314   0.372
  235SOL    HW3  971  -0.065   3.226   0.374
  235SOL    MW4  972   0.015   3.245   0.403
  236SOL     OW  973   4.028   3.867   0.367
  236SOL    HW2  974   4.001   3.778   0.389
  236SOL    HW3  975   4.123   3.866   0.375
  236SOL    MW4  976   4.037   3.855   0.371
  237SOL     OW  977   3.796   3.098   0.395
  237SOL    HW2  978   3.795   3.185   0.436
  237SOL    HW3  979   3.704   3.071   0.394
  237SOL    MW4  980   3.783   3.106   0.400
  238SOL     OW  981   0.209   4.088   0.412
  238SOL    HW2  982   0.160   4.080   0.494
  238SOL    HW3  983   0.145   4.065   0.344
  238SOL    MW4  984   0.194   4.084   0.413
  239SOL     OW  985   4.092   4.235   0.333
  239SOL    HW2  986   4.013   4.181   0.326
  239SOL    HW3  987   4.059   4.324   0.347
  239SOL    MW4  988   4.077   4.240   0.333
  240SOL     OW  989   4.160   4.229   0.624
  240SOL    HW2  990   4.212   4.308   0.637
  240SOL    HW3  991   4.141   4.227   0.530
  240SOL    MW4  992   4.164   4.239   0.614
  241SOL     OW  993   3.965   4.459   0.441
  241SOL    HW2  994   3.983   4.450   0.534
  241SOL    HW3  995   3.872   4.437   0.432
  241SOL    MW4  996   3.955   4.455   0.452
  242SOL     OW  997   0.248   0.012   0.839
  242SOL    HW2  998   0.251  -0.070   0.788
  242SOL    HW3  999   0.168   0.055   0.810
  242SOL    MW4 1000   0.238   0.007   0.828
  243SOL     OW 1001   0.022   0.110   0.729
  243SOL    HW2 1002  -0.063   0.074   0.756
  243SOL    HW3 1003   0.020   0.201   0.761
  243SOL    MW4 1004   0.011   0.117   0.737
  244SOL     OW 1005   0.007   0.377   0.824
  244SOL    HW2 1006  -0.007   0.388   0.918
  244SOL    HW3 1007   0.081   0.434   0.803
  244SOL    MW4 1008   0.015   0.386   0.833
  245SOL     OW 1009   0.214   0.530   0.725
  245SOL    HW2 1010   0.292   0.483   0.756
  245SOL    HW3 1011   0.234   0.622   0.744
  245SOL    MW4 1012   0.227   0.536   0.732
  246SOL     OW 1013   0.244   0.793   0.815
  246SOL    HW2 1014   0.243   0.807   0.910
  246SOL    HW3 1015   0.160   0.828   0.785
  246SOL    MW4 1016   0.233   0.799   0.824
  247SOL     OW 1017   4.478   0.873   0.749
  247SOL    HW2 1018   4.405   0.822   0.784
  247SOL    HW3 1019   4.458   0.884   0.657
  247SOL    MW4 1020   4.466   0.868   0.742
  248SOL     OW 1021   0.041   1.139   0.819
  248SOL    HW2 1022   0.047   1.142   0.915
  248SOL    HW3 1023   0.023   1.047   0.799
  248SOL    MW4 1024   0.040   1.127   0.829
  249SOL     OW 1025   0.280   1.275   0.734
  249SOL    HW2 1026   0.189   1.246   0.746
  249SOL    HW3 1027   0.303   1.244   0.646
  249SOL    MW4 1028   0.271   1.267   0.724
  250SOL     OW 1029   0.247   1.528   0.850
  250SOL    HW2 1030   0.330   1.562   0.814
  250SOL    HW3 1031   0.252   1.434   0.837
  250SOL    MW4 1032   0.259   1.520   0.843
  251SOL     OW 1033   0.049   1.706   0.699
  251SOL    HW2 1034  -0.013   1.659   0.754
  251SOL    HW3 1035   0.134   1.665   0.718
  251SOL    MW4 1036   0.052   1.694   0.709
  252SOL     OW 1037   0.045   1.962   0.848
  252SOL    HW2 1038   0.117   2.011   0.808
  252SOL    HW3 1039   0.054   1.874   0.811
  252SOL    MW4 1040   0.056   1.957   0.838
  253SOL     OW 1041   0.218   2.121   0.692
  253SOL    HW2 1042   0.214   2.200   0.746
  253SOL    HW3 1043   0.147   2.130   0.629
  253SOL    MW4 1044   0.208   2.132   0.691
  254SOL     OW 1045   0.244   2.386   0.812
  254SOL    HW2 1046   0.267   2.369   0.904
  254SOL    HW3 1047   0.323   2.425   0.775
  254SOL    MW4 1048   0.257   2.389   0.820
  255SOL     OW 1049   4.478   2.503   0.781
  255SOL    HW2 1050   4.411   2.439   0.803
  255SOL    HW3 1051   4.561   2.460   0.805
  255SOL    MW4 1052   4.480   2.489   0.787
  256SOL     OW 1053   4.443   2.752   0.868
  256SOL    HW2 1054   4.467   2.756   0.960
  256SOL    HW3 1055   4.446   2.659   0.846
  256SOL    MW4 1056   4.447   2.741   0.877
  257SOL     OW 1057   0.220   2.835   0.755
  257SOL    HW2 1058   0.148   2.802   0.808
  257SOL    HW3 1059   0.206   2.797   0.668
  257SOL    MW4 1060   0.209   2.826   0.751
  258SOL     OW 1061   0.251   3.112   0.862
  258SOL    HW2 1062   0.231   3.110   0.956
  258SOL    HW3 1063   0.254   3.020   0.837
  258SOL    MW4 1064   0.248   3.099   0.871
  259SOL     OW 1065   0.026   3.231   0.727
  259SOL    HW2 1066   0.099   3.184   0.765
  259SOL    HW3 1067   0.033   3.215   0.633
  259SOL    MW4 1068   0.036   3.223   0.720
  260SOL     OW 1069   0.122   3.478   0.833
  260SOL    HW2 1070   0.048   3.536   0.819
  260SOL    HW3 1071   0.100   3.397   0.787
  260SOL    MW4 1072   0.109   3.475   0.825
  261SOL     OW 1073   0.351   3.630   0.752
  261SOL    HW2 1074   0.276   3.584   0.791
  261SOL    HW3 1075   0.340   3.619   0.658
  261SOL    MW4 1076   0.340   3.622   0.745
  262SOL     OW 1077   0.313   3.922   0.763
  262SOL    HW2 1078   0.298   3.929   0.857
  262SOL    HW3 1079   0.316   3.828   0.746
  262SOL    MW4 1080   0.311   3.911   0.773
  263SOL     OW 1081   0.098   4.066   0.663
  263SOL    HW2 1082   0.015   4.018   0.670
  263SOL    HW3 1083   0.165   4.001   0.682
  263SOL    MW4 1084   0.096   4.051   0.666
  264SOL     OW 1085   0.027   4.302   0.794
  264SOL    HW2 1086   0.006   4.296   0.887
  264SOL    HW3 1087   0.032   4.211   0.764
  264SOL    MW4 1088   0.025   4.290   0.802
  265SOL     OW 1089   0.240   4.441   0.698
  265SOL    HW2 1090   0.166   4.399   0.742
  265SOL    HW3 1091   0.236   4.410   0.608
  265SOL    MW4 1092   0.230   4.431   0.692
  266SOL     OW 1093   0.653   4.640   0.831
  266SOL    HW2 1094   0.648   4.648   0.926
  266SOL    HW3 1095   0.581   4.694   0.799
  266SOL    MW4 1096   0.643   4.648   0.839
  267SOL     OW 1097   0.470   0.150   0.733
  267SOL    HW2 1098   0.394   0.098   0.761
  267SOL    HW3 1099   0.464   0.151   0.637
  267SOL    MW4 1100   0.459   0.143   0.724
  268SOL     OW 1101   0.442   0.399   0.861
  268SOL    HW2 1102   0.518   0.446   0.828
  268SOL    HW3 1103   0.451   0.311   0.825
  268SOL    MW4 1104   0.453   0.394   0.852
  269SOL     OW 1105   0.663   0.532   0.746
  269SOL    HW2 1106   0.740   0.481   0.771
  269SOL    HW3 1107   0.656   0.521   0.651
  269SOL    MW4 1108   0.672   0.524   0.736
  270SOL     OW 1109   0.661   0.772   0.866
  270SOL    HW2 1110   0.595   0.814   0.811
  270SOL    HW3 1111   0.669   0.684   0.830
  270SOL    MW4 1112   0.653   0.766   0.854
  271SOL     OW 1113   0.476   0.902   0.712
  271SOL    HW2 1114   0.477   0.987   0.756
  271SOL    HW3 1115   0.388   0.868   0.729
  271SOL    MW4 1116   0.465   0.909   0.720
  272SOL     OW 1117   0.489   1.138   0.865
  272SOL    HW2 1118   0.570   1.176   0.831
  272SOL    HW3 1119   0.419   1.188   0.822
  272SOL    MW4 1120   0.490   1.150   0.855
  273SOL     OW 1121   0.704   1.270   0.730
  273SOL    HW2 1122   0.705   1.363   0.752
  273SOL    HW3 1123   0.702   1.268   0.634
  273SOL    MW4 1124   0.704   1.282   0.720
  274SOL     OW 1125   0.716   1.539   0.828
  274SOL    HW2 1126   0.708   1.536   0.923
  274SOL    HW3 1127   0.631   1.571   0.798
  274SOL    MW4 1128   0.703   1.543   0.836
  275SOL     OW 1129   0.438   1.645   0.723
  275SOL    HW2 1130   0.428   1.738   0.705
  275SOL    HW3 1131   0.437   1.604   0.636
  275SOL    MW4 1132   0.436   1.652   0.709
  276SOL     OW 1133   0.409   1.920   0.631
  276SOL    HW2 1134   0.339   1.986   0.640
  276SOL    HW3 1135   0.434   1.924   0.539
  276SOL    MW4 1136   0.403   1.929   0.620
  277SOL     OW 1137   0.594   2.033   0.828
  277SOL    HW2 1138   0.563   2.006   0.915
  277SOL    HW3 1139   0.530   1.997   0.767
  277SOL    MW4 1140   0.582   2.025   0.832
  278SOL     OW 1141   0.687   2.290   0.851
  278SOL    HW2 1142   0.701   2.285   0.945
  278SOL    HW3 1143   0.659   2.202   0.826
  278SOL    MW4 1144   0.685   2.278   0.860
  279SOL     OW 1145   0.510   2.484   0.741
  279SOL    HW2 1146   0.557   2.409   0.778
  279SOL    HW3 1147   0.548   2.496   0.654
  279SOL    MW4 1148   0.521   2.475   0.735
  280SOL     OW 1149   0.487   2.736   0.837
  280SOL    HW2 1150   0.493   2.646   0.806
  280SOL    HW3 1151   0.395   2.760   0.825
  280SOL    MW4 1152   0.476   2.727   0.831
  281SOL     OW 1153   0.731   2.803   0.716
  281SOL    HW2 1154   0.802   2.763   0.766
  281SOL    HW3 1155   0.652   2.784   0.766
  281SOL    MW4 1156   0.730   2.796   0.729
  282SOL     OW 1157   0.730   3.076   0.823
  282SOL    HW2 1158   0.642   3.100   0.796
  282SOL    HW3 1159   0.741   2.986   0.793
  282SOL    MW4 1160   0.720   3.067   0.816
  283SOL     OW 1161   0.486   3.197   0.738
  283SOL    HW2 1162   0.509   3.279   0.783
  283SOL    HW3 1163   0.411   3.163   0.786
  283SOL    MW4 1164   0.479   3.203   0.750
  284SOL     OW 1165   0.537   3.449   0.870
  284SOL    HW2 1166   0.540   3.450   0.966
  284SOL    HW3 1167   0.465   3.509   0.848
  284SOL    MW4 1168   0.528   3.457   0.880
  285SOL     OW 1169   0.683   3.637   0.727
  285SOL    HW2 1170   0.636   3.587   0.794
  285SOL    HW3 1171   0.683   3.727   0.760
  285SOL    MW4 1172   0.677   3.642   0.740
  286SOL     OW 1173   0.719   3.893   0.830
  286SOL    HW2 1174   0.795   3.952   0.826
  286SOL    HW3 1175   0.652   3.937   0.778
  286SOL    MW4 1176   0.720   3.907   0.823
  287SOL     OW 1177   0.538   4.045   0.684
  287SOL    HW2 1178   0.528   4.131   0.724
  287SOL    HW3 1179   0.455   4.001   0.699
  287SOL    MW4 1180   0.526   4.051   0.691
  288SOL     OW 1181   0.458   4.282   0.801
  288SOL    HW2 1182   0.440   4.280   0.895
  288SOL    HW3 1183   0.380   4.322   0.763
  288SOL    MW4 1184   0.445   4.287   0.809
  289SOL     OW 1185   0.677   4.413   0.691
  289SOL    HW2 1186   0.606   4.375   0.743
  289SOL    HW3 1187   0.684   4.503   0.722
  289SOL    MW4 1188   0.669   4.420   0.702
  290SOL     OW 1189   1.076   4.641   0.871
  290SOL    HW2 1190   1.154   4.692   0.849
  290SOL    HW3 1191   1.009   4.671   0.810
  290SOL    MW4 1192   1.077   4.652   0.860
  291SOL     OW 1193   0.874   0.082   0.711
  291SOL    HW2 1194   0.868   0.175   0.730
  291SOL    HW3 1195   0.802   0.042   0.760
  291SOL    MW4 1196   0.864   0.089   0.720
  292SOL     OW 1197   0.895   0.354   0.816
  292SOL    HW2 1198   0.886   0.370   0.910
  292SOL    HW3 1199   0.985   0.378   0.796
  292SOL    MW4 1200   0.906   0.359   0.826
  293SOL     OW 1201   1.136   0.481   0.747
  293SOL    HW2 1202   1.218   0.435   0.767
  293SOL    HW3 1203   1.127   0.471   0.652
  293SOL    MW4 1204   1.146   0.474   0.737
  294SOL     OW 1205   1.123   0.740   0.846
  294SOL    HW2 1206   1.104   0.731   0.939
  294SOL    HW3 1207   1.138   0.651   0.816
  294SOL    MW4 1208   1.123   0.727   0.854
  295SOL     OW 1209   0.907   0.883   0.763
  295SOL    HW2 1210   0.977   0.818   0.773
  295SOL    HW3 1211   0.833   0.847   0.811
  295SOL    MW4 1212   0.907   0.870   0.771
  296SOL     OW 1213   0.939   1.156   0.817
  296SOL    HW2 1214   0.946   1.073   0.771
  296SOL    HW3 1215   0.854   1.191   0.790
  296SOL    MW4 1216   0.928   1.150   0.807
  297SOL     OW 1217   1.095   1.340   0.696
  297SOL    HW2 1218   1.040   1.274   0.737
  297SOL    HW3 1219   1.057   1.352   0.608
  297SOL    MW4 1220   1.083   1.333   0.689
  298SOL     OW 1221   1.138   1.577   0.836
  298SOL    HW2 1222   1.073   1.640   0.805
  298SOL    HW3 1223   1.133   1.505   0.772
  298SOL    MW4 1224   1.128   1.576   0.823
  299SOL     OW 1225   0.916   1.731   0.722
  299SOL    HW2 1226   0.896   1.814   0.765
  299SOL    HW3 1227   0.868   1.665   0.773
  299SOL    MW4 1228   0.907   1.733   0.734
  300SOL     OW 1229   0.861   1.987   0.838
  300SOL    HW2 1230   0.874   1.972   0.931
  300SOL    HW3 1231   0.766   1.983   0.826
  300SOL    MW4 1232   0.850   1.985   0.848
  301SOL     OW 1233   1.109   2.079   0.679
  301SOL    HW2 1234   1.119   2.163   0.724
  301SOL    HW3 1235   1.030   2.042   0.718
  301SOL    MW4 1236   1.100   2.086   0.690
  302SOL     OW 1237   1.123   2.317   0.809
  302SOL    HW2 1238   1.153   2.308   0.900
  302SOL    HW3 1239   1.183   2.380   0.770
  302SOL    MW4 1240   1.135   2.324   0.816
  303SOL     OW 1241   0.892   2.416   0.699
  303SOL    HW2 1242   0.966   2.362   0.726
  303SOL    HW3 1243   0.817   2.381   0.746
  303SOL    MW4 1244   0.892   2.405   0.709
  304SOL     OW 1245   0.954   2.654   0.833
  304SOL    HW2 1246   0.929   2.631   0.923
  304SOL    HW3 1247   0.949   2.572   0.785
  304SOL    MW4 1248   0.950   2.640   0.839
  305SOL     OW 1249   1.107   2.854   0.701
  305SOL    HW2 1250   1.049   2.796   0.750
  305SOL    HW3 1251   1.110   2.817   0.613
  305SOL    MW4 1252   1.100   2.841   0.696
  306SOL     OW 1253   1.126   3.098   0.849
  306SOL    HW2 1254   1.053   3.149   0.814
  306SOL    HW3 1255   1.122   3.015   0.801
  306SOL    MW4 1256   1.116   3.093   0.838
  307SOL     OW 1257   0.939   3.228   0.708
  307SOL    HW2 1258   0.913   3.313   0.743
  307SOL    HW3 1259   0.867   3.169   0.731
  307SOL    MW4 1260   0.926   3.231   0.715
  308SOL     OW 1261   0.901   3.474   0.842
  308SOL    HW2 1262   0.971   3.539   0.834
  308SOL    HW3 1263   0.825   3.515   0.800
  308SOL    MW4 1264   0.900   3.488   0.836
  309SOL     OW 1265   1.106   3.646   0.801
  309SOL    HW2 1266   1.175   3.590   0.837
  309SOL    HW3 1267   1.117   3.639   0.706
  309SOL    MW4 1268   1.117   3.638   0.793
  310SOL     OW 1269   1.145   3.905   0.869
  310SOL    HW2 1270   1.130   3.905   0.963
  310SOL    HW3 1271   1.124   3.816   0.841
  310SOL    MW4 1272   1.141   3.893   0.878
  311SOL     OW 1273   0.925   4.062   0.806
  311SOL    HW2 1274   0.925   4.149   0.844
  311SOL    HW3 1275   1.010   4.025   0.829
  311SOL    MW4 1276   0.936   4.069   0.814
  312SOL     OW 1277   0.871   4.325   0.884
  312SOL    HW2 1278   0.950   4.364   0.846
  312SOL    HW3 1279   0.799   4.360   0.832
  312SOL    MW4 1280   0.872   4.334   0.872
  313SOL     OW 1281   1.096   4.401   0.748
  313SOL    HW2 1282   1.175   4.364   0.788
  313SOL    HW3 1283   1.091   4.489   0.785
  313SOL    MW4 1284   1.106   4.408   0.758
  314SOL     OW 1285   1.566   4.643   0.862
  314SOL    HW2 1286   1.557   4.617   0.954
  314SOL    HW3 1287   1.484   4.689   0.843
  314SOL    MW4 1288   1.554   4.645   0.872
  315SOL     OW 1289   1.310   0.082   0.788
  315SOL    HW2 1290   1.325   0.176   0.798
  315SOL    HW3 1291   1.309   0.068   0.693
  315SOL    MW4 1292   1.312   0.092   0.777
  316SOL     OW 1293   1.377   0.359   0.799
  316SOL    HW2 1294   1.384   0.348   0.894
  316SOL    HW3 1295   1.438   0.430   0.778
  316SOL    MW4 1296   1.386   0.367   0.809
  317SOL     OW 1297   1.567   0.535   0.719
  317SOL    HW2 1298   1.571   0.621   0.762
  317SOL    HW3 1299   1.631   0.482   0.765
  317SOL    MW4 1300   1.576   0.540   0.730
  318SOL     OW 1301   1.563   0.799   0.835
  318SOL    HW2 1302   1.634   0.832   0.780
  318SOL    HW3 1303   1.485   0.846   0.804
  318SOL    MW4 1304   1.562   0.809   0.824
  319SOL     OW 1305   1.328   0.893   0.734
  319SOL    HW2 1306   1.312   0.982   0.766
  319SOL    HW3 1307   1.256   0.841   0.770
  319SOL    MW4 1308   1.316   0.898   0.743
  320SOL     OW 1309   1.312   1.181   0.775
  320SOL    HW2 1310   1.382   1.224   0.726
  320SOL    HW3 1311   1.232   1.221   0.742
  320SOL    MW4 1312   1.311   1.192   0.764
  321SOL     OW 1313   1.521   1.303   0.629
  321SOL    HW2 1314   1.553   1.392   0.611
  321SOL    HW3 1315   1.448   1.292   0.568
  321SOL    MW4 1316   1.516   1.314   0.618
  322SOL     OW 1317   1.748   1.690   0.792
  322SOL    HW2 1318   1.700   1.658   0.868
  322SOL    HW3 1319   1.832   1.643   0.796
  322SOL    MW4 1320   1.753   1.680   0.803
  323SOL     OW 1321   1.329   1.690   0.649
  323SOL    HW2 1322   1.347   1.779   0.677
  323SOL    HW3 1323   1.260   1.659   0.708
  323SOL    MW4 1324   1.322   1.698   0.660
  324SOL     OW 1325   1.334   1.946   0.780
  324SOL    HW2 1326   1.323   1.960   0.874
  324SOL    HW3 1327   1.263   1.996   0.739
  324SOL    MW4 1328   1.323   1.955   0.787
  325SOL     OW 1329   1.568   2.080   0.760
  325SOL    HW2 1330   1.482   2.044   0.781
  325SOL    HW3 1331   1.567   2.090   0.664
  325SOL    MW4 1332   1.556   2.077   0.750
  326SOL     OW 1333   1.524   2.337   0.859
  326SOL    HW2 1334   1.452   2.380   0.814
  326SOL    HW3 1335   1.526   2.249   0.822
  326SOL    MW4 1336   1.515   2.331   0.848
  327SOL     OW 1337   1.319   2.473   0.704
  327SOL    HW2 1338   1.320   2.564   0.735
  327SOL    HW3 1339   1.302   2.480   0.610
  327SOL    MW4 1340   1.317   2.486   0.696
  328SOL     OW 1341   1.336   2.739   0.789
  328SOL    HW2 1342   1.343   2.728   0.884
  328SOL    HW3 1343   1.260   2.797   0.778
  328SOL    MW4 1344   1.327   2.745   0.800
  329SOL     OW 1345   1.589   2.836   0.751
  329SOL    HW2 1346   1.582   2.931   0.763
  329SOL    HW3 1347   1.505   2.801   0.781
  329SOL    MW4 1348   1.577   2.844   0.757
  330SOL     OW 1349   1.578   3.113   0.810
  330SOL    HW2 1350   1.577   3.115   0.906
  330SOL    HW3 1351   1.507   3.173   0.785
  330SOL    MW4 1352   1.568   3.121   0.819
  331SOL     OW 1353   1.341   3.249   0.753
  331SOL    HW2 1354   1.256   3.215   0.781
  331SOL    HW3 1355   1.325   3.285   0.666
  331SOL    MW4 1356   1.328   3.249   0.745
  332SOL     OW 1357   1.338   3.493   0.890
  332SOL    HW2 1358   1.400   3.548   0.842
  332SOL    HW3 1359   1.336   3.411   0.841
  332SOL    MW4 1360   1.346   3.490   0.877
  333SOL     OW 1361   1.520   3.655   0.749
  333SOL    HW2 1362   1.601   3.616   0.783
  333SOL    HW3 1363   1.537   3.668   0.656
  333SOL    MW4 1364   1.533   3.652   0.741
  334SOL     OW 1365   1.560   3.933   0.866
  334SOL    HW2 1366   1.492   3.992   0.835
  334SOL    HW3 1367   1.551   3.855   0.810
  334SOL    MW4 1368   1.549   3.930   0.855
  335SOL     OW 1369   1.333   4.044   0.724
  335SOL    HW2 1370   1.275   3.984   0.769
  335SOL    HW3 1371   1.336   4.011   0.634
  335SOL    MW4 1372   1.326   4.032   0.718
  336SOL     OW 1373   1.330   4.296   0.869
  336SOL    HW2 1374   1.410   4.344   0.847
  336SOL    HW3 1375   1.334   4.218   0.813
  336SOL    MW4 1376   1.341   4.292   0.859
  337SOL     OW 1377   1.570   4.373   0.741
  337SOL    HW2 1378   1.654   4.344   0.774
  337SOL    HW3 1379   1.572   4.469   0.751
  337SOL    MW4 1380   1.581   4.382   0.746
  338SOL     OW 1381   1.837   0.043   0.901
  338SOL    HW2 1382   1.894   0.019   0.828
  338SOL    HW3 1383   1.752   0.008   0.878
  338SOL    MW4 1384   1.834   0.035   0.888
  339SOL     OW 1385   1.652   0.162   0.543
  339SOL    HW2 1386   1.565   0.123   0.534
  339SOL    HW3 1387   1.659   0.184   0.636
  339SOL    MW4 1388   1.642   0.159   0.554
  340SOL     OW 1389   1.744   0.298   0.801
  340SOL    HW2 1390   1.769   0.224   0.856
  340SOL    HW3 1391   1.825   0.348   0.789
  340SOL    MW4 1392   1.758   0.295   0.807
  341SOL     OW 1393   1.954   0.478   0.757
  341SOL    HW2 1394   1.989   0.459   0.670
  341SOL    HW3 1395   2.031   0.484   0.813
  341SOL    MW4 1396   1.969   0.477   0.753
  342SOL     OW 1397   1.951   0.750   0.828
  342SOL    HW2 1398   2.027   0.787   0.783
  342SOL    HW3 1399   1.950   0.658   0.802
  342SOL    MW4 1400   1.961   0.743   0.819
  343SOL     OW 1401   1.785   0.919   0.687
  343SOL    HW2 1402   1.772   1.004   0.728
  343SOL    HW3 1403   1.840   0.870   0.748
  343SOL    MW4 1404   1.790   0.924   0.700
  344SOL     OW 1405   1.785   1.182   0.802
  344SOL    HW2 1406   1.872   1.216   0.780
  344SOL    HW3 1407   1.725   1.245   0.763
  344SOL    MW4 1408   1.789   1.195   0.794
  345SOL     OW 1409   2.043   1.269   0.747
  345SOL    HW2 1410   2.109   1.217   0.791
  345SOL    HW3 1411   2.061   1.257   0.654
  345SOL    MW4 1412   2.054   1.261   0.740
  346SOL     OW 1413   2.002   1.564   0.818
  346SOL    HW2 1414   2.067   1.625   0.782
  346SOL    HW3 1415   2.029   1.479   0.785
  346SOL    MW4 1416   2.014   1.561   0.809
  347SOL     OW 1417   2.126   1.440   0.480
  347SOL    HW2 1418   2.073   1.518   0.492
  347SOL    HW3 1419   2.211   1.472   0.452
  347SOL    MW4 1420   2.130   1.454   0.478
  348SOL     OW 1421   1.798   1.957   0.805
  348SOL    HW2 1422   1.762   1.869   0.790
  348SOL    HW3 1423   1.726   2.016   0.783
  348SOL    MW4 1424   1.784   1.953   0.800
  349SOL     OW 1425   1.892   1.955   0.537
  349SOL    HW2 1426   1.933   2.039   0.515
  349SOL    HW3 1427   1.870   1.963   0.630
  349SOL    MW4 1428   1.894   1.967   0.546
  350SOL     OW 1429   2.028   2.305   0.867
  350SOL    HW2 1430   2.053   2.304   0.959
  350SOL    HW3 1431   1.938   2.337   0.867
  350SOL    MW4 1432   2.019   2.309   0.879
  351SOL     OW 1433   1.776   2.423   0.795
  351SOL    HW2 1434   1.690   2.397   0.828
  351SOL    HW3 1435   1.773   2.401   0.701
  351SOL    MW4 1436   1.765   2.416   0.787
  352SOL     OW 1437   1.826   2.698   0.786
  352SOL    HW2 1438   1.802   2.606   0.788
  352SOL    HW3 1439   1.744   2.745   0.770
  352SOL    MW4 1440   1.812   2.692   0.784
  353SOL     OW 1441   2.031   2.876   0.820
  353SOL    HW2 1442   2.110   2.825   0.840
  353SOL    HW3 1443   1.965   2.811   0.797
  353SOL    MW4 1444   2.033   2.861   0.819
  354SOL     OW 1445   2.041   3.160   0.841
  354SOL    HW2 1446   1.959   3.206   0.824
  354SOL    HW3 1447   2.028   3.073   0.803
  354SOL    MW4 1448   2.029   3.154   0.834
  355SOL     OW 1449   1.800   3.277   0.745
  355SOL    HW2 1450   1.735   3.214   0.777
  355SOL    HW3 1451   1.782   3.285   0.651
  355SOL    MW4 1452   1.789   3.270   0.737
  356SOL     OW 1453   1.758   3.531   0.836
  356SOL    HW2 1454   1.752   3.510   0.929
  356SOL    HW3 1455   1.785   3.448   0.795
  356SOL    MW4 1456   1.761   3.517   0.843
  357SOL     OW 1457   2.007   3.635   0.727
  357SOL    HW2 1458   2.004   3.726   0.757
  357SOL    HW3 1459   1.928   3.596   0.763
  357SOL    MW4 1460   1.996   3.642   0.736
  358SOL     OW 1461   2.045   3.894   0.834
  358SOL    HW2 1462   2.051   3.869   0.926
  358SOL    HW3 1463   1.970   3.953   0.829
  358SOL    MW4 1464   2.036   3.899   0.845
  359SOL     OW 1465   1.802   4.034   0.778
  359SOL    HW2 1466   1.722   4.012   0.825
  359SOL    HW3 1467   1.782   4.016   0.686
  359SOL    MW4 1468   1.789   4.029   0.772
  360SOL     OW 1469   1.829   4.306   0.857
  360SOL    HW2 1470   1.827   4.304   0.952
  360SOL    HW3 1471   1.818   4.215   0.830
  360SOL    MW4 1472   1.827   4.294   0.866
  361SOL     OW 1473   2.058   4.384   0.733
  361SOL    HW2 1474   1.979   4.354   0.780
  361SOL    HW3 1475   2.056   4.336   0.650
  361SOL    MW4 1476   2.047   4.373   0.729
  362SOL     OW 1477   2.461   0.044   0.796
  362SOL    HW2 1478   2.468   0.040   0.891
  362SOL    HW3 1479   2.531   0.103   0.769
  362SOL    MW4 1480   2.471   0.051   0.805
  363SOL     OW 1481   2.218   0.206   0.700
  363SOL    HW2 1482   2.276   0.141   0.739
  363SOL    HW3 1483   2.131   0.165   0.701
  363SOL    MW4 1484   2.214   0.192   0.705
  364SOL     OW 1485   2.189   0.427   0.887
  364SOL    HW2 1486   2.254   0.494   0.868
  364SOL    HW3 1487   2.209   0.356   0.825
  364SOL    MW4 1488   2.200   0.426   0.876
  365SOL     OW 1489   2.417   0.620   0.851
  365SOL    HW2 1490   2.441   0.689   0.788
  365SOL    HW3 1491   2.486   0.554   0.841
  365SOL    MW4 1492   2.430   0.620   0.841
  366SOL     OW 1493   2.455   0.809   0.635
  366SOL    HW2 1494   2.427   0.871   0.568
  366SOL    HW3 1495   2.477   0.730   0.586
  366SOL    MW4 1496   2.455   0.807   0.619
  367SOL     OW 1497   2.177   0.838   0.702
  367SOL    HW2 1498   2.264   0.817   0.669
  367SOL    HW3 1499   2.132   0.877   0.626
  367SOL    MW4 1500   2.183   0.840   0.687
  368SOL     OW 1501   2.276   1.108   0.809
  368SOL    HW2 1502   2.254   1.126   0.900
  368SOL    HW3 1503   2.251   1.017   0.795
  368SOL    MW4 1504   2.270   1.098   0.819
  369SOL     OW 1505   2.435   1.323   0.697
  369SOL    HW2 1506   2.364   1.266   0.727
  369SOL    HW3 1507   2.453   1.295   0.608
  369SOL    MW4 1508   2.428   1.312   0.689
  370SOL     OW 1509   2.411   1.577   0.802
  370SOL    HW2 1510   2.494   1.612   0.770
  370SOL    HW3 1511   2.405   1.489   0.764
  370SOL    MW4 1512   2.421   1.570   0.793
  371SOL     OW 1513   2.206   1.734   0.730
  371SOL    HW2 1514   2.272   1.681   0.774
  371SOL    HW3 1515   2.227   1.727   0.637
  371SOL    MW4 1516   2.218   1.726   0.724
  372SOL     OW 1517   2.179   2.017   0.828
  372SOL    HW2 1518   2.168   1.939   0.773
  372SOL    HW3 1519   2.112   2.078   0.796
  372SOL    MW4 1520   2.169   2.014   0.816
  373SOL     OW 1521   2.460   2.064   0.764
  373SOL    HW2 1522   2.374   2.046   0.802
  373SOL    HW3 1523   2.453   2.031   0.674
  373SOL    MW4 1524   2.448   2.058   0.757
  374SOL     OW 1525   2.454   2.337   0.828
  374SOL    HW2 1526   2.536   2.376   0.799
  374SOL    HW3 1527   2.460   2.245   0.800
  374SOL    MW4 1528   2.466   2.330   0.820
  375SOL     OW 1529   2.223   2.478   0.742
  375SOL    HW2 1530   2.303   2.430   0.765
  375SOL    HW3 1531   2.152   2.427   0.782
  375SOL    MW4 1532   2.224   2.465   0.751
  376SOL     OW 1533   2.272   2.729   0.856
  376SOL    HW2 1534   2.258   2.704   0.948
  376SOL    HW3 1535   2.251   2.650   0.806
  376SOL    MW4 1536   2.267   2.715   0.862
  377SOL     OW 1537   2.509   2.840   0.722
  377SOL    HW2 1538   2.577   2.799   0.775
  377SOL    HW3 1539   2.426   2.810   0.761
  377SOL    MW4 1540   2.507   2.831   0.734
  378SOL     OW 1541   2.489   3.105   0.821
  378SOL    HW2 1542   2.492   3.093   0.916
  378SOL    HW3 1543   2.498   3.016   0.786
  378SOL    MW4 1544   2.490   3.092   0.829
  379SOL     OW 1545   2.270   3.282   0.760
  379SOL    HW2 1546   2.192   3.243   0.799
  379SOL    HW3 1547   2.341   3.224   0.788
  379SOL    MW4 1548   2.269   3.269   0.769
  380SOL     OW 1549   2.244   3.527   0.896
  380SOL    HW2 1550   2.277   3.459   0.837
  380SOL    HW3 1551   2.162   3.555   0.856
  380SOL    MW4 1552   2.237   3.522   0.883
  381SOL     OW 1553   2.486   3.630   0.795
  381SOL    HW2 1554   2.557   3.584   0.840
  381SOL    HW3 1555   2.406   3.598   0.838
  381SOL    MW4 1556   2.485   3.620   0.807
  382SOL     OW 1557   2.493   3.902   0.846
  382SOL    HW2 1558   2.424   3.934   0.788
  382SOL    HW3 1559   2.490   3.807   0.836
  382SOL    MW4 1560   2.484   3.894   0.837
  383SOL     OW 1561   2.271   4.030   0.718
  383SOL    HW2 1562   2.216   3.967   0.765
  383SOL    HW3 1563   2.235   4.033   0.630
  383SOL    MW4 1564   2.259   4.022   0.713
  384SOL     OW 1565   2.279   4.274   0.855
  384SOL    HW2 1566   2.276   4.186   0.818
  384SOL    HW3 1567   2.202   4.318   0.819
  384SOL    MW4 1568   2.269   4.268   0.845
  385SOL     OW 1569   2.548   4.335   0.919
  385SOL    HW2 1570   2.467   4.292   0.891
  385SOL    HW3 1571   2.531   4.362   1.009
  385SOL    MW4 1572   2.535   4.333   0.927
  386SOL     OW 1573   2.840   0.005   0.857
  386SOL    HW2 1574   2.818  -0.069   0.800
  386SOL    HW3 1575   2.785   0.077   0.826
  386SOL    MW4 1576   2.830   0.005   0.845
  387SOL     OW 1577   2.690   4.499   0.710
  387SOL    HW2 1578   2.670   4.527   0.621
  387SOL    HW3 1579   2.613   4.526   0.761
  387SOL    MW4 1580   2.677   4.506   0.705
  388SOL     OW 1581   2.645   0.438   0.819
  388SOL    HW2 1582   2.651   0.406   0.910
  388SOL    HW3 1583   2.723   0.493   0.808
  388SOL    MW4 1584   2.656   0.441   0.830
  389SOL     OW 1585   2.895   0.537   0.730
  389SOL    HW2 1586   2.955   0.490   0.788
  389SOL    HW3 1587   2.906   0.496   0.645
  389SOL    MW4 1588   2.904   0.526   0.727
  390SOL     OW 1589   2.874   0.791   0.823
  390SOL    HW2 1590   2.871   0.778   0.917
  390SOL    HW3 1591   2.873   0.703   0.786
  390SOL    MW4 1592   2.873   0.778   0.830
  391SOL     OW 1593   2.696   0.957   0.697
  391SOL    HW2 1594   2.757   0.892   0.731
  391SOL    HW3 1595   2.618   0.907   0.673
  391SOL    MW4 1596   2.693   0.942   0.698
  392SOL     OW 1597   2.638   1.194   0.831
  392SOL    HW2 1598   2.660   1.116   0.782
  392SOL    HW3 1599   2.556   1.225   0.792
  392SOL    MW4 1600   2.630   1.188   0.820
  393SOL     OW 1601   2.851   1.305   0.709
  393SOL    HW2 1602   2.927   1.254   0.738
  393SOL    HW3 1603   2.778   1.272   0.762
  393SOL    MW4 1604   2.851   1.294   0.720
  394SOL     OW 1605   2.862   1.540   0.872
  394SOL    HW2 1606   2.948   1.575   0.849
  394SOL    HW3 1607   2.845   1.473   0.807
  394SOL    MW4 1608   2.871   1.536   0.860
  395SOL     OW 1609   2.670   1.678   0.705
  395SOL    HW2 1610   2.680   1.767   0.737
  395SOL    HW3 1611   2.735   1.627   0.754
  395SOL    MW4 1612   2.680   1.683   0.715
  396SOL     OW 1613   2.683   1.926   0.830
  396SOL    HW2 1614   2.697   1.908   0.923
  396SOL    HW3 1615   2.600   1.973   0.827
  396SOL    MW4 1616   2.674   1.930   0.842
  397SOL     OW 1617   2.837   2.124   0.709
  397SOL    HW2 1618   2.860   2.201   0.761
  397SOL    HW3 1619   2.779   2.073   0.766
  397SOL    MW4 1620   2.832   2.128   0.723
  398SOL     OW 1621   2.915   2.361   0.830
  398SOL    HW2 1622   2.921   2.348   0.925
  398SOL    HW3 1623   2.840   2.420   0.819
  398SOL    MW4 1624   2.906   2.367   0.841
  399SOL     OW 1625   2.681   2.491   0.779
  399SOL    HW2 1626   2.690   2.509   0.686
  399SOL    HW3 1627   2.697   2.576   0.821
  399SOL    MW4 1628   2.684   2.505   0.773
  400SOL     OW 1629   2.719   2.747   0.877
  400SOL    HW2 1630   2.732   2.741   0.972
  400SOL    HW3 1631   2.796   2.795   0.845
  400SOL    MW4 1632   2.731   2.753   0.885
  401SOL     OW 1633   2.948   2.869   0.493
  401SOL    HW2 1634   2.957   2.782   0.453
  401SOL    HW3 1635   2.854   2.883   0.500
  401SOL    MW4 1636   2.937   2.859   0.488
  402SOL     OW 1637   2.885   3.129   0.859
  402SOL    HW2 1638   2.814   3.167   0.807
  402SOL    HW3 1639   2.909   3.049   0.812
  402SOL    MW4 1640   2.879   3.123   0.846
  403SOL     OW 1641   2.678   3.273   0.718
  403SOL    HW2 1642   2.696   3.349   0.773
  403SOL    HW3 1643   2.609   3.226   0.763
  403SOL    MW4 1644   2.671   3.277   0.731
  404SOL     OW 1645   2.729   3.525   0.881
  404SOL    HW2 1646   2.735   3.507   0.975
  404SOL    HW3 1647   2.807   3.577   0.861
  404SOL    MW4 1648   2.740   3.530   0.891
  405SOL     OW 1649   2.982   3.672   0.819
  405SOL    HW2 1650   2.990   3.766   0.831
  405SOL    HW3 1651   2.980   3.660   0.724
  405SOL    MW4 1652   2.983   3.683   0.808
  406SOL     OW 1653   2.996   3.949   0.863
  406SOL    HW2 1654   2.981   3.935   0.957
  406SOL    HW3 1655   2.909   3.958   0.825
  406SOL    MW4 1656   2.983   3.948   0.870
  407SOL     OW 1657   2.745   3.984   0.750
  407SOL    HW2 1658   2.663   3.951   0.785
  407SOL    HW3 1659   2.747   3.953   0.659
  407SOL    MW4 1660   2.735   3.976   0.742
  408SOL     OW 1661   2.846   4.287   0.957
  408SOL    HW2 1662   2.827   4.256   1.045
  408SOL    HW3 1663   2.942   4.287   0.952
  408SOL    MW4 1664   2.856   4.283   0.968
  409SOL     OW 1665   3.054   4.428   0.504
  409SOL    HW2 1666   3.115   4.463   0.569
  409SOL    HW3 1667   3.005   4.361   0.551
  409SOL    MW4 1668   3.055   4.424   0.519
  410SOL     OW 1669   3.318   0.035   0.846
  410SOL    HW2 1670   3.321   0.016   0.940
  410SOL    HW3 1671   3.238   0.085   0.833
  410SOL    MW4 1672   3.308   0.039   0.856
  411SOL     OW 1673   3.069   0.146   0.805
  411SOL    HW2 1674   3.046   0.233   0.836
  411SOL    HW3 1675   2.992   0.092   0.825
  411SOL    MW4 1676   3.056   0.150   0.812
  412SOL     OW 1677   3.092   0.436   0.888
  412SOL    HW2 1678   3.104   0.432   0.983
  412SOL    HW3 1679   3.176   0.466   0.855
  412SOL    MW4 1680   3.104   0.440   0.896
  413SOL     OW 1681   3.340   0.518   0.783
  413SOL    HW2 1682   3.401   0.449   0.811
  413SOL    HW3 1683   3.332   0.506   0.688
  413SOL    MW4 1684   3.347   0.508   0.774
  414SOL     OW 1685   3.380   0.795   0.815
  414SOL    HW2 1686   3.295   0.826   0.785
  414SOL    HW3 1687   3.373   0.700   0.814
  414SOL    MW4 1688   3.368   0.787   0.811
  415SOL     OW 1689   3.127   0.865   0.743
  415SOL    HW2 1690   3.104   0.949   0.783
  415SOL    HW3 1691   3.056   0.806   0.767
  415SOL    MW4 1692   3.115   0.868   0.751
  416SOL     OW 1693   3.091   1.150   0.783
  416SOL    HW2 1694   3.095   1.142   0.879
  416SOL    HW3 1695   3.175   1.190   0.759
  416SOL    MW4 1696   3.103   1.154   0.793
  417SOL     OW 1697   3.370   1.234   0.738
  417SOL    HW2 1698   3.462   1.212   0.748
  417SOL    HW3 1699   3.364   1.325   0.766
  417SOL    MW4 1700   3.381   1.243   0.743
  418SOL     OW 1701   3.385   1.500   0.798
  418SOL    HW2 1702   3.404   1.502   0.892
  418SOL    HW3 1703   3.465   1.534   0.757
  418SOL    MW4 1704   3.398   1.505   0.805
  419SOL     OW 1705   3.116   1.613   0.807
  419SOL    HW2 1706   3.197   1.563   0.821
  419SOL    HW3 1707   3.100   1.606   0.713
  419SOL    MW4 1708   3.125   1.606   0.796
  420SOL     OW 1709   3.174   1.871   0.836
  420SOL    HW2 1710   3.159   1.889   0.929
  420SOL    HW3 1711   3.152   1.779   0.824
  420SOL    MW4 1712   3.169   1.862   0.846
  421SOL     OW 1713   3.573   2.050   0.883
  421SOL    HW2 1714   3.537   2.128   0.840
  421SOL    HW3 1715   3.534   1.977   0.835
  421SOL    MW4 1716   3.563   2.051   0.871
  422SOL     OW 1717   3.470   2.319   0.808
  422SOL    HW2 1718   3.428   2.315   0.894
  422SOL    HW3 1719   3.557   2.355   0.826
  422SOL    MW4 1720   3.476   2.323   0.822
  423SOL     OW 1721   3.115   2.494   0.694
  423SOL    HW2 1722   3.175   2.425   0.666
  423SOL    HW3 1723   3.050   2.449   0.747
  423SOL    MW4 1724   3.114   2.479   0.697
  424SOL     OW 1725   3.176   2.716   0.841
  424SOL    HW2 1726   3.161   2.642   0.783
  424SOL    HW3 1727   3.251   2.762   0.803
  424SOL    MW4 1728   3.184   2.712   0.828
  425SOL     OW 1729   3.419   2.841   0.738
  425SOL    HW2 1730   3.424   2.830   0.643
  425SOL    HW3 1731   3.487   2.784   0.772
  425SOL    MW4 1732   3.428   2.832   0.730
  426SOL     OW 1733   3.370   3.103   0.798
  426SOL    HW2 1734   3.366   3.111   0.893
  426SOL    HW3 1735   3.379   3.009   0.782
  426SOL    MW4 1736   3.370   3.092   0.808
  427SOL     OW 1737   3.114   3.271   0.797
  427SOL    HW2 1738   3.174   3.197   0.799
  427SOL    HW3 1739   3.031   3.234   0.827
  427SOL    MW4 1740   3.111   3.256   0.801
  428SOL     OW 1741   3.212   3.518   0.852
  428SOL    HW2 1742   3.173   3.432   0.835
  428SOL    HW3 1743   3.139   3.579   0.841
  428SOL    MW4 1744   3.197   3.515   0.848
  429SOL     OW 1745   3.450   4.314   0.622
  429SOL    HW2 1746   3.434   4.238   0.567
  429SOL    HW3 1747   3.508   4.370   0.570
  429SOL    MW4 1748   3.456   4.311   0.608
  430SOL     OW 1749   3.438   3.933   0.870
  430SOL    HW2 1750   3.454   4.025   0.890
  430SOL    HW3 1751   3.395   3.899   0.948
  430SOL    MW4 1752   3.434   3.941   0.883
  431SOL     OW 1753   3.130   4.100   0.696
  431SOL    HW2 1754   3.166   4.038   0.631
  431SOL    HW3 1755   3.082   4.044   0.758
  431SOL    MW4 1756   3.128   4.084   0.695
  432SOL     OW 1757   3.171   4.295   0.880
  432SOL    HW2 1758   3.183   4.375   0.829
  432SOL    HW3 1759   3.150   4.228   0.814
  432SOL    MW4 1760   3.170   4.296   0.865
  433SOL     OW 1761   3.237   4.478   0.693
  433SOL    HW2 1762   3.274   4.555   0.737
  433SOL    HW3 1763   3.312   4.432   0.656
  433SOL    MW4 1764   3.252   4.482   0.694
  434SOL     OW 1765   3.806   4.594   0.895
  434SOL    HW2 1766   3.884   4.649   0.887
  434SOL    HW3 1767   3.733   4.652   0.874
  434SOL    MW4 1768   3.807   4.609   0.891
  435SOL     OW 1769   3.585   0.087   0.792
  435SOL    HW2 1770   3.498   0.054   0.813
  435SOL    HW3 1771   3.595   0.069   0.698
  435SOL    MW4 1772   3.575   0.081   0.782
  436SOL     OW 1773   3.545   0.361   0.858
  436SOL    HW2 1774   3.565   0.364   0.952
  436SOL    HW3 1775   3.569   0.273   0.831
  436SOL    MW4 1776   3.551   0.350   0.867
  437SOL     OW 1777   3.779   0.491   0.780
  437SOL    HW2 1778   3.782   0.583   0.806
  437SOL    HW3 1779   3.694   0.459   0.812
  437SOL    MW4 1780   3.768   0.499   0.787
  438SOL     OW 1781   3.812   0.749   0.856
  438SOL    HW2 1782   3.809   0.764   0.951
  438SOL    HW3 1783   3.882   0.805   0.825
  438SOL    MW4 1784   3.821   0.758   0.864
  439SOL     OW 1785   3.626   0.875   0.714
  439SOL    HW2 1786   3.684   0.819   0.766
  439SOL    HW3 1787   3.538   0.848   0.740
  439SOL    MW4 1788   3.622   0.864   0.725
  440SOL     OW 1789   3.626   1.144   0.798
  440SOL    HW2 1790   3.602   1.140   0.891
  440SOL    HW3 1791   3.627   1.053   0.769
  440SOL    MW4 1792   3.623   1.132   0.807
  441SOL     OW 1793   3.821   1.303   0.694
  441SOL    HW2 1794   3.759   1.245   0.740
  441SOL    HW3 1795   3.771   1.338   0.621
  441SOL    MW4 1796   3.806   1.300   0.691
  442SOL     OW 1797   3.860   1.532   0.876
  442SOL    HW2 1798   3.947   1.552   0.841
  442SOL    HW3 1799   3.828   1.460   0.821
  442SOL    MW4 1800   3.867   1.525   0.865
  443SOL     OW 1801   3.615   1.631   0.718
  443SOL    HW2 1802   3.574   1.714   0.742
  443SOL    HW3 1803   3.689   1.623   0.779
  443SOL    MW4 1804   3.620   1.641   0.729
  444SOL     OW 1805   3.779   1.983   0.711
  444SOL    HW2 1806   3.857   1.949   0.754
  444SOL    HW3 1807   3.714   1.992   0.781
  444SOL    MW4 1808   3.780   1.980   0.726
  445SOL     OW 1809   3.848   2.255   0.634
  445SOL    HW2 1810   3.796   2.298   0.702
  445SOL    HW3 1811   3.847   2.163   0.658
  445SOL    MW4 1812   3.841   2.249   0.646
  446SOL     OW 1813   3.707   1.908   0.446
  446SOL    HW2 1814   3.719   1.930   0.539
  446SOL    HW3 1815   3.656   1.827   0.448
  446SOL    MW4 1816   3.702   1.900   0.459
  447SOL     OW 1817   3.731   2.411   0.843
  447SOL    HW2 1818   3.717   2.504   0.864
  447SOL    HW3 1819   3.772   2.375   0.922
  447SOL    MW4 1820   3.735   2.419   0.856
  448SOL     OW 1821   3.618   2.682   0.845
  448SOL    HW2 1822   3.618   2.694   0.940
  448SOL    HW3 1823   3.676   2.751   0.813
  448SOL    MW4 1824   3.626   2.693   0.854
  449SOL     OW 1825   3.799   2.877   0.737
  449SOL    HW2 1826   3.806   2.968   0.768
  449SOL    HW3 1827   3.845   2.876   0.654
  449SOL    MW4 1828   3.806   2.889   0.730
  450SOL     OW 1829   3.834   3.146   0.805
  450SOL    HW2 1830   3.913   3.186   0.767
  450SOL    HW3 1831   3.763   3.206   0.781
  450SOL    MW4 1832   3.835   3.159   0.797
  451SOL     OW 1833   3.352   3.223   0.560
  451SOL    HW2 1834   3.355   3.177   0.644
  451SOL    HW3 1835   3.400   3.166   0.500
  451SOL    MW4 1836   3.359   3.209   0.563
  452SOL     OW 1837   3.494   3.522   0.894
  452SOL    HW2 1838   3.525   3.472   0.818
  452SOL    HW3 1839   3.405   3.548   0.871
  452SOL    MW4 1840   3.487   3.519   0.881
  453SOL     OW 1841   3.940   3.620   0.496
  453SOL    HW2 1842   3.954   3.653   0.585
  453SOL    HW3 1843   4.010   3.556   0.483
  453SOL    MW4 1844   3.951   3.616   0.506
  454SOL     OW 1845   3.663   3.742   0.838
  454SOL    HW2 1846   3.588   3.802   0.834
  454SOL    HW3 1847   3.623   3.656   0.853
  454SOL    MW4 1848   3.648   3.738   0.840
  455SOL     OW 1849   2.642   4.184   0.225
  455SOL    HW2 1850   2.673   4.187   0.135
  455SOL    HW3 1851   2.592   4.265   0.236
  455SOL    MW4 1852   2.640   4.195   0.215
  456SOL     OW 1853   3.447   4.207   0.885
  456SOL    HW2 1854   3.476   4.221   0.795
  456SOL    HW3 1855   3.357   4.239   0.887
  456SOL    MW4 1856   3.439   4.213   0.873
  457SOL     OW 1857   3.865   4.401   0.722
  457SOL    HW2 1858   3.876   4.322   0.775
  457SOL    HW3 1859   3.840   4.469   0.784
  457SOL    MW4 1860   3.863   4.400   0.737
  458SOL     OW 1861   4.273   0.017   0.845
  458SOL    HW2 1862   4.270  -0.003   0.938
  458SOL    HW3 1863   4.181   0.020   0.818
  458SOL    MW4 1864   4.261   0.014   0.854
  459SOL     OW 1865   4.008   0.076   0.792
  459SOL    HW2 1866   4.026   0.168   0.813
  459SOL    HW3 1867   4.007   0.073   0.696
  459SOL    MW4 1868   4.010   0.088   0.782
  460SOL     OW 1869   4.025   0.349   0.855
  460SOL    HW2 1870   4.083   0.416   0.819
  460SOL    HW3 1871   3.937   0.382   0.838
  460SOL    MW4 1872   4.021   0.362   0.848
  461SOL     OW 1873   4.271   0.487   0.718
  461SOL    HW2 1874   4.348   0.439   0.749
  461SOL    HW3 1875   4.271   0.473   0.623
  461SOL    MW4 1876   4.281   0.479   0.709
  462SOL     OW 1877   4.267   0.726   0.860
  462SOL    HW2 1878   4.191   0.780   0.838
  462SOL    HW3 1879   4.259   0.650   0.803
  462SOL    MW4 1880   4.256   0.723   0.850
  463SOL     OW 1881   4.041   0.888   0.771
  463SOL    HW2 1882   4.054   0.980   0.791
  463SOL    HW3 1883   4.074   0.878   0.681
  463SOL    MW4 1884   4.047   0.899   0.762
  464SOL     OW 1885   4.062   1.177   0.827
  464SOL    HW2 1886   4.067   1.192   0.921
  464SOL    HW3 1887   3.987   1.229   0.798
  464SOL    MW4 1888   4.053   1.186   0.835
  465SOL     OW 1889   4.301   1.304   0.771
  465SOL    HW2 1890   4.224   1.252   0.792
  465SOL    HW3 1891   4.373   1.242   0.771
  465SOL    MW4 1892   4.300   1.289   0.774
  466SOL     OW 1893   4.328   1.578   0.825
  466SOL    HW2 1894   4.323   1.581   0.920
  466SOL    HW3 1895   4.324   1.485   0.803
  466SOL    MW4 1896   4.327   1.566   0.835
  467SOL     OW 1897   4.085   1.647   0.727
  467SOL    HW2 1898   4.177   1.636   0.753
  467SOL    HW3 1899   4.085   1.628   0.633
  467SOL    MW4 1900   4.097   1.643   0.718
  468SOL     OW 1901   4.023   1.919   0.817
  468SOL    HW2 1902   4.045   1.832   0.784
  468SOL    HW3 1903   4.103   1.970   0.807
  468SOL    MW4 1904   4.037   1.914   0.811
  469SOL     OW 1905   4.282   2.050   0.771
  469SOL    HW2 1906   4.371   2.022   0.795
  469SOL    HW3 1907   4.285   2.058   0.676
  469SOL    MW4 1908   4.294   2.048   0.762
  470SOL     OW 1909   4.271   2.317   0.826
  470SOL    HW2 1910   4.213   2.347   0.757
  470SOL    HW3 1911   4.289   2.225   0.804
  470SOL    MW4 1912   4.266   2.309   0.814
  471SOL     OW 1913   4.061   2.604   0.641
  471SOL    HW2 1914   4.068   2.679   0.701
  471SOL    HW3 1915   3.976   2.616   0.598
  471SOL    MW4 1916   4.051   2.616   0.644
  472SOL     OW 1917   4.040   2.776   0.848
  472SOL    HW2 1918   4.111   2.832   0.816
  472SOL    HW3 1919   3.960   2.826   0.830
  472SOL    MW4 1920   4.039   2.790   0.841
  473SOL     OW 1921   4.247   2.924   0.754
  473SOL    HW2 1922   4.322   2.870   0.777
  473SOL    HW3 1923   4.256   2.941   0.660
  473SOL    MW4 1924   4.258   2.919   0.745
  474SOL     OW 1925   4.258   3.189   0.841
  474SOL    HW2 1926   4.243   3.097   0.818
  474SOL    HW3 1927   4.344   3.209   0.804
  474SOL    MW4 1928   4.267   3.179   0.833
  475SOL     OW 1929   4.041   3.289   0.686
  475SOL    HW2 1930   4.010   3.358   0.745
  475SOL    HW3 1931   4.127   3.265   0.720
  475SOL    MW4 1932   4.048   3.295   0.698
  476SOL     OW 1933   3.963   3.474   0.846
  476SOL    HW2 1934   4.020   3.486   0.922
  476SOL    HW3 1935   3.932   3.563   0.824
  476SOL    MW4 1936   3.966   3.488   0.853
  477SOL     OW 1937   4.370   3.620   0.811
  477SOL    HW2 1938   4.326   3.703   0.830
  477SOL    HW3 1939   4.348   3.603   0.719
  477SOL    MW4 1940   4.361   3.629   0.801
  478SOL     OW 1941   4.193   3.854   0.838
  478SOL    HW2 1942   4.188   3.866   0.933
  478SOL    HW3 1943   4.108   3.816   0.815
  478SOL    MW4 1944   4.181   3.851   0.848
  479SOL     OW 1945   3.924   3.771   0.748
  479SOL    HW2 1946   3.831   3.758   0.766
  479SOL    HW3 1947   3.926   3.844   0.686
  479SOL    MW4 1948   3.912   3.779   0.742
  480SOL     OW 1949   3.970   4.162   0.832
  480SOL    HW2 1950   4.037   4.177   0.766
  480SOL    HW3 1951   3.937   4.074   0.813
  480SOL    MW4 1952   3.974   4.153   0.821
  481SOL     OW 1953   4.321   4.456   0.669
  481SOL    HW2 1954   4.304   4.525   0.733
  481SOL    HW3 1955   4.383   4.398   0.713
  481SOL    MW4 1956   4.327   4.458   0.684
  482SOL     OW 1957   0.209   4.646   1.114
  482SOL    HW2 1958   0.285   4.690   1.152
  482SOL    HW3 1959   0.228   4.643   1.020
  482SOL    MW4 1960   0.222   4.651   1.106
  483SOL     OW 1961   4.461   0.129   1.225
  483SOL    HW2 1962   4.396   0.064   1.196
  483SOL    HW3 1963   4.545   0.092   1.198
  483SOL    MW4 1964   4.463   0.115   1.217
  484SOL     OW 1965   4.485   0.393   1.097
  484SOL    HW2 1966   4.419   0.438   1.150
  484SOL    HW3 1967   4.473   0.301   1.117
  484SOL    MW4 1968   4.475   0.387   1.106
  485SOL     OW 1969   0.223   0.534   1.191
  485SOL    HW2 1970   0.225   0.625   1.160
  485SOL    HW3 1971   0.151   0.494   1.142
  485SOL    MW4 1972   0.214   0.541   1.180
  486SOL     OW 1973   0.204   0.791   1.100
  486SOL    HW2 1974   0.275   0.844   1.137
  486SOL    HW3 1975   0.125   0.842   1.117
  486SOL    MW4 1976   0.203   0.805   1.107
  487SOL     OW 1977   0.013   0.945   1.220
  487SOL    HW2 1978   0.027   0.941   1.315
  487SOL    HW3 1979  -0.075   0.908   1.207
  487SOL    MW4 1980   0.003   0.940   1.231
  488SOL     OW 1981   0.048   1.208   1.112
  488SOL    HW2 1982  -0.033   1.257   1.126
  488SOL    HW3 1983   0.034   1.124   1.155
  488SOL    MW4 1984   0.036   1.203   1.119
  489SOL     OW 1985   0.244   1.344   1.224
  489SOL    HW2 1986   0.319   1.292   1.196
  489SOL    HW3 1987   0.174   1.318   1.165
  489SOL    MW4 1988   0.245   1.334   1.213
  490SOL     OW 1989   0.236   1.589   1.120
  490SOL    HW2 1990   0.256   1.504   1.159
  490SOL    HW3 1991   0.244   1.574   1.026
  490SOL    MW4 1992   0.240   1.576   1.113
  491SOL     OW 1993   0.027   1.723   1.256
  491SOL    HW2 1994   0.014   1.804   1.207
  491SOL    HW3 1995   0.101   1.680   1.214
  491SOL    MW4 1996   0.035   1.728   1.244
  492SOL     OW 1997   0.026   1.968   1.132
  492SOL    HW2 1998  -0.048   2.022   1.162
  492SOL    HW3 1999   0.035   1.989   1.039
  492SOL    MW4 2000   0.017   1.978   1.124
  493SOL     OW 2001   0.252   2.099   1.199
  493SOL    HW2 2002   0.236   2.185   1.161
  493SOL    HW3 2003   0.171   2.051   1.186
  493SOL    MW4 2004   0.240   2.104   1.192
  494SOL     OW 2005   0.247   2.351   1.085
  494SOL    HW2 2006   0.324   2.386   1.130
  494SOL    HW3 2007   0.176   2.410   1.110
  494SOL    MW4 2008   0.248   2.364   1.094
  495SOL     OW 2009   0.028   2.473   1.172
  495SOL    HW2 2010   0.022   2.454   1.266
  495SOL    HW3 2011  -0.059   2.453   1.138
  495SOL    MW4 2012   0.016   2.468   1.180
  496SOL     OW 2013   0.020   2.744   1.142
  496SOL    HW2 2014  -0.062   2.777   1.180
  496SOL    HW3 2015   0.022   2.652   1.168
  496SOL    MW4 2016   0.009   2.736   1.151
  497SOL     OW 2017   0.251   2.848   1.244
  497SOL    HW2 2018   0.239   2.853   1.339
  497SOL    HW3 2019   0.167   2.815   1.211
  497SOL    MW4 2020   0.238   2.844   1.252
  498SOL     OW 2021   0.195   3.094   1.146
  498SOL    HW2 2022   0.269   3.151   1.167
  498SOL    HW3 2023   0.218   3.010   1.185
  498SOL    MW4 2024   0.208   3.090   1.154
  499SOL     OW 2025   4.464   3.257   1.188
  499SOL    HW2 2026   4.390   3.203   1.160
  499SOL    HW3 2027   4.540   3.200   1.178
  499SOL    MW4 2028   4.464   3.242   1.183
  500SOL     OW 2029   0.010   3.504   1.094
  500SOL    HW2 2030  -0.012   3.416   1.125
  500SOL    HW3 2031   0.041   3.491   1.004
  500SOL    MW4 2032   0.011   3.491   1.086
  501SOL     OW 2033   0.215   3.669   1.173
  501SOL    HW2 2034   0.221   3.662   1.268
  501SOL    HW3 2035   0.139   3.615   1.149
  501SOL    MW4 2036   0.206   3.661   1.182
  502SOL     OW 2037   0.221   3.909   1.035
  502SOL    HW2 2038   0.136   3.942   1.066
  502SOL    HW3 2039   0.229   3.823   1.076
  502SOL    MW4 2040   0.211   3.902   1.044
  503SOL     OW 2041   4.473   4.018   1.152
  503SOL    HW2 2042   4.488   4.016   1.247
  503SOL    HW3 2043   4.399   3.959   1.139
  503SOL    MW4 2044   4.465   4.010   1.163
  504SOL     OW 2045   4.465   4.282   1.071
  504SOL    HW2 2046   4.528   4.321   1.132
  504SOL    HW3 2047   4.458   4.191   1.099
  504SOL    MW4 2048   4.473   4.275   1.083
  505SOL     OW 2049   0.182   4.387   1.226
  505SOL    HW2 2050   0.210   4.380   1.317
  505SOL    HW3 2051   0.181   4.481   1.208
  505SOL    MW4 2052   0.185   4.398   1.235
  506SOL     OW 2053   0.645   4.628   1.121
  506SOL    HW2 2054   0.733   4.662   1.138
  506SOL    HW3 2055   0.640   4.548   1.173
  506SOL    MW4 2056   0.656   4.622   1.130
  507SOL     OW 2057   0.421   0.120   1.230
  507SOL    HW2 2058   0.439   0.211   1.205
  507SOL    HW3 2059   0.502   0.073   1.211
  507SOL    MW4 2060   0.434   0.126   1.224
  508SOL     OW 2061   0.441   0.366   1.133
  508SOL    HW2 2062   0.364   0.417   1.158
  508SOL    HW3 2063   0.444   0.373   1.037
  508SOL    MW4 2064   0.431   0.373   1.124
  509SOL     OW 2065   0.663   0.523   1.209
  509SOL    HW2 2066   0.646   0.615   1.190
  509SOL    HW3 2067   0.578   0.480   1.194
  509SOL    MW4 2068   0.649   0.529   1.204
  510SOL     OW 2069   0.650   0.780   1.132
  510SOL    HW2 2070   0.575   0.837   1.148
  510SOL    HW3 2071   0.666   0.788   1.038
  510SOL    MW4 2072   0.642   0.789   1.122
  511SOL     OW 2073   0.425   0.932   1.207
  511SOL    HW2 2074   0.429   0.924   1.303
  511SOL    HW3 2075   0.419   1.027   1.192
  511SOL    MW4 2076   0.424   0.944   1.218
  512SOL     OW 2077   0.461   1.192   1.121
  512SOL    HW2 2078   0.546   1.227   1.150
  512SOL    HW3 2079   0.478   1.157   1.034
  512SOL    MW4 2080   0.474   1.192   1.113
  513SOL     OW 2081   0.716   1.279   1.190
  513SOL    HW2 2082   0.801   1.242   1.166
  513SOL    HW3 2083   0.720   1.369   1.158
  513SOL    MW4 2084   0.728   1.286   1.183
  514SOL     OW 2085   0.709   1.550   1.093
  514SOL    HW2 2086   0.790   1.584   1.130
  514SOL    HW3 2087   0.641   1.608   1.127
  514SOL    MW4 2088   0.711   1.562   1.102
  515SOL     OW 2089   0.488   1.688   1.177
  515SOL    HW2 2090   0.479   1.692   1.272
  515SOL    HW3 2091   0.400   1.667   1.146
  515SOL    MW4 2092   0.475   1.686   1.186
  516SOL     OW 2093   0.473   1.959   1.083
  516SOL    HW2 2094   0.477   1.872   1.123
  516SOL    HW3 2095   0.395   1.999   1.120
  516SOL    MW4 2096   0.463   1.953   1.093
  517SOL     OW 2097   0.694   2.037   1.265
  517SOL    HW2 2098   0.689   2.051   1.360
  517SOL    HW3 2099   0.604   2.018   1.239
  517SOL    MW4 2100   0.681   2.036   1.274
  518SOL     OW 2101   0.699   2.293   1.119
  518SOL    HW2 2102   0.631   2.351   1.152
  518SOL    HW3 2103   0.692   2.215   1.174
  518SOL    MW4 2104   0.689   2.290   1.131
  519SOL     OW 2105   0.480   2.420   1.190
  519SOL    HW2 2106   0.470   2.434   1.284
  519SOL    HW3 2107   0.482   2.508   1.153
  519SOL    MW4 2108   0.479   2.434   1.197
  520SOL     OW 2109   0.464   2.694   1.110
  520SOL    HW2 2110   0.386   2.736   1.146
  520SOL    HW3 2111   0.464   2.719   1.017
  520SOL    MW4 2112   0.454   2.703   1.102
  521SOL     OW 2113   0.688   2.826   1.224
  521SOL    HW2 2114   0.680   2.920   1.207
  521SOL    HW3 2115   0.606   2.789   1.190
  521SOL    MW4 2116   0.676   2.834   1.217
  522SOL     OW 2117   0.652   3.100   1.110
  522SOL    HW2 2118   0.738   3.131   1.139
  522SOL    HW3 2119   0.667   3.069   1.020
  522SOL    MW4 2120   0.665   3.100   1.102
  523SOL     OW 2121   0.405   3.253   1.205
  523SOL    HW2 2122   0.419   3.345   1.183
  523SOL    HW3 2123   0.487   3.210   1.179
  523SOL    MW4 2124   0.418   3.259   1.199
  524SOL     OW 2125   0.460   3.508   1.131
  524SOL    HW2 2126   0.533   3.536   1.186
  524SOL    HW3 2127   0.387   3.564   1.157
  524SOL    MW4 2128   0.460   3.519   1.142
  525SOL     OW 2129   0.694   3.653   1.233
  525SOL    HW2 2130   0.682   3.652   1.328
  525SOL    HW3 2131   0.680   3.744   1.208
  525SOL    MW4 2132   0.690   3.665   1.242
  526SOL     OW 2133   0.685   3.928   1.109
  526SOL    HW2 2134   0.597   3.964   1.123
  526SOL    HW3 2135   0.687   3.906   1.016
  526SOL    MW4 2136   0.673   3.930   1.099
  527SOL     OW 2137   0.438   4.022   1.153
  527SOL    HW2 2138   0.426   4.115   1.130
  527SOL    HW3 2139   0.375   3.976   1.098
  527SOL    MW4 2140   0.429   4.028   1.142
  528SOL     OW 2141   0.412   4.299   1.087
  528SOL    HW2 2142   0.471   4.346   1.146
  528SOL    HW3 2143   0.325   4.328   1.113
  528SOL    MW4 2144   0.408   4.309   1.098
  529SOL     OW 2145   0.611   4.395   1.266
  529SOL    HW2 2146   0.631   4.395   1.360
  529SOL    HW3 2147   0.684   4.349   1.225
  529SOL    MW4 2148   0.623   4.389   1.273
  530SOL     OW 2149   1.120   0.008   1.157
  530SOL    HW2 2150   1.097  -0.077   1.194
  530SOL    HW3 2151   1.126  -0.009   1.063
  530SOL    MW4 2152   1.118  -0.006   1.149
  531SOL     OW 2153   0.878   0.119   1.201
  531SOL    HW2 2154   0.876   0.108   1.296
  531SOL    HW3 2155   0.962   0.082   1.174
  531SOL    MW4 2156   0.889   0.112   1.210
  532SOL     OW 2157   0.852   0.363   1.084
  532SOL    HW2 2158   0.839   0.272   1.112
  532SOL    HW3 2159   0.783   0.412   1.128
  532SOL    MW4 2160   0.841   0.357   1.093
  533SOL     OW 2161   1.126   0.440   1.171
  533SOL    HW2 2162   1.127   0.450   1.266
  533SOL    HW3 2163   1.044   0.393   1.153
  533SOL    MW4 2164   1.115   0.435   1.181
  534SOL     OW 2165   1.133   0.710   1.131
  534SOL    HW2 2166   1.051   0.755   1.151
  534SOL    HW3 2167   1.118   0.620   1.158
  534SOL    MW4 2168   1.120   0.704   1.137
  535SOL     OW 2169   0.906   0.872   1.219
  535SOL    HW2 2170   0.907   0.963   1.187
  535SOL    HW3 2171   0.819   0.840   1.196
  535SOL    MW4 2172   0.894   0.880   1.212
  536SOL     OW 2173   0.927   1.147   1.113
  536SOL    HW2 2174   0.994   1.209   1.143
  536SOL    HW3 2175   0.931   1.153   1.017
  536SOL    MW4 2176   0.937   1.156   1.104
  537SOL     OW 2177   1.119   1.315   1.204
  537SOL    HW2 2178   1.124   1.313   1.300
  537SOL    HW3 2179   1.199   1.272   1.175
  537SOL    MW4 2180   1.130   1.309   1.213
  538SOL     OW 2181   1.171   1.565   1.109
  538SOL    HW2 2182   1.161   1.471   1.123
  538SOL    HW3 2183   1.167   1.577   1.014
  538SOL    MW4 2184   1.169   1.554   1.099
  539SOL     OW 2185   0.928   1.678   1.209
  539SOL    HW2 2186   0.918   1.765   1.171
  539SOL    HW3 2187   1.004   1.641   1.164
  539SOL    MW4 2188   0.937   1.684   1.198
  540SOL     OW 2189   0.906   1.929   1.106
  540SOL    HW2 2190   0.979   1.981   1.138
  540SOL    HW3 2191   0.831   1.958   1.157
  540SOL    MW4 2192   0.906   1.940   1.117
  541SOL     OW 2193   1.140   2.046   1.191
  541SOL    HW2 2194   1.148   2.055   1.286
  541SOL    HW3 2195   1.161   2.133   1.157
  541SOL    MW4 2196   1.144   2.059   1.199
  542SOL     OW 2197   1.192   2.302   1.083
  542SOL    HW2 2198   1.261   2.357   1.121
  542SOL    HW3 2199   1.111   2.337   1.118
  542SOL    MW4 2200   1.191   2.314   1.092
  543SOL     OW 2201   0.957   2.376   1.183
  543SOL    HW2 2202   0.940   2.389   1.276
  543SOL    HW3 2203   0.873   2.348   1.147
  543SOL    MW4 2204   0.944   2.374   1.190
  544SOL     OW 2205   0.885   2.646   1.114
  544SOL    HW2 2206   0.899   2.562   1.159
  544SOL    HW3 2207   0.815   2.689   1.164
  544SOL    MW4 2208   0.877   2.640   1.126
  545SOL     OW 2209   1.115   2.803   1.197
  545SOL    HW2 2210   1.110   2.799   1.293
  545SOL    HW3 2211   1.047   2.742   1.168
  545SOL    MW4 2212   1.105   2.794   1.206
  546SOL     OW 2213   1.109   3.074   1.121
  546SOL    HW2 2214   1.106   2.981   1.143
  546SOL    HW3 2215   1.122   3.076   1.026
  546SOL    MW4 2216   1.111   3.062   1.111
  547SOL     OW 2217   0.887   3.207   1.215
  547SOL    HW2 2218   0.900   3.300   1.197
  547SOL    HW3 2219   0.951   3.162   1.159
  547SOL    MW4 2220   0.897   3.213   1.205
  548SOL     OW 2221   0.887   3.503   1.125
  548SOL    HW2 2222   0.813   3.558   1.152
  548SOL    HW3 2223   0.890   3.512   1.030
  548SOL    MW4 2224   0.878   3.511   1.116
  549SOL     OW 2225   1.124   3.623   1.181
  549SOL    HW2 2226   1.191   3.555   1.175
  549SOL    HW3 2227   1.042   3.578   1.158
  549SOL    MW4 2228   1.122   3.608   1.177
  550SOL     OW 2229   1.161   3.896   1.140
  550SOL    HW2 2230   1.080   3.943   1.160
  550SOL    HW3 2231   1.136   3.804   1.143
  550SOL    MW4 2232   1.147   3.890   1.143
  551SOL     OW 2233   0.920   4.023   1.185
  551SOL    HW2 2234   0.912   4.022   1.281
  551SOL    HW3 2235   0.837   3.987   1.154
  551SOL    MW4 2236   0.908   4.018   1.194
  552SOL     OW 2237   0.854   4.301   1.161
  552SOL    HW2 2238   0.875   4.207   1.164
  552SOL    HW3 2239   0.841   4.318   1.067
  552SOL    MW4 2240   0.855   4.291   1.149
  553SOL     OW 2241   1.083   4.420   1.241
  553SOL    HW2 2242   1.089   4.425   1.337
  553SOL    HW3 2243   1.005   4.367   1.225
  553SOL    MW4 2244   1.074   4.414   1.252
  554SOL     OW 2245   1.556   4.653   1.150
  554SOL    HW2 2246   1.629   4.704   1.187
  554SOL    HW3 2247   1.562   4.568   1.193
  554SOL    MW4 2248   1.567   4.649   1.161
  555SOL     OW 2249   1.341   0.115   1.267
  555SOL    HW2 2250   1.412   0.063   1.230
  555SOL    HW3 2251   1.262   0.071   1.237
  555SOL    MW4 2252   1.340   0.102   1.258
  556SOL     OW 2253   1.367   0.313   1.079
  556SOL    HW2 2254   1.353   0.239   1.138
  556SOL    HW3 2255   1.290   0.369   1.092
  556SOL    MW4 2256   1.355   0.311   1.089
  557SOL     OW 2257   1.577   0.512   1.203
  557SOL    HW2 2258   1.576   0.599   1.163
  557SOL    HW3 2259   1.490   0.476   1.185
  557SOL    MW4 2260   1.565   0.519   1.195
  558SOL     OW 2261   1.562   0.758   1.096
  558SOL    HW2 2262   1.628   0.819   1.130
  558SOL    HW3 2263   1.567   0.769   1.001
  558SOL    MW4 2264   1.571   0.768   1.088
  559SOL     OW 2265   1.332   0.897   1.177
  559SOL    HW2 2266   1.406   0.845   1.148
  559SOL    HW3 2267   1.257   0.838   1.168
  559SOL    MW4 2268   1.332   0.883   1.172
  560SOL     OW 2269   1.350   1.167   1.073
  560SOL    HW2 2270   1.335   1.076   1.098
  560SOL    HW3 2271   1.337   1.168   0.978
  560SOL    MW4 2272   1.346   1.156   1.064
  561SOL     OW 2273   1.602   1.313   1.171
  561SOL    HW2 2274   1.680   1.265   1.145
  561SOL    HW3 2275   1.529   1.259   1.139
  561SOL    MW4 2276   1.602   1.299   1.164
  562SOL     OW 2277   1.636   1.576   1.040
  562SOL    HW2 2278   1.714   1.616   1.079
  562SOL    HW3 2279   1.611   1.507   1.101
  562SOL    MW4 2280   1.643   1.572   1.053
  563SOL     OW 2281   1.416   1.707   1.169
  563SOL    HW2 2282   1.490   1.659   1.130
  563SOL    HW3 2283   1.339   1.655   1.146
  563SOL    MW4 2284   1.416   1.694   1.161
  564SOL     OW 2285   1.362   1.948   1.051
  564SOL    HW2 2286   1.389   1.863   1.086
  564SOL    HW3 2287   1.285   1.972   1.103
  564SOL    MW4 2288   1.355   1.940   1.063
  565SOL     OW 2289   1.577   2.061   1.204
  565SOL    HW2 2290   1.574   2.154   1.182
  565SOL    HW3 2291   1.504   2.023   1.155
  565SOL    MW4 2292   1.567   2.068   1.195
  566SOL     OW 2293   1.557   2.315   1.129
  566SOL    HW2 2294   1.477   2.354   1.164
  566SOL    HW3 2295   1.544   2.314   1.034
  566SOL    MW4 2296   1.545   2.320   1.121
  567SOL     OW 2297   1.356   2.458   1.246
  567SOL    HW2 2298   1.324   2.470   1.335
  567SOL    HW3 2299   1.340   2.541   1.202
  567SOL    MW4 2300   1.350   2.471   1.252
  568SOL     OW 2301   1.350   2.695   1.068
  568SOL    HW2 2302   1.425   2.736   1.110
  568SOL    HW3 2303   1.274   2.737   1.107
  568SOL    MW4 2304   1.350   2.706   1.079
  569SOL     OW 2305   1.589   2.802   1.159
  569SOL    HW2 2306   1.670   2.770   1.120
  569SOL    HW3 2307   1.588   2.896   1.138
  569SOL    MW4 2308   1.600   2.810   1.151
  570SOL     OW 2309   1.569   3.083   1.111
  570SOL    HW2 2310   1.644   3.122   1.157
  570SOL    HW3 2311   1.494   3.131   1.145
  570SOL    MW4 2312   1.569   3.095   1.122
  571SOL     OW 2313   1.334   3.200   1.210
  571SOL    HW2 2314   1.342   3.201   1.305
  571SOL    HW3 2315   1.253   3.152   1.194
  571SOL    MW4 2316   1.324   3.194   1.220
  572SOL     OW 2317   1.355   3.475   1.166
  572SOL    HW2 2318   1.352   3.381   1.185
  572SOL    HW3 2319   1.358   3.481   1.071
  572SOL    MW4 2320   1.355   3.463   1.156
  573SOL     OW 2321   1.564   3.641   1.253
  573SOL    HW2 2322   1.552   3.716   1.195
  573SOL    HW3 2323   1.498   3.577   1.223
  573SOL    MW4 2324   1.554   3.642   1.241
  574SOL     OW 2325   1.589   3.880   1.135
  574SOL    HW2 2326   1.522   3.935   1.177
  574SOL    HW3 2327   1.572   3.887   1.042
  574SOL    MW4 2328   1.578   3.888   1.129
  575SOL     OW 2329   1.371   4.028   1.247
  575SOL    HW2 2330   1.361   4.116   1.211
  575SOL    HW3 2331   1.303   3.976   1.204
  575SOL    MW4 2332   1.361   4.032   1.237
  576SOL     OW 2333   1.324   4.292   1.144
  576SOL    HW2 2334   1.239   4.327   1.171
  576SOL    HW3 2335   1.321   4.293   1.048
  576SOL    MW4 2336   1.313   4.296   1.135
  577SOL     OW 2337   1.558   4.390   1.227
  577SOL    HW2 2338   1.556   4.380   1.322
  577SOL    HW3 2339   1.469   4.372   1.198
  577SOL    MW4 2340   1.546   4.386   1.236
  578SOL     OW 2341   1.957   4.630   1.144
  578SOL    HW2 2342   1.970   4.538   1.167
  578SOL    HW3 2343   1.923   4.628   1.054
  578SOL    MW4 2344   1.954   4.618   1.135
  579SOL     OW 2345   1.770   0.119   1.264
  579SOL    HW2 2346   1.773   0.203   1.217
  579SOL    HW3 2347   1.833   0.064   1.217
  579SOL    MW4 2348   1.779   0.123   1.251
  580SOL     OW 2349   1.778   0.367   1.122
  580SOL    HW2 2350   1.703   0.423   1.140
  580SOL    HW3 2351   1.771   0.345   1.029
  580SOL    MW4 2352   1.767   0.371   1.112
  581SOL     OW 2353   1.982   0.551   1.209
  581SOL    HW2 2354   2.000   0.547   1.303
  581SOL    HW3 2355   1.908   0.491   1.196
  581SOL    MW4 2356   1.975   0.542   1.220
  582SOL     OW 2357   1.997   0.807   1.102
  582SOL    HW2 2358   2.009   0.723   1.146
  582SOL    HW3 2359   1.976   0.784   1.012
  582SOL    MW4 2360   1.996   0.793   1.096
  583SOL     OW 2361   1.762   0.905   1.204
  583SOL    HW2 2362   1.770   0.909   1.299
  583SOL    HW3 2363   1.847   0.874   1.174
  583SOL    MW4 2364   1.774   0.901   1.213
  584SOL     OW 2365   1.808   1.158   1.091
  584SOL    HW2 2366   1.781   1.070   1.119
  584SOL    HW3 2367   1.791   1.159   0.997
  584SOL    MW4 2368   1.802   1.146   1.082
  585SOL     OW 2369   2.040   1.295   1.169
  585SOL    HW2 2370   2.120   1.247   1.148
  585SOL    HW3 2371   1.972   1.251   1.119
  585SOL    MW4 2372   2.042   1.283   1.160
  586SOL     OW 2373   2.079   1.571   1.118
  586SOL    HW2 2374   2.072   1.478   1.141
  586SOL    HW3 2375   2.044   1.577   1.029
  586SOL    MW4 2376   2.073   1.560   1.109
  587SOL     OW 2377   1.852   1.693   1.218
  587SOL    HW2 2378   1.865   1.778   1.175
  587SOL    HW3 2379   1.930   1.642   1.196
  587SOL    MW4 2380   1.864   1.698   1.209
  588SOL     OW 2381   1.833   1.957   1.101
  588SOL    HW2 2382   1.747   1.990   1.127
  588SOL    HW3 2383   1.835   1.967   1.006
  588SOL    MW4 2384   1.822   1.962   1.092
  589SOL     OW 2385   2.060   2.048   1.228
  589SOL    HW2 2386   2.037   2.056   1.321
  589SOL    HW3 2387   1.980   2.016   1.186
  589SOL    MW4 2388   2.047   2.045   1.235
  590SOL     OW 2389   2.039   2.313   1.133
  590SOL    HW2 2390   2.126   2.345   1.159
  590SOL    HW3 2391   2.037   2.222   1.165
  590SOL    MW4 2392   2.050   2.305   1.141
  591SOL     OW 2393   1.800   2.451   1.207
  591SOL    HW2 2394   1.878   2.400   1.186
  591SOL    HW3 2395   1.727   2.393   1.186
  591SOL    MW4 2396   1.801   2.437   1.201
  592SOL     OW 2397   1.826   2.702   1.069
  592SOL    HW2 2398   1.818   2.609   1.089
  592SOL    HW3 2399   1.821   2.706   0.973
  592SOL    MW4 2400   1.824   2.691   1.059
  593SOL     OW 2401   2.048   2.803   1.220
  593SOL    HW2 2402   2.044   2.892   1.184
  593SOL    HW3 2403   1.975   2.757   1.180
  593SOL    MW4 2404   2.038   2.809   1.210
  594SOL     OW 2405   2.045   3.068   1.099
  594SOL    HW2 2406   1.965   3.093   1.145
  594SOL    HW3 2407   2.033   3.103   1.011
  594SOL    MW4 2408   2.033   3.076   1.094
  595SOL     OW 2409   1.800   3.202   1.214
  595SOL    HW2 2410   1.801   3.209   1.310
  595SOL    HW3 2411   1.810   3.292   1.183
  595SOL    MW4 2412   1.801   3.215   1.223
  596SOL     OW 2413   1.780   3.479   1.146
  596SOL    HW2 2414   1.863   3.507   1.185
  596SOL    HW3 2415   1.714   3.535   1.187
  596SOL    MW4 2416   1.782   3.490   1.156
  597SOL     OW 2417   2.012   3.588   1.239
  597SOL    HW2 2418   2.025   3.594   1.333
  597SOL    HW3 2419   2.083   3.532   1.208
  597SOL    MW4 2420   2.023   3.582   1.247
  598SOL     OW 2421   2.045   3.843   1.094
  598SOL    HW2 2422   1.974   3.894   1.135
  598SOL    HW3 2423   2.027   3.753   1.119
  598SOL    MW4 2424   2.033   3.838   1.103
  599SOL     OW 2425   1.825   3.986   1.219
  599SOL    HW2 2426   1.829   3.986   1.314
  599SOL    HW3 2427   1.748   3.934   1.198
  599SOL    MW4 2428   1.815   3.980   1.229
  600SOL     OW 2429   1.783   4.269   1.136
  600SOL    HW2 2430   1.783   4.177   1.160
  600SOL    HW3 2431   1.701   4.304   1.171
  600SOL    MW4 2432   1.772   4.262   1.144
  601SOL     OW 2433   2.032   4.368   1.232
  601SOL    HW2 2434   2.031   4.384   1.326
  601SOL    HW3 2435   1.945   4.334   1.213
  601SOL    MW4 2436   2.020   4.366   1.242
  602SOL     OW 2437   2.431   0.028   1.082
  602SOL    HW2 2438   2.508   0.051   1.134
  602SOL    HW3 2439   2.357   0.059   1.135
  602SOL    MW4 2440   2.431   0.035   1.096
  603SOL     OW 2441   2.190   0.083   1.222
  603SOL    HW2 2442   2.187   0.178   1.215
  603SOL    HW3 2443   2.102   0.054   1.197
  603SOL    MW4 2444   2.178   0.092   1.218
  604SOL     OW 2445   2.176   0.351   1.160
  604SOL    HW2 2446   2.119   0.422   1.190
  604SOL    HW3 2447   2.180   0.363   1.065
  604SOL    MW4 2448   2.169   0.362   1.151
  605SOL     OW 2449   2.426   0.469   1.202
  605SOL    HW2 2450   2.421   0.478   1.297
  605SOL    HW3 2451   2.338   0.445   1.175
  605SOL    MW4 2452   2.414   0.467   1.211
  606SOL     OW 2453   2.424   0.737   1.098
  606SOL    HW2 2454   2.430   0.654   1.144
  606SOL    HW3 2455   2.419   0.713   1.005
  606SOL    MW4 2456   2.424   0.723   1.091
  607SOL     OW 2457   2.241   0.935   1.191
  607SOL    HW2 2458   2.304   0.872   1.156
  607SOL    HW3 2459   2.158   0.910   1.151
  607SOL    MW4 2460   2.238   0.923   1.181
  608SOL     OW 2461   2.279   1.186   1.100
  608SOL    HW2 2462   2.346   1.238   1.145
  608SOL    HW3 2463   2.283   1.101   1.143
  608SOL    MW4 2464   2.289   1.182   1.112
  609SOL     OW 2465   2.472   1.333   1.223
  609SOL    HW2 2466   2.532   1.274   1.178
  609SOL    HW3 2467   2.477   1.415   1.175
  609SOL    MW4 2468   2.480   1.336   1.211
  610SOL     OW 2469   2.501   1.589   1.087
  610SOL    HW2 2470   2.423   1.630   1.126
  610SOL    HW3 2471   2.487   1.598   0.992
  610SOL    MW4 2472   2.489   1.596   1.079
  611SOL     OW 2473   2.291   1.723   1.207
  611SOL    HW2 2474   2.292   1.807   1.162
  611SOL    HW3 2475   2.208   1.682   1.181
  611SOL    MW4 2476   2.280   1.728   1.197
  612SOL     OW 2477   2.282   1.960   1.087
  612SOL    HW2 2478   2.219   1.999   1.146
  612SOL    HW3 2479   2.241   1.965   1.001
  612SOL    MW4 2480   2.268   1.966   1.083
  613SOL     OW 2481   2.510   2.072   1.197
  613SOL    HW2 2482   2.578   2.015   1.161
  613SOL    HW3 2483   2.428   2.040   1.159
  613SOL    MW4 2484   2.508   2.060   1.187
  614SOL     OW 2485   2.495   2.324   1.108
  614SOL    HW2 2486   2.511   2.233   1.135
  614SOL    HW3 2487   2.501   2.321   1.013
  614SOL    MW4 2488   2.498   2.311   1.099
  615SOL     OW 2489   2.277   2.433   1.218
  615SOL    HW2 2490   2.280   2.437   1.313
  615SOL    HW3 2491   2.355   2.384   1.193
  615SOL    MW4 2492   2.287   2.427   1.227
  616SOL     OW 2493   2.265   2.685   1.116
  616SOL    HW2 2494   2.264   2.599   1.158
  616SOL    HW3 2495   2.192   2.732   1.155
  616SOL    MW4 2496   2.256   2.680   1.126
  617SOL     OW 2497   2.493   2.833   1.210
  617SOL    HW2 2498   2.487   2.849   1.304
  617SOL    HW3 2499   2.413   2.783   1.189
  617SOL    MW4 2500   2.481   2.828   1.219
  618SOL     OW 2501   2.486   3.075   1.090
  618SOL    HW2 2502   2.407   3.106   1.134
  618SOL    HW3 2503   2.497   2.985   1.121
  618SOL    MW4 2504   2.477   3.068   1.100
  619SOL     OW 2505   2.266   3.173   1.221
  619SOL    HW2 2506   2.254   3.267   1.209
  619SOL    HW3 2507   2.185   3.135   1.186
  619SOL    MW4 2508   2.253   3.180   1.215
  620SOL     OW 2509   2.251   3.451   1.155
  620SOL    HW2 2510   2.324   3.504   1.189
  620SOL    HW3 2511   2.241   3.481   1.065
  620SOL    MW4 2512   2.260   3.462   1.148
  621SOL     OW 2513   2.453   3.611   1.230
  621SOL    HW2 2514   2.468   3.629   1.322
  621SOL    HW3 2515   2.442   3.697   1.190
  621SOL    MW4 2516   2.454   3.624   1.237
  622SOL     OW 2517   2.476   3.878   1.129
  622SOL    HW2 2518   2.395   3.925   1.148
  622SOL    HW3 2519   2.502   3.907   1.042
  622SOL    MW4 2520   2.469   3.888   1.120
  623SOL     OW 2521   2.231   4.005   1.238
  623SOL    HW2 2522   2.214   4.086   1.190
  623SOL    HW3 2523   2.179   3.939   1.193
  623SOL    MW4 2524   2.222   4.007   1.226
  624SOL     OW 2525   2.264   4.275   1.130
  624SOL    HW2 2526   2.186   4.320   1.160
  624SOL    HW3 2527   2.251   4.264   1.036
  624SOL    MW4 2528   2.252   4.279   1.121
  625SOL     OW 2529   2.487   4.432   1.183
  625SOL    HW2 2530   2.407   4.380   1.178
  625SOL    HW3 2531   2.459   4.521   1.163
  625SOL    MW4 2532   2.473   4.437   1.180
  626SOL     OW 2533   2.899   0.054   1.140
  626SOL    HW2 2534   2.908  -0.032   1.181
  626SOL    HW3 2535   2.915   0.038   1.047
  626SOL    MW4 2536   2.902   0.041   1.133
  627SOL     OW 2537   2.650   0.115   1.221
  627SOL    HW2 2538   2.667   0.107   1.315
  627SOL    HW3 2539   2.725   0.071   1.180
  627SOL    MW4 2540   2.662   0.108   1.228
  628SOL     OW 2541   2.678   0.369   1.100
  628SOL    HW2 2542   2.677   0.281   1.137
  628SOL    HW3 2543   2.592   0.405   1.123
  628SOL    MW4 2544   2.666   0.362   1.107
  629SOL     OW 2545   2.849   0.529   1.234
  629SOL    HW2 2546   2.859   0.609   1.184
  629SOL    HW3 2547   2.800   0.470   1.177
  629SOL    MW4 2548   2.844   0.532   1.220
  630SOL     OW 2549   2.861   0.784   1.086
  630SOL    HW2 2550   2.941   0.820   1.126
  630SOL    HW3 2551   2.790   0.830   1.131
  630SOL    MW4 2552   2.862   0.795   1.097
  631SOL     OW 2553   2.638   0.902   1.195
  631SOL    HW2 2554   2.641   0.994   1.168
  631SOL    HW3 2555   2.559   0.868   1.154
  631SOL    MW4 2556   2.628   0.910   1.186
  632SOL     OW 2557   2.635   1.154   1.099
  632SOL    HW2 2558   2.722   1.172   1.136
  632SOL    HW3 2559   2.645   1.174   1.005
  632SOL    MW4 2560   2.648   1.159   1.091
  633SOL     OW 2561   2.865   1.217   1.237
  633SOL    HW2 2562   2.888   1.222   1.330
  633SOL    HW3 2563   2.884   1.304   1.203
  633SOL    MW4 2564   2.870   1.229   1.245
  634SOL     OW 2565   2.942   1.461   1.130
  634SOL    HW2 2566   3.019   1.516   1.141
  634SOL    HW3 2567   2.915   1.476   1.039
  634SOL    MW4 2568   2.949   1.470   1.119
  635SOL     OW 2569   2.735   1.668   1.204
  635SOL    HW2 2570   2.799   1.604   1.172
  635SOL    HW3 2571   2.653   1.643   1.161
  635SOL    MW4 2572   2.733   1.656   1.194
  636SOL     OW 2573   2.729   1.920   1.105
  636SOL    HW2 2574   2.803   1.966   1.144
  636SOL    HW3 2575   2.738   1.830   1.136
  636SOL    MW4 2576   2.740   1.914   1.114
  637SOL     OW 2577   2.942   2.045   1.209
  637SOL    HW2 2578   2.951   2.042   1.304
  637SOL    HW3 2579   2.929   2.138   1.189
  637SOL    MW4 2580   2.941   2.057   1.219
  638SOL     OW 2581   2.928   2.306   1.105
  638SOL    HW2 2582   3.012   2.343   1.133
  638SOL    HW3 2583   2.863   2.363   1.146
  638SOL    MW4 2584   2.931   2.319   1.114
  639SOL     OW 2585   2.725   2.462   1.207
  639SOL    HW2 2586   2.710   2.448   1.300
  639SOL    HW3 2587   2.654   2.415   1.163
  639SOL    MW4 2588   2.714   2.454   1.213
  640SOL     OW 2589   2.736   2.719   1.159
  640SOL    HW2 2590   2.724   2.628   1.185
  640SOL    HW3 2591   2.650   2.759   1.168
  640SOL    MW4 2592   2.723   2.712   1.164
  641SOL     OW 2593   2.969   2.866   1.244
  641SOL    HW2 2594   2.968   2.863   1.340
  641SOL    HW3 2595   2.902   2.803   1.218
  641SOL    MW4 2596   2.960   2.858   1.254
  642SOL     OW 2597   2.917   3.136   1.140
  642SOL    HW2 2598   2.944   3.045   1.153
  642SOL    HW3 2599   2.910   3.145   1.044
  642SOL    MW4 2600   2.920   3.125   1.129
  643SOL     OW 2601   2.695   3.230   1.274
  643SOL    HW2 2602   2.781   3.205   1.240
  643SOL    HW3 2603   2.633   3.182   1.218
  643SOL    MW4 2604   2.698   3.220   1.262
  644SOL     OW 2605   2.695   3.487   1.170
  644SOL    HW2 2606   2.686   3.400   1.208
  644SOL    HW3 2607   2.615   3.533   1.195
  644SOL    MW4 2608   2.683   3.482   1.178
  645SOL     OW 2609   2.901   3.677   1.196
  645SOL    HW2 2610   2.974   3.627   1.158
  645SOL    HW3 2611   2.827   3.616   1.193
  645SOL    MW4 2612   2.901   3.662   1.190
  646SOL     OW 2613   2.920   3.943   1.123
  646SOL    HW2 2614   2.978   3.991   1.183
  646SOL    HW3 2615   2.927   3.852   1.150
  646SOL    MW4 2616   2.928   3.938   1.135
  647SOL     OW 2617   2.680   4.003   1.263
  647SOL    HW2 2618   2.763   3.975   1.223
  647SOL    HW3 2619   2.613   3.957   1.212
  647SOL    MW4 2620   2.682   3.993   1.251
  648SOL     OW 2621   2.727   4.272   1.210
  648SOL    HW2 2622   2.706   4.184   1.242
  648SOL    HW3 2623   2.644   4.320   1.216
  648SOL    MW4 2624   2.713   4.267   1.215
  649SOL     OW 2625   2.931   4.468   1.257
  649SOL    HW2 2626   3.008   4.423   1.223
  649SOL    HW3 2627   2.858   4.409   1.237
  649SOL    MW4 2628   2.931   4.454   1.250
  650SOL     OW 2629   3.348   0.000   1.129
  650SOL    HW2 2630   3.420   0.045   1.173
  650SOL    HW3 2631   3.270   0.049   1.155
  650SOL    MW4 2632   3.347   0.013   1.138
  651SOL     OW 2633   3.141   0.154   1.234
  651SOL    HW2 2634   3.151   0.160   1.329
  651SOL    HW3 2635   3.050   0.129   1.221
  651SOL    MW4 2636   3.130   0.151   1.245
  652SOL     OW 2637   3.117   0.420   1.164
  652SOL    HW2 2638   3.123   0.326   1.183
  652SOL    HW3 2639   3.028   0.444   1.190
  652SOL    MW4 2640   3.107   0.411   1.170
  653SOL     OW 2641   3.379   0.531   1.224
  653SOL    HW2 2642   3.391   0.620   1.191
  653SOL    HW3 2643   3.288   0.509   1.201
  653SOL    MW4 2644   3.368   0.539   1.217
  654SOL     OW 2645   3.411   0.773   1.087
  654SOL    HW2 2646   3.330   0.806   1.126
  654SOL    HW3 2647   3.397   0.781   0.993
  654SOL    MW4 2648   3.398   0.778   1.080
  655SOL     OW 2649   3.159   0.867   1.168
  655SOL    HW2 2650   3.157   0.878   1.263
  655SOL    HW3 2651   3.144   0.955   1.133
  655SOL    MW4 2652   3.156   0.880   1.176
  656SOL     OW 2653   3.072   1.117   1.067
  656SOL    HW2 2654   3.118   1.187   1.113
  656SOL    HW3 2655   2.986   1.112   1.110
  656SOL    MW4 2656   3.067   1.126   1.079
  657SOL     OW 2657   3.292   1.279   1.170
  657SOL    HW2 2658   3.285   1.283   1.265
  657SOL    HW3 2659   3.290   1.370   1.142
  657SOL    MW4 2660   3.291   1.291   1.179
  658SOL     OW 2661   3.394   1.564   1.085
  658SOL    HW2 2662   3.459   1.618   1.130
  658SOL    HW3 2663   3.310   1.602   1.112
  658SOL    MW4 2664   3.391   1.576   1.095
  659SOL     OW 2665   3.147   1.640   1.199
  659SOL    HW2 2666   3.125   1.623   1.290
  659SOL    HW3 2667   3.138   1.735   1.190
  659SOL    MW4 2668   3.143   1.650   1.210
  660SOL     OW 2669   3.159   1.911   1.105
  660SOL    HW2 2670   3.238   1.961   1.124
  660SOL    HW3 2671   3.087   1.970   1.128
  660SOL    MW4 2672   3.160   1.926   1.110
  661SOL     OW 2673   3.379   2.048   1.185
  661SOL    HW2 2674   3.468   2.014   1.183
  661SOL    HW3 2675   3.384   2.132   1.138
  661SOL    MW4 2676   3.391   2.055   1.178
  662SOL     OW 2677   3.371   2.311   1.061
  662SOL    HW2 2678   3.445   2.353   1.105
  662SOL    HW3 2679   3.294   2.358   1.093
  662SOL    MW4 2680   3.371   2.323   1.071
  663SOL     OW 2681   3.158   2.435   1.184
  663SOL    HW2 2682   3.172   2.428   1.279
  663SOL    HW3 2683   3.126   2.525   1.171
  663SOL    MW4 2684   3.156   2.446   1.195
  664SOL     OW 2685   3.183   2.723   1.140
  664SOL    HW2 2686   3.101   2.757   1.176
  664SOL    HW3 2687   3.181   2.748   1.048
  664SOL    MW4 2688   3.172   2.731   1.132
  665SOL     OW 2689   3.410   2.851   1.185
  665SOL    HW2 2690   3.407   2.941   1.152
  665SOL    HW3 2691   3.323   2.816   1.166
  665SOL    MW4 2692   3.398   2.858   1.178
  666SOL     OW 2693   3.356   3.124   1.075
  666SOL    HW2 2694   3.431   3.156   1.124
  666SOL    HW3 2695   3.280   3.160   1.122
  666SOL    MW4 2696   3.356   3.133   1.088
  667SOL     OW 2697   3.155   3.261   1.209
  667SOL    HW2 2698   3.134   3.349   1.178
  667SOL    HW3 2699   3.081   3.207   1.181
  667SOL    MW4 2700   3.143   3.266   1.201
  668SOL     OW 2701   3.120   3.517   1.107
  668SOL    HW2 2702   3.177   3.550   1.176
  668SOL    HW3 2703   3.169   3.533   1.026
  668SOL    MW4 2704   3.134   3.523   1.105
  669SOL     OW 2705   3.314   3.599   1.268
  669SOL    HW2 2706   3.329   3.605   1.362
  669SOL    HW3 2707   3.393   3.559   1.233
  669SOL    MW4 2708   3.326   3.594   1.276
  670SOL     OW 2709   3.326   3.849   1.131
  670SOL    HW2 2710   3.259   3.907   1.168
  670SOL    HW3 2711   3.321   3.769   1.183
  670SOL    MW4 2712   3.316   3.846   1.142
  671SOL     OW 2713   3.157   4.053   1.234
  671SOL    HW2 2714   3.186   4.053   1.325
  671SOL    HW3 2715   3.154   4.146   1.210
  671SOL    MW4 2716   3.160   4.066   1.243
  672SOL     OW 2717   3.150   4.313   1.154
  672SOL    HW2 2718   3.217   4.369   1.194
  672SOL    HW3 2719   3.173   4.311   1.061
  672SOL    MW4 2720   3.162   4.320   1.147
  673SOL     OW 2721   3.359   4.446   1.270
  673SOL    HW2 2722   3.427   4.396   1.225
  673SOL    HW3 2723   3.353   4.528   1.220
  673SOL    MW4 2724   3.367   4.450   1.257
  674SOL     OW 2725   3.818   4.601   1.169
  674SOL    HW2 2726   3.811   4.511   1.200
  674SOL    HW3 2727   3.809   4.594   1.074
  674SOL    MW4 2728   3.816   4.588   1.160
  675SOL     OW 2729   3.595   0.110   1.240
  675SOL    HW2 2730   3.618   0.199   1.214
  675SOL    HW3 2731   3.671   0.057   1.215
  675SOL    MW4 2732   3.608   0.115   1.234
  676SOL     OW 2733   3.602   0.379   1.143
  676SOL    HW2 2734   3.681   0.427   1.168
  676SOL    HW3 2735   3.531   0.427   1.184
  676SOL    MW4 2736   3.603   0.392   1.152
  677SOL     OW 2737   3.814   0.526   1.240
  677SOL    HW2 2738   3.890   0.482   1.202
  677SOL    HW3 2739   3.807   0.608   1.191
  677SOL    MW4 2740   3.823   0.531   1.229
  678SOL     OW 2741   3.802   0.777   1.136
  678SOL    HW2 2742   3.884   0.814   1.167
  678SOL    HW3 2743   3.734   0.832   1.174
  678SOL    MW4 2744   3.804   0.789   1.145
  679SOL     OW 2745   3.595   0.938   1.197
  679SOL    HW2 2746   3.566   1.022   1.163
  679SOL    HW3 2747   3.532   0.874   1.163
  679SOL    MW4 2748   3.583   0.941   1.188
  680SOL     OW 2749   3.532   1.183   1.076
  680SOL    HW2 2750   3.605   1.227   1.119
  680SOL    HW3 2751   3.454   1.215   1.121
  680SOL    MW4 2752   3.531   1.193   1.087
  681SOL     OW 2753   3.757   1.312   1.193
  681SOL    HW2 2754   3.773   1.287   1.284
  681SOL    HW3 2755   3.781   1.405   1.189
  681SOL    MW4 2756   3.763   1.321   1.204
  682SOL     OW 2757   3.838   1.576   1.147
  682SOL    HW2 2758   3.922   1.613   1.176
  682SOL    HW3 2759   3.850   1.560   1.054
  682SOL    MW4 2760   3.851   1.579   1.139
  683SOL     OW 2761   3.599   1.705   1.217
  683SOL    HW2 2762   3.618   1.792   1.182
  683SOL    HW3 2763   3.678   1.654   1.198
  683SOL    MW4 2764   3.612   1.709   1.210
  684SOL     OW 2765   3.667   1.965   1.131
  684SOL    HW2 2766   3.748   2.009   1.156
  684SOL    HW3 2767   3.648   1.997   1.044
  684SOL    MW4 2768   3.675   1.975   1.123
  685SOL     OW 2769   3.888   2.098   1.196
  685SOL    HW2 2770   3.870   2.089   1.289
  685SOL    HW3 2771   3.970   2.050   1.183
  685SOL    MW4 2772   3.897   2.090   1.206
  686SOL     OW 2773   3.829   2.333   1.076
  686SOL    HW2 2774   3.899   2.389   1.108
  686SOL    HW3 2775   3.853   2.245   1.105
  686SOL    MW4 2776   3.841   2.329   1.084
  687SOL     OW 2777   3.594   2.418   1.199
  687SOL    HW2 2778   3.596   2.433   1.293
  687SOL    HW3 2779   3.682   2.384   1.178
  687SOL    MW4 2780   3.606   2.415   1.208
  688SOL     OW 2781   3.623   2.684   1.120
  688SOL    HW2 2782   3.614   2.594   1.151
  688SOL    HW3 2783   3.546   2.730   1.154
  688SOL    MW4 2784   3.612   2.678   1.129
  689SOL     OW 2785   3.839   2.863   1.192
  689SOL    HW2 2786   3.836   2.852   1.287
  689SOL    HW3 2787   3.769   2.808   1.158
  689SOL    MW4 2788   3.830   2.855   1.200
  690SOL     OW 2789   3.827   3.127   1.096
  690SOL    HW2 2790   3.826   3.038   1.131
  690SOL    HW3 2791   3.863   3.118   1.008
  690SOL    MW4 2792   3.831   3.114   1.089
  691SOL     OW 2793   3.588   3.196   1.232
  691SOL    HW2 2794   3.574   3.291   1.234
  691SOL    HW3 2795   3.667   3.185   1.179
  691SOL    MW4 2796   3.596   3.207   1.225
  692SOL     OW 2797   3.553   3.482   1.171
  692SOL    HW2 2798   3.639   3.523   1.179
  692SOL    HW3 2799   3.527   3.496   1.080
  692SOL    MW4 2800   3.561   3.489   1.160
  693SOL     OW 2801   3.820   3.620   1.167
  693SOL    HW2 2802   3.817   3.635   1.261
  693SOL    HW3 2803   3.810   3.708   1.129
  693SOL    MW4 2804   3.818   3.634   1.174
  694SOL     OW 2805   3.791   3.871   1.070
  694SOL    HW2 2806   3.725   3.919   1.119
  694SOL    HW3 2807   3.744   3.829   0.999
  694SOL    MW4 2808   3.776   3.872   1.067
  695SOL     OW 2809   3.577   3.973   1.206
  695SOL    HW2 2810   3.592   3.990   1.299
  695SOL    HW3 2811   3.497   3.920   1.205
  695SOL    MW4 2812   3.568   3.968   1.219
  696SOL     OW 2813   3.547   4.263   1.154
  696SOL    HW2 2814   3.549   4.170   1.175
  696SOL    HW3 2815   3.528   4.266   1.060
  696SOL    MW4 2816   3.544   4.251   1.144
  697SOL     OW 2817   3.813   4.330   1.224
  697SOL    HW2 2818   3.827   4.348   1.317
  697SOL    HW3 2819   3.721   4.307   1.217
  697SOL    MW4 2820   3.803   4.329   1.235
  698SOL     OW 2821   4.252   4.636   1.108
  698SOL    HW2 2822   4.249   4.546   1.142
  698SOL    HW3 2823   4.185   4.683   1.158
  698SOL    MW4 2824   4.243   4.630   1.119
  699SOL     OW 2825   4.042   0.093   1.219
  699SOL    HW2 2826   4.050   0.095   1.315
  699SOL    HW3 2827   3.962   0.044   1.203
  699SOL    MW4 2828   4.033   0.087   1.230
  700SOL     OW 2829   4.026   0.364   1.145
  700SOL    HW2 2830   4.045   0.277   1.179
  700SOL    HW3 2831   4.023   0.353   1.050
  700SOL    MW4 2832   4.028   0.351   1.137
  701SOL     OW 2833   4.277   0.511   1.217
  701SOL    HW2 2834   4.284   0.484   1.309
  701SOL    HW3 2835   4.204   0.460   1.182
  701SOL    MW4 2836   4.268   0.500   1.224
  702SOL     OW 2837   4.292   0.774   1.129
  702SOL    HW2 2838   4.292   0.687   1.168
  702SOL    HW3 2839   4.299   0.758   1.035
  702SOL    MW4 2840   4.293   0.760   1.122
  703SOL     OW 2841   4.050   0.901   1.191
  703SOL    HW2 2842   4.056   0.901   1.287
  703SOL    HW3 2843   4.123   0.847   1.162
  703SOL    MW4 2844   4.060   0.894   1.200
  704SOL     OW 2845   4.059   1.182   1.115
  704SOL    HW2 2846   4.067   1.100   1.165
  704SOL    HW3 2847   3.975   1.219   1.143
  704SOL    MW4 2848   4.049   1.176   1.126
  705SOL     OW 2849   4.275   1.341   1.209
  705SOL    HW2 2850   4.266   1.351   1.303
  705SOL    HW3 2851   4.198   1.289   1.183
  705SOL    MW4 2852   4.264   1.335   1.218
  706SOL     OW 2853   4.308   1.584   1.098
  706SOL    HW2 2854   4.293   1.494   1.130
  706SOL    HW3 2855   4.385   1.614   1.146
  706SOL    MW4 2856   4.316   1.576   1.109
  707SOL     OW 2857   4.075   1.682   1.201
  707SOL    HW2 2858   4.092   1.663   1.293
  707SOL    HW3 2859   4.154   1.653   1.155
  707SOL    MW4 2860   4.088   1.676   1.207
  708SOL     OW 2861   4.098   1.930   1.093
  708SOL    HW2 2862   4.088   1.846   1.137
  708SOL    HW3 2863   4.062   1.916   1.006
  708SOL    MW4 2864   4.092   1.917   1.088
  709SOL     OW 2865   4.278   2.089   1.242
  709SOL    HW2 2866   4.251   2.172   1.202
  709SOL    HW3 2867   4.226   2.023   1.198
  709SOL    MW4 2868   4.267   2.091   1.231
  710SOL     OW 2869   4.250   2.340   1.107
  710SOL    HW2 2870   4.177   2.390   1.144
  710SOL    HW3 2871   4.230   2.334   1.014
  710SOL    MW4 2872   4.237   2.346   1.100
  711SOL     OW 2873   4.036   2.464   1.227
  711SOL    HW2 2874   4.019   2.466   1.321
  711SOL    HW3 2875   4.049   2.555   1.202
  711SOL    MW4 2876   4.035   2.476   1.236
  712SOL     OW 2877   4.065   2.729   1.130
  712SOL    HW2 2878   3.987   2.779   1.153
  712SOL    HW3 2879   4.070   2.735   1.034
  712SOL    MW4 2880   4.056   2.737   1.120
  713SOL     OW 2881   4.287   2.881   1.234
  713SOL    HW2 2882   4.267   2.965   1.193
  713SOL    HW3 2883   4.220   2.821   1.200
  713SOL    MW4 2884   4.276   2.884   1.224
  714SOL     OW 2885   4.244   3.114   1.112
  714SOL    HW2 2886   4.170   3.165   1.147
  714SOL    HW3 2887   4.262   3.154   1.027
  714SOL    MW4 2888   4.236   3.126   1.105
  715SOL     OW 2889   4.033   3.241   1.223
  715SOL    HW2 2890   4.027   3.239   1.319
  715SOL    HW3 2891   3.959   3.188   1.193
  715SOL    MW4 2892   4.022   3.234   1.232
  716SOL     OW 2893   4.045   3.485   1.106
  716SOL    HW2 2894   4.040   3.401   1.151
  716SOL    HW3 2895   3.969   3.534   1.136
  716SOL    MW4 2896   4.035   3.480   1.116
  717SOL     OW 2897   4.267   3.622   1.202
  717SOL    HW2 2898   4.188   3.571   1.186
  717SOL    HW3 2899   4.337   3.573   1.158
  717SOL    MW4 2900   4.266   3.609   1.194
  718SOL     OW 2901   4.229   3.874   1.100
  718SOL    HW2 2902   4.165   3.916   1.157
  718SOL    HW3 2903   4.251   3.792   1.144
  718SOL    MW4 2904   4.223   3.869   1.113
  719SOL     OW 2905   4.016   4.022   1.195
  719SOL    HW2 2906   4.023   4.109   1.155
  719SOL    HW3 2907   3.936   3.985   1.157
  719SOL    MW4 2908   4.007   4.029   1.185
  720SOL     OW 2909   4.037   4.276   1.074
  720SOL    HW2 2910   3.948   4.303   1.096
  720SOL    HW3 2911   4.029   4.236   0.987
  720SOL    MW4 2912   4.024   4.274   1.065
  721SOL     OW 2913   4.266   4.385   1.211
  721SOL    HW2 2914   4.193   4.333   1.176
  721SOL    HW3 2915   4.343   4.354   1.163
  721SOL    MW4 2916   4.266   4.374   1.200
  722SOL     OW 2917   0.194   0.013   1.595
  722SOL    HW2 2918   0.271   0.053   1.555
  722SOL    HW3 2919   0.120   0.067   1.566
  722SOL    MW4 2920   0.194   0.025   1.586
  723SOL     OW 2921   4.468   0.153   1.498
  723SOL    HW2 2922   4.420   0.079   1.535
  723SOL    HW3 2923   4.453   0.146   1.403
  723SOL    MW4 2924   4.460   0.142   1.490
  724SOL     OW 2925   4.480   0.401   1.610
  724SOL    HW2 2926   4.488   0.395   1.705
  724SOL    HW3 2927   4.489   0.311   1.579
  724SOL    MW4 2928   4.483   0.389   1.618
  725SOL     OW 2929   0.185   0.553   1.485
  725SOL    HW2 2930   0.108   0.505   1.517
  725SOL    HW3 2931   0.177   0.549   1.390
  725SOL    MW4 2932   0.173   0.546   1.477
  726SOL     OW 2933   0.221   0.804   1.583
  726SOL    HW2 2934   0.296   0.839   1.535
  726SOL    HW3 2935   0.202   0.721   1.540
  726SOL    MW4 2936   0.229   0.797   1.571
  727SOL     OW 2937   4.481   0.903   1.484
  727SOL    HW2 2938   4.480   0.991   1.522
  727SOL    HW3 2939   4.558   0.861   1.521
  727SOL    MW4 2940   4.491   0.909   1.494
  728SOL     OW 2941   4.457   1.142   1.592
  728SOL    HW2 2942   4.455   1.146   1.687
  728SOL    HW3 2943   4.527   1.202   1.566
  728SOL    MW4 2944   4.466   1.150   1.601
  729SOL     OW 2945   0.165   1.320   1.502
  729SOL    HW2 2946   0.175   1.412   1.527
  729SOL    HW3 2947   0.178   1.319   1.407
  729SOL    MW4 2948   0.168   1.332   1.493
  730SOL     OW 2949   0.257   1.585   1.573
  730SOL    HW2 2950   0.269   1.573   1.668
  730SOL    HW3 2951   0.175   1.634   1.566
  730SOL    MW4 2952   0.248   1.590   1.585
  731SOL     OW 2953   0.028   1.737   1.534
  731SOL    HW2 2954   0.040   1.826   1.567
  731SOL    HW3 2955   0.054   1.743   1.442
  731SOL    MW4 2956   0.033   1.750   1.526
  732SOL     OW 2957   0.048   1.989   1.615
  732SOL    HW2 2958   0.049   1.986   1.711
  732SOL    HW3 2959  -0.043   2.011   1.593
  732SOL    MW4 2960   0.036   1.992   1.625
  733SOL     OW 2961   0.275   2.092   1.500
  733SOL    HW2 2962   0.195   2.059   1.541
  733SOL    HW3 2963   0.249   2.113   1.410
  733SOL    MW4 2964   0.261   2.091   1.493
  734SOL     OW 2965   0.200   2.357   1.570
  734SOL    HW2 2966   0.211   2.357   1.665
  734SOL    HW3 2967   0.201   2.265   1.545
  734SOL    MW4 2968   0.202   2.345   1.579
  735SOL     OW 2969   4.443   2.432   1.459
  735SOL    HW2 2970   4.375   2.405   1.520
  735SOL    HW3 2971   4.523   2.388   1.490
  735SOL    MW4 2972   4.445   2.423   1.471
  736SOL     OW 2973   4.456   2.679   1.597
  736SOL    HW2 2974   4.389   2.735   1.557
  736SOL    HW3 2975   4.449   2.597   1.548
  736SOL    MW4 2976   4.446   2.675   1.585
  737SOL     OW 2977   0.183   2.842   1.507
  737SOL    HW2 2978   0.258   2.800   1.548
  737SOL    HW3 2979   0.108   2.792   1.538
  737SOL    MW4 2980   0.183   2.830   1.516
  738SOL     OW 2981   0.203   3.101   1.559
  738SOL    HW2 2982   0.126   3.153   1.537
  738SOL    HW3 2983   0.181   3.012   1.531
  738SOL    MW4 2984   0.190   3.096   1.552
  739SOL     OW 2985   4.477   3.259   1.475
  739SOL    HW2 2986   4.483   3.351   1.500
  739SOL    HW3 2987   4.470   3.260   1.380
  739SOL    MW4 2988   4.477   3.271   1.466
  740SOL     OW 2989   0.008   3.510   1.550
  740SOL    HW2 2990   0.001   3.492   1.644
  740SOL    HW3 2991  -0.071   3.560   1.529
  740SOL    MW4 2992  -0.003   3.514   1.560
  741SOL     OW 2993   0.222   3.640   1.448
  741SOL    HW2 2994   0.232   3.729   1.480
  741SOL    HW3 2995   0.149   3.604   1.499
  741SOL    MW4 2996   0.213   3.647   1.459
  742SOL     OW 2997   0.256   3.885   1.559
  742SOL    HW2 2998   0.254   3.897   1.654
  742SOL    HW3 2999   0.313   3.955   1.527
  742SOL    MW4 3000   0.263   3.896   1.567
  743SOL     OW 3001   0.040   3.990   1.421
  743SOL    HW2 3002   0.039   4.077   1.462
  743SOL    HW3 3003   0.112   3.944   1.465
  743SOL    MW4 3004   0.050   3.995   1.432
  744SOL     OW 3005   0.035   4.236   1.585
  744SOL    HW2 3006   0.033   4.241   1.681
  744SOL    HW3 3007  -0.046   4.279   1.556
  744SOL    MW4 3008   0.024   4.242   1.594
  745SOL     OW 3009   0.257   4.414   1.489
  745SOL    HW2 3010   0.188   4.360   1.528
  745SOL    HW3 3011   0.237   4.503   1.519
  745SOL    MW4 3012   0.245   4.419   1.498
  746SOL     OW 3013   0.648   0.006   1.600
  746SOL    HW2 3014   0.723   0.054   1.564
  746SOL    HW3 3015   0.572   0.060   1.580
  746SOL    MW4 3016   0.648   0.019   1.593
  747SOL     OW 3017   0.416   0.147   1.511
  747SOL    HW2 3018   0.416   0.240   1.532
  747SOL    HW3 3019   0.426   0.144   1.416
  747SOL    MW4 3020   0.417   0.159   1.501
  748SOL     OW 3021   0.397   0.414   1.590
  748SOL    HW2 3022   0.466   0.463   1.546
  748SOL    HW3 3023   0.315   0.455   1.560
  748SOL    MW4 3024   0.395   0.425   1.580
  749SOL     OW 3025   0.644   0.548   1.494
  749SOL    HW2 3026   0.650   0.639   1.521
  749SOL    HW3 3027   0.655   0.550   1.399
  749SOL    MW4 3028   0.646   0.560   1.485
  750SOL     OW 3029   0.665   0.811   1.569
  750SOL    HW2 3030   0.660   0.808   1.665
  750SOL    HW3 3031   0.742   0.865   1.551
  750SOL    MW4 3032   0.675   0.818   1.579
  751SOL     OW 3033   0.443   0.943   1.471
  751SOL    HW2 3034   0.443   1.031   1.508
  751SOL    HW3 3035   0.524   0.904   1.502
  751SOL    MW4 3036   0.454   0.949   1.480
  752SOL     OW 3037   0.402   1.191   1.588
  752SOL    HW2 3038   0.471   1.238   1.542
  752SOL    HW3 3039   0.323   1.207   1.537
  752SOL    MW4 3040   0.401   1.199   1.575
  753SOL     OW 3041   0.651   1.299   1.459
  753SOL    HW2 3042   0.663   1.387   1.495
  753SOL    HW3 3043   0.665   1.310   1.365
  753SOL    MW4 3044   0.655   1.312   1.451
  754SOL     OW 3045   0.694   1.546   1.579
  754SOL    HW2 3046   0.776   1.595   1.575
  754SOL    HW3 3047   0.629   1.605   1.541
  754SOL    MW4 3048   0.696   1.560   1.573
  755SOL     OW 3049   0.469   1.706   1.460
  755SOL    HW2 3050   0.471   1.779   1.522
  755SOL    HW3 3051   0.387   1.661   1.479
  755SOL    MW4 3052   0.458   1.710   1.471
  756SOL     OW 3053   0.491   1.919   1.616
  756SOL    HW2 3054   0.483   1.919   1.711
  756SOL    HW3 3055   0.414   1.967   1.585
  756SOL    MW4 3056   0.480   1.926   1.625
  757SOL     OW 3057   0.674   2.103   1.530
  757SOL    HW2 3058   0.761   2.071   1.556
  757SOL    HW3 3059   0.614   2.036   1.562
  757SOL    MW4 3060   0.678   2.090   1.538
  758SOL     OW 3061   0.641   2.359   1.603
  758SOL    HW2 3062   0.563   2.395   1.562
  758SOL    HW3 3063   0.638   2.265   1.583
  758SOL    MW4 3064   0.631   2.351   1.595
  759SOL     OW 3065   0.438   2.464   1.460
  759SOL    HW2 3066   0.457   2.547   1.503
  759SOL    HW3 3067   0.356   2.434   1.499
  759SOL    MW4 3068   0.430   2.471   1.470
  760SOL     OW 3069   0.453   2.711   1.590
  760SOL    HW2 3070   0.452   2.708   1.686
  760SOL    HW3 3071   0.538   2.748   1.568
  760SOL    MW4 3072   0.464   2.715   1.600
  761SOL     OW 3073   0.705   2.820   1.504
  761SOL    HW2 3074   0.703   2.915   1.512
  761SOL    HW3 3075   0.707   2.804   1.410
  761SOL    MW4 3076   0.705   2.830   1.493
  762SOL     OW 3077   0.652   3.101   1.606
  762SOL    HW2 3078   0.735   3.128   1.566
  762SOL    HW3 3079   0.585   3.143   1.552
  762SOL    MW4 3080   0.655   3.110   1.594
  763SOL     OW 3081   0.448   3.221   1.471
  763SOL    HW2 3082   0.368   3.174   1.493
  763SOL    HW3 3083   0.434   3.252   1.382
  763SOL    MW4 3084   0.435   3.219   1.462
  764SOL     OW 3085   0.439   3.469   1.578
  764SOL    HW2 3086   0.422   3.379   1.550
  764SOL    HW3 3087   0.367   3.519   1.541
  764SOL    MW4 3088   0.428   3.464   1.569
  765SOL     OW 3089   0.666   3.640   1.506
  765SOL    HW2 3090   0.746   3.591   1.523
  765SOL    HW3 3091   0.595   3.577   1.524
  765SOL    MW4 3092   0.667   3.625   1.510
  766SOL     OW 3093   0.661   3.912   1.546
  766SOL    HW2 3094   0.746   3.939   1.511
  766SOL    HW3 3095   0.664   3.816   1.543
  766SOL    MW4 3096   0.673   3.903   1.541
  767SOL     OW 3097   0.446   4.030   1.447
  767SOL    HW2 3098   0.529   3.992   1.475
  767SOL    HW3 3099   0.448   4.027   1.351
  767SOL    MW4 3100   0.457   4.024   1.438
  768SOL     OW 3101   0.458   4.270   1.592
  768SOL    HW2 3102   0.458   4.194   1.534
  768SOL    HW3 3103   0.394   4.330   1.553
  768SOL    MW4 3104   0.450   4.268   1.579
  769SOL     OW 3105   0.692   4.386   1.530
  769SOL    HW2 3106   0.620   4.336   1.568
  769SOL    HW3 3107   0.687   4.472   1.572
  769SOL    MW4 3108   0.682   4.391   1.540
  770SOL     OW 3109   1.084   0.009   1.603
  770SOL    HW2 3110   1.087  -0.010   1.697
  770SOL    HW3 3111   1.163   0.060   1.586
  770SOL    MW4 3112   1.095   0.013   1.613
  771SOL     OW 3113   0.863   0.135   1.481
  771SOL    HW2 3114   0.861   0.227   1.506
  771SOL    HW3 3115   0.949   0.104   1.510
  771SOL    MW4 3116   0.874   0.143   1.488
  772SOL     OW 3117   0.880   0.400   1.568
  772SOL    HW2 3118   0.877   0.390   1.663
  772SOL    HW3 3119   0.798   0.445   1.546
  772SOL    MW4 3120   0.868   0.405   1.578
  773SOL     OW 3121   1.119   0.489   1.436
  773SOL    HW2 3122   1.131   0.578   1.467
  773SOL    HW3 3123   1.030   0.466   1.461
  773SOL    MW4 3124   1.109   0.498   1.443
  774SOL     OW 3125   1.135   0.734   1.566
  774SOL    HW2 3126   1.116   0.741   1.660
  774SOL    HW3 3127   1.216   0.785   1.555
  774SOL    MW4 3128   1.143   0.741   1.577
  775SOL     OW 3129   0.910   0.903   1.482
  775SOL    HW2 3130   0.987   0.862   1.521
  775SOL    HW3 3131   0.926   0.901   1.388
  775SOL    MW4 3132   0.922   0.897   1.475
  776SOL     OW 3133   0.891   1.165   1.572
  776SOL    HW2 3134   0.900   1.083   1.524
  776SOL    HW3 3135   0.816   1.208   1.532
  776SOL    MW4 3136   0.882   1.160   1.561
  777SOL     OW 3137   1.110   1.346   1.493
  777SOL    HW2 3138   1.185   1.288   1.505
  777SOL    HW3 3139   1.037   1.300   1.534
  777SOL    MW4 3140   1.110   1.332   1.500
  778SOL     OW 3141   1.150   1.596   1.604
  778SOL    HW2 3142   1.211   1.626   1.536
  778SOL    HW3 3143   1.114   1.514   1.569
  778SOL    MW4 3144   1.153   1.589   1.590
  779SOL     OW 3145   0.911   1.733   1.501
  779SOL    HW2 3146   0.994   1.712   1.543
  779SOL    HW3 3147   0.921   1.701   1.411
  779SOL    MW4 3148   0.923   1.726   1.494
  780SOL     OW 3149   0.919   2.000   1.571
  780SOL    HW2 3150   1.003   2.038   1.545
  780SOL    HW3 3151   0.914   1.918   1.521
  780SOL    MW4 3152   0.930   1.994   1.561
  781SOL     OW 3153   1.149   2.093   1.470
  781SOL    HW2 3154   1.228   2.062   1.514
  781SOL    HW3 3155   1.130   2.177   1.512
  781SOL    MW4 3156   1.157   2.100   1.482
  782SOL     OW 3157   1.083   2.332   1.640
  782SOL    HW2 3158   1.161   2.379   1.608
  782SOL    HW3 3159   1.010   2.374   1.594
  782SOL    MW4 3160   1.084   2.344   1.629
  783SOL     OW 3161   0.878   2.429   1.483
  783SOL    HW2 3162   0.892   2.521   1.507
  783SOL    HW3 3163   0.807   2.400   1.539
  783SOL    MW4 3164   0.871   2.438   1.493
  784SOL     OW 3165   0.932   2.673   1.598
  784SOL    HW2 3166   0.946   2.690   1.691
  784SOL    HW3 3167   0.847   2.714   1.578
  784SOL    MW4 3168   0.922   2.680   1.608
  785SOL     OW 3169   1.148   2.794   1.475
  785SOL    HW2 3170   1.148   2.886   1.501
  785SOL    HW3 3171   1.077   2.755   1.525
  785SOL    MW4 3172   1.139   2.801   1.485
  786SOL     OW 3173   1.138   3.054   1.561
  786SOL    HW2 3174   1.116   3.062   1.654
  786SOL    HW3 3175   1.212   3.113   1.549
  786SOL    MW4 3176   1.145   3.063   1.572
  787SOL     OW 3177   0.904   3.205   1.501
  787SOL    HW2 3178   0.977   3.146   1.520
  787SOL    HW3 3179   0.896   3.204   1.405
  787SOL    MW4 3180   0.912   3.197   1.491
  788SOL     OW 3181   0.886   3.487   1.539
  788SOL    HW2 3182   0.974   3.518   1.518
  788SOL    HW3 3183   0.892   3.392   1.531
  788SOL    MW4 3184   0.898   3.479   1.535
  789SOL     OW 3185   1.128   3.621   1.448
  789SOL    HW2 3186   1.199   3.567   1.483
  789SOL    HW3 3187   1.132   3.609   1.353
  789SOL    MW4 3188   1.138   3.612   1.440
  790SOL     OW 3189   1.144   3.859   1.593
  790SOL    HW2 3190   1.232   3.897   1.597
  790SOL    HW3 3191   1.154   3.779   1.543
  790SOL    MW4 3192   1.157   3.854   1.587
  791SOL     OW 3193   0.908   4.006   1.466
  791SOL    HW2 3194   0.892   4.087   1.513
  791SOL    HW3 3195   0.991   3.974   1.501
  791SOL    MW4 3196   0.917   4.012   1.477
  792SOL     OW 3197   0.918   4.260   1.619
  792SOL    HW2 3198   0.905   4.249   1.714
  792SOL    HW3 3199   0.840   4.308   1.590
  792SOL    MW4 3200   0.906   4.265   1.628
  793SOL     OW 3201   1.115   4.420   1.528
  793SOL    HW2 3202   1.035   4.379   1.562
  793SOL    HW3 3203   1.112   4.510   1.560
  793SOL    MW4 3204   1.104   4.427   1.537
  794SOL     OW 3205   1.551   4.638   1.646
  794SOL    HW2 3206   1.550   4.621   1.740
  794SOL    HW3 3207   1.462   4.667   1.625
  794SOL    MW4 3208   1.539   4.640   1.655
  795SOL     OW 3209   1.343   0.108   1.541
  795SOL    HW2 3210   1.369   0.194   1.575
  795SOL    HW3 3211   1.336   0.120   1.446
  795SOL    MW4 3212   1.346   0.121   1.533
  796SOL     OW 3213   1.358   0.389   1.575
  796SOL    HW2 3214   1.438   0.426   1.537
  796SOL    HW3 3215   1.288   0.417   1.516
  796SOL    MW4 3216   1.359   0.397   1.562
  797SOL     OW 3217   1.585   0.544   1.468
  797SOL    HW2 3218   1.654   0.482   1.491
  797SOL    HW3 3219   1.591   0.553   1.373
  797SOL    MW4 3220   1.595   0.537   1.458
  798SOL     OW 3221   1.569   0.796   1.604
  798SOL    HW2 3222   1.548   0.793   1.697
  798SOL    HW3 3223   1.570   0.704   1.577
  798SOL    MW4 3224   1.567   0.783   1.613
  799SOL     OW 3225   1.351   0.914   1.469
  799SOL    HW2 3226   1.438   0.882   1.492
  799SOL    HW3 3227   1.348   0.908   1.374
  799SOL    MW4 3228   1.362   0.909   1.460
  800SOL     OW 3229   1.343   1.183   1.539
  800SOL    HW2 3230   1.345   1.179   1.635
  800SOL    HW3 3231   1.341   1.091   1.512
  800SOL    MW4 3232   1.343   1.170   1.548
  801SOL     OW 3233   1.581   1.271   1.451
  801SOL    HW2 3234   1.494   1.236   1.466
  801SOL    HW3 3235   1.584   1.289   1.357
  801SOL    MW4 3236   1.570   1.269   1.441
  802SOL     OW 3237   1.585   1.545   1.578
  802SOL    HW2 3238   1.564   1.534   1.671
  802SOL    HW3 3239   1.593   1.455   1.544
  802SOL    MW4 3240   1.583   1.532   1.586
  803SOL     OW 3241   1.381   1.691   1.450
  803SOL    HW2 3242   1.456   1.642   1.482
  803SOL    HW3 3243   1.398   1.703   1.357
  803SOL    MW4 3244   1.393   1.686   1.442
  804SOL     OW 3245   1.361   1.945   1.574
  804SOL    HW2 3246   1.371   1.938   1.669
  804SOL    HW3 3247   1.367   1.854   1.543
  804SOL    MW4 3248   1.363   1.932   1.583
  805SOL     OW 3249   1.566   2.090   1.486
  805SOL    HW2 3250   1.502   2.030   1.525
  805SOL    HW3 3251   1.572   2.061   1.395
  805SOL    MW4 3252   1.558   2.078   1.479
  806SOL     OW 3253   1.543   2.343   1.599
  806SOL    HW2 3254   1.608   2.389   1.546
  806SOL    HW3 3255   1.555   2.251   1.576
  806SOL    MW4 3256   1.553   2.337   1.589
  807SOL     OW 3257   1.303   2.464   1.517
  807SOL    HW2 3258   1.316   2.553   1.548
  807SOL    HW3 3259   1.382   2.418   1.545
  807SOL    MW4 3260   1.315   2.469   1.525
  808SOL     OW 3261   1.368   2.715   1.629
  808SOL    HW2 3262   1.442   2.741   1.574
  808SOL    HW3 3263   1.291   2.736   1.577
  808SOL    MW4 3264   1.367   2.721   1.615
  809SOL     OW 3265   1.579   2.803   1.444
  809SOL    HW2 3266   1.654   2.764   1.490
  809SOL    HW3 3267   1.601   2.797   1.352
  809SOL    MW4 3268   1.592   2.797   1.438
  810SOL     OW 3269   1.582   3.054   1.560
  810SOL    HW2 3270   1.671   3.089   1.549
  810SOL    HW3 3271   1.586   2.967   1.520
  810SOL    MW4 3272   1.594   3.047   1.554
  811SOL     OW 3273   1.362   3.221   1.491
  811SOL    HW2 3274   1.371   3.307   1.531
  811SOL    HW3 3275   1.441   3.173   1.517
  811SOL    MW4 3276   1.373   3.226   1.500
  812SOL     OW 3277   1.337   3.492   1.581
  812SOL    HW2 3278   1.345   3.495   1.676
  812SOL    HW3 3279   1.418   3.532   1.549
  812SOL    MW4 3280   1.349   3.497   1.589
  813SOL     OW 3281   1.613   3.610   1.538
  813SOL    HW2 3282   1.613   3.690   1.590
  813SOL    HW3 3283   1.598   3.640   1.449
  813SOL    MW4 3284   1.611   3.624   1.533
  814SOL     OW 3285   1.599   3.880   1.663
  814SOL    HW2 3286   1.583   3.877   1.757
  814SOL    HW3 3287   1.524   3.927   1.627
  814SOL    MW4 3288   1.587   3.886   1.670
  815SOL     OW 3289   1.390   4.000   1.524
  815SOL    HW2 3290   1.367   4.092   1.542
  815SOL    HW3 3291   1.399   3.996   1.429
  815SOL    MW4 3292   1.388   4.012   1.514
  816SOL     OW 3293   1.333   4.263   1.577
  816SOL    HW2 3294   1.400   4.324   1.546
  816SOL    HW3 3295   1.250   4.302   1.550
  816SOL    MW4 3296   1.331   4.277   1.570
  817SOL     OW 3297   1.560   4.390   1.507
  817SOL    HW2 3298   1.637   4.342   1.536
  817SOL    HW3 3299   1.553   4.464   1.568
  817SOL    MW4 3300   1.569   4.394   1.519
  818SOL     OW 3301   2.019   4.656   1.606
  818SOL    HW2 3302   2.023   4.640   1.700
  818SOL    HW3 3303   1.931   4.689   1.590
  818SOL    MW4 3304   2.008   4.658   1.616
  819SOL     OW 3305   1.767   0.120   1.539
  819SOL    HW2 3306   1.682   0.079   1.556
  819SOL    HW3 3307   1.762   0.147   1.447
  819SOL    MW4 3308   1.755   0.118   1.529
  820SOL     OW 3309   1.803   0.389   1.574
  820SOL    HW2 3310   1.890   0.413   1.540
  820SOL    HW3 3311   1.802   0.294   1.573
  820SOL    MW4 3312   1.814   0.380   1.569
  821SOL     OW 3313   2.064   0.491   1.470
  821SOL    HW2 3314   2.125   0.438   1.521
  821SOL    HW3 3315   2.044   0.566   1.525
  821SOL    MW4 3316   2.070   0.494   1.484
  822SOL     OW 3317   1.995   0.734   1.578
  822SOL    HW2 3318   2.063   0.770   1.521
  822SOL    HW3 3319   1.914   0.774   1.547
  822SOL    MW4 3320   1.994   0.744   1.566
  823SOL     OW 3321   1.788   0.919   1.478
  823SOL    HW2 3322   1.789   1.003   1.522
  823SOL    HW3 3323   1.708   0.876   1.510
  823SOL    MW4 3324   1.778   0.924   1.488
  824SOL     OW 3325   1.791   1.175   1.571
  824SOL    HW2 3326   1.867   1.203   1.521
  824SOL    HW3 3327   1.715   1.205   1.520
  824SOL    MW4 3328   1.791   1.183   1.558
  825SOL     OW 3329   2.015   1.291   1.463
  825SOL    HW2 3330   2.027   1.372   1.512
  825SOL    HW3 3331   2.034   1.316   1.372
  825SOL    MW4 3332   2.019   1.305   1.457
  826SOL     OW 3333   2.044   1.562   1.582
  826SOL    HW2 3334   2.123   1.612   1.563
  826SOL    HW3 3335   1.972   1.618   1.554
  826SOL    MW4 3336   2.045   1.576   1.576
  827SOL     OW 3337   1.830   1.729   1.497
  827SOL    HW2 3338   1.759   1.667   1.514
  827SOL    HW3 3339   1.835   1.733   1.401
  827SOL    MW4 3340   1.821   1.721   1.487
  828SOL     OW 3341   1.769   1.992   1.628
  828SOL    HW2 3342   1.797   1.915   1.580
  828SOL    HW3 3343   1.702   2.033   1.573
  828SOL    MW4 3344   1.764   1.987   1.615
  829SOL     OW 3345   1.998   2.060   1.500
  829SOL    HW2 3346   2.075   2.018   1.537
  829SOL    HW3 3347   1.930   2.047   1.566
  829SOL    MW4 3348   1.999   2.053   1.514
  830SOL     OW 3349   2.046   2.318   1.597
  830SOL    HW2 3350   2.043   2.314   1.693
  830SOL    HW3 3351   2.031   2.227   1.569
  830SOL    MW4 3352   2.043   2.305   1.606
  831SOL     OW 3353   1.776   2.426   1.466
  831SOL    HW2 3354   1.852   2.382   1.503
  831SOL    HW3 3355   1.796   2.434   1.373
  831SOL    MW4 3356   1.788   2.421   1.458
  832SOL     OW 3357   1.788   2.672   1.560
  832SOL    HW2 3358   1.872   2.694   1.519
  832SOL    HW3 3359   1.772   2.581   1.533
  832SOL    MW4 3360   1.797   2.663   1.551
  833SOL     OW 3361   2.033   2.796   1.489
  833SOL    HW2 3362   2.021   2.890   1.507
  833SOL    HW3 3363   2.050   2.792   1.395
  833SOL    MW4 3364   2.034   2.808   1.479
  834SOL     OW 3365   2.019   3.068   1.554
  834SOL    HW2 3366   2.023   3.053   1.649
  834SOL    HW3 3367   2.101   3.114   1.534
  834SOL    MW4 3368   2.031   3.072   1.564
  835SOL     OW 3369   1.807   3.230   1.485
  835SOL    HW2 3370   1.820   3.312   1.532
  835SOL    HW3 3371   1.889   3.183   1.496
  835SOL    MW4 3372   1.820   3.234   1.493
  836SOL     OW 3373   1.851   3.463   1.622
  836SOL    HW2 3374   1.843   3.440   1.714
  836SOL    HW3 3375   1.775   3.519   1.604
  836SOL    MW4 3376   1.840   3.467   1.632
  837SOL     OW 3377   2.053   3.621   1.532
  837SOL    HW2 3378   2.130   3.567   1.551
  837SOL    HW3 3379   1.980   3.571   1.567
  837SOL    MW4 3380   2.054   3.607   1.539
  838SOL     OW 3381   2.044   3.875   1.642
  838SOL    HW2 3382   2.110   3.919   1.589
  838SOL    HW3 3383   2.059   3.782   1.626
  838SOL    MW4 3384   2.055   3.868   1.633
  839SOL     OW 3385   1.829   3.964   1.490
  839SOL    HW2 3386   1.906   3.937   1.540
  839SOL    HW3 3387   1.754   3.932   1.540
  839SOL    MW4 3388   1.829   3.956   1.503
  840SOL     OW 3389   1.776   4.225   1.582
  840SOL    HW2 3390   1.856   4.279   1.580
  840SOL    HW3 3391   1.803   4.141   1.546
  840SOL    MW4 3392   1.790   4.221   1.577
  841SOL     OW 3393   2.001   4.387   1.512
  841SOL    HW2 3394   2.088   4.353   1.535
  841SOL    HW3 3395   2.004   4.479   1.539
  841SOL    MW4 3396   2.013   4.395   1.519
  842SOL     OW 3397   2.456   4.650   1.605
  842SOL    HW2 3398   2.449   4.634   1.699
  842SOL    HW3 3399   2.379   4.703   1.584
  842SOL    MW4 3400   2.445   4.655   1.614
  843SOL     OW 3401   2.224   0.124   1.511
  843SOL    HW2 3402   2.151   0.074   1.549
  843SOL    HW3 3403   2.223   0.101   1.418
  843SOL    MW4 3404   2.214   0.114   1.504
  844SOL     OW 3405   2.247   0.358   1.633
  844SOL    HW2 3406   2.243   0.345   1.728
  844SOL    HW3 3407   2.247   0.269   1.597
  844SOL    MW4 3408   2.246   0.344   1.641
  845SOL     OW 3409   2.447   0.492   1.481
  845SOL    HW2 3410   2.533   0.466   1.515
  845SOL    HW3 3411   2.385   0.437   1.529
  845SOL    MW4 3412   2.450   0.481   1.492
  846SOL     OW 3413   2.437   0.764   1.619
  846SOL    HW2 3414   2.371   0.813   1.571
  846SOL    HW3 3415   2.424   0.673   1.594
  846SOL    MW4 3416   2.427   0.758   1.610
  847SOL     OW 3417   2.224   0.874   1.469
  847SOL    HW2 3418   2.207   0.953   1.521
  847SOL    HW3 3419   2.242   0.907   1.381
  847SOL    MW4 3420   2.224   0.889   1.464
  848SOL     OW 3421   2.224   1.146   1.573
  848SOL    HW2 3422   2.220   1.133   1.668
  848SOL    HW3 3423   2.137   1.178   1.549
  848SOL    MW4 3424   2.212   1.149   1.582
  849SOL     OW 3425   2.454   1.270   1.478
  849SOL    HW2 3426   2.365   1.243   1.498
  849SOL    HW3 3427   2.452   1.296   1.386
  849SOL    MW4 3428   2.442   1.270   1.469
  850SOL     OW 3429   2.474   1.532   1.570
  850SOL    HW2 3430   2.561   1.560   1.544
  850SOL    HW3 3431   2.470   1.439   1.548
  850SOL    MW4 3432   2.485   1.523   1.564
  851SOL     OW 3433   2.280   1.703   1.490
  851SOL    HW2 3434   2.335   1.632   1.524
  851SOL    HW3 3435   2.293   1.699   1.395
  851SOL    MW4 3436   2.289   1.693   1.482
  852SOL     OW 3437   2.248   1.968   1.571
  852SOL    HW2 3438   2.243   1.958   1.666
  852SOL    HW3 3439   2.269   1.880   1.539
  852SOL    MW4 3440   2.250   1.955   1.579
  853SOL     OW 3441   2.476   2.119   1.485
  853SOL    HW2 3442   2.415   2.050   1.511
  853SOL    HW3 3443   2.492   2.103   1.391
  853SOL    MW4 3444   2.470   2.108   1.476
  854SOL     OW 3445   2.470   2.344   1.631
  854SOL    HW2 3446   2.449   2.322   1.721
  854SOL    HW3 3447   2.469   2.260   1.585
  854SOL    MW4 3448   2.467   2.330   1.636
  855SOL     OW 3449   2.258   2.450   1.507
  855SOL    HW2 3450   2.336   2.415   1.549
  855SOL    HW3 3451   2.187   2.393   1.537
  855SOL    MW4 3452   2.259   2.438   1.517
  856SOL     OW 3453   2.278   2.708   1.583
  856SOL    HW2 3454   2.281   2.620   1.547
  856SOL    HW3 3455   2.191   2.741   1.560
  856SOL    MW4 3456   2.267   2.701   1.575
  857SOL     OW 3457   2.482   2.853   1.479
  857SOL    HW2 3458   2.494   2.934   1.528
  857SOL    HW3 3459   2.421   2.801   1.531
  857SOL    MW4 3460   2.476   2.856   1.492
  858SOL     OW 3461   2.475   3.089   1.620
  858SOL    HW2 3462   2.556   3.137   1.604
  858SOL    HW3 3463   2.408   3.140   1.573
  858SOL    MW4 3464   2.477   3.102   1.611
  859SOL     OW 3465   2.238   3.207   1.483
  859SOL    HW2 3466   2.264   3.294   1.511
  859SOL    HW3 3467   2.267   3.202   1.392
  859SOL    MW4 3468   2.245   3.218   1.474
  860SOL     OW 3469   2.272   3.479   1.588
  860SOL    HW2 3470   2.273   3.466   1.682
  860SOL    HW3 3471   2.341   3.543   1.572
  860SOL    MW4 3472   2.281   3.486   1.598
  861SOL     OW 3473   2.481   3.672   1.502
  861SOL    HW2 3474   2.567   3.643   1.532
  861SOL    HW3 3475   2.464   3.751   1.553
  861SOL    MW4 3476   2.490   3.678   1.513
  862SOL     OW 3477   2.448   3.916   1.634
  862SOL    HW2 3478   2.451   3.890   1.726
  862SOL    HW3 3479   2.537   3.944   1.615
  862SOL    MW4 3480   2.460   3.916   1.644
  863SOL     OW 3481   2.222   4.029   1.516
  863SOL    HW2 3482   2.304   3.992   1.549
  863SOL    HW3 3483   2.225   4.014   1.422
  863SOL    MW4 3484   2.233   4.022   1.508
  864SOL     OW 3485   2.243   4.293   1.599
  864SOL    HW2 3486   2.301   4.343   1.541
  864SOL    HW3 3487   2.252   4.202   1.569
  864SOL    MW4 3488   2.252   4.287   1.588
  865SOL     OW 3489   2.467   4.407   1.483
  865SOL    HW2 3490   2.470   4.493   1.527
  865SOL    HW3 3491   2.487   4.426   1.392
  865SOL    MW4 3492   2.470   4.421   1.477
  866SOL     OW 3493   2.960   0.045   1.621
  866SOL    HW2 3494   2.931   0.029   1.711
  866SOL    HW3 3495   2.881   0.071   1.574
  866SOL    MW4 3496   2.946   0.046   1.627
  867SOL     OW 3497   2.686   0.100   1.508
  867SOL    HW2 3498   2.680   0.187   1.547
  867SOL    HW3 3499   2.612   0.052   1.546
  867SOL    MW4 3500   2.675   0.105   1.518
  868SOL     OW 3501   2.705   0.374   1.583
  868SOL    HW2 3502   2.703   0.374   1.678
  868SOL    HW3 3503   2.773   0.436   1.559
  868SOL    MW4 3504   2.714   0.382   1.592
  869SOL     OW 3505   2.910   0.531   1.503
  869SOL    HW2 3506   2.897   0.624   1.518
  869SOL    HW3 3507   2.877   0.516   1.414
  869SOL    MW4 3508   2.904   0.541   1.493
  870SOL     OW 3509   2.938   0.804   1.614
  870SOL    HW2 3510   2.931   0.790   1.709
  870SOL    HW3 3511   2.852   0.834   1.587
  870SOL    MW4 3512   2.926   0.806   1.623
  871SOL     OW 3513   2.679   0.860   1.482
  871SOL    HW2 3514   2.604   0.822   1.529
  871SOL    HW3 3515   2.642   0.888   1.398
  871SOL    MW4 3516   2.664   0.858   1.477
  872SOL     OW 3517   2.663   1.118   1.594
  872SOL    HW2 3518   2.660   1.030   1.558
  872SOL    HW3 3519   2.599   1.168   1.543
  872SOL    MW4 3520   2.654   1.113   1.583
  873SOL     OW 3521   2.884   1.264   1.511
  873SOL    HW2 3522   2.972   1.232   1.527
  873SOL    HW3 3523   2.827   1.192   1.537
  873SOL    MW4 3524   2.888   1.250   1.516
  874SOL     OW 3525   2.910   1.531   1.624
  874SOL    HW2 3526   2.854   1.594   1.578
  874SOL    HW3 3527   2.885   1.446   1.588
  874SOL    MW4 3528   2.899   1.528   1.613
  875SOL     OW 3529   2.729   1.660   1.480
  875SOL    HW2 3530   2.690   1.743   1.508
  875SOL    HW3 3531   2.724   1.663   1.384
  875SOL    MW4 3532   2.723   1.672   1.471
  876SOL     OW 3533   2.658   1.909   1.569
  876SOL    HW2 3534   2.692   1.919   1.658
  876SOL    HW3 3535   2.599   1.984   1.557
  876SOL    MW4 3536   2.654   1.920   1.579
  877SOL     OW 3537   2.909   2.025   1.478
  877SOL    HW2 3538   2.904   2.109   1.524
  877SOL    HW3 3539   2.826   1.981   1.499
  877SOL    MW4 3540   2.897   2.030   1.487
  878SOL     OW 3541   2.901   2.279   1.581
  878SOL    HW2 3542   2.910   2.284   1.676
  878SOL    HW3 3543   2.822   2.331   1.562
  878SOL    MW4 3544   2.891   2.287   1.591
  879SOL     OW 3545   2.673   2.438   1.481
  879SOL    HW2 3546   2.689   2.527   1.513
  879SOL    HW3 3547   2.600   2.406   1.535
  879SOL    MW4 3548   2.665   2.446   1.493
  880SOL     OW 3549   2.703   2.709   1.588
  880SOL    HW2 3550   2.770   2.774   1.564
  880SOL    HW3 3551   2.621   2.749   1.558
  880SOL    MW4 3552   2.701   2.723   1.581
  881SOL     OW 3553   2.946   2.876   1.512
  881SOL    HW2 3554   3.022   2.826   1.541
  881SOL    HW3 3555   2.956   2.961   1.554
  881SOL    MW4 3556   2.957   2.881   1.522
  882SOL     OW 3557   2.953   3.110   1.637
  882SOL    HW2 3558   2.959   3.092   1.731
  882SOL    HW3 3559   3.026   3.170   1.619
  882SOL    MW4 3560   2.963   3.115   1.647
  883SOL     OW 3561   2.718   3.239   1.552
  883SOL    HW2 3562   2.795   3.199   1.592
  883SOL    HW3 3563   2.720   3.210   1.461
  883SOL    MW4 3564   2.728   3.230   1.545
  884SOL     OW 3565   2.720   3.547   1.578
  884SOL    HW2 3566   2.737   3.546   1.672
  884SOL    HW3 3567   2.717   3.455   1.553
  884SOL    MW4 3568   2.722   3.535   1.587
  885SOL     OW 3569   2.946   3.687   1.467
  885SOL    HW2 3570   2.873   3.637   1.504
  885SOL    HW3 3571   2.930   3.686   1.372
  885SOL    MW4 3572   2.935   3.680   1.459
  886SOL     OW 3573   2.972   3.903   1.632
  886SOL    HW2 3574   2.886   3.946   1.634
  886SOL    HW3 3575   2.960   3.831   1.570
  886SOL    MW4 3576   2.959   3.899   1.624
  887SOL     OW 3577   2.709   4.024   1.591
  887SOL    HW2 3578   2.697   4.118   1.606
  887SOL    HW3 3579   2.698   4.014   1.496
  887SOL    MW4 3580   2.706   4.035   1.580
  888SOL     OW 3581   2.683   4.305   1.616
  888SOL    HW2 3582   2.759   4.352   1.583
  888SOL    HW3 3583   2.609   4.340   1.565
  888SOL    MW4 3584   2.683   4.316   1.605
  889SOL     OW 3585   2.903   4.449   1.532
  889SOL    HW2 3586   2.936   4.530   1.571
  889SOL    HW3 3587   2.922   4.459   1.439
  889SOL    MW4 3588   2.910   4.461   1.525
  890SOL     OW 3589   3.410   0.074   1.601
  890SOL    HW2 3590   3.485   0.120   1.563
  890SOL    HW3 3591   3.409  -0.010   1.556
  890SOL    MW4 3592   3.420   0.069   1.590
  891SOL     OW 3593   3.168   0.180   1.523
  891SOL    HW2 3594   3.260   0.156   1.536
  891SOL    HW3 3595   3.118   0.113   1.568
  891SOL    MW4 3596   3.174   0.168   1.530
  892SOL     OW 3597   3.145   0.439   1.635
  892SOL    HW2 3598   3.147   0.348   1.603
  892SOL    HW3 3599   3.067   0.476   1.594
  892SOL    MW4 3600   3.135   0.432   1.625
  893SOL     OW 3601   3.396   0.521   1.498
  893SOL    HW2 3602   3.314   0.490   1.536
  893SOL    HW3 3603   3.377   0.533   1.405
  893SOL    MW4 3604   3.383   0.518   1.491
  894SOL     OW 3605   3.369   0.780   1.571
  894SOL    HW2 3606   3.378   0.788   1.666
  894SOL    HW3 3607   3.387   0.688   1.552
  894SOL    MW4 3608   3.373   0.769   1.581
  895SOL     OW 3609   3.141   0.883   1.451
  895SOL    HW2 3610   3.218   0.847   1.494
  895SOL    HW3 3611   3.067   0.848   1.501
  895SOL    MW4 3612   3.141   0.874   1.463
  896SOL     OW 3613   3.141   1.137   1.554
  896SOL    HW2 3614   3.151   1.138   1.649
  896SOL    HW3 3615   3.157   1.046   1.529
  896SOL    MW4 3616   3.145   1.125   1.563
  897SOL     OW 3617   3.362   1.299   1.454
  897SOL    HW2 3618   3.441   1.267   1.496
  897SOL    HW3 3619   3.291   1.250   1.496
  897SOL    MW4 3620   3.363   1.288   1.465
  898SOL     OW 3621   3.366   1.538   1.579
  898SOL    HW2 3622   3.383   1.506   1.668
  898SOL    HW3 3623   3.359   1.459   1.526
  898SOL    MW4 3624   3.367   1.523   1.584
  899SOL     OW 3625   3.113   1.643   1.474
  899SOL    HW2 3626   3.198   1.611   1.506
  899SOL    HW3 3627   3.048   1.594   1.525
  899SOL    MW4 3628   3.116   1.632   1.485
  900SOL     OW 3629   3.159   1.922   1.578
  900SOL    HW2 3630   3.158   1.831   1.549
  900SOL    HW3 3631   3.078   1.959   1.544
  900SOL    MW4 3632   3.148   1.915   1.570
  901SOL     OW 3633   3.372   2.067   1.475
  901SOL    HW2 3634   3.295   2.014   1.495
  901SOL    HW3 3635   3.387   2.054   1.382
  901SOL    MW4 3636   3.364   2.058   1.466
  902SOL     OW 3637   3.339   2.323   1.571
  902SOL    HW2 3638   3.416   2.366   1.534
  902SOL    HW3 3639   3.355   2.229   1.558
  902SOL    MW4 3640   3.352   2.316   1.565
  903SOL     OW 3641   3.129   2.435   1.472
  903SOL    HW2 3642   3.206   2.392   1.511
  903SOL    HW3 3643   3.055   2.382   1.501
  903SOL    MW4 3644   3.130   2.422   1.481
  904SOL     OW 3645   3.161   2.705   1.578
  904SOL    HW2 3646   3.237   2.743   1.534
  904SOL    HW3 3647   3.158   2.614   1.547
  904SOL    MW4 3648   3.171   2.698   1.568
  905SOL     OW 3649   3.362   2.848   1.446
  905SOL    HW2 3650   3.355   2.933   1.490
  905SOL    HW3 3651   3.372   2.870   1.354
  905SOL    MW4 3652   3.363   2.862   1.440
  906SOL     OW 3653   3.347   3.094   1.597
  906SOL    HW2 3654   3.354   3.077   1.691
  906SOL    HW3 3655   3.422   3.149   1.577
  906SOL    MW4 3656   3.358   3.099   1.607
  907SOL     OW 3657   3.158   3.285   1.513
  907SOL    HW2 3658   3.207   3.206   1.538
  907SOL    HW3 3659   3.147   3.277   1.418
  907SOL    MW4 3660   3.163   3.273   1.504
  908SOL     OW 3661   3.167   3.549   1.580
  908SOL    HW2 3662   3.150   3.458   1.558
  908SOL    HW3 3663   3.099   3.599   1.535
  908SOL    MW4 3664   3.156   3.544   1.571
  909SOL     OW 3665   3.420   3.674   1.548
  909SOL    HW2 3666   3.486   3.605   1.546
  909SOL    HW3 3667   3.339   3.630   1.573
  909SOL    MW4 3668   3.418   3.659   1.551
  910SOL     OW 3669   3.412   3.956   1.613
  910SOL    HW2 3670   3.326   3.982   1.579
  910SOL    HW3 3671   3.422   3.865   1.586
  910SOL    MW4 3672   3.402   3.948   1.605
  911SOL     OW 3673   3.181   4.059   1.495
  911SOL    HW2 3674   3.166   4.146   1.531
  911SOL    HW3 3675   3.115   4.004   1.537
  911SOL    MW4 3676   3.170   4.063   1.505
  912SOL     OW 3677   3.129   4.313   1.591
  912SOL    HW2 3678   3.117   4.283   1.681
  912SOL    HW3 3679   3.046   4.358   1.570
  912SOL    MW4 3680   3.116   4.315   1.600
  913SOL     OW 3681   3.349   4.469   1.546
  913SOL    HW2 3682   3.279   4.410   1.575
  913SOL    HW3 3683   3.342   4.469   1.451
  913SOL    MW4 3684   3.339   4.461   1.537
  914SOL     OW 3685   3.847   0.014   1.596
  914SOL    HW2 3686   3.840   0.031   1.690
  914SOL    HW3 3687   3.931   0.053   1.570
  914SOL    MW4 3688   3.857   0.022   1.605
  915SOL     OW 3689   3.646   0.175   1.514
  915SOL    HW2 3690   3.716   0.113   1.536
  915SOL    HW3 3691   3.627   0.157   1.421
  915SOL    MW4 3692   3.653   0.164   1.504
  916SOL     OW 3693   3.628   0.429   1.633
  916SOL    HW2 3694   3.627   0.349   1.580
  916SOL    HW3 3695   3.556   0.481   1.599
  916SOL    MW4 3696   3.619   0.425   1.621
  917SOL     OW 3697   3.850   0.549   1.513
  917SOL    HW2 3698   3.791   0.489   1.560
  917SOL    HW3 3699   3.837   0.528   1.421
  917SOL    MW4 3700   3.840   0.538   1.507
  918SOL     OW 3701   3.813   0.805   1.603
  918SOL    HW2 3702   3.725   0.830   1.577
  918SOL    HW3 3703   3.817   0.710   1.586
  918SOL    MW4 3704   3.802   0.795   1.597
  919SOL     OW 3705   3.598   0.942   1.494
  919SOL    HW2 3706   3.530   0.881   1.524
  919SOL    HW3 3707   3.594   0.938   1.399
  919SOL    MW4 3708   3.588   0.933   1.486
  920SOL     OW 3709   3.599   1.194   1.600
  920SOL    HW2 3710   3.671   1.229   1.547
  920SOL    HW3 3711   3.584   1.106   1.565
  920SOL    MW4 3712   3.606   1.187   1.588
  921SOL     OW 3713   3.810   1.280   1.459
  921SOL    HW2 3714   3.880   1.228   1.498
  921SOL    HW3 3715   3.816   1.365   1.504
  921SOL    MW4 3716   3.820   1.285   1.470
  922SOL     OW 3717   3.814   1.525   1.600
  922SOL    HW2 3718   3.812   1.525   1.695
  922SOL    HW3 3719   3.744   1.585   1.575
  922SOL    MW4 3720   3.805   1.533   1.609
  923SOL     OW 3721   3.595   1.673   1.523
  923SOL    HW2 3722   3.511   1.630   1.539
  923SOL    HW3 3723   3.593   1.696   1.430
  923SOL    MW4 3724   3.583   1.671   1.513
  924SOL     OW 3725   3.590   1.932   1.604
  924SOL    HW2 3726   3.585   1.836   1.601
  924SOL    HW3 3727   3.503   1.961   1.577
  924SOL    MW4 3728   3.578   1.923   1.600
  925SOL     OW 3729   3.812   2.080   1.471
  925SOL    HW2 3730   3.812   2.159   1.526
  925SOL    HW3 3731   3.735   2.031   1.500
  925SOL    MW4 3732   3.802   2.084   1.482
  926SOL     OW 3733   3.761   2.316   1.623
  926SOL    HW2 3734   3.782   2.300   1.714
  926SOL    HW3 3735   3.837   2.365   1.589
  926SOL    MW4 3736   3.774   2.320   1.630
  927SOL     OW 3737   3.560   2.450   1.475
  927SOL    HW2 3738   3.560   2.545   1.488
  927SOL    HW3 3739   3.630   2.419   1.532
  927SOL    MW4 3740   3.569   2.459   1.485
  928SOL     OW 3741   3.592   2.719   1.519
  928SOL    HW2 3742   3.582   2.732   1.613
  928SOL    HW3 3743   3.521   2.772   1.480
  928SOL    MW4 3744   3.581   2.728   1.526
  929SOL     OW 3745   3.821   2.843   1.465
  929SOL    HW2 3746   3.898   2.806   1.507
  929SOL    HW3 3747   3.751   2.780   1.484
  929SOL    MW4 3748   3.822   2.830   1.473
  930SOL     OW 3749   3.809   3.080   1.591
  930SOL    HW2 3750   3.885   3.119   1.547
  930SOL    HW3 3751   3.792   3.000   1.543
  930SOL    MW4 3752   3.817   3.075   1.579
  931SOL     OW 3753   3.579   3.208   1.522
  931SOL    HW2 3754   3.658   3.163   1.550
  931SOL    HW3 3755   3.571   3.187   1.429
  931SOL    MW4 3756   3.588   3.199   1.513
  932SOL     OW 3757   3.608   3.482   1.582
  932SOL    HW2 3758   3.686   3.519   1.541
  932SOL    HW3 3759   3.608   3.390   1.556
  932SOL    MW4 3760   3.618   3.475   1.573
  933SOL     OW 3761   3.816   3.618   1.439
  933SOL    HW2 3762   3.899   3.586   1.474
  933SOL    HW3 3763   3.806   3.705   1.478
  933SOL    MW4 3764   3.825   3.626   1.449
  934SOL     OW 3765   3.830   3.888   1.530
  934SOL    HW2 3766   3.909   3.929   1.497
  934SOL    HW3 3767   3.760   3.950   1.507
  934SOL    MW4 3768   3.831   3.902   1.523
  935SOL     OW 3769   3.615   4.043   1.468
  935SOL    HW2 3770   3.615   4.135   1.495
  935SOL    HW3 3771   3.537   4.005   1.508
  935SOL    MW4 3772   3.605   4.050   1.477
  936SOL     OW 3773   3.579   4.321   1.575
  936SOL    HW2 3774   3.579   4.301   1.669
  936SOL    HW3 3775   3.496   4.366   1.560
  936SOL    MW4 3776   3.568   4.324   1.585
  937SOL     OW 3777   3.827   4.407   1.487
  937SOL    HW2 3778   3.745   4.384   1.530
  937SOL    HW3 3779   3.839   4.500   1.506
  937SOL    MW4 3780   3.818   4.416   1.495
  938SOL     OW 3781   4.323   4.640   1.637
  938SOL    HW2 3782   4.326   4.632   1.732
  938SOL    HW3 3783   4.339   4.551   1.605
  938SOL    MW4 3784   4.325   4.627   1.645
  939SOL     OW 3785   4.100   0.105   1.498
  939SOL    HW2 3786   4.104   0.197   1.527
  939SOL    HW3 3787   4.161   0.060   1.556
  939SOL    MW4 3788   4.109   0.111   1.509
  940SOL     OW 3789   4.035   0.360   1.611
  940SOL    HW2 3790   4.046   0.375   1.705
  940SOL    HW3 3791   3.967   0.422   1.584
  940SOL    MW4 3792   4.027   0.370   1.620
  941SOL     OW 3793   4.254   0.489   1.494
  941SOL    HW2 3794   4.171   0.464   1.533
  941SOL    HW3 3795   4.321   0.453   1.553
  941SOL    MW4 3796   4.252   0.481   1.507
  942SOL     OW 3797   4.266   0.753   1.573
  942SOL    HW2 3798   4.255   0.670   1.526
  942SOL    HW3 3799   4.342   0.794   1.534
  942SOL    MW4 3800   4.274   0.747   1.562
  943SOL     OW 3801   4.041   0.901   1.469
  943SOL    HW2 3802   4.118   0.854   1.501
  943SOL    HW3 3803   3.968   0.867   1.521
  943SOL    MW4 3804   4.042   0.890   1.480
  944SOL     OW 3805   4.035   1.170   1.595
  944SOL    HW2 3806   4.047   1.182   1.689
  944SOL    HW3 3807   4.051   1.076   1.580
  944SOL    MW4 3808   4.039   1.159   1.605
  945SOL     OW 3809   4.254   1.332   1.506
  945SOL    HW2 3810   4.167   1.294   1.521
  945SOL    HW3 3811   4.314   1.270   1.548
  945SOL    MW4 3812   4.250   1.318   1.514
  946SOL     OW 3813   4.272   1.596   1.594
  946SOL    HW2 3814   4.261   1.506   1.561
  946SOL    HW3 3815   4.355   1.625   1.555
  946SOL    MW4 3816   4.282   1.588   1.584
  947SOL     OW 3817   4.037   1.655   1.480
  947SOL    HW2 3818   4.122   1.621   1.510
  947SOL    HW3 3819   3.972   1.602   1.527
  947SOL    MW4 3820   4.040   1.643   1.490
  948SOL     OW 3821   4.041   1.922   1.566
  948SOL    HW2 3822   4.026   1.829   1.549
  948SOL    HW3 3823   3.960   1.964   1.538
  948SOL    MW4 3824   4.028   1.915   1.560
  949SOL     OW 3825   4.282   2.057   1.522
  949SOL    HW2 3826   4.195   2.023   1.544
  949SOL    HW3 3827   4.277   2.076   1.429
  949SOL    MW4 3828   4.270   2.055   1.513
  950SOL     OW 3829   4.231   2.325   1.594
  950SOL    HW2 3830   4.233   2.320   1.689
  950SOL    HW3 3831   4.238   2.234   1.565
  950SOL    MW4 3832   4.232   2.313   1.603
  951SOL     OW 3833   3.996   2.457   1.523
  951SOL    HW2 3834   4.016   2.549   1.542
  951SOL    HW3 3835   4.077   2.411   1.544
  951SOL    MW4 3836   4.010   2.463   1.528
  952SOL     OW 3837   4.048   2.731   1.580
  952SOL    HW2 3838   4.036   2.745   1.673
  952SOL    HW3 3839   4.124   2.783   1.557
  952SOL    MW4 3840   4.056   2.740   1.589
  953SOL     OW 3841   4.286   2.875   1.514
  953SOL    HW2 3842   4.295   2.966   1.544
  953SOL    HW3 3843   4.280   2.882   1.419
  953SOL    MW4 3844   4.286   2.888   1.506
  954SOL     OW 3845   4.282   3.142   1.628
  954SOL    HW2 3846   4.310   3.118   1.717
  954SOL    HW3 3847   4.351   3.200   1.596
  954SOL    MW4 3848   4.295   3.146   1.636
  955SOL     OW 3849   4.037   3.231   1.520
  955SOL    HW2 3850   4.032   3.316   1.562
  955SOL    HW3 3851   4.115   3.190   1.556
  955SOL    MW4 3852   4.046   3.237   1.530
  956SOL     OW 3853   4.022   3.511   1.577
  956SOL    HW2 3854   4.038   3.513   1.671
  956SOL    HW3 3855   4.095   3.560   1.539
  956SOL    MW4 3856   4.034   3.517   1.585
  957SOL     OW 3857   4.248   3.649   1.474
  957SOL    HW2 3858   4.269   3.738   1.502
  957SOL    HW3 3859   4.259   3.650   1.379
  957SOL    MW4 3860   4.252   3.661   1.466
  958SOL     OW 3861   4.294   3.912   1.566
  958SOL    HW2 3862   4.219   3.962   1.534
  958SOL    HW3 3863   4.368   3.945   1.517
  958SOL    MW4 3864   4.294   3.923   1.555
  959SOL     OW 3865   4.067   4.037   1.467
  959SOL    HW2 3866   4.055   4.123   1.506
  959SOL    HW3 3867   4.052   4.050   1.373
  959SOL    MW4 3868   4.063   4.050   1.460
  960SOL     OW 3869   4.055   4.294   1.592
  960SOL    HW2 3870   4.039   4.272   1.684
  960SOL    HW3 3871   3.977   4.342   1.565
  960SOL    MW4 3872   4.042   4.297   1.601
  961SOL     OW 3873   4.306   4.365   1.500
  961SOL    HW2 3874   4.217   4.350   1.532
  961SOL    HW3 3875   4.295   4.389   1.409
  961SOL    MW4 3876   4.293   4.366   1.492
  962SOL     OW 3877   0.236   4.632   1.861
  962SOL    HW2 3878   0.317   4.664   1.901
  962SOL    HW3 3879   0.248   4.647   1.767
  962SOL    MW4 3880   0.248   4.638   1.854
  963SOL     OW 3881   0.035   0.126   1.984
  963SOL    HW2 3882   0.024   0.209   1.938
  963SOL    HW3 3883   0.115   0.089   1.947
  963SOL    MW4 3884   0.044   0.132   1.973
  964SOL     OW 3885   4.490   0.363   1.871
  964SOL    HW2 3886   4.414   0.409   1.908
  964SOL    HW3 3887   4.566   0.411   1.906
  964SOL    MW4 3888   4.490   0.376   1.881
  965SOL     OW 3889   0.224   0.488   1.987
  965SOL    HW2 3890   0.297   0.440   1.947
  965SOL    HW3 3891   0.223   0.572   1.943
  965SOL    MW4 3892   0.233   0.493   1.976
  966SOL     OW 3893   0.206   0.768   1.877
  966SOL    HW2 3894   0.279   0.816   1.917
  966SOL    HW3 3895   0.219   0.779   1.783
  966SOL    MW4 3896   0.218   0.776   1.870
  967SOL     OW 3897   4.472   0.909   2.000
  967SOL    HW2 3898   4.409   0.872   1.938
  967SOL    HW3 3899   4.555   0.865   1.980
  967SOL    MW4 3900   4.475   0.898   1.989
  968SOL     OW 3901   4.456   1.166   1.891
  968SOL    HW2 3902   4.378   1.207   1.928
  968SOL    HW3 3903   4.458   1.079   1.931
  968SOL    MW4 3904   4.446   1.160   1.901
  969SOL     OW 3905   0.187   1.286   2.008
  969SOL    HW2 3906   0.199   1.374   1.972
  969SOL    HW3 3907   0.102   1.258   1.975
  969SOL    MW4 3908   0.177   1.294   1.999
  970SOL     OW 3909   0.257   1.531   1.858
  970SOL    HW2 3910   0.334   1.570   1.899
  970SOL    HW3 3911   0.183   1.577   1.896
  970SOL    MW4 3912   0.257   1.542   1.868
  971SOL     OW 3913   0.026   1.638   1.970
  971SOL    HW2 3914   0.016   1.647   2.065
  971SOL    HW3 3915  -0.063   1.628   1.937
  971SOL    MW4 3916   0.013   1.638   1.978
  972SOL     OW 3917   0.009   1.935   1.879
  972SOL    HW2 3918  -0.069   1.979   1.913
  972SOL    HW3 3919  -0.002   1.844   1.906
  972SOL    MW4 3920  -0.003   1.929   1.887
  973SOL     OW 3921   0.261   2.065   1.929
  973SOL    HW2 3922   0.269   2.154   1.894
  973SOL    HW3 3923   0.172   2.038   1.904
  973SOL    MW4 3924   0.250   2.073   1.921
  974SOL     OW 3925   0.257   2.327   1.842
  974SOL    HW2 3926   0.318   2.389   1.882
  974SOL    HW3 3927   0.172   2.349   1.881
  974SOL    MW4 3928   0.254   2.338   1.853
  975SOL     OW 3929   0.010   2.449   1.936
  975SOL    HW2 3930   0.008   2.465   2.030
  975SOL    HW3 3931   0.010   2.537   1.897
  975SOL    MW4 3932   0.010   2.463   1.943
  976SOL     OW 3933   0.016   2.722   1.862
  976SOL    HW2 3934  -0.065   2.754   1.902
  976SOL    HW3 3935  -0.008   2.707   1.770
  976SOL    MW4 3936   0.002   2.724   1.855
  977SOL     OW 3937   0.255   2.843   1.940
  977SOL    HW2 3938   0.246   2.935   1.918
  977SOL    HW3 3939   0.173   2.803   1.912
  977SOL    MW4 3940   0.243   2.850   1.934
  978SOL     OW 3941   0.220   3.093   1.842
  978SOL    HW2 3942   0.303   3.126   1.877
  978SOL    HW3 3943   0.221   3.119   1.750
  978SOL    MW4 3944   0.231   3.101   1.834
  979SOL     OW 3945   0.026   3.252   1.969
  979SOL    HW2 3946  -0.045   3.191   1.949
  979SOL    HW3 3947   0.103   3.213   1.928
  979SOL    MW4 3948   0.027   3.239   1.961
  980SOL     OW 3949   0.021   3.487   1.830
  980SOL    HW2 3950   0.092   3.544   1.863
  980SOL    HW3 3951   0.030   3.407   1.881
  980SOL    MW4 3952   0.032   3.484   1.841
  981SOL     OW 3953   0.222   3.651   1.948
  981SOL    HW2 3954   0.232   3.644   2.043
  981SOL    HW3 3955   0.304   3.617   1.913
  981SOL    MW4 3956   0.234   3.646   1.956
  982SOL     OW 3957   0.222   3.917   1.866
  982SOL    HW2 3958   0.305   3.951   1.900
  982SOL    HW3 3959   0.224   3.823   1.886
  982SOL    MW4 3960   0.233   3.909   1.873
  983SOL     OW 3961   4.470   4.013   1.955
  983SOL    HW2 3962   4.457   4.103   1.927
  983SOL    HW3 3963   4.545   3.982   1.903
  983SOL    MW4 3964   4.478   4.021   1.944
  984SOL     OW 3965   0.014   4.274   1.856
  984SOL    HW2 3966  -0.055   4.333   1.887
  984SOL    HW3 3967   0.089   4.292   1.913
  984SOL    MW4 3968   0.015   4.284   1.867
  985SOL     OW 3969   0.230   4.387   1.990
  985SOL    HW2 3970   0.228   4.402   2.084
  985SOL    HW3 3971   0.228   4.474   1.951
  985SOL    MW4 3972   0.230   4.400   1.997
  986SOL     OW 3973   0.732   0.027   1.870
  986SOL    HW2 3974   0.725  -0.056   1.916
  986SOL    HW3 3975   0.706   0.007   1.780
  986SOL    MW4 3976   0.728   0.014   1.864
  987SOL     OW 3977   0.469   0.095   1.943
  987SOL    HW2 3978   0.479   0.189   1.931
  987SOL    HW3 3979   0.552   0.058   1.913
  987SOL    MW4 3980   0.481   0.102   1.937
  988SOL     OW 3981   0.442   0.375   1.868
  988SOL    HW2 3982   0.489   0.450   1.902
  988SOL    HW3 3983   0.436   0.390   1.773
  988SOL    MW4 3984   0.447   0.387   1.860
  989SOL     OW 3985   0.630   0.549   1.952
  989SOL    HW2 3986   0.634   0.538   2.047
  989SOL    HW3 3987   0.707   0.501   1.920
  989SOL    MW4 3988   0.641   0.541   1.960
  990SOL     OW 3989   0.639   0.808   1.845
  990SOL    HW2 3990   0.723   0.849   1.867
  990SOL    HW3 3991   0.644   0.720   1.883
  990SOL    MW4 3992   0.651   0.802   1.853
  991SOL     OW 3993   0.416   0.902   1.971
  991SOL    HW2 3994   0.422   0.997   1.962
  991SOL    HW3 3995   0.487   0.868   1.917
  991SOL    MW4 3996   0.426   0.910   1.963
  992SOL     OW 3997   0.416   1.164   1.905
  992SOL    HW2 3998   0.338   1.205   1.942
  992SOL    HW3 3999   0.397   1.156   1.812
  992SOL    MW4 4000   0.403   1.168   1.898
  993SOL     OW 4001   0.663   1.268   1.989
  993SOL    HW2 4002   0.666   1.249   2.083
  993SOL    HW3 4003   0.579   1.232   1.961
  993SOL    MW4 4004   0.652   1.261   1.998
  994SOL     OW 4005   0.708   1.520   1.865
  994SOL    HW2 4006   0.708   1.430   1.897
  994SOL    HW3 4007   0.695   1.513   1.771
  994SOL    MW4 4008   0.706   1.507   1.857
  995SOL     OW 4009   0.484   1.645   1.984
  995SOL    HW2 4010   0.491   1.630   2.078
  995SOL    HW3 4011   0.557   1.594   1.947
  995SOL    MW4 4012   0.495   1.636   1.991
  996SOL     OW 4013   0.491   1.922   1.892
  996SOL    HW2 4014   0.501   1.845   1.948
  996SOL    HW3 4015   0.407   1.960   1.917
  996SOL    MW4 4016   0.482   1.917   1.902
  997SOL     OW 4017   0.727   2.077   1.937
  997SOL    HW2 4018   0.718   2.075   2.032
  997SOL    HW3 4019   0.659   2.017   1.905
  997SOL    MW4 4020   0.717   2.069   1.945
  998SOL     OW 4021   0.696   2.360   1.879
  998SOL    HW2 4022   0.715   2.271   1.908
  998SOL    HW3 4023   0.674   2.351   1.786
  998SOL    MW4 4024   0.696   2.347   1.870
  999SOL     OW 4025   0.462   2.455   1.986
  999SOL    HW2 4026   0.452   2.439   2.080
  999SOL    HW3 4027   0.551   2.425   1.966
  999SOL    MW4 4028   0.473   2.449   1.996
 1000SOL     OW 4029   0.481   2.698   1.879
 1000SOL    HW2 4030   0.473   2.615   1.926
 1000SOL    HW3 4031   0.398   2.743   1.895
 1000SOL    MW4 4032   0.469   2.693   1.887
 1001SOL     OW 4033   0.724   2.862   1.936
 1001SOL    HW2 4034   0.728   2.847   2.031
 1001SOL    HW3 4035   0.651   2.808   1.907
 1001SOL    MW4 4036   0.715   2.853   1.945
 1002SOL     OW 4037   0.671   3.123   1.876
 1002SOL    HW2 4038   0.680   3.032   1.902
 1002SOL    HW3 4039   0.653   3.120   1.782
 1002SOL    MW4 4040   0.670   3.111   1.867
 1003SOL     OW 4041   0.427   3.232   1.953
 1003SOL    HW2 4042   0.430   3.327   1.941
 1003SOL    HW3 4043   0.513   3.201   1.924
 1003SOL    MW4 4044   0.439   3.240   1.948
 1004SOL     OW 4045   0.446   3.498   1.879
 1004SOL    HW2 4046   0.525   3.538   1.913
 1004SOL    HW3 4047   0.463   3.487   1.785
 1004SOL    MW4 4048   0.459   3.502   1.871
 1005SOL     OW 4049   0.668   3.630   1.962
 1005SOL    HW2 4050   0.746   3.587   1.927
 1005SOL    HW3 4051   0.666   3.716   1.920
 1005SOL    MW4 4052   0.678   3.636   1.952
 1006SOL     OW 4053   0.664   3.885   1.846
 1006SOL    HW2 4054   0.735   3.938   1.882
 1006SOL    HW3 4055   0.682   3.882   1.752
 1006SOL    MW4 4056   0.676   3.891   1.838
 1007SOL     OW 4057   0.456   4.007   1.970
 1007SOL    HW2 4058   0.457   4.088   1.920
 1007SOL    HW3 4059   0.528   3.955   1.933
 1007SOL    MW4 4060   0.466   4.011   1.959
 1008SOL     OW 4061   0.464   4.270   1.884
 1008SOL    HW2 4062   0.394   4.317   1.930
 1008SOL    HW3 4063   0.452   4.293   1.792
 1008SOL    MW4 4064   0.454   4.279   1.878
 1009SOL     OW 4065   0.678   4.416   1.933
 1009SOL    HW2 4066   0.746   4.350   1.948
 1009SOL    HW3 4067   0.598   4.365   1.921
 1009SOL    MW4 4068   0.677   4.400   1.934
 1010SOL     OW 4069   1.122   4.623   1.889
 1010SOL    HW2 4070   1.205   4.662   1.915
 1010SOL    HW3 4071   1.125   4.533   1.923
 1010SOL    MW4 4072   1.133   4.616   1.897
 1011SOL     OW 4073   0.954   0.143   1.983
 1011SOL    HW2 4074   1.022   0.082   1.954
 1011SOL    HW3 4075   0.872   0.100   1.958
 1011SOL    MW4 4076   0.952   0.129   1.976
 1012SOL     OW 4077   0.851   0.412   1.859
 1012SOL    HW2 4078   0.924   0.470   1.881
 1012SOL    HW3 4079   0.862   0.337   1.918
 1012SOL    MW4 4080   0.862   0.410   1.870
 1013SOL     OW 4081   1.129   0.514   1.969
 1013SOL    HW2 4082   1.196   0.475   1.912
 1013SOL    HW3 4083   1.118   0.603   1.935
 1013SOL    MW4 4084   1.137   0.520   1.957
 1014SOL     OW 4085   1.109   0.761   1.849
 1014SOL    HW2 4086   1.184   0.804   1.889
 1014SOL    HW3 4087   1.034   0.812   1.878
 1014SOL    MW4 4088   1.109   0.773   1.858
 1015SOL     OW 4089   0.878   0.924   1.923
 1015SOL    HW2 4090   0.884   0.911   2.017
 1015SOL    HW3 4091   0.898   1.017   1.910
 1015SOL    MW4 4092   0.881   0.935   1.933
 1016SOL     OW 4093   0.912   1.197   1.866
 1016SOL    HW2 4094   0.828   1.214   1.909
 1016SOL    HW3 4095   0.889   1.187   1.773
 1016SOL    MW4 4096   0.898   1.198   1.859
 1017SOL     OW 4097   1.144   1.301   1.967
 1017SOL    HW2 4098   1.133   1.390   1.934
 1017SOL    HW3 4099   1.069   1.253   1.931
 1017SOL    MW4 4100   1.132   1.306   1.958
 1018SOL     OW 4101   1.123   1.569   1.876
 1018SOL    HW2 4102   1.047   1.618   1.909
 1018SOL    HW3 4103   1.131   1.597   1.785
 1018SOL    MW4 4104   1.114   1.579   1.868
 1019SOL     OW 4105   0.896   1.714   1.980
 1019SOL    HW2 4106   0.911   1.793   1.928
 1019SOL    HW3 4107   0.831   1.664   1.930
 1019SOL    MW4 4108   0.889   1.718   1.967
 1020SOL     OW 4109   0.938   1.935   1.844
 1020SOL    HW2 4110   0.860   1.976   1.882
 1020SOL    HW3 4111   0.934   1.957   1.751
 1020SOL    MW4 4112   0.927   1.943   1.837
 1021SOL     OW 4113   1.161   2.035   1.974
 1021SOL    HW2 4114   1.150   2.130   1.973
 1021SOL    HW3 4115   1.085   2.002   1.926
 1021SOL    MW4 4116   1.149   2.043   1.968
 1022SOL     OW 4117   1.120   2.306   1.916
 1022SOL    HW2 4118   1.207   2.344   1.913
 1022SOL    HW3 4119   1.098   2.289   1.824
 1022SOL    MW4 4120   1.128   2.309   1.903
 1023SOL     OW 4121   0.926   2.485   2.000
 1023SOL    HW2 4122   0.996   2.424   1.977
 1023SOL    HW3 4123   0.849   2.452   1.955
 1023SOL    MW4 4124   0.925   2.472   1.991
 1024SOL     OW 4125   0.965   2.732   1.866
 1024SOL    HW2 4126   0.948   2.652   1.916
 1024SOL    HW3 4127   0.889   2.788   1.882
 1024SOL    MW4 4128   0.953   2.729   1.874
 1025SOL     OW 4129   1.153   2.879   1.984
 1025SOL    HW2 4130   1.157   2.863   2.078
 1025SOL    HW3 4131   1.087   2.818   1.952
 1025SOL    MW4 4132   1.145   2.869   1.992
 1026SOL     OW 4133   1.116   3.091   1.827
 1026SOL    HW2 4134   1.042   3.144   1.858
 1026SOL    HW3 4135   1.115   3.014   1.884
 1026SOL    MW4 4136   1.106   3.088   1.839
 1027SOL     OW 4137   0.909   3.246   1.939
 1027SOL    HW2 4138   0.923   3.249   2.033
 1027SOL    HW3 4139   0.824   3.204   1.928
 1027SOL    MW4 4140   0.899   3.241   1.950
 1028SOL     OW 4141   0.898   3.505   1.834
 1028SOL    HW2 4142   0.906   3.419   1.875
 1028SOL    HW3 4143   0.911   3.488   1.740
 1028SOL    MW4 4144   0.901   3.492   1.827
 1029SOL     OW 4145   1.126   3.626   1.924
 1029SOL    HW2 4146   1.140   3.604   2.016
 1029SOL    HW3 4147   1.047   3.579   1.899
 1029SOL    MW4 4148   1.118   3.617   1.933
 1030SOL     OW 4149   1.073   3.883   1.857
 1030SOL    HW2 4150   1.095   3.795   1.888
 1030SOL    HW3 4151   1.083   3.878   1.762
 1030SOL    MW4 4152   1.077   3.871   1.848
 1031SOL     OW 4153   0.851   4.014   1.983
 1031SOL    HW2 4154   0.841   4.017   2.078
 1031SOL    HW3 4155   0.918   3.946   1.968
 1031SOL    MW4 4156   0.859   4.005   1.994
 1032SOL     OW 4157   0.909   4.261   1.894
 1032SOL    HW2 4158   0.986   4.301   1.934
 1032SOL    HW3 4159   0.906   4.173   1.932
 1032SOL    MW4 4160   0.919   4.254   1.905
 1033SOL     OW 4161   1.150   4.373   1.983
 1033SOL    HW2 4162   1.157   4.394   2.076
 1033SOL    HW3 4163   1.236   4.337   1.960
 1033SOL    MW4 4164   1.162   4.371   1.992
 1034SOL     OW 4165   1.571   4.612   1.912
 1034SOL    HW2 4166   1.656   4.653   1.927
 1034SOL    HW3 4167   1.584   4.520   1.935
 1034SOL    MW4 4168   1.584   4.605   1.917
 1035SOL     OW 4169   1.360   0.116   1.961
 1035SOL    HW2 4170   1.333   0.107   2.052
 1035SOL    HW3 4171   1.439   0.062   1.954
 1035SOL    MW4 4172   1.367   0.108   1.972
 1036SOL     OW 4173   1.345   0.377   1.852
 1036SOL    HW2 4174   1.346   0.290   1.891
 1036SOL    HW3 4175   1.346   0.361   1.758
 1036SOL    MW4 4176   1.345   0.364   1.845
 1037SOL     OW 4177   1.555   0.503   1.966
 1037SOL    HW2 4178   1.626   0.461   1.918
 1037SOL    HW3 4179   1.475   0.464   1.931
 1037SOL    MW4 4180   1.554   0.492   1.955
 1038SOL     OW 4181   1.529   0.775   1.882
 1038SOL    HW2 4182   1.614   0.819   1.884
 1038SOL    HW3 4183   1.544   0.691   1.925
 1038SOL    MW4 4184   1.542   0.770   1.888
 1039SOL     OW 4185   1.310   0.920   1.955
 1039SOL    HW2 4186   1.293   0.922   2.049
 1039SOL    HW3 4187   1.392   0.871   1.946
 1039SOL    MW4 4188   1.318   0.914   1.966
 1040SOL     OW 4189   1.335   1.167   1.809
 1040SOL    HW2 4190   1.331   1.075   1.836
 1040SOL    HW3 4191   1.255   1.206   1.846
 1040SOL    MW4 4192   1.324   1.160   1.817
 1041SOL     OW 4193   1.543   1.271   1.954
 1041SOL    HW2 4194   1.550   1.364   1.932
 1041SOL    HW3 4195   1.479   1.237   1.891
 1041SOL    MW4 4196   1.535   1.279   1.943
 1042SOL     OW 4197   1.536   1.528   1.870
 1042SOL    HW2 4198   1.615   1.576   1.896
 1042SOL    HW3 4199   1.464   1.575   1.912
 1042SOL    MW4 4200   1.537   1.540   1.879
 1043SOL     OW 4201   1.347   1.675   2.001
 1043SOL    HW2 4202   1.354   1.674   2.097
 1043SOL    HW3 4203   1.264   1.630   1.983
 1043SOL    MW4 4204   1.337   1.669   2.011
 1044SOL     OW 4205   1.399   1.944   1.871
 1044SOL    HW2 4206   1.415   1.864   1.922
 1044SOL    HW3 4207   1.313   1.973   1.900
 1044SOL    MW4 4208   1.390   1.937   1.882
 1045SOL     OW 4209   1.574   2.066   2.015
 1045SOL    HW2 4210   1.567   2.154   1.978
 1045SOL    HW3 4211   1.512   2.013   1.965
 1045SOL    MW4 4212   1.565   2.070   2.003
 1046SOL     OW 4213   1.567   2.307   1.883
 1046SOL    HW2 4214   1.640   2.364   1.906
 1046SOL    HW3 4215   1.557   2.316   1.789
 1046SOL    MW4 4216   1.575   2.316   1.874
 1047SOL     OW 4217   1.339   2.437   2.003
 1047SOL    HW2 4218   1.343   2.531   1.989
 1047SOL    HW3 4219   1.421   2.404   1.965
 1047SOL    MW4 4220   1.351   2.445   1.996
 1048SOL     OW 4221   1.352   2.696   1.917
 1048SOL    HW2 4222   1.279   2.757   1.931
 1048SOL    HW3 4223   1.353   2.681   1.823
 1048SOL    MW4 4224   1.342   2.702   1.906
 1049SOL     OW 4225   1.590   2.823   1.958
 1049SOL    HW2 4226   1.645   2.767   1.904
 1049SOL    HW3 4227   1.508   2.775   1.966
 1049SOL    MW4 4228   1.586   2.809   1.952
 1050SOL     OW 4229   1.551   3.072   1.849
 1050SOL    HW2 4230   1.564   2.983   1.882
 1050SOL    HW3 4231   1.556   3.063   1.753
 1050SOL    MW4 4232   1.553   3.059   1.840
 1051SOL     OW 4233   1.344   3.230   1.942
 1051SOL    HW2 4234   1.417   3.174   1.914
 1051SOL    HW3 4235   1.268   3.195   1.895
 1051SOL    MW4 4236   1.344   3.218   1.932
 1052SOL     OW 4237   1.375   3.479   1.859
 1052SOL    HW2 4238   1.369   3.387   1.885
 1052SOL    HW3 4239   1.291   3.517   1.887
 1052SOL    MW4 4240   1.363   3.472   1.866
 1053SOL     OW 4241   1.595   3.600   1.996
 1053SOL    HW2 4242   1.580   3.598   2.090
 1053SOL    HW3 4243   1.525   3.547   1.959
 1053SOL    MW4 4244   1.584   3.593   2.004
 1054SOL     OW 4245   1.551   3.874   1.947
 1054SOL    HW2 4246   1.633   3.917   1.971
 1054SOL    HW3 4247   1.559   3.785   1.980
 1054SOL    MW4 4248   1.563   3.868   1.955
 1055SOL     OW 4249   1.304   3.988   1.973
 1055SOL    HW2 4250   1.376   3.929   1.951
 1055SOL    HW3 4251   1.227   3.948   1.933
 1055SOL    MW4 4252   1.304   3.975   1.965
 1056SOL     OW 4253   1.372   4.243   1.862
 1056SOL    HW2 4254   1.339   4.159   1.894
 1056SOL    HW3 4255   1.362   4.237   1.767
 1056SOL    MW4 4256   1.366   4.231   1.853
 1057SOL     OW 4257   1.631   4.341   1.971
 1057SOL    HW2 4258   1.638   4.337   2.066
 1057SOL    HW3 4259   1.545   4.302   1.952
 1057SOL    MW4 4260   1.620   4.335   1.981
 1058SOL     OW 4261   2.003   4.615   1.871
 1058SOL    HW2 4262   2.064   4.676   1.913
 1058SOL    HW3 4263   2.014   4.533   1.920
 1058SOL    MW4 4264   2.013   4.612   1.883
 1059SOL     OW 4265   1.786   0.113   1.942
 1059SOL    HW2 4266   1.799   0.115   2.037
 1059SOL    HW3 4267   1.856   0.058   1.909
 1059SOL    MW4 4268   1.797   0.106   1.950
 1060SOL     OW 4269   1.787   0.384   1.843
 1060SOL    HW2 4270   1.789   0.289   1.858
 1060SOL    HW3 4271   1.791   0.394   1.748
 1060SOL    MW4 4272   1.788   0.373   1.833
 1061SOL     OW 4273   2.015   0.504   1.951
 1061SOL    HW2 4274   2.017   0.592   1.914
 1061SOL    HW3 4275   1.931   0.468   1.923
 1061SOL    MW4 4276   2.005   0.511   1.942
 1062SOL     OW 4277   2.013   0.774   1.856
 1062SOL    HW2 4278   2.101   0.797   1.888
 1062SOL    HW3 4279   2.025   0.763   1.762
 1062SOL    MW4 4280   2.026   0.776   1.848
 1063SOL     OW 4281   1.775   0.893   1.936
 1063SOL    HW2 4282   1.766   0.983   1.902
 1063SOL    HW3 4283   1.858   0.862   1.900
 1063SOL    MW4 4284   1.784   0.901   1.927
 1064SOL     OW 4285   1.783   1.163   1.859
 1064SOL    HW2 4286   1.704   1.206   1.891
 1064SOL    HW3 4287   1.773   1.160   1.764
 1064SOL    MW4 4288   1.771   1.168   1.851
 1065SOL     OW 4289   2.016   1.266   1.955
 1065SOL    HW2 4290   2.079   1.197   1.935
 1065SOL    HW3 4291   1.931   1.229   1.929
 1065SOL    MW4 4292   2.013   1.252   1.949
 1066SOL     OW 4293   1.979   1.524   1.847
 1066SOL    HW2 4294   1.995   1.434   1.875
 1066SOL    HW3 4295   2.011   1.527   1.757
 1066SOL    MW4 4296   1.985   1.512   1.839
 1067SOL     OW 4297   1.769   1.639   1.995
 1067SOL    HW2 4298   1.797   1.727   1.969
 1067SOL    HW3 4299   1.820   1.580   1.938
 1067SOL    MW4 4300   1.780   1.643   1.984
 1068SOL     OW 4301   1.775   1.906   1.894
 1068SOL    HW2 4302   1.710   1.956   1.943
 1068SOL    HW3 4303   1.768   1.940   1.805
 1068SOL    MW4 4304   1.766   1.917   1.889
 1069SOL     OW 4305   1.997   2.035   1.977
 1069SOL    HW2 4306   2.066   1.987   1.931
 1069SOL    HW3 4307   1.916   1.994   1.948
 1069SOL    MW4 4308   1.995   2.023   1.967
 1070SOL     OW 4309   2.018   2.287   1.857
 1070SOL    HW2 4310   2.082   2.340   1.905
 1070SOL    HW3 4311   2.021   2.201   1.899
 1070SOL    MW4 4312   2.027   2.283   1.869
 1071SOL     OW 4313   1.807   2.457   1.946
 1071SOL    HW2 4314   1.801   2.459   2.042
 1071SOL    HW3 4315   1.871   2.388   1.928
 1071SOL    MW4 4316   1.815   2.448   1.956
 1072SOL     OW 4317   1.812   2.692   1.847
 1072SOL    HW2 4318   1.815   2.601   1.878
 1072SOL    HW3 4319   1.799   2.684   1.752
 1072SOL    MW4 4320   1.811   2.679   1.838
 1073SOL     OW 4321   2.052   2.799   1.945
 1073SOL    HW2 4322   2.053   2.771   2.036
 1073SOL    HW3 4323   1.967   2.769   1.912
 1073SOL    MW4 4324   2.041   2.791   1.953
 1074SOL     OW 4325   2.035   3.073   1.856
 1074SOL    HW2 4326   1.949   3.097   1.892
 1074SOL    HW3 4327   2.052   2.985   1.890
 1074SOL    MW4 4328   2.026   3.065   1.865
 1075SOL     OW 4329   1.798   3.194   1.924
 1075SOL    HW2 4330   1.783   3.196   2.019
 1075SOL    HW3 4331   1.714   3.166   1.887
 1075SOL    MW4 4332   1.785   3.190   1.932
 1076SOL     OW 4333   1.819   3.473   1.906
 1076SOL    HW2 4334   1.799   3.382   1.928
 1076SOL    HW3 4335   1.746   3.523   1.943
 1076SOL    MW4 4336   1.807   3.467   1.914
 1077SOL     OW 4337   2.071   3.555   1.996
 1077SOL    HW2 4338   2.069   3.649   1.974
 1077SOL    HW3 4339   1.984   3.524   1.974
 1077SOL    MW4 4340   2.060   3.564   1.990
 1078SOL     OW 4341   2.020   3.828   1.913
 1078SOL    HW2 4342   2.076   3.899   1.944
 1078SOL    HW3 4343   2.018   3.838   1.818
 1078SOL    MW4 4344   2.027   3.839   1.904
 1079SOL     OW 4345   1.800   3.965   1.999
 1079SOL    HW2 4346   1.823   4.051   1.963
 1079SOL    HW3 4347   1.871   3.908   1.971
 1079SOL    MW4 4348   1.812   3.969   1.990
 1080SOL     OW 4349   1.837   4.205   1.867
 1080SOL    HW2 4350   1.770   4.264   1.903
 1080SOL    HW3 4351   1.811   4.192   1.776
 1080SOL    MW4 4352   1.825   4.211   1.860
 1081SOL     OW 4353   2.047   4.357   1.989
 1081SOL    HW2 4354   2.133   4.316   1.982
 1081SOL    HW3 4355   1.987   4.297   1.946
 1081SOL    MW4 4356   2.050   4.344   1.983
 1082SOL     OW 4357   2.453   4.632   1.910
 1082SOL    HW2 4358   2.522   4.680   1.956
 1082SOL    HW3 4359   2.472   4.540   1.928
 1082SOL    MW4 4360   2.464   4.626   1.918
 1083SOL     OW 4361   2.204   0.087   1.971
 1083SOL    HW2 4362   2.203   0.098   2.067
 1083SOL    HW3 4363   2.286   0.041   1.953
 1083SOL    MW4 4364   2.215   0.082   1.982
 1084SOL     OW 4365   2.239   0.343   1.899
 1084SOL    HW2 4366   2.218   0.255   1.933
 1084SOL    HW3 4367   2.160   0.394   1.918
 1084SOL    MW4 4368   2.226   0.338   1.906
 1085SOL     OW 4369   2.454   0.491   1.982
 1085SOL    HW2 4370   2.535   0.449   1.952
 1085SOL    HW3 4371   2.384   0.445   1.936
 1085SOL    MW4 4372   2.456   0.479   1.972
 1086SOL     OW 4373   2.505   0.753   1.902
 1086SOL    HW2 4374   2.479   0.665   1.930
 1086SOL    HW3 4375   2.488   0.754   1.808
 1086SOL    MW4 4376   2.499   0.741   1.893
 1087SOL     OW 4377   2.252   0.845   1.973
 1087SOL    HW2 4378   2.247   0.836   2.068
 1087SOL    HW3 4379   2.341   0.815   1.951
 1087SOL    MW4 4380   2.263   0.840   1.983
 1088SOL     OW 4381   2.225   1.100   1.851
 1088SOL    HW2 4382   2.284   1.158   1.900
 1088SOL    HW3 4383   2.248   1.012   1.880
 1088SOL    MW4 4384   2.236   1.096   1.861
 1089SOL     OW 4385   2.423   1.251   1.978
 1089SOL    HW2 4386   2.402   1.251   2.072
 1089SOL    HW3 4387   2.449   1.341   1.959
 1089SOL    MW4 4388   2.424   1.263   1.988
 1090SOL     OW 4389   2.450   1.506   1.858
 1090SOL    HW2 4390   2.369   1.556   1.869
 1090SOL    HW3 4391   2.474   1.520   1.766
 1090SOL    MW4 4392   2.442   1.515   1.847
 1091SOL     OW 4393   2.215   1.668   1.910
 1091SOL    HW2 4394   2.235   1.658   2.003
 1091SOL    HW3 4395   2.141   1.609   1.895
 1091SOL    MW4 4396   2.208   1.659   1.920
 1092SOL     OW 4397   2.224   1.933   1.839
 1092SOL    HW2 4398   2.302   1.980   1.868
 1092SOL    HW3 4399   2.242   1.842   1.860
 1092SOL    MW4 4400   2.236   1.927   1.846
 1093SOL     OW 4401   2.478   2.008   1.945
 1093SOL    HW2 4402   2.568   1.981   1.928
 1093SOL    HW3 4403   2.473   2.097   1.910
 1093SOL    MW4 4404   2.489   2.016   1.938
 1094SOL     OW 4405   2.478   2.277   1.899
 1094SOL    HW2 4406   2.557   2.317   1.936
 1094SOL    HW3 4407   2.407   2.334   1.928
 1094SOL    MW4 4408   2.479   2.290   1.907
 1095SOL     OW 4409   2.234   2.425   1.975
 1095SOL    HW2 4410   2.243   2.448   2.068
 1095SOL    HW3 4411   2.262   2.503   1.928
 1095SOL    MW4 4412   2.239   2.438   1.981
 1096SOL     OW 4413   2.271   2.665   1.864
 1096SOL    HW2 4414   2.191   2.711   1.891
 1096SOL    HW3 4415   2.274   2.675   1.769
 1096SOL    MW4 4416   2.261   2.673   1.855
 1097SOL     OW 4417   2.501   2.812   1.972
 1097SOL    HW2 4418   2.498   2.903   1.942
 1097SOL    HW3 4419   2.433   2.768   1.922
 1097SOL    MW4 4420   2.492   2.818   1.961
 1098SOL     OW 4421   2.507   3.065   1.888
 1098SOL    HW2 4422   2.426   3.100   1.926
 1098SOL    HW3 4423   2.493   3.068   1.793
 1098SOL    MW4 4424   2.494   3.070   1.881
 1099SOL     OW 4425   2.261   3.200   1.971
 1099SOL    HW2 4426   2.245   3.213   2.064
 1099SOL    HW3 4427   2.178   3.168   1.936
 1099SOL    MW4 4428   2.248   3.198   1.979
 1100SOL     OW 4429   2.295   3.454   1.859
 1100SOL    HW2 4430   2.289   3.361   1.881
 1100SOL    HW3 4431   2.227   3.495   1.912
 1100SOL    MW4 4432   2.286   3.447   1.869
 1101SOL     OW 4433   2.489   3.614   1.964
 1101SOL    HW2 4434   2.481   3.609   2.060
 1101SOL    HW3 4435   2.433   3.544   1.932
 1101SOL    MW4 4436   2.481   3.604   1.973
 1102SOL     OW 4437   2.473   3.889   1.912
 1102SOL    HW2 4438   2.385   3.914   1.943
 1102SOL    HW3 4439   2.479   3.796   1.932
 1102SOL    MW4 4440   2.462   3.880   1.918
 1103SOL     OW 4441   2.208   4.005   1.983
 1103SOL    HW2 4442   2.224   4.017   2.077
 1103SOL    HW3 4443   2.224   4.091   1.945
 1103SOL    MW4 4444   2.212   4.018   1.991
 1104SOL     OW 4445   2.274   4.234   1.858
 1104SOL    HW2 4446   2.348   4.280   1.897
 1104SOL    HW3 4447   2.267   4.268   1.769
 1104SOL    MW4 4448   2.283   4.244   1.852
 1105SOL     OW 4449   2.495   4.363   1.988
 1105SOL    HW2 4450   2.506   4.366   2.083
 1105SOL    HW3 4451   2.582   4.342   1.954
 1105SOL    MW4 4452   2.508   4.361   1.996
 1106SOL     OW 4453   2.909   4.658   1.892
 1106SOL    HW2 4454   2.983   4.706   1.929
 1106SOL    HW3 4455   2.915   4.571   1.932
 1106SOL    MW4 4456   2.920   4.653   1.903
 1107SOL     OW 4457   2.684   0.117   1.987
 1107SOL    HW2 4458   2.688   0.125   2.082
 1107SOL    HW3 4459   2.770   0.083   1.962
 1107SOL    MW4 4460   2.696   0.113   1.996
 1108SOL     OW 4461   2.653   0.358   1.866
 1108SOL    HW2 4462   2.730   0.400   1.903
 1108SOL    HW3 4463   2.653   0.270   1.904
 1108SOL    MW4 4464   2.663   0.352   1.875
 1109SOL     OW 4465   2.895   0.490   1.966
 1109SOL    HW2 4466   2.974   0.448   1.932
 1109SOL    HW3 4467   2.903   0.582   1.938
 1109SOL    MW4 4468   2.906   0.497   1.958
 1110SOL     OW 4469   2.919   0.770   1.897
 1110SOL    HW2 4470   3.010   0.800   1.906
 1110SOL    HW3 4471   2.867   0.835   1.944
 1110SOL    MW4 4472   2.925   0.783   1.904
 1111SOL     OW 4473   2.712   0.909   2.005
 1111SOL    HW2 4474   2.697   0.998   1.973
 1111SOL    HW3 4475   2.644   0.856   1.963
 1111SOL    MW4 4476   2.701   0.914   1.995
 1112SOL     OW 4477   2.689   1.168   1.889
 1112SOL    HW2 4478   2.604   1.198   1.921
 1112SOL    HW3 4479   2.688   1.190   1.796
 1112SOL    MW4 4480   2.677   1.175   1.881
 1113SOL     OW 4481   2.962   1.233   1.926
 1113SOL    HW2 4482   2.953   1.329   1.928
 1113SOL    HW3 4483   2.873   1.201   1.907
 1113SOL    MW4 4484   2.949   1.242   1.923
 1114SOL     OW 4485   2.916   1.509   1.914
 1114SOL    HW2 4486   2.992   1.567   1.922
 1114SOL    HW3 4487   2.905   1.496   1.820
 1114SOL    MW4 4488   2.925   1.515   1.903
 1115SOL     OW 4489   2.688   1.649   1.968
 1115SOL    HW2 4490   2.759   1.593   1.936
 1115SOL    HW3 4491   2.609   1.613   1.929
 1115SOL    MW4 4492   2.687   1.637   1.959
 1116SOL     OW 4493   2.733   1.916   1.860
 1116SOL    HW2 4494   2.814   1.955   1.894
 1116SOL    HW3 4495   2.734   1.827   1.894
 1116SOL    MW4 4496   2.744   1.909   1.869
 1117SOL     OW 4497   2.969   2.037   1.967
 1117SOL    HW2 4498   2.964   2.043   2.063
 1117SOL    HW3 4499   3.028   1.963   1.951
 1117SOL    MW4 4500   2.976   2.028   1.978
 1118SOL     OW 4501   2.935   2.283   1.837
 1118SOL    HW2 4502   2.993   2.348   1.877
 1118SOL    HW3 4503   2.942   2.207   1.894
 1118SOL    MW4 4504   2.943   2.282   1.850
 1119SOL     OW 4505   2.714   2.399   1.976
 1119SOL    HW2 4506   2.722   2.489   1.947
 1119SOL    HW3 4507   2.784   2.352   1.930
 1119SOL    MW4 4508   2.724   2.404   1.966
 1120SOL     OW 4509   2.713   2.679   1.872
 1120SOL    HW2 4510   2.635   2.724   1.905
 1120SOL    HW3 4511   2.719   2.706   1.780
 1120SOL    MW4 4512   2.703   2.688   1.864
 1121SOL     OW 4513   2.916   2.812   1.999
 1121SOL    HW2 4514   2.904   2.899   1.959
 1121SOL    HW3 4515   2.846   2.759   1.962
 1121SOL    MW4 4516   2.905   2.817   1.989
 1122SOL     OW 4517   2.929   3.081   1.900
 1122SOL    HW2 4518   3.004   3.113   1.951
 1122SOL    HW3 4519   2.855   3.133   1.931
 1122SOL    MW4 4520   2.929   3.092   1.911
 1123SOL     OW 4521   2.720   3.236   1.995
 1123SOL    HW2 4522   2.719   3.314   1.940
 1123SOL    HW3 4523   2.645   3.185   1.966
 1123SOL    MW4 4524   2.710   3.239   1.984
 1124SOL     OW 4525   2.708   3.492   1.871
 1124SOL    HW2 4526   2.781   3.523   1.924
 1124SOL    HW3 4527   2.632   3.539   1.905
 1124SOL    MW4 4528   2.708   3.502   1.883
 1125SOL     OW 4529   2.928   3.600   1.980
 1125SOL    HW2 4530   2.927   3.594   2.076
 1125SOL    HW3 4531   3.006   3.552   1.954
 1125SOL    MW4 4532   2.938   3.593   1.989
 1126SOL     OW 4533   2.938   3.881   1.900
 1126SOL    HW2 4534   2.920   3.792   1.930
 1126SOL    HW3 4535   2.965   3.870   1.808
 1126SOL    MW4 4536   2.939   3.868   1.892
 1127SOL     OW 4537   2.709   4.012   1.973
 1127SOL    HW2 4538   2.779   3.955   1.940
 1127SOL    HW3 4539   2.628   3.969   1.945
 1127SOL    MW4 4540   2.707   3.999   1.965
 1128SOL     OW 4541   2.733   4.278   1.890
 1128SOL    HW2 4542   2.714   4.187   1.909
 1128SOL    HW3 4543   2.711   4.289   1.797
 1128SOL    MW4 4544   2.727   4.268   1.880
 1129SOL     OW 4545   2.952   4.418   2.003
 1129SOL    HW2 4546   2.954   4.419   2.099
 1129SOL    HW3 4547   2.871   4.370   1.982
 1129SOL    MW4 4548   2.941   4.412   2.013
 1130SOL     OW 4549   3.366   0.036   1.887
 1130SOL    HW2 4550   3.379  -0.056   1.909
 1130SOL    HW3 4551   3.370   0.038   1.791
 1130SOL    MW4 4552   3.368   0.024   1.877
 1131SOL     OW 4553   3.113   0.151   1.995
 1131SOL    HW2 4554   3.132   0.163   2.088
 1131SOL    HW3 4555   3.197   0.123   1.957
 1131SOL    MW4 4556   3.127   0.149   2.002
 1132SOL     OW 4557   3.156   0.417   1.904
 1132SOL    HW2 4558   3.136   0.327   1.932
 1132SOL    HW3 4559   3.150   0.414   1.809
 1132SOL    MW4 4560   3.153   0.404   1.895
 1133SOL     OW 4561   3.401   0.539   2.014
 1133SOL    HW2 4562   3.474   0.498   1.968
 1133SOL    HW3 4563   3.323   0.496   1.979
 1133SOL    MW4 4564   3.401   0.528   2.003
 1134SOL     OW 4565   3.410   0.768   1.843
 1134SOL    HW2 4566   3.337   0.809   1.891
 1134SOL    HW3 4567   3.423   0.684   1.888
 1134SOL    MW4 4568   3.402   0.762   1.855
 1135SOL     OW 4569   3.182   0.882   1.944
 1135SOL    HW2 4570   3.154   0.885   2.036
 1135SOL    HW3 4571   3.170   0.971   1.912
 1135SOL    MW4 4572   3.176   0.894   1.952
 1136SOL     OW 4573   3.186   1.125   1.816
 1136SOL    HW2 4574   3.255   1.158   1.873
 1136SOL    HW3 4575   3.108   1.173   1.843
 1136SOL    MW4 4576   3.185   1.135   1.827
 1137SOL     OW 4577   3.396   1.258   1.961
 1137SOL    HW2 4578   3.388   1.249   2.056
 1137SOL    HW3 4579   3.393   1.352   1.945
 1137SOL    MW4 4580   3.395   1.269   1.971
 1138SOL     OW 4581   3.380   1.512   1.863
 1138SOL    HW2 4582   3.461   1.557   1.886
 1138SOL    HW3 4583   3.312   1.558   1.911
 1138SOL    MW4 4584   3.382   1.524   1.872
 1139SOL     OW 4585   3.158   1.642   1.974
 1139SOL    HW2 4586   3.177   1.648   2.068
 1139SOL    HW3 4587   3.172   1.731   1.941
 1139SOL    MW4 4588   3.162   1.655   1.982
 1140SOL     OW 4589   3.199   1.894   1.871
 1140SOL    HW2 4590   3.249   1.972   1.894
 1140SOL    HW3 4591   3.188   1.900   1.776
 1140SOL    MW4 4592   3.204   1.905   1.861
 1141SOL     OW 4593   3.371   2.081   1.965
 1141SOL    HW2 4594   3.458   2.049   1.941
 1141SOL    HW3 4595   3.367   2.170   1.931
 1141SOL    MW4 4596   3.382   2.089   1.958
 1142SOL     OW 4597   3.364   2.325   1.844
 1142SOL    HW2 4598   3.273   2.333   1.871
 1142SOL    HW3 4599   3.362   2.331   1.748
 1142SOL    MW4 4600   3.352   2.327   1.835
 1143SOL     OW 4601   3.127   2.410   1.976
 1143SOL    HW2 4602   3.149   2.406   2.069
 1143SOL    HW3 4603   3.124   2.503   1.955
 1143SOL    MW4 4604   3.130   2.422   1.985
 1144SOL     OW 4605   3.127   2.665   1.851
 1144SOL    HW2 4606   3.051   2.712   1.886
 1144SOL    HW3 4607   3.117   2.669   1.756
 1144SOL    MW4 4608   3.116   2.672   1.843
 1145SOL     OW 4609   3.355   2.815   1.962
 1145SOL    HW2 4610   3.370   2.827   2.056
 1145SOL    HW3 4611   3.275   2.763   1.957
 1145SOL    MW4 4612   3.347   2.809   1.974
 1146SOL     OW 4613   3.380   3.081   1.880
 1146SOL    HW2 4614   3.469   3.113   1.893
 1146SOL    HW3 4615   3.381   2.992   1.915
 1146SOL    MW4 4616   3.392   3.073   1.886
 1147SOL     OW 4617   3.163   3.228   1.986
 1147SOL    HW2 4618   3.160   3.317   1.951
 1147SOL    HW3 4619   3.232   3.185   1.936
 1147SOL    MW4 4620   3.171   3.234   1.975
 1148SOL     OW 4621   3.158   3.494   1.876
 1148SOL    HW2 4622   3.238   3.531   1.914
 1148SOL    HW3 4623   3.160   3.522   1.784
 1148SOL    MW4 4624   3.169   3.502   1.869
 1149SOL     OW 4625   3.375   3.631   1.972
 1149SOL    HW2 4626   3.444   3.591   1.920
 1149SOL    HW3 4627   3.373   3.723   1.944
 1149SOL    MW4 4628   3.383   3.638   1.962
 1150SOL     OW 4629   3.347   3.895   1.886
 1150SOL    HW2 4630   3.281   3.945   1.935
 1150SOL    HW3 4631   3.348   3.935   1.799
 1150SOL    MW4 4632   3.338   3.907   1.881
 1151SOL     OW 4633   3.146   4.035   2.018
 1151SOL    HW2 4634   3.136   4.038   2.114
 1151SOL    HW3 4635   3.080   3.972   1.990
 1151SOL    MW4 4636   3.136   4.027   2.027
 1152SOL     OW 4637   3.149   4.254   1.847
 1152SOL    HW2 4638   3.148   4.178   1.906
 1152SOL    HW3 4639   3.079   4.310   1.880
 1152SOL    MW4 4640   3.140   4.251   1.859
 1153SOL     OW 4641   3.377   4.403   1.965
 1153SOL    HW2 4642   3.450   4.348   1.937
 1153SOL    HW3 4643   3.300   4.364   1.924
 1153SOL    MW4 4644   3.376   4.391   1.956
 1154SOL     OW 4645   3.819   0.014   1.875
 1154SOL    HW2 4646   3.801  -0.080   1.887
 1154SOL    HW3 4647   3.752   0.058   1.928
 1154SOL    MW4 4648   3.807   0.007   1.884
 1155SOL     OW 4649   3.604   0.133   1.981
 1155SOL    HW2 4650   3.585   0.138   2.074
 1155SOL    HW3 4651   3.521   0.107   1.941
 1155SOL    MW4 4652   3.591   0.130   1.988
 1156SOL     OW 4653   3.622   0.420   1.904
 1156SOL    HW2 4654   3.610   0.332   1.941
 1156SOL    HW3 4655   3.623   0.406   1.809
 1156SOL    MW4 4656   3.621   0.406   1.897
 1157SOL     OW 4657   3.870   0.531   1.998
 1157SOL    HW2 4658   3.864   0.626   1.983
 1157SOL    HW3 4659   3.782   0.499   1.979
 1157SOL    MW4 4660   3.857   0.539   1.994
 1158SOL     OW 4661   3.854   0.809   1.870
 1158SOL    HW2 4662   3.773   0.833   1.915
 1158SOL    HW3 4663   3.831   0.813   1.777
 1158SOL    MW4 4664   3.840   0.813   1.863
 1159SOL     OW 4665   3.597   0.890   1.990
 1159SOL    HW2 4666   3.607   0.973   1.943
 1159SOL    HW3 4667   3.537   0.839   1.935
 1159SOL    MW4 4668   3.590   0.894   1.976
 1160SOL     OW 4669   3.612   1.128   1.857
 1160SOL    HW2 4670   3.537   1.181   1.884
 1160SOL    HW3 4671   3.626   1.153   1.765
 1160SOL    MW4 4672   3.604   1.139   1.848
 1161SOL     OW 4673   3.814   1.286   1.992
 1161SOL    HW2 4674   3.797   1.272   2.085
 1161SOL    HW3 4675   3.749   1.232   1.947
 1161SOL    MW4 4676   3.803   1.277   1.999
 1162SOL     OW 4677   3.826   1.542   1.885
 1162SOL    HW2 4678   3.896   1.598   1.920
 1162SOL    HW3 4679   3.827   1.464   1.941
 1162SOL    MW4 4680   3.836   1.539   1.897
 1163SOL     OW 4681   3.598   1.673   1.965
 1163SOL    HW2 4682   3.606   1.768   1.952
 1163SOL    HW3 4683   3.680   1.637   1.930
 1163SOL    MW4 4684   3.610   1.681   1.958
 1164SOL     OW 4685   3.610   1.939   1.882
 1164SOL    HW2 4686   3.687   1.986   1.915
 1164SOL    HW3 4687   3.618   1.943   1.787
 1164SOL    MW4 4688   3.621   1.946   1.874
 1165SOL     OW 4689   3.833   2.057   1.997
 1165SOL    HW2 4690   3.914   2.028   1.956
 1165SOL    HW3 4691   3.832   2.152   1.985
 1165SOL    MW4 4692   3.843   2.066   1.990
 1166SOL     OW 4693   3.814   2.333   1.900
 1166SOL    HW2 4694   3.895   2.383   1.911
 1166SOL    HW3 4695   3.745   2.393   1.928
 1166SOL    MW4 4696   3.815   2.348   1.905
 1167SOL     OW 4697   3.578   2.474   1.957
 1167SOL    HW2 4698   3.575   2.559   1.913
 1167SOL    HW3 4699   3.502   2.426   1.923
 1167SOL    MW4 4700   3.568   2.479   1.947
 1168SOL     OW 4701   3.572   2.732   1.808
 1168SOL    HW2 4702   3.635   2.764   1.873
 1168SOL    HW3 4703   3.487   2.765   1.838
 1168SOL    MW4 4704   3.569   2.741   1.820
 1169SOL     OW 4705   3.805   2.843   1.951
 1169SOL    HW2 4706   3.821   2.840   2.045
 1169SOL    HW3 4707   3.812   2.936   1.928
 1169SOL    MW4 4708   3.808   2.855   1.960
 1170SOL     OW 4709   3.854   3.120   1.874
 1170SOL    HW2 4710   3.775   3.164   1.906
 1170SOL    HW3 4711   3.838   3.107   1.781
 1170SOL    MW4 4712   3.842   3.124   1.866
 1171SOL     OW 4713   3.616   3.232   1.951
 1171SOL    HW2 4714   3.628   3.235   2.046
 1171SOL    HW3 4715   3.623   3.323   1.923
 1171SOL    MW4 4716   3.618   3.244   1.960
 1172SOL     OW 4717   3.601   3.500   1.861
 1172SOL    HW2 4718   3.678   3.553   1.879
 1172SOL    HW3 4719   3.594   3.500   1.765
 1172SOL    MW4 4720   3.610   3.507   1.850
 1173SOL     OW 4721   3.840   3.632   1.936
 1173SOL    HW2 4722   3.913   3.582   1.899
 1173SOL    HW3 4723   3.836   3.712   1.884
 1173SOL    MW4 4724   3.849   3.636   1.924
 1174SOL     OW 4725   3.832   3.875   1.801
 1174SOL    HW2 4726   3.753   3.925   1.825
 1174SOL    HW3 4727   3.840   3.887   1.707
 1174SOL    MW4 4728   3.822   3.883   1.792
 1175SOL     OW 4729   3.610   4.008   1.932
 1175SOL    HW2 4730   3.617   4.017   2.027
 1175SOL    HW3 4731   3.534   3.952   1.919
 1175SOL    MW4 4732   3.601   4.002   1.943
 1176SOL     OW 4733   3.596   4.268   1.849
 1176SOL    HW2 4734   3.670   4.313   1.889
 1176SOL    HW3 4735   3.614   4.175   1.862
 1176SOL    MW4 4736   3.608   4.261   1.856
 1177SOL     OW 4737   3.790   4.416   1.957
 1177SOL    HW2 4738   3.780   4.408   2.052
 1177SOL    HW3 4739   3.865   4.360   1.935
 1177SOL    MW4 4740   3.799   4.408   1.967
 1178SOL     OW 4741   4.285   4.646   1.917
 1178SOL    HW2 4742   4.208   4.702   1.921
 1178SOL    HW3 4743   4.353   4.697   1.961
 1178SOL    MW4 4744   4.284   4.660   1.923
 1179SOL     OW 4745   4.053   0.133   1.940
 1179SOL    HW2 4746   4.050   0.126   2.036
 1179SOL    HW3 4747   3.974   0.087   1.911
 1179SOL    MW4 4748   4.042   0.126   1.949
 1180SOL     OW 4749   4.060   0.388   1.874
 1180SOL    HW2 4750   4.054   0.298   1.905
 1180SOL    HW3 4751   3.983   0.432   1.912
 1180SOL    MW4 4752   4.049   0.382   1.883
 1181SOL     OW 4753   4.290   0.526   1.963
 1181SOL    HW2 4754   4.303   0.509   2.056
 1181SOL    HW3 4755   4.209   0.478   1.942
 1181SOL    MW4 4756   4.281   0.517   1.972
 1182SOL     OW 4757   4.274   0.793   1.833
 1182SOL    HW2 4758   4.270   0.706   1.873
 1182SOL    HW3 4759   4.258   0.777   1.740
 1182SOL    MW4 4760   4.272   0.779   1.826
 1183SOL     OW 4761   4.062   0.931   1.981
 1183SOL    HW2 4762   4.145   0.895   1.950
 1183SOL    HW3 4763   3.996   0.891   1.924
 1183SOL    MW4 4764   4.064   0.921   1.969
 1184SOL     OW 4765   4.049   1.188   1.880
 1184SOL    HW2 4766   4.059   1.102   1.921
 1184SOL    HW3 4767   3.978   1.230   1.929
 1184SOL    MW4 4768   4.041   1.182   1.892
 1185SOL     OW 4769   4.250   1.324   1.988
 1185SOL    HW2 4770   4.252   1.318   2.083
 1185SOL    HW3 4771   4.171   1.276   1.963
 1185SOL    MW4 4772   4.240   1.317   1.997
 1186SOL     OW 4773   4.253   1.582   1.881
 1186SOL    HW2 4774   4.251   1.488   1.896
 1186SOL    HW3 4775   4.258   1.591   1.786
 1186SOL    MW4 4776   4.254   1.571   1.871
 1187SOL     OW 4777   4.031   1.685   1.993
 1187SOL    HW2 4778   4.042   1.679   2.088
 1187SOL    HW3 4779   4.106   1.638   1.957
 1187SOL    MW4 4780   4.043   1.678   2.001
 1188SOL     OW 4781   4.054   1.932   1.848
 1188SOL    HW2 4782   4.046   1.846   1.887
 1188SOL    HW3 4783   4.040   1.917   1.754
 1188SOL    MW4 4784   4.051   1.919   1.840
 1189SOL     OW 4785   4.278   2.079   1.947
 1189SOL    HW2 4786   4.287   2.077   2.042
 1189SOL    HW3 4787   4.202   2.025   1.929
 1189SOL    MW4 4788   4.270   2.072   1.957
 1190SOL     OW 4789   4.262   2.333   1.863
 1190SOL    HW2 4790   4.260   2.244   1.900
 1190SOL    HW3 4791   4.337   2.375   1.905
 1190SOL    MW4 4792   4.272   2.326   1.874
 1191SOL     OW 4793   4.043   2.460   1.939
 1191SOL    HW2 4794   4.032   2.451   2.034
 1191SOL    HW3 4795   4.125   2.413   1.921
 1191SOL    MW4 4796   4.053   2.452   1.949
 1192SOL     OW 4797   4.043   2.741   1.863
 1192SOL    HW2 4798   4.055   2.649   1.883
 1192SOL    HW3 4799   3.955   2.761   1.894
 1192SOL    MW4 4800   4.033   2.732   1.870
 1193SOL     OW 4801   4.277   2.831   2.003
 1193SOL    HW2 4802   4.254   2.838   2.096
 1193SOL    HW3 4803   4.193   2.818   1.958
 1193SOL    MW4 4804   4.263   2.830   2.009
 1194SOL     OW 4805   4.329   3.086   1.888
 1194SOL    HW2 4806   4.248   3.134   1.906
 1194SOL    HW3 4807   4.321   3.006   1.940
 1194SOL    MW4 4808   4.317   3.081   1.897
 1195SOL     OW 4809   4.086   3.238   1.942
 1195SOL    HW2 4810   4.071   3.244   2.037
 1195SOL    HW3 4811   4.019   3.177   1.911
 1195SOL    MW4 4812   4.075   3.231   1.950
 1196SOL     OW 4813   4.075   3.505   1.843
 1196SOL    HW2 4814   4.138   3.552   1.898
 1196SOL    HW3 4815   4.086   3.413   1.867
 1196SOL    MW4 4816   4.084   3.499   1.854
 1197SOL     OW 4817   4.297   3.600   1.983
 1197SOL    HW2 4818   4.287   3.690   1.952
 1197SOL    HW3 4819   4.365   3.563   1.928
 1197SOL    MW4 4820   4.304   3.607   1.972
 1198SOL     OW 4821   4.271   3.863   1.867
 1198SOL    HW2 4822   4.345   3.916   1.894
 1198SOL    HW3 4823   4.279   3.857   1.772
 1198SOL    MW4 4824   4.282   3.869   1.858
 1199SOL     OW 4825   4.051   3.999   1.951
 1199SOL    HW2 4826   4.135   3.962   1.925
 1199SOL    HW3 4827   3.986   3.940   1.913
 1199SOL    MW4 4828   4.053   3.986   1.943
 1200SOL     OW 4829   4.016   4.254   1.887
 1200SOL    HW2 4830   4.095   4.295   1.923
 1200SOL    HW3 4831   4.029   4.160   1.902
 1200SOL    MW4 4832   4.028   4.247   1.894
 1201SOL     OW 4833   4.273   4.377   1.964
 1201SOL    HW2 4834   4.276   4.363   2.059
 1201SOL    HW3 4835   4.267   4.472   1.954
 1201SOL    MW4 4836   4.273   4.388   1.976
 1202SOL     OW 4837   0.213   0.001   2.376
 1202SOL    HW2 4838   0.226   0.011   2.470
 1202SOL    HW3 4839   0.295   0.030   2.336
 1202SOL    MW4 4840   0.225   0.006   2.383
 1203SOL     OW 4841   4.489   0.131   2.264
 1203SOL    HW2 4842   4.560   0.092   2.316
 1203SOL    HW3 4843   4.520   0.127   2.174
 1203SOL    MW4 4844   4.502   0.125   2.259
 1204SOL     OW 4845   0.029   0.383   2.358
 1204SOL    HW2 4846   0.101   0.429   2.316
 1204SOL    HW3 4847   0.040   0.292   2.331
 1204SOL    MW4 4848   0.040   0.377   2.349
 1205SOL     OW 4849   0.251   0.540   2.245
 1205SOL    HW2 4850   0.331   0.495   2.272
 1205SOL    HW3 4851   0.243   0.521   2.152
 1205SOL    MW4 4852   0.260   0.531   2.237
 1206SOL     OW 4853   0.204   0.807   2.334
 1206SOL    HW2 4854   0.210   0.784   2.427
 1206SOL    HW3 4855   0.208   0.723   2.288
 1206SOL    MW4 4856   0.205   0.793   2.340
 1207SOL     OW 4857   4.461   0.953   2.279
 1207SOL    HW2 4858   4.541   0.904   2.301
 1207SOL    HW3 4859   4.456   0.948   2.184
 1207SOL    MW4 4860   4.471   0.946   2.269
 1208SOL     OW 4861   0.007   1.210   2.372
 1208SOL    HW2 4862   0.013   1.219   2.467
 1208SOL    HW3 4863  -0.001   1.115   2.357
 1208SOL    MW4 4864   0.007   1.199   2.382
 1209SOL     OW 4865   0.240   1.281   2.284
 1209SOL    HW2 4866   0.153   1.255   2.316
 1209SOL    HW3 4867   0.235   1.269   2.189
 1209SOL    MW4 4868   0.228   1.276   2.275
 1210SOL     OW 4869   0.249   1.546   2.337
 1210SOL    HW2 4870   0.237   1.544   2.432
 1210SOL    HW3 4871   0.236   1.456   2.310
 1210SOL    MW4 4872   0.246   1.534   2.346
 1211SOL     OW 4873   0.010   1.670   2.239
 1211SOL    HW2 4874   0.036   1.759   2.264
 1211SOL    HW3 4875   0.085   1.615   2.264
 1211SOL    MW4 4876   0.023   1.675   2.246
 1212SOL     OW 4877   4.487   1.931   2.326
 1212SOL    HW2 4878   4.416   1.981   2.286
 1212SOL    HW3 4879   4.566   1.966   2.284
 1212SOL    MW4 4880   4.488   1.942   2.315
 1213SOL     OW 4881   0.242   2.046   2.216
 1213SOL    HW2 4882   0.323   2.028   2.263
 1213SOL    HW3 4883   0.265   2.032   2.124
 1213SOL    MW4 4884   0.256   2.042   2.210
 1214SOL     OW 4885   0.197   2.317   2.352
 1214SOL    HW2 4886   0.210   2.317   2.447
 1214SOL    HW3 4887   0.204   2.225   2.328
 1214SOL    MW4 4888   0.199   2.305   2.362
 1215SOL     OW 4889   4.489   2.448   2.215
 1215SOL    HW2 4890   4.503   2.536   2.249
 1215SOL    HW3 4891   4.565   2.398   2.247
 1215SOL    MW4 4892   4.501   2.453   2.224
 1216SOL     OW 4893   0.016   2.702   2.316
 1216SOL    HW2 4894   0.031   2.690   2.409
 1216SOL    HW3 4895   0.088   2.759   2.287
 1216SOL    MW4 4896   0.028   2.708   2.324
 1217SOL     OW 4897   0.270   2.816   2.218
 1217SOL    HW2 4898   0.354   2.780   2.248
 1217SOL    HW3 4899   0.278   2.817   2.122
 1217SOL    MW4 4900   0.282   2.811   2.209
 1218SOL     OW 4901   0.275   3.071   2.347
 1218SOL    HW2 4902   0.198   3.106   2.302
 1218SOL    HW3 4903   0.288   2.984   2.307
 1218SOL    MW4 4904   0.267   3.064   2.336
 1219SOL     OW 4905   0.058   3.206   2.234
 1219SOL    HW2 4906   0.050   3.295   2.268
 1219SOL    HW3 4907   0.034   3.214   2.141
 1219SOL    MW4 4908   0.054   3.219   2.226
 1220SOL     OW 4909   0.021   3.450   2.337
 1220SOL    HW2 4910   0.007   3.446   2.432
 1220SOL    HW3 4911  -0.056   3.496   2.304
 1220SOL    MW4 4912   0.009   3.455   2.345
 1221SOL     OW 4913   0.233   3.590   2.209
 1221SOL    HW2 4914   0.320   3.566   2.243
 1221SOL    HW3 4915   0.174   3.525   2.248
 1221SOL    MW4 4916   0.237   3.578   2.219
 1222SOL     OW 4917   0.218   3.864   2.333
 1222SOL    HW2 4918   0.137   3.903   2.303
 1222SOL    HW3 4919   0.214   3.773   2.303
 1222SOL    MW4 4920   0.207   3.857   2.325
 1223SOL     OW 4921   4.487   3.984   2.247
 1223SOL    HW2 4922   4.485   4.075   2.275
 1223SOL    HW3 4923   4.489   3.988   2.151
 1223SOL    MW4 4924   4.487   3.997   2.238
 1224SOL     OW 4925   4.458   4.251   2.365
 1224SOL    HW2 4926   4.454   4.255   2.460
 1224SOL    HW3 4927   4.544   4.287   2.342
 1224SOL    MW4 4928   4.469   4.256   2.375
 1225SOL     OW 4929   0.214   4.405   2.287
 1225SOL    HW2 4930   0.291   4.353   2.310
 1225SOL    HW3 4931   0.229   4.490   2.329
 1225SOL    MW4 4932   0.226   4.410   2.296
 1226SOL     OW 4933   0.660   0.001   2.312
 1226SOL    HW2 4934   0.662  -0.010   2.407
 1226SOL    HW3 4935   0.736   0.057   2.293
 1226SOL    MW4 4936   0.670   0.007   2.322
 1227SOL     OW 4937   0.425   0.107   2.240
 1227SOL    HW2 4938   0.506   0.061   2.262
 1227SOL    HW3 4939   0.423   0.108   2.144
 1227SOL    MW4 4940   0.435   0.101   2.230
 1228SOL     OW 4941   0.467   0.377   2.312
 1228SOL    HW2 4942   0.456   0.388   2.407
 1228SOL    HW3 4943   0.440   0.287   2.295
 1228SOL    MW4 4944   0.462   0.366   2.322
 1229SOL     OW 4945   0.680   0.522   2.219
 1229SOL    HW2 4946   0.686   0.609   2.258
 1229SOL    HW3 4947   0.613   0.477   2.271
 1229SOL    MW4 4948   0.672   0.527   2.231
 1230SOL     OW 4949   0.688   0.768   2.328
 1230SOL    HW2 4950   0.696   0.773   2.423
 1230SOL    HW3 4951   0.605   0.812   2.308
 1230SOL    MW4 4952   0.678   0.775   2.338
 1231SOL     OW 4953   0.454   0.875   2.237
 1231SOL    HW2 4954   0.373   0.857   2.286
 1231SOL    HW3 4955   0.428   0.873   2.145
 1231SOL    MW4 4956   0.440   0.872   2.231
 1232SOL     OW 4957   0.446   1.126   2.379
 1232SOL    HW2 4958   0.461   1.052   2.320
 1232SOL    HW3 4959   0.391   1.186   2.330
 1232SOL    MW4 4960   0.441   1.124   2.365
 1233SOL     OW 4961   0.700   1.223   2.261
 1233SOL    HW2 4962   0.719   1.313   2.287
 1233SOL    HW3 4963   0.623   1.199   2.313
 1233SOL    MW4 4964   0.693   1.232   2.272
 1234SOL     OW 4965   0.722   1.495   2.354
 1234SOL    HW2 4966   0.728   1.494   2.450
 1234SOL    HW3 4967   0.783   1.564   2.327
 1234SOL    MW4 4968   0.731   1.504   2.363
 1235SOL     OW 4969   0.498   1.657   2.257
 1235SOL    HW2 4970   0.568   1.609   2.301
 1235SOL    HW3 4971   0.418   1.620   2.294
 1235SOL    MW4 4972   0.497   1.646   2.268
 1236SOL     OW 4973   0.478   1.935   2.297
 1236SOL    HW2 4974   0.546   1.984   2.251
 1236SOL    HW3 4975   0.487   1.845   2.265
 1236SOL    MW4 4976   0.488   1.930   2.287
 1237SOL     OW 4977   0.712   2.059   2.210
 1237SOL    HW2 4978   0.776   2.022   2.271
 1237SOL    HW3 4979   0.676   2.135   2.255
 1237SOL    MW4 4980   0.716   2.064   2.224
 1238SOL     OW 4981   0.637   2.278   2.360
 1238SOL    HW2 4982   0.664   2.269   2.451
 1238SOL    HW3 4983   0.701   2.338   2.322
 1238SOL    MW4 4984   0.649   2.285   2.367
 1239SOL     OW 4985   0.448   2.447   2.254
 1239SOL    HW2 4986   0.509   2.389   2.299
 1239SOL    HW3 4987   0.361   2.414   2.279
 1239SOL    MW4 4988   0.444   2.435   2.264
 1240SOL     OW 4989   0.514   2.710   2.307
 1240SOL    HW2 4990   0.517   2.718   2.403
 1240SOL    HW3 4991   0.479   2.622   2.291
 1240SOL    MW4 4992   0.510   2.699   2.318
 1241SOL     OW 4993   0.726   2.830   2.202
 1241SOL    HW2 4994   0.792   2.767   2.231
 1241SOL    HW3 4995   0.642   2.786   2.219
 1241SOL    MW4 4996   0.724   2.816   2.208
 1242SOL     OW 4997   0.721   3.080   2.323
 1242SOL    HW2 4998   0.634   3.114   2.304
 1242SOL    HW3 4999   0.719   2.990   2.288
 1242SOL    MW4 5000   0.709   3.072   2.316
 1243SOL     OW 5001   0.483   3.230   2.245
 1243SOL    HW2 5002   0.408   3.181   2.279
 1243SOL    HW3 5003   0.461   3.248   2.154
 1243SOL    MW4 5004   0.470   3.225   2.237
 1244SOL     OW 5005   0.475   3.483   2.349
 1244SOL    HW2 5006   0.552   3.527   2.312
 1244SOL    HW3 5007   0.485   3.392   2.321
 1244SOL    MW4 5008   0.486   3.477   2.340
 1245SOL     OW 5009   0.686   3.624   2.233
 1245SOL    HW2 5010   0.663   3.714   2.257
 1245SOL    HW3 5011   0.679   3.622   2.137
 1245SOL    MW4 5012   0.682   3.636   2.223
 1246SOL     OW 5013   0.633   3.872   2.365
 1246SOL    HW2 5014   0.639   3.889   2.459
 1246SOL    HW3 5015   0.563   3.930   2.336
 1246SOL    MW4 5016   0.624   3.882   2.374
 1247SOL     OW 5017   0.442   4.021   2.262
 1247SOL    HW2 5018   0.364   3.969   2.282
 1247SOL    HW3 5019   0.439   4.033   2.167
 1247SOL    MW4 5020   0.431   4.016   2.253
 1248SOL     OW 5021   0.447   4.277   2.378
 1248SOL    HW2 5022   0.518   4.327   2.336
 1248SOL    HW3 5023   0.457   4.188   2.344
 1248SOL    MW4 5024   0.458   4.272   2.368
 1249SOL     OW 5025   0.673   4.408   2.223
 1249SOL    HW2 5026   0.691   4.490   2.269
 1249SOL    HW3 5027   0.687   4.429   2.130
 1249SOL    MW4 5028   0.677   4.422   2.217
 1250SOL     OW 5029   1.106   4.652   2.366
 1250SOL    HW2 5030   1.113   4.653   2.462
 1250SOL    HW3 5031   1.028   4.704   2.348
 1250SOL    MW4 5032   1.096   4.659   2.376
 1251SOL     OW 5033   0.896   0.137   2.269
 1251SOL    HW2 5034   0.886   0.228   2.296
 1251SOL    HW3 5035   0.927   0.141   2.179
 1251SOL    MW4 5036   0.899   0.150   2.261
 1252SOL     OW 5037   0.903   0.398   2.343
 1252SOL    HW2 5038   0.978   0.416   2.287
 1252SOL    HW3 5039   0.830   0.446   2.304
 1252SOL    MW4 5040   0.903   0.407   2.331
 1253SOL     OW 5041   1.145   0.505   2.242
 1253SOL    HW2 5042   1.229   0.468   2.269
 1253SOL    HW3 5043   1.147   0.500   2.146
 1253SOL    MW4 5044   1.156   0.499   2.233
 1254SOL     OW 5045   1.089   0.743   2.373
 1254SOL    HW2 5046   1.021   0.791   2.326
 1254SOL    HW3 5047   1.090   0.657   2.333
 1254SOL    MW4 5048   1.080   0.738   2.361
 1255SOL     OW 5049   0.908   0.867   2.190
 1255SOL    HW2 5050   0.912   0.950   2.238
 1255SOL    HW3 5051   0.831   0.822   2.226
 1255SOL    MW4 5052   0.898   0.872   2.201
 1256SOL     OW 5053   0.958   1.097   2.337
 1256SOL    HW2 5054   1.019   1.165   2.308
 1256SOL    HW3 5055   0.871   1.133   2.318
 1256SOL    MW4 5056   0.954   1.111   2.331
 1257SOL     OW 5057   1.170   1.269   2.254
 1257SOL    HW2 5058   1.253   1.224   2.270
 1257SOL    HW3 5059   1.163   1.272   2.158
 1257SOL    MW4 5060   1.180   1.264   2.243
 1258SOL     OW 5061   1.141   1.509   2.384
 1258SOL    HW2 5062   1.076   1.558   2.333
 1258SOL    HW3 5063   1.153   1.427   2.335
 1258SOL    MW4 5064   1.134   1.505   2.371
 1259SOL     OW 5065   0.941   1.662   2.257
 1259SOL    HW2 5066   0.933   1.749   2.296
 1259SOL    HW3 5067   0.925   1.676   2.164
 1259SOL    MW4 5068   0.937   1.676   2.250
 1260SOL     OW 5069   0.893   1.934   2.374
 1260SOL    HW2 5070   0.894   1.949   2.469
 1260SOL    HW3 5071   0.976   1.970   2.343
 1260SOL    MW4 5072   0.904   1.941   2.382
 1261SOL     OW 5073   1.128   2.038   2.257
 1261SOL    HW2 5074   1.206   2.000   2.298
 1261SOL    HW3 5075   1.145   2.032   2.163
 1261SOL    MW4 5076   1.141   2.032   2.250
 1262SOL     OW 5077   1.103   2.323   2.354
 1262SOL    HW2 5078   1.189   2.364   2.344
 1262SOL    HW3 5079   1.115   2.234   2.320
 1262SOL    MW4 5080   1.116   2.317   2.348
 1263SOL     OW 5081   0.846   2.420   2.264
 1263SOL    HW2 5082   0.930   2.399   2.304
 1263SOL    HW3 5083   0.862   2.421   2.170
 1263SOL    MW4 5084   0.859   2.418   2.257
 1264SOL     OW 5085   0.920   2.691   2.326
 1264SOL    HW2 5086   0.903   2.714   2.418
 1264SOL    HW3 5087   0.911   2.596   2.324
 1264SOL    MW4 5088   0.917   2.682   2.338
 1265SOL     OW 5089   1.141   2.832   2.260
 1265SOL    HW2 5090   1.220   2.779   2.268
 1265SOL    HW3 5091   1.069   2.771   2.274
 1265SOL    MW4 5092   1.142   2.817   2.263
 1266SOL     OW 5093   1.148   3.095   2.361
 1266SOL    HW2 5094   1.078   3.135   2.310
 1266SOL    HW3 5095   1.138   3.001   2.348
 1266SOL    MW4 5096   1.137   3.088   2.353
 1267SOL     OW 5097   0.937   3.225   2.221
 1267SOL    HW2 5098   0.928   3.313   2.257
 1267SOL    HW3 5099   0.867   3.174   2.263
 1267SOL    MW4 5100   0.926   3.230   2.231
 1268SOL     OW 5101   0.895   3.474   2.313
 1268SOL    HW2 5102   0.908   3.479   2.407
 1268SOL    HW3 5103   0.823   3.534   2.295
 1268SOL    MW4 5104   0.887   3.483   2.323
 1269SOL     OW 5105   1.120   3.596   2.194
 1269SOL    HW2 5106   1.194   3.556   2.240
 1269SOL    HW3 5107   1.043   3.556   2.234
 1269SOL    MW4 5108   1.119   3.585   2.206
 1270SOL     OW 5109   1.088   3.868   2.316
 1270SOL    HW2 5110   1.162   3.925   2.296
 1270SOL    HW3 5111   1.106   3.787   2.267
 1270SOL    MW4 5112   1.100   3.865   2.307
 1271SOL     OW 5113   0.850   4.001   2.252
 1271SOL    HW2 5114   0.926   3.950   2.281
 1271SOL    HW3 5115   0.775   3.952   2.285
 1271SOL    MW4 5116   0.850   3.988   2.260
 1272SOL     OW 5117   0.874   4.280   2.354
 1272SOL    HW2 5118   0.869   4.187   2.331
 1272SOL    HW3 5119   0.799   4.319   2.309
 1272SOL    MW4 5120   0.863   4.273   2.345
 1273SOL     OW 5121   1.143   4.405   2.262
 1273SOL    HW2 5122   1.069   4.358   2.301
 1273SOL    HW3 5123   1.126   4.497   2.283
 1273SOL    MW4 5124   1.131   4.411   2.270
 1274SOL     OW 5125   1.558   4.618   2.323
 1274SOL    HW2 5126   1.627   4.674   2.289
 1274SOL    HW3 5127   1.477   4.654   2.285
 1274SOL    MW4 5128   1.556   4.630   2.313
 1275SOL     OW 5129   1.318   0.085   2.231
 1275SOL    HW2 5130   1.335   0.175   2.259
 1275SOL    HW3 5131   1.241   0.058   2.282
 1275SOL    MW4 5132   1.310   0.094   2.241
 1276SOL     OW 5133   1.372   0.342   2.336
 1276SOL    HW2 5134   1.369   0.335   2.431
 1276SOL    HW3 5135   1.451   0.393   2.318
 1276SOL    MW4 5136   1.382   0.347   2.346
 1277SOL     OW 5137   1.563   0.516   2.247
 1277SOL    HW2 5138   1.641   0.471   2.280
 1277SOL    HW3 5139   1.559   0.493   2.155
 1277SOL    MW4 5140   1.573   0.507   2.239
 1278SOL     OW 5141   1.561   0.778   2.313
 1278SOL    HW2 5142   1.636   0.818   2.271
 1278SOL    HW3 5143   1.573   0.684   2.300
 1278SOL    MW4 5144   1.572   0.771   2.306
 1279SOL     OW 5145   1.291   0.883   2.233
 1279SOL    HW2 5146   1.369   0.832   2.256
 1279SOL    HW3 5147   1.221   0.843   2.285
 1279SOL    MW4 5148   1.292   0.871   2.243
 1280SOL     OW 5149   1.404   1.111   2.341
 1280SOL    HW2 5150   1.391   1.125   2.435
 1280SOL    HW3 5151   1.370   1.023   2.326
 1280SOL    MW4 5152   1.398   1.101   2.351
 1281SOL     OW 5153   1.599   1.267   2.227
 1281SOL    HW2 5154   1.536   1.209   2.271
 1281SOL    HW3 5155   1.573   1.265   2.135
 1281SOL    MW4 5156   1.587   1.259   2.221
 1282SOL     OW 5157   1.569   1.510   2.389
 1282SOL    HW2 5158   1.655   1.550   2.376
 1282SOL    HW3 5159   1.575   1.426   2.343
 1282SOL    MW4 5160   1.581   1.504   2.382
 1283SOL     OW 5161   1.340   1.665   2.297
 1283SOL    HW2 5162   1.419   1.616   2.317
 1283SOL    HW3 5163   1.268   1.608   2.324
 1283SOL    MW4 5164   1.341   1.651   2.303
 1284SOL     OW 5165   1.353   1.937   2.372
 1284SOL    HW2 5166   1.437   1.980   2.354
 1284SOL    HW3 5167   1.367   1.846   2.347
 1284SOL    MW4 5168   1.366   1.931   2.367
 1285SOL     OW 5169   1.589   2.055   2.286
 1285SOL    HW2 5170   1.673   2.011   2.298
 1285SOL    HW3 5171   1.574   2.052   2.191
 1285SOL    MW4 5172   1.598   2.049   2.275
 1286SOL     OW 5173   1.605   2.307   2.362
 1286SOL    HW2 5174   1.596   2.316   2.457
 1286SOL    HW3 5175   1.583   2.216   2.343
 1286SOL    MW4 5176   1.601   2.296   2.372
 1287SOL     OW 5177   1.350   2.424   2.285
 1287SOL    HW2 5178   1.426   2.372   2.310
 1287SOL    HW3 5179   1.348   2.419   2.189
 1287SOL    MW4 5180   1.360   2.417   2.275
 1288SOL     OW 5181   1.390   2.704   2.346
 1288SOL    HW2 5182   1.474   2.740   2.319
 1288SOL    HW3 5183   1.393   2.612   2.318
 1288SOL    MW4 5184   1.401   2.697   2.339
 1289SOL     OW 5185   1.627   2.822   2.231
 1289SOL    HW2 5186   1.603   2.906   2.270
 1289SOL    HW3 5187   1.617   2.836   2.137
 1289SOL    MW4 5188   1.622   2.835   2.224
 1290SOL     OW 5189   1.544   3.084   2.342
 1290SOL    HW2 5190   1.543   3.094   2.437
 1290SOL    HW3 5191   1.468   3.135   2.312
 1290SOL    MW4 5192   1.534   3.092   2.351
 1291SOL     OW 5193   1.337   3.230   2.222
 1291SOL    HW2 5194   1.271   3.173   2.260
 1291SOL    HW3 5195   1.330   3.215   2.127
 1291SOL    MW4 5196   1.327   3.220   2.214
 1292SOL     OW 5197   1.312   3.486   2.335
 1292SOL    HW2 5198   1.320   3.477   2.430
 1292SOL    HW3 5199   1.316   3.396   2.302
 1292SOL    MW4 5200   1.314   3.473   2.343
 1293SOL     OW 5201   1.574   3.587   2.266
 1293SOL    HW2 5202   1.566   3.682   2.277
 1293SOL    HW3 5203   1.490   3.552   2.295
 1293SOL    MW4 5204   1.562   3.595   2.271
 1294SOL     OW 5205   1.579   3.875   2.336
 1294SOL    HW2 5206   1.600   3.860   2.428
 1294SOL    HW3 5207   1.650   3.931   2.304
 1294SOL    MW4 5208   1.591   3.881   2.343
 1295SOL     OW 5209   1.318   4.014   2.252
 1295SOL    HW2 5210   1.383   3.950   2.279
 1295SOL    HW3 5211   1.319   4.012   2.157
 1295SOL    MW4 5212   1.326   4.005   2.243
 1296SOL     OW 5213   1.368   4.269   2.347
 1296SOL    HW2 5214   1.354   4.188   2.297
 1296SOL    HW3 5215   1.288   4.319   2.333
 1296SOL    MW4 5216   1.356   4.265   2.338
 1297SOL     OW 5217   1.610   4.360   2.243
 1297SOL    HW2 5218   1.535   4.318   2.285
 1297SOL    HW3 5219   1.604   4.452   2.269
 1297SOL    MW4 5220   1.599   4.367   2.252
 1298SOL     OW 5221   2.024   0.004   2.328
 1298SOL    HW2 5222   2.111   0.040   2.312
 1298SOL    HW3 5223   2.035  -0.090   2.315
 1298SOL    MW4 5224   2.037  -0.004   2.325
 1299SOL     OW 5225   1.791   0.099   2.210
 1299SOL    HW2 5226   1.759   0.179   2.252
 1299SOL    HW3 5227   1.873   0.079   2.256
 1299SOL    MW4 5228   1.798   0.107   2.222
 1300SOL     OW 5229   1.761   0.350   2.337
 1300SOL    HW2 5230   1.775   0.336   2.430
 1300SOL    HW3 5231   1.834   0.404   2.309
 1300SOL    MW4 5232   1.772   0.355   2.345
 1301SOL     OW 5233   1.989   0.490   2.255
 1301SOL    HW2 5234   1.988   0.580   2.287
 1301SOL    HW3 5235   1.999   0.498   2.160
 1301SOL    MW4 5236   1.990   0.503   2.247
 1302SOL     OW 5237   2.004   0.740   2.355
 1302SOL    HW2 5238   2.085   0.785   2.330
 1302SOL    HW3 5239   1.936   0.782   2.302
 1302SOL    MW4 5240   2.006   0.752   2.345
 1303SOL     OW 5241   1.793   0.881   2.211
 1303SOL    HW2 5242   1.787   0.971   2.242
 1303SOL    HW3 5243   1.791   0.888   2.116
 1303SOL    MW4 5244   1.792   0.894   2.203
 1304SOL     OW 5245   1.818   1.139   2.349
 1304SOL    HW2 5246   1.891   1.195   2.325
 1304SOL    HW3 5247   1.740   1.183   2.314
 1304SOL    MW4 5248   1.817   1.152   2.341
 1305SOL     OW 5249   2.021   1.269   2.227
 1305SOL    HW2 5250   2.013   1.361   2.254
 1305SOL    HW3 5251   2.000   1.270   2.134
 1305SOL    MW4 5252   2.017   1.281   2.218
 1306SOL     OW 5253   2.015   1.547   2.327
 1306SOL    HW2 5254   2.009   1.546   2.423
 1306SOL    HW3 5255   1.931   1.584   2.299
 1306SOL    MW4 5256   2.003   1.552   2.336
 1307SOL     OW 5257   1.772   1.665   2.285
 1307SOL    HW2 5258   1.792   1.756   2.308
 1307SOL    HW3 5259   1.764   1.665   2.190
 1307SOL    MW4 5260   1.774   1.677   2.275
 1308SOL     OW 5261   1.821   1.921   2.366
 1308SOL    HW2 5262   1.788   1.948   2.452
 1308SOL    HW3 5263   1.883   1.991   2.342
 1308SOL    MW4 5264   1.825   1.934   2.374
 1309SOL     OW 5265   2.027   2.072   2.250
 1309SOL    HW2 5266   2.100   2.019   2.280
 1309SOL    HW3 5267   2.031   2.067   2.155
 1309SOL    MW4 5268   2.037   2.064   2.242
 1310SOL     OW 5269   2.017   2.314   2.366
 1310SOL    HW2 5270   2.089   2.369   2.334
 1310SOL    HW3 5271   2.026   2.232   2.317
 1310SOL    MW4 5272   2.028   2.311   2.356
 1311SOL     OW 5273   1.802   2.447   2.225
 1311SOL    HW2 5274   1.877   2.412   2.272
 1311SOL    HW3 5275   1.729   2.390   2.251
 1311SOL    MW4 5276   1.802   2.435   2.235
 1312SOL     OW 5277   1.818   2.694   2.370
 1312SOL    HW2 5278   1.809   2.608   2.330
 1312SOL    HW3 5279   1.751   2.748   2.328
 1312SOL    MW4 5280   1.808   2.690   2.359
 1313SOL     OW 5281   2.061   2.797   2.232
 1313SOL    HW2 5282   2.140   2.765   2.276
 1313SOL    HW3 5283   1.989   2.768   2.287
 1313SOL    MW4 5284   2.062   2.789   2.245
 1314SOL     OW 5285   1.963   3.072   2.298
 1314SOL    HW2 5286   2.042   3.120   2.273
 1314SOL    HW3 5287   1.981   2.981   2.275
 1314SOL    MW4 5288   1.976   3.066   2.292
 1315SOL     OW 5289   1.744   3.225   2.191
 1315SOL    HW2 5290   1.818   3.173   2.224
 1315SOL    HW3 5291   1.667   3.178   2.221
 1315SOL    MW4 5292   1.744   3.212   2.199
 1316SOL     OW 5293   1.787   3.451   2.360
 1316SOL    HW2 5294   1.768   3.377   2.302
 1316SOL    HW3 5295   1.720   3.516   2.339
 1316SOL    MW4 5296   1.776   3.450   2.350
 1317SOL     OW 5297   2.002   3.608   2.270
 1317SOL    HW2 5298   1.935   3.548   2.301
 1317SOL    HW3 5299   2.016   3.584   2.178
 1317SOL    MW4 5300   1.995   3.597   2.262
 1318SOL     OW 5301   2.047   3.870   2.352
 1318SOL    HW2 5302   2.049   3.879   2.447
 1318SOL    HW3 5303   2.025   3.778   2.337
 1318SOL    MW4 5304   2.045   3.859   2.362
 1319SOL     OW 5305   1.828   4.015   2.272
 1319SOL    HW2 5306   1.906   3.972   2.308
 1319SOL    HW3 5307   1.830   3.994   2.179
 1319SOL    MW4 5308   1.839   4.006   2.265
 1320SOL     OW 5309   1.835   4.273   2.393
 1320SOL    HW2 5310   1.834   4.185   2.355
 1320SOL    HW3 5311   1.763   4.319   2.351
 1320SOL    MW4 5312   1.826   4.267   2.383
 1321SOL     OW 5313   2.052   4.408   2.272
 1321SOL    HW2 5314   1.983   4.349   2.302
 1321SOL    HW3 5315   2.048   4.404   2.177
 1321SOL    MW4 5316   2.042   4.400   2.264
 1322SOL     OW 5317   2.467   0.028   2.380
 1322SOL    HW2 5318   2.542   0.076   2.345
 1322SOL    HW3 5319   2.471  -0.058   2.339
 1322SOL    MW4 5320   2.477   0.023   2.370
 1323SOL     OW 5321   2.249   0.131   2.245
 1323SOL    HW2 5322   2.238   0.218   2.284
 1323SOL    HW3 5323   2.324   0.093   2.291
 1323SOL    MW4 5324   2.258   0.138   2.256
 1324SOL     OW 5325   2.231   0.389   2.383
 1324SOL    HW2 5326   2.308   0.419   2.335
 1324SOL    HW3 5327   2.158   0.439   2.346
 1324SOL    MW4 5328   2.231   0.400   2.372
 1325SOL     OW 5329   2.445   0.490   2.256
 1325SOL    HW2 5330   2.534   0.460   2.276
 1325SOL    HW3 5331   2.440   0.489   2.161
 1325SOL    MW4 5332   2.456   0.486   2.246
 1326SOL     OW 5333   2.444   0.737   2.391
 1326SOL    HW2 5334   2.523   0.771   2.348
 1326SOL    HW3 5335   2.437   0.647   2.360
 1326SOL    MW4 5336   2.454   0.730   2.381
 1327SOL     OW 5337   2.234   0.852   2.253
 1327SOL    HW2 5338   2.242   0.943   2.282
 1327SOL    HW3 5339   2.301   0.805   2.302
 1327SOL    MW4 5340   2.244   0.858   2.264
 1328SOL     OW 5341   2.221   1.106   2.336
 1328SOL    HW2 5342   2.289   1.160   2.296
 1328SOL    HW3 5343   2.142   1.159   2.331
 1328SOL    MW4 5344   2.220   1.120   2.330
 1329SOL     OW 5345   2.403   1.294   2.252
 1329SOL    HW2 5346   2.482   1.267   2.298
 1329SOL    HW3 5347   2.394   1.387   2.272
 1329SOL    MW4 5348   2.412   1.303   2.261
 1330SOL     OW 5349   2.434   1.549   2.342
 1330SOL    HW2 5350   2.440   1.538   2.437
 1330SOL    HW3 5351   2.523   1.569   2.314
 1330SOL    MW4 5352   2.446   1.550   2.351
 1331SOL     OW 5353   2.241   1.694   2.199
 1331SOL    HW2 5354   2.322   1.655   2.230
 1331SOL    HW3 5355   2.171   1.643   2.240
 1331SOL    MW4 5356   2.242   1.682   2.208
 1332SOL     OW 5357   2.252   1.944   2.340
 1332SOL    HW2 5358   2.302   2.001   2.283
 1332SOL    HW3 5359   2.260   1.857   2.300
 1332SOL    MW4 5360   2.259   1.940   2.327
 1333SOL     OW 5361   2.513   2.051   2.216
 1333SOL    HW2 5362   2.596   2.008   2.236
 1333SOL    HW3 5363   2.500   2.036   2.122
 1333SOL    MW4 5364   2.522   2.043   2.206
 1334SOL     OW 5365   2.472   2.300   2.347
 1334SOL    HW2 5366   2.556   2.341   2.325
 1334SOL    HW3 5367   2.479   2.212   2.310
 1334SOL    MW4 5368   2.484   2.294   2.339
 1335SOL     OW 5369   2.253   2.446   2.259
 1335SOL    HW2 5370   2.269   2.535   2.289
 1335SOL    HW3 5371   2.328   2.396   2.291
 1335SOL    MW4 5372   2.265   2.451   2.267
 1336SOL     OW 5373   2.276   2.699   2.359
 1336SOL    HW2 5374   2.266   2.720   2.452
 1336SOL    HW3 5375   2.344   2.759   2.329
 1336SOL    MW4 5376   2.283   2.710   2.367
 1337SOL     OW 5377   2.497   2.839   2.244
 1337SOL    HW2 5378   2.554   2.769   2.275
 1337SOL    HW3 5379   2.504   2.835   2.149
 1337SOL    MW4 5380   2.505   2.830   2.236
 1338SOL     OW 5381   2.459   3.095   2.354
 1338SOL    HW2 5382   2.537   3.135   2.317
 1338SOL    HW3 5383   2.471   3.001   2.342
 1338SOL    MW4 5384   2.471   3.088   2.348
 1339SOL     OW 5385   2.223   3.208   2.260
 1339SOL    HW2 5386   2.221   3.293   2.305
 1339SOL    HW3 5387   2.306   3.169   2.285
 1339SOL    MW4 5388   2.233   3.214   2.269
 1340SOL     OW 5389   2.244   3.487   2.332
 1340SOL    HW2 5390   2.239   3.504   2.426
 1340SOL    HW3 5391   2.162   3.523   2.297
 1340SOL    MW4 5392   2.232   3.494   2.340
 1341SOL     OW 5393   2.459   3.621   2.224
 1341SOL    HW2 5394   2.474   3.705   2.268
 1341SOL    HW3 5395   2.376   3.590   2.260
 1341SOL    MW4 5396   2.450   3.628   2.234
 1342SOL     OW 5397   2.488   3.879   2.360
 1342SOL    HW2 5398   2.480   3.886   2.455
 1342SOL    HW3 5399   2.409   3.920   2.326
 1342SOL    MW4 5400   2.477   3.885   2.368
 1343SOL     OW 5401   2.276   4.024   2.245
 1343SOL    HW2 5402   2.278   4.107   2.293
 1343SOL    HW3 5403   2.201   3.977   2.281
 1343SOL    MW4 5404   2.267   4.029   2.256
 1344SOL     OW 5405   2.278   4.280   2.366
 1344SOL    HW2 5406   2.259   4.260   2.458
 1344SOL    HW3 5407   2.205   4.335   2.338
 1344SOL    MW4 5408   2.266   4.285   2.375
 1345SOL     OW 5409   2.485   4.429   2.263
 1345SOL    HW2 5410   2.568   4.397   2.300
 1345SOL    HW3 5411   2.418   4.375   2.303
 1345SOL    MW4 5412   2.487   4.418   2.273
 1346SOL     OW 5413   2.891   0.011   2.357
 1346SOL    HW2 5414   2.977   0.037   2.323
 1346SOL    HW3 5415   2.886  -0.083   2.338
 1346SOL    MW4 5416   2.902   0.002   2.350
 1347SOL     OW 5417   2.679   0.143   2.250
 1347SOL    HW2 5418   2.672   0.238   2.261
 1347SOL    HW3 5419   2.758   0.119   2.298
 1347SOL    MW4 5420   2.688   0.153   2.258
 1348SOL     OW 5421   2.707   0.402   2.302
 1348SOL    HW2 5422   2.700   0.422   2.395
 1348SOL    HW3 5423   2.792   0.438   2.276
 1348SOL    MW4 5424   2.718   0.409   2.311
 1349SOL     OW 5425   2.959   0.496   2.238
 1349SOL    HW2 5426   2.936   0.585   2.263
 1349SOL    HW3 5427   2.939   0.491   2.145
 1349SOL    MW4 5428   2.954   0.507   2.229
 1350SOL     OW 5429   2.901   0.740   2.332
 1350SOL    HW2 5430   2.900   0.742   2.428
 1350SOL    HW3 5431   2.827   0.795   2.307
 1350SOL    MW4 5432   2.891   0.747   2.342
 1351SOL     OW 5433   2.664   0.889   2.276
 1351SOL    HW2 5434   2.646   0.978   2.305
 1351SOL    HW3 5435   2.676   0.897   2.181
 1351SOL    MW4 5436   2.664   0.902   2.267
 1352SOL     OW 5437   2.619   1.152   2.349
 1352SOL    HW2 5438   2.630   1.163   2.444
 1352SOL    HW3 5439   2.698   1.189   2.311
 1352SOL    MW4 5440   2.631   1.158   2.357
 1353SOL     OW 5441   2.883   1.230   2.220
 1353SOL    HW2 5442   2.961   1.191   2.260
 1353SOL    HW3 5443   2.903   1.234   2.127
 1353SOL    MW4 5444   2.896   1.226   2.213
 1354SOL     OW 5445   2.922   1.517   2.321
 1354SOL    HW2 5446   2.925   1.514   2.417
 1354SOL    HW3 5447   2.899   1.427   2.296
 1354SOL    MW4 5448   2.919   1.504   2.331
 1355SOL     OW 5449   2.685   1.659   2.262
 1355SOL    HW2 5450   2.764   1.608   2.281
 1355SOL    HW3 5451   2.681   1.662   2.166
 1355SOL    MW4 5452   2.695   1.653   2.251
 1356SOL     OW 5453   2.732   1.910   2.364
 1356SOL    HW2 5454   2.719   1.925   2.458
 1356SOL    HW3 5455   2.712   1.817   2.352
 1356SOL    MW4 5456   2.728   1.900   2.375
 1357SOL     OW 5457   2.954   2.015   2.242
 1357SOL    HW2 5458   3.023   1.968   2.288
 1357SOL    HW3 5459   2.873   1.975   2.273
 1357SOL    MW4 5460   2.952   2.004   2.252
 1358SOL     OW 5461   2.945   2.284   2.331
 1358SOL    HW2 5462   2.953   2.301   2.425
 1358SOL    HW3 5463   2.964   2.191   2.322
 1358SOL    MW4 5464   2.949   2.274   2.342
 1359SOL     OW 5465   2.700   2.403   2.251
 1359SOL    HW2 5466   2.783   2.363   2.279
 1359SOL    HW3 5467   2.697   2.389   2.157
 1359SOL    MW4 5468   2.711   2.396   2.242
 1360SOL     OW 5469   2.659   2.659   2.345
 1360SOL    HW2 5470   2.743   2.699   2.322
 1360SOL    HW3 5471   2.667   2.568   2.316
 1360SOL    MW4 5472   2.671   2.652   2.338
 1361SOL     OW 5473   2.883   2.798   2.288
 1361SOL    HW2 5474   2.895   2.888   2.318
 1361SOL    HW3 5475   2.904   2.801   2.194
 1361SOL    MW4 5476   2.887   2.810   2.279
 1362SOL     OW 5477   2.924   3.062   2.326
 1362SOL    HW2 5478   3.004   3.099   2.287
 1362SOL    HW3 5479   2.863   3.135   2.330
 1362SOL    MW4 5480   2.927   3.077   2.322
 1363SOL     OW 5481   2.699   3.208   2.285
 1363SOL    HW2 5482   2.685   3.298   2.315
 1363SOL    HW3 5483   2.704   3.214   2.190
 1363SOL    MW4 5484   2.698   3.221   2.277
 1364SOL     OW 5485   2.664   3.473   2.353
 1364SOL    HW2 5486   2.744   3.520   2.328
 1364SOL    HW3 5487   2.593   3.521   2.312
 1364SOL    MW4 5488   2.665   3.485   2.344
 1365SOL     OW 5489   2.895   3.580   2.255
 1365SOL    HW2 5490   2.976   3.532   2.267
 1365SOL    HW3 5491   2.912   3.666   2.294
 1365SOL    MW4 5492   2.908   3.585   2.262
 1366SOL     OW 5493   2.929   3.855   2.341
 1366SOL    HW2 5494   2.929   3.851   2.436
 1366SOL    HW3 5495   2.849   3.904   2.319
 1366SOL    MW4 5496   2.918   3.861   2.351
 1367SOL     OW 5497   2.715   4.020   2.251
 1367SOL    HW2 5498   2.639   3.980   2.294
 1367SOL    HW3 5499   2.705   3.998   2.159
 1367SOL    MW4 5500   2.703   4.012   2.245
 1368SOL     OW 5501   2.699   4.286   2.365
 1368SOL    HW2 5502   2.704   4.264   2.458
 1368SOL    HW3 5503   2.706   4.202   2.320
 1368SOL    MW4 5504   2.700   4.272   2.371
 1369SOL     OW 5505   2.950   4.408   2.281
 1369SOL    HW2 5506   3.022   4.369   2.332
 1369SOL    HW3 5507   2.874   4.354   2.304
 1369SOL    MW4 5508   2.949   4.396   2.291
 1370SOL     OW 5509   3.349   0.010   2.345
 1370SOL    HW2 5510   3.343   0.006   2.440
 1370SOL    HW3 5511   3.431   0.056   2.328
 1370SOL    MW4 5512   3.359   0.016   2.355
 1371SOL     OW 5513   3.125   0.141   2.270
 1371SOL    HW2 5514   3.116   0.224   2.316
 1371SOL    HW3 5515   3.211   0.109   2.294
 1371SOL    MW4 5516   3.135   0.148   2.279
 1372SOL     OW 5517   3.162   0.398   2.381
 1372SOL    HW2 5518   3.245   0.436   2.353
 1372SOL    HW3 5519   3.095   0.450   2.337
 1372SOL    MW4 5520   3.164   0.410   2.371
 1373SOL     OW 5521   3.404   0.521   2.280
 1373SOL    HW2 5522   3.484   0.471   2.297
 1373SOL    HW3 5523   3.406   0.539   2.187
 1373SOL    MW4 5524   3.415   0.516   2.270
 1374SOL     OW 5525   3.346   0.780   2.348
 1374SOL    HW2 5526   3.429   0.823   2.326
 1374SOL    HW3 5527   3.361   0.688   2.328
 1374SOL    MW4 5528   3.359   0.774   2.343
 1375SOL     OW 5529   3.122   0.870   2.206
 1375SOL    HW2 5530   3.202   0.837   2.247
 1375SOL    HW3 5531   3.052   0.815   2.242
 1375SOL    MW4 5532   3.123   0.858   2.216
 1376SOL     OW 5533   3.112   1.129   2.326
 1376SOL    HW2 5534   3.186   1.168   2.280
 1376SOL    HW3 5535   3.102   1.042   2.287
 1376SOL    MW4 5536   3.121   1.123   2.315
 1377SOL     OW 5537   3.348   1.236   2.227
 1377SOL    HW2 5538   3.404   1.181   2.281
 1377SOL    HW3 5539   3.362   1.325   2.260
 1377SOL    MW4 5540   3.357   1.240   2.238
 1378SOL     OW 5541   3.395   1.495   2.338
 1378SOL    HW2 5542   3.372   1.510   2.430
 1378SOL    HW3 5543   3.324   1.537   2.289
 1378SOL    MW4 5544   3.383   1.503   2.344
 1379SOL     OW 5545   3.169   1.623   2.237
 1379SOL    HW2 5546   3.169   1.710   2.277
 1379SOL    HW3 5547   3.082   1.588   2.255
 1379SOL    MW4 5548   3.158   1.630   2.245
 1380SOL     OW 5549   3.153   1.868   2.361
 1380SOL    HW2 5550   3.132   1.890   2.452
 1380SOL    HW3 5551   3.231   1.920   2.341
 1380SOL    MW4 5552   3.160   1.878   2.370
 1381SOL     OW 5553   3.354   2.041   2.249
 1381SOL    HW2 5554   3.437   2.003   2.277
 1381SOL    HW3 5555   3.373   2.079   2.163
 1381SOL    MW4 5556   3.367   2.041   2.241
 1382SOL     OW 5557   3.424   2.313   2.325
 1382SOL    HW2 5558   3.340   2.349   2.296
 1382SOL    HW3 5559   3.413   2.218   2.316
 1382SOL    MW4 5560   3.411   2.305   2.320
 1383SOL     OW 5561   3.176   2.426   2.248
 1383SOL    HW2 5562   3.172   2.517   2.277
 1383SOL    HW3 5563   3.097   2.386   2.283
 1383SOL    MW4 5564   3.165   2.432   2.256
 1384SOL     OW 5565   3.147   2.692   2.324
 1384SOL    HW2 5566   3.165   2.693   2.418
 1384SOL    HW3 5567   3.054   2.714   2.317
 1384SOL    MW4 5568   3.137   2.695   2.336
 1385SOL     OW 5569   3.387   2.833   2.236
 1385SOL    HW2 5570   3.392   2.917   2.281
 1385SOL    HW3 5571   3.310   2.789   2.273
 1385SOL    MW4 5572   3.377   2.838   2.247
 1386SOL     OW 5573   3.403   3.103   2.338
 1386SOL    HW2 5574   3.471   3.149   2.288
 1386SOL    HW3 5575   3.323   3.151   2.319
 1386SOL    MW4 5576   3.401   3.115   2.329
 1387SOL     OW 5577   3.150   3.194   2.261
 1387SOL    HW2 5578   3.154   3.279   2.303
 1387SOL    HW3 5579   3.153   3.213   2.167
 1387SOL    MW4 5580   3.151   3.207   2.254
 1388SOL     OW 5581   3.130   3.461   2.332
 1388SOL    HW2 5582   3.130   3.470   2.428
 1388SOL    HW3 5583   3.202   3.518   2.303
 1388SOL    MW4 5584   3.140   3.470   2.341
 1389SOL     OW 5585   3.349   3.602   2.254
 1389SOL    HW2 5586   3.437   3.588   2.288
 1389SOL    HW3 5587   3.361   3.614   2.160
 1389SOL    MW4 5588   3.362   3.602   2.246
 1390SOL     OW 5589   3.355   3.856   2.374
 1390SOL    HW2 5590   3.425   3.900   2.325
 1390SOL    HW3 5591   3.345   3.772   2.330
 1390SOL    MW4 5592   3.363   3.851   2.362
 1391SOL     OW 5593   3.134   4.028   2.310
 1391SOL    HW2 5594   3.201   3.963   2.330
 1391SOL    HW3 5595   3.051   3.981   2.318
 1391SOL    MW4 5596   3.132   4.014   2.314
 1392SOL     OW 5597   3.163   4.294   2.402
 1392SOL    HW2 5598   3.235   4.315   2.343
 1392SOL    HW3 5599   3.144   4.202   2.385
 1392SOL    MW4 5600   3.170   4.284   2.392
 1393SOL     OW 5601   3.365   4.400   2.253
 1393SOL    HW2 5602   3.360   4.492   2.279
 1393SOL    HW3 5603   3.367   4.403   2.157
 1393SOL    MW4 5604   3.365   4.413   2.244
 1394SOL     OW 5605   3.819   4.639   2.330
 1394SOL    HW2 5606   3.814   4.633   2.426
 1394SOL    HW3 5607   3.895   4.695   2.314
 1394SOL    MW4 5608   3.829   4.646   2.341
 1395SOL     OW 5609   3.594   0.124   2.252
 1395SOL    HW2 5610   3.624   0.213   2.269
 1395SOL    HW3 5611   3.670   0.069   2.272
 1395SOL    MW4 5612   3.608   0.128   2.257
 1396SOL     OW 5613   3.634   0.378   2.344
 1396SOL    HW2 5614   3.620   0.387   2.438
 1396SOL    HW3 5615   3.710   0.433   2.325
 1396SOL    MW4 5616   3.642   0.386   2.354
 1397SOL     OW 5617   3.826   0.545   2.272
 1397SOL    HW2 5618   3.806   0.636   2.294
 1397SOL    HW3 5619   3.827   0.543   2.177
 1397SOL    MW4 5620   3.823   0.557   2.263
 1398SOL     OW 5621   3.811   0.810   2.342
 1398SOL    HW2 5622   3.810   0.789   2.435
 1398SOL    HW3 5623   3.899   0.846   2.327
 1398SOL    MW4 5624   3.822   0.812   2.352
 1399SOL     OW 5625   3.576   0.948   2.263
 1399SOL    HW2 5626   3.656   0.907   2.294
 1399SOL    HW3 5627   3.574   0.929   2.169
 1399SOL    MW4 5628   3.586   0.940   2.255
 1400SOL     OW 5629   3.554   1.181   2.404
 1400SOL    HW2 5630   3.579   1.174   2.496
 1400SOL    HW3 5631   3.563   1.093   2.370
 1400SOL    MW4 5632   3.559   1.169   2.412
 1401SOL     OW 5633   3.789   1.251   2.267
 1401SOL    HW2 5634   3.798   1.344   2.288
 1401SOL    HW3 5635   3.719   1.220   2.324
 1401SOL    MW4 5636   3.781   1.259   2.278
 1402SOL     OW 5637   3.806   1.515   2.350
 1402SOL    HW2 5638   3.806   1.521   2.445
 1402SOL    HW3 5639   3.750   1.587   2.321
 1402SOL    MW4 5640   3.799   1.526   2.358
 1403SOL     OW 5641   3.595   1.671   2.269
 1403SOL    HW2 5642   3.523   1.610   2.282
 1403SOL    HW3 5643   3.603   1.679   2.174
 1403SOL    MW4 5644   3.587   1.664   2.258
 1404SOL     OW 5645   3.561   1.929   2.360
 1404SOL    HW2 5646   3.646   1.958   2.327
 1404SOL    HW3 5647   3.556   1.837   2.335
 1404SOL    MW4 5648   3.571   1.921   2.352
 1405SOL     OW 5649   3.801   2.033   2.265
 1405SOL    HW2 5650   3.884   2.003   2.302
 1405SOL    HW3 5651   3.816   2.035   2.170
 1405SOL    MW4 5652   3.814   2.029   2.257
 1406SOL     OW 5653   3.873   2.294   2.343
 1406SOL    HW2 5654   3.813   2.341   2.284
 1406SOL    HW3 5655   3.866   2.202   2.315
 1406SOL    MW4 5656   3.864   2.288   2.331
 1407SOL     OW 5657   3.647   2.455   2.236
 1407SOL    HW2 5658   3.578   2.409   2.282
 1407SOL    HW3 5659   3.615   2.465   2.147
 1407SOL    MW4 5660   3.634   2.450   2.231
 1408SOL     OW 5661   3.612   2.717   2.355
 1408SOL    HW2 5662   3.624   2.628   2.321
 1408SOL    HW3 5663   3.540   2.753   2.304
 1408SOL    MW4 5664   3.604   2.710   2.344
 1409SOL     OW 5665   3.834   2.833   2.229
 1409SOL    HW2 5666   3.833   2.926   2.252
 1409SOL    HW3 5667   3.760   2.796   2.276
 1409SOL    MW4 5668   3.824   2.840   2.239
 1410SOL     OW 5669   3.835   3.110   2.305
 1410SOL    HW2 5670   3.840   3.113   2.401
 1410SOL    HW3 5671   3.915   3.153   2.276
 1410SOL    MW4 5672   3.846   3.116   2.314
 1411SOL     OW 5673   3.619   3.252   2.223
 1411SOL    HW2 5674   3.635   3.342   2.249
 1411SOL    HW3 5675   3.698   3.204   2.248
 1411SOL    MW4 5676   3.632   3.257   2.229
 1412SOL     OW 5677   3.611   3.519   2.315
 1412SOL    HW2 5678   3.612   3.523   2.411
 1412SOL    HW3 5679   3.688   3.569   2.288
 1412SOL    MW4 5680   3.621   3.526   2.324
 1413SOL     OW 5681   3.836   3.642   2.217
 1413SOL    HW2 5682   3.823   3.733   2.245
 1413SOL    HW3 5683   3.830   3.646   2.121
 1413SOL    MW4 5684   3.833   3.655   2.208
 1414SOL     OW 5685   3.790   3.910   2.321
 1414SOL    HW2 5686   3.794   3.901   2.416
 1414SOL    HW3 5687   3.872   3.955   2.298
 1414SOL    MW4 5688   3.802   3.915   2.331
 1415SOL     OW 5689   3.554   4.008   2.234
 1415SOL    HW2 5690   3.539   4.093   2.277
 1415SOL    HW3 5691   3.634   3.974   2.275
 1415SOL    MW4 5692   3.563   4.015   2.245
 1416SOL     OW 5693   3.577   4.264   2.346
 1416SOL    HW2 5694   3.654   4.306   2.306
 1416SOL    HW3 5695   3.502   4.303   2.301
 1416SOL    MW4 5696   3.577   4.275   2.335
 1417SOL     OW 5697   3.793   4.371   2.226
 1417SOL    HW2 5698   3.857   4.327   2.282
 1417SOL    HW3 5699   3.802   4.464   2.248
 1417SOL    MW4 5700   3.803   4.377   2.236
 1418SOL     OW 5701   4.254   4.634   2.332
 1418SOL    HW2 5702   4.247   4.631   2.427
 1418SOL    HW3 5703   4.339   4.673   2.315
 1418SOL    MW4 5704   4.264   4.639   2.342
 1419SOL     OW 5705   4.052   0.123   2.226
 1419SOL    HW2 5706   4.061   0.210   2.265
 1419SOL    HW3 5707   4.127   0.074   2.257
 1419SOL    MW4 5708   4.063   0.128   2.235
 1420SOL     OW 5709   4.064   0.380   2.345
 1420SOL    HW2 5710   4.145   0.415   2.307
 1420SOL    HW3 5711   3.997   0.445   2.325
 1420SOL    MW4 5712   4.066   0.393   2.338
 1421SOL     OW 5713   4.292   0.514   2.232
 1421SOL    HW2 5714   4.283   0.605   2.260
 1421SOL    HW3 5715   4.368   0.482   2.279
 1421SOL    MW4 5716   4.301   0.522   2.242
 1422SOL     OW 5717   4.272   0.764   2.364
 1422SOL    HW2 5718   4.191   0.807   2.337
 1422SOL    HW3 5719   4.341   0.828   2.346
 1422SOL    MW4 5720   4.271   0.778   2.358
 1423SOL     OW 5721   4.056   0.911   2.269
 1423SOL    HW2 5722   4.042   1.003   2.294
 1423SOL    HW3 5723   4.068   0.914   2.174
 1423SOL    MW4 5724   4.056   0.924   2.260
 1424SOL     OW 5725   4.036   1.171   2.374
 1424SOL    HW2 5726   4.030   1.178   2.469
 1424SOL    HW3 5727   3.953   1.206   2.341
 1424SOL    MW4 5728   4.024   1.177   2.382
 1425SOL     OW 5729   4.262   1.294   2.260
 1425SOL    HW2 5730   4.194   1.265   2.320
 1425SOL    HW3 5731   4.344   1.265   2.300
 1425SOL    MW4 5732   4.264   1.287   2.273
 1426SOL     OW 5733   4.283   1.552   2.376
 1426SOL    HW2 5734   4.273   1.465   2.337
 1426SOL    HW3 5735   4.356   1.591   2.328
 1426SOL    MW4 5736   4.291   1.546   2.364
 1427SOL     OW 5737   4.056   1.637   2.269
 1427SOL    HW2 5738   4.119   1.616   2.338
 1427SOL    HW3 5739   3.974   1.597   2.298
 1427SOL    MW4 5740   4.054   1.629   2.282
 1428SOL     OW 5741   4.036   1.896   2.354
 1428SOL    HW2 5742   4.020   1.881   2.447
 1428SOL    HW3 5743   4.046   1.809   2.316
 1428SOL    MW4 5744   4.035   1.883   2.361
 1429SOL     OW 5745   4.271   2.082   2.234
 1429SOL    HW2 5746   4.263   2.173   2.262
 1429SOL    HW3 5747   4.199   2.037   2.278
 1429SOL    MW4 5748   4.260   2.088   2.243
 1430SOL     OW 5749   4.280   2.344   2.349
 1430SOL    HW2 5750   4.223   2.414   2.318
 1430SOL    HW3 5751   4.364   2.360   2.307
 1430SOL    MW4 5752   4.283   2.356   2.340
 1431SOL     OW 5753   4.051   2.477   2.216
 1431SOL    HW2 5754   4.050   2.558   2.267
 1431SOL    HW3 5755   4.009   2.413   2.273
 1431SOL    MW4 5756   4.045   2.480   2.230
 1432SOL     OW 5757   4.051   2.699   2.363
 1432SOL    HW2 5758   4.057   2.705   2.458
 1432SOL    HW3 5759   3.975   2.753   2.341
 1432SOL    MW4 5760   4.042   2.707   2.373
 1433SOL     OW 5761   4.282   2.839   2.267
 1433SOL    HW2 5762   4.213   2.786   2.307
 1433SOL    HW3 5763   4.361   2.786   2.277
 1433SOL    MW4 5764   4.283   2.825   2.274
 1434SOL     OW 5765   4.257   3.117   2.358
 1434SOL    HW2 5766   4.262   3.031   2.316
 1434SOL    HW3 5767   4.334   3.164   2.327
 1434SOL    MW4 5768   4.268   3.111   2.349
 1435SOL     OW 5769   4.052   3.224   2.212
 1435SOL    HW2 5770   4.061   3.316   2.239
 1435SOL    HW3 5771   4.118   3.178   2.263
 1435SOL    MW4 5772   4.062   3.230   2.223
 1436SOL     OW 5773   4.038   3.472   2.320
 1436SOL    HW2 5774   4.127   3.496   2.295
 1436SOL    HW3 5775   3.983   3.540   2.281
 1436SOL    MW4 5776   4.042   3.484   2.311
 1437SOL     OW 5777   4.286   3.597   2.270
 1437SOL    HW2 5778   4.280   3.686   2.304
 1437SOL    HW3 5779   4.310   3.608   2.178
 1437SOL    MW4 5780   4.288   3.610   2.262
 1438SOL     OW 5781   4.257   3.859   2.355
 1438SOL    HW2 5782   4.265   3.868   2.450
 1438SOL    HW3 5783   4.332   3.907   2.320
 1438SOL    MW4 5784   4.268   3.866   2.363
 1439SOL     OW 5785   4.024   3.999   2.235
 1439SOL    HW2 5786   4.093   3.943   2.271
 1439SOL    HW3 5787   4.046   4.007   2.142
 1439SOL    MW4 5788   4.036   3.992   2.227
 1440SOL     OW 5789   4.013   4.263   2.365
 1440SOL    HW2 5790   4.083   4.314   2.324
 1440SOL    HW3 5791   4.014   4.179   2.320
 1440SOL    MW4 5792   4.023   4.259   2.354
 1441SOL     OW 5793   4.238   4.365   2.237
 1441SOL    HW2 5794   4.239   4.457   2.265
 1441SOL    HW3 5795   4.299   4.321   2.296
 1441SOL    MW4 5796   4.246   4.372   2.248
 1442SOL     OW 5797   0.206   0.043   2.654
 1442SOL    HW2 5798   0.211  -0.043   2.695
 1442SOL    HW3 5799   0.127   0.083   2.690
 1442SOL    MW4 5800   0.197   0.037   2.664
 1443SOL     OW 5801   4.444   0.123   2.738
 1443SOL    HW2 5802   4.446   0.142   2.832
 1443SOL    HW3 5803   4.435   0.209   2.697
 1443SOL    MW4 5804   4.443   0.137   2.745
 1444SOL     OW 5805   4.459   0.379   2.645
 1444SOL    HW2 5806   4.532   0.420   2.690
 1444SOL    HW3 5807   4.478   0.390   2.552
 1444SOL    MW4 5808   4.471   0.386   2.638
 1445SOL     OW 5809   0.216   0.491   2.734
 1445SOL    HW2 5810   0.220   0.485   2.829
 1445SOL    HW3 5811   0.293   0.445   2.703
 1445SOL    MW4 5812   0.226   0.485   2.743
 1446SOL     OW 5813   0.208   0.744   2.612
 1446SOL    HW2 5814   0.288   0.780   2.650
 1446SOL    HW3 5815   0.199   0.658   2.653
 1446SOL    MW4 5816   0.218   0.737   2.623
 1447SOL     OW 5817   4.472   0.872   2.725
 1447SOL    HW2 5818   4.405   0.837   2.667
 1447SOL    HW3 5819   4.554   0.834   2.693
 1447SOL    MW4 5820   4.474   0.862   2.713
 1448SOL     OW 5821   4.479   1.166   2.660
 1448SOL    HW2 5822   4.563   1.189   2.701
 1448SOL    HW3 5823   4.465   1.074   2.682
 1448SOL    MW4 5824   4.488   1.157   2.668
 1449SOL     OW 5825   0.230   1.267   2.742
 1449SOL    HW2 5826   0.316   1.232   2.719
 1449SOL    HW3 5827   0.225   1.352   2.698
 1449SOL    MW4 5828   0.240   1.274   2.733
 1450SOL     OW 5829   0.225   1.495   2.616
 1450SOL    HW2 5830   0.310   1.532   2.639
 1450SOL    HW3 5831   0.161   1.553   2.657
 1450SOL    MW4 5832   0.228   1.507   2.624
 1451SOL     OW 5833   0.029   1.671   2.722
 1451SOL    HW2 5834   0.028   1.669   2.818
 1451SOL    HW3 5835   0.018   1.764   2.700
 1451SOL    MW4 5836   0.027   1.683   2.732
 1452SOL     OW 5837   0.022   1.919   2.603
 1452SOL    HW2 5838   0.110   1.951   2.623
 1452SOL    HW3 5839   0.009   1.942   2.511
 1452SOL    MW4 5840   0.032   1.927   2.594
 1453SOL     OW 5841   0.257   2.052   2.690
 1453SOL    HW2 5842   0.330   2.010   2.644
 1453SOL    HW3 5843   0.263   2.145   2.666
 1453SOL    MW4 5844   0.267   2.059   2.681
 1454SOL     OW 5845   0.257   2.307   2.626
 1454SOL    HW2 5846   0.334   2.351   2.663
 1454SOL    HW3 5847   0.182   2.353   2.665
 1454SOL    MW4 5848   0.257   2.319   2.636
 1455SOL     OW 5849   0.017   2.427   2.693
 1455SOL    HW2 5850   0.003   2.450   2.785
 1455SOL    HW3 5851  -0.058   2.373   2.670
 1455SOL    MW4 5852   0.006   2.423   2.702
 1456SOL     OW 5853   0.019   2.699   2.609
 1456SOL    HW2 5854  -0.047   2.734   2.670
 1456SOL    HW3 5855   0.018   2.605   2.625
 1456SOL    MW4 5856   0.010   2.691   2.619
 1457SOL     OW 5857   0.236   2.807   2.728
 1457SOL    HW2 5858   0.249   2.897   2.697
 1457SOL    HW3 5859   0.154   2.779   2.688
 1457SOL    MW4 5860   0.227   2.815   2.719
 1458SOL     OW 5861   0.246   3.060   2.631
 1458SOL    HW2 5862   0.317   3.114   2.665
 1458SOL    HW3 5863   0.253   3.069   2.536
 1458SOL    MW4 5864   0.256   3.069   2.623
 1459SOL     OW 5865   0.021   3.184   2.746
 1459SOL    HW2 5866  -0.057   3.141   2.711
 1459SOL    HW3 5867   0.094   3.131   2.713
 1459SOL    MW4 5868   0.020   3.171   2.737
 1460SOL     OW 5869   0.015   3.450   2.609
 1460SOL    HW2 5870   0.093   3.497   2.641
 1460SOL    HW3 5871   0.008   3.374   2.667
 1460SOL    MW4 5872   0.025   3.446   2.621
 1461SOL     OW 5873   0.225   3.624   2.704
 1461SOL    HW2 5874   0.236   3.619   2.799
 1461SOL    HW3 5875   0.308   3.593   2.668
 1461SOL    MW4 5876   0.237   3.619   2.711
 1462SOL     OW 5877   0.254   3.897   2.630
 1462SOL    HW2 5878   0.238   3.805   2.649
 1462SOL    HW3 5879   0.258   3.903   2.535
 1462SOL    MW4 5880   0.252   3.886   2.620
 1463SOL     OW 5881   0.011   4.017   2.729
 1463SOL    HW2 5882   0.015   4.108   2.698
 1463SOL    HW3 5883   0.099   3.982   2.712
 1463SOL    MW4 5884   0.023   4.025   2.723
 1464SOL     OW 5885   4.461   4.295   2.659
 1464SOL    HW2 5886   4.385   4.331   2.705
 1464SOL    HW3 5887   4.533   4.356   2.680
 1464SOL    MW4 5888   4.461   4.308   2.668
 1465SOL     OW 5889   0.212   4.456   2.766
 1465SOL    HW2 5890   0.197   4.437   2.859
 1465SOL    HW3 5891   0.295   4.412   2.746
 1465SOL    MW4 5892   0.221   4.447   2.776
 1466SOL     OW 5893   0.668   4.647   2.590
 1466SOL    HW2 5894   0.753   4.686   2.612
 1466SOL    HW3 5895   0.604   4.701   2.637
 1466SOL    MW4 5896   0.671   4.659   2.599
 1467SOL     OW 5897   0.462   0.127   2.700
 1467SOL    HW2 5898   0.464   0.119   2.796
 1467SOL    HW3 5899   0.380   0.085   2.674
 1467SOL    MW4 5900   0.451   0.120   2.709
 1468SOL     OW 5901   0.454   0.382   2.603
 1468SOL    HW2 5902   0.532   0.422   2.641
 1468SOL    HW3 5903   0.451   0.294   2.641
 1468SOL    MW4 5904   0.464   0.375   2.613
 1469SOL     OW 5905   0.659   0.519   2.755
 1469SOL    HW2 5906   0.652   0.499   2.849
 1469SOL    HW3 5907   0.729   0.462   2.724
 1469SOL    MW4 5908   0.667   0.508   2.763
 1470SOL     OW 5909   0.679   0.749   2.603
 1470SOL    HW2 5910   0.749   0.796   2.648
 1470SOL    HW3 5911   0.659   0.676   2.661
 1470SOL    MW4 5912   0.685   0.746   2.617
 1471SOL     OW 5913   0.441   0.837   2.718
 1471SOL    HW2 5914   0.439   0.933   2.711
 1471SOL    HW3 5915   0.519   0.811   2.668
 1471SOL    MW4 5916   0.451   0.846   2.710
 1472SOL     OW 5917   0.445   1.112   2.657
 1472SOL    HW2 5918   0.527   1.159   2.672
 1472SOL    HW3 5919   0.435   1.110   2.562
 1472SOL    MW4 5920   0.454   1.118   2.647
 1473SOL     OW 5921   0.687   1.254   2.706
 1473SOL    HW2 5922   0.693   1.250   2.801
 1473SOL    HW3 5923   0.771   1.221   2.675
 1473SOL    MW4 5924   0.699   1.249   2.714
 1474SOL     OW 5925   0.684   1.497   2.620
 1474SOL    HW2 5926   0.599   1.534   2.643
 1474SOL    HW3 5927   0.681   1.407   2.653
 1474SOL    MW4 5928   0.672   1.490   2.628
 1475SOL     OW 5929   0.452   1.635   2.697
 1475SOL    HW2 5930   0.451   1.647   2.792
 1475SOL    HW3 5931   0.454   1.724   2.662
 1475SOL    MW4 5932   0.452   1.649   2.705
 1476SOL     OW 5933   0.452   1.921   2.575
 1476SOL    HW2 5934   0.530   1.959   2.615
 1476SOL    HW3 5935   0.468   1.926   2.481
 1476SOL    MW4 5936   0.464   1.927   2.568
 1477SOL     OW 5937   0.653   2.013   2.744
 1477SOL    HW2 5938   0.670   2.038   2.835
 1477SOL    HW3 5939   0.735   1.971   2.716
 1477SOL    MW4 5940   0.666   2.011   2.752
 1478SOL     OW 5941   0.641   2.273   2.631
 1478SOL    HW2 5942   0.714   2.319   2.673
 1478SOL    HW3 5943   0.636   2.189   2.677
 1478SOL    MW4 5944   0.650   2.268   2.643
 1479SOL     OW 5945   0.460   2.449   2.757
 1479SOL    HW2 5946   0.467   2.536   2.718
 1479SOL    HW3 5947   0.532   2.399   2.719
 1479SOL    MW4 5948   0.470   2.454   2.747
 1480SOL     OW 5949   0.468   2.681   2.608
 1480SOL    HW2 5950   0.538   2.734   2.645
 1480SOL    HW3 5951   0.388   2.724   2.637
 1480SOL    MW4 5952   0.467   2.694   2.617
 1481SOL     OW 5953   0.665   2.832   2.745
 1481SOL    HW2 5954   0.692   2.839   2.836
 1481SOL    HW3 5955   0.673   2.921   2.711
 1481SOL    MW4 5956   0.670   2.845   2.752
 1482SOL     OW 5957   0.708   3.087   2.611
 1482SOL    HW2 5958   0.775   3.148   2.641
 1482SOL    HW3 5959   0.713   3.090   2.516
 1482SOL    MW4 5960   0.717   3.096   2.603
 1483SOL     OW 5961   0.472   3.198   2.714
 1483SOL    HW2 5962   0.482   3.221   2.806
 1483SOL    HW3 5963   0.557   3.161   2.689
 1483SOL    MW4 5964   0.485   3.196   2.723
 1484SOL     OW 5965   0.465   3.459   2.631
 1484SOL    HW2 5966   0.477   3.365   2.648
 1484SOL    HW3 5967   0.472   3.466   2.535
 1484SOL    MW4 5968   0.467   3.447   2.620
 1485SOL     OW 5969   0.684   3.642   2.709
 1485SOL    HW2 5970   0.693   3.641   2.805
 1485SOL    HW3 5971   0.608   3.587   2.692
 1485SOL    MW4 5972   0.675   3.635   2.720
 1486SOL     OW 5973   0.649   3.905   2.636
 1486SOL    HW2 5974   0.578   3.950   2.681
 1486SOL    HW3 5975   0.642   3.813   2.664
 1486SOL    MW4 5976   0.639   3.898   2.645
 1487SOL     OW 5977   0.447   4.043   2.758
 1487SOL    HW2 5978   0.436   4.132   2.726
 1487SOL    HW3 5979   0.376   3.994   2.716
 1487SOL    MW4 5980   0.436   4.048   2.748
 1488SOL     OW 5981   0.423   4.303   2.657
 1488SOL    HW2 5982   0.508   4.338   2.681
 1488SOL    HW3 5983   0.427   4.294   2.562
 1488SOL    MW4 5984   0.434   4.307   2.648
 1489SOL     OW 5985   0.656   4.410   2.753
 1489SOL    HW2 5986   0.740   4.364   2.749
 1489SOL    HW3 5987   0.671   4.492   2.707
 1489SOL    MW4 5988   0.669   4.415   2.746
 1490SOL     OW 5989   1.139   4.616   2.631
 1490SOL    HW2 5990   1.218   4.662   2.659
 1490SOL    HW3 5991   1.146   4.529   2.672
 1490SOL    MW4 5992   1.150   4.610   2.640
 1491SOL     OW 5993   0.889   0.099   2.707
 1491SOL    HW2 5994   0.864   0.115   2.798
 1491SOL    HW3 5995   0.982   0.076   2.711
 1491SOL    MW4 5996   0.898   0.098   2.719
 1492SOL     OW 5997   0.853   0.378   2.627
 1492SOL    HW2 5998   0.859   0.283   2.640
 1492SOL    HW3 5999   0.858   0.390   2.533
 1492SOL    MW4 6000   0.854   0.367   2.617
 1493SOL     OW 6001   1.122   0.466   2.724
 1493SOL    HW2 6002   1.112   0.561   2.716
 1493SOL    HW3 6003   1.037   0.430   2.698
 1493SOL    MW4 6004   1.110   0.474   2.719
 1494SOL     OW 6005   1.109   0.739   2.643
 1494SOL    HW2 6006   1.188   0.792   2.662
 1494SOL    HW3 6007   1.106   0.733   2.548
 1494SOL    MW4 6008   1.119   0.745   2.633
 1495SOL     OW 6009   0.902   0.897   2.731
 1495SOL    HW2 6010   0.929   0.927   2.819
 1495SOL    HW3 6011   0.976   0.845   2.700
 1495SOL    MW4 6012   0.915   0.894   2.739
 1496SOL     OW 6013   0.925   1.146   2.613
 1496SOL    HW2 6014   0.909   1.061   2.654
 1496SOL    HW3 6015   0.950   1.124   2.523
 1496SOL    MW4 6016   0.926   1.132   2.606
 1497SOL     OW 6017   1.132   1.287   2.718
 1497SOL    HW2 6018   1.120   1.376   2.687
 1497SOL    HW3 6019   1.052   1.241   2.693
 1497SOL    MW4 6020   1.120   1.292   2.711
 1498SOL     OW 6021   1.106   1.554   2.664
 1498SOL    HW2 6022   1.020   1.586   2.690
 1498SOL    HW3 6023   1.103   1.552   2.569
 1498SOL    MW4 6024   1.094   1.558   2.655
 1499SOL     OW 6025   0.863   1.658   2.756
 1499SOL    HW2 6026   0.868   1.647   2.851
 1499SOL    HW3 6027   0.792   1.600   2.728
 1499SOL    MW4 6028   0.854   1.649   2.765
 1500SOL     OW 6029   0.898   1.929   2.650
 1500SOL    HW2 6030   0.961   1.986   2.695
 1500SOL    HW3 6031   0.904   1.846   2.697
 1500SOL    MW4 6032   0.907   1.926   2.662
 1501SOL     OW 6033   1.104   2.062   2.786
 1501SOL    HW2 6034   1.174   2.005   2.753
 1501SOL    HW3 6035   1.109   2.140   2.732
 1501SOL    MW4 6036   1.114   2.065   2.774
 1502SOL     OW 6037   1.098   2.307   2.643
 1502SOL    HW2 6038   1.167   2.366   2.671
 1502SOL    HW3 6039   1.100   2.312   2.547
 1502SOL    MW4 6040   1.107   2.315   2.634
 1503SOL     OW 6041   0.849   2.408   2.738
 1503SOL    HW2 6042   0.854   2.500   2.711
 1503SOL    HW3 6043   0.931   2.370   2.707
 1503SOL    MW4 6044   0.861   2.415   2.730
 1504SOL     OW 6045   0.876   2.669   2.656
 1504SOL    HW2 6046   0.954   2.720   2.671
 1504SOL    HW3 6047   0.804   2.722   2.690
 1504SOL    MW4 6048   0.877   2.683   2.662
 1505SOL     OW 6049   1.083   2.832   2.714
 1505SOL    HW2 6050   1.106   2.825   2.807
 1505SOL    HW3 6051   1.159   2.795   2.668
 1505SOL    MW4 6052   1.096   2.826   2.720
 1506SOL     OW 6053   1.148   3.096   2.640
 1506SOL    HW2 6054   1.122   3.007   2.663
 1506SOL    HW3 6055   1.136   3.101   2.545
 1506SOL    MW4 6056   1.143   3.085   2.630
 1507SOL     OW 6057   0.919   3.208   2.731
 1507SOL    HW2 6058   0.903   3.286   2.678
 1507SOL    HW3 6059   1.006   3.179   2.703
 1507SOL    MW4 6060   0.928   3.215   2.720
 1508SOL     OW 6061   0.887   3.462   2.591
 1508SOL    HW2 6062   0.961   3.508   2.633
 1508SOL    HW3 6063   0.810   3.512   2.620
 1508SOL    MW4 6064   0.887   3.475   2.600
 1509SOL     OW 6065   1.102   3.599   2.706
 1509SOL    HW2 6066   1.101   3.626   2.798
 1509SOL    HW3 6067   1.100   3.681   2.657
 1509SOL    MW4 6068   1.102   3.613   2.712
 1510SOL     OW 6069   1.098   3.851   2.594
 1510SOL    HW2 6070   1.178   3.889   2.631
 1510SOL    HW3 6071   1.110   3.859   2.499
 1510SOL    MW4 6072   1.110   3.857   2.586
 1511SOL     OW 6073   0.893   4.008   2.733
 1511SOL    HW2 6074   0.958   3.963   2.678
 1511SOL    HW3 6075   0.809   3.970   2.706
 1511SOL    MW4 6076   0.890   3.997   2.722
 1512SOL     OW 6077   0.888   4.266   2.658
 1512SOL    HW2 6078   0.892   4.174   2.683
 1512SOL    HW3 6079   0.884   4.265   2.562
 1512SOL    MW4 6080   0.888   4.254   2.649
 1513SOL     OW 6081   1.144   4.351   2.727
 1513SOL    HW2 6082   1.137   4.378   2.819
 1513SOL    HW3 6083   1.055   4.327   2.702
 1513SOL    MW4 6084   1.131   4.351   2.736
 1514SOL     OW 6085   1.520   4.629   2.586
 1514SOL    HW2 6086   1.561   4.555   2.631
 1514SOL    HW3 6087   1.540   4.615   2.494
 1514SOL    MW4 6088   1.528   4.618   2.580
 1515SOL     OW 6089   1.342   0.088   2.756
 1515SOL    HW2 6090   1.348   0.179   2.727
 1515SOL    HW3 6091   1.403   0.041   2.700
 1515SOL    MW4 6092   1.351   0.094   2.745
 1516SOL     OW 6093   1.340   0.325   2.614
 1516SOL    HW2 6094   1.421   0.372   2.633
 1516SOL    HW3 6095   1.271   0.381   2.647
 1516SOL    MW4 6096   1.342   0.338   2.621
 1517SOL     OW 6097   1.556   0.499   2.693
 1517SOL    HW2 6098   1.636   0.459   2.658
 1517SOL    HW3 6099   1.544   0.578   2.640
 1517SOL    MW4 6100   1.565   0.504   2.681
 1518SOL     OW 6101   1.540   0.746   2.576
 1518SOL    HW2 6102   1.463   0.797   2.603
 1518SOL    HW3 6103   1.543   0.755   2.481
 1518SOL    MW4 6104   1.530   0.754   2.567
 1519SOL     OW 6105   1.343   0.893   2.688
 1519SOL    HW2 6106   1.370   0.889   2.780
 1519SOL    HW3 6107   1.333   0.986   2.669
 1519SOL    MW4 6108   1.345   0.904   2.698
 1520SOL     OW 6109   1.352   1.155   2.627
 1520SOL    HW2 6110   1.428   1.203   2.661
 1520SOL    HW3 6111   1.277   1.206   2.657
 1520SOL    MW4 6112   1.352   1.168   2.636
 1521SOL     OW 6113   1.593   1.302   2.720
 1521SOL    HW2 6114   1.607   1.306   2.814
 1521SOL    HW3 6115   1.648   1.229   2.690
 1521SOL    MW4 6116   1.602   1.293   2.728
 1522SOL     OW 6117   1.546   1.563   2.660
 1522SOL    HW2 6118   1.565   1.471   2.679
 1522SOL    HW3 6119   1.533   1.565   2.565
 1522SOL    MW4 6120   1.547   1.551   2.650
 1523SOL     OW 6121   1.315   1.683   2.763
 1523SOL    HW2 6122   1.385   1.629   2.729
 1523SOL    HW3 6123   1.235   1.647   2.724
 1523SOL    MW4 6124   1.314   1.671   2.753
 1524SOL     OW 6125   1.321   1.927   2.658
 1524SOL    HW2 6126   1.323   1.836   2.688
 1524SOL    HW3 6127   1.317   1.921   2.563
 1524SOL    MW4 6128   1.320   1.914   2.650
 1525SOL     OW 6129   1.537   2.085   2.734
 1525SOL    HW2 6130   1.612   2.026   2.725
 1525SOL    HW3 6131   1.462   2.033   2.703
 1525SOL    MW4 6132   1.537   2.070   2.729
 1526SOL     OW 6133   1.534   2.336   2.630
 1526SOL    HW2 6134   1.613   2.363   2.677
 1526SOL    HW3 6135   1.523   2.244   2.652
 1526SOL    MW4 6136   1.543   2.328   2.639
 1527SOL     OW 6137   1.305   2.475   2.745
 1527SOL    HW2 6138   1.304   2.559   2.698
 1527SOL    HW3 6139   1.370   2.423   2.699
 1527SOL    MW4 6140   1.314   2.479   2.733
 1528SOL     OW 6141   1.331   2.750   2.615
 1528SOL    HW2 6142   1.412   2.781   2.656
 1528SOL    HW3 6143   1.359   2.718   2.529
 1528SOL    MW4 6144   1.346   2.750   2.609
 1529SOL     OW 6145   1.594   2.828   2.715
 1529SOL    HW2 6146   1.586   2.827   2.810
 1529SOL    HW3 6147   1.661   2.762   2.697
 1529SOL    MW4 6148   1.602   2.819   2.725
 1530SOL     OW 6149   1.573   3.097   2.608
 1530SOL    HW2 6150   1.654   3.115   2.654
 1530SOL    HW3 6151   1.554   3.005   2.627
 1530SOL    MW4 6152   1.581   3.087   2.617
 1531SOL     OW 6153   1.377   3.234   2.746
 1531SOL    HW2 6154   1.450   3.196   2.698
 1531SOL    HW3 6155   1.302   3.178   2.725
 1531SOL    MW4 6156   1.377   3.222   2.737
 1532SOL     OW 6157   1.325   3.491   2.614
 1532SOL    HW2 6158   1.330   3.409   2.664
 1532SOL    HW3 6159   1.248   3.535   2.650
 1532SOL    MW4 6160   1.316   3.486   2.626
 1533SOL     OW 6161   1.580   3.609   2.719
 1533SOL    HW2 6162   1.655   3.556   2.690
 1533SOL    HW3 6163   1.504   3.566   2.680
 1533SOL    MW4 6164   1.580   3.596   2.710
 1534SOL     OW 6165   1.606   3.853   2.614
 1534SOL    HW2 6166   1.519   3.887   2.633
 1534SOL    HW3 6167   1.601   3.761   2.639
 1534SOL    MW4 6168   1.594   3.845   2.619
 1535SOL     OW 6169   1.361   3.984   2.658
 1535SOL    HW2 6170   1.363   3.984   2.754
 1535SOL    HW3 6171   1.360   4.077   2.634
 1535SOL    MW4 6172   1.361   3.996   2.668
 1536SOL     OW 6173   1.384   4.257   2.638
 1536SOL    HW2 6174   1.303   4.304   2.658
 1536SOL    HW3 6175   1.396   4.268   2.544
 1536SOL    MW4 6176   1.375   4.265   2.628
 1537SOL     OW 6177   1.613   4.403   2.732
 1537SOL    HW2 6178   1.611   4.400   2.827
 1537SOL    HW3 6179   1.534   4.356   2.705
 1537SOL    MW4 6180   1.602   4.396   2.741
 1538SOL     OW 6181   2.001   4.642   2.618
 1538SOL    HW2 6182   2.049   4.713   2.661
 1538SOL    HW3 6183   2.026   4.649   2.526
 1538SOL    MW4 6184   2.011   4.652   2.611
 1539SOL     OW 6185   1.770   0.064   2.729
 1539SOL    HW2 6186   1.841   0.016   2.688
 1539SOL    HW3 6187   1.691   0.032   2.686
 1539SOL    MW4 6188   1.769   0.053   2.718
 1540SOL     OW 6189   1.777   0.334   2.634
 1540SOL    HW2 6190   1.861   0.363   2.670
 1540SOL    HW3 6191   1.762   0.248   2.673
 1540SOL    MW4 6192   1.786   0.326   2.644
 1541SOL     OW 6193   2.001   0.467   2.693
 1541SOL    HW2 6194   2.086   0.426   2.674
 1541SOL    HW3 6195   2.018   0.561   2.684
 1541SOL    MW4 6196   2.015   0.474   2.689
 1542SOL     OW 6197   2.004   0.762   2.641
 1542SOL    HW2 6198   1.926   0.807   2.671
 1542SOL    HW3 6199   2.002   0.771   2.546
 1542SOL    MW4 6200   1.994   0.769   2.632
 1543SOL     OW 6201   1.762   0.877   2.726
 1543SOL    HW2 6202   1.752   0.963   2.686
 1543SOL    HW3 6203   1.695   0.823   2.683
 1543SOL    MW4 6204   1.752   0.881   2.715
 1544SOL     OW 6205   1.778   1.128   2.626
 1544SOL    HW2 6206   1.852   1.181   2.656
 1544SOL    HW3 6207   1.796   1.114   2.533
 1544SOL    MW4 6208   1.790   1.133   2.617
 1545SOL     OW 6209   1.974   1.301   2.683
 1545SOL    HW2 6210   1.982   1.324   2.776
 1545SOL    HW3 6211   2.063   1.276   2.657
 1545SOL    MW4 6212   1.987   1.301   2.692
 1546SOL     OW 6213   2.007   1.556   2.604
 1546SOL    HW2 6214   1.931   1.601   2.641
 1546SOL    HW3 6215   1.992   1.463   2.625
 1546SOL    MW4 6216   1.995   1.549   2.612
 1547SOL     OW 6217   1.765   1.703   2.741
 1547SOL    HW2 6218   1.769   1.703   2.837
 1547SOL    HW3 6219   1.683   1.660   2.720
 1547SOL    MW4 6220   1.755   1.697   2.751
 1548SOL     OW 6221   1.774   1.961   2.644
 1548SOL    HW2 6222   1.856   1.981   2.690
 1548SOL    HW3 6223   1.755   1.871   2.667
 1548SOL    MW4 6224   1.782   1.952   2.653
 1549SOL     OW 6225   2.037   2.024   2.736
 1549SOL    HW2 6226   2.025   2.044   2.829
 1549SOL    HW3 6227   2.025   2.108   2.692
 1549SOL    MW4 6228   2.034   2.038   2.743
 1550SOL     OW 6229   2.018   2.287   2.642
 1550SOL    HW2 6230   2.088   2.337   2.685
 1550SOL    HW3 6231   2.032   2.301   2.549
 1550SOL    MW4 6232   2.029   2.296   2.636
 1551SOL     OW 6233   1.778   2.406   2.733
 1551SOL    HW2 6234   1.781   2.430   2.826
 1551SOL    HW3 6235   1.862   2.361   2.718
 1551SOL    MW4 6236   1.790   2.403   2.744
 1552SOL     OW 6237   1.827   2.663   2.645
 1552SOL    HW2 6238   1.835   2.569   2.661
 1552SOL    HW3 6239   1.805   2.670   2.552
 1552SOL    MW4 6240   1.825   2.651   2.635
 1553SOL     OW 6241   2.013   2.834   2.755
 1553SOL    HW2 6242   2.090   2.789   2.721
 1553SOL    HW3 6243   1.941   2.805   2.698
 1553SOL    MW4 6244   2.014   2.824   2.743
 1554SOL     OW 6245   2.043   3.055   2.599
 1554SOL    HW2 6246   2.031   2.969   2.639
 1554SOL    HW3 6247   2.008   3.045   2.511
 1554SOL    MW4 6248   2.037   3.042   2.593
 1555SOL     OW 6249   1.813   3.163   2.756
 1555SOL    HW2 6250   1.799   3.250   2.717
 1555SOL    HW3 6251   1.897   3.134   2.719
 1555SOL    MW4 6252   1.822   3.171   2.746
 1556SOL     OW 6253   1.774   3.414   2.637
 1556SOL    HW2 6254   1.857   3.457   2.658
 1556SOL    HW3 6255   1.781   3.394   2.543
 1556SOL    MW4 6256   1.786   3.417   2.627
 1557SOL     OW 6257   1.985   3.583   2.675
 1557SOL    HW2 6258   1.992   3.595   2.770
 1557SOL    HW3 6259   2.070   3.546   2.650
 1557SOL    MW4 6260   1.997   3.580   2.684
 1558SOL     OW 6261   2.033   3.857   2.634
 1558SOL    HW2 6262   1.946   3.892   2.658
 1558SOL    HW3 6263   2.027   3.764   2.655
 1558SOL    MW4 6264   2.020   3.849   2.640
 1559SOL     OW 6265   1.835   3.992   2.746
 1559SOL    HW2 6266   1.847   4.082   2.714
 1559SOL    HW3 6267   1.756   3.962   2.702
 1559SOL    MW4 6268   1.826   4.000   2.736
 1560SOL     OW 6269   1.830   4.256   2.666
 1560SOL    HW2 6270   1.761   4.316   2.697
 1560SOL    HW3 6271   1.832   4.268   2.571
 1560SOL    MW4 6272   1.821   4.266   2.658
 1561SOL     OW 6273   2.063   4.407   2.768
 1561SOL    HW2 6274   1.976   4.371   2.750
 1561SOL    HW3 6275   2.062   4.494   2.728
 1561SOL    MW4 6276   2.052   4.414   2.760
 1562SOL     OW 6277   2.408   4.653   2.646
 1562SOL    HW2 6278   2.476   4.692   2.701
 1562SOL    HW3 6279   2.437   4.672   2.557
 1562SOL    MW4 6280   2.421   4.661   2.642
 1563SOL     OW 6281   2.195   0.113   2.749
 1563SOL    HW2 6282   2.205   0.105   2.844
 1563SOL    HW3 6283   2.259   0.052   2.714
 1563SOL    MW4 6284   2.205   0.104   2.757
 1564SOL     OW 6285   2.254   0.360   2.656
 1564SOL    HW2 6286   2.241   0.267   2.674
 1564SOL    HW3 6287   2.253   0.367   2.560
 1564SOL    MW4 6288   2.252   0.349   2.645
 1565SOL     OW 6289   2.467   0.516   2.725
 1565SOL    HW2 6290   2.450   0.610   2.715
 1565SOL    HW3 6291   2.383   0.474   2.706
 1565SOL    MW4 6292   2.454   0.523   2.721
 1566SOL     OW 6293   2.422   0.783   2.672
 1566SOL    HW2 6294   2.353   0.842   2.702
 1566SOL    HW3 6295   2.408   0.776   2.577
 1566SOL    MW4 6296   2.411   0.790   2.663
 1567SOL     OW 6297   2.202   0.936   2.742
 1567SOL    HW2 6298   2.204   0.934   2.838
 1567SOL    HW3 6299   2.128   0.880   2.719
 1567SOL    MW4 6300   2.192   0.929   2.752
 1568SOL     OW 6301   2.227   1.172   2.599
 1568SOL    HW2 6302   2.222   1.089   2.647
 1568SOL    HW3 6303   2.236   1.146   2.507
 1568SOL    MW4 6304   2.228   1.158   2.593
 1569SOL     OW 6305   2.442   1.296   2.729
 1569SOL    HW2 6306   2.513   1.248   2.686
 1569SOL    HW3 6307   2.362   1.263   2.688
 1569SOL    MW4 6308   2.441   1.285   2.718
 1570SOL     OW 6309   2.443   1.546   2.624
 1570SOL    HW2 6310   2.366   1.590   2.658
 1570SOL    HW3 6311   2.445   1.462   2.670
 1570SOL    MW4 6312   2.433   1.541   2.635
 1571SOL     OW 6313   2.223   1.676   2.711
 1571SOL    HW2 6314   2.234   1.767   2.683
 1571SOL    HW3 6315   2.134   1.653   2.684
 1571SOL    MW4 6316   2.213   1.685   2.704
 1572SOL     OW 6317   2.268   1.941   2.621
 1572SOL    HW2 6318   2.184   1.977   2.652
 1572SOL    HW3 6319   2.254   1.928   2.527
 1572SOL    MW4 6320   2.255   1.944   2.612
 1573SOL     OW 6321   2.468   2.073   2.746
 1573SOL    HW2 6322   2.466   2.158   2.702
 1573SOL    HW3 6323   2.394   2.025   2.709
 1573SOL    MW4 6324   2.458   2.078   2.736
 1574SOL     OW 6325   2.485   2.315   2.616
 1574SOL    HW2 6326   2.569   2.357   2.629
 1574SOL    HW3 6327   2.474   2.314   2.520
 1574SOL    MW4 6328   2.494   2.320   2.605
 1575SOL     OW 6329   2.242   2.445   2.720
 1575SOL    HW2 6330   2.250   2.440   2.816
 1575SOL    HW3 6331   2.311   2.388   2.687
 1575SOL    MW4 6332   2.252   2.437   2.729
 1576SOL     OW 6333   2.244   2.728   2.635
 1576SOL    HW2 6334   2.326   2.757   2.673
 1576SOL    HW3 6335   2.247   2.632   2.642
 1576SOL    MW4 6336   2.255   2.719   2.641
 1577SOL     OW 6337   2.461   2.849   2.769
 1577SOL    HW2 6338   2.535   2.815   2.719
 1577SOL    HW3 6339   2.448   2.937   2.736
 1577SOL    MW4 6340   2.469   2.856   2.758
 1578SOL     OW 6341   2.467   3.091   2.635
 1578SOL    HW2 6342   2.396   3.143   2.674
 1578SOL    HW3 6343   2.453   3.099   2.541
 1578SOL    MW4 6344   2.455   3.099   2.628
 1579SOL     OW 6345   2.234   3.231   2.753
 1579SOL    HW2 6346   2.222   3.224   2.848
 1579SOL    HW3 6347   2.172   3.167   2.717
 1579SOL    MW4 6348   2.224   3.222   2.761
 1580SOL     OW 6349   2.234   3.480   2.603
 1580SOL    HW2 6350   2.310   3.523   2.643
 1580SOL    HW3 6351   2.229   3.395   2.647
 1580SOL    MW4 6352   2.243   3.475   2.614
 1581SOL     OW 6353   2.458   3.600   2.706
 1581SOL    HW2 6354   2.446   3.600   2.801
 1581SOL    HW3 6355   2.455   3.693   2.682
 1581SOL    MW4 6356   2.456   3.612   2.716
 1582SOL     OW 6357   2.465   3.880   2.632
 1582SOL    HW2 6358   2.547   3.918   2.665
 1582SOL    HW3 6359   2.397   3.917   2.688
 1582SOL    MW4 6360   2.467   3.890   2.643
 1583SOL     OW 6361   2.248   4.005   2.746
 1583SOL    HW2 6362   2.228   4.027   2.837
 1583SOL    HW3 6363   2.175   3.950   2.718
 1583SOL    MW4 6364   2.235   4.001   2.754
 1584SOL     OW 6365   2.273   4.249   2.660
 1584SOL    HW2 6366   2.258   4.161   2.692
 1584SOL    HW3 6367   2.213   4.304   2.710
 1584SOL    MW4 6368   2.263   4.245   2.671
 1585SOL     OW 6369   2.495   4.383   2.728
 1585SOL    HW2 6370   2.423   4.329   2.694
 1585SOL    HW3 6371   2.471   4.472   2.703
 1585SOL    MW4 6372   2.482   4.388   2.720
 1586SOL     OW 6373   2.888   0.001   2.636
 1586SOL    HW2 6374   2.969   0.038   2.670
 1586SOL    HW3 6375   2.894   0.012   2.542
 1586SOL    MW4 6376   2.899   0.007   2.628
 1587SOL     OW 6377   2.647   0.105   2.757
 1587SOL    HW2 6378   2.672   0.123   2.847
 1587SOL    HW3 6379   2.727   0.073   2.715
 1587SOL    MW4 6380   2.661   0.103   2.763
 1588SOL     OW 6381   2.667   0.378   2.608
 1588SOL    HW2 6382   2.667   0.299   2.661
 1588SOL    HW3 6383   2.601   0.434   2.649
 1588SOL    MW4 6384   2.658   0.375   2.620
 1589SOL     OW 6385   2.875   0.510   2.723
 1589SOL    HW2 6386   2.882   0.599   2.688
 1589SOL    HW3 6387   2.810   0.467   2.666
 1589SOL    MW4 6388   2.867   0.516   2.711
 1590SOL     OW 6389   2.871   0.764   2.607
 1590SOL    HW2 6390   2.938   0.808   2.660
 1590SOL    HW3 6391   2.788   0.803   2.636
 1590SOL    MW4 6392   2.869   0.775   2.618
 1591SOL     OW 6393   2.666   0.907   2.711
 1591SOL    HW2 6394   2.677   0.897   2.806
 1591SOL    HW3 6395   2.578   0.876   2.694
 1591SOL    MW4 6396   2.656   0.901   2.721
 1592SOL     OW 6397   2.653   1.161   2.630
 1592SOL    HW2 6398   2.744   1.185   2.650
 1592SOL    HW3 6399   2.645   1.070   2.659
 1592SOL    MW4 6400   2.664   1.152   2.636
 1593SOL     OW 6401   2.919   1.272   2.693
 1593SOL    HW2 6402   2.935   1.270   2.787
 1593SOL    HW3 6403   2.987   1.216   2.656
 1593SOL    MW4 6404   2.930   1.265   2.701
 1594SOL     OW 6405   2.905   1.529   2.591
 1594SOL    HW2 6406   2.834   1.582   2.628
 1594SOL    HW3 6407   2.890   1.441   2.625
 1594SOL    MW4 6408   2.894   1.525   2.600
 1595SOL     OW 6409   2.687   1.656   2.695
 1595SOL    HW2 6410   2.699   1.651   2.790
 1595SOL    HW3 6411   2.604   1.611   2.679
 1595SOL    MW4 6412   2.677   1.650   2.706
 1596SOL     OW 6413   2.689   1.927   2.648
 1596SOL    HW2 6414   2.690   1.833   2.668
 1596SOL    HW3 6415   2.606   1.958   2.683
 1596SOL    MW4 6416   2.678   1.919   2.655
 1597SOL     OW 6417   2.907   2.095   2.691
 1597SOL    HW2 6418   2.885   2.186   2.671
 1597SOL    HW3 6419   2.828   2.046   2.669
 1597SOL    MW4 6420   2.894   2.100   2.685
 1598SOL     OW 6421   2.935   2.355   2.599
 1598SOL    HW2 6422   3.016   2.388   2.637
 1598SOL    HW3 6423   2.866   2.401   2.646
 1598SOL    MW4 6424   2.937   2.365   2.610
 1599SOL     OW 6425   2.702   2.445   2.731
 1599SOL    HW2 6426   2.704   2.450   2.826
 1599SOL    HW3 6427   2.677   2.533   2.702
 1599SOL    MW4 6428   2.699   2.457   2.740
 1600SOL     OW 6429   2.657   2.704   2.641
 1600SOL    HW2 6430   2.752   2.713   2.649
 1600SOL    HW3 6431   2.640   2.707   2.547
 1600SOL    MW4 6432   2.667   2.706   2.630
 1601SOL     OW 6433   2.931   2.769   2.689
 1601SOL    HW2 6434   2.941   2.779   2.784
 1601SOL    HW3 6435   2.926   2.859   2.657
 1601SOL    MW4 6436   2.931   2.782   2.698
 1602SOL     OW 6437   2.929   3.016   2.589
 1602SOL    HW2 6438   2.848   3.059   2.619
 1602SOL    HW3 6439   2.931   3.033   2.495
 1602SOL    MW4 6440   2.918   3.024   2.581
 1603SOL     OW 6441   2.708   3.195   2.680
 1603SOL    HW2 6442   2.702   3.290   2.666
 1603SOL    HW3 6443   2.619   3.163   2.663
 1603SOL    MW4 6444   2.695   3.204   2.676
 1604SOL     OW 6445   2.690   3.469   2.634
 1604SOL    HW2 6446   2.607   3.502   2.670
 1604SOL    HW3 6447   2.678   3.472   2.539
 1604SOL    MW4 6448   2.677   3.474   2.626
 1605SOL     OW 6449   2.923   3.596   2.709
 1605SOL    HW2 6450   2.922   3.610   2.803
 1605SOL    HW3 6451   2.837   3.558   2.689
 1605SOL    MW4 6452   2.911   3.592   2.718
 1606SOL     OW 6453   2.941   3.871   2.626
 1606SOL    HW2 6454   3.015   3.918   2.665
 1606SOL    HW3 6455   2.952   3.781   2.655
 1606SOL    MW4 6456   2.952   3.865   2.635
 1607SOL     OW 6457   2.696   3.983   2.731
 1607SOL    HW2 6458   2.693   4.073   2.699
 1607SOL    HW3 6459   2.781   3.950   2.701
 1607SOL    MW4 6460   2.707   3.990   2.723
 1608SOL     OW 6461   2.716   4.248   2.628
 1608SOL    HW2 6462   2.790   4.286   2.676
 1608SOL    HW3 6463   2.642   4.303   2.652
 1608SOL    MW4 6464   2.716   4.260   2.638
 1609SOL     OW 6465   2.922   4.409   2.763
 1609SOL    HW2 6466   2.920   4.418   2.859
 1609SOL    HW3 6467   2.921   4.499   2.731
 1609SOL    MW4 6468   2.921   4.422   2.772
 1610SOL     OW 6469   3.353   0.009   2.622
 1610SOL    HW2 6470   3.369  -0.067   2.678
 1610SOL    HW3 6471   3.277   0.052   2.662
 1610SOL    MW4 6472   3.345   0.005   2.635
 1611SOL     OW 6473   3.111   0.126   2.748
 1611SOL    HW2 6474   3.133   0.122   2.841
 1611SOL    HW3 6475   3.114   0.219   2.726
 1611SOL    MW4 6476   3.114   0.137   2.757
 1612SOL     OW 6477   3.136   0.384   2.646
 1612SOL    HW2 6478   3.063   0.438   2.673
 1612SOL    HW3 6479   3.130   0.380   2.551
 1612SOL    MW4 6480   3.126   0.390   2.637
 1613SOL     OW 6481   3.386   0.505   2.717
 1613SOL    HW2 6482   3.394   0.585   2.666
 1613SOL    HW3 6483   3.306   0.463   2.684
 1613SOL    MW4 6484   3.376   0.510   2.706
 1614SOL     OW 6485   3.343   0.766   2.633
 1614SOL    HW2 6486   3.428   0.803   2.658
 1614SOL    HW3 6487   3.341   0.772   2.538
 1614SOL    MW4 6488   3.354   0.772   2.624
 1615SOL     OW 6489   3.106   0.861   2.735
 1615SOL    HW2 6490   3.121   0.887   2.826
 1615SOL    HW3 6491   3.187   0.817   2.709
 1615SOL    MW4 6492   3.118   0.859   2.743
 1616SOL     OW 6493   3.128   1.115   2.609
 1616SOL    HW2 6494   3.121   1.022   2.632
 1616SOL    HW3 6495   3.141   1.114   2.514
 1616SOL    MW4 6496   3.129   1.102   2.599
 1617SOL     OW 6497   3.337   1.265   2.718
 1617SOL    HW2 6498   3.338   1.248   2.812
 1617SOL    HW3 6499   3.271   1.205   2.683
 1617SOL    MW4 6500   3.329   1.255   2.726
 1618SOL     OW 6501   3.347   1.555   2.629
 1618SOL    HW2 6502   3.266   1.591   2.664
 1618SOL    HW3 6503   3.352   1.467   2.667
 1618SOL    MW4 6504   3.337   1.548   2.638
 1619SOL     OW 6505   3.117   1.661   2.734
 1619SOL    HW2 6506   3.115   1.752   2.705
 1619SOL    HW3 6507   3.041   1.621   2.691
 1619SOL    MW4 6508   3.107   1.667   2.724
 1620SOL     OW 6509   3.129   1.910   2.630
 1620SOL    HW2 6510   3.201   1.951   2.678
 1620SOL    HW3 6511   3.053   1.966   2.649
 1620SOL    MW4 6512   3.128   1.923   2.639
 1621SOL     OW 6513   3.348   2.029   2.731
 1621SOL    HW2 6514   3.368   2.043   2.824
 1621SOL    HW3 6515   3.359   2.115   2.691
 1621SOL    MW4 6516   3.352   2.042   2.738
 1622SOL     OW 6517   3.409   2.283   2.607
 1622SOL    HW2 6518   3.482   2.332   2.644
 1622SOL    HW3 6519   3.411   2.306   2.514
 1622SOL    MW4 6520   3.419   2.292   2.599
 1623SOL     OW 6521   3.195   2.419   2.687
 1623SOL    HW2 6522   3.203   2.499   2.634
 1623SOL    HW3 6523   3.273   2.368   2.667
 1623SOL    MW4 6524   3.206   2.423   2.677
 1624SOL     OW 6525   3.186   2.692   2.591
 1624SOL    HW2 6526   3.251   2.756   2.620
 1624SOL    HW3 6527   3.103   2.725   2.627
 1624SOL    MW4 6528   3.183   2.705   2.600
 1625SOL     OW 6529   3.396   2.848   2.689
 1625SOL    HW2 6530   3.386   2.862   2.783
 1625SOL    HW3 6531   3.466   2.784   2.681
 1625SOL    MW4 6532   3.404   2.842   2.700
 1626SOL     OW 6533   3.388   3.111   2.624
 1626SOL    HW2 6534   3.405   3.025   2.662
 1626SOL    HW3 6535   3.411   3.102   2.531
 1626SOL    MW4 6536   3.393   3.098   2.617
 1627SOL     OW 6537   3.133   3.199   2.715
 1627SOL    HW2 6538   3.223   3.172   2.698
 1627SOL    HW3 6539   3.080   3.145   2.656
 1627SOL    MW4 6540   3.137   3.188   2.705
 1628SOL     OW 6541   3.167   3.462   2.611
 1628SOL    HW2 6542   3.151   3.373   2.642
 1628SOL    HW3 6543   3.093   3.513   2.645
 1628SOL    MW4 6544   3.155   3.457   2.619
 1629SOL     OW 6545   3.368   3.615   2.731
 1629SOL    HW2 6546   3.364   3.590   2.823
 1629SOL    HW3 6547   3.293   3.572   2.691
 1629SOL    MW4 6548   3.358   3.606   2.738
 1630SOL     OW 6549   3.388   3.882   2.649
 1630SOL    HW2 6550   3.386   3.799   2.696
 1630SOL    HW3 6551   3.376   3.858   2.557
 1630SOL    MW4 6552   3.386   3.868   2.643
 1631SOL     OW 6553   3.154   4.006   2.762
 1631SOL    HW2 6554   3.159   4.098   2.736
 1631SOL    HW3 6555   3.236   3.967   2.732
 1631SOL    MW4 6556   3.165   4.013   2.754
 1632SOL     OW 6557   3.151   4.268   2.690
 1632SOL    HW2 6558   3.078   4.317   2.730
 1632SOL    HW3 6559   3.162   4.307   2.604
 1632SOL    MW4 6560   3.143   4.280   2.684
 1633SOL     OW 6561   3.359   4.430   2.771
 1633SOL    HW2 6562   3.372   4.427   2.866
 1633SOL    HW3 6563   3.300   4.357   2.753
 1633SOL    MW4 6564   3.353   4.420   2.781
 1634SOL     OW 6565   3.793   0.005   2.621
 1634SOL    HW2 6566   3.790  -0.081   2.663
 1634SOL    HW3 6567   3.721   0.054   2.660
 1634SOL    MW4 6568   3.783   0.000   2.631
 1635SOL     OW 6569   3.574   0.142   2.727
 1635SOL    HW2 6570   3.575   0.229   2.687
 1635SOL    HW3 6571   3.500   0.097   2.686
 1635SOL    MW4 6572   3.565   0.147   2.716
 1636SOL     OW 6573   3.603   0.387   2.608
 1636SOL    HW2 6574   3.678   0.407   2.665
 1636SOL    HW3 6575   3.527   0.421   2.656
 1636SOL    MW4 6576   3.603   0.394   2.622
 1637SOL     OW 6577   3.819   0.490   2.723
 1637SOL    HW2 6578   3.842   0.497   2.816
 1637SOL    HW3 6579   3.893   0.444   2.683
 1637SOL    MW4 6580   3.832   0.485   2.730
 1638SOL     OW 6581   3.819   0.767   2.618
 1638SOL    HW2 6582   3.739   0.814   2.640
 1638SOL    HW3 6583   3.804   0.678   2.649
 1638SOL    MW4 6584   3.807   0.761   2.625
 1639SOL     OW 6585   3.581   0.881   2.704
 1639SOL    HW2 6586   3.591   0.873   2.799
 1639SOL    HW3 6587   3.577   0.976   2.689
 1639SOL    MW4 6588   3.582   0.893   2.715
 1640SOL     OW 6589   3.589   1.158   2.687
 1640SOL    HW2 6590   3.661   1.218   2.710
 1640SOL    HW3 6591   3.510   1.208   2.708
 1640SOL    MW4 6592   3.588   1.173   2.693
 1641SOL     OW 6593   3.815   1.297   2.762
 1641SOL    HW2 6594   3.898   1.255   2.741
 1641SOL    HW3 6595   3.811   1.372   2.703
 1641SOL    MW4 6596   3.826   1.302   2.752
 1642SOL     OW 6597   3.799   1.531   2.626
 1642SOL    HW2 6598   3.874   1.574   2.667
 1642SOL    HW3 6599   3.723   1.574   2.665
 1642SOL    MW4 6600   3.799   1.542   2.637
 1643SOL     OW 6601   3.581   1.683   2.741
 1643SOL    HW2 6602   3.582   1.777   2.724
 1643SOL    HW3 6603   3.502   1.651   2.698
 1643SOL    MW4 6604   3.571   1.691   2.733
 1644SOL     OW 6605   3.590   1.947   2.637
 1644SOL    HW2 6606   3.507   1.982   2.671
 1644SOL    HW3 6607   3.576   1.937   2.543
 1644SOL    MW4 6608   3.577   1.950   2.629
 1645SOL     OW 6609   3.824   2.065   2.714
 1645SOL    HW2 6610   3.896   2.004   2.698
 1645SOL    HW3 6611   3.746   2.021   2.679
 1645SOL    MW4 6612   3.823   2.051   2.708
 1646SOL     OW 6613   3.833   2.317   2.625
 1646SOL    HW2 6614   3.834   2.228   2.662
 1646SOL    HW3 6615   3.852   2.304   2.532
 1646SOL    MW4 6616   3.836   2.303   2.618
 1647SOL     OW 6617   3.602   2.436   2.698
 1647SOL    HW2 6618   3.603   2.426   2.793
 1647SOL    HW3 6619   3.686   2.402   2.670
 1647SOL    MW4 6620   3.613   2.430   2.707
 1648SOL     OW 6621   3.629   2.695   2.632
 1648SOL    HW2 6622   3.620   2.603   2.657
 1648SOL    HW3 6623   3.624   2.695   2.537
 1648SOL    MW4 6624   3.627   2.683   2.623
 1649SOL     OW 6625   3.855   2.859   2.688
 1649SOL    HW2 6626   3.944   2.824   2.677
 1649SOL    HW3 6627   3.797   2.786   2.665
 1649SOL    MW4 6628   3.859   2.845   2.683
 1650SOL     OW 6629   3.843   3.110   2.574
 1650SOL    HW2 6630   3.773   3.159   2.615
 1650SOL    HW3 6631   3.827   3.019   2.599
 1650SOL    MW4 6632   3.832   3.105   2.582
 1651SOL     OW 6633   3.615   3.246   2.699
 1651SOL    HW2 6634   3.615   3.331   2.655
 1651SOL    HW3 6635   3.532   3.206   2.674
 1651SOL    MW4 6636   3.604   3.252   2.690
 1652SOL     OW 6637   3.590   3.526   2.590
 1652SOL    HW2 6638   3.664   3.565   2.637
 1652SOL    HW3 6639   3.513   3.563   2.633
 1652SOL    MW4 6640   3.590   3.536   2.602
 1653SOL     OW 6641   3.816   3.618   2.711
 1653SOL    HW2 6642   3.885   3.566   2.670
 1653SOL    HW3 6643   3.836   3.708   2.685
 1653SOL    MW4 6644   3.827   3.623   2.702
 1654SOL     OW 6645   3.840   3.859   2.586
 1654SOL    HW2 6646   3.925   3.894   2.613
 1654SOL    HW3 6647   3.776   3.912   2.634
 1654SOL    MW4 6648   3.842   3.871   2.596
 1655SOL     OW 6649   3.647   3.998   2.702
 1655SOL    HW2 6650   3.633   4.091   2.682
 1655SOL    HW3 6651   3.565   3.956   2.678
 1655SOL    MW4 6652   3.634   4.005   2.696
 1656SOL     OW 6653   3.591   4.275   2.617
 1656SOL    HW2 6654   3.518   4.322   2.655
 1656SOL    HW3 6655   3.572   4.272   2.523
 1656SOL    MW4 6656   3.579   4.281   2.610
 1657SOL     OW 6657   3.801   4.421   2.746
 1657SOL    HW2 6658   3.870   4.361   2.719
 1657SOL    HW3 6659   3.720   4.377   2.724
 1657SOL    MW4 6660   3.800   4.408   2.740
 1658SOL     OW 6661   4.233   4.649   2.613
 1658SOL    HW2 6662   4.163   4.691   2.664
 1658SOL    HW3 6663   4.313   4.689   2.646
 1658SOL    MW4 6664   4.234   4.660   2.624
 1659SOL     OW 6665   4.027   0.110   2.740
 1659SOL    HW2 6666   4.010   0.123   2.834
 1659SOL    HW3 6667   3.943   0.084   2.704
 1659SOL    MW4 6668   4.014   0.109   2.748
 1660SOL     OW 6669   4.040   0.368   2.623
 1660SOL    HW2 6670   4.035   0.277   2.654
 1660SOL    HW3 6671   4.042   0.360   2.527
 1660SOL    MW4 6672   4.040   0.355   2.614
 1661SOL     OW 6673   4.255   0.506   2.765
 1661SOL    HW2 6674   4.177   0.470   2.723
 1661SOL    HW3 6675   4.328   0.458   2.725
 1661SOL    MW4 6676   4.254   0.495   2.754
 1662SOL     OW 6677   4.224   0.748   2.640
 1662SOL    HW2 6678   4.221   0.660   2.677
 1662SOL    HW3 6679   4.236   0.735   2.546
 1662SOL    MW4 6680   4.225   0.735   2.633
 1663SOL     OW 6681   4.020   0.909   2.747
 1663SOL    HW2 6682   4.088   0.862   2.700
 1663SOL    HW3 6683   3.938   0.870   2.716
 1663SOL    MW4 6684   4.018   0.897   2.737
 1664SOL     OW 6685   4.037   1.189   2.660
 1664SOL    HW2 6686   4.111   1.240   2.693
 1664SOL    HW3 6687   4.047   1.103   2.702
 1664SOL    MW4 6688   4.048   1.184   2.670
 1665SOL     OW 6689   4.276   1.295   2.772
 1665SOL    HW2 6690   4.281   1.388   2.747
 1665SOL    HW3 6691   4.352   1.255   2.729
 1665SOL    MW4 6692   4.287   1.302   2.763
 1666SOL     OW 6693   4.267   1.563   2.655
 1666SOL    HW2 6694   4.354   1.599   2.675
 1666SOL    HW3 6695   4.268   1.550   2.560
 1666SOL    MW4 6696   4.279   1.566   2.645
 1667SOL     OW 6697   4.018   1.640   2.753
 1667SOL    HW2 6698   4.028   1.635   2.848
 1667SOL    HW3 6699   4.102   1.611   2.719
 1667SOL    MW4 6700   4.030   1.636   2.761
 1668SOL     OW 6701   4.033   1.891   2.621
 1668SOL    HW2 6702   4.115   1.929   2.653
 1668SOL    HW3 6703   4.020   1.813   2.675
 1668SOL    MW4 6704   4.042   1.886   2.632
 1669SOL     OW 6705   4.271   1.983   2.693
 1669SOL    HW2 6706   4.281   2.075   2.666
 1669SOL    HW3 6707   4.345   1.938   2.653
 1669SOL    MW4 6708   4.282   1.989   2.684
 1670SOL     OW 6709   4.302   2.265   2.619
 1670SOL    HW2 6710   4.222   2.310   2.647
 1670SOL    HW3 6711   4.307   2.281   2.525
 1670SOL    MW4 6712   4.292   2.273   2.610
 1671SOL     OW 6713   4.081   2.431   2.696
 1671SOL    HW2 6714   4.059   2.445   2.788
 1671SOL    HW3 6715   4.001   2.393   2.658
 1671SOL    MW4 6716   4.067   2.428   2.703
 1672SOL     OW 6717   4.080   2.709   2.652
 1672SOL    HW2 6718   4.165   2.745   2.677
 1672SOL    HW3 6719   4.086   2.616   2.676
 1672SOL    MW4 6720   4.092   2.701   2.659
 1673SOL     OW 6721   4.308   2.830   2.741
 1673SOL    HW2 6722   4.294   2.828   2.836
 1673SOL    HW3 6723   4.294   2.921   2.716
 1673SOL    MW4 6724   4.304   2.842   2.750
 1674SOL     OW 6725   4.285   3.094   2.639
 1674SOL    HW2 6726   4.201   3.131   2.664
 1674SOL    HW3 6727   4.286   3.100   2.543
 1674SOL    MW4 6728   4.274   3.099   2.629
 1675SOL     OW 6729   4.052   3.213   2.721
 1675SOL    HW2 6730   4.043   3.303   2.687
 1675SOL    HW3 6731   3.975   3.167   2.687
 1675SOL    MW4 6732   4.041   3.219   2.712
 1676SOL     OW 6733   4.034   3.480   2.604
 1676SOL    HW2 6734   4.122   3.502   2.634
 1676SOL    HW3 6735   4.038   3.491   2.509
 1676SOL    MW4 6736   4.046   3.484   2.595
 1677SOL     OW 6737   4.279   3.604   2.670
 1677SOL    HW2 6738   4.277   3.612   2.765
 1677SOL    HW3 6739   4.363   3.563   2.651
 1677SOL    MW4 6740   4.290   3.600   2.680
 1678SOL     OW 6741   4.278   3.874   2.636
 1678SOL    HW2 6742   4.292   3.780   2.645
 1678SOL    HW3 6743   4.356   3.913   2.674
 1678SOL    MW4 6744   4.290   3.867   2.642
 1679SOL     OW 6745   4.053   3.995   2.715
 1679SOL    HW2 6746   4.046   3.984   2.810
 1679SOL    HW3 6747   4.134   3.950   2.691
 1679SOL    MW4 6748   4.063   3.988   2.724
 1680SOL     OW 6749   3.995   4.258   2.660
 1680SOL    HW2 6750   4.017   4.169   2.688
 1680SOL    HW3 6751   4.013   4.259   2.566
 1680SOL    MW4 6752   4.001   4.247   2.652
 1681SOL     OW 6753   4.225   4.413   2.743
 1681SOL    HW2 6754   4.148   4.362   2.716
 1681SOL    HW3 6755   4.228   4.486   2.681
 1681SOL    MW4 6756   4.215   4.416   2.731
 1682SOL     OW 6757   0.197   4.653   3.115
 1682SOL    HW2 6758   0.192   4.670   3.209
 1682SOL    HW3 6759   0.109   4.674   3.083
 1682SOL    MW4 6760   0.185   4.658   3.123
 1683SOL     OW 6761   4.445   0.108   3.023
 1683SOL    HW2 6762   4.362   0.069   3.051
 1683SOL    HW3 6763   4.461   0.177   3.087
 1683SOL    MW4 6764   4.436   0.112   3.035
 1684SOL     OW 6765   0.012   0.345   3.149
 1684SOL    HW2 6766  -0.002   0.345   3.243
 1684SOL    HW3 6767  -0.060   0.398   3.114
 1684SOL    MW4 6768   0.000   0.352   3.157
 1685SOL     OW 6769   0.216   0.463   3.012
 1685SOL    HW2 6770   0.290   0.411   3.044
 1685SOL    HW3 6771   0.139   0.420   3.049
 1685SOL    MW4 6772   0.215   0.451   3.021
 1686SOL     OW 6773   0.227   0.720   3.096
 1686SOL    HW2 6774   0.247   0.707   3.189
 1686SOL    HW3 6775   0.218   0.631   3.061
 1686SOL    MW4 6776   0.229   0.706   3.104
 1687SOL     OW 6777   0.025   0.901   3.004
 1687SOL    HW2 6778   0.098   0.846   3.032
 1687SOL    HW3 6779   0.017   0.884   2.911
 1687SOL    MW4 6780   0.034   0.891   2.996
 1688SOL     OW 6781   0.008   1.129   3.142
 1688SOL    HW2 6782  -0.054   1.180   3.089
 1688SOL    HW3 6783   0.006   1.041   3.103
 1688SOL    MW4 6784  -0.001   1.124   3.130
 1689SOL     OW 6785   0.217   1.282   3.042
 1689SOL    HW2 6786   0.157   1.223   3.087
 1689SOL    HW3 6787   0.217   1.251   2.952
 1689SOL    MW4 6788   0.209   1.270   3.036
 1690SOL     OW 6789   0.226   1.553   3.130
 1690SOL    HW2 6790   0.148   1.587   3.087
 1690SOL    HW3 6791   0.231   1.462   3.101
 1690SOL    MW4 6792   0.216   1.545   3.120
 1691SOL     OW 6793   4.479   1.644   2.998
 1691SOL    HW2 6794   4.398   1.617   3.040
 1691SOL    HW3 6795   4.481   1.740   3.007
 1691SOL    MW4 6796   4.469   1.653   3.005
 1692SOL     OW 6797   4.460   1.908   3.048
 1692SOL    HW2 6798   4.382   1.960   3.030
 1692SOL    HW3 6799   4.532   1.957   3.006
 1692SOL    MW4 6800   4.459   1.921   3.040
 1693SOL     OW 6801   0.184   2.033   2.958
 1693SOL    HW2 6802   0.198   2.120   2.995
 1693SOL    HW3 6803   0.209   2.041   2.866
 1693SOL    MW4 6804   0.189   2.046   2.951
 1694SOL     OW 6805   0.204   2.304   3.072
 1694SOL    HW2 6806   0.194   2.295   3.167
 1694SOL    HW3 6807   0.284   2.355   3.062
 1694SOL    MW4 6808   0.213   2.309   3.084
 1695SOL     OW 6809   4.477   2.460   2.962
 1695SOL    HW2 6810   4.475   2.536   3.020
 1695SOL    HW3 6811   4.551   2.407   2.995
 1695SOL    MW4 6812   4.487   2.463   2.974
 1696SOL     OW 6813   4.475   2.693   3.098
 1696SOL    HW2 6814   4.463   2.723   3.188
 1696SOL    HW3 6815   4.568   2.709   3.079
 1696SOL    MW4 6816   4.486   2.699   3.107
 1697SOL     OW 6817   0.220   2.800   3.006
 1697SOL    HW2 6818   0.305   2.769   3.038
 1697SOL    HW3 6819   0.223   2.786   2.912
 1697SOL    MW4 6820   0.231   2.794   2.998
 1698SOL     OW 6821   0.267   3.085   3.087
 1698SOL    HW2 6822   0.179   3.122   3.090
 1698SOL    HW3 6823   0.253   2.993   3.063
 1698SOL    MW4 6824   0.254   3.078   3.084
 1699SOL     OW 6825   0.033   3.208   3.027
 1699SOL    HW2 6826  -0.045   3.167   3.064
 1699SOL    HW3 6827   0.033   3.181   2.935
 1699SOL    MW4 6828   0.023   3.199   3.019
 1700SOL     OW 6829   4.477   3.473   3.070
 1700SOL    HW2 6830   4.403   3.499   3.015
 1700SOL    HW3 6831   4.486   3.379   3.054
 1700SOL    MW4 6832   4.468   3.464   3.061
 1701SOL     OW 6833   0.220   3.590   2.983
 1701SOL    HW2 6834   0.213   3.680   3.016
 1701SOL    HW3 6835   0.142   3.546   3.018
 1701SOL    MW4 6836   0.209   3.596   2.992
 1702SOL     OW 6837   0.195   3.852   3.090
 1702SOL    HW2 6838   0.204   3.857   3.185
 1702SOL    HW3 6839   0.276   3.891   3.056
 1702SOL    MW4 6840   0.207   3.858   3.098
 1703SOL     OW 6841   4.468   3.993   2.996
 1703SOL    HW2 6842   4.550   3.948   3.013
 1703SOL    HW3 6843   4.464   4.000   2.900
 1703SOL    MW4 6844   4.478   3.988   2.986
 1704SOL     OW 6845   4.469   4.271   3.081
 1704SOL    HW2 6846   4.475   4.269   3.177
 1704SOL    HW3 6847   4.466   4.178   3.056
 1704SOL    MW4 6848   4.469   4.258   3.091
 1705SOL     OW 6849   0.229   4.389   3.037
 1705SOL    HW2 6850   0.147   4.352   3.069
 1705SOL    HW3 6851   0.231   4.478   3.073
 1705SOL    MW4 6852   0.218   4.396   3.046
 1706SOL     OW 6853   0.631   0.013   3.107
 1706SOL    HW2 6854   0.634  -0.080   3.085
 1706SOL    HW3 6855   0.549   0.045   3.069
 1706SOL    MW4 6856   0.621   0.005   3.099
 1707SOL     OW 6857   0.406   0.108   2.983
 1707SOL    HW2 6858   0.415   0.184   3.041
 1707SOL    HW3 6859   0.331   0.060   3.019
 1707SOL    MW4 6860   0.397   0.112   2.996
 1708SOL     OW 6861   0.449   0.331   3.134
 1708SOL    HW2 6862   0.427   0.363   3.222
 1708SOL    HW3 6863   0.528   0.380   3.110
 1708SOL    MW4 6864   0.456   0.342   3.143
 1709SOL     OW 6865   0.648   0.488   3.031
 1709SOL    HW2 6866   0.720   0.436   3.066
 1709SOL    HW3 6867   0.679   0.579   3.038
 1709SOL    MW4 6868   0.662   0.493   3.037
 1710SOL     OW 6869   0.686   0.780   3.053
 1710SOL    HW2 6870   0.695   0.762   3.147
 1710SOL    HW3 6871   0.596   0.812   3.043
 1710SOL    MW4 6872   0.675   0.782   3.064
 1711SOL     OW 6873   0.444   0.919   2.993
 1711SOL    HW2 6874   0.376   0.857   3.018
 1711SOL    HW3 6875   0.452   0.911   2.898
 1711SOL    MW4 6876   0.436   0.910   2.984
 1712SOL     OW 6877   0.473   1.199   3.116
 1712SOL    HW2 6878   0.483   1.111   3.080
 1712SOL    HW3 6879   0.383   1.224   3.095
 1712SOL    MW4 6880   0.462   1.190   3.109
 1713SOL     OW 6881   0.704   1.294   2.988
 1713SOL    HW2 6882   0.777   1.259   3.039
 1713SOL    HW3 6883   0.626   1.272   3.038
 1713SOL    MW4 6884   0.703   1.287   3.001
 1714SOL     OW 6885   0.648   1.548   3.080
 1714SOL    HW2 6886   0.653   1.531   3.174
 1714SOL    HW3 6887   0.680   1.468   3.039
 1714SOL    MW4 6888   0.653   1.535   3.087
 1715SOL     OW 6889   0.414   1.667   2.975
 1715SOL    HW2 6890   0.496   1.626   3.004
 1715SOL    HW3 6891   0.345   1.620   3.023
 1715SOL    MW4 6892   0.416   1.655   2.985
 1716SOL     OW 6893   0.418   1.928   3.081
 1716SOL    HW2 6894   0.402   1.839   3.050
 1716SOL    HW3 6895   0.350   1.980   3.038
 1716SOL    MW4 6896   0.406   1.923   3.071
 1717SOL     OW 6897   0.682   2.050   3.009
 1717SOL    HW2 6898   0.751   2.009   3.061
 1717SOL    HW3 6899   0.602   2.004   3.035
 1717SOL    MW4 6900   0.681   2.039   3.020
 1718SOL     OW 6901   0.674   2.332   3.115
 1718SOL    HW2 6902   0.684   2.322   3.210
 1718SOL    HW3 6903   0.681   2.243   3.081
 1718SOL    MW4 6904   0.676   2.319   3.123
 1719SOL     OW 6905   0.435   2.453   3.032
 1719SOL    HW2 6906   0.513   2.409   3.068
 1719SOL    HW3 6907   0.446   2.445   2.937
 1719SOL    MW4 6908   0.447   2.446   3.024
 1720SOL     OW 6909   0.467   2.728   3.099
 1720SOL    HW2 6910   0.545   2.756   3.051
 1720SOL    HW3 6911   0.464   2.633   3.086
 1720SOL    MW4 6912   0.477   2.719   3.091
 1721SOL     OW 6913   0.717   2.799   3.018
 1721SOL    HW2 6914   0.792   2.761   3.063
 1721SOL    HW3 6915   0.713   2.889   3.049
 1721SOL    MW4 6916   0.726   2.806   3.028
 1722SOL     OW 6917   0.696   3.079   3.091
 1722SOL    HW2 6918   0.683   3.097   3.185
 1722SOL    HW3 6919   0.619   3.117   3.049
 1722SOL    MW4 6920   0.684   3.087   3.098
 1723SOL     OW 6921   0.490   3.205   2.987
 1723SOL    HW2 6922   0.479   3.282   3.044
 1723SOL    HW3 6923   0.412   3.152   3.004
 1723SOL    MW4 6924   0.478   3.208   2.997
 1724SOL     OW 6925   0.456   3.456   3.083
 1724SOL    HW2 6926   0.451   3.487   3.174
 1724SOL    HW3 6927   0.378   3.494   3.041
 1724SOL    MW4 6928   0.445   3.465   3.090
 1725SOL     OW 6929   0.690   3.587   3.007
 1725SOL    HW2 6930   0.764   3.543   3.050
 1725SOL    HW3 6931   0.615   3.532   3.028
 1725SOL    MW4 6932   0.690   3.574   3.016
 1726SOL     OW 6933   0.669   3.840   3.087
 1726SOL    HW2 6934   0.666   3.840   3.183
 1726SOL    HW3 6935   0.684   3.748   3.063
 1726SOL    MW4 6936   0.671   3.828   3.097
 1727SOL     OW 6937   0.437   3.974   3.018
 1727SOL    HW2 6938   0.513   3.917   3.030
 1727SOL    HW3 6939   0.446   4.006   2.928
 1727SOL    MW4 6940   0.448   3.971   3.007
 1728SOL     OW 6941   0.448   4.242   3.102
 1728SOL    HW2 6942   0.428   4.150   3.082
 1728SOL    HW3 6943   0.366   4.289   3.084
 1728SOL    MW4 6944   0.434   4.236   3.097
 1729SOL     OW 6945   0.663   4.410   3.030
 1729SOL    HW2 6946   0.590   4.350   3.047
 1729SOL    HW3 6947   0.659   4.425   2.935
 1729SOL    MW4 6948   0.653   4.404   3.020
 1730SOL     OW 6949   1.068   0.007   3.136
 1730SOL    HW2 6950   1.143   0.041   3.087
 1730SOL    HW3 6951   0.991   0.031   3.083
 1730SOL    MW4 6952   1.067   0.015   3.122
 1731SOL     OW 6953   0.860   0.112   2.975
 1731SOL    HW2 6954   0.883   0.194   3.019
 1731SOL    HW3 6955   0.779   0.083   3.017
 1731SOL    MW4 6956   0.853   0.119   2.986
 1732SOL     OW 6957   0.888   0.345   3.109
 1732SOL    HW2 6958   0.881   0.354   3.204
 1732SOL    HW3 6959   0.964   0.397   3.085
 1732SOL    MW4 6960   0.897   0.353   3.118
 1733SOL     OW 6961   1.119   0.481   3.004
 1733SOL    HW2 6962   1.202   0.451   3.044
 1733SOL    HW3 6963   1.131   0.467   2.910
 1733SOL    MW4 6964   1.132   0.475   2.997
 1734SOL     OW 6965   1.125   0.747   3.100
 1734SOL    HW2 6966   1.126   0.749   3.196
 1734SOL    HW3 6967   1.137   0.655   3.078
 1734SOL    MW4 6968   1.126   0.735   3.110
 1735SOL     OW 6969   0.921   0.925   2.997
 1735SOL    HW2 6970   0.993   0.867   3.024
 1735SOL    HW3 6971   0.842   0.876   3.017
 1735SOL    MW4 6972   0.920   0.911   3.003
 1736SOL     OW 6973   0.904   1.162   3.124
 1736SOL    HW2 6974   0.985   1.205   3.096
 1736SOL    HW3 6975   0.899   1.083   3.071
 1736SOL    MW4 6976   0.914   1.158   3.113
 1737SOL     OW 6977   1.133   1.293   3.004
 1737SOL    HW2 6978   1.209   1.239   3.025
 1737SOL    HW3 6979   1.139   1.310   2.910
 1737SOL    MW4 6980   1.144   1.288   2.995
 1738SOL     OW 6981   1.120   1.536   3.134
 1738SOL    HW2 6982   1.180   1.594   3.088
 1738SOL    HW3 6983   1.134   1.450   3.096
 1738SOL    MW4 6984   1.129   1.533   3.123
 1739SOL     OW 6985   0.892   1.666   3.035
 1739SOL    HW2 6986   0.963   1.608   3.059
 1739SOL    HW3 6987   0.812   1.619   3.061
 1739SOL    MW4 6988   0.891   1.652   3.042
 1740SOL     OW 6989   0.894   1.927   3.130
 1740SOL    HW2 6990   0.878   1.924   3.224
 1740SOL    HW3 6991   0.910   1.835   3.106
 1740SOL    MW4 6992   0.894   1.914   3.139
 1741SOL     OW 6993   1.153   2.070   3.062
 1741SOL    HW2 6994   1.072   2.035   3.100
 1741SOL    HW3 6995   1.137   2.070   2.968
 1741SOL    MW4 6996   1.140   2.065   3.055
 1742SOL     OW 6997   1.138   2.356   3.106
 1742SOL    HW2 6998   1.074   2.392   3.045
 1742SOL    HW3 6999   1.152   2.266   3.076
 1742SOL    MW4 7000   1.131   2.349   3.094
 1743SOL     OW 7001   0.895   2.463   3.013
 1743SOL    HW2 7002   0.822   2.421   3.058
 1743SOL    HW3 7003   0.880   2.443   2.920
 1743SOL    MW4 7004   0.883   2.455   3.007
 1744SOL     OW 7005   0.952   2.702   3.143
 1744SOL    HW2 7006   0.928   2.706   3.235
 1744SOL    HW3 7007   0.935   2.611   3.117
 1744SOL    MW4 7008   0.947   2.691   3.152
 1745SOL     OW 7009   1.124   2.855   2.986
 1745SOL    HW2 7010   1.141   2.942   3.020
 1745SOL    HW3 7011   1.061   2.817   3.047
 1745SOL    MW4 7012   1.118   2.861   2.999
 1746SOL     OW 7013   1.152   3.091   3.126
 1746SOL    HW2 7014   1.214   3.159   3.101
 1746SOL    HW3 7015   1.069   3.118   3.087
 1746SOL    MW4 7016   1.149   3.103   3.117
 1747SOL     OW 7017   0.937   3.201   3.012
 1747SOL    HW2 7018   0.857   3.161   3.046
 1747SOL    HW3 7019   0.929   3.196   2.917
 1747SOL    MW4 7020   0.925   3.195   3.004
 1748SOL     OW 7021   0.896   3.460   3.121
 1748SOL    HW2 7022   0.964   3.519   3.088
 1748SOL    HW3 7023   0.913   3.377   3.077
 1748SOL    MW4 7024   0.907   3.457   3.111
 1749SOL     OW 7025   1.127   3.607   3.023
 1749SOL    HW2 7026   1.211   3.563   3.038
 1749SOL    HW3 7027   1.144   3.698   3.047
 1749SOL    MW4 7028   1.141   3.613   3.028
 1750SOL     OW 7029   1.146   3.873   3.115
 1750SOL    HW2 7030   1.138   3.886   3.210
 1750SOL    HW3 7031   1.070   3.918   3.078
 1750SOL    MW4 7032   1.135   3.880   3.123
 1751SOL     OW 7033   0.922   3.998   3.020
 1751SOL    HW2 7034   0.844   3.949   3.045
 1751SOL    HW3 7035   0.922   3.996   2.924
 1751SOL    MW4 7036   0.912   3.991   3.011
 1752SOL     OW 7037   0.888   4.281   3.105
 1752SOL    HW2 7038   0.885   4.187   3.087
 1752SOL    HW3 7039   0.802   4.314   3.081
 1752SOL    MW4 7040   0.877   4.273   3.100
 1753SOL     OW 7041   1.071   4.439   2.984
 1753SOL    HW2 7042   1.011   4.377   3.025
 1753SOL    HW3 7043   1.078   4.511   3.047
 1753SOL    MW4 7044   1.064   4.441   2.997
 1754SOL     OW 7045   1.551   0.012   3.110
 1754SOL    HW2 7046   1.542  -0.026   3.198
 1754SOL    HW3 7047   1.467   0.055   3.094
 1754SOL    MW4 7048   1.538   0.013   3.120
 1755SOL     OW 7049   1.294   0.103   3.024
 1755SOL    HW2 7050   1.299   0.197   3.043
 1755SOL    HW3 7051   1.332   0.093   2.937
 1755SOL    MW4 7052   1.299   0.114   3.015
 1756SOL     OW 7053   1.356   0.371   3.096
 1756SOL    HW2 7054   1.369   0.387   3.189
 1756SOL    HW3 7055   1.434   0.407   3.054
 1756SOL    MW4 7056   1.368   0.378   3.103
 1757SOL     OW 7057   1.581   0.458   2.979
 1757SOL    HW2 7058   1.585   0.549   3.008
 1757SOL    HW3 7059   1.587   0.462   2.884
 1757SOL    MW4 7060   1.582   0.470   2.971
 1758SOL     OW 7061   1.581   0.703   3.071
 1758SOL    HW2 7062   1.586   0.720   3.165
 1758SOL    HW3 7063   1.506   0.756   3.042
 1758SOL    MW4 7064   1.572   0.713   3.080
 1759SOL     OW 7065   1.363   0.868   2.980
 1759SOL    HW2 7066   1.380   0.951   3.025
 1759SOL    HW3 7067   1.284   0.834   3.022
 1759SOL    MW4 7068   1.355   0.875   2.991
 1760SOL     OW 7069   1.359   1.149   3.086
 1760SOL    HW2 7070   1.375   1.143   3.180
 1760SOL    HW3 7071   1.436   1.194   3.052
 1760SOL    MW4 7072   1.371   1.154   3.094
 1761SOL     OW 7073   1.560   1.303   2.988
 1761SOL    HW2 7074   1.636   1.258   3.025
 1761SOL    HW3 7075   1.555   1.384   3.039
 1761SOL    MW4 7076   1.569   1.308   3.000
 1762SOL     OW 7077   1.562   1.544   3.121
 1762SOL    HW2 7078   1.635   1.575   3.069
 1762SOL    HW3 7079   1.485   1.587   3.084
 1762SOL    MW4 7080   1.561   1.554   3.109
 1763SOL     OW 7081   1.326   1.686   3.038
 1763SOL    HW2 7082   1.363   1.769   3.065
 1763SOL    HW3 7083   1.325   1.690   2.942
 1763SOL    MW4 7084   1.330   1.697   3.029
 1764SOL     OW 7085   1.394   1.937   3.119
 1764SOL    HW2 7086   1.391   1.914   3.212
 1764SOL    HW3 7087   1.307   1.974   3.101
 1764SOL    MW4 7088   1.382   1.939   3.129
 1765SOL     OW 7089   1.628   2.051   3.014
 1765SOL    HW2 7090   1.547   2.006   3.038
 1765SOL    HW3 7091   1.617   2.073   2.922
 1765SOL    MW4 7092   1.616   2.048   3.005
 1766SOL     OW 7093   1.581   2.330   3.130
 1766SOL    HW2 7094   1.509   2.366   3.078
 1766SOL    HW3 7095   1.573   2.236   3.119
 1766SOL    MW4 7096   1.570   2.323   3.122
 1767SOL     OW 7097   1.373   2.455   2.999
 1767SOL    HW2 7098   1.289   2.435   3.041
 1767SOL    HW3 7099   1.352   2.464   2.906
 1767SOL    MW4 7100   1.359   2.453   2.993
 1768SOL     OW 7101   1.351   2.719   3.074
 1768SOL    HW2 7102   1.356   2.631   3.036
 1768SOL    HW3 7103   1.276   2.759   3.031
 1768SOL    MW4 7104   1.342   2.713   3.064
 1769SOL     OW 7105   1.572   2.851   2.986
 1769SOL    HW2 7106   1.647   2.829   3.042
 1769SOL    HW3 7107   1.502   2.792   3.015
 1769SOL    MW4 7108   1.573   2.840   2.997
 1770SOL     OW 7109   1.561   3.095   3.104
 1770SOL    HW2 7110   1.581   3.081   3.197
 1770SOL    HW3 7111   1.543   3.007   3.070
 1770SOL    MW4 7112   1.561   3.082   3.112
 1771SOL     OW 7113   1.341   3.257   3.027
 1771SOL    HW2 7114   1.421   3.208   3.046
 1771SOL    HW3 7115   1.333   3.255   2.932
 1771SOL    MW4 7116   1.351   3.250   3.017
 1772SOL     OW 7117   1.384   3.518   3.088
 1772SOL    HW2 7118   1.367   3.537   3.181
 1772SOL    HW3 7119   1.354   3.429   3.075
 1772SOL    MW4 7120   1.378   3.509   3.099
 1773SOL     OW 7121   1.625   3.594   2.979
 1773SOL    HW2 7122   1.545   3.553   3.012
 1773SOL    HW3 7123   1.608   3.609   2.886
 1773SOL    MW4 7124   1.612   3.590   2.971
 1774SOL     OW 7125   1.580   3.863   3.100
 1774SOL    HW2 7126   1.659   3.915   3.085
 1774SOL    HW3 7127   1.605   3.775   3.072
 1774SOL    MW4 7128   1.594   3.858   3.094
 1775SOL     OW 7129   1.357   3.959   2.952
 1775SOL    HW2 7130   1.445   3.937   2.980
 1775SOL    HW3 7131   1.299   3.917   3.016
 1775SOL    MW4 7132   1.361   3.951   2.964
 1776SOL     OW 7133   1.332   4.248   3.044
 1776SOL    HW2 7134   1.343   4.155   3.025
 1776SOL    HW3 7135   1.247   4.271   3.006
 1776SOL    MW4 7136   1.322   4.239   3.037
 1777SOL     OW 7137   1.569   4.414   3.015
 1777SOL    HW2 7138   1.485   4.373   3.033
 1777SOL    HW3 7139   1.555   4.507   3.035
 1777SOL    MW4 7140   1.556   4.421   3.020
 1778SOL     OW 7141   2.052   0.001   3.112
 1778SOL    HW2 7142   2.054  -0.010   3.207
 1778SOL    HW3 7143   1.965   0.036   3.094
 1778SOL    MW4 7144   2.041   0.004   3.122
 1779SOL     OW 7145   1.789   0.113   3.014
 1779SOL    HW2 7146   1.702   0.089   3.044
 1779SOL    HW3 7147   1.786   0.100   2.919
 1779SOL    MW4 7148   1.777   0.108   3.005
 1780SOL     OW 7149   1.800   0.346   3.137
 1780SOL    HW2 7150   1.819   0.261   3.098
 1780SOL    HW3 7151   1.723   0.377   3.090
 1780SOL    MW4 7152   1.792   0.339   3.126
 1781SOL     OW 7153   1.989   0.498   2.989
 1781SOL    HW2 7154   1.934   0.449   3.049
 1781SOL    HW3 7155   1.973   0.457   2.903
 1781SOL    MW4 7156   1.980   0.486   2.985
 1782SOL     OW 7157   2.015   0.762   3.101
 1782SOL    HW2 7158   1.942   0.816   3.072
 1782SOL    HW3 7159   2.006   0.681   3.051
 1782SOL    MW4 7160   2.004   0.758   3.091
 1783SOL     OW 7161   1.759   0.910   3.005
 1783SOL    HW2 7162   1.690   0.847   3.028
 1783SOL    HW3 7163   1.764   0.905   2.909
 1783SOL    MW4 7164   1.751   0.901   2.995
 1784SOL     OW 7165   1.758   1.164   3.102
 1784SOL    HW2 7166   1.768   1.164   3.197
 1784SOL    HW3 7167   1.753   1.072   3.078
 1784SOL    MW4 7168   1.759   1.152   3.111
 1785SOL     OW 7169   1.991   1.270   2.964
 1785SOL    HW2 7170   2.073   1.239   3.002
 1785SOL    HW3 7171   1.923   1.230   3.018
 1785SOL    MW4 7172   1.993   1.261   2.976
 1786SOL     OW 7173   2.016   1.520   3.098
 1786SOL    HW2 7174   2.000   1.520   3.192
 1786SOL    HW3 7175   2.004   1.430   3.070
 1786SOL    MW4 7176   2.012   1.508   3.107
 1787SOL     OW 7177   1.794   1.662   3.016
 1787SOL    HW2 7178   1.800   1.731   3.081
 1787SOL    HW3 7179   1.873   1.610   3.027
 1787SOL    MW4 7180   1.805   1.664   3.026
 1788SOL     OW 7181   1.824   1.893   3.159
 1788SOL    HW2 7182   1.903   1.934   3.125
 1788SOL    HW3 7183   1.752   1.946   3.124
 1788SOL    MW4 7184   1.825   1.905   3.150
 1789SOL     OW 7185   2.023   2.052   3.032
 1789SOL    HW2 7186   2.104   2.016   3.066
 1789SOL    HW3 7187   2.023   2.143   3.062
 1789SOL    MW4 7188   2.033   2.059   3.040
 1790SOL     OW 7189   2.035   2.325   3.089
 1790SOL    HW2 7190   2.109   2.375   3.054
 1790SOL    HW3 7191   1.958   2.375   3.063
 1790SOL    MW4 7192   2.034   2.338   3.081
 1791SOL     OW 7193   1.794   2.448   3.000
 1791SOL    HW2 7194   1.809   2.527   3.052
 1791SOL    HW3 7195   1.719   2.406   3.041
 1791SOL    MW4 7196   1.786   2.453   3.012
 1792SOL     OW 7197   1.782   2.716   3.129
 1792SOL    HW2 7198   1.782   2.736   3.223
 1792SOL    HW3 7199   1.868   2.745   3.099
 1792SOL    MW4 7200   1.793   2.723   3.138
 1793SOL     OW 7201   2.025   2.805   3.027
 1793SOL    HW2 7202   2.032   2.897   3.051
 1793SOL    HW3 7203   2.023   2.805   2.932
 1793SOL    MW4 7204   2.025   2.817   3.018
 1794SOL     OW 7205   2.025   3.067   3.118
 1794SOL    HW2 7206   2.032   3.057   3.213
 1794SOL    HW3 7207   1.939   3.107   3.105
 1794SOL    MW4 7208   2.014   3.071   3.129
 1795SOL     OW 7209   1.812   3.206   3.022
 1795SOL    HW2 7210   1.727   3.163   3.032
 1795SOL    HW3 7211   1.823   3.216   2.928
 1795SOL    MW4 7212   1.802   3.202   3.011
 1796SOL     OW 7213   1.823   3.469   3.112
 1796SOL    HW2 7214   1.813   3.375   3.101
 1796SOL    HW3 7215   1.750   3.507   3.063
 1796SOL    MW4 7216   1.812   3.462   3.104
 1797SOL     OW 7217   2.007   3.619   2.948
 1797SOL    HW2 7218   2.002   3.702   2.995
 1797SOL    HW3 7219   1.933   3.568   2.982
 1797SOL    MW4 7220   1.996   3.623   2.959
 1798SOL     OW 7221   1.995   3.859   3.114
 1798SOL    HW2 7222   2.006   3.870   3.209
 1798SOL    HW3 7223   1.934   3.928   3.089
 1798SOL    MW4 7224   1.988   3.869   3.123
 1799SOL     OW 7225   1.781   4.028   3.022
 1799SOL    HW2 7226   1.782   4.121   3.044
 1799SOL    HW3 7227   1.805   4.025   2.930
 1799SOL    MW4 7228   1.784   4.040   3.013
 1800SOL     OW 7229   1.778   4.277   3.132
 1800SOL    HW2 7230   1.851   4.318   3.087
 1800SOL    HW3 7231   1.702   4.328   3.106
 1800SOL    MW4 7232   1.778   4.289   3.123
 1801SOL     OW 7233   2.028   4.401   3.041
 1801SOL    HW2 7234   2.039   4.491   3.072
 1801SOL    HW3 7235   2.046   4.406   2.947
 1801SOL    MW4 7236   2.032   4.413   3.032
 1802SOL     OW 7237   2.477   4.657   3.161
 1802SOL    HW2 7238   2.481   4.569   3.124
 1802SOL    HW3 7239   2.406   4.700   3.113
 1802SOL    MW4 7240   2.468   4.651   3.150
 1803SOL     OW 7241   2.258   0.129   3.011
 1803SOL    HW2 7242   2.246   0.220   3.040
 1803SOL    HW3 7243   2.187   0.081   3.053
 1803SOL    MW4 7244   2.247   0.135   3.020
 1804SOL     OW 7245   2.235   0.413   3.065
 1804SOL    HW2 7246   2.232   0.415   3.161
 1804SOL    HW3 7247   2.154   0.457   3.038
 1804SOL    MW4 7248   2.224   0.419   3.074
 1805SOL     OW 7249   2.493   0.501   3.016
 1805SOL    HW2 7250   2.399   0.494   3.034
 1805SOL    HW3 7251   2.499   0.497   2.921
 1805SOL    MW4 7252   2.481   0.499   3.006
 1806SOL     OW 7253   2.493   0.769   3.077
 1806SOL    HW2 7254   2.578   0.795   3.041
 1806SOL    HW3 7255   2.491   0.674   3.067
 1806SOL    MW4 7256   2.504   0.760   3.071
 1807SOL     OW 7257   2.248   0.905   3.015
 1807SOL    HW2 7258   2.328   0.857   3.036
 1807SOL    HW3 7259   2.177   0.849   3.047
 1807SOL    MW4 7260   2.249   0.891   3.022
 1808SOL     OW 7261   2.230   1.186   3.064
 1808SOL    HW2 7262   2.254   1.202   3.155
 1808SOL    HW3 7263   2.225   1.091   3.056
 1808SOL    MW4 7264   2.232   1.176   3.075
 1809SOL     OW 7265   2.496   1.253   2.991
 1809SOL    HW2 7266   2.414   1.222   3.029
 1809SOL    HW3 7267   2.475   1.268   2.898
 1809SOL    MW4 7268   2.482   1.251   2.983
 1810SOL     OW 7269   2.490   1.511   3.117
 1810SOL    HW2 7270   2.412   1.555   3.083
 1810SOL    HW3 7271   2.496   1.430   3.067
 1810SOL    MW4 7272   2.481   1.506   3.106
 1811SOL     OW 7273   2.268   1.631   2.993
 1811SOL    HW2 7274   2.180   1.602   3.016
 1811SOL    HW3 7275   2.267   1.638   2.898
 1811SOL    MW4 7276   2.256   1.628   2.983
 1812SOL     OW 7277   2.251   1.905   3.096
 1812SOL    HW2 7278   2.324   1.952   3.057
 1812SOL    HW3 7279   2.263   1.814   3.068
 1812SOL    MW4 7280   2.262   1.899   3.087
 1813SOL     OW 7281   2.494   2.047   3.022
 1813SOL    HW2 7282   2.570   1.995   3.048
 1813SOL    HW3 7283   2.488   2.036   2.927
 1813SOL    MW4 7284   2.503   2.039   3.013
 1814SOL     OW 7285   2.455   2.315   3.094
 1814SOL    HW2 7286   2.444   2.312   3.189
 1814SOL    HW3 7287   2.455   2.224   3.066
 1814SOL    MW4 7288   2.454   2.303   3.103
 1815SOL     OW 7289   2.261   2.470   2.994
 1815SOL    HW2 7290   2.255   2.548   3.049
 1815SOL    HW3 7291   2.339   2.424   3.026
 1815SOL    MW4 7292   2.271   2.475   3.005
 1816SOL     OW 7293   2.239   2.698   3.142
 1816SOL    HW2 7294   2.308   2.761   3.123
 1816SOL    HW3 7295   2.161   2.734   3.100
 1816SOL    MW4 7296   2.238   2.711   3.134
 1817SOL     OW 7297   2.452   2.831   3.042
 1817SOL    HW2 7298   2.470   2.923   3.061
 1817SOL    HW3 7299   2.454   2.825   2.947
 1817SOL    MW4 7300   2.454   2.842   3.032
 1818SOL     OW 7301   2.473   3.097   3.084
 1818SOL    HW2 7302   2.534   3.155   3.039
 1818SOL    HW3 7303   2.387   3.135   3.068
 1818SOL    MW4 7304   2.470   3.109   3.076
 1819SOL     OW 7305   2.242   3.217   3.035
 1819SOL    HW2 7306   2.244   3.306   3.069
 1819SOL    HW3 7307   2.165   3.178   3.076
 1819SOL    MW4 7308   2.232   3.223   3.045
 1820SOL     OW 7309   2.189   3.474   3.108
 1820SOL    HW2 7310   2.270   3.519   3.082
 1820SOL    HW3 7311   2.119   3.522   3.063
 1820SOL    MW4 7312   2.190   3.486   3.099
 1821SOL     OW 7313   2.415   3.581   2.986
 1821SOL    HW2 7314   2.501   3.553   3.017
 1821SOL    HW3 7315   2.413   3.675   3.003
 1821SOL    MW4 7316   2.426   3.590   2.993
 1822SOL     OW 7317   2.442   3.854   3.055
 1822SOL    HW2 7318   2.453   3.840   3.149
 1822SOL    HW3 7319   2.519   3.905   3.029
 1822SOL    MW4 7320   2.454   3.859   3.064
 1823SOL     OW 7321   2.223   4.032   3.019
 1823SOL    HW2 7322   2.295   3.974   3.041
 1823SOL    HW3 7323   2.144   3.982   3.038
 1823SOL    MW4 7324   2.222   4.018   3.024
 1824SOL     OW 7325   2.274   4.273   3.138
 1824SOL    HW2 7326   2.260   4.188   3.096
 1824SOL    HW3 7327   2.198   4.326   3.111
 1824SOL    MW4 7328   2.262   4.269   3.129
 1825SOL     OW 7329   2.480   4.422   3.016
 1825SOL    HW2 7330   2.407   4.365   3.041
 1825SOL    HW3 7331   2.492   4.406   2.922
 1825SOL    MW4 7332   2.472   4.412   3.007
 1826SOL     OW 7333   2.912   0.004   3.164
 1826SOL    HW2 7334   2.990   0.046   3.126
 1826SOL    HW3 7335   2.916  -0.086   3.133
 1826SOL    MW4 7336   2.923  -0.002   3.155
 1827SOL     OW 7337   2.705   0.103   3.019
 1827SOL    HW2 7338   2.773   0.064   3.074
 1827SOL    HW3 7339   2.623   0.069   3.055
 1827SOL    MW4 7340   2.703   0.093   3.031
 1828SOL     OW 7341   2.714   0.364   3.113
 1828SOL    HW2 7342   2.716   0.279   3.069
 1828SOL    HW3 7343   2.626   0.398   3.094
 1828SOL    MW4 7344   2.703   0.357   3.105
 1829SOL     OW 7345   2.921   0.518   3.007
 1829SOL    HW2 7346   2.855   0.454   3.035
 1829SOL    HW3 7347   2.904   0.531   2.914
 1829SOL    MW4 7348   2.910   0.511   2.999
 1830SOL     OW 7349   2.953   0.770   3.154
 1830SOL    HW2 7350   2.934   0.773   3.247
 1830SOL    HW3 7351   2.947   0.678   3.130
 1830SOL    MW4 7352   2.950   0.758   3.163
 1831SOL     OW 7353   2.734   0.889   2.984
 1831SOL    HW2 7354   2.742   0.977   3.022
 1831SOL    HW3 7355   2.800   0.837   3.029
 1831SOL    MW4 7356   2.744   0.894   2.995
 1832SOL     OW 7357   2.723   1.151   3.120
 1832SOL    HW2 7358   2.785   1.192   3.060
 1832SOL    HW3 7359   2.637   1.170   3.083
 1832SOL    MW4 7360   2.720   1.159   3.108
 1833SOL     OW 7361   2.931   1.268   2.967
 1833SOL    HW2 7362   3.009   1.230   3.008
 1833SOL    HW3 7363   2.929   1.359   2.997
 1833SOL    MW4 7364   2.941   1.275   2.976
 1834SOL     OW 7365   2.923   1.520   3.117
 1834SOL    HW2 7366   2.938   1.510   3.211
 1834SOL    HW3 7367   2.996   1.574   3.087
 1834SOL    MW4 7368   2.935   1.526   3.126
 1835SOL     OW 7369   2.725   1.647   2.974
 1835SOL    HW2 7370   2.803   1.605   3.010
 1835SOL    HW3 7371   2.652   1.610   3.025
 1835SOL    MW4 7372   2.725   1.636   2.986
 1836SOL     OW 7373   2.679   1.887   3.116
 1836SOL    HW2 7374   2.752   1.943   3.090
 1836SOL    HW3 7375   2.693   1.805   3.069
 1836SOL    MW4 7376   2.690   1.884   3.106
 1837SOL     OW 7377   2.864   2.062   2.978
 1837SOL    HW2 7378   2.873   2.152   3.010
 1837SOL    HW3 7379   2.872   2.069   2.883
 1837SOL    MW4 7380   2.866   2.075   2.970
 1838SOL     OW 7381   2.921   2.306   3.096
 1838SOL    HW2 7382   2.994   2.343   3.045
 1838SOL    HW3 7383   2.843   2.343   3.055
 1838SOL    MW4 7384   2.920   2.316   3.084
 1839SOL     OW 7385   2.691   2.432   3.023
 1839SOL    HW2 7386   2.698   2.524   3.050
 1839SOL    HW3 7387   2.609   2.402   3.062
 1839SOL    MW4 7388   2.681   2.440   3.032
 1840SOL     OW 7389   2.680   2.698   3.107
 1840SOL    HW2 7390   2.672   2.702   3.202
 1840SOL    HW3 7391   2.603   2.743   3.074
 1840SOL    MW4 7392   2.669   2.704   3.115
 1841SOL     OW 7393   2.886   2.812   2.975
 1841SOL    HW2 7394   2.964   2.767   3.006
 1841SOL    HW3 7395   2.813   2.765   3.015
 1841SOL    MW4 7396   2.886   2.800   2.985
 1842SOL     OW 7397   2.905   3.065   3.076
 1842SOL    HW2 7398   2.824   3.105   3.046
 1842SOL    HW3 7399   2.904   2.977   3.040
 1842SOL    MW4 7400   2.894   3.059   3.067
 1843SOL     OW 7401   2.700   3.230   2.973
 1843SOL    HW2 7402   2.706   3.325   2.984
 1843SOL    HW3 7403   2.699   3.217   2.878
 1843SOL    MW4 7404   2.701   3.241   2.962
 1844SOL     OW 7405   2.680   3.504   3.066
 1844SOL    HW2 7406   2.689   3.495   3.161
 1844SOL    HW3 7407   2.756   3.555   3.040
 1844SOL    MW4 7408   2.691   3.509   3.075
 1845SOL     OW 7409   2.934   3.621   2.980
 1845SOL    HW2 7410   2.985   3.552   3.022
 1845SOL    HW3 7411   2.944   3.697   3.038
 1845SOL    MW4 7412   2.942   3.622   2.993
 1846SOL     OW 7413   2.905   3.854   3.090
 1846SOL    HW2 7414   2.896   3.859   3.186
 1846SOL    HW3 7415   2.826   3.895   3.056
 1846SOL    MW4 7416   2.893   3.860   3.098
 1847SOL     OW 7417   2.673   3.987   3.032
 1847SOL    HW2 7418   2.686   4.074   3.069
 1847SOL    HW3 7419   2.687   3.999   2.938
 1847SOL    MW4 7420   2.677   4.000   3.024
 1848SOL     OW 7421   2.692   4.275   3.128
 1848SOL    HW2 7422   2.687   4.266   3.224
 1848SOL    HW3 7423   2.612   4.321   3.104
 1848SOL    MW4 7424   2.681   4.280   3.138
 1849SOL     OW 7425   2.942   4.385   3.052
 1849SOL    HW2 7426   3.014   4.335   3.091
 1849SOL    HW3 7427   2.863   4.343   3.085
 1849SOL    MW4 7428   2.941   4.373   3.062
 1850SOL     OW 7429   3.375   4.657   3.137
 1850SOL    HW2 7430   3.438   4.697   3.077
 1850SOL    HW3 7431   3.378   4.564   3.116
 1850SOL    MW4 7432   3.384   4.650   3.126
 1851SOL     OW 7433   3.145   0.106   3.033
 1851SOL    HW2 7434   3.146   0.200   3.055
 1851SOL    HW3 7435   3.224   0.071   3.074
 1851SOL    MW4 7436   3.156   0.114   3.041
 1852SOL     OW 7437   3.131   0.372   3.111
 1852SOL    HW2 7438   3.206   0.410   3.065
 1852SOL    HW3 7439   3.056   0.422   3.080
 1852SOL    MW4 7440   3.131   0.384   3.101
 1853SOL     OW 7441   3.349   0.503   3.006
 1853SOL    HW2 7442   3.420   0.447   3.037
 1853SOL    HW3 7443   3.359   0.504   2.911
 1853SOL    MW4 7444   3.359   0.496   2.998
 1854SOL     OW 7445   3.366   0.760   3.119
 1854SOL    HW2 7446   3.325   0.752   3.205
 1854SOL    HW3 7447   3.368   0.670   3.085
 1854SOL    MW4 7448   3.361   0.747   3.126
 1855SOL     OW 7449   3.171   0.896   3.011
 1855SOL    HW2 7450   3.252   0.850   3.032
 1855SOL    HW3 7451   3.104   0.852   3.063
 1855SOL    MW4 7452   3.173   0.884   3.020
 1856SOL     OW 7453   3.114   1.139   3.135
 1856SOL    HW2 7454   3.188   1.190   3.100
 1856SOL    HW3 7455   3.131   1.049   3.105
 1856SOL    MW4 7456   3.126   1.134   3.127
 1857SOL     OW 7457   3.331   1.256   2.996
 1857SOL    HW2 7458   3.419   1.220   3.005
 1857SOL    HW3 7459   3.339   1.347   3.028
 1857SOL    MW4 7460   3.344   1.264   3.002
 1858SOL     OW 7461   3.364   1.540   3.088
 1858SOL    HW2 7462   3.367   1.532   3.183
 1858SOL    HW3 7463   3.447   1.581   3.065
 1858SOL    MW4 7464   3.375   1.544   3.098
 1859SOL     OW 7465   3.136   1.681   3.022
 1859SOL    HW2 7466   3.219   1.635   3.036
 1859SOL    HW3 7467   3.124   1.680   2.927
 1859SOL    MW4 7468   3.145   1.675   3.011
 1860SOL     OW 7469   3.125   1.964   3.077
 1860SOL    HW2 7470   3.116   1.870   3.063
 1860SOL    HW3 7471   3.043   2.001   3.044
 1860SOL    MW4 7472   3.113   1.956   3.071
 1861SOL     OW 7473   3.377   2.048   2.993
 1861SOL    HW2 7474   3.429   1.987   3.045
 1861SOL    HW3 7475   3.287   2.016   3.002
 1861SOL    MW4 7476   3.372   2.036   3.001
 1862SOL     OW 7477   3.373   2.334   3.080
 1862SOL    HW2 7478   3.384   2.321   3.174
 1862SOL    HW3 7479   3.370   2.246   3.043
 1862SOL    MW4 7480   3.374   2.321   3.088
 1863SOL     OW 7481   3.143   2.445   2.965
 1863SOL    HW2 7482   3.230   2.421   2.997
 1863SOL    HW3 7483   3.149   2.433   2.870
 1863SOL    MW4 7484   3.156   2.440   2.957
 1864SOL     OW 7485   3.122   2.713   3.064
 1864SOL    HW2 7486   3.139   2.720   3.158
 1864SOL    HW3 7487   3.125   2.619   3.046
 1864SOL    MW4 7488   3.125   2.702   3.074
 1865SOL     OW 7489   3.353   2.871   2.964
 1865SOL    HW2 7490   3.341   2.957   3.003
 1865SOL    HW3 7491   3.280   2.819   2.999
 1865SOL    MW4 7492   3.342   2.875   2.974
 1866SOL     OW 7493   3.365   3.134   3.091
 1866SOL    HW2 7494   3.376   3.133   3.186
 1866SOL    HW3 7495   3.280   3.176   3.077
 1866SOL    MW4 7496   3.355   3.139   3.102
 1867SOL     OW 7497   3.120   3.218   3.011
 1867SOL    HW2 7498   3.040   3.176   3.042
 1867SOL    HW3 7499   3.127   3.191   2.919
 1867SOL    MW4 7500   3.110   3.209   3.003
 1868SOL     OW 7501   3.111   3.459   3.123
 1868SOL    HW2 7502   3.192   3.503   3.099
 1868SOL    HW3 7503   3.117   3.373   3.081
 1868SOL    MW4 7504   3.122   3.453   3.114
 1869SOL     OW 7505   3.333   3.582   3.026
 1869SOL    HW2 7506   3.421   3.554   3.052
 1869SOL    HW3 7507   3.336   3.678   3.031
 1869SOL    MW4 7508   3.345   3.591   3.030
 1870SOL     OW 7509   3.348   3.873   3.066
 1870SOL    HW2 7510   3.344   3.862   3.161
 1870SOL    HW3 7511   3.268   3.922   3.045
 1870SOL    MW4 7512   3.337   3.878   3.076
 1871SOL     OW 7513   3.117   4.012   3.029
 1871SOL    HW2 7514   3.045   3.951   3.044
 1871SOL    HW3 7515   3.124   4.018   2.933
 1871SOL    MW4 7516   3.109   4.005   3.018
 1872SOL     OW 7517   3.178   4.255   3.140
 1872SOL    HW2 7518   3.179   4.249   3.236
 1872SOL    HW3 7519   3.146   4.170   3.111
 1872SOL    MW4 7520   3.174   4.243   3.149
 1873SOL     OW 7521   3.397   4.403   3.051
 1873SOL    HW2 7522   3.480   4.361   3.073
 1873SOL    HW3 7523   3.330   4.345   3.088
 1873SOL    MW4 7524   3.399   4.390   3.059
 1874SOL     OW 7525   3.763   4.617   3.133
 1874SOL    HW2 7526   3.773   4.530   3.094
 1874SOL    HW3 7527   3.714   4.666   3.068
 1874SOL    MW4 7528   3.758   4.612   3.119
 1875SOL     OW 7529   3.577   0.097   2.995
 1875SOL    HW2 7530   3.566   0.184   3.034
 1875SOL    HW3 7531   3.571   0.111   2.901
 1875SOL    MW4 7532   3.575   0.110   2.988
 1876SOL     OW 7533   3.562   0.351   3.076
 1876SOL    HW2 7534   3.566   0.356   3.172
 1876SOL    HW3 7535   3.639   0.400   3.047
 1876SOL    MW4 7536   3.573   0.358   3.085
 1877SOL     OW 7537   3.804   0.508   3.007
 1877SOL    HW2 7538   3.852   0.460   3.075
 1877SOL    HW3 7539   3.788   0.594   3.046
 1877SOL    MW4 7540   3.808   0.513   3.021
 1878SOL     OW 7541   3.794   0.751   3.122
 1878SOL    HW2 7542   3.804   0.751   3.218
 1878SOL    HW3 7543   3.871   0.797   3.090
 1878SOL    MW4 7544   3.805   0.757   3.131
 1879SOL     OW 7545   3.602   0.884   2.983
 1879SOL    HW2 7546   3.676   0.841   3.025
 1879SOL    HW3 7547   3.525   0.857   3.033
 1879SOL    MW4 7548   3.602   0.875   2.995
 1880SOL     OW 7549   3.568   1.134   3.072
 1880SOL    HW2 7550   3.648   1.184   3.057
 1880SOL    HW3 7551   3.594   1.043   3.057
 1880SOL    MW4 7552   3.582   1.129   3.068
 1881SOL     OW 7553   3.837   1.242   3.034
 1881SOL    HW2 7554   3.837   1.324   3.083
 1881SOL    HW3 7555   3.817   1.268   2.944
 1881SOL    MW4 7556   3.834   1.256   3.028
 1882SOL     OW 7557   3.807   1.482   3.173
 1882SOL    HW2 7558   3.782   1.493   3.264
 1882SOL    HW3 7559   3.734   1.519   3.123
 1882SOL    MW4 7560   3.794   1.488   3.178
 1883SOL     OW 7561   3.610   1.612   3.018
 1883SOL    HW2 7562   3.610   1.702   3.050
 1883SOL    HW3 7563   3.607   1.621   2.922
 1883SOL    MW4 7564   3.609   1.625   3.009
 1884SOL     OW 7565   3.547   1.875   3.105
 1884SOL    HW2 7566   3.545   1.859   3.200
 1884SOL    HW3 7567   3.623   1.931   3.093
 1884SOL    MW4 7568   3.557   1.880   3.116
 1885SOL     OW 7569   3.780   2.032   3.004
 1885SOL    HW2 7570   3.790   2.125   3.022
 1885SOL    HW3 7571   3.785   2.026   2.908
 1885SOL    MW4 7572   3.782   2.043   2.993
 1886SOL     OW 7573   3.808   2.311   3.070
 1886SOL    HW2 7574   3.793   2.320   3.164
 1886SOL    HW3 7575   3.744   2.369   3.029
 1886SOL    MW4 7576   3.798   2.320   3.077
 1887SOL     OW 7577   3.601   2.442   2.964
 1887SOL    HW2 7578   3.595   2.534   2.992
 1887SOL    HW3 7579   3.539   2.396   3.021
 1887SOL    MW4 7580   3.592   2.448   2.975
 1888SOL     OW 7581   3.600   2.704   3.043
 1888SOL    HW2 7582   3.682   2.744   3.013
 1888SOL    HW3 7583   3.534   2.772   3.032
 1888SOL    MW4 7584   3.602   2.718   3.038
 1889SOL     OW 7585   3.827   2.833   2.973
 1889SOL    HW2 7586   3.812   2.923   3.003
 1889SOL    HW3 7587   3.845   2.841   2.880
 1889SOL    MW4 7588   3.827   2.846   2.965
 1890SOL     OW 7589   3.867   3.110   3.058
 1890SOL    HW2 7590   3.944   3.164   3.042
 1890SOL    HW3 7591   3.793   3.166   3.036
 1890SOL    MW4 7592   3.868   3.124   3.053
 1891SOL     OW 7593   3.627   3.233   2.993
 1891SOL    HW2 7594   3.545   3.189   3.014
 1891SOL    HW3 7595   3.635   3.227   2.898
 1891SOL    MW4 7596   3.617   3.227   2.983
 1892SOL     OW 7597   3.592   3.499   3.088
 1892SOL    HW2 7598   3.674   3.534   3.054
 1892SOL    HW3 7599   3.595   3.406   3.066
 1892SOL    MW4 7600   3.603   3.492   3.081
 1893SOL     OW 7601   3.826   3.628   2.995
 1893SOL    HW2 7602   3.810   3.718   3.025
 1893SOL    HW3 7603   3.817   3.633   2.900
 1893SOL    MW4 7604   3.822   3.641   2.986
 1894SOL     OW 7605   3.815   3.874   3.132
 1894SOL    HW2 7606   3.802   3.857   3.225
 1894SOL    HW3 7607   3.735   3.920   3.104
 1894SOL    MW4 7608   3.802   3.878   3.140
 1895SOL     OW 7609   3.597   3.991   3.017
 1895SOL    HW2 7610   3.519   3.938   3.033
 1895SOL    HW3 7611   3.623   3.970   2.927
 1895SOL    MW4 7612   3.590   3.981   3.007
 1896SOL     OW 7613   3.605   4.237   3.144
 1896SOL    HW2 7614   3.670   4.283   3.091
 1896SOL    HW3 7615   3.590   4.155   3.098
 1896SOL    MW4 7616   3.611   4.232   3.131
 1897SOL     OW 7617   3.810   4.369   3.016
 1897SOL    HW2 7618   3.886   4.317   3.041
 1897SOL    HW3 7619   3.824   4.390   2.924
 1897SOL    MW4 7620   3.822   4.365   3.008
 1898SOL     OW 7621   4.215   4.662   3.119
 1898SOL    HW2 7622   4.226   4.648   3.213
 1898SOL    HW3 7623   4.210   4.574   3.082
 1898SOL    MW4 7624   4.216   4.649   3.126
 1899SOL     OW 7625   3.974   0.096   3.011
 1899SOL    HW2 7626   4.056   0.059   3.044
 1899SOL    HW3 7627   3.906   0.049   3.060
 1899SOL    MW4 7628   3.975   0.085   3.022
 1900SOL     OW 7629   4.029   0.360   3.124
 1900SOL    HW2 7630   4.115   0.392   3.096
 1900SOL    HW3 7631   4.015   0.281   3.072
 1900SOL    MW4 7632   4.039   0.354   3.113
 1901SOL     OW 7633   4.294   0.487   3.044
 1901SOL    HW2 7634   4.295   0.579   3.073
 1901SOL    HW3 7635   4.283   0.492   2.949
 1901SOL    MW4 7636   4.292   0.500   3.036
 1902SOL     OW 7637   4.307   0.751   3.101
 1902SOL    HW2 7638   4.230   0.799   3.071
 1902SOL    HW3 7639   4.381   0.806   3.077
 1902SOL    MW4 7640   4.306   0.765   3.094
 1903SOL     OW 7641   4.037   0.859   3.023
 1903SOL    HW2 7642   4.057   0.945   3.060
 1903SOL    HW3 7643   4.018   0.876   2.931
 1903SOL    MW4 7644   4.037   0.872   3.016
 1904SOL     OW 7645   4.056   1.101   3.137
 1904SOL    HW2 7646   4.064   1.112   3.232
 1904SOL    HW3 7647   3.977   1.150   3.114
 1904SOL    MW4 7648   4.047   1.109   3.146
 1905SOL     OW 7649   4.281   1.249   3.042
 1905SOL    HW2 7650   4.205   1.196   3.068
 1905SOL    HW3 7651   4.276   1.251   2.947
 1905SOL    MW4 7652   4.270   1.242   3.033
 1906SOL     OW 7653   4.274   1.512   3.135
 1906SOL    HW2 7654   4.183   1.540   3.122
 1906SOL    HW3 7655   4.277   1.424   3.098
 1906SOL    MW4 7656   4.262   1.504   3.128
 1907SOL     OW 7657   4.021   1.603   3.044
 1907SOL    HW2 7658   4.012   1.692   3.078
 1907SOL    HW3 7659   3.958   1.552   3.095
 1907SOL    MW4 7660   4.011   1.608   3.055
 1908SOL     OW 7661   4.026   1.893   3.133
 1908SOL    HW2 7662   4.100   1.940   3.094
 1908SOL    HW3 7663   3.949   1.932   3.093
 1908SOL    MW4 7664   4.026   1.904   3.122
 1909SOL     OW 7665   4.223   2.033   2.959
 1909SOL    HW2 7666   4.236   2.126   2.980
 1909SOL    HW3 7667   4.239   2.028   2.865
 1909SOL    MW4 7668   4.227   2.045   2.949
 1910SOL     OW 7669   4.254   2.300   3.025
 1910SOL    HW2 7670   4.176   2.351   3.003
 1910SOL    HW3 7671   4.327   2.356   3.001
 1910SOL    MW4 7672   4.253   2.314   3.019
 1911SOL     OW 7673   4.027   2.443   2.952
 1911SOL    HW2 7674   4.034   2.531   2.989
 1911SOL    HW3 7675   3.949   2.406   2.994
 1911SOL    MW4 7676   4.017   2.450   2.963
 1912SOL     OW 7677   4.025   2.684   3.084
 1912SOL    HW2 7678   4.021   2.706   3.177
 1912SOL    HW3 7679   3.963   2.743   3.042
 1912SOL    MW4 7680   4.016   2.695   3.091
 1913SOL     OW 7681   4.251   2.836   3.028
 1913SOL    HW2 7682   4.174   2.789   3.060
 1913SOL    HW3 7683   4.324   2.776   3.046
 1913SOL    MW4 7684   4.251   2.822   3.035
 1914SOL     OW 7685   4.293   3.092   3.138
 1914SOL    HW2 7686   4.219   3.127   3.088
 1914SOL    HW3 7687   4.298   3.000   3.113
 1914SOL    MW4 7688   4.284   3.085   3.128
 1915SOL     OW 7689   4.097   3.234   2.982
 1915SOL    HW2 7690   4.088   3.328   2.997
 1915SOL    HW3 7691   4.087   3.223   2.888
 1915SOL    MW4 7692   4.095   3.245   2.972
 1916SOL     OW 7693   4.046   3.492   3.062
 1916SOL    HW2 7694   4.036   3.480   3.157
 1916SOL    HW3 7695   3.968   3.541   3.036
 1916SOL    MW4 7696   4.034   3.497   3.071
 1917SOL     OW 7697   4.270   3.612   2.949
 1917SOL    HW2 7698   4.276   3.694   2.998
 1917SOL    HW3 7699   4.187   3.574   2.977
 1917SOL    MW4 7700   4.260   3.618   2.959
 1918SOL     OW 7701   4.261   3.853   3.107
 1918SOL    HW2 7702   4.177   3.882   3.069
 1918SOL    HW3 7703   4.327   3.905   3.062
 1918SOL    MW4 7704   4.258   3.864   3.096
 1919SOL     OW 7705   4.032   3.977   2.980
 1919SOL    HW2 7706   4.054   4.052   3.035
 1919SOL    HW3 7707   3.959   3.935   3.025
 1919SOL    MW4 7708   4.025   3.981   2.993
 1920SOL     OW 7709   4.057   4.225   3.107
 1920SOL    HW2 7710   4.039   4.233   3.201
 1920SOL    HW3 7711   4.121   4.293   3.089
 1920SOL    MW4 7712   4.063   4.235   3.117
 1921SOL     OW 7713   4.236   4.405   3.017
 1921SOL    HW2 7714   4.321   4.361   3.030
 1921SOL    HW3 7715   4.223   4.406   2.923
 1921SOL    MW4 7716   4.246   4.399   3.007
 1922SOL     OW 7717   0.203   4.651   3.396
 1922SOL    HW2 7718   0.280   4.702   3.422
 1922SOL    HW3 7719   0.230   4.560   3.409
 1922SOL    MW4 7720   0.217   4.646   3.402
 1923SOL     OW 7721   4.467   0.081   3.539
 1923SOL    HW2 7722   4.463   0.169   3.500
 1923SOL    HW3 7723   4.543   0.040   3.499
 1923SOL    MW4 7724   4.476   0.087   3.528
 1924SOL     OW 7725   4.471   0.329   3.431
 1924SOL    HW2 7726   4.389   0.379   3.431
 1924SOL    HW3 7727   4.534   0.387   3.476
 1924SOL    MW4 7728   4.469   0.344   3.437
 1925SOL     OW 7729   0.202   0.508   3.511
 1925SOL    HW2 7730   0.277   0.462   3.473
 1925SOL    HW3 7731   0.204   0.595   3.472
 1925SOL    MW4 7732   0.212   0.514   3.501
 1926SOL     OW 7733   0.232   0.760   3.384
 1926SOL    HW2 7734   0.309   0.814   3.401
 1926SOL    HW3 7735   0.159   0.808   3.421
 1926SOL    MW4 7736   0.233   0.773   3.391
 1927SOL     OW 7737   4.486   0.864   3.498
 1927SOL    HW2 7738   4.493   0.862   3.594
 1927SOL    HW3 7739   4.490   0.957   3.476
 1927SOL    MW4 7740   4.487   0.876   3.508
 1928SOL     OW 7741   4.470   1.131   3.421
 1928SOL    HW2 7742   4.540   1.193   3.444
 1928SOL    HW3 7743   4.462   1.139   3.326
 1928SOL    MW4 7744   4.478   1.141   3.412
 1929SOL     OW 7745   0.210   1.273   3.500
 1929SOL    HW2 7746   0.289   1.227   3.472
 1929SOL    HW3 7747   0.228   1.365   3.481
 1929SOL    MW4 7748   0.223   1.279   3.494
 1930SOL     OW 7749   0.217   1.524   3.410
 1930SOL    HW2 7750   0.298   1.569   3.434
 1930SOL    HW3 7751   0.221   1.515   3.315
 1930SOL    MW4 7752   0.228   1.528   3.401
 1931SOL     OW 7753   4.483   1.672   3.502
 1931SOL    HW2 7754   4.414   1.618   3.464
 1931SOL    HW3 7755   4.565   1.629   3.476
 1931SOL    MW4 7756   4.485   1.659   3.494
 1932SOL     OW 7757   4.427   1.905   3.358
 1932SOL    HW2 7758   4.439   1.820   3.400
 1932SOL    HW3 7759   4.446   1.889   3.266
 1932SOL    MW4 7760   4.431   1.892   3.351
 1933SOL     OW 7761   0.149   2.043   3.447
 1933SOL    HW2 7762   0.151   2.035   3.542
 1933SOL    HW3 7763   0.069   1.996   3.421
 1933SOL    MW4 7764   0.139   2.036   3.456
 1934SOL     OW 7765   0.213   2.292   3.352
 1934SOL    HW2 7766   0.136   2.342   3.380
 1934SOL    HW3 7767   0.196   2.203   3.381
 1934SOL    MW4 7768   0.201   2.287   3.360
 1935SOL     OW 7769   4.479   2.427   3.445
 1935SOL    HW2 7770   4.483   2.420   3.541
 1935SOL    HW3 7771   4.402   2.375   3.421
 1935SOL    MW4 7772   4.469   2.419   3.455
 1936SOL     OW 7773   0.009   2.692   3.407
 1936SOL    HW2 7774   0.087   2.737   3.439
 1936SOL    HW3 7775   0.028   2.599   3.422
 1936SOL    MW4 7776   0.022   2.685   3.413
 1937SOL     OW 7777   0.254   2.830   3.504
 1937SOL    HW2 7778   0.317   2.772   3.461
 1937SOL    HW3 7779   0.266   2.915   3.462
 1937SOL    MW4 7780   0.264   2.833   3.493
 1938SOL     OW 7781   0.302   3.074   3.368
 1938SOL    HW2 7782   0.214   3.110   3.381
 1938SOL    HW3 7783   0.319   3.087   3.275
 1938SOL    MW4 7784   0.293   3.081   3.357
 1939SOL     OW 7785   0.066   3.211   3.440
 1939SOL    HW2 7786  -0.026   3.188   3.423
 1939SOL    HW3 7787   0.074   3.301   3.406
 1939SOL    MW4 7788   0.055   3.220   3.433
 1940SOL     OW 7789   0.037   3.494   3.349
 1940SOL    HW2 7790  -0.049   3.508   3.389
 1940SOL    HW3 7791   0.021   3.497   3.255
 1940SOL    MW4 7792   0.024   3.496   3.342
 1941SOL     OW 7793   0.256   3.616   3.463
 1941SOL    HW2 7794   0.266   3.619   3.559
 1941SOL    HW3 7795   0.167   3.584   3.450
 1941SOL    MW4 7796   0.246   3.612   3.474
 1942SOL     OW 7797   0.234   3.868   3.366
 1942SOL    HW2 7798   0.156   3.906   3.406
 1942SOL    HW3 7799   0.242   3.781   3.407
 1942SOL    MW4 7800   0.225   3.861   3.377
 1943SOL     OW 7801   4.485   3.986   3.457
 1943SOL    HW2 7802   4.478   4.008   3.549
 1943SOL    HW3 7803   4.477   4.070   3.411
 1943SOL    MW4 7804   4.483   4.000   3.463
 1944SOL     OW 7805   4.487   4.251   3.349
 1944SOL    HW2 7806   4.413   4.277   3.404
 1944SOL    HW3 7807   4.562   4.297   3.386
 1944SOL    MW4 7808   4.487   4.261   3.361
 1945SOL     OW 7809   0.231   4.366   3.448
 1945SOL    HW2 7810   0.229   4.365   3.544
 1945SOL    HW3 7811   0.298   4.302   3.425
 1945SOL    MW4 7812   0.240   4.358   3.457
 1946SOL     OW 7813   0.634   4.645   3.414
 1946SOL    HW2 7814   0.717   4.685   3.440
 1946SOL    HW3 7815   0.621   4.672   3.323
 1946SOL    MW4 7816   0.643   4.653   3.406
 1947SOL     OW 7817   0.410   0.119   3.499
 1947SOL    HW2 7818   0.397   0.111   3.593
 1947SOL    HW3 7819   0.497   0.082   3.484
 1947SOL    MW4 7820   0.420   0.113   3.509
 1948SOL     OW 7821   0.413   0.377   3.410
 1948SOL    HW2 7822   0.491   0.411   3.454
 1948SOL    HW3 7823   0.402   0.289   3.446
 1948SOL    MW4 7824   0.422   0.370   3.420
 1949SOL     OW 7825   0.668   0.499   3.477
 1949SOL    HW2 7826   0.664   0.516   3.571
 1949SOL    HW3 7827   0.749   0.450   3.465
 1949SOL    MW4 7828   0.678   0.495   3.488
 1950SOL     OW 7829   0.696   0.729   3.341
 1950SOL    HW2 7830   0.628   0.773   3.392
 1950SOL    HW3 7831   0.696   0.639   3.373
 1950SOL    MW4 7832   0.687   0.723   3.352
 1951SOL     OW 7833   0.493   0.866   3.452
 1951SOL    HW2 7834   0.482   0.864   3.547
 1951SOL    HW3 7835   0.484   0.958   3.428
 1951SOL    MW4 7836   0.491   0.878   3.461
 1952SOL     OW 7837   0.468   1.129   3.401
 1952SOL    HW2 7838   0.541   1.185   3.427
 1952SOL    HW3 7839   0.457   1.145   3.308
 1952SOL    MW4 7840   0.476   1.139   3.392
 1953SOL     OW 7841   0.667   1.283   3.490
 1953SOL    HW2 7842   0.748   1.233   3.483
 1953SOL    HW3 7843   0.673   1.349   3.420
 1953SOL    MW4 7844   0.679   1.285   3.480
 1954SOL     OW 7845   0.656   1.536   3.366
 1954SOL    HW2 7846   0.741   1.569   3.396
 1954SOL    HW3 7847   0.592   1.586   3.416
 1954SOL    MW4 7848   0.659   1.547   3.377
 1955SOL     OW 7849   0.439   1.676   3.472
 1955SOL    HW2 7850   0.446   1.680   3.568
 1955SOL    HW3 7851   0.436   1.767   3.444
 1955SOL    MW4 7852   0.440   1.689   3.481
 1956SOL     OW 7853   0.396   1.942   3.366
 1956SOL    HW2 7854   0.304   1.962   3.383
 1956SOL    HW3 7855   0.402   1.938   3.270
 1956SOL    MW4 7856   0.384   1.944   3.356
 1957SOL     OW 7857   0.642   2.023   3.515
 1957SOL    HW2 7858   0.633   2.041   3.608
 1957SOL    HW3 7859   0.555   1.995   3.487
 1957SOL    MW4 7860   0.629   2.022   3.523
 1958SOL     OW 7861   0.657   2.283   3.391
 1958SOL    HW2 7862   0.727   2.328   3.439
 1958SOL    HW3 7863   0.650   2.198   3.434
 1958SOL    MW4 7864   0.666   2.278   3.403
 1959SOL     OW 7865   0.421   2.443   3.459
 1959SOL    HW2 7866   0.498   2.385   3.454
 1959SOL    HW3 7867   0.348   2.388   3.431
 1959SOL    MW4 7868   0.422   2.428   3.454
 1960SOL     OW 7869   0.484   2.700   3.369
 1960SOL    HW2 7870   0.467   2.609   3.393
 1960SOL    HW3 7871   0.484   2.700   3.273
 1960SOL    MW4 7872   0.482   2.688   3.360
 1961SOL     OW 7873   0.673   2.878   3.473
 1961SOL    HW2 7874   0.758   2.835   3.462
 1961SOL    HW3 7875   0.610   2.819   3.432
 1961SOL    MW4 7876   0.676   2.865   3.466
 1962SOL     OW 7877   0.683   3.136   3.355
 1962SOL    HW2 7878   0.635   3.203   3.405
 1962SOL    HW3 7879   0.648   3.053   3.389
 1962SOL    MW4 7880   0.672   3.134   3.366
 1963SOL     OW 7881   0.490   3.270   3.508
 1963SOL    HW2 7882   0.482   3.276   3.603
 1963SOL    HW3 7883   0.429   3.201   3.482
 1963SOL    MW4 7884   0.481   3.261   3.517
 1964SOL     OW 7885   0.481   3.510   3.363
 1964SOL    HW2 7886   0.475   3.422   3.402
 1964SOL    HW3 7887   0.412   3.559   3.407
 1964SOL    MW4 7888   0.471   3.505   3.374
 1965SOL     OW 7889   0.700   3.591   3.506
 1965SOL    HW2 7890   0.770   3.541   3.464
 1965SOL    HW3 7891   0.620   3.563   3.461
 1965SOL    MW4 7892   0.698   3.581   3.494
 1966SOL     OW 7893   0.727   3.837   3.380
 1966SOL    HW2 7894   0.644   3.866   3.419
 1966SOL    HW3 7895   0.732   3.744   3.402
 1966SOL    MW4 7896   0.717   3.828   3.388
 1967SOL     OW 7897   0.477   3.924   3.482
 1967SOL    HW2 7898   0.476   4.015   3.454
 1967SOL    HW3 7899   0.392   3.889   3.455
 1967SOL    MW4 7900   0.465   3.931   3.475
 1968SOL     OW 7901   0.446   4.209   3.403
 1968SOL    HW2 7902   0.513   4.264   3.444
 1968SOL    HW3 7903   0.454   4.228   3.310
 1968SOL    MW4 7904   0.456   4.219   3.396
 1969SOL     OW 7905   0.640   4.375   3.514
 1969SOL    HW2 7906   0.719   4.335   3.479
 1969SOL    HW3 7907   0.639   4.463   3.477
 1969SOL    MW4 7908   0.650   4.381   3.505
 1970SOL     OW 7909   1.137   4.658   3.400
 1970SOL    HW2 7910   1.221   4.699   3.421
 1970SOL    HW3 7911   1.131   4.662   3.305
 1970SOL    MW4 7912   1.148   4.664   3.390
 1971SOL     OW 7913   0.889   0.085   3.469
 1971SOL    HW2 7914   0.902   0.086   3.563
 1971SOL    HW3 7915   0.974   0.064   3.432
 1971SOL    MW4 7916   0.902   0.082   3.476
 1972SOL     OW 7917   0.893   0.362   3.380
 1972SOL    HW2 7918   0.967   0.411   3.415
 1972SOL    HW3 7919   0.905   0.273   3.411
 1972SOL    MW4 7920   0.904   0.357   3.389
 1973SOL     OW 7921   1.106   0.508   3.495
 1973SOL    HW2 7922   1.118   0.514   3.589
 1973SOL    HW3 7923   1.098   0.599   3.466
 1973SOL    MW4 7924   1.106   0.521   3.503
 1974SOL     OW 7925   1.118   0.761   3.387
 1974SOL    HW2 7926   1.197   0.810   3.410
 1974SOL    HW3 7927   1.046   0.817   3.414
 1974SOL    MW4 7928   1.119   0.775   3.394
 1975SOL     OW 7929   0.884   0.894   3.462
 1975SOL    HW2 7930   0.867   0.986   3.441
 1975SOL    HW3 7931   0.827   0.846   3.402
 1975SOL    MW4 7932   0.874   0.900   3.451
 1976SOL     OW 7933   0.882   1.154   3.392
 1976SOL    HW2 7934   0.959   1.199   3.428
 1976SOL    HW3 7935   0.892   1.163   3.297
 1976SOL    MW4 7936   0.894   1.161   3.384
 1977SOL     OW 7937   1.130   1.285   3.443
 1977SOL    HW2 7938   1.130   1.305   3.537
 1977SOL    HW3 7939   1.141   1.370   3.400
 1977SOL    MW4 7940   1.131   1.299   3.450
 1978SOL     OW 7941   1.158   1.552   3.406
 1978SOL    HW2 7942   1.230   1.604   3.442
 1978SOL    HW3 7943   1.180   1.542   3.313
 1978SOL    MW4 7944   1.171   1.558   3.398
 1979SOL     OW 7945   0.897   1.618   3.451
 1979SOL    HW2 7946   0.893   1.711   3.429
 1979SOL    HW3 7947   0.989   1.595   3.441
 1979SOL    MW4 7948   0.909   1.627   3.447
 1980SOL     OW 7949   0.879   1.896   3.404
 1980SOL    HW2 7950   0.948   1.958   3.430
 1980SOL    HW3 7951   0.798   1.936   3.436
 1980SOL    MW4 7952   0.878   1.910   3.412
 1981SOL     OW 7953   1.087   2.055   3.474
 1981SOL    HW2 7954   1.177   2.023   3.472
 1981SOL    HW3 7955   1.093   2.145   3.440
 1981SOL    MW4 7956   1.099   2.063   3.469
 1982SOL     OW 7957   1.102   2.328   3.383
 1982SOL    HW2 7958   1.185   2.357   3.421
 1982SOL    HW3 7959   1.110   2.348   3.290
 1982SOL    MW4 7960   1.114   2.334   3.376
 1983SOL     OW 7961   0.875   2.443   3.485
 1983SOL    HW2 7962   0.881   2.439   3.580
 1983SOL    HW3 7963   0.956   2.401   3.454
 1983SOL    MW4 7964   0.887   2.437   3.493
 1984SOL     OW 7965   0.881   2.721   3.412
 1984SOL    HW2 7966   0.967   2.753   3.441
 1984SOL    HW3 7967   0.881   2.629   3.436
 1984SOL    MW4 7968   0.892   2.713   3.419
 1985SOL     OW 7969   1.111   2.812   3.472
 1985SOL    HW2 7970   1.134   2.820   3.565
 1985SOL    HW3 7971   1.187   2.769   3.432
 1985SOL    MW4 7972   1.124   2.807   3.479
 1986SOL     OW 7973   1.146   3.093   3.389
 1986SOL    HW2 7974   1.140   3.000   3.413
 1986SOL    HW3 7975   1.143   3.093   3.294
 1986SOL    MW4 7976   1.145   3.080   3.380
 1987SOL     OW 7977   0.934   3.227   3.493
 1987SOL    HW2 7978   1.012   3.192   3.450
 1987SOL    HW3 7979   0.861   3.191   3.443
 1987SOL    MW4 7980   0.935   3.217   3.481
 1988SOL     OW 7981   0.945   3.478   3.400
 1988SOL    HW2 7982   0.930   3.388   3.429
 1988SOL    HW3 7983   0.944   3.474   3.305
 1988SOL    MW4 7984   0.943   3.466   3.391
 1989SOL     OW 7985   1.138   3.657   3.521
 1989SOL    HW2 7986   1.134   3.637   3.615
 1989SOL    HW3 7987   1.073   3.599   3.482
 1989SOL    MW4 7988   1.129   3.647   3.528
 1990SOL     OW 7989   1.143   3.901   3.399
 1990SOL    HW2 7990   1.221   3.950   3.427
 1990SOL    HW3 7991   1.148   3.819   3.447
 1990SOL    MW4 7992   1.154   3.897   3.409
 1991SOL     OW 7993   0.923   4.012   3.494
 1991SOL    HW2 7994   0.998   3.975   3.447
 1991SOL    HW3 7995   0.849   3.958   3.470
 1991SOL    MW4 7996   0.923   4.000   3.485
 1992SOL     OW 7997   0.886   4.283   3.376
 1992SOL    HW2 7998   0.905   4.193   3.403
 1992SOL    HW3 7999   0.872   4.277   3.282
 1992SOL    MW4 8000   0.887   4.270   3.367
 1993SOL     OW 8001   1.138   4.384   3.474
 1993SOL    HW2 8002   1.058   4.343   3.442
 1993SOL    HW3 8003   1.122   4.478   3.465
 1993SOL    MW4 8004   1.126   4.391   3.468
 1994SOL     OW 8005   1.568   4.629   3.382
 1994SOL    HW2 8006   1.550   4.548   3.431
 1994SOL    HW3 8007   1.499   4.690   3.410
 1994SOL    MW4 8008   1.557   4.626   3.393
 1995SOL     OW 8009   1.367   0.116   3.479
 1995SOL    HW2 8010   1.361   0.105   3.574
 1995SOL    HW3 8011   1.346   0.209   3.464
 1995SOL    MW4 8012   1.364   0.127   3.490
 1996SOL     OW 8013   1.341   0.385   3.399
 1996SOL    HW2 8014   1.417   0.426   3.442
 1996SOL    HW3 8015   1.265   0.427   3.440
 1996SOL    MW4 8016   1.341   0.396   3.410
 1997SOL     OW 8017   1.560   0.507   3.500
 1997SOL    HW2 8018   1.560   0.505   3.596
 1997SOL    HW3 8019   1.639   0.458   3.475
 1997SOL    MW4 8020   1.571   0.500   3.509
 1998SOL     OW 8021   1.586   0.750   3.339
 1998SOL    HW2 8022   1.513   0.800   3.375
 1998SOL    HW3 8023   1.581   0.665   3.383
 1998SOL    MW4 8024   1.576   0.745   3.349
 1999SOL     OW 8025   1.361   0.874   3.445
 1999SOL    HW2 8026   1.357   0.872   3.541
 1999SOL    HW3 8027   1.360   0.967   3.422
 1999SOL    MW4 8028   1.360   0.886   3.455
 2000SOL     OW 8029   1.366   1.142   3.379
 2000SOL    HW2 8030   1.442   1.191   3.410
 2000SOL    HW3 8031   1.290   1.193   3.410
 2000SOL    MW4 8032   1.366   1.155   3.387
 2001SOL     OW 8033   1.573   1.274   3.501
 2001SOL    HW2 8034   1.574   1.271   3.596
 2001SOL    HW3 8035   1.657   1.237   3.474
 2001SOL    MW4 8036   1.584   1.269   3.510
 2002SOL     OW 8037   1.629   1.537   3.397
 2002SOL    HW2 8038   1.605   1.452   3.434
 2002SOL    HW3 8039   1.593   1.536   3.308
 2002SOL    MW4 8040   1.621   1.526   3.390
 2003SOL     OW 8041   1.405   1.688   3.503
 2003SOL    HW2 8042   1.398   1.688   3.599
 2003SOL    HW3 8043   1.482   1.634   3.485
 2003SOL    MW4 8044   1.414   1.681   3.514
 2004SOL     OW 8045   1.328   1.940   3.405
 2004SOL    HW2 8046   1.391   1.997   3.449
 2004SOL    HW3 8047   1.348   1.852   3.438
 2004SOL    MW4 8048   1.339   1.936   3.415
 2005SOL     OW 8049   1.543   2.060   3.526
 2005SOL    HW2 8050   1.624   2.017   3.500
 2005SOL    HW3 8051   1.553   2.151   3.497
 2005SOL    MW4 8052   1.555   2.067   3.519
 2006SOL     OW 8053   1.573   2.327   3.427
 2006SOL    HW2 8054   1.503   2.385   3.456
 2006SOL    HW3 8055   1.565   2.325   3.332
 2006SOL    MW4 8056   1.563   2.334   3.419
 2007SOL     OW 8057   1.324   2.441   3.509
 2007SOL    HW2 8058   1.312   2.454   3.603
 2007SOL    HW3 8059   1.342   2.529   3.475
 2007SOL    MW4 8060   1.325   2.454   3.517
 2008SOL     OW 8061   1.335   2.686   3.378
 2008SOL    HW2 8062   1.415   2.736   3.395
 2008SOL    HW3 8063   1.314   2.706   3.287
 2008SOL    MW4 8064   1.343   2.695   3.369
 2009SOL     OW 8065   1.546   2.849   3.481
 2009SOL    HW2 8066   1.630   2.815   3.449
 2009SOL    HW3 8067   1.537   2.933   3.438
 2009SOL    MW4 8068   1.556   2.855   3.471
 2010SOL     OW 8069   1.568   3.114   3.382
 2010SOL    HW2 8070   1.652   3.150   3.410
 2010SOL    HW3 8071   1.503   3.173   3.418
 2010SOL    MW4 8072   1.571   3.126   3.390
 2011SOL     OW 8073   1.371   3.264   3.511
 2011SOL    HW2 8074   1.360   3.270   3.605
 2011SOL    HW3 8075   1.319   3.188   3.485
 2011SOL    MW4 8076   1.362   3.255   3.520
 2012SOL     OW 8077   1.347   3.535   3.373
 2012SOL    HW2 8078   1.350   3.447   3.411
 2012SOL    HW3 8079   1.274   3.578   3.418
 2012SOL    MW4 8080   1.338   3.529   3.384
 2013SOL     OW 8081   1.583   3.644   3.452
 2013SOL    HW2 8082   1.573   3.646   3.547
 2013SOL    HW3 8083   1.496   3.621   3.419
 2013SOL    MW4 8084   1.570   3.641   3.460
 2014SOL     OW 8085   1.601   3.911   3.361
 2014SOL    HW2 8086   1.594   3.821   3.391
 2014SOL    HW3 8087   1.591   3.906   3.266
 2014SOL    MW4 8088   1.599   3.899   3.353
 2015SOL     OW 8089   1.375   4.027   3.457
 2015SOL    HW2 8090   1.360   4.110   3.412
 2015SOL    HW3 8091   1.457   3.994   3.419
 2015SOL    MW4 8092   1.384   4.033   3.446
 2016SOL     OW 8093   1.352   4.281   3.322
 2016SOL    HW2 8094   1.275   4.321   3.364
 2016SOL    HW3 8095   1.330   4.280   3.229
 2016SOL    MW4 8096   1.339   4.286   3.315
 2017SOL     OW 8097   1.580   4.366   3.495
 2017SOL    HW2 8098   1.661   4.358   3.445
 2017SOL    HW3 8099   1.517   4.312   3.448
 2017SOL    MW4 8100   1.582   4.358   3.482
 2018SOL     OW 8101   2.026   0.002   3.395
 2018SOL    HW2 8102   2.085   0.065   3.436
 2018SOL    HW3 8103   1.938   0.032   3.418
 2018SOL    MW4 8104   2.022   0.014   3.403
 2019SOL     OW 8105   1.784   0.104   3.471
 2019SOL    HW2 8106   1.775   0.094   3.566
 2019SOL    HW3 8107   1.708   0.059   3.434
 2019SOL    MW4 8108   1.772   0.097   3.479
 2020SOL     OW 8109   1.781   0.378   3.412
 2020SOL    HW2 8110   1.764   0.288   3.438
 2020SOL    HW3 8111   1.780   0.377   3.317
 2020SOL    MW4 8112   1.779   0.366   3.403
 2021SOL     OW 8113   1.999   0.523   3.514
 2021SOL    HW2 8114   1.998   0.610   3.475
 2021SOL    HW3 8115   1.918   0.482   3.484
 2021SOL    MW4 8116   1.988   0.529   3.505
 2022SOL     OW 8117   2.008   0.780   3.395
 2022SOL    HW2 8118   2.076   0.834   3.437
 2022SOL    HW3 8119   2.034   0.776   3.303
 2022SOL    MW4 8120   2.021   0.786   3.389
 2023SOL     OW 8121   1.778   0.885   3.481
 2023SOL    HW2 8122   1.864   0.850   3.457
 2023SOL    HW3 8123   1.716   0.832   3.431
 2023SOL    MW4 8124   1.781   0.873   3.472
 2024SOL     OW 8125   1.807   1.134   3.370
 2024SOL    HW2 8126   1.881   1.180   3.410
 2024SOL    HW3 8127   1.802   1.051   3.417
 2024SOL    MW4 8128   1.816   1.129   3.382
 2025SOL     OW 8129   2.048   1.262   3.505
 2025SOL    HW2 8130   2.056   1.271   3.600
 2025SOL    HW3 8131   2.030   1.351   3.474
 2025SOL    MW4 8132   2.047   1.275   3.513
 2026SOL     OW 8133   1.981   1.518   3.394
 2026SOL    HW2 8134   2.062   1.564   3.416
 2026SOL    HW3 8135   1.911   1.572   3.431
 2026SOL    MW4 8136   1.982   1.531   3.402
 2027SOL     OW 8137   1.816   1.697   3.561
 2027SOL    HW2 8138   1.802   1.784   3.523
 2027SOL    HW3 8139   1.746   1.643   3.525
 2027SOL    MW4 8140   1.805   1.701   3.552
 2028SOL     OW 8141   1.778   1.942   3.436
 2028SOL    HW2 8142   1.867   1.966   3.464
 2028SOL    HW3 8143   1.785   1.930   3.341
 2028SOL    MW4 8144   1.791   1.944   3.427
 2029SOL     OW 8145   2.021   2.057   3.495
 2029SOL    HW2 8146   2.106   2.019   3.473
 2029SOL    HW3 8147   2.023   2.144   3.455
 2029SOL    MW4 8148   2.032   2.064   3.487
 2030SOL     OW 8149   2.019   2.293   3.367
 2030SOL    HW2 8150   2.093   2.337   3.409
 2030SOL    HW3 8151   2.027   2.315   3.274
 2030SOL    MW4 8152   2.030   2.302   3.360
 2031SOL     OW 8153   1.806   2.449   3.499
 2031SOL    HW2 8154   1.883   2.401   3.470
 2031SOL    HW3 8155   1.732   2.394   3.474
 2031SOL    MW4 8156   1.806   2.436   3.492
 2032SOL     OW 8157   1.773   2.731   3.398
 2032SOL    HW2 8158   1.861   2.758   3.423
 2032SOL    HW3 8159   1.765   2.641   3.428
 2032SOL    MW4 8160   1.784   2.723   3.405
 2033SOL     OW 8161   2.028   2.824   3.494
 2033SOL    HW2 8162   2.021   2.843   3.587
 2033SOL    HW3 8163   2.025   2.910   3.452
 2033SOL    MW4 8164   2.026   2.838   3.500
 2034SOL     OW 8165   2.025   3.076   3.381
 2034SOL    HW2 8166   2.106   3.122   3.404
 2034SOL    HW3 8167   1.956   3.126   3.423
 2034SOL    MW4 8168   2.027   3.089   3.389
 2035SOL     OW 8169   1.799   3.217   3.497
 2035SOL    HW2 8170   1.794   3.221   3.593
 2035SOL    HW3 8171   1.795   3.308   3.469
 2035SOL    MW4 8172   1.798   3.230   3.506
 2036SOL     OW 8173   1.803   3.483   3.402
 2036SOL    HW2 8174   1.712   3.512   3.407
 2036SOL    HW3 8175   1.824   3.487   3.308
 2036SOL    MW4 8176   1.794   3.487   3.390
 2037SOL     OW 8177   2.029   3.627   3.495
 2037SOL    HW2 8178   2.099   3.578   3.453
 2037SOL    HW3 8179   1.949   3.578   3.474
 2037SOL    MW4 8180   2.028   3.614   3.487
 2038SOL     OW 8181   2.037   3.882   3.385
 2038SOL    HW2 8182   1.986   3.939   3.442
 2038SOL    HW3 8183   2.038   3.797   3.431
 2038SOL    MW4 8184   2.031   3.878   3.399
 2039SOL     OW 8185   1.818   4.024   3.491
 2039SOL    HW2 8186   1.803   4.007   3.583
 2039SOL    HW3 8187   1.741   3.987   3.447
 2039SOL    MW4 8188   1.806   4.017   3.497
 2040SOL     OW 8189   1.824   4.274   3.399
 2040SOL    HW2 8190   1.813   4.187   3.437
 2040SOL    HW3 8191   1.810   4.261   3.305
 2040SOL    MW4 8192   1.821   4.261   3.392
 2041SOL     OW 8193   2.052   4.403   3.476
 2041SOL    HW2 8194   1.972   4.358   3.452
 2041SOL    HW3 8195   2.036   4.495   3.454
 2041SOL    MW4 8196   2.039   4.409   3.470
 2042SOL     OW 8197   2.460   0.009   3.432
 2042SOL    HW2 8198   2.469  -0.080   3.464
 2042SOL    HW3 8199   2.469   0.003   3.337
 2042SOL    MW4 8200   2.462  -0.003   3.424
 2043SOL     OW 8201   2.233   0.167   3.495
 2043SOL    HW2 8202   2.247   0.249   3.448
 2043SOL    HW3 8203   2.319   0.125   3.497
 2043SOL    MW4 8204   2.246   0.172   3.489
 2044SOL     OW 8205   2.219   0.416   3.350
 2044SOL    HW2 8206   2.297   0.457   3.388
 2044SOL    HW3 8207   2.146   0.455   3.397
 2044SOL    MW4 8208   2.220   0.427   3.361
 2045SOL     OW 8209   2.444   0.522   3.491
 2045SOL    HW2 8210   2.520   0.477   3.455
 2045SOL    HW3 8211   2.445   0.608   3.448
 2045SOL    MW4 8212   2.454   0.528   3.480
 2046SOL     OW 8213   2.441   0.773   3.348
 2046SOL    HW2 8214   2.499   0.836   3.389
 2046SOL    HW3 8215   2.461   0.779   3.254
 2046SOL    MW4 8216   2.451   0.782   3.341
 2047SOL     OW 8217   2.232   0.909   3.482
 2047SOL    HW2 8218   2.226   0.994   3.438
 2047SOL    HW3 8219   2.290   0.857   3.427
 2047SOL    MW4 8220   2.239   0.913   3.469
 2048SOL     OW 8221   2.233   1.174   3.338
 2048SOL    HW2 8222   2.319   1.190   3.377
 2048SOL    HW3 8223   2.171   1.202   3.405
 2048SOL    MW4 8224   2.236   1.180   3.352
 2049SOL     OW 8225   2.428   1.244   3.509
 2049SOL    HW2 8226   2.446   1.276   3.597
 2049SOL    HW3 8227   2.514   1.219   3.475
 2049SOL    MW4 8228   2.442   1.245   3.516
 2050SOL     OW 8229   2.442   1.504   3.408
 2050SOL    HW2 8230   2.428   1.411   3.427
 2050SOL    HW3 8231   2.428   1.512   3.314
 2050SOL    MW4 8232   2.438   1.492   3.398
 2051SOL     OW 8233   2.235   1.664   3.490
 2051SOL    HW2 8234   2.239   1.651   3.585
 2051SOL    HW3 8235   2.313   1.619   3.457
 2051SOL    MW4 8236   2.246   1.656   3.499
 2052SOL     OW 8237   2.236   1.910   3.379
 2052SOL    HW2 8238   2.226   1.824   3.419
 2052SOL    HW3 8239   2.248   1.892   3.286
 2052SOL    MW4 8240   2.236   1.896   3.372
 2053SOL     OW 8241   2.453   2.057   3.463
 2053SOL    HW2 8242   2.439   2.060   3.558
 2053SOL    HW3 8243   2.376   2.012   3.429
 2053SOL    MW4 8244   2.441   2.052   3.471
 2054SOL     OW 8245   2.412   2.306   3.359
 2054SOL    HW2 8246   2.495   2.344   3.388
 2054SOL    HW3 8247   2.415   2.215   3.388
 2054SOL    MW4 8248   2.423   2.299   3.366
 2055SOL     OW 8249   2.209   2.420   3.517
 2055SOL    HW2 8250   2.219   2.509   3.483
 2055SOL    HW3 8251   2.271   2.368   3.467
 2055SOL    MW4 8252   2.218   2.425   3.506
 2056SOL     OW 8253   2.271   2.678   3.421
 2056SOL    HW2 8254   2.194   2.731   3.441
 2056SOL    HW3 8255   2.281   2.685   3.326
 2056SOL    MW4 8256   2.262   2.686   3.411
 2057SOL     OW 8257   2.480   2.838   3.506
 2057SOL    HW2 8258   2.474   2.917   3.453
 2057SOL    HW3 8259   2.403   2.787   3.480
 2057SOL    MW4 8260   2.469   2.842   3.495
 2058SOL     OW 8261   2.465   3.089   3.371
 2058SOL    HW2 8262   2.549   3.115   3.407
 2058SOL    HW3 8263   2.473   3.106   3.277
 2058SOL    MW4 8264   2.477   3.095   3.363
 2059SOL     OW 8265   2.242   3.215   3.451
 2059SOL    HW2 8266   2.259   3.221   3.545
 2059SOL    HW3 8267   2.320   3.175   3.414
 2059SOL    MW4 8268   2.254   3.210   3.458
 2060SOL     OW 8269   2.216   3.483   3.373
 2060SOL    HW2 8270   2.233   3.397   3.410
 2060SOL    HW3 8271   2.206   3.468   3.279
 2060SOL    MW4 8272   2.217   3.470   3.366
 2061SOL     OW 8273   2.450   3.589   3.456
 2061SOL    HW2 8274   2.460   3.675   3.415
 2061SOL    HW3 8275   2.368   3.556   3.421
 2061SOL    MW4 8276   2.441   3.596   3.446
 2062SOL     OW 8277   2.433   3.837   3.329
 2062SOL    HW2 8278   2.508   3.891   3.355
 2062SOL    HW3 8279   2.358   3.878   3.373
 2062SOL    MW4 8280   2.433   3.850   3.338
 2063SOL     OW 8281   2.263   3.978   3.489
 2063SOL    HW2 8282   2.289   4.067   3.467
 2063SOL    HW3 8283   2.175   3.969   3.452
 2063SOL    MW4 8284   2.254   3.989   3.481
 2064SOL     OW 8285   2.265   4.241   3.411
 2064SOL    HW2 8286   2.194   4.305   3.419
 2064SOL    HW3 8287   2.281   4.235   3.317
 2064SOL    MW4 8288   2.257   4.248   3.400
 2065SOL     OW 8289   2.462   4.415   3.496
 2065SOL    HW2 8290   2.449   4.421   3.591
 2065SOL    HW3 8291   2.394   4.354   3.467
 2065SOL    MW4 8292   2.451   4.408   3.505
 2066SOL     OW 8293   2.917   0.002   3.438
 2066SOL    HW2 8294   2.833   0.043   3.461
 2066SOL    HW3 8295   2.922   0.010   3.343
 2066SOL    MW4 8296   2.907   0.009   3.428
 2067SOL     OW 8297   2.676   0.153   3.500
 2067SOL    HW2 8298   2.668   0.244   3.471
 2067SOL    HW3 8299   2.598   0.110   3.466
 2067SOL    MW4 8300   2.665   0.159   3.492
 2068SOL     OW 8301   2.663   0.411   3.370
 2068SOL    HW2 8302   2.749   0.435   3.405
 2068SOL    HW3 8303   2.681   0.374   3.284
 2068SOL    MW4 8304   2.676   0.409   3.364
 2069SOL     OW 8305   2.920   0.506   3.495
 2069SOL    HW2 8306   2.923   0.516   3.590
 2069SOL    HW3 8307   2.907   0.595   3.461
 2069SOL    MW4 8308   2.919   0.519   3.503
 2070SOL     OW 8309   2.882   0.764   3.420
 2070SOL    HW2 8310   2.957   0.815   3.451
 2070SOL    HW3 8311   2.807   0.823   3.431
 2070SOL    MW4 8312   2.882   0.778   3.426
 2071SOL     OW 8313   2.650   0.918   3.482
 2071SOL    HW2 8314   2.640   0.911   3.577
 2071SOL    HW3 8315   2.672   1.010   3.466
 2071SOL    MW4 8316   2.651   0.929   3.492
 2072SOL     OW 8317   2.693   1.176   3.395
 2072SOL    HW2 8318   2.776   1.204   3.435
 2072SOL    HW3 8319   2.713   1.170   3.302
 2072SOL    MW4 8320   2.707   1.179   3.388
 2073SOL     OW 8321   2.934   1.291   3.518
 2073SOL    HW2 8322   2.943   1.285   3.613
 2073SOL    HW3 8323   3.017   1.257   3.484
 2073SOL    MW4 8324   2.946   1.286   3.526
 2074SOL     OW 8325   2.882   1.539   3.404
 2074SOL    HW2 8326   2.802   1.583   3.434
 2074SOL    HW3 8327   2.884   1.456   3.452
 2074SOL    MW4 8328   2.872   1.534   3.415
 2075SOL     OW 8329   2.660   1.643   3.520
 2075SOL    HW2 8330   2.641   1.725   3.473
 2075SOL    HW3 8331   2.597   1.580   3.485
 2075SOL    MW4 8332   2.649   1.646   3.509
 2076SOL     OW 8333   2.657   1.880   3.400
 2076SOL    HW2 8334   2.579   1.931   3.424
 2076SOL    HW3 8335   2.658   1.882   3.304
 2076SOL    MW4 8336   2.647   1.887   3.390
 2077SOL     OW 8337   2.875   2.043   3.477
 2077SOL    HW2 8338   2.891   2.036   3.571
 2077SOL    HW3 8339   2.804   1.981   3.460
 2077SOL    MW4 8340   2.868   2.034   3.487
 2078SOL     OW 8341   2.904   2.326   3.385
 2078SOL    HW2 8342   2.903   2.236   3.418
 2078SOL    HW3 8343   2.905   2.317   3.289
 2078SOL    MW4 8344   2.904   2.313   3.376
 2079SOL     OW 8345   2.652   2.430   3.470
 2079SOL    HW2 8346   2.638   2.414   3.563
 2079SOL    HW3 8347   2.738   2.393   3.451
 2079SOL    MW4 8348   2.661   2.423   3.480
 2080SOL     OW 8349   2.666   2.691   3.379
 2080SOL    HW2 8350   2.655   2.596   3.390
 2080SOL    HW3 8351   2.596   2.729   3.432
 2080SOL    MW4 8352   2.655   2.683   3.388
 2081SOL     OW 8353   2.916   2.758   3.460
 2081SOL    HW2 8354   2.896   2.726   3.548
 2081SOL    HW3 8355   2.846   2.722   3.405
 2081SOL    MW4 8356   2.905   2.749   3.464
 2082SOL     OW 8357   2.910   3.028   3.357
 2082SOL    HW2 8358   2.906   2.936   3.384
 2082SOL    HW3 8359   2.903   3.025   3.261
 2082SOL    MW4 8360   2.908   3.016   3.348
 2083SOL     OW 8361   2.701   3.167   3.459
 2083SOL    HW2 8362   2.709   3.158   3.554
 2083SOL    HW3 8363   2.777   3.121   3.424
 2083SOL    MW4 8364   2.712   3.160   3.467
 2084SOL     OW 8365   2.671   3.454   3.355
 2084SOL    HW2 8366   2.676   3.364   3.387
 2084SOL    HW3 8367   2.600   3.494   3.405
 2084SOL    MW4 8368   2.663   3.447   3.366
 2085SOL     OW 8369   2.898   3.586   3.459
 2085SOL    HW2 8370   2.885   3.679   3.440
 2085SOL    HW3 8371   2.827   3.542   3.413
 2085SOL    MW4 8372   2.887   3.592   3.451
 2086SOL     OW 8373   2.896   3.847   3.364
 2086SOL    HW2 8374   2.982   3.888   3.375
 2086SOL    HW3 8375   2.833   3.914   3.391
 2086SOL    MW4 8376   2.899   3.861   3.369
 2087SOL     OW 8377   2.676   3.989   3.442
 2087SOL    HW2 8378   2.677   3.965   3.534
 2087SOL    HW3 8379   2.676   4.085   3.441
 2087SOL    MW4 8380   2.676   3.999   3.454
 2088SOL     OW 8381   2.684   4.266   3.400
 2088SOL    HW2 8382   2.764   4.305   3.434
 2088SOL    HW3 8383   2.614   4.316   3.441
 2088SOL    MW4 8384   2.685   4.277   3.410
 2089SOL     OW 8385   2.940   4.399   3.466
 2089SOL    HW2 8386   2.935   4.400   3.561
 2089SOL    HW3 8387   2.932   4.491   3.441
 2089SOL    MW4 8388   2.938   4.411   3.475
 2090SOL     OW 8389   3.392   4.638   3.413
 2090SOL    HW2 8390   3.309   4.677   3.441
 2090SOL    HW3 8391   3.387   4.636   3.318
 2090SOL    MW4 8392   3.380   4.643   3.404
 2091SOL     OW 8393   3.163   0.097   3.519
 2091SOL    HW2 8394   3.164   0.184   3.478
 2091SOL    HW3 8395   3.079   0.059   3.493
 2091SOL    MW4 8396   3.152   0.104   3.510
 2092SOL     OW 8397   3.126   0.349   3.389
 2092SOL    HW2 8398   3.051   0.403   3.414
 2092SOL    HW3 8399   3.127   0.353   3.293
 2092SOL    MW4 8400   3.116   0.357   3.379
 2093SOL     OW 8401   3.347   0.488   3.488
 2093SOL    HW2 8402   3.350   0.494   3.583
 2093SOL    HW3 8403   3.259   0.455   3.469
 2093SOL    MW4 8404   3.336   0.484   3.498
 2094SOL     OW 8405   3.328   0.754   3.385
 2094SOL    HW2 8406   3.405   0.808   3.403
 2094SOL    HW3 8407   3.354   0.665   3.411
 2094SOL    MW4 8408   3.342   0.749   3.391
 2095SOL     OW 8409   3.112   0.883   3.492
 2095SOL    HW2 8410   3.128   0.976   3.474
 2095SOL    HW3 8411   3.194   0.839   3.466
 2095SOL    MW4 8412   3.125   0.889   3.486
 2096SOL     OW 8413   3.154   1.143   3.418
 2096SOL    HW2 8414   3.237   1.185   3.442
 2096SOL    HW3 8415   3.151   1.150   3.322
 2096SOL    MW4 8416   3.165   1.150   3.408
 2097SOL     OW 8417   3.366   1.297   3.495
 2097SOL    HW2 8418   3.437   1.257   3.445
 2097SOL    HW3 8419   3.343   1.376   3.447
 2097SOL    MW4 8420   3.372   1.302   3.482
 2098SOL     OW 8421   3.341   1.532   3.376
 2098SOL    HW2 8422   3.416   1.558   3.430
 2098SOL    HW3 8423   3.266   1.572   3.420
 2098SOL    MW4 8424   3.341   1.541   3.389
 2099SOL     OW 8425   3.131   1.654   3.510
 2099SOL    HW2 8426   3.121   1.742   3.473
 2099SOL    HW3 8427   3.050   1.609   3.486
 2099SOL    MW4 8428   3.119   1.660   3.502
 2100SOL     OW 8429   3.109   1.919   3.354
 2100SOL    HW2 8430   3.026   1.958   3.382
 2100SOL    HW3 8431   3.107   1.925   3.259
 2100SOL    MW4 8432   3.097   1.925   3.346
 2101SOL     OW 8433   3.359   2.033   3.446
 2101SOL    HW2 8434   3.368   2.122   3.412
 2101SOL    HW3 8435   3.267   2.010   3.429
 2101SOL    MW4 8436   3.348   2.042   3.439
 2102SOL     OW 8437   3.403   2.297   3.349
 2102SOL    HW2 8438   3.462   2.353   3.399
 2102SOL    HW3 8439   3.315   2.327   3.373
 2102SOL    MW4 8440   3.399   2.308   3.359
 2103SOL     OW 8441   3.167   2.415   3.439
 2103SOL    HW2 8442   3.150   2.507   3.421
 2103SOL    HW3 8443   3.084   2.371   3.422
 2103SOL    MW4 8444   3.154   2.421   3.434
 2104SOL     OW 8445   3.150   2.679   3.349
 2104SOL    HW2 8446   3.230   2.716   3.387
 2104SOL    HW3 8447   3.080   2.709   3.407
 2104SOL    MW4 8448   3.151   2.688   3.362
 2105SOL     OW 8449   3.353   2.840   3.460
 2105SOL    HW2 8450   3.443   2.818   3.436
 2105SOL    HW3 8451   3.343   2.932   3.433
 2105SOL    MW4 8452   3.364   2.850   3.453
 2106SOL     OW 8453   3.390   3.102   3.365
 2106SOL    HW2 8454   3.461   3.149   3.408
 2106SOL    HW3 8455   3.311   3.150   3.390
 2106SOL    MW4 8456   3.389   3.115   3.374
 2107SOL     OW 8457   3.132   3.170   3.458
 2107SOL    HW2 8458   3.103   3.259   3.440
 2107SOL    HW3 8459   3.064   3.114   3.420
 2107SOL    MW4 8460   3.120   3.174   3.450
 2108SOL     OW 8461   3.108   3.436   3.399
 2108SOL    HW2 8462   3.035   3.495   3.416
 2108SOL    HW3 8463   3.119   3.439   3.304
 2108SOL    MW4 8464   3.100   3.444   3.388
 2109SOL     OW 8465   3.344   3.569   3.459
 2109SOL    HW2 8466   3.348   3.652   3.413
 2109SOL    HW3 8467   3.261   3.530   3.431
 2109SOL    MW4 8468   3.333   3.575   3.450
 2110SOL     OW 8469   3.367   3.830   3.340
 2110SOL    HW2 8470   3.433   3.887   3.379
 2110SOL    HW3 8471   3.284   3.858   3.379
 2110SOL    MW4 8472   3.365   3.841   3.351
 2111SOL     OW 8473   3.127   3.954   3.434
 2111SOL    HW2 8474   3.133   3.928   3.525
 2111SOL    HW3 8475   3.139   4.049   3.435
 2111SOL    MW4 8476   3.129   3.963   3.446
 2112SOL     OW 8477   3.161   4.223   3.445
 2112SOL    HW2 8478   3.236   4.273   3.477
 2112SOL    HW3 8479   3.086   4.281   3.460
 2112SOL    MW4 8480   3.161   4.238   3.451
 2113SOL     OW 8481   3.397   4.382   3.516
 2113SOL    HW2 8482   3.416   4.381   3.610
 2113SOL    HW3 8483   3.396   4.474   3.493
 2113SOL    MW4 8484   3.400   4.394   3.526
 2114SOL     OW 8485   3.834   0.017   3.393
 2114SOL    HW2 8486   3.759   0.067   3.425
 2114SOL    HW3 8487   3.813  -0.003   3.302
 2114SOL    MW4 8488   3.821   0.021   3.386
 2115SOL     OW 8489   3.599   0.135   3.508
 2115SOL    HW2 8490   3.584   0.220   3.467
 2115SOL    HW3 8491   3.533   0.077   3.469
 2115SOL    MW4 8492   3.588   0.138   3.497
 2116SOL     OW 8493   3.550   0.364   3.368
 2116SOL    HW2 8494   3.620   0.419   3.401
 2116SOL    HW3 8495   3.470   0.401   3.405
 2116SOL    MW4 8496   3.548   0.376   3.377
 2117SOL     OW 8497   3.768   0.494   3.475
 2117SOL    HW2 8498   3.779   0.495   3.570
 2117SOL    HW3 8499   3.845   0.446   3.442
 2117SOL    MW4 8500   3.780   0.488   3.483
 2118SOL     OW 8501   3.806   0.753   3.396
 2118SOL    HW2 8502   3.882   0.789   3.441
 2118SOL    HW3 8503   3.803   0.662   3.423
 2118SOL    MW4 8504   3.816   0.746   3.405
 2119SOL     OW 8505   3.555   0.885   3.456
 2119SOL    HW2 8506   3.548   0.885   3.551
 2119SOL    HW3 8507   3.637   0.840   3.438
 2119SOL    MW4 8508   3.565   0.879   3.466
 2120SOL     OW 8509   3.556   1.161   3.362
 2120SOL    HW2 8510   3.566   1.072   3.397
 2120SOL    HW3 8511   3.549   1.148   3.268
 2120SOL    MW4 8512   3.556   1.147   3.355
 2121SOL     OW 8513   3.804   1.225   3.479
 2121SOL    HW2 8514   3.809   1.220   3.575
 2121SOL    HW3 8515   3.712   1.209   3.459
 2121SOL    MW4 8516   3.793   1.222   3.489
 2122SOL     OW 8517   3.759   1.506   3.442
 2122SOL    HW2 8518   3.845   1.541   3.466
 2122SOL    HW3 8519   3.770   1.411   3.445
 2122SOL    MW4 8520   3.772   1.498   3.446
 2123SOL     OW 8521   3.541   1.642   3.538
 2123SOL    HW2 8522   3.561   1.727   3.498
 2123SOL    HW3 8523   3.613   1.585   3.511
 2123SOL    MW4 8524   3.553   1.646   3.529
 2124SOL     OW 8525   3.582   1.883   3.375
 2124SOL    HW2 8526   3.664   1.928   3.394
 2124SOL    HW3 8527   3.515   1.936   3.418
 2124SOL    MW4 8528   3.584   1.896   3.383
 2125SOL     OW 8529   3.800   2.042   3.411
 2125SOL    HW2 8530   3.790   2.060   3.504
 2125SOL    HW3 8531   3.879   1.989   3.404
 2125SOL    MW4 8532   3.809   2.037   3.422
 2126SOL     OW 8533   3.802   2.314   3.349
 2126SOL    HW2 8534   3.891   2.332   3.380
 2126SOL    HW3 8535   3.788   2.221   3.370
 2126SOL    MW4 8536   3.812   2.304   3.356
 2127SOL     OW 8537   3.608   2.468   3.470
 2127SOL    HW2 8538   3.604   2.557   3.434
 2127SOL    HW3 8539   3.685   2.429   3.428
 2127SOL    MW4 8540   3.618   2.475   3.460
 2128SOL     OW 8541   3.581   2.726   3.331
 2128SOL    HW2 8542   3.664   2.766   3.353
 2128SOL    HW3 8543   3.587   2.707   3.237
 2128SOL    MW4 8544   3.593   2.729   3.321
 2129SOL     OW 8545   3.826   2.807   3.455
 2129SOL    HW2 8546   3.797   2.804   3.546
 2129SOL    HW3 8547   3.833   2.901   3.435
 2129SOL    MW4 8548   3.824   2.819   3.464
 2130SOL     OW 8549   3.850   3.067   3.348
 2130SOL    HW2 8550   3.925   3.114   3.383
 2130SOL    HW3 8551   3.863   3.065   3.253
 2130SOL    MW4 8552   3.861   3.073   3.340
 2131SOL     OW 8553   3.621   3.206   3.462
 2131SOL    HW2 8554   3.624   3.294   3.427
 2131SOL    HW3 8555   3.681   3.156   3.406
 2131SOL    MW4 8556   3.630   3.211   3.450
 2132SOL     OW 8557   3.591   3.463   3.371
 2132SOL    HW2 8558   3.509   3.501   3.401
 2132SOL    HW3 8559   3.591   3.476   3.276
 2132SOL    MW4 8560   3.580   3.470   3.362
 2133SOL     OW 8561   3.822   3.578   3.460
 2133SOL    HW2 8562   3.828   3.556   3.553
 2133SOL    HW3 8563   3.748   3.527   3.428
 2133SOL    MW4 8564   3.813   3.569   3.468
 2134SOL     OW 8565   3.821   3.851   3.398
 2134SOL    HW2 8566   3.736   3.880   3.430
 2134SOL    HW3 8567   3.822   3.756   3.415
 2134SOL    MW4 8568   3.810   3.842   3.404
 2135SOL     OW 8569   3.585   3.970   3.482
 2135SOL    HW2 8570   3.576   3.964   3.577
 2135SOL    HW3 8571   3.615   4.059   3.466
 2135SOL    MW4 8572   3.588   3.981   3.492
 2136SOL     OW 8573   3.616   4.269   3.424
 2136SOL    HW2 8574   3.534   4.302   3.461
 2136SOL    HW3 8575   3.598   4.260   3.330
 2136SOL    MW4 8576   3.603   4.272   3.417
 2137SOL     OW 8577   3.825   4.416   3.506
 2137SOL    HW2 8578   3.747   4.375   3.469
 2137SOL    HW3 8579   3.823   4.506   3.473
 2137SOL    MW4 8580   3.814   4.422   3.497
 2138SOL     OW 8581   4.256   4.644   3.404
 2138SOL    HW2 8582   4.262   4.552   3.429
 2138SOL    HW3 8583   4.337   4.683   3.437
 2138SOL    MW4 8584   4.267   4.637   3.412
 2139SOL     OW 8585   4.065   0.151   3.488
 2139SOL    HW2 8586   4.140   0.098   3.462
 2139SOL    HW3 8587   3.989   0.106   3.451
 2139SOL    MW4 8588   4.065   0.138   3.480
 2140SOL     OW 8589   4.019   0.407   3.403
 2140SOL    HW2 8590   4.042   0.323   3.442
 2140SOL    HW3 8591   4.011   0.389   3.309
 2140SOL    MW4 8592   4.021   0.394   3.396
 2141SOL     OW 8593   4.258   0.500   3.492
 2141SOL    HW2 8594   4.271   0.590   3.463
 2141SOL    HW3 8595   4.168   0.480   3.466
 2141SOL    MW4 8596   4.248   0.509   3.485
 2142SOL     OW 8597   4.264   0.771   3.370
 2142SOL    HW2 8598   4.330   0.817   3.421
 2142SOL    HW3 8599   4.292   0.779   3.279
 2142SOL    MW4 8600   4.276   0.778   3.365
 2143SOL     OW 8601   4.020   0.861   3.532
 2143SOL    HW2 8602   4.025   0.948   3.491
 2143SOL    HW3 8603   4.088   0.810   3.488
 2143SOL    MW4 8604   4.030   0.866   3.520
 2144SOL     OW 8605   4.045   1.101   3.399
 2144SOL    HW2 8606   4.108   1.158   3.443
 2144SOL    HW3 8607   3.959   1.132   3.429
 2144SOL    MW4 8608   4.042   1.113   3.409
 2145SOL     OW 8609   4.236   1.251   3.531
 2145SOL    HW2 8610   4.252   1.335   3.489
 2145SOL    HW3 8611   4.316   1.201   3.514
 2145SOL    MW4 8612   4.249   1.255   3.523
 2146SOL     OW 8613   4.265   1.514   3.423
 2146SOL    HW2 8614   4.178   1.551   3.437
 2146SOL    HW3 8615   4.278   1.519   3.328
 2146SOL    MW4 8616   4.255   1.520   3.413
 2147SOL     OW 8617   4.005   1.611   3.493
 2147SOL    HW2 8618   4.020   1.613   3.588
 2147SOL    HW3 8619   4.007   1.703   3.467
 2147SOL    MW4 8620   4.007   1.623   3.502
 2148SOL     OW 8621   4.012   1.885   3.401
 2148SOL    HW2 8622   4.091   1.927   3.435
 2148SOL    HW3 8623   4.023   1.887   3.306
 2148SOL    MW4 8624   4.024   1.891   3.393
 2149SOL     OW 8625   4.236   2.046   3.466
 2149SOL    HW2 8626   4.232   2.133   3.425
 2149SOL    HW3 8627   4.306   2.001   3.419
 2149SOL    MW4 8628   4.245   2.052   3.454
 2150SOL     OW 8629   4.282   2.289   3.314
 2150SOL    HW2 8630   4.203   2.330   3.351
 2150SOL    HW3 8631   4.260   2.272   3.223
 2150SOL    MW4 8632   4.268   2.292   3.307
 2151SOL     OW 8633   4.055   2.412   3.439
 2151SOL    HW2 8634   4.068   2.430   3.532
 2151SOL    HW3 8635   4.037   2.497   3.399
 2151SOL    MW4 8636   4.055   2.425   3.446
 2152SOL     OW 8637   4.053   2.701   3.366
 2152SOL    HW2 8638   4.117   2.749   3.417
 2152SOL    HW3 8639   3.968   2.727   3.403
 2152SOL    MW4 8640   4.050   2.711   3.378
 2153SOL     OW 8641   4.269   2.844   3.477
 2153SOL    HW2 8642   4.250   2.822   3.569
 2153SOL    HW3 8643   4.352   2.800   3.459
 2153SOL    MW4 8644   4.277   2.835   3.487
 2154SOL     OW 8645   4.294   3.120   3.424
 2154SOL    HW2 8646   4.298   3.026   3.442
 2154SOL    HW3 8647   4.289   3.125   3.329
 2154SOL    MW4 8648   4.293   3.108   3.414
 2155SOL     OW 8649   4.050   3.224   3.455
 2155SOL    HW2 8650   4.052   3.311   3.416
 2155SOL    HW3 8651   4.141   3.193   3.451
 2155SOL    MW4 8652   4.062   3.232   3.450
 2156SOL     OW 8653   4.053   3.469   3.345
 2156SOL    HW2 8654   4.125   3.513   3.390
 2156SOL    HW3 8655   3.975   3.515   3.375
 2156SOL    MW4 8656   4.052   3.481   3.354
 2157SOL     OW 8657   4.283   3.580   3.465
 2157SOL    HW2 8658   4.271   3.571   3.559
 2157SOL    HW3 8659   4.290   3.675   3.450
 2157SOL    MW4 8660   4.282   3.591   3.475
 2158SOL     OW 8661   4.276   3.841   3.388
 2158SOL    HW2 8662   4.354   3.893   3.405
 2158SOL    HW3 8663   4.269   3.839   3.292
 2158SOL    MW4 8664   4.285   3.848   3.378
 2159SOL     OW 8665   4.033   4.008   3.466
 2159SOL    HW2 8666   4.100   3.953   3.428
 2159SOL    HW3 8667   3.951   3.960   3.452
 2159SOL    MW4 8668   4.031   3.994   3.459
 2160SOL     OW 8669   4.002   4.267   3.363
 2160SOL    HW2 8670   4.006   4.180   3.405
 2160SOL    HW3 8671   3.945   4.318   3.420
 2160SOL    MW4 8672   3.995   4.262   3.376
 2161SOL     OW 8673   4.271   4.348   3.477
 2161SOL    HW2 8674   4.253   4.351   3.571
 2161SOL    HW3 8675   4.187   4.328   3.437
 2161SOL    MW4 8676   4.258   4.346   3.484
 2162SOL     OW 8677   0.237   4.630   3.889
 2162SOL    HW2 8678   0.239   4.639   3.984
 2162SOL    HW3 8679   0.164   4.684   3.861
 2162SOL    MW4 8680   0.228   4.638   3.898
 2163SOL     OW 8681   0.007   0.102   3.812
 2163SOL    HW2 8682  -0.009   0.195   3.826
 2163SOL    HW3 8683  -0.004   0.090   3.718
 2163SOL    MW4 8684   0.003   0.113   3.801
 2164SOL     OW 8685   4.462   0.377   3.868
 2164SOL    HW2 8686   4.388   0.413   3.819
 2164SOL    HW3 8687   4.538   0.426   3.837
 2164SOL    MW4 8688   4.462   0.388   3.858
 2165SOL     OW 8689   0.205   0.532   3.778
 2165SOL    HW2 8690   0.221   0.618   3.815
 2165SOL    HW3 8691   0.227   0.540   3.685
 2165SOL    MW4 8692   0.210   0.544   3.770
 2166SOL     OW 8693   0.226   0.777   3.885
 2166SOL    HW2 8694   0.218   0.765   3.979
 2166SOL    HW3 8695   0.154   0.836   3.861
 2166SOL    MW4 8696   0.215   0.783   3.894
 2167SOL     OW 8697   0.011   0.913   3.772
 2167SOL    HW2 8698  -0.061   0.853   3.794
 2167SOL    HW3 8699  -0.010   0.994   3.820
 2167SOL    MW4 8700  -0.001   0.916   3.781
 2168SOL     OW 8701   0.018   1.153   3.897
 2168SOL    HW2 8702  -0.052   1.191   3.844
 2168SOL    HW3 8703   0.099   1.178   3.852
 2168SOL    MW4 8704   0.020   1.162   3.884
 2169SOL     OW 8705   0.246   1.251   3.772
 2169SOL    HW2 8706   0.263   1.343   3.793
 2169SOL    HW3 8707   0.231   1.250   3.677
 2169SOL    MW4 8708   0.246   1.263   3.762
 2170SOL     OW 8709   0.252   1.524   3.832
 2170SOL    HW2 8710   0.235   1.517   3.926
 2170SOL    HW3 8711   0.172   1.562   3.796
 2170SOL    MW4 8712   0.239   1.528   3.840
 2171SOL     OW 8713   4.484   1.635   3.784
 2171SOL    HW2 8714   4.502   1.727   3.804
 2171SOL    HW3 8715   4.477   1.632   3.689
 2171SOL    MW4 8716   4.485   1.646   3.774
 2172SOL     OW 8717   4.477   1.900   3.864
 2172SOL    HW2 8718   4.468   1.890   3.959
 2172SOL    HW3 8719   4.391   1.931   3.835
 2172SOL    MW4 8720   4.464   1.903   3.873
 2173SOL     OW 8721   0.207   2.049   3.730
 2173SOL    HW2 8722   0.204   2.142   3.754
 2173SOL    HW3 8723   0.138   2.008   3.781
 2173SOL    MW4 8724   0.198   2.056   3.740
 2174SOL     OW 8725   0.229   2.316   3.828
 2174SOL    HW2 8726   0.217   2.312   3.922
 2174SOL    HW3 8727   0.160   2.373   3.796
 2174SOL    MW4 8728   0.219   2.323   3.836
 2175SOL     OW 8729   4.486   2.434   3.723
 2175SOL    HW2 8730   4.406   2.382   3.732
 2175SOL    HW3 8731   4.466   2.517   3.766
 2175SOL    MW4 8732   4.473   2.438   3.730
 2176SOL     OW 8733   4.445   2.666   3.848
 2176SOL    HW2 8734   4.455   2.662   3.943
 2176SOL    HW3 8735   4.521   2.717   3.818
 2176SOL    MW4 8736   4.457   2.672   3.857
 2177SOL     OW 8737   0.192   2.806   3.771
 2177SOL    HW2 8738   0.267   2.760   3.809
 2177SOL    HW3 8739   0.212   2.812   3.678
 2177SOL    MW4 8740   0.204   2.801   3.764
 2178SOL     OW 8741   0.256   3.074   3.862
 2178SOL    HW2 8742   0.243   3.070   3.956
 2178SOL    HW3 8743   0.255   2.982   3.833
 2178SOL    MW4 8744   0.254   3.061   3.870
 2179SOL     OW 8745   0.028   3.215   3.749
 2179SOL    HW2 8746   0.103   3.164   3.779
 2179SOL    HW3 8747   0.037   3.218   3.654
 2179SOL    MW4 8748   0.039   3.209   3.741
 2180SOL     OW 8749   0.036   3.468   3.845
 2180SOL    HW2 8750   0.117   3.508   3.813
 2180SOL    HW3 8751   0.040   3.378   3.813
 2180SOL    MW4 8752   0.047   3.461   3.837
 2181SOL     OW 8753   0.251   3.596   3.748
 2181SOL    HW2 8754   0.324   3.552   3.792
 2181SOL    HW3 8755   0.240   3.677   3.796
 2181SOL    MW4 8756   0.259   3.601   3.760
 2182SOL     OW 8757   0.252   3.841   3.878
 2182SOL    HW2 8758   0.252   3.838   3.974
 2182SOL    HW3 8759   0.331   3.889   3.855
 2182SOL    MW4 8760   0.262   3.847   3.888
 2183SOL     OW 8761   0.038   3.974   3.763
 2183SOL    HW2 8762  -0.045   3.934   3.791
 2183SOL    HW3 8763   0.105   3.914   3.794
 2183SOL    MW4 8764   0.036   3.961   3.771
 2184SOL     OW 8765   0.009   4.247   3.833
 2184SOL    HW2 8766   0.085   4.298   3.805
 2184SOL    HW3 8767   0.031   4.157   3.807
 2184SOL    MW4 8768   0.022   4.242   3.826
 2185SOL     OW 8769   0.212   4.390   3.740
 2185SOL    HW2 8770   0.288   4.338   3.767
 2185SOL    HW3 8771   0.214   4.467   3.797
 2185SOL    MW4 8772   0.222   4.393   3.751
 2186SOL     OW 8773   0.692   4.633   3.821
 2186SOL    HW2 8774   0.671   4.542   3.803
 2186SOL    HW3 8775   0.615   4.682   3.791
 2186SOL    MW4 8776   0.679   4.628   3.815
 2187SOL     OW 8777   0.447   0.087   3.780
 2187SOL    HW2 8778   0.428   0.175   3.813
 2187SOL    HW3 8779   0.376   0.033   3.814
 2187SOL    MW4 8780   0.435   0.092   3.789
 2188SOL     OW 8781   0.411   0.372   3.847
 2188SOL    HW2 8782   0.488   0.420   3.817
 2188SOL    HW3 8783   0.337   0.428   3.822
 2188SOL    MW4 8784   0.412   0.386   3.839
 2189SOL     OW 8785   0.658   0.519   3.759
 2189SOL    HW2 8786   0.730   0.464   3.789
 2189SOL    HW3 8787   0.674   0.604   3.799
 2189SOL    MW4 8788   0.669   0.523   3.768
 2190SOL     OW 8789   0.666   0.776   3.876
 2190SOL    HW2 8790   0.733   0.833   3.841
 2190SOL    HW3 8791   0.585   0.805   3.834
 2190SOL    MW4 8792   0.664   0.787   3.866
 2191SOL     OW 8793   0.444   0.854   3.745
 2191SOL    HW2 8794   0.456   0.945   3.770
 2191SOL    HW3 8795   0.368   0.825   3.795
 2191SOL    MW4 8796   0.435   0.862   3.755
 2192SOL     OW 8797   0.475   1.118   3.840
 2192SOL    HW2 8798   0.539   1.189   3.832
 2192SOL    HW3 8799   0.391   1.158   3.819
 2192SOL    MW4 8800   0.473   1.133   3.836
 2193SOL     OW 8801   0.693   1.306   3.768
 2193SOL    HW2 8802   0.766   1.245   3.780
 2193SOL    HW3 8803   0.685   1.315   3.673
 2193SOL    MW4 8804   0.702   1.299   3.757
 2194SOL     OW 8805   0.676   1.557   3.873
 2194SOL    HW2 8806   0.739   1.612   3.827
 2194SOL    HW3 8807   0.694   1.468   3.842
 2194SOL    MW4 8808   0.686   1.553   3.863
 2195SOL     OW 8809   0.440   1.674   3.752
 2195SOL    HW2 8810   0.521   1.633   3.786
 2195SOL    HW3 8811   0.371   1.614   3.780
 2195SOL    MW4 8812   0.442   1.660   3.760
 2196SOL     OW 8813   0.425   1.919   3.861
 2196SOL    HW2 8814   0.441   1.841   3.809
 2196SOL    HW3 8815   0.350   1.961   3.819
 2196SOL    MW4 8816   0.417   1.914   3.849
 2197SOL     OW 8817   0.641   2.066   3.793
 2197SOL    HW2 8818   0.635   2.148   3.841
 2197SOL    HW3 8819   0.565   2.015   3.822
 2197SOL    MW4 8820   0.630   2.070   3.803
 2198SOL     OW 8821   0.672   2.354   3.867
 2198SOL    HW2 8822   0.765   2.367   3.849
 2198SOL    HW3 8823   0.627   2.411   3.805
 2198SOL    MW4 8824   0.678   2.363   3.856
 2199SOL     OW 8825   0.451   2.475   3.734
 2199SOL    HW2 8826   0.393   2.417   3.784
 2199SOL    HW3 8827   0.430   2.457   3.642
 2199SOL    MW4 8828   0.440   2.465   3.728
 2200SOL     OW 8829   0.441   2.733   3.873
 2200SOL    HW2 8830   0.513   2.784   3.836
 2200SOL    HW3 8831   0.453   2.645   3.836
 2200SOL    MW4 8832   0.452   2.728   3.863
 2201SOL     OW 8833   0.663   2.851   3.756
 2201SOL    HW2 8834   0.738   2.794   3.775
 2201SOL    HW3 8835   0.661   2.856   3.661
 2201SOL    MW4 8836   0.673   2.844   3.746
 2202SOL     OW 8837   0.684   3.086   3.879
 2202SOL    HW2 8838   0.652   3.087   3.970
 2202SOL    HW3 8839   0.676   2.995   3.851
 2202SOL    MW4 8840   0.679   3.074   3.888
 2203SOL     OW 8841   0.461   3.223   3.781
 2203SOL    HW2 8842   0.539   3.177   3.811
 2203SOL    HW3 8843   0.389   3.165   3.804
 2203SOL    MW4 8844   0.462   3.209   3.788
 2204SOL     OW 8845   0.466   3.486   3.906
 2204SOL    HW2 8846   0.540   3.522   3.857
 2204SOL    HW3 8847   0.463   3.394   3.880
 2204SOL    MW4 8848   0.475   3.479   3.896
 2205SOL     OW 8849   0.697   3.624   3.791
 2205SOL    HW2 8850   0.707   3.718   3.807
 2205SOL    HW3 8851   0.705   3.615   3.696
 2205SOL    MW4 8852   0.699   3.636   3.781
 2206SOL     OW 8853   0.714   3.892   3.847
 2206SOL    HW2 8854   0.721   3.872   3.940
 2206SOL    HW3 8855   0.797   3.934   3.825
 2206SOL    MW4 8856   0.726   3.895   3.856
 2207SOL     OW 8857   0.464   3.979   3.752
 2207SOL    HW2 8858   0.549   3.947   3.782
 2207SOL    HW3 8859   0.456   3.945   3.663
 2207SOL    MW4 8860   0.474   3.970   3.744
 2208SOL     OW 8861   0.413   4.232   3.853
 2208SOL    HW2 8862   0.500   4.268   3.835
 2208SOL    HW3 8863   0.416   4.143   3.817
 2208SOL    MW4 8864   0.425   4.225   3.846
 2209SOL     OW 8865   0.639   4.362   3.801
 2209SOL    HW2 8866   0.726   4.324   3.813
 2209SOL    HW3 8867   0.622   4.353   3.707
 2209SOL    MW4 8868   0.648   4.356   3.790
 2210SOL     OW 8869   1.131   4.648   3.826
 2210SOL    HW2 8870   1.210   4.690   3.791
 2210SOL    HW3 8871   1.133   4.559   3.791
 2210SOL    MW4 8872   1.142   4.642   3.817
 2211SOL     OW 8873   0.914   0.117   3.753
 2211SOL    HW2 8874   0.999   0.078   3.775
 2211SOL    HW3 8875   0.850   0.050   3.774
 2211SOL    MW4 8876   0.917   0.103   3.759
 2212SOL     OW 8877   0.880   0.387   3.848
 2212SOL    HW2 8878   0.860   0.368   3.939
 2212SOL    HW3 8879   0.891   0.302   3.806
 2212SOL    MW4 8880   0.879   0.374   3.854
 2213SOL     OW 8881   1.103   0.516   3.769
 2213SOL    HW2 8882   1.178   0.486   3.820
 2213SOL    HW3 8883   1.027   0.478   3.813
 2213SOL    MW4 8884   1.103   0.507   3.781
 2214SOL     OW 8885   1.097   0.775   3.838
 2214SOL    HW2 8886   1.102   0.766   3.933
 2214SOL    HW3 8887   1.090   0.685   3.805
 2214SOL    MW4 8888   1.096   0.762   3.846
 2215SOL     OW 8889   0.878   0.908   3.756
 2215SOL    HW2 8890   0.958   0.864   3.784
 2215SOL    HW3 8891   0.867   0.883   3.664
 2215SOL    MW4 8892   0.887   0.899   3.747
 2216SOL     OW 8893   0.932   1.171   3.822
 2216SOL    HW2 8894   0.915   1.153   3.914
 2216SOL    HW3 8895   0.914   1.088   3.778
 2216SOL    MW4 8896   0.928   1.158   3.828
 2217SOL     OW 8897   1.146   1.333   3.708
 2217SOL    HW2 8898   1.142   1.408   3.768
 2217SOL    HW3 8899   1.084   1.270   3.745
 2217SOL    MW4 8900   1.137   1.335   3.721
 2218SOL     OW 8901   1.111   1.571   3.860
 2218SOL    HW2 8902   1.103   1.560   3.955
 2218SOL    HW3 8903   1.190   1.625   3.849
 2218SOL    MW4 8904   1.120   1.577   3.871
 2219SOL     OW 8905   0.900   1.682   3.731
 2219SOL    HW2 8906   0.984   1.649   3.763
 2219SOL    HW3 8907   0.894   1.649   3.642
 2219SOL    MW4 8908   0.911   1.673   3.723
 2220SOL     OW 8909   0.894   1.937   3.841
 2220SOL    HW2 8910   0.898   1.848   3.808
 2220SOL    HW3 8911   0.808   1.969   3.814
 2220SOL    MW4 8912   0.883   1.930   3.833
 2221SOL     OW 8913   1.130   2.064   3.786
 2221SOL    HW2 8914   1.050   2.020   3.815
 2221SOL    HW3 8915   1.119   2.075   3.692
 2221SOL    MW4 8916   1.118   2.059   3.778
 2222SOL     OW 8917   1.166   2.318   3.864
 2222SOL    HW2 8918   1.170   2.333   3.959
 2222SOL    HW3 8919   1.142   2.226   3.856
 2222SOL    MW4 8920   1.164   2.307   3.876
 2223SOL     OW 8921   0.912   2.443   3.766
 2223SOL    HW2 8922   0.899   2.537   3.768
 2223SOL    HW3 8923   0.993   2.429   3.817
 2223SOL    MW4 8924   0.921   2.453   3.773
 2224SOL     OW 8925   0.900   2.704   3.836
 2224SOL    HW2 8926   0.911   2.705   3.932
 2224SOL    HW3 8927   0.978   2.747   3.802
 2224SOL    MW4 8928   0.912   2.710   3.844
 2225SOL     OW 8929   1.143   2.821   3.758
 2225SOL    HW2 8930   1.209   2.766   3.800
 2225SOL    HW3 8931   1.141   2.901   3.810
 2225SOL    MW4 8932   1.151   2.824   3.771
 2226SOL     OW 8933   1.117   3.083   3.892
 2226SOL    HW2 8934   1.186   3.145   3.867
 2226SOL    HW3 8935   1.035   3.129   3.872
 2226SOL    MW4 8936   1.115   3.097   3.886
 2227SOL     OW 8937   0.916   3.234   3.791
 2227SOL    HW2 8938   0.845   3.180   3.825
 2227SOL    HW3 8939   0.914   3.218   3.696
 2227SOL    MW4 8940   0.906   3.224   3.783
 2228SOL     OW 8941   0.909   3.490   3.900
 2228SOL    HW2 8942   0.905   3.402   3.862
 2228SOL    HW3 8943   0.832   3.535   3.865
 2228SOL    MW4 8944   0.898   3.484   3.891
 2229SOL     OW 8945   1.135   3.631   3.788
 2229SOL    HW2 8946   1.154   3.709   3.838
 2229SOL    HW3 8947   1.068   3.585   3.839
 2229SOL    MW4 8948   1.129   3.635   3.801
 2230SOL     OW 8949   1.166   3.893   3.891
 2230SOL    HW2 8950   1.163   3.924   3.982
 2230SOL    HW3 8951   1.256   3.912   3.863
 2230SOL    MW4 8952   1.178   3.900   3.900
 2231SOL     OW 8953   0.944   4.020   3.770
 2231SOL    HW2 8954   1.019   3.966   3.795
 2231SOL    HW3 8955   0.942   4.015   3.674
 2231SOL    MW4 8956   0.953   4.013   3.761
 2232SOL     OW 8957   0.918   4.300   3.873
 2232SOL    HW2 8958   0.912   4.305   3.969
 2232SOL    HW3 8959   0.932   4.208   3.854
 2232SOL    MW4 8960   0.919   4.289   3.883
 2233SOL     OW 8961   1.149   4.384   3.753
 2233SOL    HW2 8962   1.074   4.349   3.801
 2233SOL    HW3 8963   1.134   4.358   3.662
 2233SOL    MW4 8964   1.137   4.376   3.747
 2234SOL     OW 8965   1.558   0.002   3.850
 2234SOL    HW2 8966   1.577   0.002   3.944
 2234SOL    HW3 8967   1.555  -0.090   3.826
 2234SOL    MW4 8968   1.560  -0.010   3.859
 2235SOL     OW 8969   1.332   0.148   3.760
 2235SOL    HW2 8970   1.309   0.229   3.806
 2235SOL    HW3 8971   1.414   0.120   3.800
 2235SOL    MW4 8972   1.339   0.155   3.772
 2236SOL     OW 8973   1.312   0.409   3.911
 2236SOL    HW2 8974   1.314   0.410   4.006
 2236SOL    HW3 8975   1.395   0.449   3.884
 2236SOL    MW4 8976   1.324   0.414   3.920
 2237SOL     OW 8977   1.556   0.509   3.796
 2237SOL    HW2 8978   1.638   0.469   3.822
 2237SOL    HW3 8979   1.571   0.603   3.804
 2237SOL    MW4 8980   1.568   0.516   3.800
 2238SOL     OW 8981   1.571   0.798   3.862
 2238SOL    HW2 8982   1.646   0.850   3.833
 2238SOL    HW3 8983   1.497   0.830   3.809
 2238SOL    MW4 8984   1.571   0.809   3.851
 2239SOL     OW 8985   1.342   0.883   3.723
 2239SOL    HW2 8986   1.322   0.970   3.758
 2239SOL    HW3 8987   1.270   0.828   3.754
 2239SOL    MW4 8988   1.330   0.888   3.732
 2240SOL     OW 8989   1.339   1.145   3.788
 2240SOL    HW2 8990   1.428   1.180   3.787
 2240SOL    HW3 8991   1.284   1.219   3.764
 2240SOL    MW4 8992   1.344   1.159   3.785
 2241SOL     OW 8993   1.601   1.274   3.772
 2241SOL    HW2 8994   1.671   1.230   3.820
 2241SOL    HW3 8995   1.588   1.356   3.819
 2241SOL    MW4 8996   1.608   1.279   3.785
 2242SOL     OW 8997   1.565   1.507   3.927
 2242SOL    HW2 8998   1.561   1.510   4.022
 2242SOL    HW3 8999   1.640   1.562   3.904
 2242SOL    MW4 9000   1.574   1.514   3.936
 2243SOL     OW 9001   1.363   1.661   3.790
 2243SOL    HW2 9002   1.385   1.743   3.833
 2243SOL    HW3 9003   1.428   1.599   3.822
 2243SOL    MW4 9004   1.374   1.664   3.800
 2244SOL     OW 9005   1.371   1.927   3.867
 2244SOL    HW2 9006   1.361   1.929   3.962
 2244SOL    HW3 9007   1.290   1.966   3.834
 2244SOL    MW4 9008   1.359   1.933   3.875
 2245SOL     OW 9009   1.594   2.083   3.805
 2245SOL    HW2 9010   1.519   2.030   3.832
 2245SOL    HW3 9011   1.589   2.085   3.709
 2245SOL    MW4 9012   1.584   2.076   3.796
 2246SOL     OW 9013   1.598   2.328   3.936
 2246SOL    HW2 9014   1.673   2.371   3.896
 2246SOL    HW3 9015   1.587   2.247   3.886
 2246SOL    MW4 9016   1.606   2.323   3.924
 2247SOL     OW 9017   1.390   2.449   3.800
 2247SOL    HW2 9018   1.468   2.412   3.842
 2247SOL    HW3 9019   1.319   2.390   3.827
 2247SOL    MW4 9020   1.391   2.436   3.809
 2248SOL     OW 9021   1.343   2.699   3.878
 2248SOL    HW2 9022   1.327   2.702   3.973
 2248SOL    HW3 9023   1.356   2.606   3.860
 2248SOL    MW4 9024   1.343   2.687   3.888
 2249SOL     OW 9025   1.559   2.829   3.775
 2249SOL    HW2 9026   1.480   2.791   3.813
 2249SOL    HW3 9027   1.540   2.838   3.682
 2249SOL    MW4 9028   1.546   2.825   3.768
 2250SOL     OW 9029   1.567   3.082   3.865
 2250SOL    HW2 9030   1.555   3.067   3.959
 2250SOL    HW3 9031   1.564   2.995   3.826
 2250SOL    MW4 9032   1.565   3.068   3.872
 2251SOL     OW 9033   1.345   3.248   3.794
 2251SOL    HW2 9034   1.347   3.336   3.833
 2251SOL    HW3 9035   1.423   3.205   3.828
 2251SOL    MW4 9036   1.355   3.254   3.803
 2252SOL     OW 9037   1.377   3.512   3.888
 2252SOL    HW2 9038   1.437   3.550   3.824
 2252SOL    HW3 9039   1.291   3.544   3.861
 2252SOL    MW4 9040   1.373   3.521   3.876
 2253SOL     OW 9041   1.572   3.650   3.733
 2253SOL    HW2 9042   1.637   3.588   3.765
 2253SOL    HW3 9043   1.592   3.732   3.777
 2253SOL    MW4 9044   1.583   3.653   3.743
 2254SOL     OW 9045   1.585   3.890   3.859
 2254SOL    HW2 9046   1.566   3.889   3.953
 2254SOL    HW3 9047   1.517   3.946   3.822
 2254SOL    MW4 9048   1.574   3.898   3.867
 2255SOL     OW 9049   1.376   4.036   3.762
 2255SOL    HW2 9050   1.363   4.126   3.793
 2255SOL    HW3 9051   1.360   4.040   3.668
 2255SOL    MW4 9052   1.372   4.048   3.754
 2256SOL     OW 9053   1.366   4.295   3.887
 2256SOL    HW2 9054   1.447   4.331   3.850
 2256SOL    HW3 9055   1.296   4.332   3.832
 2256SOL    MW4 9056   1.368   4.305   3.875
 2257SOL     OW 9057   1.571   4.408   3.752
 2257SOL    HW2 9058   1.640   4.354   3.791
 2257SOL    HW3 9059   1.579   4.391   3.657
 2257SOL    MW4 9060   1.582   4.398   3.744
 2258SOL     OW 9061   1.992   4.649   3.890
 2258SOL    HW2 9062   2.058   4.698   3.841
 2258SOL    HW3 9063   1.990   4.563   3.848
 2258SOL    MW4 9064   2.001   4.644   3.878
 2259SOL     OW 9065   1.791   0.098   3.738
 2259SOL    HW2 9066   1.861   0.055   3.786
 2259SOL    HW3 9067   1.711   0.059   3.773
 2259SOL    MW4 9068   1.790   0.087   3.749
 2260SOL     OW 9069   1.776   0.346   3.875
 2260SOL    HW2 9070   1.771   0.326   3.969
 2260SOL    HW3 9071   1.784   0.260   3.833
 2260SOL    MW4 9072   1.777   0.332   3.882
 2261SOL     OW 9073   2.007   0.477   3.803
 2261SOL    HW2 9074   1.923   0.431   3.810
 2261SOL    HW3 9075   2.019   0.491   3.709
 2261SOL    MW4 9076   1.997   0.473   3.791
 2262SOL     OW 9077   2.009   0.763   3.817
 2262SOL    HW2 9078   2.023   0.783   3.909
 2262SOL    HW3 9079   2.009   0.668   3.812
 2262SOL    MW4 9080   2.011   0.753   3.828
 2263SOL     OW 9081   1.809   0.928   3.749
 2263SOL    HW2 9082   1.882   0.873   3.779
 2263SOL    HW3 9083   1.808   0.916   3.654
 2263SOL    MW4 9084   1.819   0.919   3.741
 2264SOL     OW 9085   1.849   1.168   3.894
 2264SOL    HW2 9086   1.854   1.158   3.989
 2264SOL    HW3 9087   1.823   1.082   3.862
 2264SOL    MW4 9088   1.846   1.156   3.902
 2265SOL     OW 9089   2.077   1.290   3.774
 2265SOL    HW2 9090   2.155   1.249   3.810
 2265SOL    HW3 9091   2.004   1.245   3.815
 2265SOL    MW4 9092   2.078   1.279   3.784
 2266SOL     OW 9093   2.035   1.531   3.917
 2266SOL    HW2 9094   1.951   1.568   3.891
 2266SOL    HW3 9095   2.041   1.449   3.867
 2266SOL    MW4 9096   2.024   1.525   3.907
 2267SOL     OW 9097   1.776   1.679   3.855
 2267SOL    HW2 9098   1.790   1.764   3.897
 2267SOL    HW3 9099   1.788   1.695   3.762
 2267SOL    MW4 9100   1.780   1.692   3.848
 2268SOL     OW 9101   1.814   1.955   3.920
 2268SOL    HW2 9102   1.815   1.947   4.015
 2268SOL    HW3 9103   1.732   2.000   3.899
 2268SOL    MW4 9104   1.804   1.960   3.929
 2269SOL     OW 9105   2.009   2.097   3.768
 2269SOL    HW2 9106   1.930   2.054   3.802
 2269SOL    HW3 9107   2.009   2.078   3.675
 2269SOL    MW4 9108   1.999   2.089   3.760
 2270SOL     OW 9109   2.022   2.344   3.903
 2270SOL    HW2 9110   1.948   2.390   3.864
 2270SOL    HW3 9111   2.019   2.256   3.865
 2270SOL    MW4 9112   2.012   2.338   3.893
 2271SOL     OW 9113   1.802   2.464   3.789
 2271SOL    HW2 9114   1.812   2.558   3.808
 2271SOL    HW3 9115   1.795   2.460   3.693
 2271SOL    MW4 9116   1.803   2.476   3.779
 2272SOL     OW 9117   1.795   2.719   3.863
 2272SOL    HW2 9118   1.807   2.769   3.944
 2272SOL    HW3 9119   1.718   2.760   3.822
 2272SOL    MW4 9120   1.786   2.731   3.868
 2273SOL     OW 9121   2.033   2.865   3.777
 2273SOL    HW2 9122   2.109   2.815   3.805
 2273SOL    HW3 9123   1.958   2.818   3.814
 2273SOL    MW4 9124   2.033   2.852   3.786
 2274SOL     OW 9125   2.046   3.141   3.839
 2274SOL    HW2 9126   2.058   3.049   3.815
 2274SOL    HW3 9127   2.124   3.185   3.804
 2274SOL    MW4 9128   2.058   3.135   3.831
 2275SOL     OW 9129   1.774   3.232   3.777
 2275SOL    HW2 9130   1.845   3.175   3.803
 2275SOL    HW3 9131   1.695   3.189   3.809
 2275SOL    MW4 9132   1.773   3.219   3.784
 2276SOL     OW 9133   1.780   3.503   3.824
 2276SOL    HW2 9134   1.864   3.543   3.802
 2276SOL    HW3 9135   1.794   3.410   3.812
 2276SOL    MW4 9136   1.793   3.496   3.820
 2277SOL     OW 9137   2.023   3.621   3.769
 2277SOL    HW2 9138   2.101   3.577   3.803
 2277SOL    HW3 9139   2.038   3.626   3.674
 2277SOL    MW4 9140   2.035   3.616   3.761
 2278SOL     OW 9141   2.045   3.893   3.887
 2278SOL    HW2 9142   2.131   3.925   3.861
 2278SOL    HW3 9143   2.038   3.807   3.846
 2278SOL    MW4 9144   2.055   3.886   3.878
 2279SOL     OW 9145   1.817   4.006   3.774
 2279SOL    HW2 9146   1.898   3.969   3.810
 2279SOL    HW3 9147   1.749   3.945   3.801
 2279SOL    MW4 9148   1.819   3.993   3.782
 2280SOL     OW 9149   1.800   4.273   3.845
 2280SOL    HW2 9150   1.885   4.312   3.825
 2280SOL    HW3 9151   1.811   4.180   3.824
 2280SOL    MW4 9152   1.813   4.266   3.839
 2281SOL     OW 9153   2.030   4.407   3.774
 2281SOL    HW2 9154   2.104   4.350   3.792
 2281SOL    HW3 9155   2.034   4.422   3.679
 2281SOL    MW4 9156   2.040   4.401   3.764
 2282SOL     OW 9157   2.416   4.648   3.888
 2282SOL    HW2 9158   2.421   4.642   3.983
 2282SOL    HW3 9159   2.496   4.694   3.862
 2282SOL    MW4 9160   2.427   4.653   3.897
 2283SOL     OW 9161   2.194   0.114   3.762
 2283SOL    HW2 9162   2.274   0.069   3.789
 2283SOL    HW3 9163   2.201   0.120   3.667
 2283SOL    MW4 9164   2.206   0.109   3.753
 2284SOL     OW 9165   2.241   0.361   3.885
 2284SOL    HW2 9166   2.238   0.272   3.848
 2284SOL    HW3 9167   2.153   0.395   3.871
 2284SOL    MW4 9168   2.229   0.354   3.878
 2285SOL     OW 9169   2.452   0.497   3.768
 2285SOL    HW2 9170   2.373   0.453   3.799
 2285SOL    HW3 9171   2.439   0.507   3.674
 2285SOL    MW4 9172   2.440   0.493   3.760
 2286SOL     OW 9173   2.468   0.747   3.928
 2286SOL    HW2 9174   2.393   0.794   3.892
 2286SOL    HW3 9175   2.471   0.665   3.878
 2286SOL    MW4 9176   2.458   0.742   3.916
 2287SOL     OW 9177   2.260   0.886   3.789
 2287SOL    HW2 9178   2.173   0.847   3.802
 2287SOL    HW3 9179   2.261   0.913   3.698
 2287SOL    MW4 9180   2.249   0.884   3.779
 2288SOL     OW 9181   2.272   1.149   3.891
 2288SOL    HW2 9182   2.242   1.150   3.982
 2288SOL    HW3 9183   2.256   1.060   3.862
 2288SOL    MW4 9184   2.266   1.138   3.899
 2289SOL     OW 9185   2.491   1.295   3.770
 2289SOL    HW2 9186   2.484   1.382   3.810
 2289SOL    HW3 9187   2.427   1.241   3.818
 2289SOL    MW4 9188   2.481   1.299   3.782
 2290SOL     OW 9189   2.454   1.538   3.881
 2290SOL    HW2 9190   2.532   1.587   3.856
 2290SOL    HW3 9191   2.382   1.579   3.832
 2290SOL    MW4 9192   2.455   1.550   3.871
 2291SOL     OW 9193   2.214   1.677   3.771
 2291SOL    HW2 9194   2.226   1.762   3.813
 2291SOL    HW3 9195   2.148   1.634   3.825
 2291SOL    MW4 9196   2.207   1.682   3.784
 2292SOL     OW 9197   2.227   1.942   3.882
 2292SOL    HW2 9198   2.223   1.967   3.975
 2292SOL    HW3 9199   2.148   1.981   3.844
 2292SOL    MW4 9200   2.216   1.950   3.889
 2293SOL     OW 9201   2.455   2.053   3.765
 2293SOL    HW2 9202   2.465   2.141   3.801
 2293SOL    HW3 9203   2.378   2.017   3.809
 2293SOL    MW4 9204   2.446   2.060   3.776
 2294SOL     OW 9205   2.470   2.291   3.889
 2294SOL    HW2 9206   2.550   2.326   3.852
 2294SOL    HW3 9207   2.402   2.354   3.864
 2294SOL    MW4 9208   2.471   2.304   3.881
 2295SOL     OW 9209   2.268   2.463   3.783
 2295SOL    HW2 9210   2.181   2.445   3.819
 2295SOL    HW3 9211   2.257   2.456   3.688
 2295SOL    MW4 9212   2.255   2.460   3.775
 2296SOL     OW 9213   2.263   2.749   3.877
 2296SOL    HW2 9214   2.277   2.775   3.968
 2296SOL    HW3 9215   2.302   2.662   3.871
 2296SOL    MW4 9216   2.270   2.741   3.888
 2297SOL     OW 9217   2.496   2.865   3.787
 2297SOL    HW2 9218   2.411   2.827   3.811
 2297SOL    HW3 9219   2.493   2.871   3.691
 2297SOL    MW4 9220   2.484   2.860   3.778
 2298SOL     OW 9221   2.486   3.118   3.885
 2298SOL    HW2 9222   2.459   3.109   3.976
 2298SOL    HW3 9223   2.497   3.028   3.854
 2298SOL    MW4 9224   2.484   3.105   3.893
 2299SOL     OW 9225   2.302   3.228   3.724
 2299SOL    HW2 9226   2.284   3.314   3.762
 2299SOL    HW3 9227   2.358   3.184   3.789
 2299SOL    MW4 9228   2.307   3.233   3.737
 2300SOL     OW 9229   2.230   3.470   3.844
 2300SOL    HW2 9230   2.221   3.465   3.939
 2300SOL    HW3 9231   2.310   3.520   3.830
 2300SOL    MW4 9232   2.239   3.476   3.855
 2301SOL     OW 9233   2.467   3.579   3.730
 2301SOL    HW2 9234   2.531   3.522   3.773
 2301SOL    HW3 9235   2.480   3.565   3.637
 2301SOL    MW4 9236   2.477   3.570   3.724
 2302SOL     OW 9237   2.486   3.846   3.864
 2302SOL    HW2 9238   2.544   3.905   3.817
 2302SOL    HW3 9239   2.495   3.762   3.819
 2302SOL    MW4 9240   2.495   3.843   3.852
 2303SOL     OW 9241   2.274   3.966   3.762
 2303SOL    HW2 9242   2.342   3.908   3.796
 2303SOL    HW3 9243   2.281   3.958   3.667
 2303SOL    MW4 9244   2.284   3.957   3.754
 2304SOL     OW 9245   2.240   4.236   3.845
 2304SOL    HW2 9246   2.227   4.246   3.940
 2304SOL    HW3 9247   2.252   4.142   3.832
 2304SOL    MW4 9248   2.240   4.225   3.856
 2305SOL     OW 9249   2.464   4.402   3.783
 2305SOL    HW2 9250   2.383   4.353   3.799
 2305SOL    HW3 9251   2.447   4.488   3.821
 2305SOL    MW4 9252   2.451   4.407   3.790
 2306SOL     OW 9253   2.914   4.639   3.882
 2306SOL    HW2 9254   2.917   4.641   3.978
 2306SOL    HW3 9255   3.003   4.665   3.856
 2306SOL    MW4 9256   2.926   4.643   3.891
 2307SOL     OW 9257   2.669   0.086   3.787
 2307SOL    HW2 9258   2.745   0.041   3.824
 2307SOL    HW3 9259   2.695   0.108   3.698
 2307SOL    MW4 9260   2.682   0.083   3.780
 2308SOL     OW 9261   2.705   0.370   3.830
 2308SOL    HW2 9262   2.703   0.274   3.822
 2308SOL    HW3 9263   2.615   0.397   3.809
 2308SOL    MW4 9264   2.693   0.361   3.826
 2309SOL     OW 9265   2.940   0.528   3.801
 2309SOL    HW2 9266   3.000   0.477   3.855
 2309SOL    HW3 9267   2.856   0.482   3.809
 2309SOL    MW4 9268   2.937   0.515   3.809
 2310SOL     OW 9269   2.903   0.784   3.891
 2310SOL    HW2 9270   2.968   0.818   3.830
 2310SOL    HW3 9271   2.895   0.691   3.868
 2310SOL    MW4 9272   2.911   0.776   3.880
 2311SOL     OW 9273   2.675   0.886   3.762
 2311SOL    HW2 9274   2.745   0.858   3.821
 2311SOL    HW3 9275   2.596   0.848   3.799
 2311SOL    MW4 9276   2.674   0.878   3.775
 2312SOL     OW 9277   2.700   1.146   3.856
 2312SOL    HW2 9278   2.684   1.055   3.833
 2312SOL    HW3 9279   2.619   1.192   3.832
 2312SOL    MW4 9280   2.687   1.140   3.850
 2313SOL     OW 9281   2.920   1.294   3.781
 2313SOL    HW2 9282   2.921   1.381   3.821
 2313SOL    HW3 9283   2.850   1.248   3.827
 2313SOL    MW4 9284   2.911   1.300   3.793
 2314SOL     OW 9285   2.885   1.537   3.899
 2314SOL    HW2 9286   2.882   1.530   3.994
 2314SOL    HW3 9287   2.973   1.571   3.880
 2314SOL    MW4 9288   2.896   1.541   3.909
 2315SOL     OW 9289   2.669   1.692   3.802
 2315SOL    HW2 9290   2.748   1.644   3.828
 2315SOL    HW3 9291   2.668   1.686   3.706
 2315SOL    MW4 9292   2.679   1.685   3.793
 2316SOL     OW 9293   2.655   1.932   3.925
 2316SOL    HW2 9294   2.647   1.843   3.889
 2316SOL    HW3 9295   2.581   1.979   3.886
 2316SOL    MW4 9296   2.644   1.927   3.915
 2317SOL     OW 9297   2.881   2.031   3.782
 2317SOL    HW2 9298   2.887   2.125   3.803
 2317SOL    HW3 9299   2.798   2.003   3.821
 2317SOL    MW4 9300   2.871   2.040   3.790
 2318SOL     OW 9301   2.928   2.290   3.854
 2318SOL    HW2 9302   2.911   2.303   3.947
 2318SOL    HW3 9303   3.000   2.350   3.834
 2318SOL    MW4 9304   2.935   2.300   3.863
 2319SOL     OW 9305   2.672   2.396   3.749
 2319SOL    HW2 9306   2.658   2.483   3.786
 2319SOL    HW3 9307   2.754   2.365   3.788
 2319SOL    MW4 9308   2.681   2.403   3.759
 2320SOL     OW 9309   2.644   2.640   3.854
 2320SOL    HW2 9310   2.670   2.663   3.944
 2320SOL    HW3 9311   2.590   2.714   3.826
 2320SOL    MW4 9312   2.640   2.653   3.862
 2321SOL     OW 9313   2.880   2.733   3.742
 2321SOL    HW2 9314   2.884   2.827   3.761
 2321SOL    HW3 9315   2.794   2.706   3.774
 2321SOL    MW4 9316   2.869   2.742   3.749
 2322SOL     OW 9317   2.903   2.999   3.852
 2322SOL    HW2 9318   2.975   3.045   3.808
 2322SOL    HW3 9319   2.826   3.052   3.832
 2322SOL    MW4 9320   2.903   3.012   3.843
 2323SOL     OW 9321   2.706   3.183   3.742
 2323SOL    HW2 9322   2.726   3.273   3.768
 2323SOL    HW3 9323   2.628   3.160   3.792
 2323SOL    MW4 9324   2.699   3.192   3.752
 2324SOL     OW 9325   2.732   3.456   3.832
 2324SOL    HW2 9326   2.729   3.477   3.925
 2324SOL    HW3 9327   2.793   3.520   3.794
 2324SOL    MW4 9328   2.740   3.467   3.839
 2325SOL     OW 9329   2.911   3.624   3.734
 2325SOL    HW2 9330   2.977   3.562   3.766
 2325SOL    HW3 9331   2.903   3.604   3.641
 2325SOL    MW4 9332   2.919   3.613   3.726
 2326SOL     OW 9333   2.894   3.869   3.859
 2326SOL    HW2 9334   2.909   3.872   3.953
 2326SOL    HW3 9335   2.895   3.775   3.837
 2326SOL    MW4 9336   2.896   3.857   3.868
 2327SOL     OW 9337   2.669   3.988   3.742
 2327SOL    HW2 9338   2.682   4.075   3.780
 2327SOL    HW3 9339   2.741   3.935   3.777
 2327SOL    MW4 9340   2.680   3.992   3.752
 2328SOL     OW 9341   2.698   4.254   3.854
 2328SOL    HW2 9342   2.766   4.316   3.829
 2328SOL    HW3 9343   2.617   4.304   3.853
 2328SOL    MW4 9344   2.697   4.268   3.851
 2329SOL     OW 9345   2.912   4.396   3.753
 2329SOL    HW2 9346   2.984   4.340   3.784
 2329SOL    HW3 9347   2.918   4.475   3.806
 2329SOL    MW4 9348   2.922   4.399   3.764
 2330SOL     OW 9349   3.372   4.626   3.885
 2330SOL    HW2 9350   3.381   4.645   3.978
 2330SOL    HW3 9351   3.446   4.670   3.843
 2330SOL    MW4 9352   3.383   4.634   3.892
 2331SOL     OW 9353   3.144   0.068   3.785
 2331SOL    HW2 9354   3.221   0.019   3.816
 2331SOL    HW3 9355   3.155   0.071   3.690
 2331SOL    MW4 9356   3.156   0.062   3.776
 2332SOL     OW 9357   3.118   0.333   3.896
 2332SOL    HW2 9358   3.127   0.317   3.990
 2332SOL    HW3 9359   3.114   0.246   3.857
 2332SOL    MW4 9360   3.119   0.319   3.903
 2333SOL     OW 9361   3.344   0.479   3.769
 2333SOL    HW2 9362   3.422   0.440   3.808
 2333SOL    HW3 9363   3.272   0.445   3.822
 2333SOL    MW4 9364   3.345   0.469   3.781
 2334SOL     OW 9365   3.340   0.777   3.812
 2334SOL    HW2 9366   3.353   0.788   3.906
 2334SOL    HW3 9367   3.336   0.682   3.799
 2334SOL    MW4 9368   3.341   0.765   3.823
 2335SOL     OW 9369   3.099   0.912   3.752
 2335SOL    HW2 9370   3.180   0.866   3.772
 2335SOL    HW3 9371   3.091   0.907   3.656
 2335SOL    MW4 9372   3.108   0.906   3.742
 2336SOL     OW 9373   3.149   1.158   3.891
 2336SOL    HW2 9374   3.149   1.091   3.822
 2336SOL    HW3 9375   3.075   1.214   3.870
 2336SOL    MW4 9376   3.140   1.156   3.879
 2337SOL     OW 9377   3.369   1.304   3.781
 2337SOL    HW2 9378   3.292   1.253   3.809
 2337SOL    HW3 9379   3.368   1.298   3.686
 2337SOL    MW4 9380   3.359   1.296   3.772
 2338SOL     OW 9381   3.335   1.530   3.939
 2338SOL    HW2 9382   3.257   1.565   3.896
 2338SOL    HW3 9383   3.353   1.448   3.894
 2338SOL    MW4 9384   3.327   1.524   3.927
 2339SOL     OW 9385   3.135   1.655   3.801
 2339SOL    HW2 9386   3.157   1.748   3.811
 2339SOL    HW3 9387   3.145   1.639   3.707
 2339SOL    MW4 9388   3.139   1.665   3.790
 2340SOL     OW 9389   3.148   1.917   3.854
 2340SOL    HW2 9390   3.144   1.914   3.950
 2340SOL    HW3 9391   3.060   1.943   3.827
 2340SOL    MW4 9392   3.136   1.920   3.863
 2341SOL     OW 9393   3.375   2.042   3.742
 2341SOL    HW2 9394   3.296   2.004   3.779
 2341SOL    HW3 9395   3.349   2.072   3.655
 2341SOL    MW4 9396   3.361   2.041   3.735
 2342SOL     OW 9397   3.390   2.306   3.860
 2342SOL    HW2 9398   3.305   2.341   3.833
 2342SOL    HW3 9399   3.397   2.221   3.816
 2342SOL    MW4 9400   3.380   2.299   3.851
 2343SOL     OW 9401   3.152   2.413   3.742
 2343SOL    HW2 9402   3.155   2.508   3.748
 2343SOL    HW3 9403   3.158   2.395   3.648
 2343SOL    MW4 9404   3.153   2.423   3.730
 2344SOL     OW 9405   3.149   2.684   3.789
 2344SOL    HW2 9406   3.159   2.676   3.884
 2344SOL    HW3 9407   3.055   2.678   3.774
 2344SOL    MW4 9408   3.138   2.682   3.800
 2345SOL     OW 9409   3.376   2.831   3.748
 2345SOL    HW2 9410   3.299   2.780   3.771
 2345SOL    HW3 9411   3.373   2.837   3.652
 2345SOL    MW4 9412   3.365   2.825   3.738
 2346SOL     OW 9413   3.350   3.097   3.833
 2346SOL    HW2 9414   3.425   3.142   3.795
 2346SOL    HW3 9415   3.350   3.010   3.792
 2346SOL    MW4 9416   3.360   3.092   3.823
 2347SOL     OW 9417   3.099   3.172   3.741
 2347SOL    HW2 9418   3.183   3.155   3.785
 2347SOL    HW3 9419   3.119   3.161   3.648
 2347SOL    MW4 9420   3.113   3.168   3.735
 2348SOL     OW 9421   3.094   3.433   3.844
 2348SOL    HW2 9422   3.179   3.455   3.806
 2348SOL    HW3 9423   3.073   3.347   3.807
 2348SOL    MW4 9424   3.102   3.424   3.834
 2349SOL     OW 9425   3.335   3.553   3.738
 2349SOL    HW2 9426   3.310   3.639   3.774
 2349SOL    HW3 9427   3.340   3.568   3.644
 2349SOL    MW4 9428   3.332   3.567   3.730
 2350SOL     OW 9429   3.312   3.810   3.876
 2350SOL    HW2 9430   3.394   3.847   3.843
 2350SOL    HW3 9431   3.248   3.880   3.863
 2350SOL    MW4 9432   3.314   3.824   3.870
 2351SOL     OW 9433   3.109   3.983   3.727
 2351SOL    HW2 9434   3.122   4.075   3.752
 2351SOL    HW3 9435   3.034   3.954   3.780
 2351SOL    MW4 9436   3.100   3.991   3.737
 2352SOL     OW 9437   3.128   4.241   3.838
 2352SOL    HW2 9438   3.131   4.240   3.934
 2352SOL    HW3 9439   3.207   4.287   3.812
 2352SOL    MW4 9440   3.139   4.247   3.847
 2353SOL     OW 9441   3.373   4.362   3.789
 2353SOL    HW2 9442   3.457   4.320   3.811
 2353SOL    HW3 9443   3.374   4.444   3.840
 2353SOL    MW4 9444   3.384   4.367   3.799
 2354SOL     OW 9445   3.801   4.616   3.833
 2354SOL    HW2 9446   3.889   4.645   3.809
 2354SOL    HW3 9447   3.796   4.525   3.803
 2354SOL    MW4 9448   3.812   4.608   3.826
 2355SOL     OW 9449   3.580   0.105   3.781
 2355SOL    HW2 9450   3.657   0.060   3.815
 2355SOL    HW3 9451   3.597   0.114   3.687
 2355SOL    MW4 9452   3.593   0.101   3.773
 2356SOL     OW 9453   3.571   0.373   3.874
 2356SOL    HW2 9454   3.656   0.410   3.852
 2356SOL    HW3 9455   3.569   0.288   3.829
 2356SOL    MW4 9456   3.582   0.367   3.865
 2357SOL     OW 9457   3.792   0.511   3.752
 2357SOL    HW2 9458   3.865   0.460   3.785
 2357SOL    HW3 9459   3.788   0.588   3.809
 2357SOL    MW4 9460   3.801   0.514   3.764
 2358SOL     OW 9461   3.760   0.720   3.918
 2358SOL    HW2 9462   3.836   0.755   3.871
 2358SOL    HW3 9463   3.685   0.756   3.871
 2358SOL    MW4 9464   3.760   0.729   3.905
 2359SOL     OW 9465   3.582   0.894   3.748
 2359SOL    HW2 9466   3.585   0.988   3.766
 2359SOL    HW3 9467   3.501   0.864   3.788
 2359SOL    MW4 9468   3.572   0.902   3.756
 2360SOL     OW 9469   3.555   1.138   3.890
 2360SOL    HW2 9470   3.639   1.174   3.860
 2360SOL    HW3 9471   3.489   1.198   3.857
 2360SOL    MW4 9472   3.558   1.150   3.881
 2361SOL     OW 9473   3.774   1.249   3.758
 2361SOL    HW2 9474   3.848   1.196   3.787
 2361SOL    HW3 9475   3.786   1.334   3.800
 2361SOL    MW4 9476   3.785   1.253   3.767
 2362SOL     OW 9477   3.810   1.491   3.891
 2362SOL    HW2 9478   3.811   1.481   3.986
 2362SOL    HW3 9479   3.734   1.547   3.874
 2362SOL    MW4 9480   3.800   1.497   3.901
 2363SOL     OW 9481   3.560   1.661   3.832
 2363SOL    HW2 9482   3.478   1.631   3.871
 2363SOL    HW3 9483   3.552   1.639   3.739
 2363SOL    MW4 9484   3.548   1.654   3.825
 2364SOL     OW 9485   3.604   1.927   3.866
 2364SOL    HW2 9486   3.605   1.833   3.848
 2364SOL    HW3 9487   3.531   1.960   3.814
 2364SOL    MW4 9488   3.594   1.919   3.857
 2365SOL     OW 9489   3.822   2.047   3.695
 2365SOL    HW2 9490   3.888   1.987   3.730
 2365SOL    HW3 9491   3.744   2.029   3.747
 2365SOL    MW4 9492   3.821   2.036   3.706
 2366SOL     OW 9493   3.857   2.303   3.791
 2366SOL    HW2 9494   3.777   2.349   3.769
 2366SOL    HW3 9495   3.843   2.213   3.760
 2366SOL    MW4 9496   3.845   2.297   3.784
 2367SOL     OW 9497   3.632   2.456   3.753
 2367SOL    HW2 9498   3.562   2.406   3.796
 2367SOL    HW3 9499   3.619   2.439   3.660
 2367SOL    MW4 9500   3.621   2.447   3.746
 2368SOL     OW 9501   3.590   2.703   3.884
 2368SOL    HW2 9502   3.597   2.617   3.841
 2368SOL    HW3 9503   3.511   2.742   3.846
 2368SOL    MW4 9504   3.581   2.697   3.873
 2369SOL     OW 9505   3.771   2.831   3.734
 2369SOL    HW2 9506   3.853   2.794   3.765
 2369SOL    HW3 9507   3.703   2.787   3.786
 2369SOL    MW4 9508   3.773   2.820   3.745
 2370SOL     OW 9509   3.807   3.077   3.831
 2370SOL    HW2 9510   3.727   3.121   3.804
 2370SOL    HW3 9511   3.797   2.987   3.799
 2370SOL    MW4 9512   3.795   3.071   3.824
 2371SOL     OW 9513   3.570   3.221   3.743
 2371SOL    HW2 9514   3.594   3.305   3.781
 2371SOL    HW3 9515   3.583   3.233   3.649
 2371SOL    MW4 9516   3.574   3.234   3.736
 2372SOL     OW 9517   3.579   3.492   3.860
 2372SOL    HW2 9518   3.571   3.481   3.954
 2372SOL    HW3 9519   3.498   3.535   3.833
 2372SOL    MW4 9520   3.567   3.496   3.869
 2373SOL     OW 9521   3.819   3.577   3.761
 2373SOL    HW2 9522   3.816   3.671   3.783
 2373SOL    HW3 9523   3.737   3.542   3.795
 2373SOL    MW4 9524   3.808   3.585   3.769
 2374SOL     OW 9525   3.778   3.858   3.834
 2374SOL    HW2 9526   3.766   3.870   3.928
 2374SOL    HW3 9527   3.864   3.897   3.816
 2374SOL    MW4 9528   3.788   3.865   3.844
 2375SOL     OW 9529   3.529   3.941   3.768
 2375SOL    HW2 9530   3.539   4.034   3.787
 2375SOL    HW3 9531   3.615   3.903   3.789
 2375SOL    MW4 9532   3.542   3.948   3.773
 2376SOL     OW 9533   3.583   4.207   3.857
 2376SOL    HW2 9534   3.585   4.206   3.953
 2376SOL    HW3 9535   3.672   4.232   3.832
 2376SOL    MW4 9536   3.595   4.210   3.866
 2377SOL     OW 9537   3.819   4.340   3.754
 2377SOL    HW2 9538   3.897   4.299   3.788
 2377SOL    HW3 9539   3.842   4.364   3.664
 2377SOL    MW4 9540   3.832   4.338   3.746
 2378SOL     OW 9541   4.266   4.617   3.859
 2378SOL    HW2 9542   4.257   4.613   3.955
 2378SOL    HW3 9543   4.345   4.668   3.844
 2378SOL    MW4 9544   4.275   4.623   3.870
 2379SOL     OW 9545   4.037   0.065   3.772
 2379SOL    HW2 9546   4.117   0.026   3.808
 2379SOL    HW3 9547   4.056   0.078   3.679
 2379SOL    MW4 9548   4.050   0.062   3.765
 2380SOL     OW 9549   4.016   0.340   3.839
 2380SOL    HW2 9550   3.998   0.351   3.932
 2380SOL    HW3 9551   4.011   0.246   3.825
 2380SOL    MW4 9552   4.013   0.329   3.850
 2381SOL     OW 9553   4.237   0.497   3.764
 2381SOL    HW2 9554   4.166   0.438   3.791
 2381SOL    HW3 9555   4.231   0.499   3.669
 2381SOL    MW4 9556   4.227   0.489   3.755
 2382SOL     OW 9557   4.257   0.759   3.853
 2382SOL    HW2 9558   4.169   0.786   3.827
 2382SOL    HW3 9559   4.254   0.664   3.850
 2382SOL    MW4 9560   4.245   0.750   3.849
 2383SOL     OW 9561   3.989   0.851   3.809
 2383SOL    HW2 9562   3.980   0.941   3.840
 2383SOL    HW3 9563   3.990   0.859   3.714
 2383SOL    MW4 9564   3.988   0.864   3.801
 2384SOL     OW 9565   3.992   1.124   3.848
 2384SOL    HW2 9566   3.971   1.148   3.938
 2384SOL    HW3 9567   4.082   1.153   3.836
 2384SOL    MW4 9568   4.001   1.131   3.858
 2385SOL     OW 9569   4.244   1.233   3.809
 2385SOL    HW2 9570   4.248   1.328   3.823
 2385SOL    HW3 9571   4.239   1.223   3.714
 2385SOL    MW4 9572   4.244   1.244   3.798
 2386SOL     OW 9573   4.262   1.502   3.895
 2386SOL    HW2 9574   4.186   1.538   3.848
 2386SOL    HW3 9575   4.338   1.542   3.852
 2386SOL    MW4 9576   4.262   1.512   3.883
 2387SOL     OW 9577   4.044   1.604   3.756
 2387SOL    HW2 9578   4.058   1.695   3.780
 2387SOL    HW3 9579   3.958   1.582   3.793
 2387SOL    MW4 9580   4.034   1.613   3.764
 2388SOL     OW 9581   4.014   1.896   3.800
 2388SOL    HW2 9582   4.007   1.890   3.896
 2388SOL    HW3 9583   4.099   1.935   3.785
 2388SOL    MW4 9584   4.024   1.900   3.811
 2389SOL     OW 9585   4.256   2.017   3.728
 2389SOL    HW2 9586   4.240   2.108   3.754
 2389SOL    HW3 9587   4.252   2.018   3.632
 2389SOL    MW4 9588   4.254   2.029   3.719
 2390SOL     OW 9589   4.258   2.296   3.785
 2390SOL    HW2 9590   4.246   2.308   3.879
 2390SOL    HW3 9591   4.202   2.363   3.745
 2390SOL    MW4 9592   4.249   2.307   3.792
 2391SOL     OW 9593   4.054   2.471   3.707
 2391SOL    HW2 9594   4.023   2.554   3.743
 2391SOL    HW3 9595   3.987   2.407   3.732
 2391SOL    MW4 9596   4.041   2.473   3.715
 2392SOL     OW 9597   4.024   2.727   3.833
 2392SOL    HW2 9598   4.028   2.735   3.928
 2392SOL    HW3 9599   4.104   2.772   3.803
 2392SOL    MW4 9600   4.035   2.734   3.841
 2393SOL     OW 9601   4.261   2.830   3.736
 2393SOL    HW2 9602   4.283   2.918   3.767
 2393SOL    HW3 9603   4.332   2.774   3.767
 2393SOL    MW4 9604   4.273   2.834   3.744
 2394SOL     OW 9605   4.269   3.101   3.836
 2394SOL    HW2 9606   4.203   3.142   3.780
 2394SOL    HW3 9607   4.350   3.148   3.815
 2394SOL    MW4 9608   4.271   3.113   3.826
 2395SOL     OW 9609   4.041   3.218   3.733
 2395SOL    HW2 9610   3.973   3.160   3.768
 2395SOL    HW3 9611   4.028   3.215   3.638
 2395SOL    MW4 9612   4.030   3.210   3.725
 2396SOL     OW 9613   4.053   3.473   3.823
 2396SOL    HW2 9614   4.051   3.380   3.799
 2396SOL    HW3 9615   3.963   3.503   3.811
 2396SOL    MW4 9616   4.041   3.465   3.818
 2397SOL     OW 9617   4.291   3.586   3.749
 2397SOL    HW2 9618   4.211   3.540   3.775
 2397SOL    HW3 9619   4.359   3.549   3.805
 2397SOL    MW4 9620   4.290   3.575   3.760
 2398SOL     OW 9621   4.282   3.845   3.851
 2398SOL    HW2 9622   4.199   3.881   3.818
 2398SOL    HW3 9623   4.281   3.754   3.823
 2398SOL    MW4 9624   4.271   3.838   3.843
 2399SOL     OW 9625   4.036   3.951   3.761
 2399SOL    HW2 9626   4.033   4.044   3.783
 2399SOL    HW3 9627   4.037   3.949   3.665
 2399SOL    MW4 9628   4.036   3.963   3.751
 2400SOL     OW 9629   4.050   4.212   3.831
 2400SOL    HW2 9630   4.051   4.246   3.921
 2400SOL    HW3 9631   4.128   4.251   3.791
 2400SOL    MW4 9632   4.061   4.222   3.838
 2401SOL     OW 9633   4.263   4.367   3.749
 2401SOL    HW2 9634   4.267   4.459   3.775
 2401SOL    HW3 9635   4.347   4.330   3.778
 2401SOL    MW4 9636   4.275   4.374   3.756
 2402SOL     OW 9637   0.215   0.020   4.155
 2402SOL    HW2 9638   0.290   0.068   4.190
 2402SOL    HW3 9639   0.220  -0.066   4.197
 2402SOL    MW4 9640   0.226   0.015   4.165
 2403SOL     OW 9641   4.466   0.128   4.232
 2403SOL    HW2 9642   4.462   0.097   4.322
 2403SOL    HW3 9643   4.549   0.095   4.198
 2403SOL    MW4 9644   4.476   0.120   4.239
 2404SOL     OW 9645   4.437   0.395   4.137
 2404SOL    HW2 9646   4.443   0.309   4.179
 2404SOL    HW3 9647   4.457   0.378   4.045
 2404SOL    MW4 9648   4.441   0.381   4.130
 2405SOL     OW 9649   0.163   0.505   4.281
 2405SOL    HW2 9650   0.225   0.443   4.241
 2405SOL    HW3 9651   0.080   0.488   4.235
 2405SOL    MW4 9652   0.160   0.494   4.270
 2406SOL     OW 9653   0.219   0.747   4.157
 2406SOL    HW2 9654   0.140   0.799   4.174
 2406SOL    HW3 9655   0.201   0.662   4.196
 2406SOL    MW4 9656   0.206   0.743   4.164
 2407SOL     OW 9657   4.485   0.906   4.254
 2407SOL    HW2 9658   4.408   0.870   4.210
 2407SOL    HW3 9659   4.486   0.998   4.229
 2407SOL    MW4 9660   4.475   0.913   4.245
 2408SOL     OW 9661   0.009   1.158   4.166
 2408SOL    HW2 9662   0.092   1.193   4.197
 2408SOL    HW3 9663   0.010   1.173   4.071
 2408SOL    MW4 9664   0.020   1.165   4.157
 2409SOL     OW 9665   0.262   1.239   4.253
 2409SOL    HW2 9666   0.259   1.214   4.346
 2409SOL    HW3 9667   0.333   1.185   4.217
 2409SOL    MW4 9668   0.271   1.228   4.260
 2410SOL     OW 9669   0.411   1.866   4.668
 2410SOL    HW2 9670   0.393   1.947   4.621
 2410SOL    HW3 9671   0.411   1.798   4.601
 2410SOL    MW4 9672   0.409   1.868   4.653
 2411SOL     OW 9673   0.034   1.640   4.261
 2411SOL    HW2 9674  -0.042   1.592   4.227
 2411SOL    HW3 9675   0.016   1.732   4.241
 2411SOL    MW4 9676   0.022   1.646   4.254
 2412SOL     OW 9677   0.171   2.064   4.223
 2412SOL    HW2 9678   0.161   2.076   4.317
 2412SOL    HW3 9679   0.254   2.016   4.214
 2412SOL    MW4 9680   0.181   2.059   4.234
 2413SOL     OW 9681   0.458   1.390   4.628
 2413SOL    HW2 9682   0.442   1.463   4.568
 2413SOL    HW3 9683   0.471   1.431   4.714
 2413SOL    MW4 9684   0.458   1.405   4.632
 2414SOL     OW 9685   0.259   2.312   4.104
 2414SOL    HW2 9686   0.321   2.352   4.164
 2414SOL    HW3 9687   0.227   2.234   4.150
 2414SOL    MW4 9688   0.263   2.307   4.118
 2415SOL     OW 9689   0.004   2.435   4.183
 2415SOL    HW2 9690  -0.063   2.376   4.147
 2415SOL    HW3 9691   0.087   2.390   4.165
 2415SOL    MW4 9692   0.006   2.421   4.176
 2416SOL     OW 9693   4.463   2.705   4.118
 2416SOL    HW2 9694   4.547   2.746   4.139
 2416SOL    HW3 9695   4.469   2.617   4.156
 2416SOL    MW4 9696   4.475   2.699   4.126
 2417SOL     OW 9697   0.204   2.828   4.241
 2417SOL    HW2 9698   0.289   2.790   4.219
 2417SOL    HW3 9699   0.209   2.918   4.209
 2417SOL    MW4 9700   0.216   2.835   4.234
 2418SOL     OW 9701   0.245   3.074   4.143
 2418SOL    HW2 9702   0.333   3.099   4.173
 2418SOL    HW3 9703   0.186   3.132   4.191
 2418SOL    MW4 9704   0.249   3.085   4.153
 2419SOL     OW 9705   0.012   3.231   4.273
 2419SOL    HW2 9706  -0.060   3.212   4.213
 2419SOL    HW3 9707   0.043   3.318   4.246
 2419SOL    MW4 9708   0.006   3.240   4.261
 2420SOL     OW 9709   0.051   3.481   4.151
 2420SOL    HW2 9710  -0.027   3.526   4.184
 2420SOL    HW3 9711   0.036   3.474   4.057
 2420SOL    MW4 9712   0.039   3.486   4.143
 2421SOL     OW 9713   0.263   3.601   4.296
 2421SOL    HW2 9714   0.347   3.560   4.276
 2421SOL    HW3 9715   0.201   3.556   4.238
 2421SOL    MW4 9716   0.266   3.590   4.285
 2422SOL     OW 9717   0.269   3.864   4.181
 2422SOL    HW2 9718   0.194   3.909   4.220
 2422SOL    HW3 9719   0.267   3.776   4.218
 2422SOL    MW4 9720   0.259   3.858   4.191
 2423SOL     OW 9721   0.061   3.997   4.272
 2423SOL    HW2 9722   0.055   3.979   4.366
 2423SOL    HW3 9723  -0.022   3.964   4.236
 2423SOL    MW4 9724   0.049   3.990   4.280
 2424SOL     OW 9725   4.473   4.253   4.165
 2424SOL    HW2 9726   4.498   4.170   4.206
 2424SOL    HW3 9727   4.483   4.236   4.071
 2424SOL    MW4 9728   4.477   4.240   4.158
 2425SOL     OW 9729   0.229   4.417   4.247
 2425SOL    HW2 9730   0.225   4.431   4.341
 2425SOL    HW3 9731   0.151   4.365   4.228
 2425SOL    MW4 9732   0.218   4.412   4.257
 2426SOL     OW 9733   0.692   4.621   4.094
 2426SOL    HW2 9734   0.622   4.681   4.119
 2426SOL    HW3 9735   0.694   4.624   3.998
 2426SOL    MW4 9736   0.683   4.629   4.084
 2427SOL     OW 9737   0.472   0.131   4.194
 2427SOL    HW2 9738   0.470   0.116   4.289
 2427SOL    HW3 9739   0.443   0.221   4.183
 2427SOL    MW4 9740   0.468   0.141   4.205
 2428SOL     OW 9741   0.380   0.378   4.123
 2428SOL    HW2 9742   0.461   0.421   4.151
 2428SOL    HW3 9743   0.383   0.382   4.027
 2428SOL    MW4 9744   0.391   0.385   4.114
 2429SOL     OW 9745   0.606   0.495   4.210
 2429SOL    HW2 9746   0.680   0.453   4.166
 2429SOL    HW3 9747   0.617   0.588   4.191
 2429SOL    MW4 9748   0.617   0.502   4.202
 2430SOL     OW 9749   0.674   0.758   4.153
 2430SOL    HW2 9750   0.607   0.803   4.204
 2430SOL    HW3 9751   0.653   0.779   4.062
 2430SOL    MW4 9752   0.663   0.767   4.147
 2431SOL     OW 9753   0.452   0.852   4.271
 2431SOL    HW2 9754   0.469   0.926   4.212
 2431SOL    HW3 9755   0.377   0.807   4.233
 2431SOL    MW4 9756   0.444   0.856   4.258
 2432SOL     OW 9757   0.463   1.092   4.125
 2432SOL    HW2 9758   0.521   1.151   4.174
 2432SOL    HW3 9759   0.485   1.107   4.033
 2432SOL    MW4 9760   0.473   1.102   4.119
 2433SOL     OW 9761   0.660   1.248   4.242
 2433SOL    HW2 9762   0.693   1.252   4.331
 2433SOL    HW3 9763   0.641   1.339   4.219
 2433SOL    MW4 9764   0.662   1.261   4.250
 2434SOL     OW 9765   0.633   1.527   4.159
 2434SOL    HW2 9766   0.716   1.572   4.179
 2434SOL    HW3 9767   0.621   1.541   4.065
 2434SOL    MW4 9768   0.642   1.535   4.149
 2435SOL     OW 9769   0.236   1.501   4.110
 2435SOL    HW2 9770   0.237   1.424   4.168
 2435SOL    HW3 9771   0.162   1.553   4.142
 2435SOL    MW4 9772   0.226   1.497   4.122
 2436SOL     OW 9773   0.392   1.919   4.142
 2436SOL    HW2 9774   0.420   1.836   4.180
 2436SOL    HW3 9775   0.402   1.906   4.048
 2436SOL    MW4 9776   0.397   1.906   4.135
 2437SOL     OW 9777   0.659   2.060   4.182
 2437SOL    HW2 9778   0.672   2.081   4.275
 2437SOL    HW3 9779   0.571   2.023   4.177
 2437SOL    MW4 9780   0.649   2.058   4.194
 2438SOL     OW 9781   0.656   2.333   4.139
 2438SOL    HW2 9782   0.655   2.240   4.160
 2438SOL    HW3 9783   0.649   2.336   4.043
 2438SOL    MW4 9784   0.655   2.321   4.129
 2439SOL     OW 9785   0.435   2.437   4.262
 2439SOL    HW2 9786   0.426   2.526   4.229
 2439SOL    HW3 9787   0.522   2.409   4.231
 2439SOL    MW4 9788   0.445   2.445   4.253
 2440SOL     OW 9789   0.434   2.699   4.150
 2440SOL    HW2 9790   0.522   2.726   4.176
 2440SOL    HW3 9791   0.433   2.710   4.055
 2440SOL    MW4 9792   0.445   2.704   4.141
 2441SOL     OW 9793   0.687   2.806   4.219
 2441SOL    HW2 9794   0.701   2.791   4.312
 2441SOL    HW3 9795   0.676   2.901   4.211
 2441SOL    MW4 9796   0.687   2.817   4.230
 2442SOL     OW 9797   0.641   3.062   4.151
 2442SOL    HW2 9798   0.722   3.108   4.172
 2442SOL    HW3 9799   0.574   3.107   4.201
 2442SOL    MW4 9800   0.643   3.074   4.160
 2443SOL     OW 9801   0.459   3.224   4.277
 2443SOL    HW2 9802   0.445   3.227   4.371
 2443SOL    HW3 9803   0.476   3.316   4.253
 2443SOL    MW4 9804   0.459   3.237   4.286
 2444SOL     OW 9805   0.509   3.476   4.193
 2444SOL    HW2 9806   0.577   3.543   4.201
 2444SOL    HW3 9807   0.491   3.472   4.099
 2444SOL    MW4 9808   0.516   3.485   4.182
 2445SOL     OW 9809   0.699   3.668   4.255
 2445SOL    HW2 9810   0.680   3.662   4.348
 2445SOL    HW3 9811   0.784   3.626   4.245
 2445SOL    MW4 9812   0.707   3.662   4.266
 2446SOL     OW 9813   0.757   3.903   4.121
 2446SOL    HW2 9814   0.686   3.964   4.142
 2446SOL    HW3 9815   0.736   3.823   4.170
 2446SOL    MW4 9816   0.745   3.901   4.130
 2447SOL     OW 9817   0.512   3.999   4.226
 2447SOL    HW2 9818   0.485   4.087   4.201
 2447SOL    HW3 9819   0.432   3.946   4.216
 2447SOL    MW4 9820   0.498   4.003   4.221
 2448SOL     OW 9821   0.456   4.259   4.140
 2448SOL    HW2 9822   0.379   4.302   4.178
 2448SOL    HW3 9823   0.430   4.239   4.050
 2448SOL    MW4 9824   0.442   4.262   4.133
 2449SOL     OW 9825   0.674   4.401   4.254
 2449SOL    HW2 9826   0.598   4.352   4.223
 2449SOL    HW3 9827   0.684   4.472   4.191
 2449SOL    MW4 9828   0.665   4.404   4.241
 2450SOL     OW 9829   1.137   0.018   4.124
 2450SOL    HW2 9830   1.128  -0.068   4.164
 2450SOL    HW3 9831   1.138   0.001   4.030
 2450SOL    MW4 9832   1.136   0.005   4.117
 2451SOL     OW 9833   0.888   0.116   4.215
 2451SOL    HW2 9834   0.974   0.083   4.189
 2451SOL    HW3 9835   0.826   0.065   4.163
 2451SOL    MW4 9836   0.891   0.105   4.205
 2452SOL     OW 9837   0.844   0.354   4.102
 2452SOL    HW2 9838   0.899   0.418   4.148
 2452SOL    HW3 9839   0.858   0.272   4.150
 2452SOL    MW4 9840   0.853   0.351   4.115
 2453SOL     OW 9841   1.027   0.512   4.231
 2453SOL    HW2 9842   1.010   0.482   4.320
 2453SOL    HW3 9843   1.114   0.480   4.211
 2453SOL    MW4 9844   1.036   0.504   4.240
 2454SOL     OW 9845   1.091   0.761   4.134
 2454SOL    HW2 9846   1.172   0.794   4.173
 2454SOL    HW3 9847   1.070   0.683   4.185
 2454SOL    MW4 9848   1.099   0.755   4.146
 2455SOL     OW 9849   0.886   0.921   4.213
 2455SOL    HW2 9850   0.959   0.864   4.190
 2455SOL    HW3 9851   0.808   0.866   4.205
 2455SOL    MW4 9852   0.885   0.906   4.209
 2456SOL     OW 9853   0.871   1.155   4.099
 2456SOL    HW2 9854   0.871   1.066   4.133
 2456SOL    HW3 9855   0.802   1.200   4.149
 2456SOL    MW4 9856   0.862   1.149   4.110
 2457SOL     OW 9857   1.105   1.286   4.170
 2457SOL    HW2 9858   1.133   1.278   4.261
 2457SOL    HW3 9859   1.016   1.250   4.169
 2457SOL    MW4 9860   1.097   1.280   4.182
 2458SOL     OW 9861   1.100   1.563   4.134
 2458SOL    HW2 9862   1.020   1.599   4.173
 2458SOL    HW3 9863   1.091   1.468   4.145
 2458SOL    MW4 9864   1.088   1.555   4.141
 2459SOL     OW 9865   0.860   1.691   4.225
 2459SOL    HW2 9866   0.827   1.689   4.315
 2459SOL    HW3 9867   0.868   1.784   4.205
 2459SOL    MW4 9868   0.857   1.703   4.235
 2460SOL     OW 9869   0.914   1.946   4.118
 2460SOL    HW2 9870   0.837   2.001   4.129
 2460SOL    HW3 9871   0.920   1.932   4.023
 2460SOL    MW4 9872   0.905   1.951   4.107
 2461SOL     OW 9873   1.122   2.076   4.242
 2461SOL    HW2 9874   1.130   2.063   4.336
 2461SOL    HW3 9875   1.048   2.021   4.216
 2461SOL    MW4 9876   1.113   2.067   4.251
 2462SOL     OW 9877   1.156   2.336   4.158
 2462SOL    HW2 9878   1.212   2.376   4.224
 2462SOL    HW3 9879   1.145   2.245   4.188
 2462SOL    MW4 9880   1.162   2.329   4.171
 2463SOL     OW 9881   0.910   2.450   4.235
 2463SOL    HW2 9882   0.991   2.417   4.195
 2463SOL    HW3 9883   0.840   2.407   4.188
 2463SOL    MW4 9884   0.912   2.440   4.224
 2464SOL     OW 9885   0.935   2.709   4.123
 2464SOL    HW2 9886   0.929   2.622   4.163
 2464SOL    HW3 9887   0.850   2.749   4.141
 2464SOL    MW4 9888   0.923   2.703   4.131
 2465SOL     OW 9889   1.118   2.828   4.284
 2465SOL    HW2 9890   1.108   2.921   4.265
 2465SOL    HW3 9891   1.050   2.785   4.232
 2465SOL    MW4 9892   1.108   2.835   4.274
 2466SOL     OW 9893   1.084   3.090   4.193
 2466SOL    HW2 9894   1.159   3.147   4.213
 2466SOL    HW3 9895   1.086   3.081   4.097
 2466SOL    MW4 9896   1.094   3.097   4.183
 2467SOL     OW 9897   0.851   3.225   4.248
 2467SOL    HW2 9898   0.821   3.209   4.338
 2467SOL    HW3 9899   0.933   3.176   4.241
 2467SOL    MW4 9900   0.858   3.216   4.259
 2468SOL     OW 9901   0.896   3.505   4.186
 2468SOL    HW2 9902   0.874   3.418   4.218
 2468SOL    HW3 9903   0.900   3.495   4.091
 2468SOL    MW4 9904   0.893   3.492   4.177
 2469SOL     OW 9905   1.142   3.608   4.205
 2469SOL    HW2 9906   1.141   3.697   4.170
 2469SOL    HW3 9907   1.052   3.578   4.197
 2469SOL    MW4 9908   1.130   3.616   4.199
 2470SOL     OW 9909   1.142   3.894   4.193
 2470SOL    HW2 9910   1.216   3.940   4.235
 2470SOL    HW3 9911   1.064   3.939   4.226
 2470SOL    MW4 9912   1.142   3.906   4.203
 2471SOL     OW 9913   0.929   4.039   4.311
 2471SOL    HW2 9914   0.946   4.121   4.265
 2471SOL    HW3 9915   0.873   3.989   4.251
 2471SOL    MW4 9916   0.924   4.043   4.297
 2472SOL     OW 9917   0.925   4.286   4.160
 2472SOL    HW2 9918   1.002   4.323   4.202
 2472SOL    HW3 9919   0.851   4.323   4.209
 2472SOL    MW4 9920   0.925   4.295   4.172
 2473SOL     OW 9921   1.141   4.463   4.273
 2473SOL    HW2 9922   1.151   4.465   4.368
 2473SOL    HW3 9923   1.210   4.404   4.242
 2473SOL    MW4 9924   1.151   4.456   4.281
 2474SOL     OW 9925   1.602   4.635   4.114
 2474SOL    HW2 9926   1.663   4.678   4.173
 2474SOL    HW3 9927   1.520   4.683   4.124
 2474SOL    MW4 9928   1.600   4.647   4.123
 2475SOL     OW 9929   1.375   0.116   4.205
 2475SOL    HW2 9930   1.388   0.113   4.300
 2475SOL    HW3 9931   1.284   0.089   4.193
 2475SOL    MW4 9932   1.365   0.112   4.216
 2476SOL     OW 9933   1.298   0.400   4.194
 2476SOL    HW2 9934   1.368   0.440   4.246
 2476SOL    HW3 9935   1.297   0.308   4.222
 2476SOL    MW4 9936   1.307   0.393   4.205
 2477SOL     OW 9937   1.569   0.472   4.252
 2477SOL    HW2 9938   1.591   0.516   4.335
 2477SOL    HW3 9939   1.563   0.544   4.189
 2477SOL    MW4 9940   1.571   0.488   4.255
 2478SOL     OW 9941   1.552   0.737   4.143
 2478SOL    HW2 9942   1.637   0.767   4.174
 2478SOL    HW3 9943   1.551   0.760   4.050
 2478SOL    MW4 9944   1.563   0.744   4.135
 2479SOL     OW 9945   1.340   0.862   4.245
 2479SOL    HW2 9946   1.333   0.943   4.196
 2479SOL    HW3 9947   1.422   0.822   4.215
 2479SOL    MW4 9948   1.350   0.867   4.235
 2480SOL     OW 9949   1.320   1.109   4.076
 2480SOL    HW2 9950   1.240   1.156   4.101
 2480SOL    HW3 9951   1.321   1.111   3.981
 2480SOL    MW4 9952   1.310   1.116   4.067
 2481SOL     OW 9953   1.541   1.223   4.244
 2481SOL    HW2 9954   1.518   1.206   4.335
 2481SOL    HW3 9955   1.478   1.172   4.193
 2481SOL    MW4 9956   1.530   1.214   4.249
 2482SOL     OW 9957   1.503   1.503   4.202
 2482SOL    HW2 9958   1.420   1.532   4.241
 2482SOL    HW3 9959   1.505   1.408   4.217
 2482SOL    MW4 9960   1.492   1.494   4.209
 2483SOL     OW 9961   1.303   1.681   4.269
 2483SOL    HW2 9962   1.327   1.767   4.233
 2483SOL    HW3 9963   1.239   1.647   4.206
 2483SOL    MW4 9964   1.298   1.688   4.256
 2484SOL     OW 9965   1.352   1.936   4.145
 2484SOL    HW2 9966   1.422   1.982   4.191
 2484SOL    HW3 9967   1.272   1.974   4.180
 2484SOL    MW4 9968   1.351   1.947   4.156
 2485SOL     OW 9969   1.559   2.056   4.319
 2485SOL    HW2 9970   1.639   2.019   4.281
 2485SOL    HW3 9971   1.552   2.143   4.282
 2485SOL    MW4 9972   1.569   2.062   4.309
 2486SOL     OW 9973   1.557   2.310   4.218
 2486SOL    HW2 9974   1.604   2.386   4.253
 2486SOL    HW3 9975   1.572   2.315   4.123
 2486SOL    MW4 9976   1.565   2.321   4.210
 2487SOL     OW 9977   1.574   2.842   4.238
 2487SOL    HW2 9978   1.589   2.829   4.331
 2487SOL    HW3 9979   1.640   2.787   4.195
 2487SOL    MW4 9980   1.584   2.833   4.245
 2488SOL     OW 9981   1.324   2.692   4.152
 2488SOL    HW2 9982   1.404   2.738   4.181
 2488SOL    HW3 9983   1.254   2.734   4.201
 2488SOL    MW4 9984   1.326   2.704   4.162
 2489SOL     OW 9985   1.582   2.312   4.786
 2489SOL    HW2 9986   1.623   2.350   4.864
 2489SOL    HW3 9987   1.655   2.277   4.735
 2489SOL    MW4 9988   1.597   2.312   4.789
 2490SOL     OW 9989   1.562   3.086   4.143
 2490SOL    HW2 9990   1.627   3.141   4.187
 2490SOL    HW3 9991   1.573   3.000   4.183
 2490SOL    MW4 9992   1.572   3.082   4.154
 2491SOL     OW 9993   1.326   3.207   4.266
 2491SOL    HW2 9994   1.401   3.156   4.238
 2491SOL    HW3 9995   1.339   3.293   4.225
 2491SOL    MW4 9996   1.337   3.212   4.257
 2492SOL     OW 9997   1.373   3.455   4.149
 2492SOL    HW2 9998   1.290   3.496   4.170
 2492SOL    HW3 9999   1.393   3.485   4.060
 2492SOL    MW410000   1.365   3.464   4.140
 2493SOL     OW10001   1.574   3.609   4.241
 2493SOL    HW210002   1.584   3.595   4.335
 2493SOL    HW310003   1.493   3.563   4.219
 2493SOL    MW410004   1.564   3.601   4.251
 2494SOL     OW10005   1.527   3.862   4.130
 2494SOL    HW210006   1.449   3.903   4.169
 2494SOL    HW310007   1.529   3.774   4.168
 2494SOL    MW410008   1.517   3.856   4.140
 2495SOL     OW10009   1.373   4.018   4.280
 2495SOL    HW210010   1.416   4.029   4.365
 2495SOL    HW310011   1.360   4.108   4.249
 2495SOL    MW410012   1.377   4.031   4.287
 2496SOL     OW10013   1.331   4.268   4.168
 2496SOL    HW210014   1.409   4.317   4.194
 2496SOL    HW310015   1.340   4.258   4.073
 2496SOL    MW410016   1.343   4.273   4.159
 2497SOL     OW10017   1.558   4.394   4.232
 2497SOL    HW210018   1.573   4.481   4.196
 2497SOL    HW310019   1.630   4.341   4.198
 2497SOL    MW410020   1.570   4.398   4.223
 2498SOL     OW10021   1.996   4.643   4.160
 2498SOL    HW210022   1.911   4.683   4.176
 2498SOL    HW310023   1.999   4.631   4.065
 2498SOL    MW410024   1.985   4.646   4.149
 2499SOL     OW10025   1.772   0.100   4.279
 2499SOL    HW210026   1.770   0.117   4.374
 2499SOL    HW310027   1.784   0.187   4.240
 2499SOL    MW410028   1.774   0.114   4.287
 2500SOL     OW10029   1.812   0.357   4.173
 2500SOL    HW210030   1.884   0.411   4.206
 2500SOL    HW310031   1.733   0.402   4.202
 2500SOL    MW410032   1.811   0.370   4.181
 2501SOL     OW10033   2.009   0.558   4.270
 2501SOL    HW210034   1.999   0.533   4.362
 2501SOL    HW310035   2.079   0.501   4.238
 2501SOL    MW410036   2.017   0.547   4.278
 2502SOL     OW10037   2.016   0.775   4.108
 2502SOL    HW210038   2.092   0.814   4.151
 2502SOL    HW310039   2.008   0.688   4.148
 2502SOL    MW410040   2.025   0.769   4.119
 2503SOL     OW10041   1.807   0.844   4.254
 2503SOL    HW210042   1.813   0.938   4.235
 2503SOL    HW310043   1.879   0.805   4.203
 2503SOL    MW410044   1.818   0.851   4.244
 2504SOL     OW10045   1.811   1.127   4.185
 2504SOL    HW210046   1.877   1.168   4.241
 2504SOL    HW310047   1.729   1.170   4.209
 2504SOL    MW410048   1.809   1.138   4.195
 2505SOL     OW10049   2.011   1.273   4.313
 2505SOL    HW210050   2.084   1.235   4.264
 2505SOL    HW310051   2.004   1.362   4.279
 2505SOL    MW410052   2.020   1.280   4.302
 2506SOL     OW10053   1.966   1.523   4.173
 2506SOL    HW210054   2.029   1.573   4.225
 2506SOL    HW310055   2.002   1.525   4.084
 2506SOL    MW410056   1.979   1.530   4.168
 2507SOL     OW10057   1.727   1.665   4.233
 2507SOL    HW210058   1.799   1.609   4.206
 2507SOL    HW310059   1.649   1.610   4.223
 2507SOL    MW410060   1.726   1.650   4.228
 2508SOL     OW10061   1.785   1.927   4.201
 2508SOL    HW210062   1.757   1.837   4.221
 2508SOL    HW310063   1.873   1.933   4.238
 2508SOL    MW410064   1.793   1.916   4.208
 2509SOL     OW10065   1.688   2.567   4.328
 2509SOL    HW210066   1.668   2.622   4.404
 2509SOL    HW310067   1.782   2.576   4.316
 2509SOL    MW410068   1.697   2.576   4.336
 2510SOL     OW10069   2.489   2.297   4.184
 2510SOL    HW210070   2.465   2.205   4.198
 2510SOL    HW310071   2.481   2.309   4.089
 2510SOL    MW410072   2.485   2.286   4.173
 2511SOL     OW10073   1.808   2.960   4.391
 2511SOL    HW210074   1.809   2.927   4.302
 2511SOL    HW310075   1.900   2.971   4.414
 2511SOL    MW410076   1.820   2.957   4.383
 2512SOL     OW10077   1.836   2.838   4.130
 2512SOL    HW210078   1.885   2.775   4.183
 2512SOL    HW310079   1.893   2.914   4.124
 2512SOL    MW410080   1.850   2.840   4.136
 2513SOL     OW10081   1.998   3.193   4.324
 2513SOL    HW210082   2.030   3.128   4.387
 2513SOL    HW310083   2.002   3.148   4.239
 2513SOL    MW410084   2.003   3.178   4.321
 2514SOL     OW10085   2.285   2.869   4.136
 2514SOL    HW210086   2.366   2.911   4.164
 2514SOL    HW310087   2.249   2.830   4.216
 2514SOL    MW410088   2.291   2.869   4.150
 2515SOL     OW10089   1.720   3.229   4.288
 2515SOL    HW210090   1.741   3.311   4.245
 2515SOL    HW310091   1.804   3.197   4.321
 2515SOL    MW410092   1.734   3.235   4.287
 2516SOL     OW10093   1.791   3.446   4.126
 2516SOL    HW210094   1.726   3.508   4.161
 2516SOL    HW310095   1.796   3.467   4.033
 2516SOL    MW410096   1.783   3.457   4.118
 2517SOL     OW10097   2.004   3.599   4.228
 2517SOL    HW210098   1.996   3.690   4.201
 2517SOL    HW310099   1.926   3.556   4.192
 2517SOL    MW410100   1.993   3.605   4.220
 2518SOL     OW10101   1.997   3.855   4.158
 2518SOL    HW210102   1.912   3.894   4.181
 2518SOL    HW310103   2.015   3.887   4.070
 2518SOL    MW410104   1.988   3.865   4.150
 2519SOL     OW10105   1.780   3.991   4.204
 2519SOL    HW210106   1.776   4.074   4.155
 2519SOL    HW310107   1.693   3.952   4.191
 2519SOL    MW410108   1.768   3.997   4.196
 2520SOL     OW10109   1.769   4.254   4.117
 2520SOL    HW210110   1.846   4.294   4.159
 2520SOL    HW310111   1.782   4.270   4.024
 2520SOL    MW410112   1.781   4.261   4.111
 2521SOL     OW10113   2.000   4.373   4.222
 2521SOL    HW210114   1.975   4.370   4.314
 2521SOL    HW310115   1.996   4.466   4.198
 2521SOL    MW410116   1.996   4.385   4.231
 2522SOL     OW10117   2.426   4.645   4.168
 2522SOL    HW210118   2.512   4.687   4.174
 2522SOL    HW310119   2.440   4.556   4.201
 2522SOL    MW410120   2.439   4.639   4.173
 2523SOL     OW10121   2.205   0.110   4.273
 2523SOL    HW210122   2.291   0.076   4.250
 2523SOL    HW310123   2.144   0.045   4.237
 2523SOL    MW410124   2.208   0.097   4.266
 2524SOL     OW10125   2.182   0.346   4.152
 2524SOL    HW210126   2.175   0.260   4.195
 2524SOL    HW310127   2.213   0.326   4.064
 2524SOL    MW410128   2.185   0.332   4.146
 2525SOL     OW10129   2.447   0.439   4.216
 2525SOL    HW210130   2.438   0.421   4.309
 2525SOL    HW310131   2.367   0.403   4.177
 2525SOL    MW410132   2.435   0.432   4.223
 2526SOL     OW10133   2.457   0.792   4.203
 2526SOL    HW210134   2.446   0.708   4.248
 2526SOL    HW310135   2.465   0.769   4.110
 2526SOL    MW410136   2.457   0.778   4.196
 2527SOL     OW10137   2.216   0.900   4.254
 2527SOL    HW210138   2.213   0.915   4.348
 2527SOL    HW310139   2.305   0.872   4.236
 2527SOL    MW410140   2.227   0.898   4.264
 2528SOL     OW10141   2.216   1.160   4.180
 2528SOL    HW210142   2.294   1.207   4.209
 2528SOL    HW310143   2.228   1.071   4.215
 2528SOL    MW410144   2.228   1.154   4.189
 2529SOL     OW10145   2.438   1.295   4.254
 2529SOL    HW210146   2.486   1.310   4.335
 2529SOL    HW310147   2.502   1.251   4.197
 2529SOL    MW410148   2.453   1.291   4.257
 2530SOL     OW10149   2.411   1.552   4.153
 2530SOL    HW210150   2.420   1.463   4.188
 2530SOL    HW310151   2.419   1.540   4.058
 2530SOL    MW410152   2.413   1.539   4.145
 2531SOL     OW10153   2.187   1.683   4.270
 2531SOL    HW210154   2.246   1.624   4.222
 2531SOL    HW310155   2.192   1.765   4.222
 2531SOL    MW410156   2.196   1.686   4.258
 2532SOL     OW10157   2.214   1.960   4.169
 2532SOL    HW210158   2.297   1.975   4.214
 2532SOL    HW310159   2.147   1.985   4.232
 2532SOL    MW410160   2.216   1.966   4.183
 2533SOL     OW10161   2.442   2.039   4.305
 2533SOL    HW210162   2.438   2.031   4.400
 2533SOL    HW310163   2.519   1.988   4.280
 2533SOL    MW410164   2.452   2.031   4.314
 2534SOL     OW10165   2.684   2.482   4.247
 2534SOL    HW210166   2.612   2.427   4.215
 2534SOL    HW310167   2.672   2.484   4.342
 2534SOL    MW410168   2.673   2.475   4.256
 2535SOL     OW10169   2.404   2.443   4.585
 2535SOL    HW210170   2.386   2.475   4.497
 2535SOL    HW310171   2.380   2.516   4.642
 2535SOL    MW410172   2.399   2.457   4.581
 2536SOL     OW10173   1.953   2.645   4.248
 2536SOL    HW210174   2.019   2.688   4.304
 2536SOL    HW310175   2.002   2.582   4.197
 2536SOL    MW410176   1.968   2.643   4.249
 2537SOL     OW10177   2.464   2.755   4.429
 2537SOL    HW210178   2.387   2.710   4.394
 2537SOL    HW310179   2.428   2.827   4.481
 2537SOL    MW410180   2.449   2.758   4.431
 2538SOL     OW10181   2.388   3.175   4.182
 2538SOL    HW210182   2.363   3.127   4.261
 2538SOL    HW310183   2.481   3.191   4.192
 2538SOL    MW410184   2.397   3.170   4.194
 2539SOL     OW10185   2.021   3.048   4.097
 2539SOL    HW210186   2.030   3.089   4.011
 2539SOL    HW310187   2.108   3.013   4.116
 2539SOL    MW410188   2.034   3.048   4.088
 2540SOL     OW10189   2.228   3.401   4.126
 2540SOL    HW210190   2.265   3.318   4.155
 2540SOL    HW310191   2.149   3.413   4.178
 2540SOL    MW410192   2.223   3.392   4.137
 2541SOL     OW10193   2.438   3.588   4.205
 2541SOL    HW210194   2.346   3.562   4.202
 2541SOL    HW310195   2.441   3.674   4.163
 2541SOL    MW410196   2.426   3.596   4.199
 2542SOL     OW10197   2.421   3.864   4.138
 2542SOL    HW210198   2.505   3.883   4.181
 2542SOL    HW310199   2.444   3.853   4.046
 2542SOL    MW410200   2.435   3.865   4.132
 2543SOL     OW10201   2.215   3.993   4.263
 2543SOL    HW210202   2.287   3.944   4.224
 2543SOL    HW310203   2.136   3.949   4.231
 2543SOL    MW410204   2.214   3.981   4.253
 2544SOL     OW10205   2.219   4.253   4.139
 2544SOL    HW210206   2.226   4.170   4.186
 2544SOL    HW310207   2.140   4.295   4.174
 2544SOL    MW410208   2.209   4.248   4.150
 2545SOL     OW10209   2.463   4.363   4.200
 2545SOL    HW210210   2.528   4.305   4.159
 2545SOL    HW310211   2.379   4.328   4.170
 2545SOL    MW410212   2.460   4.350   4.190
 2546SOL     OW10213   2.881   4.601   4.152
 2546SOL    HW210214   2.952   4.634   4.208
 2546SOL    HW310215   2.865   4.512   4.184
 2546SOL    MW410216   2.889   4.593   4.164
 2547SOL     OW10217   2.668   0.105   4.168
 2547SOL    HW210218   2.686   0.196   4.147
 2547SOL    HW310219   2.753   0.061   4.159
 2547SOL    MW410220   2.682   0.111   4.164
 2548SOL     OW10221   2.709   0.377   4.117
 2548SOL    HW210222   2.623   0.395   4.154
 2548SOL    HW310223   2.696   0.377   4.022
 2548SOL    MW410224   2.696   0.379   4.110
 2549SOL     OW10225   3.367   0.795   4.091
 2549SOL    HW210226   3.394   0.744   4.168
 2549SOL    HW310227   3.271   0.796   4.096
 2549SOL    MW410228   3.358   0.788   4.102
 2550SOL     OW10229   3.077   0.808   4.114
 2550SOL    HW210230   3.077   0.904   4.124
 2550SOL    HW310231   3.015   0.792   4.043
 2550SOL    MW410232   3.068   0.819   4.106
 2551SOL     OW10233   2.694   0.925   4.254
 2551SOL    HW210234   2.767   0.872   4.286
 2551SOL    HW310235   2.631   0.862   4.221
 2551SOL    MW410236   2.696   0.910   4.253
 2552SOL     OW10237   2.638   1.167   4.123
 2552SOL    HW210238   2.662   1.091   4.176
 2552SOL    HW310239   2.659   1.142   4.034
 2552SOL    MW410240   2.644   1.154   4.118
 2553SOL     OW10241   2.869   1.263   4.243
 2553SOL    HW210242   2.929   1.200   4.203
 2553SOL    HW310243   2.788   1.255   4.192
 2553SOL    MW410244   2.866   1.253   4.231
 2554SOL     OW10245   2.875   1.541   4.161
 2554SOL    HW210246   2.943   1.593   4.205
 2554SOL    HW310247   2.882   1.454   4.199
 2554SOL    MW410248   2.885   1.537   4.172
 2555SOL     OW10249   2.630   1.671   4.261
 2555SOL    HW210250   2.706   1.620   4.233
 2555SOL    HW310251   2.558   1.638   4.207
 2555SOL    MW410252   2.631   1.660   4.250
 2556SOL     OW10253   2.672   1.952   4.197
 2556SOL    HW210254   2.664   1.860   4.222
 2556SOL    HW310255   2.661   1.951   4.102
 2556SOL    MW410256   2.670   1.940   4.187
 2557SOL     OW10257   2.952   2.082   4.211
 2557SOL    HW210258   2.928   2.163   4.166
 2557SOL    HW310259   2.870   2.032   4.213
 2557SOL    MW410260   2.938   2.086   4.205
 2558SOL     OW10261   2.884   2.335   4.132
 2558SOL    HW210262   2.969   2.379   4.140
 2558SOL    HW310263   2.828   2.380   4.195
 2558SOL    MW410264   2.888   2.347   4.141
 2559SOL     OW10265   2.723   2.718   4.102
 2559SOL    HW210266   2.649   2.764   4.141
 2559SOL    HW310267   2.716   2.629   4.135
 2559SOL    MW410268   2.713   2.713   4.112
 2560SOL     OW10269   2.562   2.908   4.231
 2560SOL    HW210270   2.527   2.864   4.310
 2560SOL    HW310271   2.623   2.973   4.265
 2560SOL    MW410272   2.565   2.911   4.246
 2561SOL     OW10273   2.959   2.852   4.078
 2561SOL    HW210274   2.871   2.815   4.084
 2561SOL    HW310275   2.955   2.913   4.004
 2561SOL    MW410276   2.947   2.855   4.069
 2562SOL     OW10277   2.907   3.056   4.258
 2562SOL    HW210278   2.879   3.025   4.344
 2562SOL    HW310279   2.929   2.977   4.210
 2562SOL    MW410280   2.906   3.042   4.263
 2563SOL     OW10281   2.677   3.227   4.222
 2563SOL    HW210282   2.653   3.265   4.306
 2563SOL    HW310283   2.754   3.173   4.240
 2563SOL    MW410284   2.684   3.225   4.235
 2564SOL     OW10285   2.683   3.501   4.112
 2564SOL    HW210286   2.681   3.408   4.135
 2564SOL    HW310287   2.599   3.535   4.143
 2564SOL    MW410288   2.671   3.493   4.120
 2565SOL     OW10289   2.939   3.597   4.203
 2565SOL    HW210290   2.930   3.600   4.299
 2565SOL    HW310291   2.853   3.569   4.172
 2565SOL    MW410292   2.927   3.594   4.212
 2566SOL     OW10293   2.918   3.865   4.132
 2566SOL    HW210294   2.982   3.907   4.189
 2566SOL    HW310295   2.923   3.772   4.156
 2566SOL    MW410296   2.927   3.858   4.143
 2567SOL     OW10297   2.661   3.938   4.236
 2567SOL    HW210298   2.639   4.021   4.194
 2567SOL    HW310299   2.742   3.910   4.192
 2567SOL    MW410300   2.669   3.945   4.225
 2568SOL     OW10301   2.677   4.191   4.115
 2568SOL    HW210302   2.745   4.245   4.154
 2568SOL    HW310303   2.683   4.208   4.021
 2568SOL    MW410304   2.687   4.200   4.108
 2569SOL     OW10305   2.876   4.329   4.235
 2569SOL    HW210306   2.893   4.305   4.326
 2569SOL    HW310307   2.952   4.298   4.187
 2569SOL    MW410308   2.888   4.322   4.241
 2570SOL     OW10309   3.355   4.641   4.165
 2570SOL    HW210310   3.437   4.678   4.198
 2570SOL    HW310311   3.359   4.549   4.188
 2570SOL    MW410312   3.367   4.634   4.172
 2571SOL     OW10313   3.098   0.051   4.292
 2571SOL    HW210314   3.108   0.053   4.387
 2571SOL    HW310315   3.177   0.006   4.261
 2571SOL    MW410316   3.110   0.045   4.301
 2572SOL     OW10317   3.161   0.307   4.168
 2572SOL    HW210318   3.153   0.217   4.198
 2572SOL    HW310319   3.100   0.356   4.222
 2572SOL    MW410320   3.152   0.302   4.179
 2573SOL     OW10321   3.409   0.362   4.290
 2573SOL    HW210322   3.475   0.333   4.227
 2573SOL    HW310323   3.326   0.357   4.243
 2573SOL    MW410324   3.407   0.358   4.276
 2574SOL     OW10325   3.384   0.644   4.340
 2574SOL    HW210326   3.313   0.647   4.404
 2574SOL    HW310327   3.402   0.550   4.330
 2574SOL    MW410328   3.377   0.632   4.347
 2575SOL     OW10329   3.193   0.635   4.525
 2575SOL    HW210330   3.232   0.576   4.590
 2575SOL    HW310331   3.137   0.578   4.472
 2575SOL    MW410332   3.191   0.620   4.527
 2576SOL     OW10333   3.082   1.085   4.155
 2576SOL    HW210334   3.155   1.085   4.216
 2576SOL    HW310335   3.122   1.107   4.070
 2576SOL    MW410336   3.096   1.088   4.152
 2577SOL     OW10337   3.308   1.125   4.317
 2577SOL    HW210338   3.390   1.101   4.360
 2577SOL    HW310339   3.284   1.209   4.356
 2577SOL    MW410340   3.315   1.133   4.328
 2578SOL     OW10341   3.241   1.346   4.441
 2578SOL    HW210342   3.242   1.400   4.361
 2578SOL    HW310343   3.323   1.367   4.485
 2578SOL    MW410344   3.252   1.356   4.436
 2579SOL     OW10345   3.076   1.710   4.264
 2579SOL    HW210346   3.069   1.722   4.359
 2579SOL    HW310347   3.097   1.797   4.231
 2579SOL    MW410348   3.078   1.723   4.272
 2580SOL     OW10349   3.167   1.946   4.135
 2580SOL    HW210350   3.236   1.978   4.192
 2580SOL    HW310351   3.093   2.005   4.152
 2580SOL    MW410352   3.166   1.958   4.145
 2581SOL     OW10353   3.385   2.067   4.278
 2581SOL    HW210354   3.451   2.009   4.240
 2581SOL    HW310355   3.387   2.145   4.222
 2581SOL    MW410356   3.394   2.070   4.265
 2582SOL     OW10357   3.392   2.312   4.138
 2582SOL    HW210358   3.476   2.342   4.171
 2582SOL    HW310359   3.400   2.319   4.043
 2582SOL    MW410360   3.404   2.317   4.130
 2583SOL     OW10361   3.144   2.427   4.163
 2583SOL    HW210362   3.162   2.512   4.123
 2583SOL    HW310363   3.224   2.376   4.148
 2583SOL    MW410364   3.157   2.431   4.156
 2584SOL     OW10365   3.166   2.682   4.061
 2584SOL    HW210366   3.223   2.733   4.119
 2584SOL    HW310367   3.083   2.728   4.063
 2584SOL    MW410368   3.163   2.695   4.069
 2585SOL     OW10369   3.371   2.800   4.225
 2585SOL    HW210370   3.455   2.757   4.217
 2585SOL    HW310371   3.384   2.887   4.187
 2585SOL    MW410372   3.384   2.806   4.219
 2586SOL     OW10373   3.386   3.053   4.114
 2586SOL    HW210374   3.304   3.082   4.153
 2586SOL    HW310375   3.373   3.063   4.020
 2586SOL    MW410376   3.373   3.058   4.107
 2587SOL     OW10377   3.168   3.162   4.235
 2587SOL    HW210378   3.157   3.230   4.168
 2587SOL    HW310379   3.081   3.125   4.247
 2587SOL    MW410380   3.155   3.166   4.228
 2588SOL     OW10381   3.143   3.420   4.106
 2588SOL    HW210382   3.082   3.485   4.140
 2588SOL    HW310383   3.138   3.431   4.011
 2588SOL    MW410384   3.134   3.430   4.098
 2589SOL     OW10385   3.322   3.573   4.276
 2589SOL    HW210386   3.296   3.554   4.366
 2589SOL    HW310387   3.265   3.519   4.222
 2589SOL    MW410388   3.311   3.563   4.281
 2590SOL     OW10389   3.341   3.825   4.162
 2590SOL    HW210390   3.334   3.734   4.189
 2590SOL    HW310391   3.323   3.823   4.068
 2590SOL    MW410392   3.338   3.813   4.153
 2591SOL     OW10393   3.139   3.994   4.249
 2591SOL    HW210394   3.152   3.977   4.342
 2591SOL    HW310395   3.215   3.953   4.207
 2591SOL    MW410396   3.151   3.986   4.256
 2592SOL     OW10397   3.123   4.250   4.130
 2592SOL    HW210398   3.185   4.310   4.170
 2592SOL    HW310399   3.140   4.166   4.172
 2592SOL    MW410400   3.133   4.246   4.141
 2593SOL     OW10401   3.338   4.387   4.240
 2593SOL    HW210402   3.367   4.387   4.332
 2593SOL    HW310403   3.403   4.334   4.194
 2593SOL    MW410404   3.350   4.380   4.246
 2594SOL     OW10405   3.827   4.584   4.153
 2594SOL    HW210406   3.900   4.642   4.177
 2594SOL    HW310407   3.817   4.595   4.058
 2594SOL    MW410408   3.835   4.593   4.144
 2595SOL     OW10409   3.615   0.042   4.282
 2595SOL    HW210410   3.635   0.122   4.234
 2595SOL    HW310411   3.674  -0.024   4.246
 2595SOL    MW410412   3.625   0.044   4.271
 2596SOL     OW10413   3.626   0.262   4.126
 2596SOL    HW210414   3.686   0.329   4.158
 2596SOL    HW310415   3.611   0.286   4.034
 2596SOL    MW410416   3.632   0.274   4.118
 2597SOL     OW10417   3.787   0.422   4.323
 2597SOL    HW210418   3.748   0.365   4.390
 2597SOL    HW310419   3.839   0.485   4.372
 2597SOL    MW410420   3.789   0.422   4.338
 2598SOL     OW10421   3.749   0.823   4.168
 2598SOL    HW210422   3.694   0.895   4.137
 2598SOL    HW310423   3.758   0.764   4.093
 2598SOL    MW410424   3.743   0.825   4.154
 2599SOL     OW10425   3.617   0.771   4.422
 2599SOL    HW210426   3.528   0.734   4.412
 2599SOL    HW310427   3.649   0.779   4.332
 2599SOL    MW410428   3.609   0.767   4.409
 2600SOL     OW10429   3.576   1.042   4.144
 2600SOL    HW210430   3.488   1.003   4.149
 2600SOL    HW310431   3.582   1.075   4.054
 2600SOL    MW410432   3.565   1.041   4.133
 2601SOL     OW10433   3.768   1.218   4.256
 2601SOL    HW210434   3.696   1.157   4.238
 2601SOL    HW310435   3.769   1.226   4.352
 2601SOL    MW410436   3.759   1.211   4.266
 2602SOL     OW10437   3.744   1.487   4.173
 2602SOL    HW210438   3.735   1.394   4.193
 2602SOL    HW310439   3.817   1.516   4.229
 2602SOL    MW410440   3.752   1.479   4.183
 2603SOL     OW10441   3.575   1.912   4.141
 2603SOL    HW210442   3.580   1.908   4.046
 2603SOL    HW310443   3.560   1.821   4.168
 2603SOL    MW410444   3.573   1.899   4.132
 2604SOL     OW10445   3.257   1.520   4.210
 2604SOL    HW210446   3.281   1.518   4.117
 2604SOL    HW310447   3.196   1.594   4.218
 2604SOL    MW410448   3.252   1.530   4.199
 2605SOL     OW10449   3.790   2.082   4.188
 2605SOL    HW210450   3.806   2.068   4.281
 2605SOL    HW310451   3.710   2.034   4.169
 2605SOL    MW410452   3.782   2.074   4.197
 2606SOL     OW10453   3.887   2.306   4.072
 2606SOL    HW210454   3.847   2.225   4.103
 2606SOL    HW310455   3.886   2.298   3.977
 2606SOL    MW410456   3.882   2.294   4.064
 2607SOL     OW10457   3.654   2.407   4.172
 2607SOL    HW210458   3.663   2.421   4.266
 2607SOL    HW310459   3.739   2.370   4.146
 2607SOL    MW410460   3.667   2.404   4.181
 2608SOL     OW10461   3.617   2.695   4.165
 2608SOL    HW210462   3.626   2.600   4.166
 2608SOL    HW310463   3.610   2.718   4.072
 2608SOL    MW410464   3.617   2.686   4.152
 2609SOL     OW10465   3.829   2.847   4.265
 2609SOL    HW210466   3.867   2.827   4.351
 2609SOL    HW310467   3.751   2.791   4.259
 2609SOL    MW410468   3.824   2.837   4.276
 2610SOL     OW10469   3.807   3.105   4.104
 2610SOL    HW210470   3.807   3.017   4.142
 2610SOL    HW310471   3.800   3.091   4.009
 2610SOL    MW410472   3.806   3.091   4.096
 2611SOL     OW10473   3.595   3.172   4.247
 2611SOL    HW210474   3.669   3.147   4.193
 2611SOL    HW310475   3.519   3.136   4.201
 2611SOL    MW410476   3.594   3.164   4.234
 2612SOL     OW10477   3.563   3.448   4.138
 2612SOL    HW210478   3.560   3.356   4.163
 2612SOL    HW310479   3.508   3.492   4.203
 2612SOL    MW410480   3.555   3.442   4.150
 2613SOL     OW10481   3.804   3.601   4.204
 2613SOL    HW210482   3.883   3.552   4.186
 2613SOL    HW310483   3.733   3.543   4.177
 2613SOL    MW410484   3.805   3.587   4.198
 2614SOL     OW10485   3.781   3.868   4.118
 2614SOL    HW210486   3.713   3.909   4.172
 2614SOL    HW310487   3.781   3.777   4.146
 2614SOL    MW410488   3.772   3.862   4.129
 2615SOL     OW10489   3.550   3.975   4.254
 2615SOL    HW210490   3.547   3.980   4.349
 2615SOL    HW310491   3.475   3.921   4.230
 2615SOL    MW410492   3.540   3.969   4.263
 2616SOL     OW10493   3.541   4.221   4.131
 2616SOL    HW210494   3.615   4.261   4.176
 2616SOL    HW310495   3.538   4.131   4.164
 2616SOL    MW410496   3.550   4.214   4.141
 2617SOL     OW10497   3.758   4.345   4.248
 2617SOL    HW210498   3.830   4.286   4.225
 2617SOL    HW310499   3.781   4.428   4.205
 2617SOL    MW410500   3.771   4.348   4.239
 2618SOL     OW10501   4.243   4.649   4.123
 2618SOL    HW210502   4.252   4.560   4.157
 2618SOL    HW310503   4.315   4.698   4.164
 2618SOL    MW410504   4.254   4.644   4.133
 2619SOL     OW10505   4.007   0.095   4.232
 2619SOL    HW210506   3.995   0.183   4.196
 2619SOL    HW310507   4.078   0.057   4.180
 2619SOL    MW410508   4.015   0.102   4.221
 2620SOL     OW10509   3.964   0.350   4.132
 2620SOL    HW210510   4.039   0.406   4.150
 2620SOL    HW310511   3.896   0.381   4.193
 2620SOL    MW410512   3.965   0.362   4.142
 2621SOL     OW10513   4.186   0.506   4.149
 2621SOL    HW210514   4.197   0.600   4.137
 2621SOL    HW310515   4.275   0.471   4.142
 2621SOL    MW410516   4.199   0.514   4.146
 2622SOL     OW10517   4.268   0.779   4.131
 2622SOL    HW210518   4.185   0.818   4.157
 2622SOL    HW310519   4.273   0.795   4.036
 2622SOL    MW410520   4.258   0.786   4.122
 2623SOL     OW10521   4.002   0.914   4.272
 2623SOL    HW210522   4.024   0.998   4.231
 2623SOL    HW310523   3.906   0.911   4.269
 2623SOL    MW410524   3.992   0.925   4.267
 2624SOL     OW10525   4.016   1.167   4.135
 2624SOL    HW210526   4.079   1.205   4.196
 2624SOL    HW310527   3.931   1.185   4.175
 2624SOL    MW410528   4.013   1.174   4.149
 2625SOL     OW10529   4.237   1.261   4.311
 2625SOL    HW210530   4.237   1.271   4.406
 2625SOL    HW310531   4.324   1.227   4.290
 2625SOL    MW410532   4.248   1.258   4.321
 2626SOL     OW10533   4.274   1.521   4.176
 2626SOL    HW210534   4.260   1.444   4.232
 2626SOL    HW310535   4.264   1.488   4.087
 2626SOL    MW410536   4.271   1.506   4.171
 2627SOL     OW10537   4.121   1.737   4.283
 2627SOL    HW210538   4.180   1.756   4.356
 2627SOL    HW310539   4.162   1.665   4.237
 2627SOL    MW410540   4.134   1.730   4.287
 2628SOL     OW10541   3.991   1.885   4.091
 2628SOL    HW210542   4.030   1.833   4.162
 2628SOL    HW310543   3.917   1.929   4.132
 2628SOL    MW410544   3.987   1.884   4.106
 2629SOL     OW10545   4.450   1.878   4.156
 2629SOL    HW210546   4.508   1.952   4.176
 2629SOL    HW310547   4.361   1.912   4.167
 2629SOL    MW410548   4.446   1.892   4.160
 2630SOL     OW10549   4.255   2.294   4.083
 2630SOL    HW210550   4.189   2.359   4.104
 2630SOL    HW310551   4.229   2.216   4.131
 2630SOL    MW410552   4.243   2.292   4.092
 2631SOL     OW10553   4.077   2.470   4.190
 2631SOL    HW210554   4.080   2.461   4.285
 2631SOL    HW310555   4.005   2.413   4.163
 2631SOL    MW410556   4.068   2.461   4.199
 2632SOL     OW10557   4.029   2.744   4.106
 2632SOL    HW210558   4.046   2.656   4.139
 2632SOL    HW310559   3.966   2.781   4.168
 2632SOL    MW410560   4.023   2.737   4.118
 2633SOL     OW10561   4.264   2.889   4.206
 2633SOL    HW210562   4.185   2.848   4.170
 2633SOL    HW310563   4.335   2.828   4.184
 2633SOL    MW410564   4.263   2.876   4.199
 2634SOL     OW10565   4.292   3.140   4.104
 2634SOL    HW210566   4.284   3.050   4.136
 2634SOL    HW310567   4.275   3.133   4.010
 2634SOL    MW410568   4.289   3.127   4.096
 2635SOL     OW10569   4.045   3.252   4.171
 2635SOL    HW210570   4.123   3.204   4.146
 2635SOL    HW310571   3.972   3.194   4.148
 2635SOL    MW410572   4.045   3.238   4.165
 2636SOL     OW10573   4.053   3.511   4.117
 2636SOL    HW210574   4.056   3.416   4.134
 2636SOL    HW310575   4.040   3.518   4.023
 2636SOL    MW410576   4.052   3.499   4.107
 2637SOL     OW10577   4.293   3.596   4.224
 2637SOL    HW210578   4.304   3.688   4.200
 2637SOL    HW310579   4.204   3.574   4.194
 2637SOL    MW410580   4.282   3.605   4.217
 2638SOL     OW10581   4.286   3.855   4.140
 2638SOL    HW210582   4.201   3.887   4.169
 2638SOL    HW310583   4.281   3.857   4.044
 2638SOL    MW410584   4.274   3.859   4.131
 2639SOL     OW10585   4.041   3.972   4.211
 2639SOL    HW210586   4.048   3.938   4.300
 2639SOL    HW310587   3.969   3.923   4.172
 2639SOL    MW410588   4.033   3.961   4.218
 2640SOL     OW10589   3.992   4.252   4.130
 2640SOL    HW210590   4.073   4.297   4.156
 2640SOL    HW310591   4.011   4.160   4.144
 2640SOL    MW410592   4.005   4.246   4.136
 2641SOL     OW10593   4.001   4.307   4.668
 2641SOL    HW210594   3.993   4.216   4.698
 2641SOL    HW310595   3.914   4.328   4.632
 2641SOL    MW410596   3.988   4.298   4.667
 2642SOL     OW10597   3.987   4.007   4.738
 2642SOL    HW210598   3.899   4.016   4.774
 2642SOL    HW310599   4.029   3.940   4.793
 2642SOL    MW410600   3.981   3.999   4.750
 2643SOL     OW10601   4.231   4.390   4.545
 2643SOL    HW210602   4.245   4.482   4.565
 2643SOL    HW310603   4.149   4.367   4.590
 2643SOL    MW410604   4.222   4.399   4.554
 2644SOL     OW10605   4.248   0.011   4.639
 2644SOL    HW210606   4.263   0.083   4.700
 2644SOL    HW310607   4.156   0.020   4.612
 2644SOL    MW410608   4.238   0.021   4.643
 2645SOL     OW10609   4.257   1.784   4.517
 2645SOL    HW210610   4.348   1.805   4.540
 2645SOL    HW310611   4.241   1.700   4.561
 2645SOL    MW410612   4.267   1.775   4.526
 2646SOL     OW10613   0.462   0.070   4.490
 2646SOL    HW210614   0.410   0.025   4.557
 2646SOL    HW310615   0.528   0.005   4.465
 2646SOL    MW410616   0.464   0.055   4.496
 2647SOL     OW10617   0.208   0.762   4.640
 2647SOL    HW210618   0.232   0.673   4.612
 2647SOL    HW310619   0.196   0.755   4.734
 2647SOL    MW410620   0.209   0.749   4.649
 2648SOL     OW10621   4.244   0.718   4.538
 2648SOL    HW210622   4.250   0.653   4.468
 2648SOL    HW310623   4.326   0.766   4.533
 2648SOL    MW410624   4.255   0.716   4.528
 2649SOL     OW10625   0.738   1.383   4.499
 2649SOL    HW210626   0.747   1.477   4.487
 2649SOL    HW310627   0.648   1.372   4.531
 2649SOL    MW410628   0.727   1.394   4.502
 2650SOL     OW10629   1.159   1.987   4.502
 2650SOL    HW210630   1.255   1.977   4.504
 2650SOL    HW310631   1.139   2.043   4.576
 2650SOL    MW410632   1.169   1.993   4.512
 2651SOL     OW10633   4.196   1.216   4.584
 2651SOL    HW210634   4.166   1.128   4.558
 2651SOL    HW310635   4.268   1.199   4.645
 2651SOL    MW410636   4.201   1.202   4.589
 2652SOL     OW10637   0.106   1.612   4.538
 2652SOL    HW210638   0.085   1.601   4.446
 2652SOL    HW310639   0.090   1.705   4.555
 2652SOL    MW410640   0.101   1.623   4.528
 2653SOL     OW10641   0.422   1.657   4.248
 2653SOL    HW210642   0.359   1.613   4.191
 2653SOL    HW310643   0.505   1.613   4.230
 2653SOL    MW410644   0.424   1.645   4.238
 2654SOL     OW10645   0.031   1.887   4.590
 2654SOL    HW210646   0.067   1.964   4.545
 2654SOL    HW310647   0.064   1.896   4.680
 2654SOL    MW410648   0.040   1.898   4.596
 2655SOL     OW10649   4.276   2.276   4.558
 2655SOL    HW210650   4.359   2.318   4.537
 2655SOL    HW310651   4.209   2.342   4.537
 2655SOL    MW410652   4.278   2.290   4.553
 2656SOL     OW10653   0.611   2.971   4.633
 2656SOL    HW210654   0.635   2.907   4.565
 2656SOL    HW310655   0.670   2.952   4.706
 2656SOL    MW410656   0.622   2.960   4.633
 2657SOL     OW10657   0.322   3.037   4.581
 2657SOL    HW210658   0.399   3.007   4.628
 2657SOL    HW310659   0.338   3.130   4.566
 2657SOL    MW410660   0.334   3.046   4.585
 2658SOL     OW10661   0.036   2.382   4.459
 2658SOL    HW210662   0.027   2.395   4.365
 2658SOL    HW310663   0.110   2.437   4.484
 2658SOL    MW410664   0.044   2.391   4.450
 2659SOL     OW10665   4.001   3.481   4.544
 2659SOL    HW210666   4.006   3.391   4.513
 2659SOL    HW310667   3.960   3.474   4.630
 2659SOL    MW410668   3.996   3.468   4.551
 2660SOL     OW10669   0.400   3.311   4.546
 2660SOL    HW210670   0.479   3.339   4.591
 2660SOL    HW310671   0.340   3.386   4.553
 2660SOL    MW410672   0.402   3.324   4.553
 2661SOL     OW10673   4.258   3.826   4.558
 2661SOL    HW210674   4.179   3.871   4.528
 2661SOL    HW310675   4.243   3.735   4.535
 2661SOL    MW410676   4.245   3.820   4.551
 2662SOL     OW10677   0.002   0.059   4.512
 2662SOL    HW210678  -0.080   0.020   4.544
 2662SOL    HW310679   0.012   0.139   4.562
 2662SOL    MW410680  -0.008   0.064   4.522
 2663SOL     OW10681   3.674   0.274   4.544
 2663SOL    HW210682   3.700   0.184   4.565
 2663SOL    HW310683   3.578   0.271   4.542
 2663SOL    MW410684   3.665   0.262   4.547
 2664SOL     OW10685   3.897   3.540   4.789
 2664SOL    HW210686   3.857   3.455   4.807
 2664SOL    HW310687   3.824   3.596   4.764
 2664SOL    MW410688   3.882   3.536   4.788
 2665SOL     OW10689   3.701   3.732   4.694
 2665SOL    HW210690   3.753   3.744   4.615
 2665SOL    HW310691   3.742   3.791   4.758
 2665SOL    MW410692   3.714   3.741   4.692
 2666SOL     OW10693   0.651   4.531   4.485
 2666SOL    HW210694   0.670   4.482   4.405
 2666SOL    HW310695   0.594   4.473   4.536
 2666SOL    MW410696   0.646   4.517   4.481
 2667SOL     OW10697   3.940   0.557   4.565
 2667SOL    HW210698   3.868   0.586   4.621
 2667SOL    HW310699   3.997   0.634   4.558
 2667SOL    MW410700   3.938   0.571   4.572
 2668SOL     OW10701   1.122   0.796   4.603
 2668SOL    HW210702   1.041   0.838   4.575
 2668SOL    HW310703   1.094   0.729   4.666
 2668SOL    MW410704   1.107   0.792   4.607
 2669SOL     OW10705   0.859   0.325   4.772
 2669SOL    HW210706   0.925   0.265   4.739
 2669SOL    HW310707   0.778   0.299   4.729
 2669SOL    MW410708   0.857   0.314   4.762
 2670SOL     OW10709   0.874   0.924   4.527
 2670SOL    HW210710   0.880   0.916   4.432
 2670SOL    HW310711   0.818   0.852   4.554
 2670SOL    MW410712   0.868   0.913   4.518
 2671SOL     OW10713   0.444   0.877   4.550
 2671SOL    HW210714   0.367   0.830   4.582
 2671SOL    HW310715   0.434   0.880   4.455
 2671SOL    MW410716   0.432   0.871   4.542
 2672SOL     OW10717   2.140   1.299   4.564
 2672SOL    HW210718   2.099   1.273   4.481
 2672SOL    HW310719   2.233   1.309   4.542
 2672SOL    MW410720   2.147   1.297   4.550
 2673SOL     OW10721   0.384   1.629   4.513
 2673SOL    HW210722   0.290   1.622   4.527
 2673SOL    HW310723   0.394   1.634   4.417
 2673SOL    MW410724   0.373   1.629   4.502
 2674SOL     OW10725   1.418   1.176   4.521
 2674SOL    HW210726   1.397   1.084   4.532
 2674SOL    HW310727   1.335   1.217   4.497
 2674SOL    MW410728   1.404   1.170   4.519
 2675SOL     OW10729   0.765   1.671   4.479
 2675SOL    HW210730   0.708   1.738   4.518
 2675SOL    HW310731   0.852   1.690   4.514
 2675SOL    MW410732   0.769   1.682   4.489
 2676SOL     OW10733   0.692   2.129   4.437
 2676SOL    HW210734   0.758   2.191   4.467
 2676SOL    HW310735   0.696   2.057   4.501
 2676SOL    MW410736   0.701   2.128   4.450
 2677SOL     OW10737   1.014   1.765   4.587
 2677SOL    HW210738   1.070   1.691   4.565
 2677SOL    HW310739   1.061   1.841   4.552
 2677SOL    MW410740   1.028   1.765   4.579
 2678SOL     OW10741   0.414   2.170   4.544
 2678SOL    HW210742   0.494   2.150   4.495
 2678SOL    HW310743   0.441   2.234   4.610
 2678SOL    MW410744   0.428   2.176   4.546
 2679SOL     OW10745   0.923   2.647   4.759
 2679SOL    HW210746   0.954   2.714   4.698
 2679SOL    HW310747   0.859   2.597   4.709
 2679SOL    MW410748   0.919   2.649   4.745
 2680SOL     OW10749   0.739   2.524   4.587
 2680SOL    HW210750   0.656   2.486   4.616
 2680SOL    HW310751   0.785   2.452   4.545
 2680SOL    MW410752   0.734   2.510   4.585
 2681SOL     OW10753   0.762   3.192   4.510
 2681SOL    HW210754   0.726   3.269   4.554
 2681SOL    HW310755   0.712   3.119   4.544
 2681SOL    MW410756   0.751   3.193   4.520
 2682SOL     OW10757   0.637   3.392   4.645
 2682SOL    HW210758   0.654   3.480   4.612
 2682SOL    HW310759   0.672   3.392   4.734
 2682SOL    MW410760   0.644   3.403   4.652
 2683SOL     OW10761   1.299   0.136   4.489
 2683SOL    HW210762   1.295   0.042   4.505
 2683SOL    HW310763   1.377   0.165   4.537
 2683SOL    MW410764   1.309   0.128   4.497
 2684SOL     OW10765   0.299   2.532   4.523
 2684SOL    HW210766   0.349   2.508   4.445
 2684SOL    HW310767   0.289   2.627   4.517
 2684SOL    MW410768   0.304   2.541   4.512
 2685SOL     OW10769   4.447   3.344   4.514
 2685SOL    HW210770   4.375   3.406   4.506
 2685SOL    HW310771   4.448   3.297   4.430
 2685SOL    MW410772   4.438   3.346   4.502
 2686SOL     OW10773   1.284   3.423   4.604
 2686SOL    HW210774   1.378   3.406   4.600
 2686SOL    HW310775   1.243   3.337   4.605
 2686SOL    MW410776   1.291   3.410   4.604
 2687SOL     OW10777   0.010   4.279   4.550
 2687SOL    HW210778   0.015   4.184   4.540
 2687SOL    HW310779  -0.080   4.296   4.578
 2687SOL    MW410780  -0.001   4.269   4.552
 2688SOL     OW10781   0.002   3.985   4.544
 2688SOL    HW210782   0.074   3.924   4.562
 2688SOL    HW310783  -0.077   3.933   4.560
 2688SOL    MW410784   0.001   3.970   4.549
 2689SOL     OW10785   0.188   4.511   4.503
 2689SOL    HW210786   0.150   4.598   4.510
 2689SOL    HW310787   0.116   4.452   4.526
 2689SOL    MW410788   0.173   4.514   4.507
 2690SOL     OW10789   0.654   0.229   4.590
 2690SOL    HW210790   0.731   0.179   4.564
 2690SOL    HW310791   0.580   0.173   4.567
 2690SOL    MW410792   0.654   0.215   4.584
 2691SOL     OW10793   1.262   4.521   4.535
 2691SOL    HW210794   1.349   4.481   4.533
 2691SOL    HW310795   1.226   4.494   4.620
 2691SOL    MW410796   1.268   4.512   4.546
 2692SOL     OW10797   0.546   0.469   4.475
 2692SOL    HW210798   0.570   0.474   4.382
 2692SOL    HW310799   0.590   0.390   4.507
 2692SOL    MW410800   0.555   0.459   4.467
 2693SOL     OW10801   1.356   0.896   4.520
 2693SOL    HW210802   1.346   0.900   4.425
 2693SOL    HW310803   1.269   0.876   4.553
 2693SOL    MW410804   1.343   0.894   4.512
 2694SOL     OW10805   1.565   0.800   4.675
 2694SOL    HW210806   1.485   0.831   4.633
 2694SOL    HW310807   1.561   0.838   4.763
 2694SOL    MW410808   1.554   0.809   4.681
 2695SOL     OW10809   0.325   1.142   4.533
 2695SOL    HW210810   0.352   1.057   4.569
 2695SOL    HW310811   0.374   1.206   4.585
 2695SOL    MW410812   0.335   1.139   4.545
 2696SOL     OW10813   0.910   1.957   4.813
 2696SOL    HW210814   0.962   2.038   4.813
 2696SOL    HW310815   0.970   1.890   4.782
 2696SOL    MW410816   0.925   1.959   4.809
 2697SOL     OW10817   0.932   1.206   4.562
 2697SOL    HW210818   0.856   1.265   4.567
 2697SOL    HW310819   0.895   1.118   4.565
 2697SOL    MW410820   0.917   1.202   4.563
 2698SOL     OW10821   1.862   1.169   4.584
 2698SOL    HW210822   1.864   1.077   4.558
 2698SOL    HW310823   1.952   1.189   4.608
 2698SOL    MW410824   1.874   1.160   4.584
 2699SOL     OW10825   1.170   1.300   4.440
 2699SOL    HW210826   1.106   1.267   4.504
 2699SOL    HW310827   1.180   1.393   4.463
 2699SOL    MW410828   1.163   1.308   4.452
 2700SOL     OW10829   1.115   2.432   4.631
 2700SOL    HW210830   1.098   2.484   4.709
 2700SOL    HW310831   1.207   2.446   4.612
 2700SOL    MW410832   1.125   2.441   4.639
 2701SOL     OW10833   1.647   2.497   4.977
 2701SOL    HW210834   1.733   2.529   5.002
 2701SOL    HW310835   1.606   2.571   4.932
 2701SOL    MW410836   1.653   2.511   4.974
 2702SOL     OW10837   1.441   2.959   4.624
 2702SOL    HW210838   1.498   2.899   4.574
 2702SOL    HW310839   1.501   3.025   4.658
 2702SOL    MW410840   1.457   2.960   4.622
 2703SOL     OW10841   1.556   3.335   4.536
 2703SOL    HW210842   1.594   3.258   4.579
 2703SOL    HW310843   1.581   3.326   4.444
 2703SOL    MW410844   1.564   3.324   4.530
 2704SOL     OW10845   0.740   2.776   4.486
 2704SOL    HW210846   0.832   2.799   4.499
 2704SOL    HW310847   0.733   2.685   4.516
 2704SOL    MW410848   0.751   2.767   4.491
 2705SOL     OW10849   0.436   4.381   4.589
 2705SOL    HW210850   0.355   4.428   4.569
 2705SOL    HW310851   0.407   4.291   4.607
 2705SOL    MW410852   0.421   4.375   4.589
 2706SOL     OW10853   1.012   2.825   4.551
 2706SOL    HW210854   1.054   2.811   4.466
 2706SOL    HW310855   1.038   2.914   4.575
 2706SOL    MW410856   1.021   2.835   4.543
 2707SOL     OW10857   0.814   2.952   4.831
 2707SOL    HW210858   0.853   2.867   4.852
 2707SOL    HW310859   0.866   2.986   4.758
 2707SOL    MW410860   0.826   2.946   4.824
 2708SOL     OW10861   1.641   3.591   4.510
 2708SOL    HW210862   1.735   3.587   4.493
 2708SOL    HW310863   1.619   3.504   4.545
 2708SOL    MW410864   1.650   3.579   4.512
 2709SOL     OW10865   0.483   3.884   4.473
 2709SOL    HW210866   0.465   3.959   4.530
 2709SOL    HW310867   0.531   3.921   4.399
 2709SOL    MW410868   0.487   3.899   4.471
 2710SOL     OW10869   0.220   3.807   4.545
 2710SOL    HW210870   0.192   3.717   4.561
 2710SOL    HW310871   0.301   3.799   4.494
 2710SOL    MW410872   0.227   3.794   4.540
 2711SOL     OW10873   0.858   0.053   4.512
 2711SOL    HW210874   0.874   0.068   4.419
 2711SOL    HW310875   0.807  -0.028   4.515
 2711SOL    MW410876   0.853   0.045   4.500
 2712SOL     OW10877   0.378   4.078   4.635
 2712SOL    HW210878   0.383   4.045   4.724
 2712SOL    HW310879   0.292   4.050   4.603
 2712SOL    MW410880   0.367   4.070   4.642
 2713SOL     OW10881   2.234   4.033   4.540
 2713SOL    HW210882   2.229   4.021   4.445
 2713SOL    HW310883   2.273   3.952   4.572
 2713SOL    MW410884   2.239   4.020   4.531
 2714SOL     OW10885   1.731   4.526   4.597
 2714SOL    HW210886   1.801   4.461   4.593
 2714SOL    HW310887   1.651   4.476   4.585
 2714SOL    MW410888   1.730   4.511   4.595
 2715SOL     OW10889   1.503   4.361   4.510
 2715SOL    HW210890   1.474   4.270   4.509
 2715SOL    HW310891   1.543   4.375   4.425
 2715SOL    MW410892   1.504   4.351   4.499
 2716SOL     OW10893   0.897   0.571   4.663
 2716SOL    HW210894   0.816   0.611   4.633
 2716SOL    HW310895   0.871   0.512   4.733
 2716SOL    MW410896   0.883   0.568   4.668
 2717SOL     OW10897   1.752   0.144   4.561
 2717SOL    HW210898   1.761   0.051   4.581
 2717SOL    HW310899   1.666   0.168   4.597
 2717SOL    MW410900   1.741   0.135   4.569
 2718SOL     OW10901   1.008   0.393   4.492
 2718SOL    HW210902   0.967   0.449   4.558
 2718SOL    HW310903   1.026   0.312   4.538
 2718SOL    MW410904   1.005   0.390   4.507
 2719SOL     OW10905   1.577   1.757   4.562
 2719SOL    HW210906   1.539   1.682   4.607
 2719SOL    HW310907   1.664   1.727   4.533
 2719SOL    MW410908   1.583   1.743   4.564
 2720SOL     OW10909   0.667   0.697   4.553
 2720SOL    HW210910   0.594   0.755   4.572
 2720SOL    HW310911   0.628   0.621   4.509
 2720SOL    MW410912   0.652   0.695   4.550
 2721SOL     OW10913   1.539   0.544   4.580
 2721SOL    HW210914   1.571   0.626   4.616
 2721SOL    HW310915   1.452   0.564   4.547
 2721SOL    MW410916   1.532   0.557   4.580
 2722SOL     OW10917   1.598   1.309   4.674
 2722SOL    HW210918   1.532   1.262   4.623
 2722SOL    HW310919   1.680   1.265   4.653
 2722SOL    MW410920   1.600   1.297   4.664
 2723SOL     OW10921   1.228   1.579   4.510
 2723SOL    HW210922   1.299   1.575   4.574
 2723SOL    HW310923   1.265   1.627   4.436
 2723SOL    MW410924   1.243   1.585   4.509
 2724SOL     OW10925   1.517   2.700   4.771
 2724SOL    HW210926   1.452   2.767   4.791
 2724SOL    HW310927   1.468   2.628   4.731
 2724SOL    MW410928   1.502   2.699   4.768
 2725SOL     OW10929   2.270   2.551   4.363
 2725SOL    HW210930   2.250   2.503   4.282
 2725SOL    HW310931   2.215   2.629   4.358
 2725SOL    MW410932   2.260   2.555   4.352
 2726SOL     OW10933   0.904   2.310   4.476
 2726SOL    HW210934   0.987   2.318   4.524
 2726SOL    HW310935   0.919   2.359   4.395
 2726SOL    MW410936   0.917   2.317   4.472
 2727SOL     OW10937   1.442   3.792   4.592
 2727SOL    HW210938   1.512   3.734   4.562
 2727SOL    HW310939   1.361   3.749   4.564
 2727SOL    MW410940   1.440   3.779   4.584
 2728SOL     OW10941   1.338   2.453   4.340
 2728SOL    HW210942   1.346   2.523   4.275
 2728SOL    HW310943   1.403   2.388   4.313
 2728SOL    MW410944   1.348   2.454   4.328
 2729SOL     OW10945   1.393   2.490   4.633
 2729SOL    HW210946   1.381   2.468   4.541
 2729SOL    HW310947   1.465   2.435   4.662
 2729SOL    MW410948   1.401   2.480   4.625
 2730SOL     OW10949   1.260   3.152   4.542
 2730SOL    HW210950   1.297   3.066   4.562
 2730SOL    HW310951   1.284   3.168   4.451
 2730SOL    MW410952   1.268   3.143   4.533
 2731SOL     OW10953   0.970   3.088   4.642
 2731SOL    HW210954   1.054   3.134   4.638
 2731SOL    HW310955   0.913   3.137   4.584
 2731SOL    MW410956   0.974   3.101   4.634
 2732SOL     OW10957   0.672   3.679   4.526
 2732SOL    HW210958   0.611   3.752   4.517
 2732SOL    HW310959   0.759   3.720   4.528
 2732SOL    MW410960   0.676   3.694   4.525
 2733SOL     OW10961   2.333   3.369   4.596
 2733SOL    HW210962   2.238   3.377   4.591
 2733SOL    HW310963   2.351   3.281   4.561
 2733SOL    MW410964   2.323   3.358   4.590
 2734SOL     OW10965   2.017   3.350   4.552
 2734SOL    HW210966   2.009   3.276   4.613
 2734SOL    HW310967   2.018   3.310   4.465
 2734SOL    MW410968   2.016   3.335   4.549
 2735SOL     OW10969   2.373   3.123   4.487
 2735SOL    HW210970   2.314   3.053   4.514
 2735SOL    HW310971   2.460   3.094   4.516
 2735SOL    MW410972   2.377   3.110   4.494
 2736SOL     OW10973   0.929   3.796   4.488
 2736SOL    HW210974   0.935   3.889   4.469
 2736SOL    HW310975   1.019   3.764   4.481
 2736SOL    MW410976   0.942   3.804   4.484
 2737SOL     OW10977   1.792   4.081   4.501
 2737SOL    HW210978   1.794   4.065   4.406
 2737SOL    HW310979   1.788   3.993   4.540
 2737SOL    MW410980   1.792   4.067   4.493
 2738SOL     OW10981   1.992   0.357   4.482
 2738SOL    HW210982   1.921   0.293   4.496
 2738SOL    HW310983   2.062   0.327   4.540
 2738SOL    MW410984   1.992   0.345   4.492
 2739SOL     OW10985   1.066   0.167   4.644
 2739SOL    HW210986   1.007   0.103   4.603
 2739SOL    HW310987   1.147   0.160   4.593
 2739SOL    MW410988   1.069   0.158   4.632
 2740SOL     OW10989   1.516   0.260   4.668
 2740SOL    HW210990   1.560   0.260   4.753
 2740SOL    HW310991   1.524   0.350   4.636
 2740SOL    MW410992   1.523   0.272   4.675
 2741SOL     OW10993   2.442   0.016   4.523
 2741SOL    HW210994   2.421  -0.077   4.507
 2741SOL    HW310995   2.357   0.060   4.525
 2741SOL    MW410996   2.428   0.009   4.521
 2742SOL     OW10997   1.812   0.898   4.533
 2742SOL    HW210998   1.727   0.874   4.571
 2742SOL    HW310999   1.809   0.863   4.444
 2742SOL    MW411000   1.800   0.890   4.527
 2743SOL     OW11001   1.275   0.559   4.500
 2743SOL    HW211002   1.221   0.638   4.498
 2743SOL    HW311003   1.213   0.488   4.518
 2743SOL    MW411004   1.260   0.560   4.502
 2744SOL     OW11005   1.836   1.722   4.491
 2744SOL    HW211006   1.906   1.676   4.538
 2744SOL    HW311007   1.827   1.673   4.409
 2744SOL    MW411008   1.844   1.709   4.486
 2745SOL     OW11009   0.693   1.920   4.617
 2745SOL    HW211010   0.755   1.931   4.690
 2745SOL    HW311011   0.607   1.916   4.659
 2745SOL    MW411012   0.690   1.921   4.632
 2746SOL     OW11013   1.458   1.555   4.688
 2746SOL    HW211014   1.522   1.483   4.692
 2746SOL    HW311015   1.452   1.586   4.778
 2746SOL    MW411016   1.466   1.549   4.700
 2747SOL     OW11017   1.149   2.150   4.765
 2747SOL    HW211018   1.241   2.134   4.782
 2747SOL    HW311019   1.145   2.240   4.732
 2747SOL    MW411020   1.161   2.160   4.763
 2748SOL     OW11021   1.419   1.994   4.549
 2748SOL    HW211022   1.461   2.021   4.467
 2748SOL    HW311023   1.462   1.911   4.571
 2748SOL    MW411024   1.430   1.986   4.541
 2749SOL     OW11025   2.116   2.442   4.156
 2749SOL    HW211026   2.098   2.406   4.069
 2749SOL    HW311027   2.081   2.377   4.217
 2749SOL    MW411028   2.109   2.429   4.152
 2750SOL     OW11029   1.417   2.093   4.800
 2750SOL    HW211030   1.425   2.067   4.708
 2750SOL    HW311031   1.465   2.175   4.806
 2750SOL    MW411032   1.424   2.100   4.789
 2751SOL     OW11033   2.591   3.012   4.616
 2751SOL    HW211034   2.666   2.960   4.586
 2751SOL    HW311035   2.550   2.959   4.684
 2751SOL    MW411036   2.595   2.998   4.621
 2752SOL     OW11037   1.700   3.117   4.611
 2752SOL    HW211038   1.710   3.078   4.524
 2752SOL    HW311039   1.788   3.118   4.647
 2752SOL    MW411040   1.713   3.112   4.604
 2753SOL     OW11041   1.773   3.826   4.626
 2753SOL    HW211042   1.700   3.771   4.653
 2753SOL    HW311043   1.842   3.764   4.602
 2753SOL    MW411044   1.773   3.811   4.626
 2754SOL     OW11045   2.964   3.113   4.716
 2754SOL    HW211046   2.957   3.046   4.784
 2754SOL    HW311047   3.055   3.109   4.687
 2754SOL    MW411048   2.975   3.104   4.721
 2755SOL     OW11049   2.478   2.887   4.851
 2755SOL    HW211050   2.522   2.945   4.914
 2755SOL    HW311051   2.391   2.925   4.840
 2755SOL    MW411052   2.472   2.900   4.858
 2756SOL     OW11053   2.716   3.853   4.513
 2756SOL    HW211054   2.680   3.899   4.437
 2756SOL    HW311055   2.646   3.857   4.579
 2756SOL    MW411056   2.702   3.860   4.512
 2757SOL     OW11057   2.403   3.840   4.634
 2757SOL    HW211058   2.429   3.761   4.586
 2757SOL    HW311059   2.389   3.810   4.724
 2757SOL    MW411060   2.404   3.825   4.640
 2758SOL     OW11061   2.473   3.596   4.507
 2758SOL    HW211062   2.425   3.527   4.554
 2758SOL    HW311063   2.431   3.600   4.421
 2758SOL    MW411064   2.461   3.587   4.502
 2759SOL     OW11065   1.902   3.612   4.500
 2759SOL    HW211066   1.921   3.519   4.513
 2759SOL    HW311067   1.942   3.634   4.416
 2759SOL    MW411068   1.910   3.603   4.491
 2760SOL     OW11069   1.913   4.322   4.484
 2760SOL    HW211070   1.869   4.239   4.505
 2760SOL    HW311071   1.994   4.319   4.535
 2760SOL    MW411072   1.918   4.311   4.493
 2761SOL     OW11073   1.215   3.664   4.472
 2761SOL    HW211074   1.227   3.582   4.520
 2761SOL    HW311075   1.204   3.637   4.381
 2761SOL    MW411076   1.215   3.650   4.466
 2762SOL     OW11077   2.236   0.234   4.533
 2762SOL    HW211078   2.205   0.220   4.444
 2762SOL    HW311079   2.297   0.308   4.527
 2762SOL    MW411080   2.240   0.242   4.521
 2763SOL     OW11081   2.440   0.721   4.511
 2763SOL    HW211082   2.518   0.775   4.523
 2763SOL    HW311083   2.367   0.782   4.520
 2763SOL    MW411084   2.440   0.736   4.514
 2764SOL     OW11085   2.044   1.565   4.585
 2764SOL    HW211086   2.066   1.472   4.587
 2764SOL    HW311087   2.129   1.610   4.585
 2764SOL    MW411088   2.058   1.559   4.586
 2765SOL     OW11089   2.647   0.171   4.438
 2765SOL    HW211090   2.575   0.111   4.454
 2765SOL    HW311091   2.676   0.152   4.349
 2765SOL    MW411092   2.641   0.161   4.429
 2766SOL     OW11093   2.907   0.789   4.346
 2766SOL    HW211094   2.885   0.696   4.354
 2766SOL    HW311095   2.967   0.793   4.272
 2766SOL    MW411096   2.912   0.777   4.338
 2767SOL     OW11097   3.112   0.842   4.700
 2767SOL    HW211098   3.133   0.777   4.633
 2767SOL    HW311099   3.178   0.910   4.689
 2767SOL    MW411100   3.123   0.842   4.689
 2768SOL     OW11101   2.247   0.943   4.525
 2768SOL    HW211102   2.307   1.005   4.565
 2768SOL    HW311103   2.192   0.912   4.597
 2768SOL    MW411104   2.247   0.947   4.539
 2769SOL     OW11105   2.580   1.327   4.480
 2769SOL    HW211106   2.582   1.421   4.495
 2769SOL    HW311107   2.667   1.296   4.507
 2769SOL    MW411108   2.592   1.335   4.486
 2770SOL     OW11109   2.581   1.614   4.525
 2770SOL    HW211110   2.599   1.647   4.437
 2770SOL    HW311111   2.589   1.690   4.582
 2770SOL    MW411112   2.584   1.628   4.521
 2771SOL     OW11113   2.287   1.707   4.528
 2771SOL    HW211114   2.366   1.653   4.528
 2771SOL    HW311115   2.251   1.697   4.440
 2771SOL    MW411116   2.293   1.699   4.517
 2772SOL     OW11117   2.237   2.205   4.643
 2772SOL    HW211118   2.292   2.284   4.638
 2772SOL    HW311119   2.178   2.213   4.568
 2772SOL    MW411120   2.237   2.217   4.632
 2773SOL     OW11121   2.403   1.985   4.561
 2773SOL    HW211122   2.349   1.906   4.550
 2773SOL    HW311123   2.344   2.051   4.597
 2773SOL    MW411124   2.388   1.983   4.564
 2774SOL     OW11125   2.618   2.235   4.455
 2774SOL    HW211126   2.549   2.281   4.502
 2774SOL    HW311127   2.582   2.220   4.368
 2774SOL    MW411128   2.604   2.239   4.450
 2775SOL     OW11129   1.619   2.765   4.511
 2775SOL    HW211130   1.700   2.814   4.501
 2775SOL    HW311131   1.620   2.736   4.602
 2775SOL    MW411132   1.630   2.768   4.522
 2776SOL     OW11133   2.232   3.017   4.816
 2776SOL    HW211134   2.290   3.093   4.808
 2776SOL    HW311135   2.238   2.973   4.731
 2776SOL    MW411136   2.240   3.021   4.804
 2777SOL     OW11137   2.669   3.382   4.471
 2777SOL    HW211138   2.668   3.354   4.563
 2777SOL    HW311139   2.599   3.447   4.466
 2777SOL    MW411140   2.659   3.387   4.483
 2778SOL     OW11141   2.412   3.230   4.823
 2778SOL    HW211142   2.502   3.241   4.855
 2778SOL    HW311143   2.408   3.288   4.746
 2778SOL    MW411144   2.423   3.239   4.817
 2779SOL     OW11145   1.506   4.064   4.519
 2779SOL    HW211146   1.490   3.978   4.558
 2779SOL    HW311147   1.598   4.062   4.493
 2779SOL    MW411148   1.516   4.053   4.521
 2780SOL     OW11149   2.682   4.378   4.574
 2780SOL    HW211150   2.678   4.391   4.668
 2780SOL    HW311151   2.592   4.358   4.548
 2780SOL    MW411152   2.670   4.377   4.583
 2781SOL     OW11153   1.981   3.128   4.708
 2781SOL    HW211154   2.023   3.076   4.638
 2781SOL    HW311155   2.038   3.115   4.784
 2781SOL    MW411156   1.994   3.119   4.709
 2782SOL     OW11157   3.228   3.872   4.525
 2782SOL    HW211158   3.156   3.898   4.582
 2782SOL    HW311159   3.231   3.776   4.533
 2782SOL    MW411160   3.219   3.863   4.533
 2783SOL     OW11161   2.932   3.968   4.639
 2783SOL    HW211162   2.868   3.926   4.581
 2783SOL    HW311163   2.936   4.058   4.607
 2783SOL    MW411164   2.924   3.974   4.627
 2784SOL     OW11165   2.169   4.300   4.596
 2784SOL    HW211166   2.174   4.313   4.691
 2784SOL    HW311167   2.195   4.208   4.584
 2784SOL    MW411168   2.173   4.289   4.607
 2785SOL     OW11169   2.408   4.384   4.496
 2785SOL    HW211170   2.321   4.350   4.514
 2785SOL    HW311171   2.423   4.364   4.403
 2785SOL    MW411172   2.399   4.376   4.486
 2786SOL     OW11173   2.816   0.539   4.323
 2786SOL    HW211174   2.773   0.488   4.255
 2786SOL    HW311175   2.772   0.515   4.404
 2786SOL    MW411176   2.805   0.529   4.325
 2787SOL     OW11177   2.710   0.417   4.545
 2787SOL    HW211178   2.694   0.332   4.505
 2787SOL    HW311179   2.729   0.397   4.637
 2787SOL    MW411180   2.711   0.403   4.552
 2788SOL     OW11181   2.692   0.061   4.782
 2788SOL    HW211182   2.736   0.032   4.702
 2788SOL    HW311183   2.604   0.024   4.775
 2788SOL    MW411184   2.686   0.052   4.770
 2789SOL     OW11185   2.926   0.963   4.550
 2789SOL    HW211186   2.969   0.923   4.625
 2789SOL    HW311187   2.926   0.895   4.483
 2789SOL    MW411188   2.931   0.949   4.551
 2790SOL     OW11189   3.585   0.433   4.752
 2790SOL    HW211190   3.634   0.370   4.700
 2790SOL    HW311191   3.615   0.518   4.720
 2790SOL    MW411192   3.596   0.436   4.741
 2791SOL     OW11193   2.045   0.788   4.651
 2791SOL    HW211194   2.015   0.711   4.699
 2791SOL    HW311195   1.966   0.820   4.606
 2791SOL    MW411196   2.030   0.782   4.651
 2792SOL     OW11197   2.653   0.912   4.547
 2792SOL    HW211198   2.644   0.939   4.456
 2792SOL    HW311199   2.745   0.928   4.568
 2792SOL    MW411200   2.664   0.918   4.538
 2793SOL     OW11201   3.051   1.402   4.610
 2793SOL    HW211202   2.981   1.338   4.601
 2793SOL    HW311203   3.115   1.377   4.544
 2793SOL    MW411204   3.050   1.391   4.600
 2794SOL     OW11205   3.086   1.697   4.552
 2794SOL    HW211206   3.007   1.738   4.587
 2794SOL    HW311207   3.075   1.604   4.570
 2794SOL    MW411208   3.074   1.691   4.559
 2795SOL     OW11209   2.861   1.881   4.570
 2795SOL    HW211210   2.771   1.870   4.601
 2795SOL    HW311211   2.864   1.971   4.538
 2795SOL    MW411212   2.849   1.892   4.570
 2796SOL     OW11213   2.614   1.835   4.685
 2796SOL    HW211214   2.606   1.832   4.781
 2796SOL    HW311215   2.559   1.908   4.659
 2796SOL    MW411216   2.606   1.844   4.694
 2797SOL     OW11217   2.889   2.176   4.463
 2797SOL    HW211218   2.795   2.194   4.470
 2797SOL    HW311219   2.902   2.153   4.371
 2797SOL    MW411220   2.878   2.176   4.452
 2798SOL     OW11221   3.150   2.261   4.619
 2798SOL    HW211222   3.125   2.285   4.708
 2798SOL    HW311223   3.068   2.237   4.576
 2798SOL    MW411224   3.136   2.261   4.625
 2799SOL     OW11225   2.359   2.673   4.706
 2799SOL    HW211226   2.429   2.727   4.743
 2799SOL    HW311227   2.303   2.735   4.658
 2799SOL    MW411228   2.361   2.688   4.705
 2800SOL     OW11229   3.500   3.196   4.699
 2800SOL    HW211230   3.428   3.143   4.734
 2800SOL    HW311231   3.531   3.147   4.623
 2800SOL    MW411232   3.495   3.182   4.694
 2801SOL     OW11233   2.659   2.572   4.514
 2801SOL    HW211234   2.605   2.542   4.587
 2801SOL    HW311235   2.611   2.647   4.478
 2801SOL    MW411236   2.645   2.578   4.519
 2802SOL     OW11237   2.727   3.260   4.717
 2802SOL    HW211238   2.678   3.182   4.693
 2802SOL    HW311239   2.818   3.231   4.719
 2802SOL    MW411240   2.733   3.246   4.714
 2803SOL     OW11241   2.848   2.968   4.510
 2803SOL    HW211242   2.896   3.023   4.572
 2803SOL    HW311243   2.882   2.880   4.526
 2803SOL    MW411244   2.859   2.964   4.520
 2804SOL     OW11245   3.053   0.044   4.576
 2804SOL    HW211246   2.964   0.014   4.560
 2804SOL    HW311247   3.043   0.126   4.623
 2804SOL    MW411248   3.040   0.051   4.580
 2805SOL     OW11249   3.722   4.029   4.832
 2805SOL    HW211250   3.670   4.088   4.777
 2805SOL    HW311251   3.705   4.058   4.921
 2805SOL    MW411252   3.713   4.041   4.836
 2806SOL     OW11253   3.859   3.699   4.470
 2806SOL    HW211254   3.898   3.627   4.519
 2806SOL    HW311255   3.854   3.667   4.380
 2806SOL    MW411256   3.863   3.685   4.465
 2807SOL     OW11257   2.868   3.595   4.474
 2807SOL    HW211258   2.822   3.515   4.497
 2807SOL    HW311259   2.802   3.664   4.480
 2807SOL    MW411260   2.853   3.593   4.478
 2808SOL     OW11261   2.907   4.243   4.506
 2808SOL    HW211262   2.830   4.295   4.530
 2808SOL    HW311263   2.982   4.299   4.527
 2808SOL    MW411264   2.907   4.257   4.512
 2809SOL     OW11265   3.054   0.448   4.395
 2809SOL    HW211266   3.021   0.405   4.474
 2809SOL    HW311267   2.976   0.485   4.354
 2809SOL    MW411268   3.039   0.447   4.400
 2810SOL     OW11269   3.233   0.706   4.902
 2810SOL    HW211270   3.291   0.770   4.941
 2810SOL    HW311271   3.177   0.756   4.844
 2810SOL    MW411272   3.233   0.721   4.900
 2811SOL     OW11273   2.420   0.438   4.498
 2811SOL    HW211274   2.514   0.426   4.509
 2811SOL    HW311275   2.409   0.533   4.492
 2811SOL    MW411276   2.431   0.449   4.499
 2812SOL     OW11277   2.463   1.100   4.597
 2812SOL    HW211278   2.530   1.032   4.604
 2812SOL    HW311279   2.505   1.170   4.548
 2812SOL    MW411280   2.477   1.100   4.591
 2813SOL     OW11281   2.802   4.619   4.535
 2813SOL    HW211282   2.754   4.536   4.527
 2813SOL    HW311283   2.747   4.682   4.488
 2813SOL    MW411284   2.788   4.616   4.527
 2814SOL     OW11285   3.057   0.352   4.654
 2814SOL    HW211286   3.139   0.379   4.696
 2814SOL    HW311287   2.991   0.362   4.722
 2814SOL    MW411288   3.059   0.357   4.668
 2815SOL     OW11289   3.251   1.288   4.765
 2815SOL    HW211290   3.176   1.329   4.722
 2815SOL    HW311291   3.234   1.298   4.858
 2815SOL    MW411292   3.239   1.295   4.771
 2816SOL     OW11293   2.824   1.220   4.523
 2816SOL    HW211294   2.864   1.133   4.535
 2816SOL    HW311295   2.821   1.231   4.428
 2816SOL    MW411296   2.829   1.210   4.512
 2817SOL     OW11297   4.105   0.961   4.550
 2817SOL    HW211298   4.046   0.938   4.478
 2817SOL    HW311299   4.170   0.890   4.551
 2817SOL    MW411300   4.106   0.948   4.540
 2818SOL     OW11301   3.479   1.392   4.578
 2818SOL    HW211302   3.484   1.485   4.559
 2818SOL    HW311303   3.445   1.387   4.667
 2818SOL    MW411304   3.475   1.403   4.587
 2819SOL     OW11305   3.342   1.810   4.642
 2819SOL    HW211306   3.339   1.905   4.631
 2819SOL    HW311307   3.253   1.780   4.624
 2819SOL    MW411308   3.330   1.818   4.638
 2820SOL     OW11309   3.380   2.091   4.555
 2820SOL    HW211310   3.308   2.148   4.583
 2820SOL    HW311311   3.372   2.088   4.459
 2820SOL    MW411312   3.369   2.098   4.546
 2821SOL     OW11313   3.545   1.664   4.521
 2821SOL    HW211314   3.471   1.711   4.560
 2821SOL    HW311315   3.535   1.679   4.427
 2821SOL    MW411316   3.534   1.672   4.514
 2822SOL     OW11317   2.922   2.698   4.546
 2822SOL    HW211318   2.844   2.644   4.556
 2822SOL    HW311319   2.990   2.636   4.516
 2822SOL    MW411320   2.921   2.682   4.543
 2823SOL     OW11321   3.392   2.596   4.482
 2823SOL    HW211322   3.300   2.570   4.479
 2823SOL    HW311323   3.390   2.690   4.500
 2823SOL    MW411324   3.380   2.605   4.484
 2824SOL     OW11325   3.130   2.496   4.455
 2824SOL    HW211326   3.116   2.468   4.364
 2824SOL    HW311327   3.176   2.422   4.496
 2824SOL    MW411328   3.134   2.482   4.448
 2825SOL     OW11329   3.863   3.076   4.603
 2825SOL    HW211330   3.920   3.133   4.551
 2825SOL    HW311331   3.899   2.988   4.590
 2825SOL    MW411332   3.875   3.072   4.595
 2826SOL     OW11333   3.240   3.086   4.667
 2826SOL    HW211334   3.245   3.162   4.609
 2826SOL    HW311335   3.269   3.012   4.613
 2826SOL    MW411336   3.244   3.086   4.652
 2827SOL     OW11337   3.618   3.034   4.482
 2827SOL    HW211338   3.608   3.078   4.398
 2827SOL    HW311339   3.709   3.049   4.506
 2827SOL    MW411340   3.629   3.042   4.474
 2828SOL     OW11341   3.954   2.814   4.512
 2828SOL    HW211342   4.049   2.808   4.514
 2828SOL    HW311343   3.924   2.730   4.546
 2828SOL    MW411344   3.963   2.802   4.517
 2829SOL     OW11345   3.777   3.278   4.798
 2829SOL    HW211346   3.682   3.268   4.790
 2829SOL    HW311347   3.813   3.202   4.751
 2829SOL    MW411348   3.769   3.266   4.791
 2830SOL     OW11349   3.572   4.199   4.673
 2830SOL    HW211350   3.633   4.240   4.612
 2830SOL    HW311351   3.543   4.119   4.628
 2830SOL    MW411352   3.576   4.194   4.659
 2831SOL     OW11353   3.122   4.418   4.559
 2831SOL    HW211354   3.127   4.513   4.574
 2831SOL    HW311355   3.212   4.392   4.541
 2831SOL    MW411356   3.135   4.427   4.558
 2832SOL     OW11357   3.403   0.258   4.544
 2832SOL    HW211358   3.350   0.316   4.599
 2832SOL    HW311359   3.397   0.297   4.457
 2832SOL    MW411360   3.395   0.271   4.540
 2833SOL     OW11361   3.397   4.389   4.534
 2833SOL    HW211362   3.444   4.331   4.595
 2833SOL    HW311363   3.434   4.476   4.552
 2833SOL    MW411364   3.408   4.393   4.545
 2834SOL     OW11365   3.489   3.959   4.545
 2834SOL    HW211366   3.522   3.882   4.592
 2834SOL    HW311367   3.394   3.947   4.545
 2834SOL    MW411368   3.481   3.947   4.551
 2835SOL     OW11369   3.755   0.007   4.627
 2835SOL    HW211370   3.761   0.014   4.722
 2835SOL    HW311371   3.662  -0.011   4.610
 2835SOL    MW411372   3.743   0.006   4.637
 2836SOL     OW11373   3.319   1.023   4.662
 2836SOL    HW211374   3.393   1.025   4.601
 2836SOL    HW311375   3.306   1.115   4.687
 2836SOL    MW411376   3.327   1.035   4.657
 2837SOL     OW11377   2.820   0.338   4.811
 2837SOL    HW211378   2.786   0.364   4.896
 2837SOL    HW311379   2.787   0.249   4.799
 2837SOL    MW411380   2.811   0.329   4.821
 2838SOL     OW11381   4.193   1.542   4.641
 2838SOL    HW211382   4.115   1.488   4.656
 2838SOL    HW311383   4.266   1.488   4.671
 2838SOL    MW411384   4.192   1.528   4.647
 2839SOL     OW11385   3.843   0.938   4.693
 2839SOL    HW211386   3.804   1.008   4.640
 2839SOL    HW311387   3.932   0.930   4.659
 2839SOL    MW411388   3.849   0.946   4.681
 2840SOL     OW11389   4.471   0.873   4.531
 2840SOL    HW211390   4.481   0.869   4.436
 2840SOL    HW311391   4.539   0.815   4.565
 2840SOL    MW411392   4.481   0.865   4.523
 2841SOL     OW11393   4.308   0.471   4.416
 2841SOL    HW211394   4.267   0.476   4.330
 2841SOL    HW311395   4.245   0.423   4.470
 2841SOL    MW411396   4.294   0.465   4.412
 2842SOL     OW11397   3.510   1.655   4.246
 2842SOL    HW211398   3.579   1.594   4.217
 2842SOL    HW311399   3.429   1.606   4.232
 2842SOL    MW411400   3.508   1.640   4.241
 2843SOL     OW11401   3.922   1.560   4.358
 2843SOL    HW211402   3.991   1.619   4.327
 2843SOL    HW311403   3.874   1.611   4.423
 2843SOL    MW411404   3.925   1.575   4.362
 2844SOL     OW11405   3.643   2.214   4.508
 2844SOL    HW211406   3.563   2.168   4.530
 2844SOL    HW311407   3.704   2.146   4.480
 2844SOL    MW411408   3.641   2.199   4.508
 2845SOL     OW11409   3.810   1.749   4.547
 2845SOL    HW211410   3.720   1.722   4.531
 2845SOL    HW311411   3.819   1.747   4.643
 2845SOL    MW411412   3.800   1.745   4.558
 2846SOL     OW11413   0.183   1.796   4.855
 2846SOL    HW211414   0.265   1.825   4.815
 2846SOL    HW311415   0.208   1.768   4.943
 2846SOL    MW411416   0.197   1.796   4.861
 2847SOL     OW11417   3.858   2.005   4.454
 2847SOL    HW211418   3.950   2.017   4.478
 2847SOL    HW311419   3.838   1.915   4.481
 2847SOL    MW411420   3.868   1.995   4.461
 2848SOL     OW11421   3.869   2.566   4.600
 2848SOL    HW211422   3.848   2.573   4.694
 2848SOL    HW311423   3.786   2.540   4.560
 2848SOL    MW411424   3.855   2.563   4.607
 2849SOL     OW11425   4.131   2.506   4.468
 2849SOL    HW211426   4.050   2.524   4.517
 2849SOL    HW311427   4.176   2.590   4.465
 2849SOL    MW411428   4.126   2.519   4.474
 2850SOL     OW11429   4.281   3.124   4.500
 2850SOL    HW211430   4.331   3.201   4.525
 2850SOL    HW311431   4.342   3.051   4.510
 2850SOL    MW411432   4.295   3.124   4.504
 2851SOL     OW11433   3.268   3.288   4.465
 2851SOL    HW211434   3.362   3.303   4.453
 2851SOL    HW311435   3.241   3.239   4.387
 2851SOL    MW411436   3.277   3.283   4.453
 2852SOL     OW11437   4.036   3.222   4.451
 2852SOL    HW211438   4.122   3.182   4.466
 2852SOL    HW311439   4.026   3.221   4.356
 2852SOL    MW411440   4.046   3.216   4.440
 2853SOL     OW11441   3.166   3.579   4.536
 2853SOL    HW211442   3.071   3.585   4.542
 2853SOL    HW311443   3.185   3.486   4.549
 2853SOL    MW411444   3.156   3.568   4.538
 2854SOL     OW11445   4.260   3.554   4.480
 2854SOL    HW211446   4.276   3.550   4.386
 2854SOL    HW311447   4.170   3.522   4.489
 2854SOL    MW411448   4.250   3.549   4.469
 2855SOL     OW11449   0.212   2.794   4.531
 2855SOL    HW211450   0.194   2.808   4.438
 2855SOL    HW311451   0.244   2.879   4.562
 2855SOL    MW411452   0.214   2.807   4.522
 2856SOL     OW11453   4.019   3.920   4.483
 2856SOL    HW211454   3.998   3.958   4.568
 2856SOL    HW311455   3.955   3.850   4.471
 2856SOL    MW411456   4.008   3.916   4.492
 2857SOL     OW11457   3.760   4.382   4.534
 2857SOL    HW211458   3.773   4.357   4.442
 2857SOL    HW311459   3.794   4.472   4.539
 2857SOL    MW411460   3.766   4.391   4.522
 2858SOL     OW11461   3.495   4.654   4.532
 2858SOL    HW211462   3.524   4.643   4.441
 2858SOL    HW311463   3.444   4.735   4.531
 2858SOL    MW411464   3.492   4.663   4.520
 2859SOL     OW11465   3.512   1.028   4.482
 2859SOL    HW211466   3.587   1.074   4.519
 2859SOL    HW311467   3.549   0.950   4.441
 2859SOL    MW411468   3.526   1.024   4.481
 2860SOL     OW11469   3.710   0.689   4.673
 2860SOL    HW211470   3.751   0.771   4.700
 2860SOL    HW311471   3.672   0.707   4.587
 2860SOL    MW411472   3.710   0.702   4.666
 2861SOL     OW11473   0.027   0.349   4.585
 2861SOL    HW211474   0.111   0.393   4.571
 2861SOL    HW311475  -0.034   0.395   4.527
 2861SOL    MW411476   0.030   0.361   4.576
 2862SOL     OW11477   0.280   0.525   4.553
 2862SOL    HW211478   0.373   0.519   4.532
 2862SOL    HW311479   0.236   0.517   4.468
 2862SOL    MW411480   0.286   0.523   4.539
 2863SOL     OW11481   4.101   0.326   4.583
 2863SOL    HW211482   4.042   0.400   4.599
 2863SOL    HW311483   4.043   0.253   4.561
 2863SOL    MW411484   4.086   0.326   4.582
 2864SOL     OW11485   3.712   1.218   4.561
 2864SOL    HW211486   3.638   1.278   4.562
 2864SOL    HW311487   3.787   1.272   4.583
 2864SOL    MW411488   3.712   1.233   4.564
 2865SOL     OW11489   0.029   1.143   4.553
 2865SOL    HW211490   0.123   1.127   4.564
 2865SOL    HW311491  -0.010   1.055   4.548
 2865SOL    MW411492   0.036   1.129   4.554
 2866SOL     OW11493   4.448   1.398   4.677
 2866SOL    HW211494   4.478   1.317   4.635
 2866SOL    HW311495   4.491   1.468   4.628
 2866SOL    MW411496   4.457   1.397   4.665
 2867SOL     OW11497   3.954   1.344   4.552
 2867SOL    HW211498   4.038   1.300   4.565
 2867SOL    HW311499   3.972   1.410   4.485
 2867SOL    MW411500   3.967   1.347   4.545
 2868SOL     OW11501   3.389   2.877   4.488
 2868SOL    HW211502   3.372   2.855   4.397
 2868SOL    HW311503   3.474   2.921   4.487
 2868SOL    MW411504   3.398   2.880   4.476
 2869SOL     OW11505   4.212   2.044   4.204
 2869SOL    HW211506   4.142   1.995   4.160
 2869SOL    HW311507   4.189   2.040   4.297
 2869SOL    MW411508   4.200   2.037   4.210
 2870SOL     OW11509   0.131   2.126   4.495
 2870SOL    HW211510   0.225   2.142   4.504
 2870SOL    HW311511   0.092   2.214   4.494
 2870SOL    MW411512   0.138   2.140   4.496
 2871SOL     OW11513   4.132   2.048   4.488
 2871SOL    HW211514   4.180   1.968   4.506
 2871SOL    HW311515   4.189   2.118   4.519
 2871SOL    MW411516   4.146   2.047   4.494
 2872SOL     OW11517   3.643   2.499   4.458
 2872SOL    HW211518   3.554   2.529   4.443
 2872SOL    HW311519   3.634   2.408   4.485
 2872SOL    MW411520   3.630   2.491   4.460
 2873SOL     OW11521   0.499   2.425   4.685
 2873SOL    HW211522   0.418   2.461   4.649
 2873SOL    HW311523   0.498   2.451   4.777
 2873SOL    MW411524   0.488   2.433   4.692
 2874SOL     OW11525   4.224   2.762   4.484
 2874SOL    HW211526   4.288   2.802   4.543
 2874SOL    HW311527   4.233   2.811   4.403
 2874SOL    MW411528   4.234   2.773   4.481
 2875SOL     OW11529   4.438   2.909   4.588
 2875SOL    HW211530   4.471   2.959   4.663
 2875SOL    HW311531   4.511   2.854   4.561
 2875SOL    MW411532   4.452   2.909   4.594
 2876SOL     OW11533   0.185   3.506   4.559
 2876SOL    HW211534   0.200   3.532   4.468
 2876SOL    HW311535   0.109   3.447   4.555
 2876SOL    MW411536   0.177   3.502   4.546
 2877SOL     OW11537   4.289   0.265   4.772
 2877SOL    HW211538   4.375   0.295   4.741
 2877SOL    HW311539   4.227   0.298   4.707
 2877SOL    MW411540   4.292   0.273   4.759
 2878SOL     OW11541   3.999   0.065   4.530
 2878SOL    HW211542   4.013   0.067   4.435
 2878SOL    HW311543   3.907   0.042   4.540
 2878SOL    MW411544   3.989   0.063   4.519
 2879SOL     OW11545   4.129   3.781   4.821
 2879SOL    HW211546   4.107   3.688   4.818
 2879SOL    HW311547   4.207   3.789   4.767
 2879SOL    MW411548   4.136   3.770   4.813
 2880SOL     OW11549   3.309   0.486   4.717
 2880SOL    HW211550   3.397   0.460   4.744
 2880SOL    HW311551   3.279   0.544   4.788
 2880SOL    MW411552   3.317   0.491   4.730
 2881SOL     OW11553   4.220   4.373   4.246
 2881SOL    HW211554   4.299   4.325   4.224
 2881SOL    HW311555   4.216   4.370   4.342
 2881SOL    MW411556   4.230   4.366   4.256
 2882NA      NA11557   2.711   4.261   0.774
 2883NA      NA11558   0.597   2.323   0.365
   4.49070   4.66690  10.00000
