Gromacs Runs On Most of All Computer Systems in water t= 150.00000 step= 150000
11558
    1RG35     P    1   2.142   2.853   4.462
    1RG35   O1P    2   2.163   2.773   4.343
    1RG35   O2P    3   2.013   2.921   4.468
    1RG35   O5'    4   2.139   2.741   4.577
    1RG35   C5'    5   2.076   2.773   4.706
    1RG35  H5'1    6   1.977   2.817   4.695
    1RG35  H5'2    7   2.136   2.850   4.754
    1RG35   C4'    8   2.059   2.651   4.799
    1RG35   H4'    9   2.017   2.685   4.894
    1RG35   O4'   10   1.963   2.553   4.742
    1RG35   C1'   11   2.028   2.423   4.742
    1RG35   H1'   12   2.012   2.368   4.835
    1RG35    N9   13   1.974   2.342   4.630
    1RG35    C8   14   1.917   2.385   4.510
    1RG35    H8   15   1.917   2.487   4.474
    1RG35    N7   16   1.859   2.286   4.446
    1RG35    C5   17   1.878   2.174   4.530
    1RG35    C6   18   1.816   2.045   4.532
    1RG35    O6   19   1.736   2.000   4.449
    1RG35    N1   20   1.854   1.962   4.635
    1RG35    H1   21   1.841   1.864   4.616
    1RG35    C2   22   1.935   2.002   4.736
    1RG35    N2   23   1.977   1.915   4.821
    1RG35   H21   24   1.947   1.818   4.816
    1RG35   H22   25   2.050   1.942   4.885
    1RG35    N3   26   1.987   2.123   4.743
    1RG35    C4   27   1.949   2.210   4.639
    1RG35   C3'   28   2.188   2.580   4.837
    1RG35   H3'   29   2.280   2.636   4.815
    1RG35   C2'   30   2.171   2.464   4.737
    1RG35  H2'1   31   2.189   2.494   4.634
    1RG35   O2'   32   2.256   2.357   4.770
    1RG35  HO'2   33   2.335   2.377   4.719
    1RG35   O3'   34   2.193   2.540   4.968
    1RG35   H3T   35   2.227   2.449   4.971
    1RG35   O3P   36   2.257   2.935   4.498
    2SOL     OW   37   0.459   0.093   0.447
    2SOL    HW2   38   0.463  -0.002   0.435
    2SOL    HW3   39   0.544   0.125   0.417
    2SOL    MW4   40   0.471   0.085   0.441
    3SOL     OW   41   3.984   0.074   0.507
    3SOL    HW2   42   4.071   0.106   0.481
    3SOL    HW3   43   3.988  -0.021   0.495
    3SOL    MW4   44   3.996   0.066   0.502
    4SOL     OW   45   3.560   0.319   0.447
    4SOL    HW2   46   3.468   0.300   0.431
    4SOL    HW3   47   3.569   0.413   0.426
    4SOL    MW4   48   3.549   0.329   0.442
    5SOL     OW   49   0.131   1.626   0.395
    5SOL    HW2   50   0.061   1.688   0.417
    5SOL    HW3   51   0.085   1.544   0.376
    5SOL    MW4   52   0.116   1.624   0.396
    6SOL     OW   53   1.437   0.747   0.498
    6SOL    HW2   54   1.396   0.791   0.573
    6SOL    HW3   55   1.373   0.755   0.427
    6SOL    MW4   56   1.423   0.754   0.499
    7SOL     OW   57   0.220   0.547   0.451
    7SOL    HW2   58   0.235   0.545   0.546
    7SOL    HW3   59   0.219   0.455   0.425
    7SOL    MW4   60   0.222   0.535   0.460
    8SOL     OW   61   0.487   0.845   0.459
    8SOL    HW2   62   0.497   0.846   0.554
    8SOL    HW3   63   0.481   0.752   0.436
    8SOL    MW4   64   0.487   0.833   0.469
    9SOL     OW   65   0.932   0.803   0.405
    9SOL    HW2   66   0.947   0.818   0.499
    9SOL    HW3   67   0.856   0.857   0.384
    9SOL    MW4   68   0.924   0.812   0.415
   10SOL     OW   69   0.704   0.974   0.358
   10SOL    HW2   70   0.700   0.951   0.265
   10SOL    HW3   71   0.624   0.937   0.396
   10SOL    MW4   72   0.693   0.966   0.351
   11SOL     OW   73   0.543   1.571   0.282
   11SOL    HW2   74   0.499   1.600   0.202
   11SOL    HW3   75   0.523   1.477   0.287
   11SOL    MW4   76   0.534   1.562   0.272
   12SOL     OW   77   4.046   2.130   0.459
   12SOL    HW2   78   3.998   2.070   0.402
   12SOL    HW3   79   4.009   2.116   0.545
   12SOL    MW4   80   4.035   2.120   0.462
   13SOL     OW   81   0.240   1.724   0.162
   13SOL    HW2   82   0.207   1.672   0.235
   13SOL    HW3   83   0.182   1.700   0.088
   13SOL    MW4   84   0.228   1.714   0.162
   14SOL     OW   85   0.402   2.362   0.368
   14SOL    HW2   86   0.412   2.330   0.278
   14SOL    HW3   87   0.333   2.307   0.406
   14SOL    MW4   88   0.394   2.350   0.361
   15SOL     OW   89   0.170   2.702   0.537
   15SOL    HW2   90   0.254   2.719   0.494
   15SOL    HW3   91   0.113   2.772   0.505
   15SOL    MW4   92   0.173   2.714   0.527
   16SOL     OW   93   4.210   3.376   0.557
   16SOL    HW2   94   4.137   3.357   0.616
   16SOL    HW3   95   4.253   3.292   0.544
   16SOL    MW4   96   4.206   3.362   0.563
   17SOL     OW   97   4.442   2.890   0.421
   17SOL    HW2   98   4.440   2.842   0.338
   17SOL    HW3   99   4.354   2.878   0.457
   17SOL    MW4  100   4.430   2.882   0.415
   18SOL     OW  101   0.282   3.465   0.377
   18SOL    HW2  102   0.331   3.397   0.422
   18SOL    HW3  103   0.349   3.521   0.338
   18SOL    MW4  104   0.297   3.464   0.378
   19SOL     OW  105   0.492   3.651   0.360
   19SOL    HW2  106   0.536   3.695   0.287
   19SOL    HW3  107   0.485   3.719   0.427
   19SOL    MW4  108   0.497   3.666   0.359
   20SOL     OW  109   3.929   3.295   0.226
   20SOL    HW2  110   3.944   3.259   0.139
   20SOL    HW3  111   4.011   3.338   0.249
   20SOL    MW4  112   3.942   3.296   0.217
   21SOL     OW  113   4.416   3.831   0.363
   21SOL    HW2  114   4.401   3.772   0.437
   21SOL    HW3  115   4.511   3.848   0.365
   21SOL    MW4  116   4.427   3.826   0.373
   22SOL     OW  117   0.059   4.448   0.390
   22SOL    HW2  118   0.081   4.413   0.304
   22SOL    HW3  119  -0.021   4.400   0.415
   22SOL    MW4  120   0.051   4.437   0.382
   23SOL     OW  121   4.286   4.325   0.512
   23SOL    HW2  122   4.279   4.324   0.608
   23SOL    HW3  123   4.274   4.233   0.487
   23SOL    MW4  124   4.283   4.313   0.522
   24SOL     OW  125   4.263   4.044   0.471
   24SOL    HW2  126   4.305   3.978   0.417
   24SOL    HW3  127   4.183   4.003   0.502
   24SOL    MW4  128   4.258   4.030   0.468
   25SOL     OW  129   0.456   3.297   0.484
   25SOL    HW2  130   0.451   3.267   0.575
   25SOL    HW3  131   0.535   3.349   0.480
   25SOL    MW4  132   0.466   3.300   0.496
   26SOL     OW  133   0.459   4.475   0.480
   26SOL    HW2  134   0.515   4.461   0.557
   26SOL    HW3  135   0.387   4.413   0.492
   26SOL    MW4  136   0.457   4.465   0.492
   27SOL     OW  137   0.217   0.266   0.424
   27SOL    HW2  138   0.143   0.205   0.436
   27SOL    HW3  139   0.293   0.209   0.415
   27SOL    MW4  140   0.217   0.250   0.425
   28SOL     OW  141   4.454   0.613   0.363
   28SOL    HW2  142   4.455   0.622   0.267
   28SOL    HW3  143   4.544   0.587   0.385
   28SOL    MW4  144   4.466   0.611   0.353
   29SOL     OW  145   0.831   4.428   0.513
   29SOL    HW2  146   0.883   4.352   0.539
   29SOL    HW3  147   0.756   4.427   0.573
   29SOL    MW4  148   0.828   4.418   0.525
   30SOL     OW  149   1.234   0.839   0.322
   30SOL    HW2  150   1.140   0.846   0.304
   30SOL    HW3  151   1.262   0.929   0.337
   30SOL    MW4  152   1.225   0.852   0.321
   31SOL     OW  153   0.731   0.416   0.459
   31SOL    HW2  154   0.813   0.458   0.434
   31SOL    HW3  155   0.737   0.327   0.424
   31SOL    MW4  156   0.743   0.410   0.451
   32SOL     OW  157   0.333   1.134   0.467
   32SOL    HW2  158   0.239   1.130   0.445
   32SOL    HW3  159   0.368   1.050   0.438
   32SOL    MW4  160   0.325   1.122   0.461
   33SOL     OW  161   0.528   1.879   0.391
   33SOL    HW2  162   0.605   1.822   0.389
   33SOL    HW3  163   0.457   1.823   0.424
   33SOL    MW4  164   0.529   1.864   0.395
   34SOL     OW  165   0.355   1.989   0.220
   34SOL    HW2  166   0.425   1.949   0.271
   34SOL    HW3  167   0.298   1.917   0.196
   34SOL    MW4  168   0.357   1.974   0.224
   35SOL     OW  169   0.759   2.504   0.294
   35SOL    HW2  170   0.837   2.482   0.244
   35SOL    HW3  171   0.731   2.588   0.259
   35SOL    MW4  172   0.766   2.512   0.283
   36SOL     OW  173   0.734   2.213   0.202
   36SOL    HW2  174   0.821   2.230   0.167
   36SOL    HW3  175   0.732   2.118   0.216
   36SOL    MW4  176   0.745   2.202   0.199
   37SOL     OW  177   3.962   2.393   0.440
   37SOL    HW2  178   3.987   2.301   0.445
   37SOL    HW3  179   4.045   2.441   0.441
   37SOL    MW4  180   3.976   2.387   0.441
   38SOL     OW  181   1.170   2.633   0.319
   38SOL    HW2  182   1.119   2.700   0.364
   38SOL    HW3  183   1.161   2.555   0.373
   38SOL    MW4  184   1.162   2.632   0.332
   39SOL     OW  185   0.631   2.551   0.536
   39SOL    HW2  186   0.698   2.546   0.468
   39SOL    HW3  187   0.555   2.589   0.493
   39SOL    MW4  188   0.630   2.555   0.521
   40SOL     OW  189   4.386   3.192   0.498
   40SOL    HW2  190   4.428   3.249   0.433
   40SOL    HW3  191   4.396   3.104   0.463
   40SOL    MW4  192   4.393   3.188   0.485
   41SOL     OW  193   0.415   2.662   0.411
   41SOL    HW2  194   0.378   2.585   0.369
   41SOL    HW3  195   0.474   2.699   0.346
   41SOL    MW4  196   0.418   2.657   0.397
   42SOL     OW  197   0.950   0.280   0.219
   42SOL    HW2  198   0.947   0.282   0.123
   42SOL    HW3  199   0.946   0.371   0.245
   42SOL    MW4  200   0.949   0.292   0.209
   43SOL     OW  201   0.149   3.619   0.553
   43SOL    HW2  202   0.181   3.708   0.537
   43SOL    HW3  203   0.193   3.566   0.486
   43SOL    MW4  204   0.159   3.624   0.542
   44SOL     OW  205   0.671   3.471   0.444
   44SOL    HW2  206   0.607   3.532   0.406
   44SOL    HW3  207   0.691   3.507   0.530
   44SOL    MW4  208   0.665   3.484   0.450
   45SOL     OW  209   1.156   3.577   0.465
   45SOL    HW2  210   1.079   3.546   0.416
   45SOL    HW3  211   1.208   3.498   0.480
   45SOL    MW4  212   1.153   3.562   0.461
   46SOL     OW  213   0.240   4.299   0.538
   46SOL    HW2  214   0.179   4.346   0.481
   46SOL    HW3  215   0.193   4.221   0.565
   46SOL    MW4  216   0.226   4.295   0.534
   47SOL     OW  217   0.907   3.541   0.323
   47SOL    HW2  218   0.886   3.634   0.329
   47SOL    HW3  219   0.827   3.496   0.350
   47SOL    MW4  220   0.894   3.547   0.328
   48SOL     OW  221   0.650   4.282   0.371
   48SOL    HW2  222   0.717   4.339   0.409
   48SOL    HW3  223   0.573   4.339   0.362
   48SOL    MW4  224   0.649   4.297   0.375
   49SOL     OW  225   0.749   0.148   0.407
   49SOL    HW2  226   0.798   0.097   0.471
   49SOL    HW3  227   0.814   0.174   0.342
   49SOL    MW4  228   0.764   0.145   0.407
   50SOL     OW  229   0.968   0.526   0.365
   50SOL    HW2  230   0.955   0.621   0.367
   50SOL    HW3  231   1.050   0.512   0.414
   50SOL    MW4  232   0.977   0.536   0.372
   51SOL     OW  233   0.515   0.576   0.401
   51SOL    HW2  234   0.429   0.534   0.412
   51SOL    HW3  235   0.578   0.512   0.434
   51SOL    MW4  236   0.512   0.562   0.407
   52SOL     OW  237   1.504   0.485   0.531
   52SOL    HW2  238   1.470   0.573   0.518
   52SOL    HW3  239   1.529   0.482   0.624
   52SOL    MW4  240   1.503   0.496   0.542
   53SOL     OW  241   1.752   0.568   0.455
   53SOL    HW2  242   1.747   0.664   0.446
   53SOL    HW3  243   1.662   0.540   0.466
   53SOL    MW4  244   1.740   0.577   0.455
   54SOL     OW  245   1.701   0.840   0.456
   54SOL    HW2  246   1.611   0.808   0.450
   54SOL    HW3  247   1.719   0.842   0.550
   54SOL    MW4  248   1.692   0.836   0.468
   55SOL     OW  249   0.509   1.319   0.386
   55SOL    HW2  250   0.595   1.287   0.413
   55SOL    HW3  251   0.449   1.246   0.404
   55SOL    MW4  252   0.512   1.305   0.392
   56SOL     OW  253   0.776   1.223   0.467
   56SOL    HW2  254   0.753   1.136   0.437
   56SOL    HW3  255   0.867   1.235   0.440
   56SOL    MW4  256   0.785   1.213   0.460
   57SOL     OW  257   1.278   1.439   0.341
   57SOL    HW2  258   1.254   1.523   0.379
   57SOL    HW3  259   1.369   1.426   0.368
   57SOL    MW4  260   1.287   1.448   0.350
   58SOL     OW  261   1.036   1.323   0.447
   58SOL    HW2  262   1.111   1.347   0.393
   58SOL    HW3  263   0.992   1.407   0.465
   58SOL    MW4  264   1.040   1.338   0.442
   59SOL     OW  265   0.980   1.602   0.494
   59SOL    HW2  266   1.072   1.629   0.494
   59SOL    HW3  267   0.955   1.604   0.586
   59SOL    MW4  268   0.989   1.606   0.506
   60SOL     OW  269   0.249   2.118   0.492
   60SOL    HW2  270   0.165   2.156   0.466
   60SOL    HW3  271   0.274   2.062   0.419
   60SOL    MW4  272   0.241   2.116   0.479
   61SOL     OW  273   0.779   1.715   0.332
   61SOL    HW2  274   0.710   1.654   0.305
   61SOL    HW3  275   0.835   1.662   0.389
   61SOL    MW4  276   0.777   1.700   0.336
   62SOL     OW  277   0.849   2.311   0.528
   62SOL    HW2  278   0.933   2.299   0.483
   62SOL    HW3  279   0.871   2.358   0.608
   62SOL    MW4  280   0.863   2.315   0.533
   63SOL     OW  281   0.643   2.109   0.492
   63SOL    HW2  282   0.732   2.090   0.464
   63SOL    HW3  283   0.596   2.026   0.478
   63SOL    MW4  284   0.648   2.095   0.486
   64SOL     OW  285   1.001   2.433   0.157
   64SOL    HW2  286   1.053   2.513   0.165
   64SOL    HW3  287   1.046   2.370   0.214
   64SOL    MW4  288   1.014   2.435   0.166
   65SOL     OW  289   0.421   2.248   0.113
   65SOL    HW2  290   0.391   2.157   0.119
   65SOL    HW3  291   0.503   2.243   0.063
   65SOL    MW4  292   0.428   2.235   0.107
   66SOL     OW  293   0.616   2.762   0.236
   66SOL    HW2  294   0.606   2.802   0.150
   66SOL    HW3  295   0.664   2.826   0.288
   66SOL    MW4  296   0.621   2.775   0.232
   67SOL     OW  297   0.832   3.168   0.465
   67SOL    HW2  298   0.839   3.168   0.560
   67SOL    HW3  299   0.756   3.224   0.446
   67SOL    MW4  300   0.823   3.175   0.475
   68SOL     OW  301   1.877   3.632   0.334
   68SOL    HW2  302   1.902   3.557   0.389
   68SOL    HW3  303   1.813   3.596   0.272
   68SOL    MW4  304   1.872   3.617   0.333
   69SOL     OW  305   0.703   4.011   0.444
   69SOL    HW2  306   0.666   4.096   0.421
   69SOL    HW3  307   0.739   4.023   0.532
   69SOL    MW4  308   0.703   4.024   0.453
   70SOL     OW  309   0.457   3.892   0.509
   70SOL    HW2  310   0.447   3.917   0.601
   70SOL    HW3  311   0.536   3.937   0.480
   70SOL    MW4  312   0.466   3.901   0.517
   71SOL     OW  313   0.988   4.212   0.576
   71SOL    HW2  314   1.024   4.261   0.650
   71SOL    HW3  315   0.937   4.143   0.616
   71SOL    MW4  316   0.986   4.210   0.591
   72SOL     OW  317   1.178   0.414   0.508
   72SOL    HW2  318   1.154   0.326   0.481
   72SOL    HW3  319   1.272   0.420   0.491
   72SOL    MW4  320   1.187   0.403   0.502
   73SOL     OW  321   0.932   0.012   0.555
   73SOL    HW2  322   0.898  -0.077   0.543
   73SOL    HW3  323   0.921   0.029   0.649
   73SOL    MW4  324   0.926   0.003   0.566
   74SOL     OW  325   1.366   0.079   0.497
   74SOL    HW2  326   1.287   0.107   0.451
   74SOL    HW3  327   1.434   0.138   0.465
   74SOL    MW4  328   1.364   0.090   0.487
   75SOL     OW  329   1.999   4.556   0.146
   75SOL    HW2  330   1.984   4.544   0.052
   75SOL    HW3  331   1.956   4.639   0.166
   75SOL    MW4  332   1.991   4.565   0.136
   76SOL     OW  333   1.111   0.164   0.402
   76SOL    HW2  334   1.054   0.108   0.456
   76SOL    HW3  335   1.053   0.202   0.337
   76SOL    MW4  336   1.096   0.162   0.401
   77SOL     OW  337   2.030   0.484   0.503
   77SOL    HW2  338   1.970   0.532   0.445
   77SOL    HW3  339   2.006   0.392   0.491
   77SOL    MW4  340   2.019   0.479   0.494
   78SOL     OW  341   2.796   0.944   0.473
   78SOL    HW2  342   2.875   0.901   0.441
   78SOL    HW3  343   2.736   0.942   0.398
   78SOL    MW4  344   2.798   0.938   0.459
   79SOL     OW  345   1.538   1.413   0.429
   79SOL    HW2  346   1.557   1.443   0.518
   79SOL    HW3  347   1.579   1.327   0.423
   79SOL    MW4  348   1.546   1.406   0.440
   80SOL     OW  349   1.592   1.098   0.502
   80SOL    HW2  350   1.635   1.034   0.446
   80SOL    HW3  351   1.502   1.103   0.468
   80SOL    MW4  352   1.586   1.090   0.490
   81SOL     OW  353   1.323   1.109   0.401
   81SOL    HW2  354   1.274   1.166   0.342
   81SOL    HW3  355   1.275   1.113   0.484
   81SOL    MW4  356   1.311   1.117   0.404
   82SOL     OW  357   1.238   1.687   0.474
   82SOL    HW2  358   1.253   1.663   0.566
   82SOL    HW3  359   1.293   1.765   0.461
   82SOL    MW4  360   1.247   1.694   0.485
   83SOL     OW  361   1.141   2.317   0.371
   83SOL    HW2  362   1.231   2.344   0.393
   83SOL    HW3  363   1.142   2.222   0.378
   83SOL    MW4  364   1.153   2.308   0.375
   84SOL     OW  365   1.453   2.684   0.289
   84SOL    HW2  366   1.451   2.677   0.193
   84SOL    HW3  367   1.362   2.672   0.315
   84SOL    MW4  368   1.441   2.682   0.279
   85SOL     OW  369   1.868   2.299   0.256
   85SOL    HW2  370   1.924   2.371   0.286
   85SOL    HW3  371   1.919   2.220   0.276
   85SOL    MW4  372   1.882   2.298   0.263
   86SOL     OW  373   1.586   2.050   0.523
   86SOL    HW2  374   1.598   2.136   0.484
   86SOL    HW3  375   1.672   2.008   0.517
   86SOL    MW4  376   1.599   2.056   0.517
   87SOL     OW  377   0.874   1.998   0.352
   87SOL    HW2  378   0.957   2.004   0.399
   87SOL    HW3  379   0.857   1.905   0.345
   87SOL    MW4  380   0.883   1.987   0.357
   88SOL     OW  381   0.768   2.896   0.442
   88SOL    HW2  382   0.732   2.874   0.527
   88SOL    HW3  383   0.789   2.990   0.448
   88SOL    MW4  384   0.766   2.906   0.454
   89SOL     OW  385   2.044   2.490   0.428
   89SOL    HW2  386   2.052   2.584   0.442
   89SOL    HW3  387   2.134   2.458   0.430
   89SOL    MW4  388   2.057   2.498   0.430
   90SOL     OW  389   1.861   0.119   0.261
   90SOL    HW2  390   1.791   0.184   0.262
   90SOL    HW3  391   1.828   0.048   0.316
   90SOL    MW4  392   1.847   0.118   0.268
   91SOL     OW  393   1.321   3.843   0.439
   91SOL    HW2  394   1.261   3.768   0.442
   91SOL    HW3  395   1.264   3.919   0.452
   91SOL    MW4  396   1.305   3.843   0.441
   92SOL     OW  397   1.701   2.731   0.435
   92SOL    HW2  398   1.677   2.784   0.510
   92SOL    HW3  399   1.621   2.726   0.383
   92SOL    MW4  400   1.687   2.737   0.438
   93SOL     OW  401   1.511   3.780   0.208
   93SOL    HW2  402   1.450   3.802   0.278
   93SOL    HW3  403   1.508   3.856   0.149
   93SOL    MW4  404   1.502   3.793   0.209
   94SOL     OW  405   1.117   3.123   0.380
   94SOL    HW2  406   1.125   3.182   0.304
   94SOL    HW3  407   1.034   3.149   0.421
   94SOL    MW4  408   1.107   3.135   0.375
   95SOL     OW  409   2.139   3.752   0.403
   95SOL    HW2  410   2.063   3.703   0.370
   95SOL    HW3  411   2.203   3.685   0.427
   95SOL    MW4  412   2.137   3.736   0.402
   96SOL     OW  413   0.841   3.820   0.296
   96SOL    HW2  414   0.785   3.891   0.326
   96SOL    HW3  415   0.891   3.858   0.224
   96SOL    MW4  416   0.840   3.834   0.290
   97SOL     OW  417   1.818   4.570   0.435
   97SOL    HW2  418   1.740   4.516   0.427
   97SOL    HW3  419   1.890   4.512   0.412
   97SOL    MW4  420   1.817   4.555   0.431
   98SOL     OW  421   1.995   4.591   0.675
   98SOL    HW2  422   1.980   4.502   0.707
   98SOL    HW3  423   1.933   4.602   0.603
   98SOL    MW4  424   1.985   4.581   0.670
   99SOL     OW  425   1.962   0.213   0.508
   99SOL    HW2  426   1.893   0.190   0.571
   99SOL    HW3  427   1.933   0.174   0.426
   99SOL    MW4  428   1.949   0.205   0.506
  100SOL     OW  429   1.229   4.091   0.540
  100SOL    HW2  430   1.156   4.150   0.556
  100SOL    HW3  431   1.303   4.148   0.519
  100SOL    MW4  432   1.229   4.106   0.539
  101SOL     OW  433   2.283   0.610   0.554
  101SOL    HW2  434   2.192   0.583   0.542
  101SOL    HW3  435   2.277   0.687   0.610
  101SOL    MW4  436   2.270   0.617   0.560
  102SOL     OW  437   1.998   2.054   0.289
  102SOL    HW2  438   2.022   2.052   0.196
  102SOL    HW3  439   2.077   2.025   0.334
  102SOL    MW4  440   2.012   2.050   0.282
  103SOL     OW  441   2.424   0.992   0.507
  103SOL    HW2  442   2.497   0.953   0.460
  103SOL    HW3  443   2.436   1.086   0.497
  103SOL    MW4  444   2.435   0.999   0.500
  104SOL     OW  445   2.512   1.266   0.527
  104SOL    HW2  446   2.607   1.263   0.511
  104SOL    HW3  447   2.481   1.339   0.473
  104SOL    MW4  448   2.521   1.275   0.518
  105SOL     OW  449   2.164   1.685   0.479
  105SOL    HW2  450   2.178   1.779   0.476
  105SOL    HW3  451   2.070   1.673   0.465
  105SOL    MW4  452   2.154   1.696   0.477
  106SOL     OW  453   1.814   1.926   0.484
  106SOL    HW2  454   1.868   1.959   0.412
  106SOL    HW3  455   1.863   1.949   0.563
  106SOL    MW4  456   1.828   1.934   0.485
  107SOL     OW  457   1.379   1.920   0.397
  107SOL    HW2  458   1.448   1.962   0.449
  107SOL    HW3  459   1.414   1.917   0.308
  107SOL    MW4  460   1.393   1.925   0.392
  108SOL     OW  461   2.288   2.373   0.496
  108SOL    HW2  462   2.365   2.428   0.481
  108SOL    HW3  463   2.261   2.392   0.586
  108SOL    MW4  464   2.295   2.383   0.506
  109SOL     OW  465   1.784   3.264   0.508
  109SOL    HW2  466   1.714   3.320   0.474
  109SOL    HW3  467   1.859   3.323   0.518
  109SOL    MW4  468   1.785   3.279   0.505
  110SOL     OW  469   1.039   2.838   0.454
  110SOL    HW2  470   1.070   2.915   0.406
  110SOL    HW3  471   0.946   2.855   0.469
  110SOL    MW4  472   1.030   2.851   0.450
  111SOL     OW  473   1.556   3.428   0.412
  111SOL    HW2  474   1.593   3.440   0.325
  111SOL    HW3  475   1.555   3.516   0.449
  111SOL    MW4  476   1.561   3.441   0.405
  112SOL     OW  477   1.133   2.055   0.449
  112SOL    HW2  478   1.134   2.060   0.545
  112SOL    HW3  479   1.201   1.991   0.428
  112SOL    MW4  480   1.142   2.047   0.459
  113SOL     OW  481   3.860   1.964   0.336
  113SOL    HW2  482   3.851   1.869   0.344
  113SOL    HW3  483   3.788   2.000   0.388
  113SOL    MW4  484   3.849   1.956   0.344
  114SOL     OW  485   1.799   2.499   0.551
  114SOL    HW2  486   1.884   2.493   0.506
  114SOL    HW3  487   1.760   2.579   0.516
  114SOL    MW4  488   1.805   2.509   0.540
  115SOL     OW  489   1.394   2.434   0.438
  115SOL    HW2  490   1.464   2.370   0.419
  115SOL    HW3  491   1.424   2.515   0.397
  115SOL    MW4  492   1.408   2.436   0.430
  116SOL     OW  493   1.282   3.342   0.512
  116SOL    HW2  494   1.372   3.357   0.482
  116SOL    HW3  495   1.253   3.264   0.464
  116SOL    MW4  496   1.290   3.334   0.502
  117SOL     OW  497   2.213   3.275   0.504
  117SOL    HW2  498   2.165   3.201   0.464
  117SOL    HW3  499   2.222   3.250   0.596
  117SOL    MW4  500   2.208   3.262   0.511
  118SOL     OW  501   1.716   4.136   0.536
  118SOL    HW2  502   1.721   4.050   0.494
  118SOL    HW3  503   1.802   4.175   0.521
  118SOL    MW4  504   1.728   4.130   0.528
  119SOL     OW  505   1.542   3.682   0.524
  119SOL    HW2  506   1.466   3.739   0.511
  119SOL    HW3  507   1.617   3.739   0.505
  119SOL    MW4  508   1.542   3.697   0.520
  120SOL     OW  509   1.466   4.251   0.549
  120SOL    HW2  510   1.482   4.291   0.635
  120SOL    HW3  511   1.550   4.213   0.524
  120SOL    MW4  512   1.479   4.251   0.557
  121SOL     OW  513   1.539   4.491   0.418
  121SOL    HW2  514   1.480   4.563   0.441
  121SOL    HW3  515   1.489   4.412   0.438
  121SOL    MW4  516   1.525   4.490   0.424
  122SOL     OW  517   2.254   4.580   0.562
  122SOL    HW2  518   2.322   4.528   0.604
  122SOL    HW3  519   2.183   4.583   0.625
  122SOL    MW4  520   2.254   4.574   0.576
  123SOL     OW  521   2.247   0.182   0.532
  123SOL    HW2  522   2.262   0.091   0.507
  123SOL    HW3  523   2.153   0.195   0.522
  123SOL    MW4  524   2.236   0.172   0.527
  124SOL     OW  525   2.907   1.445   0.412
  124SOL    HW2  526   2.839   1.512   0.414
  124SOL    HW3  527   2.868   1.369   0.456
  124SOL    MW4  528   2.893   1.444   0.418
  125SOL     OW  529   3.019   0.826   0.355
  125SOL    HW2  530   3.025   0.731   0.369
  125SOL    HW3  531   3.092   0.862   0.406
  125SOL    MW4  532   3.030   0.818   0.364
  126SOL     OW  533   2.621   0.945   0.256
  126SOL    HW2  534   2.694   0.964   0.197
  126SOL    HW3  535   2.561   0.892   0.204
  126SOL    MW4  536   2.622   0.941   0.241
  127SOL     OW  537   2.783   1.219   0.542
  127SOL    HW2  538   2.797   1.129   0.513
  127SOL    HW3  539   2.821   1.222   0.629
  127SOL    MW4  540   2.790   1.208   0.550
  128SOL     OW  541   2.713   1.644   0.453
  128SOL    HW2  542   2.735   1.735   0.438
  128SOL    HW3  543   2.718   1.634   0.549
  128SOL    MW4  544   2.717   1.654   0.464
  129SOL     OW  545   2.993   1.917   0.477
  129SOL    HW2  546   2.959   1.960   0.556
  129SOL    HW3  547   2.919   1.918   0.417
  129SOL    MW4  548   2.979   1.923   0.480
  130SOL     OW  549   2.975   4.472   0.459
  130SOL    HW2  550   3.008   4.562   0.453
  130SOL    HW3  551   2.981   4.451   0.552
  130SOL    MW4  552   2.980   4.481   0.470
  131SOL     OW  553   2.176   1.967   0.488
  131SOL    HW2  554   2.122   1.980   0.566
  131SOL    HW3  555   2.259   2.011   0.509
  131SOL    MW4  556   2.180   1.974   0.501
  132SOL     OW  557   1.565   1.501   0.685
  132SOL    HW2  558   1.617   1.553   0.747
  132SOL    HW3  559   1.476   1.534   0.695
  132SOL    MW4  560   1.560   1.513   0.694
  133SOL     OW  561   2.408   2.134   0.533
  133SOL    HW2  562   2.373   2.218   0.504
  133SOL    HW3  563   2.497   2.132   0.500
  133SOL    MW4  564   2.415   2.145   0.525
  134SOL     OW  565   2.667   2.168   0.491
  134SOL    HW2  566   2.713   2.241   0.449
  134SOL    HW3  567   2.725   2.142   0.563
  134SOL    MW4  568   2.681   2.174   0.495
  135SOL     OW  569   2.571   2.782   0.533
  135SOL    HW2  570   2.568   2.867   0.489
  135SOL    HW3  571   2.509   2.791   0.606
  135SOL    MW4  572   2.562   2.794   0.537
  136SOL     OW  573   1.629   2.299   0.421
  136SOL    HW2  574   1.701   2.280   0.360
  136SOL    HW3  575   1.664   2.364   0.481
  136SOL    MW4  576   1.643   2.305   0.421
  137SOL     OW  577   1.970   2.803   0.442
  137SOL    HW2  578   1.977   2.798   0.538
  137SOL    HW3  579   1.880   2.778   0.424
  137SOL    MW4  580   1.959   2.799   0.452
  138SOL     OW  581   2.172   4.019   0.475
  138SOL    HW2  582   2.252   4.040   0.429
  138SOL    HW3  583   2.159   3.925   0.459
  138SOL    MW4  584   2.181   4.009   0.467
  139SOL     OW  585   2.471   4.060   0.360
  139SOL    HW2  586   2.453   3.986   0.301
  139SOL    HW3  587   2.537   4.026   0.420
  139SOL    MW4  588   2.477   4.045   0.360
  140SOL     OW  589   1.715   3.861   0.430
  140SOL    HW2  590   1.671   3.866   0.345
  140SOL    HW3  591   1.798   3.817   0.412
  140SOL    MW4  592   1.720   3.856   0.417
  141SOL     OW  593   2.013   3.453   0.547
  141SOL    HW2  594   2.089   3.396   0.537
  141SOL    HW3  595   2.031   3.506   0.625
  141SOL    MW4  596   2.025   3.452   0.556
  142SOL     OW  597   2.091   4.431   0.385
  142SOL    HW2  598   2.145   4.493   0.435
  142SOL    HW3  599   2.067   4.478   0.306
  142SOL    MW4  600   2.095   4.445   0.381
  143SOL     OW  601   1.983   4.214   0.548
  143SOL    HW2  602   2.034   4.133   0.542
  143SOL    HW3  603   2.027   4.276   0.490
  143SOL    MW4  604   1.995   4.211   0.540
  144SOL     OW  605   3.028   0.092   0.463
  144SOL    HW2  606   3.114   0.103   0.421
  144SOL    HW3  607   3.047   0.098   0.557
  144SOL    MW4  608   3.042   0.094   0.470
  145SOL     OW  609   2.388   3.823   0.233
  145SOL    HW2  610   2.312   3.814   0.291
  145SOL    HW3  611   2.432   3.739   0.237
  145SOL    MW4  612   2.384   3.811   0.241
  146SOL     OW  613   2.450   4.324   0.466
  146SOL    HW2  614   2.396   4.370   0.402
  146SOL    HW3  615   2.464   4.237   0.428
  146SOL    MW4  616   2.445   4.318   0.453
  147SOL     OW  617   2.441   0.379   0.515
  147SOL    HW2  618   2.394   0.463   0.517
  147SOL    HW3  619   2.376   0.316   0.484
  147SOL    MW4  620   2.426   0.382   0.511
  148SOL     OW  621   1.595   0.237   0.431
  148SOL    HW2  622   1.564   0.326   0.451
  148SOL    HW3  623   1.639   0.209   0.512
  148SOL    MW4  624   1.597   0.245   0.445
  149SOL     OW  625   3.338   0.626   0.458
  149SOL    HW2  626   3.308   0.716   0.469
  149SOL    HW3  627   3.430   0.633   0.435
  149SOL    MW4  628   3.346   0.638   0.457
  150SOL     OW  629   2.450   1.522   0.420
  150SOL    HW2  630   2.367   1.569   0.422
  150SOL    HW3  631   2.516   1.587   0.443
  150SOL    MW4  632   2.448   1.536   0.423
  151SOL     OW  633   2.876   0.995   0.161
  151SOL    HW2  634   2.921   1.079   0.153
  151SOL    HW3  635   2.920   0.951   0.234
  151SOL    MW4  636   2.888   1.000   0.170
  152SOL     OW  637   3.127   1.664   0.507
  152SOL    HW2  638   3.064   1.593   0.497
  152SOL    HW3  639   3.076   1.744   0.493
  152SOL    MW4  640   3.112   1.665   0.504
  153SOL     OW  641   3.602   1.402   0.149
  153SOL    HW2  642   3.597   1.429   0.057
  153SOL    HW3  643   3.519   1.357   0.165
  153SOL    MW4  644   3.590   1.400   0.139
  154SOL     OW  645   3.762   1.441   0.380
  154SOL    HW2  646   3.727   1.423   0.293
  154SOL    HW3  647   3.684   1.448   0.436
  154SOL    MW4  648   3.747   1.440   0.376
  155SOL     OW  649   2.677   0.160   0.781
  155SOL    HW2  650   2.702   0.240   0.828
  155SOL    HW3  651   2.667   0.188   0.690
  155SOL    MW4  652   2.679   0.174   0.775
  156SOL     OW  653   3.247   2.037   0.622
  156SOL    HW2  654   3.173   2.013   0.566
  156SOL    HW3  655   3.237   1.982   0.700
  156SOL    MW4  656   3.236   2.027   0.625
  157SOL     OW  657   2.770   2.394   0.348
  157SOL    HW2  658   2.848   2.443   0.375
  157SOL    HW3  659   2.796   2.352   0.266
  157SOL    MW4  660   2.784   2.395   0.341
  158SOL     OW  661   2.734   1.931   0.338
  158SOL    HW2  662   2.689   1.945   0.255
  158SOL    HW3  663   2.718   2.012   0.387
  158SOL    MW4  664   2.726   1.943   0.334
  159SOL     OW  665   2.542   2.511   0.496
  159SOL    HW2  666   2.550   2.606   0.505
  159SOL    HW3  667   2.615   2.487   0.439
  159SOL    MW4  668   2.553   2.520   0.490
  160SOL     OW  669   2.670   3.167   0.456
  160SOL    HW2  670   2.736   3.225   0.418
  160SOL    HW3  671   2.686   3.172   0.551
  160SOL    MW4  672   2.681   3.176   0.464
  161SOL     OW  673   2.889   3.319   0.368
  161SOL    HW2  674   2.962   3.284   0.418
  161SOL    HW3  675   2.886   3.412   0.390
  161SOL    MW4  676   2.898   3.326   0.378
  162SOL     OW  677   3.123   3.193   0.473
  162SOL    HW2  678   3.116   3.102   0.445
  162SOL    HW3  679   3.118   3.190   0.568
  162SOL    MW4  680   3.121   3.181   0.482
  163SOL     OW  681   2.437   3.335   0.376
  163SOL    HW2  682   2.494   3.259   0.389
  163SOL    HW3  683   2.353   3.309   0.413
  163SOL    MW4  684   2.433   3.322   0.382
  164SOL     OW  685   1.666   3.557   0.152
  164SOL    HW2  686   1.684   3.546   0.059
  164SOL    HW3  687   1.597   3.623   0.156
  164SOL    MW4  688   1.659   3.564   0.141
  165SOL     OW  689   3.450   3.589   0.304
  165SOL    HW2  690   3.413   3.511   0.344
  165SOL    HW3  691   3.473   3.562   0.215
  165SOL    MW4  692   3.448   3.575   0.298
  166SOL     OW  693   2.642   3.670   0.370
  166SOL    HW2  694   2.553   3.649   0.399
  166SOL    HW3  695   2.656   3.611   0.296
  166SOL    MW4  696   2.632   3.660   0.364
  167SOL     OW  697   2.376   3.595   0.447
  167SOL    HW2  698   2.378   3.596   0.542
  167SOL    HW3  699   2.380   3.502   0.424
  167SOL    MW4  700   2.377   3.583   0.456
  168SOL     OW  701   3.309   3.839   0.364
  168SOL    HW2  702   3.354   3.759   0.338
  168SOL    HW3  703   3.294   3.829   0.458
  168SOL    MW4  704   3.313   3.827   0.373
  169SOL     OW  705   3.190   4.349   0.333
  169SOL    HW2  706   3.157   4.259   0.335
  169SOL    HW3  707   3.122   4.401   0.375
  169SOL    MW4  708   3.177   4.344   0.339
  170SOL     OW  709   3.376   4.576   0.316
  170SOL    HW2  710   3.463   4.541   0.334
  170SOL    HW3  711   3.318   4.500   0.322
  170SOL    MW4  712   3.380   4.561   0.319
  171SOL     OW  713   3.437   4.298   0.480
  171SOL    HW2  714   3.351   4.313   0.441
  171SOL    HW3  715   3.493   4.366   0.443
  171SOL    MW4  716   3.433   4.309   0.470
  172SOL     OW  717   2.773   4.271   0.496
  172SOL    HW2  718   2.842   4.319   0.449
  172SOL    HW3  719   2.807   4.182   0.505
  172SOL    MW4  720   2.787   4.266   0.491
  173SOL     OW  721   2.666   0.224   0.510
  173SOL    HW2  722   2.596   0.288   0.504
  173SOL    HW3  723   2.746   0.275   0.500
  173SOL    MW4  724   2.668   0.239   0.508
  174SOL     OW  725   3.251   0.877   0.490
  174SOL    HW2  726   3.225   0.911   0.575
  174SOL    HW3  727   3.309   0.945   0.454
  174SOL    MW4  728   3.255   0.891   0.496
  175SOL     OW  729   3.084   0.538   0.374
  175SOL    HW2  730   3.085   0.531   0.279
  175SOL    HW3  731   3.174   0.560   0.398
  175SOL    MW4  732   3.096   0.540   0.365
  176SOL     OW  733   3.653   0.959   0.426
  176SOL    HW2  734   3.680   0.887   0.369
  176SOL    HW3  735   3.633   0.917   0.510
  176SOL    MW4  736   3.654   0.944   0.430
  177SOL     OW  737   2.904   0.344   0.507
  177SOL    HW2  738   2.957   0.273   0.472
  177SOL    HW3  739   2.947   0.424   0.475
  177SOL    MW4  740   2.916   0.345   0.498
  178SOL     OW  741   3.476   1.923   0.505
  178SOL    HW2  742   3.448   1.834   0.485
  178SOL    HW3  743   3.396   1.967   0.536
  178SOL    MW4  744   3.462   1.917   0.507
  179SOL     OW  745   3.380   1.650   0.407
  179SOL    HW2  746   3.369   1.590   0.333
  179SOL    HW3  747   3.294   1.654   0.448
  179SOL    MW4  748   3.367   1.643   0.403
  180SOL     OW  749   3.418   1.099   0.427
  180SOL    HW2  750   3.417   1.162   0.499
  180SOL    HW3  751   3.506   1.062   0.430
  180SOL    MW4  752   3.430   1.103   0.437
  181SOL     OW  753   3.862   1.707   0.420
  181SOL    HW2  754   3.834   1.617   0.403
  181SOL    HW3  755   3.809   1.735   0.495
  181SOL    MW4  756   3.851   1.699   0.427
  182SOL     OW  757   3.333   2.297   0.677
  182SOL    HW2  758   3.290   2.212   0.669
  182SOL    HW3  759   3.408   2.281   0.735
  182SOL    MW4  760   3.337   2.284   0.684
  183SOL     OW  761   3.509   2.708   0.661
  183SOL    HW2  762   3.575   2.671   0.720
  183SOL    HW3  763   3.476   2.633   0.611
  183SOL    MW4  764   3.514   2.693   0.662
  184SOL     OW  765   1.989   3.113   0.401
  184SOL    HW2  766   1.904   3.133   0.439
  184SOL    HW3  767   1.994   3.018   0.401
  184SOL    MW4  768   1.979   3.103   0.406
  185SOL     OW  769   3.216   2.614   0.343
  185SOL    HW2  770   3.244   2.603   0.252
  185SOL    HW3  771   3.275   2.558   0.394
  185SOL    MW4  772   3.227   2.605   0.338
  186SOL     OW  773   2.887   2.815   0.795
  186SOL    HW2  774   2.898   2.806   0.700
  186SOL    HW3  775   2.958   2.763   0.832
  186SOL    MW4  776   2.898   2.807   0.787
  187SOL     OW  777   3.287   0.176   0.358
  187SOL    HW2  778   3.324   0.091   0.335
  187SOL    HW3  779   3.314   0.234   0.286
  187SOL    MW4  780   3.296   0.172   0.345
  188SOL     OW  781   2.932   4.037   0.510
  188SOL    HW2  782   2.988   4.061   0.436
  188SOL    HW3  783   2.992   4.014   0.580
  188SOL    MW4  784   2.947   4.037   0.509
  189SOL     OW  785   3.333   3.550   0.655
  189SOL    HW2  786   3.320   3.477   0.594
  189SOL    HW3  787   3.264   3.537   0.721
  189SOL    MW4  788   3.322   3.539   0.656
  190SOL     OW  789   3.632   3.324   0.432
  190SOL    HW2  790   3.706   3.264   0.436
  190SOL    HW3  791   3.672   3.410   0.421
  190SOL    MW4  792   3.647   3.327   0.431
  191SOL     OW  793   3.360   3.366   0.441
  191SOL    HW2  794   3.291   3.302   0.423
  191SOL    HW3  795   3.442   3.317   0.427
  191SOL    MW4  796   3.362   3.351   0.436
  192SOL     OW  797   2.696   3.929   0.507
  192SOL    HW2  798   2.784   3.957   0.483
  192SOL    HW3  799   2.678   3.854   0.450
  192SOL    MW4  800   2.705   3.922   0.496
  193SOL     OW  801   2.693   3.435   0.177
  193SOL    HW2  802   2.615   3.382   0.166
  193SOL    HW3  803   2.754   3.379   0.226
  193SOL    MW4  804   2.691   3.421   0.182
  194SOL     OW  805   4.247   0.178   0.452
  194SOL    HW2  806   4.323   0.120   0.458
  194SOL    HW3  807   4.225   0.179   0.358
  194SOL    MW4  808   4.254   0.170   0.440
  195SOL     OW  809   3.704   0.077   0.448
  195SOL    HW2  810   3.662   0.159   0.425
  195SOL    HW3  811   3.796   0.100   0.463
  195SOL    MW4  812   3.711   0.091   0.447
  196SOL     OW  813   3.608   0.605   0.424
  196SOL    HW2  814   3.679   0.649   0.377
  196SOL    HW3  815   3.651   0.562   0.498
  196SOL    MW4  816   3.623   0.605   0.427
  197SOL     OW  817   3.816   0.753   0.305
  197SOL    HW2  818   3.876   0.710   0.366
  197SOL    HW3  819   3.870   0.816   0.258
  197SOL    MW4  820   3.831   0.756   0.307
  198SOL     OW  821   3.977   0.626   0.490
  198SOL    HW2  822   4.043   0.560   0.468
  198SOL    HW3  823   3.934   0.592   0.569
  198SOL    MW4  824   3.980   0.613   0.498
  199SOL     OW  825   4.414   0.867   0.462
  199SOL    HW2  826   4.320   0.858   0.475
  199SOL    HW3  827   4.442   0.783   0.426
  199SOL    MW4  828   4.406   0.855   0.459
  200SOL     OW  829   3.910   1.024   0.558
  200SOL    HW2  830   3.926   1.113   0.527
  200SOL    HW3  831   3.820   1.004   0.530
  200SOL    MW4  832   3.900   1.033   0.550
  201SOL     OW  833   4.126   1.659   0.452
  201SOL    HW2  834   4.039   1.685   0.421
  201SOL    HW3  835   4.186   1.716   0.404
  201SOL    MW4  836   4.122   1.670   0.441
  202SOL     OW  837   3.945   1.293   0.526
  202SOL    HW2  838   4.034   1.314   0.497
  202SOL    HW3  839   3.889   1.352   0.476
  202SOL    MW4  840   3.950   1.303   0.515
  203SOL     OW  841   3.370   1.280   0.220
  203SOL    HW2  842   3.394   1.224   0.294
  203SOL    HW3  843   3.275   1.270   0.212
  203SOL    MW4  844   3.361   1.271   0.229
  204SOL     OW  845   3.079   1.250   0.270
  204SOL    HW2  846   3.079   1.199   0.351
  204SOL    HW3  847   3.029   1.329   0.291
  204SOL    MW4  848   3.073   1.254   0.283
  205SOL     OW  849   3.691   2.394   0.508
  205SOL    HW2  850   3.783   2.406   0.486
  205SOL    HW3  851   3.679   2.299   0.515
  205SOL    MW4  852   3.701   2.383   0.506
  206SOL     OW  853   4.198   2.806   0.497
  206SOL    HW2  854   4.179   2.713   0.512
  206SOL    HW3  855   4.114   2.844   0.471
  206SOL    MW4  856   4.184   2.799   0.495
  207SOL     OW  857   2.984   2.537   0.460
  207SOL    HW2  858   3.021   2.496   0.538
  207SOL    HW3  859   3.060   2.575   0.414
  207SOL    MW4  860   2.999   2.537   0.464
  208SOL     OW  861   2.882   3.586   0.467
  208SOL    HW2  862   2.934   3.634   0.403
  208SOL    HW3  863   2.793   3.618   0.453
  208SOL    MW4  864   2.877   3.597   0.457
  209SOL     OW  865   3.131   2.881   0.483
  209SOL    HW2  866   3.167   2.827   0.413
  209SOL    HW3  867   3.041   2.851   0.493
  209SOL    MW4  868   3.124   2.870   0.475
  210SOL     OW  869   3.927   2.895   0.462
  210SOL    HW2  870   3.858   2.834   0.436
  210SOL    HW3  871   3.890   2.981   0.441
  210SOL    MW4  872   3.913   2.898   0.456
  211SOL     OW  873   3.710   2.718   0.474
  211SOL    HW2  874   3.724   2.624   0.477
  211SOL    HW3  875   3.633   2.733   0.529
  211SOL    MW4  876   3.702   2.708   0.481
  212SOL     OW  877   3.995   3.662   0.389
  212SOL    HW2  878   3.900   3.648   0.382
  212SOL    HW3  879   4.034   3.587   0.345
  212SOL    MW4  880   3.987   3.650   0.382
  213SOL     OW  881   3.421   2.474   0.493
  213SOL    HW2  882   3.392   2.403   0.550
  213SOL    HW3  883   3.512   2.453   0.472
  213SOL    MW4  884   3.429   2.462   0.498
  214SOL     OW  885   3.048   3.708   0.267
  214SOL    HW2  886   3.126   3.712   0.322
  214SOL    HW3  887   3.081   3.690   0.179
  214SOL    MW4  888   3.062   3.706   0.263
  215SOL     OW  889   4.362   3.600   0.540
  215SOL    HW2  890   4.323   3.513   0.527
  215SOL    HW3  891   4.454   3.582   0.560
  215SOL    MW4  892   4.369   3.586   0.541
  216SOL     OW  893   3.544   4.044   0.455
  216SOL    HW2  894   3.498   4.128   0.453
  216SOL    HW3  895   3.475   3.980   0.469
  216SOL    MW4  896   3.529   4.047   0.456
  217SOL     OW  897   3.806   4.308   0.481
  217SOL    HW2  898   3.804   4.213   0.492
  217SOL    HW3  899   3.789   4.343   0.569
  217SOL    MW4  900   3.803   4.300   0.494
  218SOL     OW  901   0.023   0.052   0.459
  218SOL    HW2  902   0.036  -0.036   0.423
  218SOL    HW3  903   0.039   0.043   0.553
  218SOL    MW4  904   0.026   0.039   0.467
  219SOL     OW  905   4.147   0.856   0.519
  219SOL    HW2  906   4.078   0.922   0.531
  219SOL    HW3  907   4.100   0.779   0.486
  219SOL    MW4  908   4.131   0.855   0.516
  220SOL     OW  909   0.387   1.692   0.507
  220SOL    HW2  910   0.444   1.643   0.449
  220SOL    HW3  911   0.299   1.679   0.471
  220SOL    MW4  912   0.383   1.684   0.495
  221SOL     OW  913   4.209   0.482   0.445
  221SOL    HW2  914   4.243   0.393   0.439
  221SOL    HW3  915   4.285   0.538   0.435
  221SOL    MW4  916   4.223   0.477   0.443
  222SOL     OW  917   0.036   1.144   0.500
  222SOL    HW2  918   0.005   1.055   0.483
  222SOL    HW3  919   0.008   1.163   0.589
  222SOL    MW4  920   0.028   1.135   0.510
  223SOL     OW  921   3.617   4.495   0.383
  223SOL    HW2  922   3.682   4.426   0.400
  223SOL    HW3  923   3.657   4.574   0.418
  223SOL    MW4  924   3.631   4.496   0.390
  224SOL     OW  925   4.208   1.393   0.463
  224SOL    HW2  926   4.239   1.381   0.553
  224SOL    HW3  927   4.184   1.486   0.459
  224SOL    MW4  928   4.209   1.404   0.474
  225SOL     OW  929   0.001   1.382   0.346
  225SOL    HW2  930  -0.088   1.400   0.378
  225SOL    HW3  931   0.012   1.288   0.359
  225SOL    MW4  932  -0.010   1.372   0.352
  226SOL     OW  933   4.257   2.237   0.230
  226SOL    HW2  934   4.163   2.222   0.240
  226SOL    HW3  935   4.266   2.268   0.139
  226SOL    MW4  936   4.246   2.239   0.219
  227SOL     OW  937   4.393   1.794   0.499
  227SOL    HW2  938   4.381   1.887   0.516
  227SOL    HW3  939   4.426   1.758   0.580
  227SOL    MW4  940   4.396   1.802   0.512
  228SOL     OW  941   4.480   2.210   0.406
  228SOL    HW2  942   4.469   2.298   0.442
  228SOL    HW3  943   4.413   2.203   0.337
  228SOL    MW4  944   4.470   2.221   0.401
  229SOL     OW  945   4.297   2.057   0.560
  229SOL    HW2  946   4.213   2.066   0.515
  229SOL    HW3  947   4.357   2.113   0.510
  229SOL    MW4  948   4.294   2.066   0.548
  230SOL     OW  949   0.018   2.452   0.535
  230SOL    HW2  950   0.065   2.534   0.524
  230SOL    HW3  951   0.018   2.436   0.629
  230SOL    MW4  952   0.024   2.461   0.546
  231SOL     OW  953   4.162   3.450   0.288
  231SOL    HW2  954   4.227   3.511   0.253
  231SOL    HW3  955   4.192   3.432   0.377
  231SOL    MW4  956   4.175   3.456   0.295
  232SOL     OW  957   4.188   2.523   0.550
  232SOL    HW2  958   4.142   2.494   0.629
  232SOL    HW3  959   4.270   2.473   0.550
  232SOL    MW4  960   4.193   2.512   0.561
  233SOL     OW  961   0.190   3.884   0.465
  233SOL    HW2  962   0.146   3.952   0.516
  233SOL    HW3  963   0.283   3.905   0.472
  233SOL    MW4  964   0.197   3.896   0.472
  234SOL     OW  965   4.368   3.610   0.198
  234SOL    HW2  966   4.363   3.645   0.109
  234SOL    HW3  967   4.380   3.687   0.253
  234SOL    MW4  968   4.369   3.625   0.193
  235SOL     OW  969   0.017   3.380   0.339
  235SOL    HW2  970  -0.021   3.452   0.289
  235SOL    HW3  971   0.106   3.408   0.359
  235SOL    MW4  972   0.024   3.393   0.335
  236SOL     OW  973   3.725   3.588   0.427
  236SOL    HW2  974   3.632   3.587   0.408
  236SOL    HW3  975   3.730   3.586   0.523
  236SOL    MW4  976   3.714   3.588   0.437
  237SOL     OW  977   3.851   3.166   0.480
  237SOL    HW2  978   3.903   3.210   0.546
  237SOL    HW3  979   3.885   3.198   0.396
  237SOL    MW4  980   3.862   3.176   0.477
  238SOL     OW  981   0.032   4.081   0.595
  238SOL    HW2  982   0.032   4.055   0.687
  238SOL    HW3  983  -0.058   4.064   0.566
  238SOL    MW4  984   0.020   4.075   0.603
  239SOL     OW  985   4.042   3.891   0.563
  239SOL    HW2  986   4.040   3.815   0.505
  239SOL    HW3  987   3.961   3.938   0.544
  239SOL    MW4  988   4.031   3.888   0.553
  240SOL     OW  989   3.792   4.024   0.591
  240SOL    HW2  990   3.767   4.008   0.682
  240SOL    HW3  991   3.709   4.023   0.543
  240SOL    MW4  992   3.778   4.022   0.597
  241SOL     OW  993   4.032   4.467   0.525
  241SOL    HW2  994   4.106   4.406   0.521
  241SOL    HW3  995   3.956   4.414   0.504
  241SOL    MW4  996   4.032   4.452   0.521
  242SOL     OW  997   0.216   0.013   0.868
  242SOL    HW2  998   0.223  -0.077   0.836
  242SOL    HW3  999   0.128   0.041   0.841
  242SOL    MW4 1000   0.205   0.005   0.861
  243SOL     OW 1001   4.463   0.090   0.730
  243SOL    HW2 1002   4.386   0.042   0.759
  243SOL    HW3 1003   4.444   0.182   0.750
  243SOL    MW4 1004   4.450   0.096   0.736
  244SOL     OW 1005   4.450   0.371   0.800
  244SOL    HW2 1006   4.464   0.360   0.894
  244SOL    HW3 1007   4.534   0.406   0.768
  244SOL    MW4 1008   4.463   0.374   0.808
  245SOL     OW 1009   0.218   0.478   0.729
  245SOL    HW2 1010   0.301   0.453   0.768
  245SOL    HW3 1011   0.209   0.571   0.749
  245SOL    MW4 1012   0.227   0.487   0.737
  246SOL     OW 1013   0.229   0.762   0.810
  246SOL    HW2 1014   0.232   0.774   0.905
  246SOL    HW3 1015   0.152   0.812   0.782
  246SOL    MW4 1016   0.219   0.770   0.819
  247SOL     OW 1017   4.488   0.894   0.732
  247SOL    HW2 1018   4.413   0.854   0.777
  247SOL    HW3 1019   4.473   0.873   0.640
  247SOL    MW4 1020   4.476   0.886   0.726
  248SOL     OW 1021   0.031   1.155   0.805
  248SOL    HW2 1022   0.033   1.150   0.900
  248SOL    HW3 1023  -0.002   1.069   0.777
  248SOL    MW4 1024   0.027   1.143   0.814
  249SOL     OW 1025   0.280   1.266   0.731
  249SOL    HW2 1026   0.198   1.220   0.750
  249SOL    HW3 1027   0.307   1.232   0.646
  249SOL    MW4 1028   0.272   1.256   0.722
  250SOL     OW 1029   0.240   1.542   0.800
  250SOL    HW2 1030   0.326   1.585   0.798
  250SOL    HW3 1031   0.258   1.452   0.771
  250SOL    MW4 1032   0.254   1.535   0.796
  251SOL     OW 1033   0.034   1.714   0.738
  251SOL    HW2 1034  -0.034   1.683   0.798
  251SOL    HW3 1035   0.112   1.664   0.761
  251SOL    MW4 1036   0.036   1.704   0.749
  252SOL     OW 1037   0.093   1.955   0.885
  252SOL    HW2 1038   0.146   2.018   0.836
  252SOL    HW3 1039   0.093   1.876   0.831
  252SOL    MW4 1040   0.100   1.953   0.871
  253SOL     OW 1041   0.302   2.102   0.768
  253SOL    HW2 1042   0.279   2.195   0.777
  253SOL    HW3 1043   0.289   2.083   0.675
  253SOL    MW4 1044   0.297   2.112   0.757
  254SOL     OW 1045   0.246   2.366   0.839
  254SOL    HW2 1046   0.263   2.348   0.932
  254SOL    HW3 1047   0.324   2.413   0.810
  254SOL    MW4 1048   0.259   2.370   0.847
  255SOL     OW 1049   4.486   2.478   0.810
  255SOL    HW2 1050   4.426   2.411   0.841
  255SOL    HW3 1051   4.573   2.449   0.839
  255SOL    MW4 1052   4.490   2.466   0.818
  256SOL     OW 1053   4.462   2.735   0.913
  256SOL    HW2 1054   4.458   2.731   1.008
  256SOL    HW3 1055   4.461   2.644   0.885
  256SOL    MW4 1056   4.461   2.723   0.922
  257SOL     OW 1057   0.233   2.790   0.794
  257SOL    HW2 1058   0.150   2.778   0.840
  257SOL    HW3 1059   0.219   2.751   0.708
  257SOL    MW4 1060   0.220   2.783   0.788
  258SOL     OW 1061   0.229   3.067   0.821
  258SOL    HW2 1062   0.246   3.081   0.914
  258SOL    HW3 1063   0.241   2.972   0.809
  258SOL    MW4 1064   0.233   3.056   0.832
  259SOL     OW 1065   0.009   3.220   0.744
  259SOL    HW2 1066   0.082   3.162   0.765
  259SOL    HW3 1067  -0.005   3.209   0.650
  259SOL    MW4 1068   0.017   3.211   0.734
  260SOL     OW 1069   4.449   3.450   0.876
  260SOL    HW2 1070   4.366   3.489   0.849
  260SOL    HW3 1071   4.453   3.367   0.829
  260SOL    MW4 1072   4.438   3.444   0.867
  261SOL     OW 1073   0.198   3.572   0.822
  261SOL    HW2 1074   0.122   3.519   0.848
  261SOL    HW3 1075   0.184   3.590   0.729
  261SOL    MW4 1076   0.186   3.567   0.813
  262SOL     OW 1077   0.204   3.830   0.948
  262SOL    HW2 1078   0.205   3.841   1.043
  262SOL    HW3 1079   0.200   3.736   0.934
  262SOL    MW4 1080   0.204   3.819   0.959
  263SOL     OW 1081   0.005   4.010   0.881
  263SOL    HW2 1082  -0.079   3.967   0.897
  263SOL    HW3 1083   0.070   3.953   0.922
  263SOL    MW4 1084   0.002   3.997   0.889
  264SOL     OW 1085   0.022   4.274   0.919
  264SOL    HW2 1086   0.014   4.288   1.013
  264SOL    HW3 1087   0.014   4.179   0.908
  264SOL    MW4 1088   0.020   4.263   0.930
  265SOL     OW 1089   0.240   4.427   0.790
  265SOL    HW2 1090   0.164   4.394   0.838
  265SOL    HW3 1091   0.226   4.400   0.700
  265SOL    MW4 1092   0.228   4.419   0.785
  266SOL     OW 1093   0.629   4.631   0.845
  266SOL    HW2 1094   0.622   4.637   0.940
  266SOL    HW3 1095   0.558   4.685   0.811
  266SOL    MW4 1096   0.619   4.639   0.853
  267SOL     OW 1097   0.434   0.130   0.733
  267SOL    HW2 1098   0.350   0.088   0.751
  267SOL    HW3 1099   0.436   0.139   0.638
  267SOL    MW4 1100   0.423   0.125   0.723
  268SOL     OW 1101   0.454   0.388   0.859
  268SOL    HW2 1102   0.540   0.402   0.819
  268SOL    HW3 1103   0.430   0.299   0.833
  268SOL    MW4 1104   0.462   0.378   0.850
  269SOL     OW 1105   0.681   0.459   0.738
  269SOL    HW2 1106   0.754   0.424   0.789
  269SOL    HW3 1107   0.702   0.437   0.647
  269SOL    MW4 1108   0.693   0.451   0.733
  270SOL     OW 1109   0.727   0.759   0.803
  270SOL    HW2 1110   0.646   0.803   0.777
  270SOL    HW3 1111   0.708   0.666   0.789
  270SOL    MW4 1112   0.714   0.752   0.797
  271SOL     OW 1113   0.466   0.856   0.733
  271SOL    HW2 1114   0.449   0.941   0.773
  271SOL    HW3 1115   0.385   0.806   0.743
  271SOL    MW4 1116   0.453   0.860   0.739
  272SOL     OW 1117   0.461   1.106   0.831
  272SOL    HW2 1118   0.545   1.143   0.802
  272SOL    HW3 1119   0.396   1.168   0.797
  272SOL    MW4 1120   0.464   1.119   0.822
  273SOL     OW 1121   0.717   1.221   0.762
  273SOL    HW2 1122   0.697   1.309   0.794
  273SOL    HW3 1123   0.736   1.233   0.669
  273SOL    MW4 1124   0.717   1.234   0.754
  274SOL     OW 1125   0.671   1.486   0.836
  274SOL    HW2 1126   0.697   1.491   0.928
  274SOL    HW3 1127   0.615   1.562   0.822
  274SOL    MW4 1128   0.667   1.497   0.846
  275SOL     OW 1129   0.475   1.676   0.775
  275SOL    HW2 1130   0.474   1.765   0.811
  275SOL    HW3 1131   0.435   1.685   0.688
  275SOL    MW4 1132   0.469   1.689   0.768
  276SOL     OW 1133   0.494   1.937   0.877
  276SOL    HW2 1134   0.488   1.920   0.971
  276SOL    HW3 1135   0.427   2.003   0.860
  276SOL    MW4 1136   0.485   1.944   0.887
  277SOL     OW 1137   0.720   2.049   0.768
  277SOL    HW2 1138   0.637   2.017   0.802
  277SOL    HW3 1139   0.702   2.070   0.676
  277SOL    MW4 1140   0.707   2.048   0.760
  278SOL     OW 1141   0.692   2.308   0.868
  278SOL    HW2 1142   0.673   2.294   0.961
  278SOL    HW3 1143   0.696   2.220   0.831
  278SOL    MW4 1144   0.690   2.295   0.875
  279SOL     OW 1145   0.506   2.487   0.792
  279SOL    HW2 1146   0.574   2.434   0.835
  279SOL    HW3 1147   0.541   2.505   0.705
  279SOL    MW4 1148   0.520   2.482   0.787
  280SOL     OW 1149   0.490   2.755   0.889
  280SOL    HW2 1150   0.489   2.660   0.884
  280SOL    HW3 1151   0.406   2.782   0.852
  280SOL    MW4 1152   0.479   2.746   0.883
  281SOL     OW 1153   0.685   2.869   0.722
  281SOL    HW2 1154   0.757   2.813   0.749
  281SOL    HW3 1155   0.610   2.841   0.774
  281SOL    MW4 1156   0.684   2.858   0.732
  282SOL     OW 1157   0.657   3.111   0.870
  282SOL    HW2 1158   0.573   3.148   0.844
  282SOL    HW3 1159   0.669   3.036   0.812
  282SOL    MW4 1160   0.648   3.106   0.859
  283SOL     OW 1161   0.433   3.237   0.747
  283SOL    HW2 1162   0.426   3.313   0.804
  283SOL    HW3 1163   0.357   3.183   0.769
  283SOL    MW4 1164   0.422   3.240   0.758
  284SOL     OW 1165   0.453   3.477   0.868
  284SOL    HW2 1166   0.452   3.492   0.962
  284SOL    HW3 1167   0.366   3.503   0.838
  284SOL    MW4 1168   0.441   3.482   0.876
  285SOL     OW 1169   0.668   3.592   0.692
  285SOL    HW2 1170   0.593   3.551   0.735
  285SOL    HW3 1171   0.666   3.683   0.720
  285SOL    MW4 1172   0.658   3.598   0.701
  286SOL     OW 1173   0.674   3.832   0.838
  286SOL    HW2 1174   0.726   3.904   0.802
  286SOL    HW3 1175   0.584   3.853   0.811
  286SOL    MW4 1176   0.669   3.844   0.829
  287SOL     OW 1177   0.427   3.944   0.791
  287SOL    HW2 1178   0.423   4.038   0.807
  287SOL    HW3 1179   0.350   3.908   0.836
  287SOL    MW4 1180   0.416   3.952   0.799
  288SOL     OW 1181   0.437   4.233   0.827
  288SOL    HW2 1182   0.451   4.232   0.921
  288SOL    HW3 1183   0.365   4.295   0.814
  288SOL    MW4 1184   0.429   4.241   0.837
  289SOL     OW 1185   0.635   4.380   0.714
  289SOL    HW2 1186   0.567   4.330   0.759
  289SOL    HW3 1187   0.633   4.466   0.756
  289SOL    MW4 1188   0.626   4.385   0.725
  290SOL     OW 1189   1.125   4.640   0.874
  290SOL    HW2 1190   1.189   4.685   0.819
  290SOL    HW3 1191   1.041   4.680   0.849
  290SOL    MW4 1192   1.122   4.651   0.863
  291SOL     OW 1193   0.882   0.080   0.821
  291SOL    HW2 1194   0.874   0.172   0.846
  291SOL    HW3 1195   0.791   0.047   0.820
  291SOL    MW4 1196   0.869   0.088   0.824
  292SOL     OW 1197   0.888   0.353   0.897
  292SOL    HW2 1198   0.887   0.383   0.988
  292SOL    HW3 1199   0.967   0.391   0.860
  292SOL    MW4 1200   0.898   0.362   0.904
  293SOL     OW 1201   1.115   0.458   0.766
  293SOL    HW2 1202   1.188   0.414   0.809
  293SOL    HW3 1203   1.140   0.461   0.673
  293SOL    MW4 1204   1.128   0.453   0.759
  294SOL     OW 1205   1.151   0.716   0.851
  294SOL    HW2 1206   1.125   0.735   0.941
  294SOL    HW3 1207   1.131   0.623   0.839
  294SOL    MW4 1208   1.145   0.706   0.861
  295SOL     OW 1209   0.955   0.842   0.675
  295SOL    HW2 1210   1.024   0.793   0.719
  295SOL    HW3 1211   0.874   0.807   0.711
  295SOL    MW4 1212   0.953   0.830   0.685
  296SOL     OW 1213   0.960   1.104   0.817
  296SOL    HW2 1214   0.951   1.013   0.791
  296SOL    HW3 1215   0.879   1.146   0.786
  296SOL    MW4 1216   0.948   1.098   0.810
  297SOL     OW 1217   1.178   1.177   0.653
  297SOL    HW2 1218   1.116   1.114   0.689
  297SOL    HW3 1219   1.127   1.229   0.591
  297SOL    MW4 1220   1.163   1.176   0.649
  298SOL     OW 1221   1.113   1.407   0.847
  298SOL    HW2 1222   1.038   1.451   0.808
  298SOL    HW3 1223   1.104   1.316   0.821
  298SOL    MW4 1224   1.102   1.401   0.838
  299SOL     OW 1225   0.910   1.598   0.776
  299SOL    HW2 1226   0.907   1.686   0.814
  299SOL    HW3 1227   0.823   1.562   0.792
  299SOL    MW4 1228   0.898   1.605   0.783
  300SOL     OW 1229   0.930   1.879   0.863
  300SOL    HW2 1230   0.930   1.900   0.957
  300SOL    HW3 1231   0.852   1.922   0.829
  300SOL    MW4 1232   0.920   1.888   0.871
  301SOL     OW 1233   1.105   2.043   0.732
  301SOL    HW2 1234   1.109   2.130   0.771
  301SOL    HW3 1235   1.031   2.000   0.775
  301SOL    MW4 1236   1.096   2.049   0.743
  302SOL     OW 1237   1.154   2.276   0.869
  302SOL    HW2 1238   1.168   2.286   0.963
  302SOL    HW3 1239   1.214   2.339   0.829
  302SOL    MW4 1240   1.163   2.286   0.876
  303SOL     OW 1241   0.925   2.427   0.783
  303SOL    HW2 1242   1.006   2.385   0.811
  303SOL    HW3 1243   0.856   2.370   0.816
  303SOL    MW4 1244   0.927   2.414   0.791
  304SOL     OW 1245   0.895   2.714   0.816
  304SOL    HW2 1246   0.873   2.718   0.909
  304SOL    HW3 1247   0.912   2.621   0.800
  304SOL    MW4 1248   0.895   2.702   0.826
  305SOL     OW 1249   1.129   2.826   0.727
  305SOL    HW2 1250   1.047   2.802   0.771
  305SOL    HW3 1251   1.107   2.829   0.634
  305SOL    MW4 1252   1.116   2.823   0.721
  306SOL     OW 1253   1.106   3.098   0.809
  306SOL    HW2 1254   1.029   3.132   0.765
  306SOL    HW3 1255   1.117   3.009   0.776
  306SOL    MW4 1256   1.097   3.091   0.799
  307SOL     OW 1257   0.863   3.233   0.739
  307SOL    HW2 1258   0.881   3.322   0.771
  307SOL    HW3 1259   0.789   3.203   0.792
  307SOL    MW4 1260   0.856   3.241   0.750
  308SOL     OW 1261   0.870   3.506   0.866
  308SOL    HW2 1262   0.949   3.536   0.820
  308SOL    HW3 1263   0.798   3.538   0.811
  308SOL    MW4 1264   0.871   3.515   0.853
  309SOL     OW 1265   1.100   3.612   0.739
  309SOL    HW2 1266   1.163   3.561   0.791
  309SOL    HW3 1267   1.137   3.611   0.651
  309SOL    MW4 1268   1.114   3.605   0.735
  310SOL     OW 1269   1.051   3.910   0.837
  310SOL    HW2 1270   1.064   3.902   0.932
  310SOL    HW3 1271   1.054   3.819   0.805
  310SOL    MW4 1272   1.053   3.897   0.845
  311SOL     OW 1273   0.835   4.024   0.716
  311SOL    HW2 1274   0.828   4.101   0.772
  311SOL    HW3 1275   0.905   3.972   0.756
  311SOL    MW4 1276   0.843   4.027   0.729
  312SOL     OW 1277   0.815   4.250   0.890
  312SOL    HW2 1278   0.890   4.308   0.879
  312SOL    HW3 1279   0.748   4.286   0.832
  312SOL    MW4 1280   0.816   4.263   0.881
  313SOL     OW 1281   1.052   4.383   0.787
  313SOL    HW2 1282   1.117   4.332   0.834
  313SOL    HW3 1283   1.078   4.474   0.801
  313SOL    MW4 1284   1.064   4.388   0.795
  314SOL     OW 1285   1.554   4.664   0.828
  314SOL    HW2 1286   1.573   4.677   0.921
  314SOL    HW3 1287   1.464   4.695   0.818
  314SOL    MW4 1288   1.545   4.670   0.839
  315SOL     OW 1289   1.320   0.106   0.749
  315SOL    HW2 1290   1.313   0.196   0.783
  315SOL    HW3 1291   1.331   0.117   0.654
  315SOL    MW4 1292   1.321   0.120   0.741
  316SOL     OW 1293   1.339   0.348   0.852
  316SOL    HW2 1294   1.339   0.361   0.947
  316SOL    HW3 1295   1.425   0.380   0.824
  316SOL    MW4 1296   1.351   0.354   0.861
  317SOL     OW 1297   1.590   0.485   0.802
  317SOL    HW2 1298   1.607   0.568   0.847
  317SOL    HW3 1299   1.666   0.430   0.824
  317SOL    MW4 1300   1.603   0.489   0.811
  318SOL     OW 1301   1.561   0.759   0.886
  318SOL    HW2 1302   1.641   0.802   0.856
  318SOL    HW3 1303   1.491   0.802   0.836
  318SOL    MW4 1304   1.562   0.770   0.875
  319SOL     OW 1305   1.351   0.866   0.747
  319SOL    HW2 1306   1.343   0.955   0.780
  319SOL    HW3 1307   1.287   0.816   0.798
  319SOL    MW4 1308   1.341   0.871   0.758
  320SOL     OW 1309   1.346   1.104   0.874
  320SOL    HW2 1310   1.422   1.147   0.836
  320SOL    HW3 1311   1.275   1.122   0.812
  320SOL    MW4 1312   1.346   1.112   0.861
  321SOL     OW 1313   1.579   1.202   0.772
  321SOL    HW2 1314   1.569   1.296   0.756
  321SOL    HW3 1315   1.565   1.162   0.686
  321SOL    MW4 1316   1.576   1.209   0.758
  322SOL     OW 1317   1.708   1.647   0.881
  322SOL    HW2 1318   1.676   1.619   0.967
  322SOL    HW3 1319   1.795   1.607   0.874
  322SOL    MW4 1320   1.715   1.638   0.892
  323SOL     OW 1321   1.308   1.576   0.745
  323SOL    HW2 1322   1.297   1.655   0.799
  323SOL    HW3 1323   1.238   1.518   0.773
  323SOL    MW4 1324   1.298   1.579   0.756
  324SOL     OW 1325   1.287   1.856   0.820
  324SOL    HW2 1326   1.297   1.874   0.914
  324SOL    HW3 1327   1.221   1.919   0.791
  324SOL    MW4 1328   1.279   1.867   0.828
  325SOL     OW 1329   1.512   2.028   0.790
  325SOL    HW2 1330   1.434   1.973   0.794
  325SOL    HW3 1331   1.532   2.034   0.696
  325SOL    MW4 1332   1.504   2.021   0.778
  326SOL     OW 1333   1.530   2.323   0.837
  326SOL    HW2 1334   1.477   2.363   0.767
  326SOL    HW3 1335   1.512   2.230   0.829
  326SOL    MW4 1336   1.521   2.316   0.826
  327SOL     OW 1337   1.311   2.446   0.714
  327SOL    HW2 1338   1.314   2.540   0.735
  327SOL    HW3 1339   1.333   2.443   0.620
  327SOL    MW4 1340   1.314   2.458   0.704
  328SOL     OW 1341   1.377   2.724   0.806
  328SOL    HW2 1342   1.376   2.718   0.902
  328SOL    HW3 1343   1.300   2.775   0.784
  328SOL    MW4 1344   1.367   2.730   0.816
  329SOL     OW 1345   1.601   2.840   0.675
  329SOL    HW2 1346   1.582   2.926   0.711
  329SOL    HW3 1347   1.534   2.783   0.713
  329SOL    MW4 1348   1.590   2.844   0.685
  330SOL     OW 1349   1.526   3.074   0.805
  330SOL    HW2 1350   1.538   3.068   0.899
  330SOL    HW3 1351   1.447   3.127   0.794
  330SOL    MW4 1352   1.517   3.080   0.816
  331SOL     OW 1353   1.321   3.247   0.764
  331SOL    HW2 1354   1.240   3.205   0.794
  331SOL    HW3 1355   1.306   3.265   0.672
  331SOL    MW4 1356   1.308   3.244   0.756
  332SOL     OW 1357   1.300   3.500   0.887
  332SOL    HW2 1358   1.384   3.545   0.874
  332SOL    HW3 1359   1.313   3.414   0.849
  332SOL    MW4 1360   1.313   3.495   0.880
  333SOL     OW 1361   1.535   3.661   0.805
  333SOL    HW2 1362   1.626   3.638   0.825
  333SOL    HW3 1363   1.530   3.661   0.710
  333SOL    MW4 1364   1.546   3.658   0.795
  334SOL     OW 1365   1.546   3.908   0.908
  334SOL    HW2 1366   1.464   3.946   0.874
  334SOL    HW3 1367   1.542   3.817   0.880
  334SOL    MW4 1368   1.534   3.901   0.900
  335SOL     OW 1369   1.309   4.013   0.792
  335SOL    HW2 1370   1.237   3.954   0.816
  335SOL    HW3 1371   1.290   4.040   0.702
  335SOL    MW4 1372   1.297   4.009   0.783
  336SOL     OW 1373   1.246   4.249   0.915
  336SOL    HW2 1374   1.313   4.307   0.882
  336SOL    HW3 1375   1.260   4.166   0.868
  336SOL    MW4 1376   1.256   4.246   0.905
  337SOL     OW 1377   1.482   4.374   0.806
  337SOL    HW2 1378   1.567   4.345   0.840
  337SOL    HW3 1379   1.485   4.470   0.813
  337SOL    MW4 1380   1.494   4.383   0.812
  338SOL     OW 1381   1.988   0.091   0.884
  338SOL    HW2 1382   2.081   0.115   0.883
  338SOL    HW3 1383   1.978   0.030   0.811
  338SOL    MW4 1384   1.999   0.086   0.874
  339SOL     OW 1385   1.726   0.142   0.655
  339SOL    HW2 1386   1.667   0.077   0.692
  339SOL    HW3 1387   1.724   0.215   0.716
  339SOL    MW4 1388   1.718   0.143   0.668
  340SOL     OW 1389   1.823   0.317   0.861
  340SOL    HW2 1390   1.871   0.234   0.862
  340SOL    HW3 1391   1.891   0.384   0.852
  340SOL    MW4 1392   1.838   0.315   0.860
  341SOL     OW 1393   2.027   0.507   0.790
  341SOL    HW2 1394   2.024   0.502   0.694
  341SOL    HW3 1395   2.114   0.475   0.812
  341SOL    MW4 1396   2.038   0.502   0.780
  342SOL     OW 1397   2.036   0.778   0.850
  342SOL    HW2 1398   2.113   0.813   0.806
  342SOL    HW3 1399   2.040   0.683   0.833
  342SOL    MW4 1400   2.047   0.770   0.842
  343SOL     OW 1401   1.787   0.872   0.728
  343SOL    HW2 1402   1.816   0.962   0.743
  343SOL    HW3 1403   1.857   0.818   0.765
  343SOL    MW4 1404   1.800   0.877   0.735
  344SOL     OW 1405   1.828   1.220   0.866
  344SOL    HW2 1406   1.884   1.200   0.791
  344SOL    HW3 1407   1.739   1.209   0.834
  344SOL    MW4 1408   1.824   1.216   0.852
  345SOL     OW 1409   1.997   1.160   0.670
  345SOL    HW2 1410   2.079   1.149   0.718
  345SOL    HW3 1411   2.017   1.130   0.581
  345SOL    MW4 1412   2.011   1.155   0.664
  346SOL     OW 1413   1.963   1.514   0.895
  346SOL    HW2 1414   2.043   1.529   0.845
  346SOL    HW3 1415   1.940   1.423   0.879
  346SOL    MW4 1416   1.971   1.504   0.886
  347SOL     OW 1417   1.862   1.651   0.419
  347SOL    HW2 1418   1.833   1.729   0.467
  347SOL    HW3 1419   1.782   1.601   0.405
  347SOL    MW4 1420   1.848   1.655   0.424
  348SOL     OW 1421   1.760   1.915   0.842
  348SOL    HW2 1422   1.729   1.824   0.845
  348SOL    HW3 1423   1.680   1.967   0.840
  348SOL    MW4 1424   1.745   1.910   0.842
  349SOL     OW 1425   1.977   2.011   0.690
  349SOL    HW2 1426   1.990   2.104   0.712
  349SOL    HW3 1427   1.901   1.985   0.742
  349SOL    MW4 1428   1.969   2.020   0.700
  350SOL     OW 1429   1.995   2.276   0.838
  350SOL    HW2 1430   2.017   2.263   0.930
  350SOL    HW3 1431   1.932   2.348   0.838
  350SOL    MW4 1432   1.990   2.284   0.850
  351SOL     OW 1433   1.776   2.459   0.817
  351SOL    HW2 1434   1.695   2.412   0.839
  351SOL    HW3 1435   1.779   2.459   0.722
  351SOL    MW4 1436   1.766   2.453   0.807
  352SOL     OW 1437   1.757   2.733   0.888
  352SOL    HW2 1438   1.746   2.640   0.868
  352SOL    HW3 1439   1.696   2.777   0.828
  352SOL    MW4 1440   1.747   2.726   0.877
  353SOL     OW 1441   1.971   2.810   0.725
  353SOL    HW2 1442   2.044   2.764   0.766
  353SOL    HW3 1443   1.893   2.775   0.768
  353SOL    MW4 1444   1.970   2.799   0.736
  354SOL     OW 1445   1.975   3.066   0.839
  354SOL    HW2 1446   1.903   3.118   0.804
  354SOL    HW3 1447   1.965   2.981   0.797
  354SOL    MW4 1448   1.964   3.061   0.829
  355SOL     OW 1449   1.749   3.238   0.792
  355SOL    HW2 1450   1.668   3.188   0.804
  355SOL    HW3 1451   1.756   3.250   0.698
  355SOL    MW4 1452   1.740   3.233   0.781
  356SOL     OW 1453   1.780   3.504   0.872
  356SOL    HW2 1454   1.778   3.512   0.967
  356SOL    HW3 1455   1.764   3.412   0.854
  356SOL    MW4 1456   1.778   3.493   0.882
  357SOL     OW 1457   2.024   3.615   0.785
  357SOL    HW2 1458   2.023   3.705   0.818
  357SOL    HW3 1459   1.938   3.580   0.806
  357SOL    MW4 1460   2.013   3.623   0.793
  358SOL     OW 1461   2.023   3.891   0.865
  358SOL    HW2 1462   2.031   3.894   0.960
  358SOL    HW3 1463   1.951   3.950   0.844
  358SOL    MW4 1464   2.015   3.899   0.875
  359SOL     OW 1465   1.777   4.025   0.793
  359SOL    HW2 1466   1.698   3.985   0.829
  359SOL    HW3 1467   1.751   4.054   0.706
  359SOL    MW4 1468   1.763   4.024   0.786
  360SOL     OW 1469   1.729   4.284   0.898
  360SOL    HW2 1470   1.748   4.283   0.992
  360SOL    HW3 1471   1.726   4.191   0.873
  360SOL    MW4 1472   1.731   4.271   0.907
  361SOL     OW 1473   1.976   4.347   0.788
  361SOL    HW2 1474   1.896   4.334   0.840
  361SOL    HW3 1475   1.965   4.288   0.713
  361SOL    MW4 1476   1.964   4.338   0.785
  362SOL     OW 1477   2.459   0.014   0.892
  362SOL    HW2 1478   2.477  -0.009   0.983
  362SOL    HW3 1479   2.542   0.045   0.857
  362SOL    MW4 1480   2.472   0.015   0.899
  363SOL     OW 1481   2.254   0.183   0.820
  363SOL    HW2 1482   2.320   0.122   0.854
  363SOL    HW3 1483   2.264   0.181   0.725
  363SOL    MW4 1484   2.264   0.175   0.812
  364SOL     OW 1485   2.283   0.445   0.908
  364SOL    HW2 1486   2.360   0.482   0.866
  364SOL    HW3 1487   2.281   0.354   0.880
  364SOL    MW4 1488   2.293   0.438   0.899
  365SOL     OW 1489   2.520   0.505   0.765
  365SOL    HW2 1490   2.508   0.453   0.686
  365SOL    HW3 1491   2.607   0.480   0.797
  365SOL    MW4 1492   2.530   0.495   0.759
  366SOL     OW 1493   2.520   0.775   0.870
  366SOL    HW2 1494   2.589   0.825   0.827
  366SOL    HW3 1495   2.526   0.688   0.831
  366SOL    MW4 1496   2.530   0.770   0.859
  367SOL     OW 1497   2.290   0.864   0.707
  367SOL    HW2 1498   2.375   0.852   0.749
  367SOL    HW3 1499   2.310   0.909   0.625
  367SOL    MW4 1500   2.304   0.868   0.702
  368SOL     OW 1501   2.217   1.098   0.826
  368SOL    HW2 1502   2.226   1.085   0.920
  368SOL    HW3 1503   2.254   1.020   0.786
  368SOL    MW4 1504   2.223   1.086   0.833
  369SOL     OW 1505   2.474   1.250   0.795
  369SOL    HW2 1506   2.387   1.211   0.808
  369SOL    HW3 1507   2.484   1.254   0.700
  369SOL    MW4 1508   2.464   1.245   0.784
  370SOL     OW 1509   2.445   1.532   0.804
  370SOL    HW2 1510   2.515   1.564   0.746
  370SOL    HW3 1511   2.445   1.437   0.790
  370SOL    MW4 1512   2.454   1.524   0.794
  371SOL     OW 1513   2.174   1.633   0.761
  371SOL    HW2 1514   2.261   1.594   0.773
  371SOL    HW3 1515   2.160   1.629   0.666
  371SOL    MW4 1516   2.184   1.627   0.750
  372SOL     OW 1517   2.199   1.904   0.848
  372SOL    HW2 1518   2.184   1.814   0.818
  372SOL    HW3 1519   2.126   1.954   0.811
  372SOL    MW4 1520   2.187   1.899   0.839
  373SOL     OW 1521   2.445   2.029   0.799
  373SOL    HW2 1522   2.358   1.998   0.821
  373SOL    HW3 1523   2.436   2.068   0.712
  373SOL    MW4 1524   2.432   2.030   0.790
  374SOL     OW 1525   2.449   2.319   0.895
  374SOL    HW2 1526   2.526   2.363   0.860
  374SOL    HW3 1527   2.460   2.227   0.870
  374SOL    MW4 1528   2.460   2.313   0.887
  375SOL     OW 1529   2.222   2.407   0.767
  375SOL    HW2 1530   2.303   2.366   0.796
  375SOL    HW3 1531   2.154   2.342   0.784
  375SOL    MW4 1532   2.223   2.393   0.773
  376SOL     OW 1533   2.193   2.679   0.828
  376SOL    HW2 1534   2.210   2.688   0.922
  376SOL    HW3 1535   2.186   2.584   0.814
  376SOL    MW4 1536   2.194   2.668   0.839
  377SOL     OW 1537   2.434   2.840   0.774
  377SOL    HW2 1538   2.508   2.791   0.812
  377SOL    HW3 1539   2.358   2.784   0.789
  377SOL    MW4 1540   2.434   2.826   0.781
  378SOL     OW 1541   2.434   3.116   0.875
  378SOL    HW2 1542   2.466   3.099   0.964
  378SOL    HW3 1543   2.415   3.029   0.839
  378SOL    MW4 1544   2.436   3.103   0.882
  379SOL     OW 1545   2.187   3.234   0.786
  379SOL    HW2 1546   2.107   3.182   0.795
  379SOL    HW3 1547   2.256   3.178   0.822
  379SOL    MW4 1548   2.185   3.220   0.792
  380SOL     OW 1549   2.264   3.490   0.851
  380SOL    HW2 1550   2.239   3.406   0.814
  380SOL    HW3 1551   2.184   3.542   0.850
  380SOL    MW4 1552   2.251   3.486   0.846
  381SOL     OW 1553   2.475   3.645   0.721
  381SOL    HW2 1554   2.553   3.589   0.729
  381SOL    HW3 1555   2.405   3.593   0.761
  381SOL    MW4 1556   2.476   3.631   0.727
  382SOL     OW 1557   2.457   3.868   0.870
  382SOL    HW2 1558   2.389   3.908   0.816
  382SOL    HW3 1559   2.486   3.792   0.820
  382SOL    MW4 1560   2.451   3.863   0.857
  383SOL     OW 1561   2.245   3.994   0.742
  383SOL    HW2 1562   2.170   3.952   0.784
  383SOL    HW3 1563   2.219   4.003   0.650
  383SOL    MW4 1564   2.232   3.990   0.736
  384SOL     OW 1565   2.229   4.264   0.842
  384SOL    HW2 1566   2.231   4.171   0.820
  384SOL    HW3 1567   2.139   4.291   0.827
  384SOL    MW4 1568   2.218   4.255   0.837
  385SOL     OW 1569   2.420   4.453   0.754
  385SOL    HW2 1570   2.441   4.513   0.825
  385SOL    HW3 1571   2.350   4.398   0.790
  385SOL    MW4 1572   2.413   4.453   0.768
  386SOL     OW 1573   2.918   0.001   0.868
  386SOL    HW2 1574   2.919  -0.091   0.844
  386SOL    HW3 1575   2.839   0.036   0.825
  386SOL    MW4 1576   2.907  -0.006   0.860
  387SOL     OW 1577   2.719   4.588   0.546
  387SOL    HW2 1578   2.802   4.585   0.500
  387SOL    HW3 1579   2.705   4.681   0.565
  387SOL    MW4 1580   2.728   4.599   0.543
  388SOL     OW 1581   2.745   0.410   0.908
  388SOL    HW2 1582   2.738   0.404   1.004
  388SOL    HW3 1583   2.833   0.444   0.893
  388SOL    MW4 1584   2.756   0.414   0.919
  389SOL     OW 1585   2.967   0.490   0.727
  389SOL    HW2 1586   3.041   0.448   0.771
  389SOL    HW3 1587   2.943   0.429   0.657
  389SOL    MW4 1588   2.973   0.476   0.724
  390SOL     OW 1589   2.937   0.769   0.809
  390SOL    HW2 1590   2.943   0.757   0.904
  390SOL    HW3 1591   2.943   0.681   0.773
  390SOL    MW4 1592   2.939   0.756   0.817
  391SOL     OW 1593   2.716   0.935   0.745
  391SOL    HW2 1594   2.789   0.881   0.775
  391SOL    HW3 1595   2.732   0.948   0.652
  391SOL    MW4 1596   2.728   0.930   0.737
  392SOL     OW 1597   2.668   1.140   0.940
  392SOL    HW2 1598   2.673   1.066   0.880
  392SOL    HW3 1599   2.593   1.191   0.909
  392SOL    MW4 1600   2.659   1.137   0.928
  393SOL     OW 1601   2.902   1.262   0.807
  393SOL    HW2 1602   2.983   1.215   0.827
  393SOL    HW3 1603   2.836   1.222   0.864
  393SOL    MW4 1604   2.904   1.250   0.817
  394SOL     OW 1605   2.907   1.524   0.872
  394SOL    HW2 1606   2.989   1.559   0.837
  394SOL    HW3 1607   2.911   1.430   0.852
  394SOL    MW4 1608   2.918   1.516   0.864
  395SOL     OW 1609   2.704   1.634   0.720
  395SOL    HW2 1610   2.680   1.718   0.759
  395SOL    HW3 1611   2.751   1.588   0.790
  395SOL    MW4 1612   2.707   1.639   0.735
  396SOL     OW 1613   2.666   1.885   0.830
  396SOL    HW2 1614   2.695   1.888   0.921
  396SOL    HW3 1615   2.578   1.923   0.832
  396SOL    MW4 1616   2.658   1.890   0.842
  397SOL     OW 1617   2.845   2.074   0.667
  397SOL    HW2 1618   2.881   2.139   0.727
  397SOL    HW3 1619   2.788   2.020   0.722
  397SOL    MW4 1620   2.842   2.075   0.682
  398SOL     OW 1621   2.917   2.296   0.828
  398SOL    HW2 1622   2.927   2.290   0.923
  398SOL    HW3 1623   2.831   2.335   0.815
  398SOL    MW4 1624   2.907   2.301   0.839
  399SOL     OW 1625   2.659   2.432   0.774
  399SOL    HW2 1626   2.625   2.459   0.689
  399SOL    HW3 1627   2.652   2.511   0.828
  399SOL    MW4 1628   2.653   2.446   0.770
  400SOL     OW 1629   2.642   2.689   0.894
  400SOL    HW2 1630   2.653   2.713   0.986
  400SOL    HW3 1631   2.723   2.718   0.852
  400SOL    MW4 1632   2.654   2.696   0.901
  401SOL     OW 1633   2.859   2.774   0.517
  401SOL    HW2 1634   2.877   2.683   0.495
  401SOL    HW3 1635   2.764   2.781   0.514
  401SOL    MW4 1636   2.849   2.763   0.514
  402SOL     OW 1637   2.894   3.084   0.874
  402SOL    HW2 1638   2.814   3.123   0.838
  402SOL    HW3 1639   2.899   2.998   0.833
  402SOL    MW4 1640   2.884   3.078   0.864
  403SOL     OW 1641   2.673   3.203   0.739
  403SOL    HW2 1642   2.666   3.295   0.765
  403SOL    HW3 1643   2.592   3.164   0.771
  403SOL    MW4 1644   2.661   3.210   0.746
  404SOL     OW 1645   2.675   3.467   0.805
  404SOL    HW2 1646   2.678   3.464   0.901
  404SOL    HW3 1647   2.752   3.519   0.781
  404SOL    MW4 1648   2.686   3.474   0.815
  405SOL     OW 1649   2.886   3.608   0.744
  405SOL    HW2 1650   2.870   3.699   0.772
  405SOL    HW3 1651   2.894   3.613   0.649
  405SOL    MW4 1652   2.885   3.621   0.735
  406SOL     OW 1653   2.883   3.859   0.837
  406SOL    HW2 1654   2.897   3.854   0.931
  406SOL    HW3 1655   2.807   3.916   0.826
  406SOL    MW4 1656   2.875   3.866   0.848
  407SOL     OW 1657   2.667   4.028   0.765
  407SOL    HW2 1658   2.590   3.980   0.795
  407SOL    HW3 1659   2.681   3.998   0.675
  407SOL    MW4 1660   2.659   4.018   0.757
  408SOL     OW 1661   2.684   4.293   0.813
  408SOL    HW2 1662   2.693   4.307   0.907
  408SOL    HW3 1663   2.679   4.198   0.802
  408SOL    MW4 1664   2.684   4.283   0.824
  409SOL     OW 1665   2.939   4.428   0.748
  409SOL    HW2 1666   3.003   4.363   0.778
  409SOL    HW3 1667   2.855   4.385   0.758
  409SOL    MW4 1668   2.937   4.414   0.753
  410SOL     OW 1669   3.351   4.632   0.812
  410SOL    HW2 1670   3.340   4.654   0.904
  410SOL    HW3 1671   3.280   4.679   0.767
  410SOL    MW4 1672   3.340   4.641   0.818
  411SOL     OW 1673   3.122   0.106   0.720
  411SOL    HW2 1674   3.151   0.191   0.754
  411SOL    HW3 1675   3.050   0.080   0.777
  411SOL    MW4 1676   3.116   0.114   0.732
  412SOL     OW 1677   3.170   0.352   0.847
  412SOL    HW2 1678   3.173   0.359   0.943
  412SOL    HW3 1679   3.236   0.413   0.817
  412SOL    MW4 1680   3.179   0.361   0.856
  413SOL     OW 1681   3.327   0.559   0.745
  413SOL    HW2 1682   3.413   0.518   0.750
  413SOL    HW3 1683   3.315   0.580   0.653
  413SOL    MW4 1684   3.336   0.556   0.734
  414SOL     OW 1685   3.398   0.825   0.851
  414SOL    HW2 1686   3.322   0.872   0.817
  414SOL    HW3 1687   3.386   0.735   0.821
  414SOL    MW4 1688   3.387   0.819   0.843
  415SOL     OW 1689   3.164   0.916   0.750
  415SOL    HW2 1690   3.159   0.999   0.796
  415SOL    HW3 1691   3.078   0.876   0.763
  415SOL    MW4 1692   3.152   0.922   0.757
  416SOL     OW 1693   3.156   1.161   0.865
  416SOL    HW2 1694   3.144   1.171   0.959
  416SOL    HW3 1695   3.235   1.212   0.845
  416SOL    MW4 1696   3.165   1.169   0.875
  417SOL     OW 1697   3.469   1.280   0.632
  417SOL    HW2 1698   3.530   1.237   0.692
  417SOL    HW3 1699   3.518   1.354   0.597
  417SOL    MW4 1700   3.484   1.284   0.635
  418SOL     OW 1701   3.317   1.415   0.839
  418SOL    HW2 1702   3.361   1.464   0.909
  418SOL    HW3 1703   3.388   1.380   0.786
  418SOL    MW4 1704   3.332   1.417   0.842
  419SOL     OW 1705   3.143   1.640   0.770
  419SOL    HW2 1706   3.220   1.586   0.784
  419SOL    HW3 1707   3.146   1.663   0.677
  419SOL    MW4 1708   3.153   1.636   0.760
  420SOL     OW 1709   3.249   1.876   0.862
  420SOL    HW2 1710   3.226   1.894   0.954
  420SOL    HW3 1711   3.211   1.790   0.845
  420SOL    MW4 1712   3.241   1.867   0.872
  421SOL     OW 1713   3.539   1.926   0.810
  421SOL    HW2 1714   3.530   2.022   0.814
  421SOL    HW3 1715   3.449   1.893   0.808
  421SOL    MW4 1716   3.526   1.935   0.811
  422SOL     OW 1717   3.538   2.221   0.830
  422SOL    HW2 1718   3.501   2.219   0.918
  422SOL    HW3 1719   3.621   2.268   0.841
  422SOL    MW4 1720   3.544   2.227   0.843
  423SOL     OW 1721   3.097   2.444   0.698
  423SOL    HW2 1722   3.174   2.387   0.698
  423SOL    HW3 1723   3.027   2.391   0.735
  423SOL    MW4 1724   3.098   2.430   0.703
  424SOL     OW 1725   3.090   2.671   0.892
  424SOL    HW2 1726   3.091   2.592   0.837
  424SOL    HW3 1727   3.151   2.731   0.848
  424SOL    MW4 1728   3.098   2.669   0.879
  425SOL     OW 1729   3.262   2.830   0.724
  425SOL    HW2 1730   3.207   2.860   0.652
  425SOL    HW3 1731   3.343   2.801   0.682
  425SOL    MW4 1732   3.265   2.830   0.709
  426SOL     OW 1733   3.345   3.079   0.819
  426SOL    HW2 1734   3.341   3.057   0.912
  426SOL    HW3 1735   3.331   2.995   0.775
  426SOL    MW4 1736   3.342   3.065   0.826
  427SOL     OW 1737   3.114   3.226   0.750
  427SOL    HW2 1738   3.202   3.209   0.782
  427SOL    HW3 1739   3.058   3.169   0.803
  427SOL    MW4 1740   3.118   3.216   0.761
  428SOL     OW 1741   3.133   3.482   0.839
  428SOL    HW2 1742   3.117   3.392   0.811
  428SOL    HW3 1743   3.050   3.527   0.822
  428SOL    MW4 1744   3.120   3.476   0.833
  429SOL     OW 1745   3.317   3.816   0.642
  429SOL    HW2 1746   3.364   3.840   0.722
  429SOL    HW3 1747   3.324   3.721   0.638
  429SOL    MW4 1748   3.324   3.807   0.652
  430SOL     OW 1749   3.470   3.956   0.841
  430SOL    HW2 1750   3.508   4.044   0.848
  430SOL    HW3 1751   3.440   3.935   0.929
  430SOL    MW4 1752   3.471   3.965   0.853
  431SOL     OW 1753   3.108   4.008   0.727
  431SOL    HW2 1754   3.177   3.941   0.726
  431SOL    HW3 1755   3.038   3.969   0.779
  431SOL    MW4 1756   3.108   3.994   0.733
  432SOL     OW 1757   3.134   4.265   0.841
  432SOL    HW2 1758   3.214   4.305   0.808
  432SOL    HW3 1759   3.126   4.183   0.793
  432SOL    MW4 1760   3.143   4.260   0.830
  433SOL     OW 1761   3.353   4.366   0.720
  433SOL    HW2 1762   3.356   4.461   0.725
  433SOL    HW3 1763   3.385   4.345   0.632
  433SOL    MW4 1764   3.357   4.375   0.709
  434SOL     OW 1765   3.784   4.654   0.874
  434SOL    HW2 1766   3.855   4.707   0.837
  434SOL    HW3 1767   3.704   4.699   0.847
  434SOL    MW4 1768   3.783   4.667   0.865
  435SOL     OW 1769   3.573   0.160   0.738
  435SOL    HW2 1770   3.493   0.110   0.750
  435SOL    HW3 1771   3.606   0.132   0.652
  435SOL    MW4 1772   3.567   0.150   0.728
  436SOL     OW 1773   3.571   0.433   0.811
  436SOL    HW2 1774   3.568   0.424   0.906
  436SOL    HW3 1775   3.593   0.346   0.778
  436SOL    MW4 1776   3.574   0.420   0.819
  437SOL     OW 1777   3.796   0.534   0.693
  437SOL    HW2 1778   3.818   0.618   0.735
  437SOL    HW3 1779   3.717   0.506   0.737
  437SOL    MW4 1780   3.789   0.542   0.705
  438SOL     OW 1781   3.854   0.776   0.863
  438SOL    HW2 1782   3.829   0.773   0.956
  438SOL    HW3 1783   3.929   0.834   0.861
  438SOL    MW4 1784   3.860   0.783   0.875
  439SOL     OW 1785   3.622   0.908   0.729
  439SOL    HW2 1786   3.704   0.877   0.769
  439SOL    HW3 1787   3.553   0.866   0.780
  439SOL    MW4 1788   3.624   0.898   0.741
  440SOL     OW 1789   3.635   1.165   0.840
  440SOL    HW2 1790   3.597   1.152   0.927
  440SOL    HW3 1791   3.652   1.077   0.808
  440SOL    MW4 1792   3.632   1.152   0.847
  441SOL     OW 1793   3.851   1.335   0.786
  441SOL    HW2 1794   3.778   1.278   0.812
  441SOL    HW3 1795   3.868   1.311   0.695
  441SOL    MW4 1796   3.843   1.324   0.777
  442SOL     OW 1797   3.849   1.621   0.839
  442SOL    HW2 1798   3.933   1.649   0.804
  442SOL    HW3 1799   3.847   1.526   0.824
  442SOL    MW4 1800   3.860   1.612   0.832
  443SOL     OW 1801   3.575   1.529   0.556
  443SOL    HW2 1802   3.512   1.577   0.502
  443SOL    HW3 1803   3.624   1.597   0.602
  443SOL    MW4 1804   3.573   1.544   0.555
  444SOL     OW 1805   3.697   1.742   0.656
  444SOL    HW2 1806   3.743   1.703   0.731
  444SOL    HW3 1807   3.642   1.810   0.695
  444SOL    MW4 1808   3.696   1.746   0.671
  445SOL     OW 1809   3.912   2.072   0.691
  445SOL    HW2 1810   3.866   2.149   0.724
  445SOL    HW3 1811   3.953   2.034   0.768
  445SOL    MW4 1812   3.911   2.077   0.705
  446SOL     OW 1813   3.687   2.093   0.492
  446SOL    HW2 1814   3.615   2.034   0.512
  446SOL    HW3 1815   3.752   2.076   0.561
  446SOL    MW4 1816   3.686   2.083   0.504
  447SOL     OW 1817   3.798   2.347   0.846
  447SOL    HW2 1818   3.768   2.438   0.845
  447SOL    HW3 1819   3.825   2.332   0.936
  447SOL    MW4 1820   3.797   2.357   0.858
  448SOL     OW 1821   3.695   2.625   0.846
  448SOL    HW2 1822   3.648   2.646   0.928
  448SOL    HW3 1823   3.738   2.706   0.822
  448SOL    MW4 1824   3.694   2.638   0.854
  449SOL     OW 1825   3.871   2.826   0.744
  449SOL    HW2 1826   3.854   2.913   0.781
  449SOL    HW3 1827   3.872   2.841   0.649
  449SOL    MW4 1828   3.869   2.840   0.736
  450SOL     OW 1829   3.808   3.100   0.846
  450SOL    HW2 1830   3.876   3.153   0.804
  450SOL    HW3 1831   3.726   3.134   0.810
  450SOL    MW4 1832   3.806   3.112   0.836
  451SOL     OW 1833   3.608   3.268   0.705
  451SOL    HW2 1834   3.526   3.220   0.704
  451SOL    HW3 1835   3.623   3.292   0.613
  451SOL    MW4 1836   3.599   3.265   0.693
  452SOL     OW 1837   3.539   3.495   0.833
  452SOL    HW2 1838   3.560   3.412   0.791
  452SOL    HW3 1839   3.461   3.526   0.786
  452SOL    MW4 1840   3.532   3.488   0.821
  453SOL     OW 1841   3.747   3.644   0.719
  453SOL    HW2 1842   3.833   3.610   0.744
  453SOL    HW3 1843   3.687   3.608   0.783
  453SOL    MW4 1844   3.751   3.635   0.730
  454SOL     OW 1845   3.740   3.892   0.846
  454SOL    HW2 1846   3.647   3.911   0.859
  454SOL    HW3 1847   3.742   3.813   0.793
  454SOL    MW4 1848   3.728   3.884   0.841
  455SOL     OW 1849   3.137   4.076   0.306
  455SOL    HW2 1850   3.159   4.059   0.214
  455SOL    HW3 1851   3.186   4.009   0.355
  455SOL    MW4 1852   3.147   4.065   0.301
  456SOL     OW 1853   3.557   4.242   0.876
  456SOL    HW2 1854   3.635   4.273   0.829
  456SOL    HW3 1855   3.484   4.288   0.833
  456SOL    MW4 1856   3.558   4.252   0.864
  457SOL     OW 1857   3.794   4.378   0.769
  457SOL    HW2 1858   3.882   4.345   0.786
  457SOL    HW3 1859   3.797   4.470   0.795
  457SOL    MW4 1860   3.806   4.386   0.774
  458SOL     OW 1861   4.254   4.617   0.829
  458SOL    HW2 1862   4.250   4.627   0.924
  458SOL    HW3 1863   4.172   4.655   0.798
  458SOL    MW4 1864   4.243   4.624   0.838
  459SOL     OW 1865   4.002   0.099   0.766
  459SOL    HW2 1866   3.993   0.193   0.780
  459SOL    HW3 1867   3.992   0.087   0.672
  459SOL    MW4 1868   4.000   0.109   0.755
  460SOL     OW 1869   4.000   0.376   0.832
  460SOL    HW2 1870   4.085   0.406   0.801
  460SOL    HW3 1871   3.936   0.426   0.782
  460SOL    MW4 1872   4.003   0.386   0.821
  461SOL     OW 1873   4.212   0.514   0.726
  461SOL    HW2 1874   4.295   0.474   0.751
  461SOL    HW3 1875   4.211   0.509   0.630
  461SOL    MW4 1876   4.223   0.508   0.717
  462SOL     OW 1877   4.256   0.784   0.828
  462SOL    HW2 1878   4.190   0.849   0.807
  462SOL    HW3 1879   4.230   0.707   0.777
  462SOL    MW4 1880   4.244   0.782   0.818
  463SOL     OW 1881   4.038   0.994   0.808
  463SOL    HW2 1882   4.063   1.077   0.847
  463SOL    HW3 1883   3.997   1.017   0.725
  463SOL    MW4 1884   4.036   1.008   0.802
  464SOL     OW 1885   4.102   1.252   0.881
  464SOL    HW2 1886   4.089   1.219   0.970
  464SOL    HW3 1887   4.019   1.295   0.860
  464SOL    MW4 1888   4.089   1.254   0.890
  465SOL     OW 1889   4.311   1.348   0.734
  465SOL    HW2 1890   4.232   1.317   0.779
  465SOL    HW3 1891   4.381   1.296   0.771
  465SOL    MW4 1892   4.309   1.337   0.745
  466SOL     OW 1893   4.318   1.591   0.880
  466SOL    HW2 1894   4.284   1.588   0.969
  466SOL    HW3 1895   4.321   1.500   0.853
  466SOL    MW4 1896   4.314   1.579   0.888
  467SOL     OW 1897   4.090   1.701   0.726
  467SOL    HW2 1898   4.176   1.684   0.763
  467SOL    HW3 1899   4.106   1.718   0.634
  467SOL    MW4 1900   4.103   1.701   0.719
  468SOL     OW 1901   4.085   1.928   0.899
  468SOL    HW2 1902   4.087   1.856   0.836
  468SOL    HW3 1903   4.158   1.985   0.873
  468SOL    MW4 1904   4.095   1.926   0.887
  469SOL     OW 1905   4.302   2.065   0.821
  469SOL    HW2 1906   4.367   1.999   0.847
  469SOL    HW3 1907   4.302   2.062   0.726
  469SOL    MW4 1908   4.311   2.055   0.812
  470SOL     OW 1909   4.271   2.307   0.933
  470SOL    HW2 1910   4.200   2.352   0.888
  470SOL    HW3 1911   4.283   2.226   0.883
  470SOL    MW4 1912   4.264   2.302   0.920
  471SOL     OW 1913   4.060   2.434   0.789
  471SOL    HW2 1914   4.053   2.518   0.835
  471SOL    HW3 1915   3.971   2.399   0.790
  471SOL    MW4 1916   4.047   2.441   0.795
  472SOL     OW 1917   4.056   2.706   0.888
  472SOL    HW2 1918   4.128   2.767   0.871
  472SOL    HW3 1919   3.983   2.740   0.837
  472SOL    MW4 1920   4.056   2.719   0.879
  473SOL     OW 1921   4.263   2.880   0.796
  473SOL    HW2 1922   4.340   2.846   0.843
  473SOL    HW3 1923   4.253   2.821   0.721
  473SOL    MW4 1924   4.272   2.868   0.792
  474SOL     OW 1925   4.238   3.149   0.823
  474SOL    HW2 1926   4.229   3.056   0.802
  474SOL    HW3 1927   4.327   3.171   0.797
  474SOL    MW4 1928   4.248   3.140   0.817
  475SOL     OW 1929   4.010   3.276   0.712
  475SOL    HW2 1930   3.992   3.354   0.766
  475SOL    HW3 1931   4.080   3.230   0.760
  475SOL    MW4 1932   4.017   3.280   0.726
  476SOL     OW 1933   3.983   3.522   0.837
  476SOL    HW2 1934   3.999   3.491   0.927
  476SOL    HW3 1935   4.067   3.561   0.811
  476SOL    MW4 1936   3.996   3.523   0.846
  477SOL     OW 1937   4.232   3.601   0.791
  477SOL    HW2 1938   4.238   3.692   0.820
  477SOL    HW3 1939   4.260   3.604   0.699
  477SOL    MW4 1940   4.236   3.614   0.782
  478SOL     OW 1941   4.254   3.868   0.903
  478SOL    HW2 1942   4.247   3.851   0.997
  478SOL    HW3 1943   4.167   3.902   0.879
  478SOL    MW4 1944   4.242   3.870   0.912
  479SOL     OW 1945   4.000   3.973   0.832
  479SOL    HW2 1946   3.907   3.965   0.853
  479SOL    HW3 1947   4.009   3.934   0.745
  479SOL    MW4 1948   3.989   3.967   0.823
  480SOL     OW 1949   4.011   4.256   0.862
  480SOL    HW2 1950   4.100   4.280   0.834
  480SOL    HW3 1951   4.008   4.160   0.854
  480SOL    MW4 1952   4.022   4.246   0.857
  481SOL     OW 1953   4.281   4.340   0.788
  481SOL    HW2 1954   4.261   4.431   0.811
  481SOL    HW3 1955   4.363   4.321   0.833
  481SOL    MW4 1956   4.289   4.349   0.797
  482SOL     OW 1957   0.250   0.033   1.142
  482SOL    HW2 1958   0.324   0.080   1.180
  482SOL    HW3 1959   0.252   0.056   1.049
  482SOL    MW4 1960   0.260   0.042   1.134
  483SOL     OW 1961   4.474   0.107   1.200
  483SOL    HW2 1962   4.412   0.044   1.164
  483SOL    HW3 1963   4.558   0.060   1.200
  483SOL    MW4 1964   4.477   0.093   1.196
  484SOL     OW 1965   0.007   0.356   1.066
  484SOL    HW2 1966  -0.067   0.403   1.104
  484SOL    HW3 1967   0.007   0.271   1.112
  484SOL    MW4 1968  -0.003   0.351   1.077
  485SOL     OW 1969   0.200   0.495   1.197
  485SOL    HW2 1970   0.185   0.581   1.156
  485SOL    HW3 1971   0.139   0.436   1.151
  485SOL    MW4 1972   0.190   0.498   1.185
  486SOL     OW 1973   0.207   0.762   1.087
  486SOL    HW2 1974   0.285   0.776   1.141
  486SOL    HW3 1975   0.139   0.813   1.130
  486SOL    MW4 1976   0.208   0.771   1.100
  487SOL     OW 1977   0.013   0.901   1.189
  487SOL    HW2 1978   0.014   0.898   1.284
  487SOL    HW3 1979  -0.063   0.848   1.164
  487SOL    MW4 1980   0.003   0.893   1.198
  488SOL     OW 1981   0.011   1.163   1.091
  488SOL    HW2 1982  -0.062   1.192   1.147
  488SOL    HW3 1983   0.026   1.072   1.117
  488SOL    MW4 1984   0.003   1.155   1.102
  489SOL     OW 1985   0.281   1.294   1.195
  489SOL    HW2 1986   0.351   1.236   1.164
  489SOL    HW3 1987   0.203   1.239   1.199
  489SOL    MW4 1988   0.280   1.279   1.191
  490SOL     OW 1989   0.249   1.535   1.066
  490SOL    HW2 1990   0.270   1.451   1.107
  490SOL    HW3 1991   0.240   1.514   0.972
  490SOL    MW4 1992   0.250   1.521   1.059
  491SOL     OW 1993   0.051   1.652   1.219
  491SOL    HW2 1994   0.043   1.743   1.192
  491SOL    HW3 1995   0.110   1.613   1.155
  491SOL    MW4 1996   0.058   1.659   1.207
  492SOL     OW 1997   0.040   1.920   1.165
  492SOL    HW2 1998  -0.042   1.969   1.177
  492SOL    HW3 1999   0.052   1.916   1.070
  492SOL    MW4 2000   0.031   1.926   1.154
  493SOL     OW 2001   0.260   2.070   1.227
  493SOL    HW2 2002   0.249   2.158   1.190
  493SOL    HW3 2003   0.179   2.024   1.206
  493SOL    MW4 2004   0.248   2.075   1.219
  494SOL     OW 2005   0.257   2.334   1.119
  494SOL    HW2 2006   0.330   2.358   1.177
  494SOL    HW3 2007   0.181   2.377   1.159
  494SOL    MW4 2008   0.257   2.343   1.132
  495SOL     OW 2009   0.050   2.467   1.263
  495SOL    HW2 2010   0.048   2.478   1.358
  495SOL    HW3 2011  -0.021   2.405   1.245
  495SOL    MW4 2012   0.040   2.460   1.273
  496SOL     OW 2013   0.001   2.719   1.183
  496SOL    HW2 2014  -0.079   2.757   1.220
  496SOL    HW3 2015   0.011   2.636   1.229
  496SOL    MW4 2016  -0.009   2.713   1.194
  497SOL     OW 2017   0.234   2.872   1.217
  497SOL    HW2 2018   0.248   2.887   1.310
  497SOL    HW3 2019   0.166   2.804   1.213
  497SOL    MW4 2020   0.227   2.865   1.228
  498SOL     OW 2021   0.237   3.110   1.094
  498SOL    HW2 2022   0.306   3.150   1.146
  498SOL    HW3 2023   0.232   3.019   1.125
  498SOL    MW4 2024   0.246   3.103   1.105
  499SOL     OW 2025   4.483   3.177   1.237
  499SOL    HW2 2026   4.407   3.129   1.203
  499SOL    HW3 2027   4.556   3.147   1.182
  499SOL    MW4 2028   4.483   3.167   1.225
  500SOL     OW 2029   4.459   3.436   1.163
  500SOL    HW2 2030   4.459   3.347   1.198
  500SOL    HW3 2031   4.447   3.425   1.069
  500SOL    MW4 2032   4.457   3.423   1.155
  501SOL     OW 2033   0.194   3.598   1.256
  501SOL    HW2 2034   0.196   3.595   1.352
  501SOL    HW3 2035   0.105   3.571   1.233
  501SOL    MW4 2036   0.183   3.594   1.266
  502SOL     OW 2037   0.204   3.881   1.217
  502SOL    HW2 2038   0.139   3.930   1.267
  502SOL    HW3 2039   0.190   3.790   1.243
  502SOL    MW4 2040   0.193   3.875   1.227
  503SOL     OW 2041   4.467   4.046   1.293
  503SOL    HW2 2042   4.468   4.018   1.384
  503SOL    HW3 2043   4.394   3.998   1.254
  503SOL    MW4 2044   4.457   4.036   1.300
  504SOL     OW 2045   0.001   4.311   1.206
  504SOL    HW2 2046   0.082   4.349   1.240
  504SOL    HW3 2047   0.013   4.217   1.217
  504SOL    MW4 2048   0.013   4.304   1.212
  505SOL     OW 2049   0.262   4.412   1.221
  505SOL    HW2 2050   0.272   4.417   1.316
  505SOL    HW3 2051   0.268   4.502   1.191
  505SOL    MW4 2052   0.264   4.424   1.229
  506SOL     OW 2053   0.618   4.656   1.130
  506SOL    HW2 2054   0.702   4.701   1.137
  506SOL    HW3 2055   0.632   4.572   1.174
  506SOL    MW4 2056   0.631   4.651   1.137
  507SOL     OW 2057   0.459   0.178   1.271
  507SOL    HW2 2058   0.480   0.257   1.222
  507SOL    HW3 2059   0.522   0.113   1.240
  507SOL    MW4 2060   0.470   0.180   1.261
  508SOL     OW 2061   0.450   0.421   1.134
  508SOL    HW2 2062   0.361   0.433   1.167
  508SOL    HW3 2063   0.441   0.425   1.039
  508SOL    MW4 2064   0.437   0.423   1.126
  509SOL     OW 2065   0.674   0.546   1.249
  509SOL    HW2 2066   0.682   0.624   1.195
  509SOL    HW3 2067   0.587   0.511   1.227
  509SOL    MW4 2068   0.664   0.551   1.239
  510SOL     OW 2069   0.687   0.762   1.076
  510SOL    HW2 2070   0.613   0.820   1.095
  510SOL    HW3 2071   0.707   0.777   0.984
  510SOL    MW4 2072   0.680   0.772   1.067
  511SOL     OW 2073   0.446   0.868   1.201
  511SOL    HW2 2074   0.466   0.864   1.295
  511SOL    HW3 2075   0.434   0.961   1.183
  511SOL    MW4 2076   0.447   0.880   1.211
  512SOL     OW 2077   0.466   1.120   1.106
  512SOL    HW2 2078   0.552   1.154   1.133
  512SOL    HW3 2079   0.472   1.115   1.011
  512SOL    MW4 2080   0.478   1.124   1.097
  513SOL     OW 2081   0.680   1.251   1.205
  513SOL    HW2 2082   0.750   1.204   1.160
  513SOL    HW3 2083   0.696   1.343   1.184
  513SOL    MW4 2084   0.691   1.257   1.196
  514SOL     OW 2085   0.709   1.511   1.118
  514SOL    HW2 2086   0.780   1.567   1.152
  514SOL    HW3 2087   0.629   1.555   1.147
  514SOL    MW4 2088   0.708   1.524   1.126
  515SOL     OW 2089   0.472   1.645   1.209
  515SOL    HW2 2090   0.433   1.626   1.294
  515SOL    HW3 2091   0.404   1.624   1.145
  515SOL    MW4 2092   0.458   1.640   1.212
  516SOL     OW 2093   0.494   1.919   1.150
  516SOL    HW2 2094   0.481   1.829   1.179
  516SOL    HW3 2095   0.410   1.962   1.164
  516SOL    MW4 2096   0.481   1.913   1.156
  517SOL     OW 2097   0.687   2.078   1.278
  517SOL    HW2 2098   0.666   2.068   1.371
  517SOL    HW3 2099   0.630   2.015   1.234
  517SOL    MW4 2100   0.677   2.068   1.284
  518SOL     OW 2101   0.696   2.304   1.141
  518SOL    HW2 2102   0.645   2.361   1.198
  518SOL    HW3 2103   0.698   2.220   1.186
  518SOL    MW4 2104   0.690   2.301   1.155
  519SOL     OW 2105   0.506   2.438   1.274
  519SOL    HW2 2106   0.478   2.444   1.365
  519SOL    HW3 2107   0.487   2.525   1.238
  519SOL    MW4 2108   0.500   2.450   1.281
  520SOL     OW 2109   0.469   2.719   1.194
  520SOL    HW2 2110   0.391   2.762   1.229
  520SOL    HW3 2111   0.463   2.731   1.099
  520SOL    MW4 2112   0.458   2.726   1.186
  521SOL     OW 2113   0.698   2.841   1.251
  521SOL    HW2 2114   0.685   2.927   1.213
  521SOL    HW3 2115   0.615   2.795   1.234
  521SOL    MW4 2116   0.685   2.846   1.244
  522SOL     OW 2117   0.662   3.102   1.152
  522SOL    HW2 2118   0.735   3.152   1.188
  522SOL    HW3 2119   0.661   3.123   1.059
  522SOL    MW4 2120   0.671   3.111   1.145
  523SOL     OW 2121   0.444   3.228   1.226
  523SOL    HW2 2122   0.443   3.318   1.194
  523SOL    HW3 2123   0.524   3.190   1.189
  523SOL    MW4 2124   0.454   3.235   1.217
  524SOL     OW 2125   0.449   3.494   1.166
  524SOL    HW2 2126   0.522   3.544   1.204
  524SOL    HW3 2127   0.372   3.525   1.215
  524SOL    MW4 2128   0.448   3.505   1.178
  525SOL     OW 2129   0.684   3.631   1.248
  525SOL    HW2 2130   0.663   3.645   1.341
  525SOL    HW3 2131   0.708   3.717   1.215
  525SOL    MW4 2132   0.685   3.644   1.256
  526SOL     OW 2133   0.708   3.876   1.125
  526SOL    HW2 2134   0.624   3.914   1.153
  526SOL    HW3 2135   0.694   3.856   1.033
  526SOL    MW4 2136   0.695   3.878   1.117
  527SOL     OW 2137   0.451   3.989   1.201
  527SOL    HW2 2138   0.428   4.074   1.162
  527SOL    HW3 2139   0.367   3.946   1.217
  527SOL    MW4 2140   0.437   3.995   1.198
  528SOL     OW 2141   0.442   4.244   1.102
  528SOL    HW2 2142   0.523   4.283   1.135
  528SOL    HW3 2143   0.373   4.300   1.136
  528SOL    MW4 2144   0.444   4.257   1.111
  529SOL     OW 2145   0.671   4.391   1.206
  529SOL    HW2 2146   0.660   4.401   1.300
  529SOL    HW3 2147   0.756   4.348   1.196
  529SOL    MW4 2148   0.681   4.387   1.217
  530SOL     OW 2149   1.121   0.043   1.145
  530SOL    HW2 2150   1.111  -0.047   1.178
  530SOL    HW3 2151   1.140   0.032   1.052
  530SOL    MW4 2152   1.122   0.029   1.137
  531SOL     OW 2153   0.856   0.112   1.186
  531SOL    HW2 2154   0.846   0.105   1.281
  531SOL    HW3 2155   0.949   0.094   1.170
  531SOL    MW4 2156   0.867   0.109   1.197
  532SOL     OW 2157   0.898   0.402   1.167
  532SOL    HW2 2158   0.885   0.308   1.180
  532SOL    HW3 2159   0.823   0.443   1.210
  532SOL    MW4 2160   0.887   0.395   1.175
  533SOL     OW 2161   1.149   0.503   1.217
  533SOL    HW2 2162   1.155   0.525   1.310
  533SOL    HW3 2163   1.062   0.466   1.207
  533SOL    MW4 2164   1.138   0.501   1.228
  534SOL     OW 2165   1.157   0.764   1.119
  534SOL    HW2 2166   1.087   0.796   1.176
  534SOL    HW3 2167   1.166   0.671   1.140
  534SOL    MW4 2168   1.149   0.756   1.129
  535SOL     OW 2169   0.914   0.856   1.222
  535SOL    HW2 2170   0.901   0.944   1.188
  535SOL    HW3 2171   0.841   0.805   1.186
  535SOL    MW4 2172   0.902   0.861   1.213
  536SOL     OW 2173   0.917   1.126   1.114
  536SOL    HW2 2174   0.990   1.182   1.142
  536SOL    HW3 2175   0.923   1.124   1.019
  536SOL    MW4 2176   0.927   1.133   1.105
  537SOL     OW 2177   1.101   1.294   1.227
  537SOL    HW2 2178   1.096   1.318   1.320
  537SOL    HW3 2179   1.185   1.251   1.218
  537SOL    MW4 2180   1.111   1.292   1.238
  538SOL     OW 2181   1.127   1.524   1.094
  538SOL    HW2 2182   1.115   1.441   1.140
  538SOL    HW3 2183   1.136   1.499   1.002
  538SOL    MW4 2184   1.126   1.510   1.088
  539SOL     OW 2185   0.926   1.681   1.215
  539SOL    HW2 2186   0.921   1.767   1.174
  539SOL    HW3 2187   1.002   1.639   1.175
  539SOL    MW4 2188   0.935   1.687   1.205
  540SOL     OW 2189   0.928   1.969   1.134
  540SOL    HW2 2190   1.000   2.024   1.166
  540SOL    HW3 2191   0.850   2.002   1.179
  540SOL    MW4 2192   0.927   1.981   1.144
  541SOL     OW 2193   1.150   2.086   1.228
  541SOL    HW2 2194   1.146   2.066   1.321
  541SOL    HW3 2195   1.174   2.179   1.224
  541SOL    MW4 2196   1.153   2.096   1.240
  542SOL     OW 2197   1.175   2.353   1.137
  542SOL    HW2 2198   1.248   2.404   1.172
  542SOL    HW3 2199   1.098   2.384   1.186
  542SOL    MW4 2200   1.174   2.364   1.148
  543SOL     OW 2201   0.932   2.422   1.224
  543SOL    HW2 2202   0.927   2.429   1.320
  543SOL    HW3 2203   0.848   2.383   1.199
  543SOL    MW4 2204   0.920   2.418   1.234
  544SOL     OW 2205   0.887   2.691   1.103
  544SOL    HW2 2206   0.895   2.605   1.144
  544SOL    HW3 2207   0.832   2.741   1.163
  544SOL    MW4 2208   0.881   2.686   1.117
  545SOL     OW 2209   1.121   2.840   1.182
  545SOL    HW2 2210   1.131   2.824   1.276
  545SOL    HW3 2211   1.039   2.797   1.159
  545SOL    MW4 2212   1.112   2.832   1.192
  546SOL     OW 2213   1.145   3.118   1.087
  546SOL    HW2 2214   1.130   3.032   1.127
  546SOL    HW3 2215   1.129   3.105   0.994
  546SOL    MW4 2216   1.141   3.105   1.080
  547SOL     OW 2217   0.919   3.205   1.200
  547SOL    HW2 2218   0.915   3.298   1.177
  547SOL    HW3 2219   1.003   3.176   1.165
  547SOL    MW4 2220   0.930   3.214   1.192
  548SOL     OW 2221   0.887   3.474   1.131
  548SOL    HW2 2222   0.826   3.530   1.179
  548SOL    HW3 2223   0.870   3.494   1.039
  548SOL    MW4 2224   0.877   3.484   1.125
  549SOL     OW 2225   1.121   3.622   1.211
  549SOL    HW2 2226   1.207   3.580   1.207
  549SOL    HW3 2227   1.061   3.555   1.177
  549SOL    MW4 2228   1.124   3.607   1.206
  550SOL     OW 2229   1.122   3.866   1.095
  550SOL    HW2 2230   1.052   3.900   1.151
  550SOL    HW3 2231   1.128   3.773   1.119
  550SOL    MW4 2232   1.114   3.858   1.105
  551SOL     OW 2233   0.930   3.981   1.254
  551SOL    HW2 2234   0.921   3.958   1.346
  551SOL    HW3 2235   0.851   3.945   1.213
  551SOL    MW4 2236   0.918   3.973   1.260
  552SOL     OW 2237   0.924   4.241   1.154
  552SOL    HW2 2238   0.938   4.154   1.190
  552SOL    HW3 2239   0.904   4.226   1.061
  552SOL    MW4 2240   0.923   4.227   1.146
  553SOL     OW 2241   1.114   4.444   1.224
  553SOL    HW2 2242   1.113   4.447   1.320
  553SOL    HW3 2243   1.041   4.385   1.202
  553SOL    MW4 2244   1.104   4.436   1.234
  554SOL     OW 2245   1.565   4.657   1.121
  554SOL    HW2 2246   1.636   4.703   1.166
  554SOL    HW3 2247   1.560   4.571   1.163
  554SOL    MW4 2248   1.574   4.652   1.132
  555SOL     OW 2249   1.369   0.106   1.260
  555SOL    HW2 2250   1.442   0.076   1.206
  555SOL    HW3 2251   1.292   0.062   1.223
  555SOL    MW4 2252   1.368   0.096   1.248
  556SOL     OW 2253   1.352   0.347   1.131
  556SOL    HW2 2254   1.338   0.262   1.173
  556SOL    HW3 2255   1.276   0.399   1.155
  556SOL    MW4 2256   1.340   0.342   1.139
  557SOL     OW 2257   1.566   0.471   1.249
  557SOL    HW2 2258   1.552   0.554   1.204
  557SOL    HW3 2259   1.493   0.416   1.222
  557SOL    MW4 2260   1.555   0.474   1.239
  558SOL     OW 2261   1.578   0.729   1.150
  558SOL    HW2 2262   1.654   0.787   1.159
  558SOL    HW3 2263   1.559   0.729   1.057
  558SOL    MW4 2264   1.586   0.737   1.139
  559SOL     OW 2265   1.361   0.923   1.212
  559SOL    HW2 2266   1.444   0.876   1.204
  559SOL    HW3 2267   1.297   0.868   1.166
  559SOL    MW4 2268   1.363   0.909   1.205
  560SOL     OW 2269   1.360   1.202   1.137
  560SOL    HW2 2270   1.345   1.121   1.185
  560SOL    HW3 2271   1.354   1.176   1.045
  560SOL    MW4 2272   1.357   1.188   1.131
  561SOL     OW 2273   1.597   1.320   1.220
  561SOL    HW2 2274   1.667   1.262   1.189
  561SOL    HW3 2275   1.517   1.281   1.187
  561SOL    MW4 2276   1.596   1.308   1.211
  562SOL     OW 2277   1.596   1.580   1.130
  562SOL    HW2 2278   1.667   1.614   1.184
  562SOL    HW3 2279   1.600   1.485   1.141
  562SOL    MW4 2280   1.606   1.572   1.138
  563SOL     OW 2281   1.342   1.652   1.221
  563SOL    HW2 2282   1.427   1.623   1.187
  563SOL    HW3 2283   1.279   1.589   1.186
  563SOL    MW4 2284   1.345   1.640   1.212
  564SOL     OW 2285   1.320   1.912   1.095
  564SOL    HW2 2286   1.313   1.827   1.138
  564SOL    HW3 2287   1.252   1.965   1.135
  564SOL    MW4 2288   1.310   1.908   1.106
  565SOL     OW 2289   1.557   2.022   1.185
  565SOL    HW2 2290   1.556   2.113   1.156
  565SOL    HW3 2291   1.479   1.983   1.146
  565SOL    MW4 2292   1.547   2.029   1.176
  566SOL     OW 2293   1.543   2.297   1.100
  566SOL    HW2 2294   1.481   2.351   1.149
  566SOL    HW3 2295   1.531   2.323   1.009
  566SOL    MW4 2296   1.533   2.308   1.094
  567SOL     OW 2297   1.382   2.488   1.254
  567SOL    HW2 2298   1.381   2.492   1.350
  567SOL    HW3 2299   1.367   2.578   1.226
  567SOL    MW4 2300   1.380   2.500   1.263
  568SOL     OW 2301   1.362   2.732   1.090
  568SOL    HW2 2302   1.421   2.790   1.138
  568SOL    HW3 2303   1.275   2.769   1.104
  568SOL    MW4 2304   1.358   2.744   1.098
  569SOL     OW 2305   1.554   2.876   1.260
  569SOL    HW2 2306   1.628   2.821   1.235
  569SOL    HW3 2307   1.568   2.958   1.214
  569SOL    MW4 2308   1.565   2.880   1.251
  570SOL     OW 2309   1.593   3.096   1.104
  570SOL    HW2 2310   1.658   3.158   1.137
  570SOL    HW3 2311   1.509   3.132   1.131
  570SOL    MW4 2312   1.591   3.109   1.112
  571SOL     OW 2313   1.368   3.244   1.191
  571SOL    HW2 2314   1.371   3.225   1.285
  571SOL    HW3 2315   1.284   3.208   1.162
  571SOL    MW4 2316   1.357   3.237   1.199
  572SOL     OW 2317   1.356   3.516   1.145
  572SOL    HW2 2318   1.360   3.420   1.154
  572SOL    HW3 2319   1.327   3.530   1.055
  572SOL    MW4 2320   1.353   3.505   1.134
  573SOL     OW 2321   1.581   3.621   1.279
  573SOL    HW2 2322   1.575   3.715   1.267
  573SOL    HW3 2323   1.509   3.586   1.226
  573SOL    MW4 2324   1.571   3.628   1.270
  574SOL     OW 2325   1.577   3.878   1.192
  574SOL    HW2 2326   1.495   3.918   1.221
  574SOL    HW3 2327   1.573   3.882   1.096
  574SOL    MW4 2328   1.565   3.884   1.183
  575SOL     OW 2329   1.330   3.979   1.265
  575SOL    HW2 2330   1.323   4.073   1.246
  575SOL    HW3 2331   1.250   3.941   1.229
  575SOL    MW4 2332   1.318   3.987   1.258
  576SOL     OW 2333   1.317   4.261   1.201
  576SOL    HW2 2334   1.257   4.334   1.216
  576SOL    HW3 2335   1.307   4.239   1.109
  576SOL    MW4 2336   1.308   4.268   1.191
  577SOL     OW 2337   1.557   4.398   1.264
  577SOL    HW2 2338   1.537   4.417   1.356
  577SOL    HW3 2339   1.479   4.352   1.232
  577SOL    MW4 2340   1.544   4.395   1.272
  578SOL     OW 2341   1.984   0.005   1.145
  578SOL    HW2 2342   1.975  -0.090   1.150
  578SOL    HW3 2343   1.975   0.026   1.052
  578SOL    MW4 2344   1.982  -0.005   1.133
  579SOL     OW 2345   1.749   0.117   1.275
  579SOL    HW2 2346   1.741   0.212   1.272
  579SOL    HW3 2347   1.835   0.100   1.236
  579SOL    MW4 2348   1.760   0.127   1.269
  580SOL     OW 2349   1.817   0.376   1.161
  580SOL    HW2 2350   1.733   0.417   1.182
  580SOL    HW3 2351   1.807   0.346   1.070
  580SOL    MW4 2352   1.804   0.378   1.151
  581SOL     OW 2353   1.998   0.563   1.243
  581SOL    HW2 2354   1.994   0.555   1.339
  581SOL    HW3 2355   1.933   0.500   1.212
  581SOL    MW4 2356   1.989   0.554   1.252
  582SOL     OW 2357   2.055   0.831   1.130
  582SOL    HW2 2358   2.057   0.743   1.166
  582SOL    HW3 2359   2.045   0.818   1.036
  582SOL    MW4 2360   2.053   0.818   1.122
  583SOL     OW 2361   1.787   0.908   1.201
  583SOL    HW2 2362   1.788   0.914   1.296
  583SOL    HW3 2363   1.878   0.890   1.177
  583SOL    MW4 2364   1.799   0.907   1.210
  584SOL     OW 2365   1.830   1.157   1.129
  584SOL    HW2 2366   1.799   1.071   1.158
  584SOL    HW3 2367   1.831   1.150   1.033
  584SOL    MW4 2368   1.826   1.144   1.120
  585SOL     OW 2369   2.053   1.281   1.225
  585SOL    HW2 2370   2.124   1.222   1.200
  585SOL    HW3 2371   1.973   1.238   1.195
  585SOL    MW4 2372   2.052   1.267   1.218
  586SOL     OW 2373   2.053   1.545   1.159
  586SOL    HW2 2374   2.067   1.451   1.169
  586SOL    HW3 2375   2.009   1.553   1.074
  586SOL    MW4 2376   2.049   1.533   1.149
  587SOL     OW 2377   1.829   1.656   1.258
  587SOL    HW2 2378   1.834   1.735   1.204
  587SOL    HW3 2379   1.909   1.608   1.237
  587SOL    MW4 2380   1.840   1.660   1.248
  588SOL     OW 2381   1.818   1.901   1.116
  588SOL    HW2 2382   1.743   1.951   1.146
  588SOL    HW3 2383   1.812   1.904   1.020
  588SOL    MW4 2384   1.807   1.908   1.107
  589SOL     OW 2385   2.056   2.048   1.238
  589SOL    HW2 2386   2.045   2.059   1.332
  589SOL    HW3 2387   1.973   2.009   1.208
  589SOL    MW4 2388   2.044   2.044   1.247
  590SOL     OW 2389   2.034   2.281   1.110
  590SOL    HW2 2390   2.106   2.332   1.146
  590SOL    HW3 2391   2.047   2.193   1.143
  590SOL    MW4 2392   2.045   2.276   1.119
  591SOL     OW 2393   1.794   2.406   1.187
  591SOL    HW2 2394   1.866   2.377   1.131
  591SOL    HW3 2395   1.718   2.359   1.153
  591SOL    MW4 2396   1.793   2.396   1.175
  592SOL     OW 2397   1.752   2.710   1.170
  592SOL    HW2 2398   1.758   2.619   1.198
  592SOL    HW3 2399   1.740   2.706   1.075
  592SOL    MW4 2400   1.751   2.697   1.161
  593SOL     OW 2401   2.007   2.827   1.176
  593SOL    HW2 2402   2.017   2.914   1.137
  593SOL    HW3 2403   1.913   2.811   1.177
  593SOL    MW4 2404   1.996   2.837   1.171
  594SOL     OW 2405   2.025   3.087   1.097
  594SOL    HW2 2406   1.963   3.140   1.148
  594SOL    HW3 2407   1.986   3.082   1.010
  594SOL    MW4 2408   2.012   3.094   1.092
  595SOL     OW 2409   1.816   3.250   1.195
  595SOL    HW2 2410   1.803   3.248   1.290
  595SOL    HW3 2411   1.816   3.343   1.173
  595SOL    MW4 2412   1.814   3.262   1.205
  596SOL     OW 2413   1.803   3.528   1.134
  596SOL    HW2 2414   1.880   3.581   1.156
  596SOL    HW3 2415   1.736   3.556   1.196
  596SOL    MW4 2416   1.805   3.539   1.145
  597SOL     OW 2417   2.029   3.649   1.195
  597SOL    HW2 2418   2.033   3.660   1.290
  597SOL    HW3 2419   2.088   3.577   1.176
  597SOL    MW4 2420   2.037   3.641   1.205
  598SOL     OW 2421   2.062   3.921   1.134
  598SOL    HW2 2422   1.976   3.953   1.162
  598SOL    HW3 2423   2.057   3.826   1.147
  598SOL    MW4 2424   2.050   3.912   1.139
  599SOL     OW 2425   1.838   4.020   1.256
  599SOL    HW2 2426   1.834   4.006   1.350
  599SOL    HW3 2427   1.774   3.958   1.220
  599SOL    MW4 2428   1.829   4.010   1.263
  600SOL     OW 2429   1.790   4.276   1.162
  600SOL    HW2 2430   1.791   4.183   1.184
  600SOL    HW3 2431   1.723   4.314   1.218
  600SOL    MW4 2432   1.781   4.268   1.172
  601SOL     OW 2433   2.027   4.405   1.216
  601SOL    HW2 2434   2.028   4.421   1.310
  601SOL    HW3 2435   1.944   4.361   1.200
  601SOL    MW4 2436   2.016   4.402   1.226
  602SOL     OW 2437   2.445   4.654   1.173
  602SOL    HW2 2438   2.512   4.716   1.202
  602SOL    HW3 2439   2.362   4.702   1.182
  602SOL    MW4 2440   2.443   4.668   1.178
  603SOL     OW 2441   2.205   0.135   1.238
  603SOL    HW2 2442   2.204   0.225   1.206
  603SOL    HW3 2443   2.129   0.094   1.197
  603SOL    MW4 2444   2.195   0.141   1.228
  604SOL     OW 2445   2.216   0.395   1.162
  604SOL    HW2 2446   2.153   0.461   1.192
  604SOL    HW3 2447   2.239   0.422   1.073
  604SOL    MW4 2448   2.210   0.407   1.154
  605SOL     OW 2449   2.463   0.517   1.222
  605SOL    HW2 2450   2.459   0.527   1.317
  605SOL    HW3 2451   2.380   0.476   1.198
  605SOL    MW4 2452   2.452   0.513   1.231
  606SOL     OW 2453   2.490   0.782   1.146
  606SOL    HW2 2454   2.477   0.690   1.169
  606SOL    HW3 2455   2.496   0.783   1.051
  606SOL    MW4 2456   2.489   0.770   1.137
  607SOL     OW 2457   2.283   0.909   1.256
  607SOL    HW2 2458   2.356   0.854   1.225
  607SOL    HW3 2459   2.205   0.871   1.216
  607SOL    MW4 2460   2.283   0.897   1.247
  608SOL     OW 2461   2.276   1.131   1.091
  608SOL    HW2 2462   2.344   1.188   1.128
  608SOL    HW3 2463   2.281   1.051   1.142
  608SOL    MW4 2464   2.286   1.128   1.102
  609SOL     OW 2465   2.465   1.280   1.237
  609SOL    HW2 2466   2.538   1.218   1.233
  609SOL    HW3 2467   2.493   1.353   1.182
  609SOL    MW4 2468   2.478   1.281   1.229
  610SOL     OW 2469   2.502   1.544   1.112
  610SOL    HW2 2470   2.427   1.584   1.157
  610SOL    HW3 2471   2.478   1.546   1.019
  610SOL    MW4 2472   2.489   1.549   1.106
  611SOL     OW 2473   2.281   1.687   1.235
  611SOL    HW2 2474   2.288   1.774   1.197
  611SOL    HW3 2475   2.192   1.659   1.216
  611SOL    MW4 2476   2.270   1.695   1.228
  612SOL     OW 2477   2.263   1.948   1.107
  612SOL    HW2 2478   2.183   1.986   1.145
  612SOL    HW3 2479   2.234   1.910   1.024
  612SOL    MW4 2480   2.248   1.948   1.101
  613SOL     OW 2481   2.493   2.046   1.233
  613SOL    HW2 2482   2.560   1.991   1.192
  613SOL    HW3 2483   2.411   2.014   1.196
  613SOL    MW4 2484   2.491   2.035   1.223
  614SOL     OW 2485   2.482   2.318   1.156
  614SOL    HW2 2486   2.478   2.225   1.178
  614SOL    HW3 2487   2.477   2.320   1.060
  614SOL    MW4 2488   2.481   2.306   1.146
  615SOL     OW 2489   2.236   2.444   1.199
  615SOL    HW2 2490   2.230   2.466   1.292
  615SOL    HW3 2491   2.318   2.396   1.191
  615SOL    MW4 2492   2.246   2.440   1.210
  616SOL     OW 2493   2.257   2.720   1.109
  616SOL    HW2 2494   2.248   2.627   1.129
  616SOL    HW3 2495   2.176   2.759   1.141
  616SOL    MW4 2496   2.245   2.713   1.116
  617SOL     OW 2497   2.481   2.804   1.244
  617SOL    HW2 2498   2.481   2.822   1.337
  617SOL    HW3 2499   2.393   2.771   1.226
  617SOL    MW4 2500   2.469   2.802   1.254
  618SOL     OW 2501   2.487   3.085   1.140
  618SOL    HW2 2502   2.422   3.135   1.190
  618SOL    HW3 2503   2.472   2.994   1.165
  618SOL    MW4 2504   2.476   3.080   1.150
  619SOL     OW 2505   2.256   3.205   1.247
  619SOL    HW2 2506   2.249   3.271   1.178
  619SOL    HW3 2507   2.187   3.142   1.228
  619SOL    MW4 2508   2.246   3.206   1.236
  620SOL     OW 2509   2.223   3.466   1.147
  620SOL    HW2 2510   2.299   3.512   1.183
  620SOL    HW3 2511   2.230   3.478   1.053
  620SOL    MW4 2512   2.234   3.473   1.140
  621SOL     OW 2513   2.455   3.602   1.226
  621SOL    HW2 2514   2.433   3.607   1.319
  621SOL    HW3 2515   2.464   3.694   1.198
  621SOL    MW4 2516   2.453   3.615   1.235
  622SOL     OW 2517   2.455   3.853   1.130
  622SOL    HW2 2518   2.387   3.910   1.166
  622SOL    HW3 2519   2.443   3.858   1.036
  622SOL    MW4 2520   2.445   3.861   1.123
  623SOL     OW 2521   2.274   4.048   1.261
  623SOL    HW2 2522   2.284   4.130   1.213
  623SOL    HW3 2523   2.187   4.016   1.237
  623SOL    MW4 2524   2.264   4.054   1.252
  624SOL     OW 2525   2.296   4.291   1.128
  624SOL    HW2 2526   2.221   4.330   1.173
  624SOL    HW3 2527   2.271   4.292   1.035
  624SOL    MW4 2528   2.283   4.296   1.122
  625SOL     OW 2529   2.522   4.405   1.248
  625SOL    HW2 2530   2.460   4.351   1.200
  625SOL    HW3 2531   2.509   4.493   1.212
  625SOL    MW4 2532   2.512   4.410   1.237
  626SOL     OW 2533   2.910   0.030   1.145
  626SOL    HW2 2534   2.920  -0.058   1.181
  626SOL    HW3 2535   2.912   0.017   1.050
  626SOL    MW4 2536   2.912   0.017   1.137
  627SOL     OW 2537   2.665   0.138   1.225
  627SOL    HW2 2538   2.651   0.115   1.317
  627SOL    HW3 2539   2.753   0.106   1.206
  627SOL    MW4 2540   2.675   0.131   1.235
  628SOL     OW 2541   2.725   0.391   1.195
  628SOL    HW2 2542   2.702   0.298   1.200
  628SOL    HW3 2543   2.642   0.437   1.205
  628SOL    MW4 2544   2.711   0.385   1.197
  629SOL     OW 2545   2.954   0.529   1.263
  629SOL    HW2 2546   2.961   0.601   1.201
  629SOL    HW3 2547   2.885   0.473   1.226
  629SOL    MW4 2548   2.945   0.531   1.250
  630SOL     OW 2549   2.951   0.743   1.093
  630SOL    HW2 2550   3.026   0.784   1.136
  630SOL    HW3 2551   2.875   0.786   1.131
  630SOL    MW4 2552   2.951   0.754   1.104
  631SOL     OW 2553   2.736   0.849   1.238
  631SOL    HW2 2554   2.737   0.944   1.225
  631SOL    HW3 2555   2.650   0.821   1.208
  631SOL    MW4 2556   2.725   0.858   1.233
  632SOL     OW 2557   2.683   1.119   1.220
  632SOL    HW2 2558   2.760   1.171   1.242
  632SOL    HW3 2559   2.672   1.130   1.125
  632SOL    MW4 2560   2.692   1.127   1.210
  633SOL     OW 2561   2.916   1.273   1.275
  633SOL    HW2 2562   2.920   1.293   1.369
  633SOL    HW3 2563   2.919   1.359   1.233
  633SOL    MW4 2564   2.917   1.287   1.282
  634SOL     OW 2565   2.979   1.517   1.142
  634SOL    HW2 2566   3.069   1.550   1.143
  634SOL    HW3 2567   2.955   1.516   1.049
  634SOL    MW4 2568   2.988   1.522   1.130
  635SOL     OW 2569   2.720   1.668   1.238
  635SOL    HW2 2570   2.801   1.618   1.224
  635SOL    HW3 2571   2.654   1.620   1.189
  635SOL    MW4 2572   2.722   1.655   1.230
  636SOL     OW 2573   2.711   1.907   1.103
  636SOL    HW2 2574   2.781   1.950   1.152
  636SOL    HW3 2575   2.701   1.822   1.146
  636SOL    MW4 2576   2.719   1.901   1.115
  637SOL     OW 2577   2.923   2.045   1.221
  637SOL    HW2 2578   2.932   2.060   1.315
  637SOL    HW3 2579   2.920   2.133   1.183
  637SOL    MW4 2580   2.924   2.058   1.228
  638SOL     OW 2581   2.943   2.301   1.106
  638SOL    HW2 2582   3.012   2.355   1.144
  638SOL    HW3 2583   2.862   2.331   1.149
  638SOL    MW4 2584   2.941   2.312   1.117
  639SOL     OW 2585   2.722   2.427   1.225
  639SOL    HW2 2586   2.721   2.432   1.321
  639SOL    HW3 2587   2.636   2.395   1.201
  639SOL    MW4 2588   2.711   2.424   1.234
  640SOL     OW 2589   2.718   2.684   1.158
  640SOL    HW2 2590   2.733   2.590   1.174
  640SOL    HW3 2591   2.637   2.704   1.205
  640SOL    MW4 2592   2.709   2.674   1.166
  641SOL     OW 2593   2.925   2.835   1.230
  641SOL    HW2 2594   2.925   2.823   1.325
  641SOL    HW3 2595   2.850   2.785   1.200
  641SOL    MW4 2596   2.915   2.827   1.239
  642SOL     OW 2597   2.908   3.110   1.157
  642SOL    HW2 2598   2.914   3.021   1.192
  642SOL    HW3 2599   2.890   3.098   1.064
  642SOL    MW4 2600   2.907   3.097   1.149
  643SOL     OW 2601   2.687   3.232   1.230
  643SOL    HW2 2602   2.769   3.188   1.205
  643SOL    HW3 2603   2.618   3.173   1.201
  643SOL    MW4 2604   2.689   3.219   1.223
  644SOL     OW 2605   2.692   3.475   1.091
  644SOL    HW2 2606   2.693   3.387   1.128
  644SOL    HW3 2607   2.613   3.515   1.127
  644SOL    MW4 2608   2.682   3.469   1.101
  645SOL     OW 2609   2.905   3.610   1.218
  645SOL    HW2 2610   2.985   3.572   1.182
  645SOL    HW3 2611   2.834   3.561   1.177
  645SOL    MW4 2612   2.906   3.599   1.207
  646SOL     OW 2613   2.891   3.866   1.119
  646SOL    HW2 2614   2.973   3.914   1.127
  646SOL    HW3 2615   2.914   3.776   1.142
  646SOL    MW4 2616   2.905   3.860   1.123
  647SOL     OW 2617   2.667   4.023   1.194
  647SOL    HW2 2618   2.743   3.967   1.180
  647SOL    HW3 2619   2.592   3.968   1.170
  647SOL    MW4 2620   2.667   4.008   1.189
  648SOL     OW 2621   2.717   4.278   1.104
  648SOL    HW2 2622   2.715   4.185   1.126
  648SOL    HW3 2623   2.649   4.317   1.159
  648SOL    MW4 2624   2.708   4.271   1.114
  649SOL     OW 2625   2.938   4.419   1.206
  649SOL    HW2 2626   3.009   4.363   1.172
  649SOL    HW3 2627   2.858   4.371   1.185
  649SOL    MW4 2628   2.937   4.405   1.199
  650SOL     OW 2629   3.370   4.665   1.087
  650SOL    HW2 2630   3.448   4.708   1.123
  650SOL    HW3 2631   3.298   4.702   1.137
  650SOL    MW4 2632   3.371   4.676   1.099
  651SOL     OW 2633   3.165   0.124   1.206
  651SOL    HW2 2634   3.172   0.107   1.300
  651SOL    HW3 2635   3.075   0.100   1.184
  651SOL    MW4 2636   3.154   0.118   1.215
  652SOL     OW 2637   3.169   0.398   1.154
  652SOL    HW2 2638   3.170   0.308   1.186
  652SOL    HW3 2639   3.096   0.439   1.200
  652SOL    MW4 2640   3.160   0.391   1.164
  653SOL     OW 2641   3.396   0.530   1.227
  653SOL    HW2 2642   3.400   0.625   1.217
  653SOL    HW3 2643   3.311   0.505   1.191
  653SOL    MW4 2644   3.386   0.540   1.221
  654SOL     OW 2645   3.395   0.808   1.143
  654SOL    HW2 2646   3.306   0.835   1.161
  654SOL    HW3 2647   3.402   0.812   1.047
  654SOL    MW4 2648   3.384   0.812   1.133
  655SOL     OW 2649   3.153   0.880   1.221
  655SOL    HW2 2650   3.129   0.886   1.313
  655SOL    HW3 2651   3.138   0.968   1.186
  655SOL    MW4 2652   3.148   0.893   1.228
  656SOL     OW 2653   3.144   1.158   1.142
  656SOL    HW2 2654   3.231   1.189   1.166
  656SOL    HW3 2655   3.084   1.211   1.195
  656SOL    MW4 2656   3.147   1.169   1.152
  657SOL     OW 2657   3.378   1.280   1.213
  657SOL    HW2 2658   3.385   1.301   1.306
  657SOL    HW3 2659   3.384   1.365   1.168
  657SOL    MW4 2660   3.380   1.294   1.219
  658SOL     OW 2661   3.427   1.524   1.078
  658SOL    HW2 2662   3.503   1.566   1.119
  658SOL    HW3 2663   3.352   1.574   1.110
  658SOL    MW4 2664   3.427   1.536   1.087
  659SOL     OW 2665   3.207   1.676   1.199
  659SOL    HW2 2666   3.176   1.667   1.289
  659SOL    HW3 2667   3.177   1.763   1.172
  659SOL    MW4 2668   3.199   1.686   1.208
  660SOL     OW 2669   3.163   1.937   1.118
  660SOL    HW2 2670   3.230   1.963   1.181
  660SOL    HW3 2671   3.086   1.987   1.143
  660SOL    MW4 2672   3.162   1.947   1.130
  661SOL     OW 2673   3.392   2.022   1.251
  661SOL    HW2 2674   3.447   1.961   1.201
  661SOL    HW3 2675   3.411   2.108   1.213
  661SOL    MW4 2676   3.402   2.025   1.239
  662SOL     OW 2677   3.407   2.251   1.105
  662SOL    HW2 2678   3.469   2.299   1.160
  662SOL    HW3 2679   3.322   2.289   1.126
  662SOL    MW4 2680   3.404   2.262   1.115
  663SOL     OW 2681   3.184   2.398   1.216
  663SOL    HW2 2682   3.188   2.399   1.312
  663SOL    HW3 2683   3.190   2.490   1.191
  663SOL    MW4 2684   3.186   2.410   1.226
  664SOL     OW 2685   3.164   2.687   1.164
  664SOL    HW2 2686   3.079   2.707   1.201
  664SOL    HW3 2687   3.157   2.712   1.072
  664SOL    MW4 2688   3.152   2.693   1.157
  665SOL     OW 2689   3.412   2.805   1.238
  665SOL    HW2 2690   3.392   2.889   1.197
  665SOL    HW3 2691   3.336   2.751   1.222
  665SOL    MW4 2692   3.400   2.809   1.231
  666SOL     OW 2693   3.358   3.043   1.094
  666SOL    HW2 2694   3.432   3.088   1.133
  666SOL    HW3 2695   3.281   3.092   1.124
  666SOL    MW4 2696   3.358   3.055   1.103
  667SOL     OW 2697   3.149   3.221   1.184
  667SOL    HW2 2698   3.135   3.313   1.161
  667SOL    HW3 2699   3.065   3.179   1.165
  667SOL    MW4 2700   3.136   3.228   1.178
  668SOL     OW 2701   3.135   3.487   1.113
  668SOL    HW2 2702   3.202   3.548   1.144
  668SOL    HW3 2703   3.139   3.493   1.018
  668SOL    MW4 2704   3.144   3.496   1.105
  669SOL     OW 2705   3.330   3.648   1.224
  669SOL    HW2 2706   3.330   3.634   1.318
  669SOL    HW3 2707   3.413   3.612   1.194
  669SOL    MW4 2708   3.341   3.642   1.232
  670SOL     OW 2709   3.376   3.908   1.102
  670SOL    HW2 2710   3.299   3.954   1.134
  670SOL    HW3 2711   3.369   3.820   1.139
  670SOL    MW4 2712   3.365   3.903   1.111
  671SOL     OW 2713   3.130   4.008   1.181
  671SOL    HW2 2714   3.143   3.998   1.275
  671SOL    HW3 2715   3.144   4.101   1.164
  671SOL    MW4 2716   3.133   4.019   1.191
  672SOL     OW 2717   3.141   4.264   1.117
  672SOL    HW2 2718   3.227   4.298   1.143
  672SOL    HW3 2719   3.143   4.264   1.021
  672SOL    MW4 2720   3.152   4.269   1.108
  673SOL     OW 2721   3.376   4.397   1.211
  673SOL    HW2 2722   3.454   4.363   1.166
  673SOL    HW3 2723   3.364   4.485   1.175
  673SOL    MW4 2724   3.385   4.404   1.200
  674SOL     OW 2725   3.853   0.027   1.130
  674SOL    HW2 2726   3.840  -0.061   1.164
  674SOL    HW3 2727   3.835   0.019   1.036
  674SOL    MW4 2728   3.849   0.014   1.122
  675SOL     OW 2729   3.594   0.124   1.192
  675SOL    HW2 2730   3.594   0.218   1.173
  675SOL    HW3 2731   3.678   0.093   1.158
  675SOL    MW4 2732   3.605   0.132   1.185
  676SOL     OW 2733   3.603   0.394   1.097
  676SOL    HW2 2734   3.687   0.435   1.118
  676SOL    HW3 2735   3.537   0.454   1.134
  676SOL    MW4 2736   3.605   0.408   1.105
  677SOL     OW 2737   3.827   0.506   1.229
  677SOL    HW2 2738   3.907   0.469   1.191
  677SOL    HW3 2739   3.832   0.600   1.208
  677SOL    MW4 2740   3.838   0.514   1.221
  678SOL     OW 2741   3.818   0.765   1.132
  678SOL    HW2 2742   3.897   0.810   1.163
  678SOL    HW3 2743   3.746   0.820   1.163
  678SOL    MW4 2744   3.819   0.778   1.140
  679SOL     OW 2745   3.627   0.927   1.245
  679SOL    HW2 2746   3.606   1.018   1.225
  679SOL    HW3 2747   3.547   0.879   1.222
  679SOL    MW4 2748   3.613   0.933   1.239
  680SOL     OW 2749   3.587   1.164   1.109
  680SOL    HW2 2750   3.651   1.227   1.140
  680SOL    HW3 2751   3.502   1.202   1.132
  680SOL    MW4 2752   3.584   1.177   1.117
  681SOL     OW 2753   3.831   1.271   1.202
  681SOL    HW2 2754   3.835   1.275   1.298
  681SOL    HW3 2755   3.844   1.362   1.174
  681SOL    MW4 2756   3.833   1.284   1.211
  682SOL     OW 2757   3.893   1.533   1.117
  682SOL    HW2 2758   3.949   1.597   1.162
  682SOL    HW3 2759   3.894   1.561   1.025
  682SOL    MW4 2760   3.901   1.545   1.111
  683SOL     OW 2761   3.648   1.632   1.224
  683SOL    HW2 2762   3.632   1.720   1.191
  683SOL    HW3 2763   3.725   1.602   1.176
  683SOL    MW4 2764   3.656   1.640   1.213
  684SOL     OW 2765   3.584   1.878   1.093
  684SOL    HW2 2766   3.649   1.940   1.127
  684SOL    HW3 2767   3.581   1.896   0.999
  684SOL    MW4 2768   3.592   1.889   1.085
  685SOL     OW 2769   3.773   2.067   1.211
  685SOL    HW2 2770   3.777   2.057   1.306
  685SOL    HW3 2771   3.854   2.027   1.180
  685SOL    MW4 2772   3.784   2.060   1.220
  686SOL     OW 2773   3.864   2.307   1.133
  686SOL    HW2 2774   3.926   2.343   1.195
  686SOL    HW3 2775   3.841   2.221   1.168
  686SOL    MW4 2776   3.869   2.301   1.146
  687SOL     OW 2777   3.627   2.426   1.196
  687SOL    HW2 2778   3.630   2.408   1.290
  687SOL    HW3 2779   3.717   2.409   1.166
  687SOL    MW4 2780   3.640   2.421   1.205
  688SOL     OW 2781   3.586   2.674   1.087
  688SOL    HW2 2782   3.598   2.594   1.137
  688SOL    HW3 2783   3.517   2.722   1.134
  688SOL    MW4 2784   3.578   2.670   1.100
  689SOL     OW 2785   3.788   2.825   1.201
  689SOL    HW2 2786   3.784   2.818   1.296
  689SOL    HW3 2787   3.722   2.763   1.170
  689SOL    MW4 2788   3.779   2.816   1.210
  690SOL     OW 2789   3.806   3.096   1.126
  690SOL    HW2 2790   3.800   3.004   1.153
  690SOL    HW3 2791   3.803   3.093   1.030
  690SOL    MW4 2792   3.805   3.083   1.117
  691SOL     OW 2793   3.553   3.199   1.234
  691SOL    HW2 2794   3.561   3.290   1.206
  691SOL    HW3 2795   3.635   3.159   1.206
  691SOL    MW4 2796   3.565   3.206   1.226
  692SOL     OW 2797   3.570   3.477   1.133
  692SOL    HW2 2798   3.655   3.517   1.150
  692SOL    HW3 2799   3.560   3.480   1.038
  692SOL    MW4 2800   3.579   3.483   1.123
  693SOL     OW 2801   3.801   3.605   1.208
  693SOL    HW2 2802   3.800   3.596   1.303
  693SOL    HW3 2803   3.803   3.700   1.193
  693SOL    MW4 2804   3.802   3.617   1.218
  694SOL     OW 2805   3.847   3.871   1.123
  694SOL    HW2 2806   3.764   3.909   1.154
  694SOL    HW3 2807   3.836   3.861   1.029
  694SOL    MW4 2808   3.835   3.875   1.115
  695SOL     OW 2809   3.616   4.012   1.204
  695SOL    HW2 2810   3.621   3.994   1.297
  695SOL    HW3 2811   3.528   3.985   1.178
  695SOL    MW4 2812   3.605   4.006   1.213
  696SOL     OW 2813   3.608   4.271   1.143
  696SOL    HW2 2814   3.619   4.180   1.168
  696SOL    HW3 2815   3.586   4.268   1.050
  696SOL    MW4 2816   3.606   4.259   1.134
  697SOL     OW 2817   3.798   4.442   1.223
  697SOL    HW2 2818   3.795   4.421   1.317
  697SOL    HW3 2819   3.733   4.384   1.184
  697SOL    MW4 2820   3.789   4.431   1.231
  698SOL     OW 2821   4.249   4.639   1.104
  698SOL    HW2 2822   4.249   4.558   1.155
  698SOL    HW3 2823   4.190   4.697   1.151
  698SOL    MW4 2824   4.241   4.636   1.117
  699SOL     OW 2825   4.067   0.137   1.249
  699SOL    HW2 2826   4.051   0.145   1.343
  699SOL    HW3 2827   3.987   0.098   1.214
  699SOL    MW4 2828   4.054   0.133   1.256
  700SOL     OW 2829   4.062   0.380   1.132
  700SOL    HW2 2830   4.060   0.288   1.160
  700SOL    HW3 2831   4.028   0.379   1.043
  700SOL    MW4 2832   4.058   0.368   1.124
  701SOL     OW 2833   4.289   0.514   1.189
  701SOL    HW2 2834   4.306   0.501   1.282
  701SOL    HW3 2835   4.207   0.466   1.173
  701SOL    MW4 2836   4.281   0.506   1.199
  702SOL     OW 2837   4.281   0.768   1.102
  702SOL    HW2 2838   4.287   0.675   1.126
  702SOL    HW3 2839   4.283   0.768   1.006
  702SOL    MW4 2840   4.282   0.755   1.092
  703SOL     OW 2841   4.068   0.902   1.223
  703SOL    HW2 2842   4.067   0.898   1.318
  703SOL    HW3 2843   4.151   0.860   1.198
  703SOL    MW4 2844   4.079   0.896   1.232
  704SOL     OW 2845   4.067   1.168   1.124
  704SOL    HW2 2846   4.072   1.075   1.143
  704SOL    HW3 2847   3.982   1.195   1.158
  704SOL    MW4 2848   4.056   1.160   1.131
  705SOL     OW 2849   4.281   1.279   1.245
  705SOL    HW2 2850   4.276   1.267   1.340
  705SOL    HW3 2851   4.199   1.244   1.212
  705SOL    MW4 2852   4.270   1.272   1.253
  706SOL     OW 2853   4.287   1.555   1.153
  706SOL    HW2 2854   4.286   1.463   1.181
  706SOL    HW3 2855   4.378   1.583   1.167
  706SOL    MW4 2856   4.299   1.546   1.158
  707SOL     OW 2857   4.064   1.701   1.248
  707SOL    HW2 2858   4.066   1.697   1.344
  707SOL    HW3 2859   4.148   1.663   1.221
  707SOL    MW4 2860   4.076   1.696   1.257
  708SOL     OW 2861   4.025   1.962   1.156
  708SOL    HW2 2862   4.032   1.881   1.205
  708SOL    HW3 2863   4.047   1.938   1.066
  708SOL    MW4 2864   4.029   1.948   1.151
  709SOL     OW 2865   4.277   2.031   1.216
  709SOL    HW2 2866   4.299   2.124   1.205
  709SOL    HW3 2867   4.187   2.023   1.184
  709SOL    MW4 2868   4.268   2.042   1.210
  710SOL     OW 2869   4.321   2.306   1.202
  710SOL    HW2 2870   4.243   2.342   1.245
  710SOL    HW3 2871   4.303   2.314   1.109
  710SOL    MW4 2872   4.308   2.312   1.196
  711SOL     OW 2873   4.084   2.403   1.288
  711SOL    HW2 2874   4.060   2.407   1.381
  711SOL    HW3 2875   4.073   2.492   1.256
  711SOL    MW4 2876   4.079   2.415   1.296
  712SOL     OW 2877   4.056   2.666   1.171
  712SOL    HW2 2878   3.983   2.721   1.198
  712SOL    HW3 2879   4.058   2.673   1.076
  712SOL    MW4 2880   4.047   2.675   1.162
  713SOL     OW 2881   4.257   2.840   1.267
  713SOL    HW2 2882   4.254   2.916   1.209
  713SOL    HW3 2883   4.189   2.782   1.234
  713SOL    MW4 2884   4.248   2.843   1.255
  714SOL     OW 2885   4.256   3.072   1.119
  714SOL    HW2 2886   4.182   3.124   1.153
  714SOL    HW3 2887   4.253   3.086   1.024
  714SOL    MW4 2888   4.246   3.081   1.111
  715SOL     OW 2889   4.031   3.199   1.216
  715SOL    HW2 2890   4.024   3.206   1.312
  715SOL    HW3 2891   3.948   3.159   1.190
  715SOL    MW4 2892   4.019   3.195   1.225
  716SOL     OW 2893   4.021   3.455   1.116
  716SOL    HW2 2894   4.021   3.368   1.156
  716SOL    HW3 2895   3.942   3.497   1.149
  716SOL    MW4 2896   4.010   3.450   1.126
  717SOL     OW 2897   4.234   3.595   1.247
  717SOL    HW2 2898   4.164   3.553   1.197
  717SOL    HW3 2899   4.313   3.546   1.223
  717SOL    MW4 2900   4.235   3.583   1.237
  718SOL     OW 2901   4.265   3.870   1.180
  718SOL    HW2 2902   4.187   3.921   1.202
  718SOL    HW3 2903   4.244   3.781   1.208
  718SOL    MW4 2904   4.252   3.865   1.187
  719SOL     OW 2905   4.037   4.050   1.235
  719SOL    HW2 2906   4.042   4.135   1.191
  719SOL    HW3 2907   3.976   3.999   1.182
  719SOL    MW4 2908   4.030   4.055   1.222
  720SOL     OW 2909   4.042   4.308   1.135
  720SOL    HW2 2910   3.962   4.354   1.158
  720SOL    HW3 2911   4.050   4.318   1.040
  720SOL    MW4 2912   4.033   4.316   1.125
  721SOL     OW 2913   4.255   4.420   1.271
  721SOL    HW2 2914   4.185   4.376   1.223
  721SOL    HW3 2915   4.335   4.378   1.241
  721SOL    MW4 2916   4.256   4.409   1.261
  722SOL     OW 2917   0.197   4.653   1.642
  722SOL    HW2 2918   0.280   4.701   1.639
  722SOL    HW3 2919   0.137   4.707   1.591
  722SOL    MW4 2920   0.200   4.666   1.635
  723SOL     OW 2921   4.482   0.105   1.486
  723SOL    HW2 2922   4.393   0.082   1.511
  723SOL    HW3 2923   4.478   0.122   1.392
  723SOL    MW4 2924   4.470   0.104   1.477
  724SOL     OW 2925   0.029   0.362   1.582
  724SOL    HW2 2926   0.010   0.355   1.676
  724SOL    HW3 2927   0.015   0.273   1.549
  724SOL    MW4 2928   0.025   0.349   1.590
  725SOL     OW 2929   0.266   0.458   1.477
  725SOL    HW2 2930   0.191   0.429   1.530
  725SOL    HW3 2931   0.229   0.472   1.390
  725SOL    MW4 2932   0.251   0.456   1.472
  726SOL     OW 2933   0.238   0.735   1.610
  726SOL    HW2 2934   0.324   0.767   1.584
  726SOL    HW3 2935   0.237   0.644   1.581
  726SOL    MW4 2936   0.249   0.727   1.603
  727SOL     OW 2937   0.035   0.875   1.458
  727SOL    HW2 2938   0.039   0.949   1.519
  727SOL    HW3 2939   0.111   0.821   1.480
  727SOL    MW4 2940   0.046   0.877   1.469
  728SOL     OW 2941   0.028   1.104   1.620
  728SOL    HW2 2942   0.041   1.110   1.715
  728SOL    HW3 2943   0.088   1.168   1.583
  728SOL    MW4 2944   0.038   1.113   1.628
  729SOL     OW 2945   0.261   1.261   1.462
  729SOL    HW2 2946   0.257   1.346   1.506
  729SOL    HW3 2947   0.275   1.282   1.370
  729SOL    MW4 2948   0.262   1.275   1.455
  730SOL     OW 2949   0.219   1.514   1.588
  730SOL    HW2 2950   0.216   1.520   1.683
  730SOL    HW3 2951   0.145   1.568   1.558
  730SOL    MW4 2952   0.209   1.522   1.596
  731SOL     OW 2953   0.011   1.667   1.492
  731SOL    HW2 2954   0.015   1.761   1.508
  731SOL    HW3 2955   0.018   1.658   1.397
  731SOL    MW4 2956   0.012   1.678   1.482
  732SOL     OW 2957   4.485   1.923   1.567
  732SOL    HW2 2958   4.480   1.913   1.662
  732SOL    HW3 2959   4.407   1.973   1.543
  732SOL    MW4 2960   4.474   1.929   1.576
  733SOL     OW 2961   0.227   2.061   1.499
  733SOL    HW2 2962   0.149   2.006   1.508
  733SOL    HW3 2963   0.243   2.066   1.405
  733SOL    MW4 2964   0.219   2.055   1.488
  734SOL     OW 2965   0.239   2.316   1.607
  734SOL    HW2 2966   0.218   2.300   1.698
  734SOL    HW3 2967   0.230   2.231   1.564
  734SOL    MW4 2968   0.235   2.303   1.613
  735SOL     OW 2969   0.020   2.459   1.522
  735SOL    HW2 2970  -0.063   2.424   1.553
  735SOL    HW3 2971   0.087   2.404   1.563
  735SOL    MW4 2972   0.018   2.447   1.531
  736SOL     OW 2973   0.034   2.743   1.564
  736SOL    HW2 2974  -0.058   2.764   1.546
  736SOL    HW3 2975   0.045   2.652   1.537
  736SOL    MW4 2976   0.024   2.734   1.558
  737SOL     OW 2977   0.266   2.878   1.493
  737SOL    HW2 2978   0.332   2.829   1.542
  737SOL    HW3 2979   0.182   2.846   1.526
  737SOL    MW4 2980   0.263   2.867   1.504
  738SOL     OW 2981   0.242   3.110   1.619
  738SOL    HW2 2982   0.160   3.152   1.596
  738SOL    HW3 2983   0.245   3.031   1.564
  738SOL    MW4 2984   0.232   3.105   1.608
  739SOL     OW 2985   0.013   3.234   1.505
  739SOL    HW2 2986  -0.014   3.325   1.521
  739SOL    HW3 2987   0.007   3.223   1.411
  739SOL    MW4 2988   0.008   3.244   1.495
  740SOL     OW 2989   4.475   3.488   1.589
  740SOL    HW2 2990   4.464   3.466   1.681
  740SOL    HW3 2991   4.391   3.527   1.563
  740SOL    MW4 2992   4.462   3.490   1.598
  741SOL     OW 2993   0.225   3.609   1.530
  741SOL    HW2 2994   0.221   3.699   1.563
  741SOL    HW3 2995   0.140   3.571   1.554
  741SOL    MW4 2996   0.213   3.616   1.538
  742SOL     OW 2997   0.198   3.881   1.616
  742SOL    HW2 2998   0.209   3.887   1.711
  742SOL    HW3 2999   0.272   3.930   1.580
  742SOL    MW4 3000   0.209   3.888   1.624
  743SOL     OW 3001   4.444   3.997   1.564
  743SOL    HW2 3002   4.456   4.091   1.578
  743SOL    HW3 3003   4.522   3.957   1.604
  743SOL    MW4 3004   4.456   4.004   1.571
  744SOL     OW 3005   0.002   4.265   1.599
  744SOL    HW2 3006  -0.010   4.279   1.693
  744SOL    HW3 3007  -0.079   4.299   1.560
  744SOL    MW4 3008  -0.011   4.271   1.606
  745SOL     OW 3009   0.194   4.422   1.490
  745SOL    HW2 3010   0.122   4.373   1.529
  745SOL    HW3 3011   0.199   4.503   1.542
  745SOL    MW4 3012   0.185   4.426   1.502
  746SOL     OW 3013   0.691   4.661   1.625
  746SOL    HW2 3014   0.765   4.718   1.603
  746SOL    HW3 3015   0.614   4.710   1.595
  746SOL    MW4 3016   0.691   4.675   1.618
  747SOL     OW 3017   0.442   0.114   1.564
  747SOL    HW2 3018   0.462   0.201   1.599
  747SOL    HW3 3019   0.439   0.127   1.469
  747SOL    MW4 3020   0.444   0.128   1.556
  748SOL     OW 3021   0.485   0.379   1.629
  748SOL    HW2 3022   0.566   0.421   1.600
  748SOL    HW3 3023   0.418   0.411   1.568
  748SOL    MW4 3024   0.487   0.389   1.617
  749SOL     OW 3025   0.688   0.512   1.522
  749SOL    HW2 3026   0.688   0.604   1.548
  749SOL    HW3 3027   0.699   0.514   1.426
  749SOL    MW4 3028   0.689   0.524   1.512
  750SOL     OW 3029   0.702   0.785   1.600
  750SOL    HW2 3030   0.713   0.794   1.695
  750SOL    HW3 3031   0.784   0.819   1.564
  750SOL    MW4 3032   0.715   0.791   1.608
  751SOL     OW 3033   0.454   0.856   1.487
  751SOL    HW2 3034   0.446   0.950   1.504
  751SOL    HW3 3035   0.532   0.830   1.537
  751SOL    MW4 3036   0.464   0.865   1.496
  752SOL     OW 3037   0.459   1.123   1.592
  752SOL    HW2 3038   0.537   1.176   1.577
  752SOL    HW3 3039   0.389   1.169   1.545
  752SOL    MW4 3040   0.460   1.136   1.584
  753SOL     OW 3041   0.686   1.277   1.490
  753SOL    HW2 3042   0.690   1.368   1.520
  753SOL    HW3 3043   0.688   1.283   1.395
  753SOL    MW4 3044   0.687   1.290   1.482
  754SOL     OW 3045   0.667   1.566   1.619
  754SOL    HW2 3046   0.743   1.615   1.587
  754SOL    HW3 3047   0.593   1.599   1.568
  754SOL    MW4 3048   0.668   1.577   1.608
  755SOL     OW 3049   0.455   1.651   1.476
  755SOL    HW2 3050   0.450   1.739   1.514
  755SOL    HW3 3051   0.386   1.601   1.521
  755SOL    MW4 3052   0.445   1.656   1.487
  756SOL     OW 3053   0.464   1.892   1.612
  756SOL    HW2 3054   0.443   1.887   1.705
  756SOL    HW3 3055   0.391   1.940   1.573
  756SOL    MW4 3056   0.452   1.898   1.619
  757SOL     OW 3057   0.672   2.078   1.544
  757SOL    HW2 3058   0.751   2.033   1.575
  757SOL    HW3 3059   0.600   2.022   1.574
  757SOL    MW4 3060   0.673   2.064   1.552
  758SOL     OW 3061   0.688   2.344   1.603
  758SOL    HW2 3062   0.606   2.381   1.571
  758SOL    HW3 3063   0.687   2.253   1.571
  758SOL    MW4 3064   0.677   2.337   1.594
  759SOL     OW 3065   0.450   2.479   1.540
  759SOL    HW2 3066   0.438   2.565   1.582
  759SOL    HW3 3067   0.379   2.425   1.575
  759SOL    MW4 3068   0.439   2.484   1.550
  760SOL     OW 3069   0.462   2.734   1.630
  760SOL    HW2 3070   0.473   2.736   1.725
  760SOL    HW3 3071   0.547   2.761   1.596
  760SOL    MW4 3072   0.474   2.738   1.638
  761SOL     OW 3073   0.706   2.841   1.541
  761SOL    HW2 3074   0.684   2.929   1.573
  761SOL    HW3 3075   0.714   2.851   1.447
  761SOL    MW4 3076   0.704   2.854   1.533
  762SOL     OW 3077   0.698   3.107   1.612
  762SOL    HW2 3078   0.772   3.148   1.566
  762SOL    HW3 3079   0.620   3.140   1.566
  762SOL    MW4 3080   0.697   3.117   1.600
  763SOL     OW 3081   0.461   3.212   1.490
  763SOL    HW2 3082   0.377   3.181   1.523
  763SOL    HW3 3083   0.455   3.205   1.395
  763SOL    MW4 3084   0.449   3.207   1.482
  764SOL     OW 3085   0.446   3.474   1.606
  764SOL    HW2 3086   0.453   3.383   1.578
  764SOL    HW3 3087   0.358   3.501   1.580
  764SOL    MW4 3088   0.435   3.466   1.599
  765SOL     OW 3089   0.658   3.641   1.527
  765SOL    HW2 3090   0.738   3.592   1.549
  765SOL    HW3 3091   0.587   3.591   1.568
  765SOL    MW4 3092   0.659   3.628   1.535
  766SOL     OW 3093   0.641   3.891   1.644
  766SOL    HW2 3094   0.717   3.940   1.613
  766SOL    HW3 3095   0.660   3.800   1.621
  766SOL    MW4 3096   0.654   3.886   1.637
  767SOL     OW 3097   0.430   4.042   1.477
  767SOL    HW2 3098   0.495   3.988   1.522
  767SOL    HW3 3099   0.447   4.028   1.384
  767SOL    MW4 3100   0.441   4.033   1.471
  768SOL     OW 3101   0.418   4.304   1.604
  768SOL    HW2 3102   0.411   4.220   1.559
  768SOL    HW3 3103   0.334   4.347   1.588
  768SOL    MW4 3104   0.406   4.299   1.596
  769SOL     OW 3105   0.647   4.430   1.486
  769SOL    HW2 3106   0.573   4.399   1.538
  769SOL    HW3 3107   0.665   4.518   1.520
  769SOL    MW4 3108   0.640   4.438   1.498
  770SOL     OW 3109   1.093   0.032   1.599
  770SOL    HW2 3110   1.091   0.038   1.694
  770SOL    HW3 3111   1.182   0.057   1.575
  770SOL    MW4 3112   1.104   0.036   1.608
  771SOL     OW 3113   0.875   0.163   1.470
  771SOL    HW2 3114   0.887   0.250   1.508
  771SOL    HW3 3115   0.943   0.109   1.512
  771SOL    MW4 3116   0.885   0.167   1.481
  772SOL     OW 3117   0.918   0.399   1.593
  772SOL    HW2 3118   0.928   0.402   1.689
  772SOL    HW3 3119   0.836   0.445   1.576
  772SOL    MW4 3120   0.909   0.406   1.604
  773SOL     OW 3121   1.141   0.525   1.490
  773SOL    HW2 3122   1.132   0.616   1.520
  773SOL    HW3 3123   1.061   0.482   1.520
  773SOL    MW4 3124   1.129   0.531   1.498
  774SOL     OW 3125   1.146   0.780   1.607
  774SOL    HW2 3126   1.155   0.788   1.702
  774SOL    HW3 3127   1.225   0.822   1.572
  774SOL    MW4 3128   1.158   0.787   1.615
  775SOL     OW 3129   0.909   0.919   1.499
  775SOL    HW2 3130   0.993   0.888   1.535
  775SOL    HW3 3131   0.917   0.906   1.405
  775SOL    MW4 3132   0.921   0.913   1.491
  776SOL     OW 3133   0.894   1.178   1.622
  776SOL    HW2 3134   0.886   1.089   1.587
  776SOL    HW3 3135   0.823   1.227   1.581
  776SOL    MW4 3136   0.883   1.173   1.612
  777SOL     OW 3137   1.082   1.345   1.508
  777SOL    HW2 3138   1.168   1.308   1.525
  777SOL    HW3 3139   1.021   1.276   1.533
  777SOL    MW4 3140   1.085   1.331   1.513
  778SOL     OW 3141   1.099   1.591   1.632
  778SOL    HW2 3142   1.178   1.628   1.593
  778SOL    HW3 3143   1.090   1.505   1.590
  778SOL    MW4 3144   1.109   1.585   1.621
  779SOL     OW 3145   0.899   1.708   1.487
  779SOL    HW2 3146   0.969   1.659   1.530
  779SOL    HW3 3147   0.915   1.696   1.394
  779SOL    MW4 3148   0.911   1.700   1.481
  780SOL     OW 3149   0.922   1.946   1.597
  780SOL    HW2 3150   0.998   1.992   1.562
  780SOL    HW3 3151   0.926   1.859   1.557
  780SOL    MW4 3152   0.932   1.941   1.587
  781SOL     OW 3153   1.158   2.051   1.491
  781SOL    HW2 3154   1.225   1.992   1.527
  781SOL    HW3 3155   1.172   2.134   1.536
  781SOL    MW4 3156   1.169   2.054   1.502
  782SOL     OW 3157   1.164   2.311   1.611
  782SOL    HW2 3158   1.235   2.371   1.589
  782SOL    HW3 3159   1.088   2.346   1.565
  782SOL    MW4 3160   1.164   2.323   1.602
  783SOL     OW 3161   0.929   2.426   1.491
  783SOL    HW2 3162   0.935   2.512   1.533
  783SOL    HW3 3163   0.848   2.389   1.524
  783SOL    MW4 3164   0.919   2.432   1.501
  784SOL     OW 3165   0.919   2.699   1.636
  784SOL    HW2 3166   0.902   2.684   1.729
  784SOL    HW3 3167   0.842   2.747   1.606
  784SOL    MW4 3168   0.907   2.704   1.645
  785SOL     OW 3169   1.135   2.800   1.463
  785SOL    HW2 3170   1.137   2.893   1.486
  785SOL    HW3 3171   1.063   2.764   1.515
  785SOL    MW4 3172   1.125   2.807   1.473
  786SOL     OW 3173   1.123   3.073   1.579
  786SOL    HW2 3174   1.131   3.057   1.673
  786SOL    HW3 3175   1.203   3.120   1.557
  786SOL    MW4 3176   1.135   3.077   1.589
  787SOL     OW 3177   0.903   3.230   1.495
  787SOL    HW2 3178   0.982   3.191   1.533
  787SOL    HW3 3179   0.918   3.227   1.401
  787SOL    MW4 3180   0.915   3.224   1.488
  788SOL     OW 3181   0.883   3.514   1.602
  788SOL    HW2 3182   0.947   3.571   1.560
  788SOL    HW3 3183   0.895   3.429   1.558
  788SOL    MW4 3184   0.893   3.510   1.591
  789SOL     OW 3185   1.102   3.661   1.502
  789SOL    HW2 3186   1.172   3.607   1.539
  789SOL    HW3 3187   1.115   3.654   1.408
  789SOL    MW4 3188   1.113   3.653   1.495
  790SOL     OW 3189   1.126   3.903   1.628
  790SOL    HW2 3190   1.214   3.939   1.615
  790SOL    HW3 3191   1.124   3.825   1.573
  790SOL    MW4 3192   1.137   3.898   1.619
  791SOL     OW 3193   0.858   4.015   1.553
  791SOL    HW2 3194   0.853   4.109   1.572
  791SOL    HW3 3195   0.938   3.986   1.597
  791SOL    MW4 3196   0.868   4.023   1.562
  792SOL     OW 3197   0.877   4.300   1.603
  792SOL    HW2 3198   0.886   4.324   1.695
  792SOL    HW3 3199   0.799   4.347   1.573
  792SOL    MW4 3200   0.868   4.309   1.611
  793SOL     OW 3201   1.096   4.427   1.488
  793SOL    HW2 3202   1.015   4.381   1.509
  793SOL    HW3 3203   1.089   4.511   1.534
  793SOL    MW4 3204   1.084   4.432   1.497
  794SOL     OW 3205   1.564   0.013   1.639
  794SOL    HW2 3206   1.560   0.020   1.734
  794SOL    HW3 3207   1.481   0.048   1.608
  794SOL    MW4 3208   1.553   0.018   1.648
  795SOL     OW 3209   1.336   0.133   1.522
  795SOL    HW2 3210   1.336   0.224   1.550
  795SOL    HW3 3211   1.336   0.137   1.426
  795SOL    MW4 3212   1.336   0.145   1.513
  796SOL     OW 3213   1.349   0.402   1.617
  796SOL    HW2 3214   1.417   0.466   1.597
  796SOL    HW3 3215   1.270   0.438   1.577
  796SOL    MW4 3216   1.347   0.415   1.609
  797SOL     OW 3217   1.565   0.559   1.520
  797SOL    HW2 3218   1.630   0.508   1.567
  797SOL    HW3 3219   1.574   0.533   1.429
  797SOL    MW4 3220   1.575   0.549   1.514
  798SOL     OW 3221   1.615   0.800   1.633
  798SOL    HW2 3222   1.588   0.770   1.720
  798SOL    HW3 3223   1.621   0.720   1.581
  798SOL    MW4 3224   1.612   0.786   1.638
  799SOL     OW 3225   1.364   0.923   1.506
  799SOL    HW2 3226   1.449   0.905   1.547
  799SOL    HW3 3227   1.379   0.910   1.413
  799SOL    MW4 3228   1.377   0.919   1.499
  800SOL     OW 3229   1.324   1.189   1.573
  800SOL    HW2 3230   1.325   1.194   1.669
  800SOL    HW3 3231   1.321   1.095   1.555
  800SOL    MW4 3232   1.324   1.177   1.583
  801SOL     OW 3233   1.565   1.286   1.491
  801SOL    HW2 3234   1.477   1.256   1.510
  801SOL    HW3 3235   1.564   1.304   1.397
  801SOL    MW4 3236   1.553   1.285   1.481
  802SOL     OW 3237   1.562   1.565   1.596
  802SOL    HW2 3238   1.574   1.570   1.691
  802SOL    HW3 3239   1.554   1.472   1.578
  802SOL    MW4 3240   1.563   1.554   1.606
  803SOL     OW 3241   1.321   1.668   1.494
  803SOL    HW2 3242   1.398   1.620   1.527
  803SOL    HW3 3243   1.320   1.649   1.401
  803SOL    MW4 3244   1.331   1.659   1.486
  804SOL     OW 3245   1.370   1.916   1.593
  804SOL    HW2 3246   1.370   1.917   1.688
  804SOL    HW3 3247   1.369   1.823   1.570
  804SOL    MW4 3248   1.370   1.904   1.602
  805SOL     OW 3249   1.582   2.064   1.462
  805SOL    HW2 3250   1.522   2.000   1.501
  805SOL    HW3 3251   1.578   2.045   1.368
  805SOL    MW4 3252   1.573   2.053   1.454
  806SOL     OW 3253   1.583   2.307   1.613
  806SOL    HW2 3254   1.643   2.356   1.557
  806SOL    HW3 3255   1.573   2.222   1.569
  806SOL    MW4 3256   1.590   2.302   1.600
  807SOL     OW 3257   1.372   2.483   1.540
  807SOL    HW2 3258   1.361   2.560   1.595
  807SOL    HW3 3259   1.462   2.455   1.556
  807SOL    MW4 3260   1.383   2.489   1.549
  808SOL     OW 3261   1.324   2.736   1.652
  808SOL    HW2 3262   1.400   2.772   1.607
  808SOL    HW3 3263   1.253   2.741   1.588
  808SOL    MW4 3264   1.325   2.741   1.638
  809SOL     OW 3265   1.547   2.862   1.541
  809SOL    HW2 3266   1.624   2.808   1.558
  809SOL    HW3 3267   1.544   2.870   1.446
  809SOL    MW4 3268   1.557   2.856   1.531
  810SOL     OW 3269   1.582   3.135   1.646
  810SOL    HW2 3270   1.652   3.187   1.606
  810SOL    HW3 3271   1.586   3.051   1.600
  810SOL    MW4 3272   1.592   3.131   1.635
  811SOL     OW 3273   1.355   3.229   1.490
  811SOL    HW2 3274   1.343   3.318   1.525
  811SOL    HW3 3275   1.427   3.193   1.542
  811SOL    MW4 3276   1.363   3.236   1.502
  812SOL     OW 3277   1.321   3.495   1.569
  812SOL    HW2 3278   1.313   3.504   1.664
  812SOL    HW3 3279   1.400   3.544   1.547
  812SOL    MW4 3280   1.330   3.503   1.579
  813SOL     OW 3281   1.571   3.599   1.545
  813SOL    HW2 3282   1.582   3.691   1.569
  813SOL    HW3 3283   1.587   3.596   1.451
  813SOL    MW4 3284   1.575   3.611   1.536
  814SOL     OW 3285   1.613   3.893   1.629
  814SOL    HW2 3286   1.607   3.920   1.721
  814SOL    HW3 3287   1.534   3.928   1.589
  814SOL    MW4 3288   1.602   3.901   1.636
  815SOL     OW 3289   1.378   3.993   1.546
  815SOL    HW2 3290   1.366   4.088   1.553
  815SOL    HW3 3291   1.377   3.976   1.451
  815SOL    MW4 3292   1.376   4.003   1.534
  816SOL     OW 3293   1.296   4.257   1.617
  816SOL    HW2 3294   1.360   4.325   1.596
  816SOL    HW3 3295   1.219   4.280   1.566
  816SOL    MW4 3296   1.294   4.269   1.607
  817SOL     OW 3297   1.511   4.422   1.548
  817SOL    HW2 3298   1.583   4.362   1.569
  817SOL    HW3 3299   1.542   4.508   1.576
  817SOL    MW4 3300   1.524   4.425   1.554
  818SOL     OW 3301   2.003   0.004   1.614
  818SOL    HW2 3302   2.009  -0.014   1.708
  818SOL    HW3 3303   1.925   0.058   1.605
  818SOL    MW4 3304   1.993   0.009   1.625
  819SOL     OW 3305   1.791   0.155   1.552
  819SOL    HW2 3306   1.714   0.119   1.596
  819SOL    HW3 3307   1.772   0.148   1.459
  819SOL    MW4 3308   1.779   0.149   1.546
  820SOL     OW 3309   1.776   0.419   1.643
  820SOL    HW2 3310   1.849   0.469   1.607
  820SOL    HW3 3311   1.789   0.330   1.610
  820SOL    MW4 3312   1.787   0.414   1.634
  821SOL     OW 3313   1.977   0.544   1.518
  821SOL    HW2 3314   2.062   0.518   1.553
  821SOL    HW3 3315   1.977   0.639   1.522
  821SOL    MW4 3316   1.988   0.553   1.523
  822SOL     OW 3317   1.991   0.813   1.601
  822SOL    HW2 3318   2.076   0.850   1.579
  822SOL    HW3 3319   1.929   0.864   1.548
  822SOL    MW4 3320   1.994   0.825   1.591
  823SOL     OW 3321   1.775   0.947   1.465
  823SOL    HW2 3322   1.801   1.028   1.510
  823SOL    HW3 3323   1.721   0.901   1.529
  823SOL    MW4 3324   1.771   0.951   1.480
  824SOL     OW 3325   1.797   1.185   1.609
  824SOL    HW2 3326   1.863   1.241   1.569
  824SOL    HW3 3327   1.713   1.221   1.579
  824SOL    MW4 3328   1.794   1.197   1.600
  825SOL     OW 3329   1.983   1.329   1.494
  825SOL    HW2 3330   1.994   1.420   1.521
  825SOL    HW3 3331   2.018   1.326   1.405
  825SOL    MW4 3332   1.989   1.341   1.486
  826SOL     OW 3333   2.016   1.563   1.615
  826SOL    HW2 3334   2.090   1.604   1.571
  826SOL    HW3 3335   1.941   1.618   1.593
  826SOL    MW4 3336   2.016   1.575   1.606
  827SOL     OW 3337   1.793   1.692   1.523
  827SOL    HW2 3338   1.710   1.648   1.544
  827SOL    HW3 3339   1.805   1.676   1.430
  827SOL    MW4 3340   1.783   1.684   1.513
  828SOL     OW 3341   1.805   1.968   1.601
  828SOL    HW2 3342   1.810   1.874   1.583
  828SOL    HW3 3343   1.731   1.998   1.549
  828SOL    MW4 3344   1.796   1.959   1.591
  829SOL     OW 3345   2.027   2.110   1.504
  829SOL    HW2 3346   2.090   2.054   1.550
  829SOL    HW3 3347   1.942   2.086   1.542
  829SOL    MW4 3348   2.024   2.099   1.515
  830SOL     OW 3349   1.991   2.371   1.559
  830SOL    HW2 3350   1.996   2.374   1.654
  830SOL    HW3 3351   2.005   2.279   1.536
  830SOL    MW4 3352   1.994   2.359   1.568
  831SOL     OW 3353   1.761   2.478   1.464
  831SOL    HW2 3354   1.833   2.438   1.513
  831SOL    HW3 3355   1.762   2.434   1.379
  831SOL    MW4 3356   1.771   2.467   1.460
  832SOL     OW 3357   1.793   2.708   1.598
  832SOL    HW2 3358   1.852   2.771   1.557
  832SOL    HW3 3359   1.792   2.633   1.538
  832SOL    MW4 3360   1.800   2.706   1.585
  833SOL     OW 3361   1.968   2.849   1.440
  833SOL    HW2 3362   1.988   2.936   1.475
  833SOL    HW3 3363   2.002   2.849   1.351
  833SOL    MW4 3364   1.975   2.860   1.433
  834SOL     OW 3365   1.999   3.086   1.583
  834SOL    HW2 3366   2.008   3.099   1.677
  834SOL    HW3 3367   2.087   3.097   1.548
  834SOL    MW4 3368   2.012   3.089   1.591
  835SOL     OW 3369   1.780   3.237   1.478
  835SOL    HW2 3370   1.805   3.319   1.520
  835SOL    HW3 3371   1.844   3.173   1.509
  835SOL    MW4 3372   1.792   3.240   1.488
  836SOL     OW 3373   1.842   3.489   1.604
  836SOL    HW2 3374   1.858   3.505   1.697
  836SOL    HW3 3375   1.753   3.521   1.589
  836SOL    MW4 3376   1.832   3.495   1.615
  837SOL     OW 3377   2.039   3.627   1.477
  837SOL    HW2 3378   2.116   3.572   1.493
  837SOL    HW3 3379   1.970   3.588   1.531
  837SOL    MW4 3380   2.040   3.614   1.486
  838SOL     OW 3381   2.056   3.869   1.642
  838SOL    HW2 3382   2.127   3.913   1.596
  838SOL    HW3 3383   2.056   3.780   1.605
  838SOL    MW4 3384   2.066   3.863   1.631
  839SOL     OW 3385   1.841   3.979   1.525
  839SOL    HW2 3386   1.923   3.938   1.553
  839SOL    HW3 3387   1.773   3.933   1.574
  839SOL    MW4 3388   1.843   3.968   1.535
  840SOL     OW 3389   1.780   4.281   1.587
  840SOL    HW2 3390   1.844   4.328   1.534
  840SOL    HW3 3391   1.800   4.188   1.571
  840SOL    MW4 3392   1.791   4.275   1.578
  841SOL     OW 3393   2.018   4.411   1.486
  841SOL    HW2 3394   2.077   4.362   1.544
  841SOL    HW3 3395   2.006   4.495   1.531
  841SOL    MW4 3396   2.025   4.416   1.500
  842SOL     OW 3397   2.429   4.651   1.617
  842SOL    HW2 3398   2.432   4.652   1.713
  842SOL    HW3 3399   2.354   4.707   1.595
  842SOL    MW4 3400   2.419   4.659   1.627
  843SOL     OW 3401   2.207   0.153   1.523
  843SOL    HW2 3402   2.127   0.111   1.553
  843SOL    HW3 3403   2.210   0.137   1.429
  843SOL    MW4 3404   2.197   0.146   1.515
  844SOL     OW 3405   2.203   0.423   1.602
  844SOL    HW2 3406   2.219   0.405   1.695
  844SOL    HW3 3407   2.203   0.336   1.561
  844SOL    MW4 3408   2.205   0.409   1.609
  845SOL     OW 3409   2.460   0.552   1.501
  845SOL    HW2 3410   2.514   0.481   1.535
  845SOL    HW3 3411   2.373   0.535   1.537
  845SOL    MW4 3412   2.455   0.540   1.510
  846SOL     OW 3413   2.464   0.793   1.643
  846SOL    HW2 3414   2.379   0.836   1.639
  846SOL    HW3 3415   2.450   0.707   1.605
  846SOL    MW4 3416   2.451   0.787   1.638
  847SOL     OW 3417   2.240   0.947   1.539
  847SOL    HW2 3418   2.233   1.039   1.564
  847SOL    HW3 3419   2.269   0.948   1.448
  847SOL    MW4 3420   2.243   0.959   1.531
  848SOL     OW 3421   2.245   1.225   1.610
  848SOL    HW2 3422   2.236   1.201   1.702
  848SOL    HW3 3423   2.158   1.254   1.585
  848SOL    MW4 3424   2.232   1.225   1.619
  849SOL     OW 3425   2.477   1.331   1.509
  849SOL    HW2 3426   2.390   1.298   1.533
  849SOL    HW3 3427   2.478   1.326   1.413
  849SOL    MW4 3428   2.465   1.326   1.499
  850SOL     OW 3429   2.457   1.576   1.611
  850SOL    HW2 3430   2.538   1.618   1.584
  850SOL    HW3 3431   2.458   1.490   1.570
  850SOL    MW4 3432   2.468   1.570   1.602
  851SOL     OW 3433   2.239   1.703   1.491
  851SOL    HW2 3434   2.310   1.658   1.536
  851SOL    HW3 3435   2.263   1.699   1.398
  851SOL    MW4 3436   2.252   1.696   1.485
  852SOL     OW 3437   2.216   1.942   1.605
  852SOL    HW2 3438   2.227   1.918   1.697
  852SOL    HW3 3439   2.219   1.859   1.558
  852SOL    MW4 3440   2.218   1.928   1.611
  853SOL     OW 3441   2.456   2.086   1.520
  853SOL    HW2 3442   2.378   2.039   1.551
  853SOL    HW3 3443   2.454   2.077   1.425
  853SOL    MW4 3444   2.445   2.079   1.512
  854SOL     OW 3445   2.457   2.356   1.607
  854SOL    HW2 3446   2.483   2.351   1.699
  854SOL    HW3 3447   2.446   2.265   1.580
  854SOL    MW4 3448   2.459   2.343   1.615
  855SOL     OW 3449   2.249   2.492   1.476
  855SOL    HW2 3450   2.323   2.451   1.520
  855SOL    HW3 3451   2.172   2.454   1.519
  855SOL    MW4 3452   2.248   2.482   1.488
  856SOL     OW 3453   2.186   2.744   1.570
  856SOL    HW2 3454   2.196   2.653   1.542
  856SOL    HW3 3455   2.098   2.767   1.541
  856SOL    MW4 3456   2.176   2.735   1.562
  857SOL     OW 3457   2.434   2.854   1.511
  857SOL    HW2 3458   2.440   2.941   1.549
  857SOL    HW3 3459   2.344   2.826   1.529
  857SOL    MW4 3460   2.423   2.862   1.518
  858SOL     OW 3461   2.472   3.096   1.643
  858SOL    HW2 3462   2.534   3.153   1.596
  858SOL    HW3 3463   2.387   3.118   1.605
  858SOL    MW4 3464   2.469   3.107   1.632
  859SOL     OW 3465   2.242   3.176   1.511
  859SOL    HW2 3466   2.222   3.263   1.546
  859SOL    HW3 3467   2.253   3.190   1.417
  859SOL    MW4 3468   2.241   3.189   1.503
  860SOL     OW 3469   2.201   3.440   1.582
  860SOL    HW2 3470   2.203   3.457   1.676
  860SOL    HW3 3471   2.278   3.486   1.548
  860SOL    MW4 3472   2.211   3.448   1.590
  861SOL     OW 3473   2.410   3.597   1.510
  861SOL    HW2 3474   2.485   3.553   1.550
  861SOL    HW3 3475   2.428   3.690   1.520
  861SOL    MW4 3476   2.422   3.603   1.517
  862SOL     OW 3477   2.466   3.852   1.589
  862SOL    HW2 3478   2.485   3.857   1.683
  862SOL    HW3 3479   2.539   3.898   1.547
  862SOL    MW4 3480   2.478   3.859   1.596
  863SOL     OW 3481   2.256   4.023   1.520
  863SOL    HW2 3482   2.331   3.968   1.542
  863SOL    HW3 3483   2.261   4.034   1.425
  863SOL    MW4 3484   2.266   4.017   1.511
  864SOL     OW 3485   2.241   4.290   1.604
  864SOL    HW2 3486   2.320   4.332   1.570
  864SOL    HW3 3487   2.251   4.198   1.580
  864SOL    MW4 3488   2.253   4.284   1.596
  865SOL     OW 3489   2.494   4.400   1.528
  865SOL    HW2 3490   2.473   4.488   1.561
  865SOL    HW3 3491   2.505   4.412   1.434
  865SOL    MW4 3492   2.493   4.413   1.520
  866SOL     OW 3493   2.893   0.009   1.563
  866SOL    HW2 3494   2.893  -0.001   1.658
  866SOL    HW3 3495   2.806   0.043   1.542
  866SOL    MW4 3496   2.881   0.012   1.573
  867SOL     OW 3497   2.640   0.125   1.500
  867SOL    HW2 3498   2.635   0.208   1.546
  867SOL    HW3 3499   2.567   0.074   1.534
  867SOL    MW4 3500   2.630   0.129   1.510
  868SOL     OW 3501   2.647   0.379   1.614
  868SOL    HW2 3502   2.673   0.385   1.706
  868SOL    HW3 3503   2.723   0.409   1.565
  868SOL    MW4 3504   2.660   0.383   1.619
  869SOL     OW 3505   2.867   0.518   1.538
  869SOL    HW2 3506   2.876   0.604   1.577
  869SOL    HW3 3507   2.888   0.531   1.445
  869SOL    MW4 3508   2.871   0.531   1.531
  870SOL     OW 3509   2.888   0.782   1.604
  870SOL    HW2 3510   2.903   0.778   1.698
  870SOL    HW3 3511   2.813   0.840   1.594
  870SOL    MW4 3512   2.880   0.789   1.615
  871SOL     OW 3513   2.678   0.963   1.519
  871SOL    HW2 3514   2.596   0.932   1.557
  871SOL    HW3 3515   2.669   0.943   1.425
  871SOL    MW4 3516   2.666   0.956   1.511
  872SOL     OW 3517   2.668   1.200   1.659
  872SOL    HW2 3518   2.675   1.117   1.612
  872SOL    HW3 3519   2.603   1.250   1.610
  872SOL    MW4 3520   2.660   1.196   1.647
  873SOL     OW 3521   2.910   1.307   1.573
  873SOL    HW2 3522   2.980   1.247   1.598
  873SOL    HW3 3523   2.832   1.274   1.618
  873SOL    MW4 3524   2.909   1.295   1.582
  874SOL     OW 3525   2.933   1.590   1.601
  874SOL    HW2 3526   2.851   1.622   1.565
  874SOL    HW3 3527   2.920   1.495   1.609
  874SOL    MW4 3528   2.921   1.582   1.598
  875SOL     OW 3529   2.694   1.704   1.519
  875SOL    HW2 3530   2.697   1.794   1.549
  875SOL    HW3 3531   2.710   1.710   1.424
  875SOL    MW4 3532   2.696   1.717   1.510
  876SOL     OW 3533   2.688   1.957   1.613
  876SOL    HW2 3534   2.685   1.943   1.708
  876SOL    HW3 3535   2.605   2.001   1.593
  876SOL    MW4 3536   2.677   1.961   1.623
  877SOL     OW 3537   2.916   2.075   1.500
  877SOL    HW2 3538   2.924   2.159   1.545
  877SOL    HW3 3539   2.839   2.034   1.538
  877SOL    MW4 3540   2.907   2.080   1.511
  878SOL     OW 3541   2.936   2.319   1.612
  878SOL    HW2 3542   2.937   2.318   1.708
  878SOL    HW3 3543   2.861   2.374   1.589
  878SOL    MW4 3544   2.926   2.326   1.622
  879SOL     OW 3545   2.704   2.469   1.511
  879SOL    HW2 3546   2.700   2.552   1.559
  879SOL    HW3 3547   2.628   2.419   1.542
  879SOL    MW4 3548   2.693   2.473   1.521
  880SOL     OW 3549   2.658   2.712   1.613
  880SOL    HW2 3550   2.724   2.767   1.572
  880SOL    HW3 3551   2.575   2.754   1.591
  880SOL    MW4 3552   2.656   2.725   1.605
  881SOL     OW 3553   2.884   2.834   1.528
  881SOL    HW2 3554   2.968   2.798   1.556
  881SOL    HW3 3555   2.897   2.929   1.531
  881SOL    MW4 3556   2.897   2.842   1.532
  882SOL     OW 3557   2.918   3.100   1.572
  882SOL    HW2 3558   2.949   3.108   1.662
  882SOL    HW3 3559   2.983   3.146   1.519
  882SOL    MW4 3560   2.930   3.107   1.577
  883SOL     OW 3561   2.695   3.242   1.500
  883SOL    HW2 3562   2.768   3.184   1.522
  883SOL    HW3 3563   2.692   3.243   1.405
  883SOL    MW4 3564   2.704   3.235   1.491
  884SOL     OW 3565   2.661   3.511   1.594
  884SOL    HW2 3566   2.687   3.504   1.686
  884SOL    HW3 3567   2.676   3.423   1.559
  884SOL    MW4 3568   2.667   3.498   1.602
  885SOL     OW 3569   2.912   3.609   1.499
  885SOL    HW2 3570   2.821   3.587   1.519
  885SOL    HW3 3571   2.915   3.614   1.404
  885SOL    MW4 3572   2.900   3.607   1.489
  886SOL     OW 3573   2.900   3.872   1.583
  886SOL    HW2 3574   2.825   3.914   1.541
  886SOL    HW3 3575   2.898   3.782   1.551
  886SOL    MW4 3576   2.890   3.866   1.573
  887SOL     OW 3577   2.691   4.000   1.473
  887SOL    HW2 3578   2.699   4.087   1.512
  887SOL    HW3 3579   2.694   4.017   1.378
  887SOL    MW4 3580   2.692   4.014   1.465
  888SOL     OW 3581   2.718   4.243   1.623
  888SOL    HW2 3582   2.775   4.309   1.583
  888SOL    HW3 3583   2.631   4.281   1.617
  888SOL    MW4 3584   2.714   4.257   1.617
  889SOL     OW 3585   2.924   4.399   1.495
  889SOL    HW2 3586   2.919   4.492   1.519
  889SOL    HW3 3587   2.934   4.399   1.400
  889SOL    MW4 3588   2.925   4.411   1.486
  890SOL     OW 3589   3.337   0.020   1.609
  890SOL    HW2 3590   3.422   0.052   1.579
  890SOL    HW3 3591   3.344  -0.076   1.601
  890SOL    MW4 3592   3.349   0.011   1.604
  891SOL     OW 3593   3.112   0.154   1.488
  891SOL    HW2 3594   3.182   0.124   1.546
  891SOL    HW3 3595   3.036   0.103   1.514
  891SOL    MW4 3596   3.111   0.143   1.499
  892SOL     OW 3597   3.125   0.422   1.599
  892SOL    HW2 3598   3.126   0.334   1.559
  892SOL    HW3 3599   3.035   0.453   1.588
  892SOL    MW4 3600   3.113   0.414   1.592
  893SOL     OW 3601   3.389   0.517   1.504
  893SOL    HW2 3602   3.301   0.500   1.537
  893SOL    HW3 3603   3.381   0.511   1.409
  893SOL    MW4 3604   3.377   0.514   1.496
  894SOL     OW 3605   3.354   0.781   1.614
  894SOL    HW2 3606   3.348   0.782   1.709
  894SOL    HW3 3607   3.371   0.690   1.592
  894SOL    MW4 3608   3.355   0.769   1.623
  895SOL     OW 3609   3.137   0.892   1.503
  895SOL    HW2 3610   3.213   0.850   1.544
  895SOL    HW3 3611   3.062   0.860   1.553
  895SOL    MW4 3612   3.137   0.882   1.515
  896SOL     OW 3613   3.145   1.156   1.588
  896SOL    HW2 3614   3.145   1.147   1.683
  896SOL    HW3 3615   3.153   1.067   1.555
  896SOL    MW4 3616   3.146   1.143   1.596
  897SOL     OW 3617   3.345   1.304   1.481
  897SOL    HW2 3618   3.415   1.262   1.531
  897SOL    HW3 3619   3.266   1.256   1.505
  897SOL    MW4 3620   3.344   1.292   1.491
  898SOL     OW 3621   3.377   1.572   1.580
  898SOL    HW2 3622   3.365   1.574   1.675
  898SOL    HW3 3623   3.362   1.481   1.556
  898SOL    MW4 3624   3.373   1.560   1.590
  899SOL     OW 3625   3.149   1.706   1.463
  899SOL    HW2 3626   3.221   1.661   1.506
  899SOL    HW3 3627   3.071   1.675   1.510
  899SOL    MW4 3628   3.148   1.696   1.475
  900SOL     OW 3629   3.131   1.964   1.629
  900SOL    HW2 3630   3.150   1.881   1.586
  900SOL    HW3 3631   3.052   1.996   1.586
  900SOL    MW4 3632   3.123   1.957   1.617
  901SOL     OW 3633   3.386   2.027   1.531
  901SOL    HW2 3634   3.296   2.012   1.559
  901SOL    HW3 3635   3.386   2.007   1.438
  901SOL    MW4 3636   3.374   2.023   1.523
  902SOL     OW 3637   3.381   2.293   1.613
  902SOL    HW2 3638   3.462   2.315   1.567
  902SOL    HW3 3639   3.362   2.204   1.586
  902SOL    MW4 3640   3.389   2.284   1.603
  903SOL     OW 3641   3.160   2.451   1.527
  903SOL    HW2 3642   3.231   2.402   1.569
  903SOL    HW3 3643   3.080   2.415   1.566
  903SOL    MW4 3644   3.159   2.440   1.538
  904SOL     OW 3645   3.124   2.715   1.613
  904SOL    HW2 3646   3.200   2.754   1.570
  904SOL    HW3 3647   3.122   2.624   1.583
  904SOL    MW4 3648   3.134   2.708   1.604
  905SOL     OW 3649   3.356   2.816   1.506
  905SOL    HW2 3650   3.339   2.908   1.527
  905SOL    HW3 3651   3.377   2.816   1.412
  905SOL    MW4 3652   3.357   2.828   1.496
  906SOL     OW 3653   3.341   3.089   1.608
  906SOL    HW2 3654   3.358   3.085   1.702
  906SOL    HW3 3655   3.422   3.123   1.570
  906SOL    MW4 3656   3.354   3.093   1.616
  907SOL     OW 3657   3.136   3.234   1.473
  907SOL    HW2 3658   3.203   3.193   1.528
  907SOL    HW3 3659   3.163   3.215   1.383
  907SOL    MW4 3660   3.148   3.226   1.469
  908SOL     OW 3661   3.159   3.478   1.589
  908SOL    HW2 3662   3.155   3.392   1.548
  908SOL    HW3 3663   3.078   3.521   1.562
  908SOL    MW4 3664   3.148   3.472   1.580
  909SOL     OW 3665   3.378   3.613   1.508
  909SOL    HW2 3666   3.448   3.550   1.525
  909SOL    HW3 3667   3.300   3.572   1.545
  909SOL    MW4 3668   3.377   3.599   1.515
  910SOL     OW 3669   3.357   3.883   1.623
  910SOL    HW2 3670   3.273   3.906   1.584
  910SOL    HW3 3671   3.367   3.790   1.604
  910SOL    MW4 3672   3.347   3.874   1.615
  911SOL     OW 3673   3.132   3.998   1.467
  911SOL    HW2 3674   3.143   4.081   1.514
  911SOL    HW3 3675   3.052   3.961   1.504
  911SOL    MW4 3676   3.123   4.004   1.478
  912SOL     OW 3677   3.134   4.253   1.581
  912SOL    HW2 3678   3.134   4.253   1.676
  912SOL    HW3 3679   3.064   4.313   1.556
  912SOL    MW4 3680   3.125   4.261   1.590
  913SOL     OW 3681   3.354   4.414   1.554
  913SOL    HW2 3682   3.283   4.351   1.566
  913SOL    HW3 3683   3.353   4.434   1.461
  913SOL    MW4 3684   3.345   4.408   1.544
  914SOL     OW 3685   3.799   4.659   1.577
  914SOL    HW2 3686   3.784   4.670   1.671
  914SOL    HW3 3687   3.869   4.721   1.557
  914SOL    MW4 3688   3.806   4.669   1.587
  915SOL     OW 3689   3.567   0.109   1.492
  915SOL    HW2 3690   3.649   0.068   1.522
  915SOL    HW3 3691   3.573   0.105   1.396
  915SOL    MW4 3692   3.579   0.103   1.483
  916SOL     OW 3693   3.604   0.365   1.594
  916SOL    HW2 3694   3.579   0.280   1.557
  916SOL    HW3 3695   3.532   0.424   1.569
  916SOL    MW4 3696   3.591   0.361   1.586
  917SOL     OW 3697   3.838   0.490   1.524
  917SOL    HW2 3698   3.772   0.428   1.553
  917SOL    HW3 3699   3.841   0.479   1.429
  917SOL    MW4 3700   3.830   0.480   1.515
  918SOL     OW 3701   3.843   0.755   1.613
  918SOL    HW2 3702   3.771   0.807   1.578
  918SOL    HW3 3703   3.823   0.665   1.587
  918SOL    MW4 3704   3.831   0.750   1.605
  919SOL     OW 3705   3.590   0.915   1.553
  919SOL    HW2 3706   3.504   0.879   1.572
  919SOL    HW3 3707   3.597   0.913   1.457
  919SOL    MW4 3708   3.580   0.910   1.543
  920SOL     OW 3709   3.583   1.192   1.588
  920SOL    HW2 3710   3.666   1.226   1.555
  920SOL    HW3 3711   3.581   1.101   1.557
  920SOL    MW4 3712   3.594   1.184   1.580
  921SOL     OW 3713   3.827   1.256   1.476
  921SOL    HW2 3714   3.893   1.193   1.505
  921SOL    HW3 3715   3.847   1.336   1.524
  921SOL    MW4 3716   3.838   1.258   1.486
  922SOL     OW 3717   3.854   1.485   1.598
  922SOL    HW2 3718   3.827   1.462   1.687
  922SOL    HW3 3719   3.780   1.535   1.563
  922SOL    MW4 3720   3.841   1.489   1.605
  923SOL     OW 3721   3.630   1.621   1.516
  923SOL    HW2 3722   3.541   1.596   1.540
  923SOL    HW3 3723   3.631   1.618   1.420
  923SOL    MW4 3724   3.619   1.617   1.507
  924SOL     OW 3725   3.595   1.875   1.650
  924SOL    HW2 3726   3.603   1.792   1.602
  924SOL    HW3 3727   3.508   1.907   1.629
  924SOL    MW4 3728   3.585   1.868   1.641
  925SOL     OW 3729   3.798   2.021   1.492
  925SOL    HW2 3730   3.790   2.098   1.547
  925SOL    HW3 3731   3.724   1.966   1.518
  925SOL    MW4 3732   3.787   2.024   1.503
  926SOL     OW 3733   3.838   2.268   1.620
  926SOL    HW2 3734   3.818   2.284   1.712
  926SOL    HW3 3735   3.906   2.332   1.599
  926SOL    MW4 3736   3.845   2.279   1.630
  927SOL     OW 3737   3.619   2.394   1.475
  927SOL    HW2 3738   3.600   2.481   1.513
  927SOL    HW3 3739   3.695   2.363   1.524
  927SOL    MW4 3740   3.626   2.402   1.487
  928SOL     OW 3741   3.562   2.661   1.579
  928SOL    HW2 3742   3.553   2.666   1.675
  928SOL    HW3 3743   3.494   2.720   1.546
  928SOL    MW4 3744   3.552   2.669   1.588
  929SOL     OW 3745   3.801   2.807   1.479
  929SOL    HW2 3746   3.880   2.783   1.527
  929SOL    HW3 3747   3.731   2.760   1.524
  929SOL    MW4 3748   3.802   2.798   1.491
  930SOL     OW 3749   3.787   3.046   1.603
  930SOL    HW2 3750   3.871   3.088   1.586
  930SOL    HW3 3751   3.790   2.964   1.555
  930SOL    MW4 3752   3.799   3.041   1.595
  931SOL     OW 3753   3.567   3.216   1.515
  931SOL    HW2 3754   3.627   3.146   1.540
  931SOL    HW3 3755   3.545   3.198   1.424
  931SOL    MW4 3756   3.572   3.204   1.506
  932SOL     OW 3757   3.603   3.462   1.602
  932SOL    HW2 3758   3.691   3.491   1.577
  932SOL    HW3 3759   3.598   3.371   1.573
  932SOL    MW4 3760   3.614   3.454   1.595
  933SOL     OW 3761   3.830   3.544   1.492
  933SOL    HW2 3762   3.900   3.504   1.544
  933SOL    HW3 3763   3.822   3.632   1.528
  933SOL    MW4 3764   3.838   3.550   1.504
  934SOL     OW 3765   3.787   3.823   1.566
  934SOL    HW2 3766   3.867   3.870   1.541
  934SOL    HW3 3767   3.717   3.886   1.550
  934SOL    MW4 3768   3.788   3.838   1.561
  935SOL     OW 3769   3.567   3.993   1.481
  935SOL    HW2 3770   3.589   4.082   1.507
  935SOL    HW3 3771   3.499   3.966   1.543
  935SOL    MW4 3772   3.561   4.001   1.493
  936SOL     OW 3773   3.599   4.257   1.564
  936SOL    HW2 3774   3.618   4.264   1.657
  936SOL    HW3 3775   3.521   4.310   1.550
  936SOL    MW4 3776   3.591   4.265   1.574
  937SOL     OW 3777   3.842   4.396   1.509
  937SOL    HW2 3778   3.759   4.356   1.534
  937SOL    HW3 3779   3.832   4.488   1.531
  937SOL    MW4 3780   3.830   4.403   1.515
  938SOL     OW 3781   4.239   0.022   1.597
  938SOL    HW2 3782   4.228   0.031   1.691
  938SOL    HW3 3783   4.243  -0.072   1.582
  938SOL    MW4 3784   4.238   0.011   1.607
  939SOL     OW 3785   4.014   0.151   1.523
  939SOL    HW2 3786   4.048   0.240   1.524
  939SOL    HW3 3787   4.087   0.097   1.554
  939SOL    MW4 3788   4.028   0.156   1.527
  940SOL     OW 3789   4.101   0.421   1.594
  940SOL    HW2 3790   4.103   0.425   1.689
  940SOL    HW3 3791   4.019   0.463   1.570
  940SOL    MW4 3792   4.091   0.427   1.603
  941SOL     OW 3793   4.319   0.474   1.450
  941SOL    HW2 3794   4.242   0.455   1.502
  941SOL    HW3 3795   4.391   0.432   1.497
  941SOL    MW4 3796   4.319   0.466   1.463
  942SOL     OW 3797   4.301   0.728   1.591
  942SOL    HW2 3798   4.322   0.636   1.573
  942SOL    HW3 3799   4.368   0.777   1.544
  942SOL    MW4 3800   4.312   0.722   1.582
  943SOL     OW 3801   4.079   0.876   1.496
  943SOL    HW2 3802   4.150   0.818   1.524
  943SOL    HW3 3803   4.000   0.839   1.537
  943SOL    MW4 3804   4.078   0.863   1.505
  944SOL     OW 3805   4.051   1.120   1.606
  944SOL    HW2 3806   4.043   1.119   1.701
  944SOL    HW3 3807   4.060   1.028   1.582
  944SOL    MW4 3808   4.051   1.108   1.615
  945SOL     OW 3809   4.291   1.270   1.537
  945SOL    HW2 3810   4.212   1.217   1.551
  945SOL    HW3 3811   4.363   1.208   1.551
  945SOL    MW4 3812   4.290   1.255   1.541
  946SOL     OW 3813   4.288   1.550   1.627
  946SOL    HW2 3814   4.303   1.465   1.586
  946SOL    HW3 3815   4.358   1.606   1.594
  946SOL    MW4 3816   4.299   1.546   1.617
  947SOL     OW 3817   4.064   1.675   1.530
  947SOL    HW2 3818   4.139   1.624   1.559
  947SOL    HW3 3819   3.988   1.620   1.549
  947SOL    MW4 3820   4.063   1.661   1.536
  948SOL     OW 3821   4.045   1.938   1.596
  948SOL    HW2 3822   4.049   1.844   1.577
  948SOL    HW3 3823   3.961   1.966   1.560
  948SOL    MW4 3824   4.034   1.929   1.589
  949SOL     OW 3825   4.263   2.057   1.484
  949SOL    HW2 3826   4.183   2.018   1.519
  949SOL    HW3 3827   4.253   2.052   1.389
  949SOL    MW4 3828   4.251   2.051   1.476
  950SOL     OW 3829   4.277   2.317   1.605
  950SOL    HW2 3830   4.263   2.296   1.697
  950SOL    HW3 3831   4.270   2.233   1.560
  950SOL    MW4 3832   4.275   2.303   1.611
  951SOL     OW 3833   4.030   2.435   1.563
  951SOL    HW2 3834   4.036   2.526   1.594
  951SOL    HW3 3835   4.111   2.394   1.593
  951SOL    MW4 3836   4.041   2.442   1.571
  952SOL     OW 3837   4.039   2.710   1.596
  952SOL    HW2 3838   4.031   2.733   1.689
  952SOL    HW3 3839   4.124   2.744   1.570
  952SOL    MW4 3840   4.049   2.718   1.605
  953SOL     OW 3841   4.271   2.838   1.536
  953SOL    HW2 3842   4.272   2.928   1.570
  953SOL    HW3 3843   4.268   2.848   1.441
  953SOL    MW4 3844   4.271   2.851   1.528
  954SOL     OW 3845   4.292   3.099   1.610
  954SOL    HW2 3846   4.284   3.114   1.704
  954SOL    HW3 3847   4.378   3.135   1.587
  954SOL    MW4 3848   4.302   3.106   1.619
  955SOL     OW 3849   4.030   3.185   1.505
  955SOL    HW2 3850   4.014   3.267   1.551
  955SOL    HW3 3851   4.118   3.159   1.532
  955SOL    MW4 3852   4.040   3.192   1.515
  956SOL     OW 3853   4.010   3.425   1.639
  956SOL    HW2 3854   4.007   3.437   1.734
  956SOL    HW3 3855   4.099   3.451   1.615
  956SOL    MW4 3856   4.021   3.430   1.649
  957SOL     OW 3857   4.219   3.585   1.527
  957SOL    HW2 3858   4.208   3.672   1.566
  957SOL    HW3 3859   4.200   3.598   1.434
  957SOL    MW4 3860   4.215   3.598   1.520
  958SOL     OW 3861   4.220   3.870   1.627
  958SOL    HW2 3862   4.149   3.929   1.601
  958SOL    HW3 3863   4.300   3.918   1.603
  958SOL    MW4 3864   4.221   3.884   1.620
  959SOL     OW 3865   4.013   4.024   1.505
  959SOL    HW2 3866   4.009   4.105   1.557
  959SOL    HW3 3867   4.046   4.052   1.420
  959SOL    MW4 3868   4.017   4.039   1.501
  960SOL     OW 3869   4.036   4.262   1.643
  960SOL    HW2 3870   4.003   4.268   1.733
  960SOL    HW3 3871   3.976   4.317   1.592
  960SOL    MW4 3872   4.023   4.270   1.648
  961SOL     OW 3873   4.262   4.399   1.540
  961SOL    HW2 3874   4.178   4.374   1.580
  961SOL    HW3 3875   4.242   4.410   1.447
  961SOL    MW4 3876   4.248   4.397   1.533
  962SOL     OW 3877   0.216   4.621   1.930
  962SOL    HW2 3878   0.286   4.686   1.939
  962SOL    HW3 3879   0.188   4.629   1.839
  962SOL    MW4 3880   0.222   4.631   1.919
  963SOL     OW 3881   4.480   0.108   1.967
  963SOL    HW2 3882   4.495   0.197   1.936
  963SOL    HW3 3883   4.562   0.062   1.948
  963SOL    MW4 3884   4.493   0.114   1.961
  964SOL     OW 3885   4.490   0.367   1.870
  964SOL    HW2 3886   4.407   0.388   1.914
  964SOL    HW3 3887   4.550   0.436   1.899
  964SOL    MW4 3888   4.487   0.379   1.880
  965SOL     OW 3889   0.207   0.534   2.003
  965SOL    HW2 3890   0.284   0.508   1.953
  965SOL    HW3 3891   0.190   0.624   1.975
  965SOL    MW4 3892   0.215   0.543   1.993
  966SOL     OW 3893   0.203   0.789   1.890
  966SOL    HW2 3894   0.284   0.831   1.918
  966SOL    HW3 3895   0.212   0.781   1.795
  966SOL    MW4 3896   0.215   0.793   1.881
  967SOL     OW 3897   4.478   0.898   2.011
  967SOL    HW2 3898   4.404   0.864   1.961
  967SOL    HW3 3899   4.554   0.848   1.980
  967SOL    MW4 3900   4.478   0.887   2.000
  968SOL     OW 3901   0.029   1.139   1.885
  968SOL    HW2 3902  -0.053   1.187   1.896
  968SOL    HW3 3903   0.013   1.055   1.927
  968SOL    MW4 3904   0.016   1.134   1.892
  969SOL     OW 3905   0.233   1.280   2.013
  969SOL    HW2 3906   0.231   1.368   1.974
  969SOL    HW3 3907   0.153   1.239   1.983
  969SOL    MW4 3908   0.222   1.286   2.004
  970SOL     OW 3909   0.242   1.536   1.876
  970SOL    HW2 3910   0.320   1.583   1.905
  970SOL    HW3 3911   0.169   1.581   1.919
  970SOL    MW4 3912   0.243   1.548   1.886
  971SOL     OW 3913   0.008   1.661   1.976
  971SOL    HW2 3914   0.015   1.675   2.070
  971SOL    HW3 3915  -0.074   1.612   1.965
  971SOL    MW4 3916  -0.002   1.656   1.987
  972SOL     OW 3917   4.457   1.901   1.850
  972SOL    HW2 3918   4.399   1.944   1.912
  972SOL    HW3 3919   4.482   1.819   1.892
  972SOL    MW4 3920   4.453   1.896   1.863
  973SOL     OW 3921   0.190   2.022   1.988
  973SOL    HW2 3922   0.194   2.116   1.968
  973SOL    HW3 3923   0.116   1.990   1.937
  973SOL    MW4 3924   0.181   2.030   1.979
  974SOL     OW 3925   0.195   2.288   1.896
  974SOL    HW2 3926   0.273   2.333   1.928
  974SOL    HW3 3927   0.125   2.354   1.904
  974SOL    MW4 3928   0.196   2.303   1.901
  975SOL     OW 3929   4.476   2.462   1.983
  975SOL    HW2 3930   4.472   2.467   2.079
  975SOL    HW3 3931   4.492   2.552   1.955
  975SOL    MW4 3932   4.477   2.474   1.992
  976SOL     OW 3933   0.027   2.729   1.875
  976SOL    HW2 3934  -0.047   2.777   1.912
  976SOL    HW3 3935   0.015   2.734   1.781
  976SOL    MW4 3936   0.016   2.736   1.868
  977SOL     OW 3937   0.238   2.856   2.010
  977SOL    HW2 3938   0.213   2.943   1.981
  977SOL    HW3 3939   0.176   2.797   1.966
  977SOL    MW4 3940   0.227   2.860   2.000
  978SOL     OW 3941   0.212   3.111   1.889
  978SOL    HW2 3942   0.292   3.150   1.924
  978SOL    HW3 3943   0.226   3.108   1.794
  978SOL    MW4 3944   0.224   3.115   1.881
  979SOL     OW 3945   0.009   3.272   1.996
  979SOL    HW2 3946  -0.067   3.221   1.966
  979SOL    HW3 3947   0.085   3.221   1.966
  979SOL    MW4 3948   0.009   3.258   1.988
  980SOL     OW 3949   4.462   3.498   1.857
  980SOL    HW2 3950   4.550   3.532   1.875
  980SOL    HW3 3951   4.458   3.415   1.905
  980SOL    MW4 3952   4.473   3.492   1.866
  981SOL     OW 3953   0.200   3.640   1.926
  981SOL    HW2 3954   0.179   3.629   2.019
  981SOL    HW3 3955   0.288   3.604   1.916
  981SOL    MW4 3956   0.209   3.633   1.937
  982SOL     OW 3957   0.193   3.914   1.879
  982SOL    HW2 3958   0.272   3.944   1.923
  982SOL    HW3 3959   0.182   3.823   1.908
  982SOL    MW4 3960   0.202   3.906   1.888
  983SOL     OW 3961   4.446   4.040   1.974
  983SOL    HW2 3962   4.449   4.132   1.949
  983SOL    HW3 3963   4.527   4.003   1.939
  983SOL    MW4 3964   4.457   4.047   1.966
  984SOL     OW 3965   4.490   4.300   1.881
  984SOL    HW2 3966   4.421   4.338   1.935
  984SOL    HW3 3967   4.571   4.319   1.928
  984SOL    MW4 3968   4.492   4.307   1.894
  985SOL     OW 3969   0.244   4.350   1.999
  985SOL    HW2 3970   0.231   4.339   2.093
  985SOL    HW3 3971   0.247   4.445   1.986
  985SOL    MW4 3972   0.243   4.361   2.009
  986SOL     OW 3973   0.661   0.041   1.920
  986SOL    HW2 3974   0.641  -0.047   1.952
  986SOL    HW3 3975   0.666   0.031   1.824
  986SOL    MW4 3976   0.659   0.028   1.911
  987SOL     OW 3977   0.412   0.153   1.954
  987SOL    HW2 3978   0.405   0.246   1.934
  987SOL    HW3 3979   0.504   0.132   1.939
  987SOL    MW4 3980   0.423   0.163   1.949
  988SOL     OW 3981   0.438   0.435   1.899
  988SOL    HW2 3982   0.522   0.469   1.930
  988SOL    HW3 3983   0.457   0.399   1.812
  988SOL    MW4 3984   0.451   0.435   1.891
  989SOL     OW 3985   0.689   0.523   1.972
  989SOL    HW2 3986   0.695   0.513   2.067
  989SOL    HW3 3987   0.768   0.480   1.939
  989SOL    MW4 3988   0.700   0.516   1.981
  990SOL     OW 3989   0.710   0.792   1.888
  990SOL    HW2 3990   0.771   0.844   1.940
  990SOL    HW3 3991   0.720   0.703   1.921
  990SOL    MW4 3992   0.719   0.787   1.899
  991SOL     OW 3993   0.450   0.891   1.981
  991SOL    HW2 3994   0.461   0.983   1.957
  991SOL    HW3 3995   0.534   0.850   1.960
  991SOL    MW4 3996   0.462   0.897   1.975
  992SOL     OW 3997   0.459   1.145   1.866
  992SOL    HW2 3998   0.383   1.195   1.895
  992SOL    HW3 3999   0.447   1.137   1.771
  992SOL    MW4 4000   0.447   1.150   1.857
  993SOL     OW 4001   0.629   1.323   1.985
  993SOL    HW2 4002   0.649   1.316   2.079
  993SOL    HW3 4003   0.566   1.253   1.969
  993SOL    MW4 4004   0.623   1.313   1.996
  994SOL     OW 4005   0.680   1.570   1.886
  994SOL    HW2 4006   0.670   1.480   1.917
  994SOL    HW3 4007   0.675   1.563   1.791
  994SOL    MW4 4008   0.678   1.557   1.878
  995SOL     OW 4009   0.449   1.666   2.007
  995SOL    HW2 4010   0.456   1.660   2.102
  995SOL    HW3 4011   0.537   1.644   1.975
  995SOL    MW4 4012   0.462   1.662   2.015
  996SOL     OW 4013   0.412   1.918   1.892
  996SOL    HW2 4014   0.407   1.830   1.929
  996SOL    HW3 4015   0.329   1.959   1.917
  996SOL    MW4 4016   0.401   1.912   1.900
  997SOL     OW 4017   0.645   2.072   1.946
  997SOL    HW2 4018   0.657   2.064   2.041
  997SOL    HW3 4019   0.563   2.026   1.929
  997SOL    MW4 4020   0.635   2.065   1.956
  998SOL     OW 4021   0.658   2.339   1.873
  998SOL    HW2 4022   0.632   2.248   1.885
  998SOL    HW3 4023   0.651   2.354   1.779
  998SOL    MW4 4024   0.654   2.329   1.862
  999SOL     OW 4025   0.420   2.443   1.996
  999SOL    HW2 4026   0.420   2.457   2.091
  999SOL    HW3 4027   0.503   2.398   1.979
  999SOL    MW4 4028   0.431   2.439   2.007
 1000SOL     OW 4029   0.464   2.721   1.904
 1000SOL    HW2 4030   0.439   2.632   1.929
 1000SOL    HW3 4031   0.396   2.776   1.943
 1000SOL    MW4 4032   0.451   2.716   1.913
 1001SOL     OW 4033   0.685   2.866   1.987
 1001SOL    HW2 4034   0.673   2.858   2.081
 1001SOL    HW3 4035   0.608   2.823   1.949
 1001SOL    MW4 4036   0.673   2.860   1.994
 1002SOL     OW 4037   0.669   3.125   1.883
 1002SOL    HW2 4038   0.689   3.038   1.917
 1002SOL    HW3 4039   0.689   3.120   1.790
 1002SOL    MW4 4040   0.674   3.113   1.875
 1003SOL     OW 4041   0.435   3.218   1.990
 1003SOL    HW2 4042   0.436   3.313   1.981
 1003SOL    HW3 4043   0.516   3.189   1.947
 1003SOL    MW4 4044   0.446   3.226   1.983
 1004SOL     OW 4045   0.454   3.488   1.905
 1004SOL    HW2 4046   0.532   3.527   1.943
 1004SOL    HW3 4047   0.473   3.481   1.811
 1004SOL    MW4 4048   0.467   3.492   1.897
 1005SOL     OW 4049   0.692   3.598   1.995
 1005SOL    HW2 4050   0.765   3.551   1.954
 1005SOL    HW3 4051   0.719   3.689   1.993
 1005SOL    MW4 4052   0.705   3.603   1.989
 1006SOL     OW 4053   0.696   3.875   1.916
 1006SOL    HW2 4054   0.778   3.921   1.933
 1006SOL    HW3 4055   0.679   3.889   1.823
 1006SOL    MW4 4056   0.705   3.883   1.906
 1007SOL     OW 4057   0.451   3.984   1.960
 1007SOL    HW2 4058   0.455   4.071   1.919
 1007SOL    HW3 4059   0.538   3.947   1.945
 1007SOL    MW4 4060   0.463   3.991   1.952
 1008SOL     OW 4061   0.450   4.242   1.864
 1008SOL    HW2 4062   0.373   4.284   1.903
 1008SOL    HW3 4063   0.446   4.266   1.772
 1008SOL    MW4 4064   0.439   4.251   1.857
 1009SOL     OW 4065   0.641   4.416   1.936
 1009SOL    HW2 4066   0.729   4.383   1.919
 1009SOL    HW3 4067   0.583   4.344   1.911
 1009SOL    MW4 4068   0.645   4.402   1.931
 1010SOL     OW 4069   1.112   0.026   1.872
 1010SOL    HW2 4070   1.194   0.059   1.907
 1010SOL    HW3 4071   1.101  -0.060   1.913
 1010SOL    MW4 4072   1.121   0.019   1.882
 1011SOL     OW 4073   0.901   0.154   1.984
 1011SOL    HW2 4074   0.975   0.107   1.945
 1011SOL    HW3 4075   0.823   0.109   1.950
 1011SOL    MW4 4076   0.901   0.142   1.974
 1012SOL     OW 4077   0.911   0.401   1.901
 1012SOL    HW2 4078   0.981   0.451   1.941
 1012SOL    HW3 4079   0.915   0.315   1.944
 1012SOL    MW4 4080   0.921   0.396   1.912
 1013SOL     OW 4081   1.105   0.548   2.010
 1013SOL    HW2 4082   1.180   0.506   1.968
 1013SOL    HW3 4083   1.110   0.639   1.980
 1013SOL    MW4 4084   1.115   0.555   2.000
 1014SOL     OW 4085   1.141   0.801   1.915
 1014SOL    HW2 4086   1.219   0.855   1.932
 1014SOL    HW3 4087   1.068   0.854   1.945
 1014SOL    MW4 4088   1.142   0.815   1.921
 1015SOL     OW 4089   0.919   0.932   2.006
 1015SOL    HW2 4090   0.894   0.930   2.098
 1015SOL    HW3 4091   0.924   1.025   1.985
 1015SOL    MW4 4092   0.916   0.944   2.015
 1016SOL     OW 4093   0.889   1.203   1.925
 1016SOL    HW2 4094   0.803   1.245   1.925
 1016SOL    HW3 4095   0.910   1.189   1.833
 1016SOL    MW4 4096   0.881   1.206   1.913
 1017SOL     OW 4097   1.125   1.304   2.032
 1017SOL    HW2 4098   1.124   1.393   1.997
 1017SOL    HW3 4099   1.036   1.272   2.018
 1017SOL    MW4 4100   1.113   1.312   2.026
 1018SOL     OW 4101   1.115   1.554   1.905
 1018SOL    HW2 4102   1.034   1.595   1.935
 1018SOL    HW3 4103   1.112   1.563   1.809
 1018SOL    MW4 4104   1.104   1.561   1.896
 1019SOL     OW 4105   0.890   1.683   2.009
 1019SOL    HW2 4106   0.898   1.762   1.957
 1019SOL    HW3 4107   0.815   1.636   1.971
 1019SOL    MW4 4108   0.881   1.687   1.997
 1020SOL     OW 4109   0.889   1.923   1.868
 1020SOL    HW2 4110   0.802   1.953   1.892
 1020SOL    HW3 4111   0.892   1.931   1.772
 1020SOL    MW4 4112   0.878   1.928   1.859
 1021SOL     OW 4113   1.114   2.053   1.940
 1021SOL    HW2 4114   1.087   2.144   1.950
 1021SOL    HW3 4115   1.032   2.005   1.924
 1021SOL    MW4 4116   1.099   2.059   1.940
 1022SOL     OW 4117   1.096   2.334   1.894
 1022SOL    HW2 4118   1.171   2.386   1.923
 1022SOL    HW3 4119   1.111   2.321   1.800
 1022SOL    MW4 4120   1.108   2.339   1.885
 1023SOL     OW 4121   0.861   2.456   2.005
 1023SOL    HW2 4122   0.940   2.420   1.965
 1023SOL    HW3 4123   0.789   2.411   1.962
 1023SOL    MW4 4124   0.862   2.446   1.994
 1024SOL     OW 4125   0.893   2.706   1.894
 1024SOL    HW2 4126   0.869   2.621   1.930
 1024SOL    HW3 4127   0.824   2.765   1.924
 1024SOL    MW4 4128   0.881   2.702   1.903
 1025SOL     OW 4129   1.136   2.830   2.015
 1025SOL    HW2 4130   1.112   2.836   2.108
 1025SOL    HW3 4131   1.063   2.782   1.975
 1025SOL    MW4 4132   1.123   2.824   2.022
 1026SOL     OW 4133   1.135   3.047   1.864
 1026SOL    HW2 4134   1.080   3.106   1.916
 1026SOL    HW3 4135   1.139   2.967   1.916
 1026SOL    MW4 4136   1.128   3.044   1.878
 1027SOL     OW 4137   0.909   3.220   1.982
 1027SOL    HW2 4138   0.902   3.235   2.076
 1027SOL    HW3 4139   0.821   3.192   1.955
 1027SOL    MW4 4140   0.896   3.218   1.991
 1028SOL     OW 4141   0.932   3.500   1.882
 1028SOL    HW2 4142   0.905   3.411   1.905
 1028SOL    HW3 4143   0.920   3.505   1.788
 1028SOL    MW4 4144   0.927   3.489   1.873
 1029SOL     OW 4145   1.155   3.641   1.986
 1029SOL    HW2 4146   1.136   3.634   2.080
 1029SOL    HW3 4147   1.084   3.593   1.944
 1029SOL    MW4 4148   1.143   3.634   1.993
 1030SOL     OW 4149   1.137   3.912   1.895
 1030SOL    HW2 4150   1.146   3.826   1.936
 1030SOL    HW3 4151   1.125   3.894   1.802
 1030SOL    MW4 4152   1.136   3.899   1.888
 1031SOL     OW 4153   0.911   4.038   1.973
 1031SOL    HW2 4154   0.903   4.036   2.068
 1031SOL    HW3 4155   0.996   3.999   1.955
 1031SOL    MW4 4156   0.921   4.032   1.983
 1032SOL     OW 4157   0.883   4.307   1.882
 1032SOL    HW2 4158   0.955   4.354   1.923
 1032SOL    HW3 4159   0.889   4.219   1.918
 1032SOL    MW4 4160   0.893   4.302   1.892
 1033SOL     OW 4161   1.100   4.428   1.977
 1033SOL    HW2 4162   1.118   4.399   2.067
 1033SOL    HW3 4163   1.172   4.393   1.925
 1033SOL    MW4 4164   1.112   4.419   1.982
 1034SOL     OW 4165   1.576   0.015   1.912
 1034SOL    HW2 4166   1.662   0.045   1.941
 1034SOL    HW3 4167   1.567  -0.073   1.950
 1034SOL    MW4 4168   1.586   0.007   1.921
 1035SOL     OW 4169   1.335   0.149   1.992
 1035SOL    HW2 4170   1.341   0.132   2.086
 1035SOL    HW3 4171   1.421   0.124   1.958
 1035SOL    MW4 4172   1.347   0.143   2.000
 1036SOL     OW 4173   1.320   0.412   1.909
 1036SOL    HW2 4174   1.317   0.325   1.949
 1036SOL    HW3 4175   1.321   0.395   1.815
 1036SOL    MW4 4176   1.319   0.399   1.902
 1037SOL     OW 4177   1.544   0.538   2.043
 1037SOL    HW2 4178   1.616   0.490   2.001
 1037SOL    HW3 4179   1.465   0.506   2.000
 1037SOL    MW4 4180   1.543   0.528   2.032
 1038SOL     OW 4181   1.563   0.765   1.903
 1038SOL    HW2 4182   1.640   0.818   1.926
 1038SOL    HW3 4183   1.568   0.690   1.962
 1038SOL    MW4 4184   1.574   0.762   1.914
 1039SOL     OW 4185   1.373   0.938   1.996
 1039SOL    HW2 4186   1.367   0.926   2.090
 1039SOL    HW3 4187   1.439   0.875   1.967
 1039SOL    MW4 4188   1.381   0.928   2.004
 1040SOL     OW 4189   1.309   1.190   1.854
 1040SOL    HW2 4190   1.335   1.101   1.878
 1040SOL    HW3 4191   1.250   1.218   1.924
 1040SOL    MW4 4192   1.305   1.182   1.866
 1041SOL     OW 4193   1.539   1.284   1.977
 1041SOL    HW2 4194   1.550   1.376   1.956
 1041SOL    HW3 4195   1.454   1.260   1.939
 1041SOL    MW4 4196   1.529   1.293   1.969
 1042SOL     OW 4197   1.561   1.557   1.877
 1042SOL    HW2 4198   1.643   1.594   1.911
 1042SOL    HW3 4199   1.493   1.615   1.912
 1042SOL    MW4 4200   1.563   1.570   1.886
 1043SOL     OW 4201   1.347   1.706   1.992
 1043SOL    HW2 4202   1.372   1.694   2.083
 1043SOL    HW3 4203   1.263   1.663   1.983
 1043SOL    MW4 4204   1.339   1.699   2.003
 1044SOL     OW 4205   1.354   1.959   1.874
 1044SOL    HW2 4206   1.348   1.876   1.922
 1044SOL    HW3 4207   1.268   1.999   1.885
 1044SOL    MW4 4208   1.342   1.953   1.882
 1045SOL     OW 4209   1.551   2.128   1.998
 1045SOL    HW2 4210   1.558   2.216   1.960
 1045SOL    HW3 4211   1.483   2.085   1.947
 1045SOL    MW4 4212   1.543   2.134   1.986
 1046SOL     OW 4213   1.542   2.370   1.883
 1046SOL    HW2 4214   1.629   2.408   1.892
 1046SOL    HW3 4215   1.541   2.333   1.794
 1046SOL    MW4 4216   1.553   2.370   1.872
 1047SOL     OW 4217   1.311   2.479   1.984
 1047SOL    HW2 4218   1.335   2.571   1.975
 1047SOL    HW3 4219   1.386   2.431   1.948
 1047SOL    MW4 4220   1.324   2.485   1.978
 1048SOL     OW 4221   1.390   2.733   1.918
 1048SOL    HW2 4222   1.311   2.761   1.964
 1048SOL    HW3 4223   1.366   2.733   1.825
 1048SOL    MW4 4224   1.377   2.736   1.912
 1049SOL     OW 4225   1.620   2.881   2.012
 1049SOL    HW2 4226   1.692   2.836   1.968
 1049SOL    HW3 4227   1.542   2.831   1.987
 1049SOL    MW4 4228   1.619   2.868   2.003
 1050SOL     OW 4229   1.589   3.133   1.913
 1050SOL    HW2 4230   1.612   3.043   1.935
 1050SOL    HW3 4231   1.571   3.131   1.819
 1050SOL    MW4 4232   1.589   3.121   1.903
 1051SOL     OW 4233   1.334   3.206   1.996
 1051SOL    HW2 4234   1.424   3.179   1.978
 1051SOL    HW3 4235   1.280   3.145   1.945
 1051SOL    MW4 4236   1.339   3.194   1.987
 1052SOL     OW 4237   1.335   3.477   1.851
 1052SOL    HW2 4238   1.330   3.390   1.890
 1052SOL    HW3 4239   1.270   3.528   1.899
 1052SOL    MW4 4240   1.326   3.472   1.862
 1053SOL     OW 4241   1.593   3.594   1.969
 1053SOL    HW2 4242   1.578   3.596   2.063
 1053SOL    HW3 4243   1.511   3.560   1.932
 1053SOL    MW4 4244   1.580   3.590   1.976
 1054SOL     OW 4245   1.582   3.885   1.913
 1054SOL    HW2 4246   1.660   3.928   1.950
 1054SOL    HW3 4247   1.594   3.793   1.933
 1054SOL    MW4 4248   1.594   3.879   1.921
 1055SOL     OW 4249   1.356   4.051   1.983
 1055SOL    HW2 4250   1.429   3.989   1.975
 1055SOL    HW3 4251   1.281   4.003   1.947
 1055SOL    MW4 4252   1.356   4.036   1.977
 1056SOL     OW 4253   1.335   4.301   1.882
 1056SOL    HW2 4254   1.342   4.215   1.923
 1056SOL    HW3 4255   1.320   4.283   1.789
 1056SOL    MW4 4256   1.334   4.288   1.875
 1057SOL     OW 4257   1.602   4.394   2.015
 1057SOL    HW2 4258   1.602   4.387   2.110
 1057SOL    HW3 4259   1.516   4.360   1.988
 1057SOL    MW4 4260   1.591   4.388   2.024
 1058SOL     OW 4261   2.025   4.625   1.884
 1058SOL    HW2 4262   2.103   4.665   1.923
 1058SOL    HW3 4263   2.036   4.531   1.900
 1058SOL    MW4 4264   2.037   4.618   1.891
 1059SOL     OW 4265   1.817   0.120   1.985
 1059SOL    HW2 4266   1.817   0.118   2.081
 1059SOL    HW3 4267   1.894   0.068   1.960
 1059SOL    MW4 4268   1.827   0.113   1.994
 1060SOL     OW 4269   1.754   0.380   1.928
 1060SOL    HW2 4270   1.771   0.291   1.959
 1060SOL    HW3 4271   1.754   0.373   1.833
 1060SOL    MW4 4272   1.756   0.367   1.920
 1061SOL     OW 4273   2.015   0.483   1.966
 1061SOL    HW2 4274   2.014   0.574   1.938
 1061SOL    HW3 4275   1.929   0.449   1.943
 1061SOL    MW4 4276   2.004   0.490   1.960
 1062SOL     OW 4277   1.981   0.764   1.896
 1062SOL    HW2 4278   2.063   0.810   1.916
 1062SOL    HW3 4279   1.971   0.773   1.801
 1062SOL    MW4 4280   1.991   0.771   1.886
 1063SOL     OW 4281   1.766   0.907   2.007
 1063SOL    HW2 4282   1.781   0.992   1.965
 1063SOL    HW3 4283   1.832   0.850   1.968
 1063SOL    MW4 4284   1.777   0.911   1.996
 1064SOL     OW 4285   1.780   1.155   1.902
 1064SOL    HW2 4286   1.697   1.194   1.927
 1064SOL    HW3 4287   1.789   1.176   1.809
 1064SOL    MW4 4288   1.771   1.163   1.893
 1065SOL     OW 4289   2.011   1.279   1.973
 1065SOL    HW2 4290   2.084   1.222   1.949
 1065SOL    HW3 4291   1.934   1.224   1.964
 1065SOL    MW4 4292   2.011   1.264   1.969
 1066SOL     OW 4293   2.056   1.561   1.898
 1066SOL    HW2 4294   2.054   1.468   1.921
 1066SOL    HW3 4295   2.055   1.562   1.802
 1066SOL    MW4 4296   2.056   1.549   1.888
 1067SOL     OW 4297   1.819   1.691   1.974
 1067SOL    HW2 4298   1.819   1.781   1.942
 1067SOL    HW3 4299   1.907   1.658   1.953
 1067SOL    MW4 4300   1.831   1.698   1.967
 1068SOL     OW 4301   1.794   1.964   1.889
 1068SOL    HW2 4302   1.720   2.012   1.926
 1068SOL    HW3 4303   1.791   1.982   1.795
 1068SOL    MW4 4304   1.784   1.972   1.882
 1069SOL     OW 4305   2.015   2.103   1.990
 1069SOL    HW2 4306   2.088   2.053   1.952
 1069SOL    HW3 4307   1.937   2.055   1.963
 1069SOL    MW4 4308   2.015   2.090   1.982
 1070SOL     OW 4309   2.050   2.342   1.833
 1070SOL    HW2 4310   2.126   2.385   1.872
 1070SOL    HW3 4311   2.048   2.256   1.875
 1070SOL    MW4 4312   2.060   2.336   1.844
 1071SOL     OW 4313   1.809   2.448   1.947
 1071SOL    HW2 4314   1.807   2.446   2.042
 1071SOL    HW3 4315   1.892   2.408   1.923
 1071SOL    MW4 4316   1.820   2.443   1.956
 1072SOL     OW 4317   1.808   2.718   1.884
 1072SOL    HW2 4318   1.808   2.628   1.914
 1072SOL    HW3 4319   1.810   2.712   1.788
 1072SOL    MW4 4320   1.808   2.706   1.875
 1073SOL     OW 4321   2.026   2.865   1.980
 1073SOL    HW2 4322   2.030   2.850   2.075
 1073SOL    HW3 4323   1.946   2.821   1.952
 1073SOL    MW4 4324   2.016   2.857   1.989
 1074SOL     OW 4325   2.026   3.126   1.854
 1074SOL    HW2 4326   1.953   3.174   1.894
 1074SOL    HW3 4327   2.028   3.043   1.900
 1074SOL    MW4 4328   2.016   3.122   1.865
 1075SOL     OW 4329   1.823   3.257   1.987
 1075SOL    HW2 4330   1.831   3.246   2.082
 1075SOL    HW3 4331   1.736   3.224   1.966
 1075SOL    MW4 4332   1.813   3.251   1.996
 1076SOL     OW 4333   1.835   3.504   1.887
 1076SOL    HW2 4334   1.844   3.423   1.936
 1076SOL    HW3 4335   1.758   3.547   1.924
 1076SOL    MW4 4336   1.826   3.499   1.898
 1077SOL     OW 4337   2.054   3.654   2.011
 1077SOL    HW2 4338   2.054   3.746   1.986
 1077SOL    HW3 4339   1.974   3.618   1.973
 1077SOL    MW4 4340   2.044   3.661   2.003
 1078SOL     OW 4341   2.017   3.902   1.919
 1078SOL    HW2 4342   2.104   3.932   1.944
 1078SOL    HW3 4343   2.024   3.883   1.825
 1078SOL    MW4 4344   2.029   3.904   1.910
 1079SOL     OW 4345   1.799   4.020   2.017
 1079SOL    HW2 4346   1.789   4.100   1.964
 1079SOL    HW3 4347   1.876   3.977   1.980
 1079SOL    MW4 4348   1.808   4.025   2.005
 1080SOL     OW 4349   1.771   4.237   1.859
 1080SOL    HW2 4350   1.722   4.303   1.908
 1080SOL    HW3 4351   1.769   4.266   1.769
 1080SOL    MW4 4352   1.764   4.249   1.854
 1081SOL     OW 4353   2.022   4.352   1.965
 1081SOL    HW2 4354   2.104   4.306   1.945
 1081SOL    HW3 4355   1.957   4.313   1.907
 1081SOL    MW4 4356   2.025   4.341   1.955
 1082SOL     OW 4357   2.470   4.631   1.917
 1082SOL    HW2 4358   2.553   4.677   1.924
 1082SOL    HW3 4359   2.492   4.539   1.932
 1082SOL    MW4 4360   2.484   4.625   1.920
 1083SOL     OW 4361   2.252   0.104   1.963
 1083SOL    HW2 4362   2.266   0.114   2.057
 1083SOL    HW3 4363   2.317   0.039   1.936
 1083SOL    MW4 4364   2.262   0.097   1.972
 1084SOL     OW 4365   2.242   0.360   1.862
 1084SOL    HW2 4366   2.263   0.267   1.867
 1084SOL    HW3 4367   2.167   0.372   1.921
 1084SOL    MW4 4368   2.235   0.350   1.871
 1085SOL     OW 4369   2.452   0.509   1.989
 1085SOL    HW2 4370   2.532   0.469   1.954
 1085SOL    HW3 4371   2.381   0.457   1.950
 1085SOL    MW4 4372   2.453   0.497   1.979
 1086SOL     OW 4373   2.480   0.763   1.915
 1086SOL    HW2 4374   2.466   0.672   1.939
 1086SOL    HW3 4375   2.475   0.764   1.820
 1086SOL    MW4 4376   2.477   0.751   1.906
 1087SOL     OW 4377   2.227   0.887   1.977
 1087SOL    HW2 4378   2.219   0.905   2.071
 1087SOL    HW3 4379   2.310   0.840   1.969
 1087SOL    MW4 4380   2.237   0.883   1.988
 1088SOL     OW 4381   2.244   1.144   1.892
 1088SOL    HW2 4382   2.310   1.189   1.944
 1088SOL    HW3 4383   2.240   1.055   1.928
 1088SOL    MW4 4384   2.252   1.138   1.903
 1089SOL     OW 4385   2.439   1.287   2.027
 1089SOL    HW2 4386   2.452   1.289   2.122
 1089SOL    HW3 4387   2.480   1.367   1.995
 1089SOL    MW4 4388   2.446   1.298   2.035
 1090SOL     OW 4389   2.485   1.536   1.900
 1090SOL    HW2 4390   2.409   1.586   1.931
 1090SOL    HW3 4391   2.482   1.543   1.805
 1090SOL    MW4 4392   2.475   1.543   1.892
 1091SOL     OW 4393   2.273   1.705   2.001
 1091SOL    HW2 4394   2.267   1.700   2.096
 1091SOL    HW3 4395   2.205   1.646   1.970
 1091SOL    MW4 4396   2.263   1.697   2.009
 1092SOL     OW 4397   2.231   1.955   1.881
 1092SOL    HW2 4398   2.312   2.003   1.896
 1092SOL    HW3 4399   2.239   1.876   1.935
 1092SOL    MW4 4400   2.242   1.951   1.890
 1093SOL     OW 4401   2.470   2.058   1.982
 1093SOL    HW2 4402   2.548   2.018   1.943
 1093SOL    HW3 4403   2.478   2.151   1.962
 1093SOL    MW4 4404   2.482   2.065   1.974
 1094SOL     OW 4405   2.520   2.320   1.883
 1094SOL    HW2 4406   2.592   2.370   1.921
 1094SOL    HW3 4407   2.443   2.376   1.892
 1094SOL    MW4 4408   2.520   2.334   1.889
 1095SOL     OW 4409   2.280   2.463   1.923
 1095SOL    HW2 4410   2.262   2.456   2.017
 1095SOL    HW3 4411   2.263   2.554   1.902
 1095SOL    MW4 4412   2.276   2.474   1.932
 1096SOL     OW 4413   2.232   2.736   1.853
 1096SOL    HW2 4414   2.164   2.779   1.904
 1096SOL    HW3 4415   2.205   2.747   1.762
 1096SOL    MW4 4416   2.220   2.743   1.848
 1097SOL     OW 4417   2.459   2.795   1.992
 1097SOL    HW2 4418   2.476   2.884   1.961
 1097SOL    HW3 4419   2.387   2.764   1.938
 1097SOL    MW4 4420   2.452   2.803   1.980
 1098SOL     OW 4421   2.508   3.061   1.916
 1098SOL    HW2 4422   2.430   3.104   1.951
 1098SOL    HW3 4423   2.497   3.063   1.821
 1098SOL    MW4 4424   2.497   3.067   1.908
 1099SOL     OW 4425   2.286   3.198   1.989
 1099SOL    HW2 4426   2.268   3.193   2.083
 1099SOL    HW3 4427   2.205   3.166   1.948
 1099SOL    MW4 4428   2.273   3.193   1.996
 1100SOL     OW 4429   2.251   3.455   1.860
 1100SOL    HW2 4430   2.267   3.372   1.905
 1100SOL    HW3 4431   2.212   3.512   1.926
 1100SOL    MW4 4432   2.248   3.452   1.874
 1101SOL     OW 4433   2.480   3.592   1.918
 1101SOL    HW2 4434   2.463   3.592   2.012
 1101SOL    HW3 4435   2.422   3.523   1.884
 1101SOL    MW4 4436   2.470   3.583   1.926
 1102SOL     OW 4437   2.488   3.858   1.865
 1102SOL    HW2 4438   2.411   3.888   1.914
 1102SOL    HW3 4439   2.489   3.763   1.878
 1102SOL    MW4 4440   2.478   3.850   1.873
 1103SOL     OW 4441   2.269   3.955   2.011
 1103SOL    HW2 4442   2.266   3.979   2.104
 1103SOL    HW3 4443   2.259   4.039   1.965
 1103SOL    MW4 4444   2.267   3.969   2.017
 1104SOL     OW 4445   2.242   4.210   1.875
 1104SOL    HW2 4446   2.311   4.262   1.915
 1104SOL    HW3 4447   2.251   4.227   1.781
 1104SOL    MW4 4448   2.252   4.219   1.868
 1105SOL     OW 4449   2.467   4.343   1.967
 1105SOL    HW2 4450   2.466   4.357   2.062
 1105SOL    HW3 4451   2.552   4.303   1.949
 1105SOL    MW4 4452   2.478   4.340   1.977
 1106SOL     OW 4453   2.904   0.002   1.844
 1106SOL    HW2 4454   2.971   0.061   1.876
 1106SOL    HW3 4455   2.930  -0.084   1.876
 1106SOL    MW4 4456   2.916  -0.002   1.852
 1107SOL     OW 4457   2.700   0.121   1.977
 1107SOL    HW2 4458   2.722   0.102   2.068
 1107SOL    HW3 4459   2.768   0.076   1.926
 1107SOL    MW4 4460   2.712   0.113   1.982
 1108SOL     OW 4461   2.700   0.386   1.882
 1108SOL    HW2 4462   2.773   0.435   1.919
 1108SOL    HW3 4463   2.709   0.298   1.918
 1108SOL    MW4 4464   2.710   0.381   1.892
 1109SOL     OW 4465   2.927   0.523   1.976
 1109SOL    HW2 4466   3.011   0.483   1.957
 1109SOL    HW3 4467   2.927   0.604   1.925
 1109SOL    MW4 4468   2.938   0.529   1.967
 1110SOL     OW 4469   2.922   0.765   1.872
 1110SOL    HW2 4470   3.000   0.810   1.904
 1110SOL    HW3 4471   2.851   0.798   1.927
 1110SOL    MW4 4472   2.923   0.775   1.884
 1111SOL     OW 4473   2.720   0.889   2.007
 1111SOL    HW2 4474   2.701   0.981   1.988
 1111SOL    HW3 4475   2.641   0.842   1.981
 1111SOL    MW4 4476   2.707   0.895   2.001
 1112SOL     OW 4477   2.675   1.151   1.937
 1112SOL    HW2 4478   2.589   1.182   1.964
 1112SOL    HW3 4479   2.675   1.160   1.842
 1112SOL    MW4 4480   2.664   1.156   1.928
 1113SOL     OW 4481   2.936   1.267   1.998
 1113SOL    HW2 4482   2.945   1.357   1.966
 1113SOL    HW3 4483   2.842   1.247   1.987
 1113SOL    MW4 4484   2.924   1.276   1.992
 1114SOL     OW 4485   2.918   1.546   1.903
 1114SOL    HW2 4486   2.996   1.582   1.944
 1114SOL    HW3 4487   2.929   1.566   1.810
 1114SOL    MW4 4488   2.930   1.553   1.896
 1115SOL     OW 4489   2.697   1.686   2.000
 1115SOL    HW2 4490   2.779   1.646   1.968
 1115SOL    HW3 4491   2.628   1.627   1.968
 1115SOL    MW4 4492   2.699   1.673   1.991
 1116SOL     OW 4493   2.714   1.925   1.877
 1116SOL    HW2 4494   2.797   1.963   1.905
 1116SOL    HW3 4495   2.713   1.837   1.914
 1116SOL    MW4 4496   2.725   1.919   1.885
 1117SOL     OW 4497   2.933   2.064   1.956
 1117SOL    HW2 4498   2.912   2.052   2.049
 1117SOL    HW3 4499   3.004   2.002   1.940
 1117SOL    MW4 4500   2.940   2.054   1.966
 1118SOL     OW 4501   2.930   2.353   1.872
 1118SOL    HW2 4502   3.013   2.371   1.916
 1118SOL    HW3 4503   2.912   2.261   1.890
 1118SOL    MW4 4504   2.938   2.343   1.880
 1119SOL     OW 4505   2.700   2.452   2.022
 1119SOL    HW2 4506   2.710   2.537   1.979
 1119SOL    HW3 4507   2.780   2.405   1.999
 1119SOL    MW4 4508   2.712   2.457   2.013
 1120SOL     OW 4509   2.690   2.696   1.883
 1120SOL    HW2 4510   2.612   2.733   1.925
 1120SOL    HW3 4511   2.670   2.697   1.790
 1120SOL    MW4 4512   2.677   2.701   1.876
 1121SOL     OW 4513   2.934   2.830   1.964
 1121SOL    HW2 4514   2.955   2.906   1.908
 1121SOL    HW3 4515   2.855   2.793   1.926
 1121SOL    MW4 4516   2.927   2.835   1.952
 1122SOL     OW 4517   2.953   3.103   1.861
 1122SOL    HW2 4518   3.018   3.150   1.915
 1122SOL    HW3 4519   2.870   3.119   1.905
 1122SOL    MW4 4520   2.951   3.112   1.874
 1123SOL     OW 4521   2.730   3.213   1.992
 1123SOL    HW2 4522   2.740   3.298   1.949
 1123SOL    HW3 4523   2.650   3.176   1.954
 1123SOL    MW4 4524   2.721   3.219   1.981
 1124SOL     OW 4525   2.721   3.461   1.870
 1124SOL    HW2 4526   2.799   3.503   1.906
 1124SOL    HW3 4527   2.648   3.516   1.900
 1124SOL    MW4 4528   2.722   3.474   1.878
 1125SOL     OW 4529   2.956   3.605   1.970
 1125SOL    HW2 4530   2.938   3.609   2.064
 1125SOL    HW3 4531   3.040   3.559   1.963
 1125SOL    MW4 4532   2.965   3.599   1.981
 1126SOL     OW 4533   2.921   3.870   1.878
 1126SOL    HW2 4534   2.930   3.775   1.888
 1126SOL    HW3 4535   2.915   3.884   1.783
 1126SOL    MW4 4536   2.921   3.860   1.867
 1127SOL     OW 4537   2.692   4.008   1.980
 1127SOL    HW2 4538   2.764   3.949   1.957
 1127SOL    HW3 4539   2.616   3.971   1.936
 1127SOL    MW4 4540   2.692   3.996   1.971
 1128SOL     OW 4541   2.739   4.263   1.893
 1128SOL    HW2 4542   2.723   4.174   1.923
 1128SOL    HW3 4543   2.729   4.258   1.798
 1128SOL    MW4 4544   2.736   4.251   1.884
 1129SOL     OW 4545   2.951   4.414   1.958
 1129SOL    HW2 4546   2.956   4.412   2.054
 1129SOL    HW3 4547   2.881   4.352   1.937
 1129SOL    MW4 4548   2.943   4.406   1.968
 1130SOL     OW 4549   3.370   0.012   1.890
 1130SOL    HW2 4550   3.368  -0.078   1.920
 1130SOL    HW3 4551   3.350   0.007   1.796
 1130SOL    MW4 4552   3.367   0.000   1.881
 1131SOL     OW 4553   3.130   0.157   1.970
 1131SOL    HW2 4554   3.123   0.143   2.065
 1131SOL    HW3 4555   3.216   0.122   1.947
 1131SOL    MW4 4556   3.140   0.151   1.980
 1132SOL     OW 4557   3.161   0.438   1.863
 1132SOL    HW2 4558   3.158   0.347   1.892
 1132SOL    HW3 4559   3.143   0.434   1.769
 1132SOL    MW4 4560   3.158   0.426   1.855
 1133SOL     OW 4561   3.390   0.523   2.022
 1133SOL    HW2 4562   3.466   0.502   1.968
 1133SOL    HW3 4563   3.314   0.498   1.970
 1133SOL    MW4 4564   3.390   0.517   2.008
 1134SOL     OW 4565   3.381   0.755   1.883
 1134SOL    HW2 4566   3.309   0.803   1.923
 1134SOL    HW3 4567   3.382   0.671   1.929
 1134SOL    MW4 4568   3.372   0.750   1.894
 1135SOL     OW 4569   3.152   0.880   1.991
 1135SOL    HW2 4570   3.157   0.880   2.087
 1135SOL    HW3 4571   3.166   0.971   1.966
 1135SOL    MW4 4572   3.154   0.892   2.001
 1136SOL     OW 4573   3.140   1.156   1.859
 1136SOL    HW2 4574   3.219   1.204   1.883
 1136SOL    HW3 4575   3.073   1.189   1.920
 1136SOL    MW4 4576   3.141   1.167   1.870
 1137SOL     OW 4577   3.361   1.300   1.929
 1137SOL    HW2 4578   3.353   1.307   2.024
 1137SOL    HW3 4579   3.348   1.389   1.898
 1137SOL    MW4 4580   3.358   1.313   1.937
 1138SOL     OW 4581   3.330   1.575   1.853
 1138SOL    HW2 4582   3.410   1.588   1.904
 1138SOL    HW3 4583   3.260   1.604   1.912
 1138SOL    MW4 4584   3.331   1.580   1.868
 1139SOL     OW 4585   3.136   1.662   2.032
 1139SOL    HW2 4586   3.133   1.665   2.128
 1139SOL    HW3 4587   3.133   1.754   2.005
 1139SOL    MW4 4588   3.135   1.675   2.041
 1140SOL     OW 4589   3.157   1.906   1.909
 1140SOL    HW2 4590   3.246   1.934   1.928
 1140SOL    HW3 4591   3.145   1.925   1.816
 1140SOL    MW4 4592   3.167   1.912   1.899
 1141SOL     OW 4593   3.382   2.043   2.028
 1141SOL    HW2 4594   3.454   1.987   2.000
 1141SOL    HW3 4595   3.391   2.123   1.975
 1141SOL    MW4 4596   3.392   2.046   2.017
 1142SOL     OW 4597   3.384   2.265   1.886
 1142SOL    HW2 4598   3.318   2.326   1.920
 1142SOL    HW3 4599   3.383   2.278   1.792
 1142SOL    MW4 4600   3.375   2.275   1.878
 1143SOL     OW 4601   3.188   2.436   1.982
 1143SOL    HW2 4602   3.184   2.430   2.077
 1143SOL    HW3 4603   3.164   2.526   1.962
 1143SOL    MW4 4604   3.185   2.447   1.992
 1144SOL     OW 4605   3.152   2.698   1.876
 1144SOL    HW2 4606   3.067   2.734   1.901
 1144SOL    HW3 4607   3.148   2.691   1.780
 1144SOL    MW4 4608   3.141   2.702   1.867
 1145SOL     OW 4609   3.386   2.835   1.948
 1145SOL    HW2 4610   3.387   2.833   2.044
 1145SOL    HW3 4611   3.307   2.787   1.924
 1145SOL    MW4 4612   3.376   2.828   1.958
 1146SOL     OW 4613   3.382   3.083   1.870
 1146SOL    HW2 4614   3.460   3.118   1.912
 1146SOL    HW3 4615   3.385   2.989   1.889
 1146SOL    MW4 4616   3.393   3.075   1.878
 1147SOL     OW 4617   3.169   3.188   2.030
 1147SOL    HW2 4618   3.168   3.279   1.999
 1147SOL    HW3 4619   3.227   3.143   1.968
 1147SOL    MW4 4620   3.176   3.194   2.017
 1148SOL     OW 4621   3.191   3.457   1.897
 1148SOL    HW2 4622   3.268   3.513   1.909
 1148SOL    HW3 4623   3.179   3.453   1.803
 1148SOL    MW4 4624   3.200   3.464   1.886
 1149SOL     OW 4625   3.401   3.628   1.987
 1149SOL    HW2 4626   3.474   3.582   1.944
 1149SOL    HW3 4627   3.397   3.713   1.942
 1149SOL    MW4 4628   3.410   3.633   1.975
 1150SOL     OW 4629   3.397   3.873   1.881
 1150SOL    HW2 4630   3.314   3.900   1.921
 1150SOL    HW3 4631   3.379   3.872   1.787
 1150SOL    MW4 4632   3.384   3.877   1.874
 1151SOL     OW 4633   3.158   3.980   1.974
 1151SOL    HW2 4634   3.137   3.981   2.067
 1151SOL    HW3 4635   3.079   3.945   1.932
 1151SOL    MW4 4636   3.145   3.976   1.981
 1152SOL     OW 4637   3.153   4.255   1.865
 1152SOL    HW2 4638   3.156   4.167   1.903
 1152SOL    HW3 4639   3.079   4.298   1.908
 1152SOL    MW4 4640   3.144   4.249   1.875
 1153SOL     OW 4641   3.386   4.401   1.974
 1153SOL    HW2 4642   3.464   4.374   1.925
 1153SOL    HW3 4643   3.315   4.350   1.935
 1153SOL    MW4 4644   3.387   4.391   1.962
 1154SOL     OW 4645   3.796   0.042   1.881
 1154SOL    HW2 4646   3.796  -0.047   1.917
 1154SOL    HW3 4647   3.718   0.083   1.919
 1154SOL    MW4 4648   3.786   0.036   1.891
 1155SOL     OW 4649   3.585   0.160   2.007
 1155SOL    HW2 4650   3.586   0.144   2.101
 1155SOL    HW3 4651   3.507   0.114   1.976
 1155SOL    MW4 4652   3.575   0.152   2.015
 1156SOL     OW 4653   3.596   0.408   1.880
 1156SOL    HW2 4654   3.598   0.322   1.920
 1156SOL    HW3 4655   3.602   0.391   1.786
 1156SOL    MW4 4656   3.597   0.395   1.873
 1157SOL     OW 4657   3.835   0.502   1.991
 1157SOL    HW2 4658   3.835   0.593   1.961
 1157SOL    HW3 4659   3.755   0.465   1.954
 1157SOL    MW4 4660   3.825   0.509   1.982
 1158SOL     OW 4661   3.818   0.777   1.908
 1158SOL    HW2 4662   3.732   0.809   1.936
 1158SOL    HW3 4663   3.815   0.781   1.813
 1158SOL    MW4 4664   3.806   0.782   1.899
 1159SOL     OW 4665   3.597   0.918   2.004
 1159SOL    HW2 4666   3.610   0.991   1.944
 1159SOL    HW3 4667   3.510   0.884   1.982
 1159SOL    MW4 4668   3.587   0.923   1.993
 1160SOL     OW 4669   3.611   1.168   1.871
 1160SOL    HW2 4670   3.534   1.217   1.899
 1160SOL    HW3 4671   3.614   1.180   1.776
 1160SOL    MW4 4672   3.601   1.176   1.862
 1161SOL     OW 4673   3.832   1.273   2.003
 1161SOL    HW2 4674   3.817   1.272   2.097
 1161SOL    HW3 4675   3.758   1.225   1.966
 1161SOL    MW4 4676   3.820   1.267   2.010
 1162SOL     OW 4677   3.773   1.511   1.897
 1162SOL    HW2 4678   3.852   1.562   1.911
 1162SOL    HW3 4679   3.787   1.430   1.947
 1162SOL    MW4 4680   3.785   1.507   1.906
 1163SOL     OW 4681   3.566   1.645   2.021
 1163SOL    HW2 4682   3.580   1.734   1.989
 1163SOL    HW3 4683   3.645   1.597   1.996
 1163SOL    MW4 4684   3.578   1.650   2.014
 1164SOL     OW 4685   3.580   1.899   1.923
 1164SOL    HW2 4686   3.661   1.943   1.950
 1164SOL    HW3 4687   3.591   1.884   1.829
 1164SOL    MW4 4688   3.592   1.903   1.914
 1165SOL     OW 4689   3.809   2.032   1.968
 1165SOL    HW2 4690   3.894   1.990   1.950
 1165SOL    HW3 4691   3.820   2.122   1.937
 1165SOL    MW4 4692   3.822   2.038   1.962
 1166SOL     OW 4693   3.823   2.306   1.892
 1166SOL    HW2 4694   3.896   2.367   1.904
 1166SOL    HW3 4695   3.751   2.345   1.941
 1166SOL    MW4 4696   3.823   2.319   1.900
 1167SOL     OW 4697   3.593   2.418   1.992
 1167SOL    HW2 4698   3.607   2.493   1.934
 1167SOL    HW3 4699   3.525   2.367   1.949
 1167SOL    MW4 4700   3.586   2.421   1.979
 1168SOL     OW 4701   3.591   2.662   1.854
 1168SOL    HW2 4702   3.655   2.720   1.896
 1168SOL    HW3 4703   3.506   2.700   1.877
 1168SOL    MW4 4704   3.588   2.675   1.863
 1169SOL     OW 4705   3.777   2.842   1.969
 1169SOL    HW2 4706   3.794   2.842   2.064
 1169SOL    HW3 4707   3.798   2.931   1.941
 1169SOL    MW4 4708   3.782   2.854   1.978
 1170SOL     OW 4709   3.827   3.078   1.864
 1170SOL    HW2 4710   3.760   3.126   1.913
 1170SOL    HW3 4711   3.798   3.084   1.772
 1170SOL    MW4 4712   3.814   3.085   1.858
 1171SOL     OW 4713   3.600   3.182   1.983
 1171SOL    HW2 4714   3.582   3.177   2.077
 1171SOL    HW3 4715   3.596   3.276   1.963
 1171SOL    MW4 4716   3.597   3.194   1.993
 1172SOL     OW 4717   3.588   3.449   1.885
 1172SOL    HW2 4718   3.666   3.492   1.920
 1172SOL    HW3 4719   3.591   3.464   1.791
 1172SOL    MW4 4720   3.598   3.456   1.878
 1173SOL     OW 4721   3.809   3.590   1.979
 1173SOL    HW2 4722   3.886   3.538   1.953
 1173SOL    HW3 4723   3.826   3.677   1.943
 1173SOL    MW4 4724   3.822   3.595   1.971
 1174SOL     OW 4725   3.826   3.855   1.892
 1174SOL    HW2 4726   3.749   3.905   1.917
 1174SOL    HW3 4727   3.819   3.846   1.797
 1174SOL    MW4 4728   3.815   3.861   1.882
 1175SOL     OW 4729   3.621   4.052   1.934
 1175SOL    HW2 4730   3.612   4.066   2.028
 1175SOL    HW3 4731   3.554   3.988   1.912
 1175SOL    MW4 4732   3.611   4.045   1.943
 1176SOL     OW 4733   3.617   4.311   1.852
 1176SOL    HW2 4734   3.681   4.357   1.907
 1176SOL    HW3 4735   3.622   4.220   1.880
 1176SOL    MW4 4736   3.626   4.305   1.863
 1177SOL     OW 4737   3.805   4.457   2.005
 1177SOL    HW2 4738   3.802   4.445   2.100
 1177SOL    HW3 4739   3.881   4.406   1.977
 1177SOL    MW4 4740   3.815   4.449   2.014
 1178SOL     OW 4741   4.229   4.653   1.881
 1178SOL    HW2 4742   4.172   4.714   1.928
 1178SOL    HW3 4743   4.317   4.689   1.894
 1178SOL    MW4 4744   4.234   4.666   1.889
 1179SOL     OW 4745   4.026   0.140   1.989
 1179SOL    HW2 4746   4.021   0.123   2.083
 1179SOL    HW3 4747   3.951   0.093   1.952
 1179SOL    MW4 4748   4.015   0.131   1.997
 1180SOL     OW 4749   4.054   0.395   1.870
 1180SOL    HW2 4750   4.037   0.310   1.910
 1180SOL    HW3 4751   3.979   0.449   1.896
 1180SOL    MW4 4752   4.042   0.391   1.879
 1181SOL     OW 4753   4.271   0.506   1.996
 1181SOL    HW2 4754   4.259   0.526   2.089
 1181SOL    HW3 4755   4.189   0.465   1.970
 1181SOL    MW4 4756   4.258   0.503   2.005
 1182SOL     OW 4757   4.278   0.756   1.868
 1182SOL    HW2 4758   4.281   0.670   1.909
 1182SOL    HW3 4759   4.289   0.738   1.774
 1182SOL    MW4 4760   4.280   0.742   1.861
 1183SOL     OW 4761   4.067   0.878   2.013
 1183SOL    HW2 4762   4.147   0.839   1.978
 1183SOL    HW3 4763   3.997   0.840   1.959
 1183SOL    MW4 4764   4.069   0.868   2.001
 1184SOL     OW 4765   4.050   1.128   1.888
 1184SOL    HW2 4766   4.068   1.049   1.938
 1184SOL    HW3 4767   3.971   1.165   1.929
 1184SOL    MW4 4768   4.042   1.123   1.900
 1185SOL     OW 4769   4.302   1.262   1.974
 1185SOL    HW2 4770   4.293   1.256   2.069
 1185SOL    HW3 4771   4.223   1.221   1.940
 1185SOL    MW4 4772   4.290   1.256   1.982
 1186SOL     OW 4773   4.263   1.542   1.901
 1186SOL    HW2 4774   4.263   1.450   1.927
 1186SOL    HW3 4775   4.273   1.540   1.806
 1186SOL    MW4 4776   4.264   1.530   1.892
 1187SOL     OW 4777   4.020   1.643   1.994
 1187SOL    HW2 4778   4.040   1.665   2.085
 1187SOL    HW3 4779   4.103   1.611   1.959
 1187SOL    MW4 4780   4.034   1.642   2.001
 1188SOL     OW 4781   4.053   1.898   1.915
 1188SOL    HW2 4782   4.045   1.804   1.926
 1188SOL    HW3 4783   4.049   1.911   1.820
 1188SOL    MW4 4784   4.052   1.888   1.904
 1189SOL     OW 4785   4.262   2.077   2.007
 1189SOL    HW2 4786   4.254   2.071   2.102
 1189SOL    HW3 4787   4.185   2.032   1.973
 1189SOL    MW4 4788   4.251   2.070   2.015
 1190SOL     OW 4789   4.263   2.331   1.883
 1190SOL    HW2 4790   4.265   2.247   1.929
 1190SOL    HW3 4791   4.332   2.383   1.926
 1190SOL    MW4 4792   4.273   2.327   1.895
 1191SOL     OW 4793   4.041   2.483   1.957
 1191SOL    HW2 4794   4.045   2.472   2.052
 1191SOL    HW3 4795   4.112   2.430   1.923
 1191SOL    MW4 4796   4.051   2.475   1.965
 1192SOL     OW 4797   4.018   2.742   1.868
 1192SOL    HW2 4798   4.021   2.651   1.895
 1192SOL    HW3 4799   3.937   2.776   1.906
 1192SOL    MW4 4800   4.008   2.735   1.876
 1193SOL     OW 4801   4.277   2.829   1.965
 1193SOL    HW2 4802   4.278   2.806   2.058
 1193SOL    HW3 4803   4.195   2.792   1.932
 1193SOL    MW4 4804   4.266   2.821   1.973
 1194SOL     OW 4805   4.292   3.108   1.903
 1194SOL    HW2 4806   4.212   3.139   1.945
 1194SOL    HW3 4807   4.302   3.018   1.933
 1194SOL    MW4 4808   4.283   3.100   1.912
 1195SOL     OW 4809   4.058   3.204   2.009
 1195SOL    HW2 4810   4.030   3.206   2.100
 1195SOL    HW3 4811   3.985   3.161   1.963
 1195SOL    MW4 4812   4.044   3.198   2.015
 1196SOL     OW 4813   4.038   3.453   1.912
 1196SOL    HW2 4814   4.101   3.514   1.950
 1196SOL    HW3 4815   4.050   3.372   1.961
 1196SOL    MW4 4816   4.048   3.450   1.923
 1197SOL     OW 4817   4.226   3.614   1.997
 1197SOL    HW2 4818   4.218   3.707   1.975
 1197SOL    HW3 4819   4.305   3.585   1.953
 1197SOL    MW4 4820   4.235   3.623   1.988
 1198SOL     OW 4821   4.226   3.877   1.899
 1198SOL    HW2 4822   4.294   3.942   1.919
 1198SOL    HW3 4823   4.221   3.876   1.803
 1198SOL    MW4 4824   4.234   3.885   1.889
 1199SOL     OW 4825   3.993   4.032   2.000
 1199SOL    HW2 4826   4.073   3.997   1.961
 1199SOL    HW3 4827   3.923   3.981   1.960
 1199SOL    MW4 4828   3.995   4.020   1.990
 1200SOL     OW 4829   4.005   4.291   1.910
 1200SOL    HW2 4830   4.087   4.318   1.949
 1200SOL    HW3 4831   3.991   4.202   1.942
 1200SOL    MW4 4832   4.014   4.283   1.919
 1201SOL     OW 4833   4.253   4.387   2.015
 1201SOL    HW2 4834   4.261   4.409   2.108
 1201SOL    HW3 4835   4.243   4.472   1.971
 1201SOL    MW4 4836   4.253   4.401   2.021
 1202SOL     OW 4837   0.213   4.622   2.367
 1202SOL    HW2 4838   0.222   4.635   2.462
 1202SOL    HW3 4839   0.291   4.665   2.331
 1202SOL    MW4 4840   0.225   4.630   2.375
 1203SOL     OW 4841   4.487   0.122   2.261
 1203SOL    HW2 4842   4.549   0.052   2.284
 1203SOL    HW3 4843   4.486   0.121   2.165
 1203SOL    MW4 4844   4.496   0.113   2.251
 1204SOL     OW 4845   4.488   0.369   2.363
 1204SOL    HW2 4846   4.573   0.402   2.335
 1204SOL    HW3 4847   4.483   0.281   2.327
 1204SOL    MW4 4848   4.499   0.362   2.355
 1205SOL     OW 4849   0.228   0.499   2.273
 1205SOL    HW2 4850   0.304   0.445   2.293
 1205SOL    HW3 4851   0.232   0.513   2.178
 1205SOL    MW4 4852   0.238   0.494   2.263
 1206SOL     OW 4853   0.198   0.767   2.388
 1206SOL    HW2 4854   0.195   0.766   2.484
 1206SOL    HW3 4855   0.203   0.675   2.363
 1206SOL    MW4 4856   0.199   0.755   2.397
 1207SOL     OW 4857   4.488   0.902   2.277
 1207SOL    HW2 4858   4.564   0.853   2.309
 1207SOL    HW3 4859   4.498   0.901   2.182
 1207SOL    MW4 4860   4.500   0.895   2.269
 1208SOL     OW 4861   0.009   1.173   2.369
 1208SOL    HW2 4862  -0.002   1.152   2.462
 1208SOL    HW3 4863   0.020   1.087   2.326
 1208SOL    MW4 4864   0.009   1.159   2.376
 1209SOL     OW 4865   0.235   1.324   2.292
 1209SOL    HW2 4866   0.157   1.270   2.303
 1209SOL    HW3 4867   0.260   1.312   2.201
 1209SOL    MW4 4868   0.228   1.315   2.281
 1210SOL     OW 4869   0.227   1.585   2.392
 1210SOL    HW2 4870   0.220   1.587   2.487
 1210SOL    HW3 4871   0.245   1.494   2.371
 1210SOL    MW4 4872   0.229   1.573   2.401
 1211SOL     OW 4873   0.037   1.703   2.248
 1211SOL    HW2 4874   0.021   1.781   2.302
 1211SOL    HW3 4875   0.105   1.655   2.295
 1211SOL    MW4 4876   0.044   1.707   2.261
 1212SOL     OW 4877   4.482   1.927   2.419
 1212SOL    HW2 4878   4.405   1.967   2.379
 1212SOL    HW3 4879   4.557   1.971   2.376
 1212SOL    MW4 4880   4.482   1.938   2.408
 1213SOL     OW 4881   0.192   2.048   2.263
 1213SOL    HW2 4882   0.276   2.020   2.298
 1213SOL    HW3 4883   0.195   2.022   2.171
 1213SOL    MW4 4884   0.204   2.041   2.255
 1214SOL     OW 4885   0.203   2.309   2.357
 1214SOL    HW2 4886   0.225   2.302   2.450
 1214SOL    HW3 4887   0.204   2.218   2.326
 1214SOL    MW4 4888   0.206   2.296   2.365
 1215SOL     OW 4889   4.470   2.446   2.252
 1215SOL    HW2 4890   4.465   2.526   2.303
 1215SOL    HW3 4891   4.556   2.408   2.275
 1215SOL    MW4 4892   4.481   2.451   2.262
 1216SOL     OW 4893   4.449   2.694   2.389
 1216SOL    HW2 4894   4.444   2.699   2.485
 1216SOL    HW3 4895   4.514   2.760   2.365
 1216SOL    MW4 4896   4.457   2.703   2.399
 1217SOL     OW 4897   0.182   2.833   2.289
 1217SOL    HW2 4898   0.264   2.800   2.326
 1217SOL    HW3 4899   0.201   2.844   2.196
 1217SOL    MW4 4900   0.195   2.830   2.281
 1218SOL     OW 4901   0.185   3.106   2.344
 1218SOL    HW2 4902   0.111   3.160   2.316
 1218SOL    HW3 4903   0.168   3.020   2.305
 1218SOL    MW4 4904   0.173   3.102   2.336
 1219SOL     OW 4905   4.438   3.252   2.262
 1219SOL    HW2 4906   4.443   3.344   2.287
 1219SOL    HW3 4907   4.475   3.249   2.173
 1219SOL    MW4 4908   4.444   3.264   2.253
 1220SOL     OW 4909   4.461   3.512   2.326
 1220SOL    HW2 4910   4.469   3.511   2.421
 1220SOL    HW3 4911   4.374   3.547   2.309
 1220SOL    MW4 4912   4.451   3.517   2.336
 1221SOL     OW 4913   0.181   3.592   2.197
 1221SOL    HW2 4914   0.256   3.547   2.237
 1221SOL    HW3 4915   0.105   3.557   2.243
 1221SOL    MW4 4916   0.181   3.582   2.209
 1222SOL     OW 4917   0.225   3.837   2.348
 1222SOL    HW2 4918   0.159   3.899   2.318
 1222SOL    HW3 4919   0.208   3.757   2.297
 1222SOL    MW4 4920   0.214   3.834   2.337
 1223SOL     OW 4921   0.025   3.996   2.247
 1223SOL    HW2 4922  -0.001   4.081   2.284
 1223SOL    HW3 4923   0.008   4.006   2.153
 1223SOL    MW4 4924   0.019   4.009   2.239
 1224SOL     OW 4925   4.460   4.245   2.358
 1224SOL    HW2 4926   4.462   4.240   2.454
 1224SOL    HW3 4927   4.543   4.288   2.335
 1224SOL    MW4 4928   4.471   4.250   2.368
 1225SOL     OW 4929   0.226   4.339   2.264
 1225SOL    HW2 4930   0.297   4.290   2.305
 1225SOL    HW3 4931   0.234   4.428   2.300
 1225SOL    MW4 4932   0.237   4.344   2.274
 1226SOL     OW 4933   0.666   4.645   2.309
 1226SOL    HW2 4934   0.665   4.628   2.403
 1226SOL    HW3 4935   0.742   4.702   2.295
 1226SOL    MW4 4936   0.676   4.651   2.319
 1227SOL     OW 4937   0.426   0.088   2.234
 1227SOL    HW2 4938   0.512   0.054   2.260
 1227SOL    HW3 4939   0.438   0.119   2.145
 1227SOL    MW4 4940   0.439   0.087   2.226
 1228SOL     OW 4941   0.445   0.363   2.356
 1228SOL    HW2 4942   0.447   0.371   2.452
 1228SOL    HW3 4943   0.463   0.270   2.340
 1228SOL    MW4 4944   0.448   0.352   2.367
 1229SOL     OW 4945   0.645   0.511   2.250
 1229SOL    HW2 4946   0.618   0.601   2.268
 1229SOL    HW3 4947   0.569   0.458   2.275
 1229SOL    MW4 4948   0.631   0.516   2.256
 1230SOL     OW 4949   0.657   0.778   2.357
 1230SOL    HW2 4950   0.655   0.769   2.452
 1230SOL    HW3 4951   0.582   0.834   2.337
 1230SOL    MW4 4952   0.647   0.784   2.367
 1231SOL     OW 4953   0.426   0.904   2.263
 1231SOL    HW2 4954   0.343   0.866   2.290
 1231SOL    HW3 4955   0.426   0.896   2.167
 1231SOL    MW4 4956   0.415   0.898   2.254
 1232SOL     OW 4957   0.462   1.152   2.363
 1232SOL    HW2 4958   0.438   1.067   2.326
 1232SOL    HW3 4959   0.382   1.205   2.354
 1232SOL    MW4 4960   0.448   1.147   2.357
 1233SOL     OW 4961   0.652   1.320   2.264
 1233SOL    HW2 4962   0.644   1.403   2.309
 1233SOL    HW3 4963   0.587   1.263   2.305
 1233SOL    MW4 4964   0.642   1.323   2.275
 1234SOL     OW 4965   0.661   1.560   2.387
 1234SOL    HW2 4966   0.661   1.555   2.483
 1234SOL    HW3 4967   0.746   1.598   2.365
 1234SOL    MW4 4968   0.672   1.564   2.397
 1235SOL     OW 4969   0.450   1.693   2.280
 1235SOL    HW2 4970   0.525   1.641   2.309
 1235SOL    HW3 4971   0.376   1.660   2.331
 1235SOL    MW4 4972   0.451   1.682   2.291
 1236SOL     OW 4973   0.428   1.961   2.376
 1236SOL    HW2 4974   0.505   2.011   2.350
 1236SOL    HW3 4975   0.450   1.870   2.356
 1236SOL    MW4 4976   0.441   1.956   2.370
 1237SOL     OW 4977   0.674   2.079   2.225
 1237SOL    HW2 4978   0.756   2.054   2.268
 1237SOL    HW3 4979   0.648   2.161   2.268
 1237SOL    MW4 4980   0.681   2.087   2.236
 1238SOL     OW 4981   0.641   2.309   2.366
 1238SOL    HW2 4982   0.655   2.300   2.460
 1238SOL    HW3 4983   0.723   2.347   2.333
 1238SOL    MW4 4984   0.654   2.313   2.374
 1239SOL     OW 4985   0.430   2.461   2.278
 1239SOL    HW2 4986   0.500   2.411   2.319
 1239SOL    HW3 4987   0.349   2.416   2.304
 1239SOL    MW4 4988   0.428   2.448   2.287
 1240SOL     OW 4989   0.427   2.730   2.343
 1240SOL    HW2 4990   0.429   2.728   2.439
 1240SOL    HW3 4991   0.424   2.638   2.317
 1240SOL    MW4 4992   0.427   2.718   2.352
 1241SOL     OW 4993   0.670   2.846   2.274
 1241SOL    HW2 4994   0.730   2.780   2.308
 1241SOL    HW3 4995   0.583   2.807   2.284
 1241SOL    MW4 4996   0.666   2.832   2.280
 1242SOL     OW 4997   0.671   3.099   2.362
 1242SOL    HW2 4998   0.595   3.145   2.328
 1242SOL    HW3 4999   0.678   3.020   2.308
 1242SOL    MW4 5000   0.662   3.095   2.351
 1243SOL     OW 5001   0.430   3.195   2.271
 1243SOL    HW2 5002   0.348   3.154   2.298
 1243SOL    HW3 5003   0.429   3.190   2.176
 1243SOL    MW4 5004   0.419   3.189   2.262
 1244SOL     OW 5005   0.393   3.463   2.330
 1244SOL    HW2 5006   0.454   3.514   2.276
 1244SOL    HW3 5007   0.407   3.372   2.303
 1244SOL    MW4 5008   0.403   3.458   2.319
 1245SOL     OW 5009   0.623   3.598   2.262
 1245SOL    HW2 5010   0.628   3.688   2.293
 1245SOL    HW3 5011   0.640   3.604   2.168
 1245SOL    MW4 5012   0.626   3.611   2.253
 1246SOL     OW 5013   0.668   3.853   2.347
 1246SOL    HW2 5014   0.670   3.870   2.441
 1246SOL    HW3 5015   0.603   3.915   2.313
 1246SOL    MW4 5016   0.660   3.864   2.355
 1247SOL     OW 5017   0.453   3.988   2.238
 1247SOL    HW2 5018   0.382   3.930   2.266
 1247SOL    HW3 5019   0.446   3.991   2.143
 1247SOL    MW4 5020   0.443   3.981   2.229
 1248SOL     OW 5021   0.458   4.238   2.392
 1248SOL    HW2 5022   0.510   4.290   2.330
 1248SOL    HW3 5023   0.441   4.156   2.346
 1248SOL    MW4 5024   0.462   4.234   2.378
 1249SOL     OW 5025   0.622   4.382   2.222
 1249SOL    HW2 5026   0.624   4.476   2.242
 1249SOL    HW3 5027   0.644   4.377   2.129
 1249SOL    MW4 5028   0.625   4.394   2.213
 1250SOL     OW 5029   1.110   4.651   2.347
 1250SOL    HW2 5030   1.131   4.639   2.440
 1250SOL    HW3 5031   1.041   4.717   2.347
 1250SOL    MW4 5032   1.104   4.658   2.359
 1251SOL     OW 5033   0.897   0.138   2.257
 1251SOL    HW2 5034   0.902   0.229   2.284
 1251SOL    HW3 5035   0.907   0.141   2.162
 1251SOL    MW4 5036   0.899   0.150   2.248
 1252SOL     OW 5037   0.861   0.390   2.373
 1252SOL    HW2 5038   0.931   0.447   2.343
 1252SOL    HW3 5039   0.780   0.436   2.348
 1252SOL    MW4 5040   0.859   0.404   2.366
 1253SOL     OW 5041   1.095   0.542   2.289
 1253SOL    HW2 5042   1.162   0.477   2.309
 1253SOL    HW3 5043   1.082   0.535   2.195
 1253SOL    MW4 5044   1.102   0.532   2.279
 1254SOL     OW 5045   1.100   0.796   2.378
 1254SOL    HW2 5046   1.024   0.830   2.331
 1254SOL    HW3 5047   1.103   0.703   2.357
 1254SOL    MW4 5048   1.091   0.788   2.369
 1255SOL     OW 5049   0.871   0.931   2.275
 1255SOL    HW2 5050   0.874   1.007   2.332
 1255SOL    HW3 5051   0.803   0.875   2.314
 1255SOL    MW4 5052   0.862   0.933   2.288
 1256SOL     OW 5053   0.869   1.185   2.396
 1256SOL    HW2 5054   0.952   1.216   2.358
 1256SOL    HW3 5055   0.801   1.228   2.343
 1256SOL    MW4 5056   0.871   1.195   2.384
 1257SOL     OW 5057   1.116   1.260   2.298
 1257SOL    HW2 5058   1.199   1.226   2.332
 1257SOL    HW3 5059   1.135   1.282   2.207
 1257SOL    MW4 5060   1.129   1.258   2.290
 1258SOL     OW 5061   1.133   1.539   2.380
 1258SOL    HW2 5062   1.056   1.584   2.347
 1258SOL    HW3 5063   1.115   1.446   2.366
 1258SOL    MW4 5064   1.121   1.532   2.374
 1259SOL     OW 5065   0.922   1.682   2.283
 1259SOL    HW2 5066   0.889   1.770   2.299
 1259SOL    HW3 5067   0.901   1.665   2.191
 1259SOL    MW4 5068   0.914   1.691   2.273
 1260SOL     OW 5069   0.878   1.934   2.351
 1260SOL    HW2 5070   0.893   1.918   2.444
 1260SOL    HW3 5071   0.963   1.966   2.319
 1260SOL    MW4 5072   0.891   1.936   2.359
 1261SOL     OW 5073   1.143   2.002   2.274
 1261SOL    HW2 5074   1.217   1.960   2.317
 1261SOL    HW3 5075   1.171   2.014   2.183
 1261SOL    MW4 5076   1.156   1.998   2.268
 1262SOL     OW 5077   1.123   2.296   2.356
 1262SOL    HW2 5078   1.191   2.358   2.329
 1262SOL    HW3 5079   1.146   2.214   2.313
 1262SOL    MW4 5080   1.135   2.294   2.347
 1263SOL     OW 5081   0.879   2.432   2.310
 1263SOL    HW2 5082   0.950   2.381   2.349
 1263SOL    HW3 5083   0.879   2.406   2.218
 1263SOL    MW4 5084   0.889   2.422   2.303
 1264SOL     OW 5085   0.887   2.704   2.388
 1264SOL    HW2 5086   0.875   2.692   2.482
 1264SOL    HW3 5087   0.881   2.616   2.351
 1264SOL    MW4 5088   0.885   2.691   2.395
 1265SOL     OW 5089   1.099   2.835   2.294
 1265SOL    HW2 5090   1.174   2.784   2.323
 1265SOL    HW3 5091   1.023   2.790   2.331
 1265SOL    MW4 5092   1.099   2.823   2.303
 1266SOL     OW 5093   1.117   3.106   2.359
 1266SOL    HW2 5094   1.039   3.154   2.330
 1266SOL    HW3 5095   1.104   3.017   2.327
 1266SOL    MW4 5096   1.105   3.101   2.351
 1267SOL     OW 5097   0.885   3.253   2.253
 1267SOL    HW2 5098   0.877   3.341   2.288
 1267SOL    HW3 5099   0.821   3.202   2.304
 1267SOL    MW4 5100   0.875   3.258   2.265
 1268SOL     OW 5101   0.873   3.499   2.359
 1268SOL    HW2 5102   0.888   3.505   2.453
 1268SOL    HW3 5103   0.793   3.550   2.345
 1268SOL    MW4 5104   0.864   3.507   2.370
 1269SOL     OW 5105   1.094   3.620   2.252
 1269SOL    HW2 5106   1.171   3.572   2.283
 1269SOL    HW3 5107   1.019   3.571   2.285
 1269SOL    MW4 5108   1.094   3.607   2.261
 1270SOL     OW 5109   1.106   3.865   2.360
 1270SOL    HW2 5110   1.188   3.906   2.333
 1270SOL    HW3 5111   1.107   3.779   2.317
 1270SOL    MW4 5112   1.117   3.859   2.351
 1271SOL     OW 5113   0.883   4.012   2.252
 1271SOL    HW2 5114   0.953   3.953   2.281
 1271SOL    HW3 5115   0.803   3.974   2.288
 1271SOL    MW4 5116   0.882   3.999   2.261
 1272SOL     OW 5117   0.841   4.263   2.356
 1272SOL    HW2 5118   0.846   4.179   2.311
 1272SOL    HW3 5119   0.780   4.315   2.304
 1272SOL    MW4 5120   0.833   4.259   2.343
 1273SOL     OW 5121   1.089   4.387   2.279
 1273SOL    HW2 5122   1.015   4.346   2.324
 1273SOL    HW3 5123   1.084   4.479   2.303
 1273SOL    MW4 5124   1.078   4.393   2.288
 1274SOL     OW 5125   1.574   4.655   2.377
 1274SOL    HW2 5126   1.655   4.686   2.336
 1274SOL    HW3 5127   1.505   4.685   2.318
 1274SOL    MW4 5128   1.576   4.663   2.364
 1275SOL     OW 5129   1.351   0.115   2.266
 1275SOL    HW2 5130   1.325   0.202   2.297
 1275SOL    HW3 5131   1.277   0.058   2.287
 1275SOL    MW4 5132   1.338   0.119   2.273
 1276SOL     OW 5133   1.293   0.363   2.370
 1276SOL    HW2 5134   1.278   0.378   2.463
 1276SOL    HW3 5135   1.385   0.386   2.355
 1276SOL    MW4 5136   1.303   0.368   2.380
 1277SOL     OW 5137   1.544   0.457   2.305
 1277SOL    HW2 5138   1.635   0.430   2.318
 1277SOL    HW3 5139   1.536   0.473   2.211
 1277SOL    MW4 5140   1.555   0.456   2.294
 1278SOL     OW 5141   1.527   0.738   2.373
 1278SOL    HW2 5142   1.613   0.765   2.344
 1278SOL    HW3 5143   1.521   0.646   2.348
 1278SOL    MW4 5144   1.537   0.729   2.366
 1279SOL     OW 5145   1.330   0.900   2.262
 1279SOL    HW2 5146   1.392   0.842   2.306
 1279SOL    HW3 5147   1.249   0.890   2.312
 1279SOL    MW4 5148   1.327   0.891   2.274
 1280SOL     OW 5149   1.367   1.153   2.372
 1280SOL    HW2 5150   1.363   1.130   2.465
 1280SOL    HW3 5151   1.371   1.068   2.327
 1280SOL    MW4 5152   1.367   1.138   2.378
 1281SOL     OW 5153   1.582   1.258   2.240
 1281SOL    HW2 5154   1.503   1.222   2.282
 1281SOL    HW3 5155   1.562   1.258   2.147
 1281SOL    MW4 5156   1.569   1.254   2.234
 1282SOL     OW 5157   1.562   1.489   2.384
 1282SOL    HW2 5158   1.640   1.533   2.351
 1282SOL    HW3 5159   1.560   1.405   2.339
 1282SOL    MW4 5160   1.572   1.484   2.374
 1283SOL     OW 5161   1.362   1.645   2.272
 1283SOL    HW2 5162   1.427   1.584   2.306
 1283SOL    HW3 5163   1.279   1.615   2.310
 1283SOL    MW4 5164   1.359   1.633   2.282
 1284SOL     OW 5165   1.363   1.892   2.402
 1284SOL    HW2 5166   1.434   1.941   2.358
 1284SOL    HW3 5167   1.366   1.805   2.363
 1284SOL    MW4 5168   1.373   1.887   2.391
 1285SOL     OW 5169   1.547   2.048   2.270
 1285SOL    HW2 5170   1.634   2.017   2.293
 1285SOL    HW3 5171   1.552   2.067   2.176
 1285SOL    MW4 5172   1.559   2.046   2.261
 1286SOL     OW 5173   1.583   2.303   2.342
 1286SOL    HW2 5174   1.594   2.307   2.437
 1286SOL    HW3 5175   1.572   2.210   2.323
 1286SOL    MW4 5176   1.583   2.291   2.352
 1287SOL     OW 5177   1.352   2.448   2.253
 1287SOL    HW2 5178   1.432   2.396   2.259
 1287SOL    HW3 5179   1.332   2.449   2.159
 1287SOL    MW4 5180   1.360   2.441   2.241
 1288SOL     OW 5181   1.343   2.705   2.338
 1288SOL    HW2 5182   1.427   2.749   2.321
 1288SOL    HW3 5183   1.359   2.613   2.317
 1288SOL    MW4 5184   1.356   2.699   2.333
 1289SOL     OW 5185   1.601   2.822   2.293
 1289SOL    HW2 5186   1.595   2.903   2.344
 1289SOL    HW3 5187   1.610   2.851   2.202
 1289SOL    MW4 5188   1.601   2.836   2.288
 1290SOL     OW 5189   1.596   3.095   2.374
 1290SOL    HW2 5190   1.591   3.112   2.468
 1290SOL    HW3 5191   1.509   3.117   2.340
 1290SOL    MW4 5192   1.584   3.100   2.382
 1291SOL     OW 5193   1.361   3.224   2.286
 1291SOL    HW2 5194   1.289   3.174   2.325
 1291SOL    HW3 5195   1.354   3.207   2.192
 1291SOL    MW4 5196   1.351   3.215   2.279
 1292SOL     OW 5197   1.310   3.496   2.353
 1292SOL    HW2 5198   1.316   3.508   2.448
 1292SOL    HW3 5199   1.320   3.402   2.340
 1292SOL    MW4 5200   1.312   3.485   2.364
 1293SOL     OW 5201   1.547   3.624   2.248
 1293SOL    HW2 5202   1.546   3.709   2.293
 1293SOL    HW3 5203   1.465   3.582   2.274
 1293SOL    MW4 5204   1.536   3.630   2.258
 1294SOL     OW 5205   1.539   3.872   2.375
 1294SOL    HW2 5206   1.538   3.896   2.468
 1294SOL    HW3 5207   1.620   3.911   2.342
 1294SOL    MW4 5208   1.550   3.881   2.383
 1295SOL     OW 5209   1.321   3.998   2.270
 1295SOL    HW2 5210   1.405   3.960   2.296
 1295SOL    HW3 5211   1.328   4.008   2.175
 1295SOL    MW4 5212   1.333   3.995   2.261
 1296SOL     OW 5213   1.342   4.278   2.335
 1296SOL    HW2 5214   1.351   4.189   2.302
 1296SOL    HW3 5215   1.256   4.307   2.304
 1296SOL    MW4 5216   1.332   4.270   2.327
 1297SOL     OW 5217   1.591   4.399   2.288
 1297SOL    HW2 5218   1.508   4.356   2.307
 1297SOL    HW3 5219   1.583   4.486   2.325
 1297SOL    MW4 5220   1.579   4.405   2.295
 1298SOL     OW 5221   2.062   4.665   2.314
 1298SOL    HW2 5222   2.139   4.709   2.276
 1298SOL    HW3 5223   2.061   4.579   2.273
 1298SOL    MW4 5224   2.072   4.660   2.304
 1299SOL     OW 5225   1.812   0.101   2.259
 1299SOL    HW2 5226   1.803   0.186   2.301
 1299SOL    HW3 5227   1.901   0.073   2.279
 1299SOL    MW4 5228   1.822   0.108   2.267
 1300SOL     OW 5229   1.780   0.359   2.380
 1300SOL    HW2 5230   1.775   0.359   2.475
 1300SOL    HW3 5231   1.864   0.401   2.360
 1300SOL    MW4 5232   1.790   0.364   2.390
 1301SOL     OW 5233   1.996   0.501   2.243
 1301SOL    HW2 5234   1.979   0.592   2.267
 1301SOL    HW3 5235   1.999   0.502   2.147
 1301SOL    MW4 5236   1.994   0.513   2.233
 1302SOL     OW 5237   1.989   0.766   2.366
 1302SOL    HW2 5238   2.057   0.829   2.340
 1302SOL    HW3 5239   1.909   0.801   2.327
 1302SOL    MW4 5240   1.988   0.779   2.357
 1303SOL     OW 5241   1.749   0.863   2.276
 1303SOL    HW2 5242   1.761   0.951   2.311
 1303SOL    HW3 5243   1.759   0.873   2.181
 1303SOL    MW4 5244   1.752   0.876   2.268
 1304SOL     OW 5245   1.793   1.115   2.359
 1304SOL    HW2 5246   1.870   1.169   2.342
 1304SOL    HW3 5247   1.723   1.157   2.310
 1304SOL    MW4 5248   1.794   1.127   2.351
 1305SOL     OW 5249   2.007   1.277   2.273
 1305SOL    HW2 5250   1.990   1.369   2.289
 1305SOL    HW3 5251   1.993   1.266   2.179
 1305SOL    MW4 5252   2.003   1.287   2.263
 1306SOL     OW 5253   2.015   1.546   2.350
 1306SOL    HW2 5254   2.009   1.546   2.445
 1306SOL    HW3 5255   1.940   1.597   2.321
 1306SOL    MW4 5256   2.005   1.553   2.358
 1307SOL     OW 5257   1.776   1.668   2.261
 1307SOL    HW2 5258   1.798   1.756   2.292
 1307SOL    HW3 5259   1.798   1.669   2.167
 1307SOL    MW4 5260   1.782   1.680   2.252
 1308SOL     OW 5261   1.786   1.938   2.350
 1308SOL    HW2 5262   1.786   1.939   2.446
 1308SOL    HW3 5263   1.863   1.988   2.325
 1308SOL    MW4 5264   1.796   1.945   2.360
 1309SOL     OW 5265   2.008   2.083   2.268
 1309SOL    HW2 5266   2.074   2.023   2.300
 1309SOL    HW3 5267   2.024   2.089   2.174
 1309SOL    MW4 5268   2.019   2.076   2.260
 1310SOL     OW 5269   2.021   2.347   2.375
 1310SOL    HW2 5270   2.090   2.376   2.315
 1310SOL    HW3 5271   2.018   2.252   2.365
 1310SOL    MW4 5272   2.030   2.338   2.366
 1311SOL     OW 5273   1.809   2.457   2.234
 1311SOL    HW2 5274   1.877   2.413   2.286
 1311SOL    HW3 5275   1.727   2.418   2.264
 1311SOL    MW4 5276   1.807   2.446   2.245
 1312SOL     OW 5277   1.824   2.694   2.388
 1312SOL    HW2 5278   1.808   2.616   2.335
 1312SOL    HW3 5279   1.749   2.751   2.370
 1312SOL    MW4 5280   1.812   2.692   2.379
 1313SOL     OW 5281   2.029   2.833   2.259
 1313SOL    HW2 5282   2.103   2.782   2.290
 1313SOL    HW3 5283   1.952   2.793   2.300
 1313SOL    MW4 5284   2.028   2.821   2.269
 1314SOL     OW 5285   2.032   3.088   2.383
 1314SOL    HW2 5286   2.106   3.131   2.339
 1314SOL    HW3 5287   2.034   2.998   2.351
 1314SOL    MW4 5288   2.042   3.082   2.373
 1315SOL     OW 5289   1.804   3.197   2.258
 1315SOL    HW2 5290   1.883   3.167   2.302
 1315SOL    HW3 5291   1.735   3.138   2.287
 1315SOL    MW4 5292   1.805   3.185   2.267
 1316SOL     OW 5293   1.788   3.469   2.321
 1316SOL    HW2 5294   1.790   3.375   2.307
 1316SOL    HW3 5295   1.704   3.497   2.283
 1316SOL    MW4 5296   1.777   3.460   2.314
 1317SOL     OW 5297   2.017   3.611   2.281
 1317SOL    HW2 5298   1.941   3.552   2.283
 1317SOL    HW3 5299   2.035   3.624   2.188
 1317SOL    MW4 5300   2.009   3.605   2.269
 1318SOL     OW 5301   2.044   3.875   2.360
 1318SOL    HW2 5302   2.044   3.872   2.456
 1318SOL    HW3 5303   2.038   3.783   2.333
 1318SOL    MW4 5304   2.043   3.862   2.369
 1319SOL     OW 5305   1.783   3.990   2.281
 1319SOL    HW2 5306   1.868   3.959   2.313
 1319SOL    HW3 5307   1.799   4.013   2.190
 1319SOL    MW4 5308   1.796   3.989   2.273
 1320SOL     OW 5309   1.815   4.251   2.363
 1320SOL    HW2 5310   1.792   4.162   2.336
 1320SOL    HW3 5311   1.742   4.305   2.331
 1320SOL    MW4 5312   1.802   4.246   2.355
 1321SOL     OW 5313   2.002   4.403   2.244
 1321SOL    HW2 5314   1.937   4.357   2.297
 1321SOL    HW3 5315   1.992   4.367   2.156
 1321SOL    MW4 5316   1.992   4.392   2.240
 1322SOL     OW 5317   2.515   4.635   2.387
 1322SOL    HW2 5318   2.588   4.689   2.358
 1322SOL    HW3 5319   2.523   4.554   2.335
 1322SOL    MW4 5320   2.526   4.631   2.376
 1323SOL     OW 5321   2.319   0.131   2.222
 1323SOL    HW2 5322   2.313   0.207   2.279
 1323SOL    HW3 5323   2.382   0.073   2.265
 1323SOL    MW4 5324   2.327   0.133   2.235
 1324SOL     OW 5325   2.232   0.367   2.333
 1324SOL    HW2 5326   2.307   0.426   2.324
 1324SOL    HW3 5327   2.157   0.420   2.304
 1324SOL    MW4 5328   2.232   0.382   2.328
 1325SOL     OW 5329   2.448   0.502   2.267
 1325SOL    HW2 5330   2.530   0.459   2.293
 1325SOL    HW3 5331   2.447   0.495   2.171
 1325SOL    MW4 5332   2.459   0.495   2.257
 1326SOL     OW 5333   2.452   0.760   2.356
 1326SOL    HW2 5334   2.544   0.777   2.337
 1326SOL    HW3 5335   2.440   0.667   2.335
 1326SOL    MW4 5336   2.463   0.750   2.351
 1327SOL     OW 5337   2.217   0.906   2.258
 1327SOL    HW2 5338   2.232   0.994   2.293
 1327SOL    HW3 5339   2.290   0.854   2.292
 1327SOL    MW4 5340   2.229   0.910   2.267
 1328SOL     OW 5341   2.241   1.166   2.368
 1328SOL    HW2 5342   2.318   1.218   2.344
 1328SOL    HW3 5343   2.166   1.222   2.348
 1328SOL    MW4 5344   2.241   1.180   2.362
 1329SOL     OW 5345   2.485   1.288   2.301
 1329SOL    HW2 5346   2.567   1.244   2.322
 1329SOL    HW3 5347   2.494   1.376   2.336
 1329SOL    MW4 5348   2.497   1.294   2.309
 1330SOL     OW 5349   2.502   1.556   2.382
 1330SOL    HW2 5350   2.505   1.567   2.477
 1330SOL    HW3 5351   2.578   1.605   2.350
 1330SOL    MW4 5352   2.512   1.564   2.390
 1331SOL     OW 5353   2.259   1.654   2.261
 1331SOL    HW2 5354   2.335   1.616   2.305
 1331SOL    HW3 5355   2.184   1.605   2.295
 1331SOL    MW4 5356   2.259   1.643   2.271
 1332SOL     OW 5357   2.208   1.923   2.380
 1332SOL    HW2 5358   2.285   1.964   2.343
 1332SOL    HW3 5359   2.220   1.830   2.364
 1332SOL    MW4 5360   2.220   1.916   2.373
 1333SOL     OW 5361   2.438   2.059   2.270
 1333SOL    HW2 5362   2.516   2.019   2.307
 1333SOL    HW3 5363   2.455   2.062   2.176
 1333SOL    MW4 5364   2.451   2.054   2.263
 1334SOL     OW 5365   2.397   2.318   2.352
 1334SOL    HW2 5366   2.479   2.358   2.326
 1334SOL    HW3 5367   2.409   2.224   2.335
 1334SOL    MW4 5368   2.409   2.311   2.346
 1335SOL     OW 5369   2.237   2.456   2.193
 1335SOL    HW2 5370   2.224   2.538   2.241
 1335SOL    HW3 5371   2.295   2.404   2.250
 1335SOL    MW4 5372   2.243   2.460   2.207
 1336SOL     OW 5373   2.233   2.676   2.356
 1336SOL    HW2 5374   2.228   2.669   2.451
 1336SOL    HW3 5375   2.315   2.723   2.340
 1336SOL    MW4 5376   2.243   2.681   2.366
 1337SOL     OW 5377   2.463   2.806   2.262
 1337SOL    HW2 5378   2.532   2.748   2.294
 1337SOL    HW3 5379   2.466   2.796   2.167
 1337SOL    MW4 5380   2.472   2.797   2.254
 1338SOL     OW 5381   2.460   3.072   2.370
 1338SOL    HW2 5382   2.545   3.114   2.360
 1338SOL    HW3 5383   2.466   2.991   2.318
 1338SOL    MW4 5384   2.472   3.067   2.362
 1339SOL     OW 5385   2.235   3.212   2.258
 1339SOL    HW2 5386   2.247   3.306   2.274
 1339SOL    HW3 5387   2.310   3.171   2.301
 1339SOL    MW4 5388   2.246   3.219   2.265
 1340SOL     OW 5389   2.251   3.475   2.320
 1340SOL    HW2 5390   2.254   3.479   2.416
 1340SOL    HW3 5391   2.168   3.518   2.297
 1340SOL    MW4 5392   2.240   3.481   2.330
 1341SOL     OW 5393   2.458   3.618   2.205
 1341SOL    HW2 5394   2.467   3.695   2.261
 1341SOL    HW3 5395   2.392   3.564   2.248
 1341SOL    MW4 5396   2.451   3.621   2.218
 1342SOL     OW 5397   2.480   3.847   2.349
 1342SOL    HW2 5398   2.479   3.849   2.445
 1342SOL    HW3 5399   2.407   3.903   2.323
 1342SOL    MW4 5400   2.470   3.854   2.358
 1343SOL     OW 5401   2.277   4.021   2.283
 1343SOL    HW2 5402   2.268   4.110   2.316
 1343SOL    HW3 5403   2.195   3.978   2.307
 1343SOL    MW4 5404   2.265   4.027   2.290
 1344SOL     OW 5405   2.265   4.273   2.380
 1344SOL    HW2 5406   2.258   4.283   2.475
 1344SOL    HW3 5407   2.183   4.308   2.346
 1344SOL    MW4 5408   2.253   4.279   2.388
 1345SOL     OW 5409   2.486   4.398   2.239
 1345SOL    HW2 5410   2.567   4.357   2.271
 1345SOL    HW3 5411   2.416   4.342   2.274
 1345SOL    MW4 5412   2.488   4.385   2.248
 1346SOL     OW 5413   2.933   4.655   2.349
 1346SOL    HW2 5414   3.013   4.694   2.312
 1346SOL    HW3 5415   2.931   4.567   2.314
 1346SOL    MW4 5416   2.944   4.649   2.340
 1347SOL     OW 5417   2.715   0.100   2.257
 1347SOL    HW2 5418   2.711   0.189   2.292
 1347SOL    HW3 5419   2.800   0.066   2.286
 1347SOL    MW4 5420   2.726   0.107   2.265
 1348SOL     OW 5421   2.677   0.364   2.341
 1348SOL    HW2 5422   2.685   0.373   2.435
 1348SOL    HW3 5423   2.743   0.423   2.305
 1348SOL    MW4 5424   2.687   0.373   2.348
 1349SOL     OW 5425   2.922   0.506   2.260
 1349SOL    HW2 5426   2.929   0.591   2.303
 1349SOL    HW3 5427   2.925   0.525   2.166
 1349SOL    MW4 5428   2.923   0.520   2.253
 1350SOL     OW 5429   2.935   0.747   2.371
 1350SOL    HW2 5430   2.926   0.740   2.466
 1350SOL    HW3 5431   2.860   0.800   2.344
 1350SOL    MW4 5432   2.924   0.753   2.380
 1351SOL     OW 5433   2.701   0.871   2.287
 1351SOL    HW2 5434   2.709   0.962   2.315
 1351SOL    HW3 5435   2.716   0.873   2.192
 1351SOL    MW4 5436   2.704   0.883   2.278
 1352SOL     OW 5437   2.718   1.125   2.373
 1352SOL    HW2 5438   2.714   1.134   2.469
 1352SOL    HW3 5439   2.788   1.184   2.346
 1352SOL    MW4 5440   2.726   1.134   2.382
 1353SOL     OW 5441   2.943   1.281   2.282
 1353SOL    HW2 5442   3.019   1.233   2.315
 1353SOL    HW3 5443   2.956   1.283   2.187
 1353SOL    MW4 5444   2.955   1.275   2.274
 1354SOL     OW 5445   2.909   1.527   2.359
 1354SOL    HW2 5446   2.914   1.529   2.455
 1354SOL    HW3 5447   2.921   1.435   2.336
 1354SOL    MW4 5448   2.912   1.515   2.369
 1355SOL     OW 5449   2.719   1.700   2.274
 1355SOL    HW2 5450   2.791   1.644   2.305
 1355SOL    HW3 5451   2.731   1.703   2.179
 1355SOL    MW4 5452   2.730   1.693   2.266
 1356SOL     OW 5453   2.683   1.949   2.394
 1356SOL    HW2 5454   2.689   1.938   2.489
 1356SOL    HW3 5455   2.680   1.860   2.359
 1356SOL    MW4 5456   2.683   1.936   2.402
 1357SOL     OW 5457   2.882   2.069   2.234
 1357SOL    HW2 5458   2.966   2.030   2.260
 1357SOL    HW3 5459   2.817   2.027   2.290
 1357SOL    MW4 5460   2.885   2.058   2.245
 1358SOL     OW 5461   2.915   2.323   2.337
 1358SOL    HW2 5462   2.924   2.319   2.432
 1358SOL    HW3 5463   2.904   2.231   2.310
 1358SOL    MW4 5464   2.915   2.310   2.346
 1359SOL     OW 5465   2.659   2.421   2.302
 1359SOL    HW2 5466   2.743   2.375   2.306
 1359SOL    HW3 5467   2.648   2.444   2.210
 1359SOL    MW4 5468   2.669   2.418   2.291
 1360SOL     OW 5469   2.706   2.704   2.335
 1360SOL    HW2 5470   2.776   2.756   2.296
 1360SOL    HW3 5471   2.739   2.614   2.333
 1360SOL    MW4 5472   2.719   2.699   2.329
 1361SOL     OW 5473   2.920   2.840   2.246
 1361SOL    HW2 5474   2.927   2.929   2.280
 1361SOL    HW3 5475   2.931   2.849   2.152
 1361SOL    MW4 5476   2.923   2.853   2.238
 1362SOL     OW 5477   2.941   3.064   2.393
 1362SOL    HW2 5478   3.014   3.122   2.374
 1362SOL    HW3 5479   2.863   3.114   2.370
 1362SOL    MW4 5480   2.941   3.078   2.388
 1363SOL     OW 5481   2.705   3.192   2.289
 1363SOL    HW2 5482   2.679   3.283   2.306
 1363SOL    HW3 5483   2.730   3.192   2.197
 1363SOL    MW4 5484   2.705   3.204   2.279
 1364SOL     OW 5485   2.663   3.457   2.351
 1364SOL    HW2 5486   2.744   3.497   2.319
 1364SOL    HW3 5487   2.593   3.507   2.308
 1364SOL    MW4 5488   2.664   3.469   2.341
 1365SOL     OW 5489   2.915   3.588   2.253
 1365SOL    HW2 5490   2.992   3.543   2.288
 1365SOL    HW3 5491   2.919   3.675   2.293
 1365SOL    MW4 5492   2.926   3.594   2.263
 1366SOL     OW 5493   2.911   3.845   2.359
 1366SOL    HW2 5494   2.916   3.876   2.450
 1366SOL    HW3 5495   2.840   3.897   2.320
 1366SOL    MW4 5496   2.902   3.856   2.366
 1367SOL     OW 5497   2.693   4.001   2.260
 1367SOL    HW2 5498   2.625   3.944   2.296
 1367SOL    HW3 5499   2.674   4.007   2.167
 1367SOL    MW4 5500   2.682   3.995   2.253
 1368SOL     OW 5501   2.690   4.257   2.339
 1368SOL    HW2 5502   2.686   4.256   2.435
 1368SOL    HW3 5503   2.698   4.165   2.314
 1368SOL    MW4 5504   2.691   4.245   2.349
 1369SOL     OW 5505   2.931   4.399   2.254
 1369SOL    HW2 5506   3.017   4.366   2.280
 1369SOL    HW3 5507   2.869   4.344   2.301
 1369SOL    MW4 5508   2.934   4.388   2.264
 1370SOL     OW 5509   3.353   4.613   2.351
 1370SOL    HW2 5510   3.358   4.630   2.445
 1370SOL    HW3 5511   3.419   4.671   2.313
 1370SOL    MW4 5512   3.362   4.623   2.358
 1371SOL     OW 5513   3.150   0.114   2.256
 1371SOL    HW2 5514   3.157   0.201   2.295
 1371SOL    HW3 5515   3.222   0.064   2.295
 1371SOL    MW4 5516   3.161   0.119   2.267
 1372SOL     OW 5517   3.160   0.382   2.367
 1372SOL    HW2 5518   3.231   0.433   2.328
 1372SOL    HW3 5519   3.081   0.416   2.327
 1372SOL    MW4 5520   3.159   0.393   2.356
 1373SOL     OW 5521   3.387   0.513   2.286
 1373SOL    HW2 5522   3.450   0.449   2.319
 1373SOL    HW3 5523   3.409   0.522   2.193
 1373SOL    MW4 5524   3.398   0.506   2.278
 1374SOL     OW 5525   3.401   0.767   2.399
 1374SOL    HW2 5526   3.476   0.814   2.364
 1374SOL    HW3 5527   3.407   0.680   2.359
 1374SOL    MW4 5528   3.412   0.761   2.389
 1375SOL     OW 5529   3.169   0.862   2.284
 1375SOL    HW2 5530   3.242   0.821   2.331
 1375SOL    HW3 5531   3.092   0.814   2.315
 1375SOL    MW4 5532   3.168   0.850   2.294
 1376SOL     OW 5533   3.156   1.143   2.356
 1376SOL    HW2 5534   3.235   1.174   2.311
 1376SOL    HW3 5535   3.155   1.049   2.339
 1376SOL    MW4 5536   3.167   1.135   2.348
 1377SOL     OW 5537   3.353   1.288   2.215
 1377SOL    HW2 5538   3.424   1.238   2.255
 1377SOL    HW3 5539   3.360   1.375   2.254
 1377SOL    MW4 5540   3.363   1.293   2.225
 1378SOL     OW 5541   3.360   1.537   2.364
 1378SOL    HW2 5542   3.359   1.532   2.460
 1378SOL    HW3 5543   3.282   1.588   2.342
 1378SOL    MW4 5544   3.349   1.543   2.374
 1379SOL     OW 5545   3.147   1.703   2.315
 1379SOL    HW2 5546   3.129   1.796   2.332
 1379SOL    HW3 5547   3.066   1.659   2.343
 1379SOL    MW4 5548   3.134   1.710   2.321
 1380SOL     OW 5549   3.113   1.975   2.378
 1380SOL    HW2 5550   3.108   1.967   2.473
 1380SOL    HW3 5551   3.203   2.003   2.361
 1380SOL    MW4 5552   3.125   1.977   2.388
 1381SOL     OW 5553   3.375   2.044   2.316
 1381SOL    HW2 5554   3.464   2.023   2.344
 1381SOL    HW3 5555   3.378   2.041   2.221
 1381SOL    MW4 5556   3.387   2.041   2.307
 1382SOL     OW 5557   3.346   2.311   2.388
 1382SOL    HW2 5558   3.261   2.344   2.359
 1382SOL    HW3 5559   3.348   2.220   2.356
 1382SOL    MW4 5560   3.335   2.303   2.380
 1383SOL     OW 5561   3.155   2.437   2.247
 1383SOL    HW2 5562   3.151   2.523   2.289
 1383SOL    HW3 5563   3.079   2.390   2.281
 1383SOL    MW4 5564   3.144   2.442   2.257
 1384SOL     OW 5565   3.130   2.687   2.354
 1384SOL    HW2 5566   3.133   2.694   2.450
 1384SOL    HW3 5567   3.045   2.725   2.330
 1384SOL    MW4 5568   3.119   2.693   2.364
 1385SOL     OW 5569   3.324   2.831   2.227
 1385SOL    HW2 5570   3.347   2.901   2.288
 1385SOL    HW3 5571   3.252   2.785   2.270
 1385SOL    MW4 5572   3.318   2.834   2.241
 1386SOL     OW 5573   3.353   3.077   2.410
 1386SOL    HW2 5574   3.432   3.118   2.376
 1386SOL    HW3 5575   3.281   3.125   2.369
 1386SOL    MW4 5576   3.354   3.089   2.400
 1387SOL     OW 5577   3.131   3.219   2.299
 1387SOL    HW2 5578   3.140   3.314   2.310
 1387SOL    HW3 5579   3.142   3.204   2.205
 1387SOL    MW4 5580   3.134   3.229   2.288
 1388SOL     OW 5581   3.162   3.486   2.345
 1388SOL    HW2 5582   3.149   3.509   2.437
 1388SOL    HW3 5583   3.240   3.536   2.319
 1388SOL    MW4 5584   3.171   3.496   2.354
 1389SOL     OW 5585   3.372   3.635   2.256
 1389SOL    HW2 5586   3.440   3.575   2.287
 1389SOL    HW3 5587   3.363   3.615   2.163
 1389SOL    MW4 5588   3.380   3.624   2.248
 1390SOL     OW 5589   3.369   3.901   2.327
 1390SOL    HW2 5590   3.429   3.958   2.279
 1390SOL    HW3 5591   3.389   3.813   2.295
 1390SOL    MW4 5592   3.379   3.897   2.316
 1391SOL     OW 5593   3.131   3.993   2.245
 1391SOL    HW2 5594   3.216   3.963   2.279
 1391SOL    HW3 5595   3.067   3.942   2.294
 1391SOL    MW4 5596   3.134   3.982   2.256
 1392SOL     OW 5597   3.144   4.244   2.381
 1392SOL    HW2 5598   3.211   4.283   2.325
 1392SOL    HW3 5599   3.132   4.156   2.346
 1392SOL    MW4 5600   3.151   4.237   2.369
 1393SOL     OW 5601   3.355   4.360   2.245
 1393SOL    HW2 5602   3.353   4.451   2.274
 1393SOL    HW3 5603   3.372   4.365   2.151
 1393SOL    MW4 5604   3.357   4.372   2.236
 1394SOL     OW 5605   3.784   4.622   2.370
 1394SOL    HW2 5606   3.783   4.646   2.462
 1394SOL    HW3 5607   3.868   4.655   2.337
 1394SOL    MW4 5608   3.795   4.629   2.378
 1395SOL     OW 5609   3.567   0.104   2.271
 1395SOL    HW2 5610   3.575   0.191   2.309
 1395SOL    HW3 5611   3.653   0.064   2.283
 1395SOL    MW4 5612   3.579   0.110   2.278
 1396SOL     OW 5613   3.589   0.337   2.398
 1396SOL    HW2 5614   3.606   0.347   2.491
 1396SOL    HW3 5615   3.665   0.377   2.355
 1396SOL    MW4 5616   3.601   0.344   2.404
 1397SOL     OW 5617   3.806   0.473   2.261
 1397SOL    HW2 5618   3.808   0.563   2.292
 1397SOL    HW3 5619   3.816   0.480   2.166
 1397SOL    MW4 5620   3.808   0.485   2.253
 1398SOL     OW 5621   3.814   0.741   2.352
 1398SOL    HW2 5622   3.817   0.731   2.447
 1398SOL    HW3 5623   3.892   0.793   2.330
 1398SOL    MW4 5624   3.825   0.747   2.361
 1399SOL     OW 5625   3.622   0.944   2.270
 1399SOL    HW2 5626   3.688   0.880   2.296
 1399SOL    HW3 5627   3.622   0.943   2.175
 1399SOL    MW4 5628   3.630   0.936   2.261
 1400SOL     OW 5629   3.566   1.180   2.382
 1400SOL    HW2 5630   3.584   1.170   2.476
 1400SOL    HW3 5631   3.596   1.098   2.343
 1400SOL    MW4 5632   3.573   1.168   2.389
 1401SOL     OW 5633   3.814   1.267   2.284
 1401SOL    HW2 5634   3.815   1.360   2.304
 1401SOL    HW3 5635   3.733   1.235   2.324
 1401SOL    MW4 5636   3.804   1.275   2.292
 1402SOL     OW 5637   3.854   1.528   2.368
 1402SOL    HW2 5638   3.854   1.533   2.463
 1402SOL    HW3 5639   3.778   1.581   2.341
 1402SOL    MW4 5640   3.844   1.536   2.377
 1403SOL     OW 5641   3.616   1.678   2.292
 1403SOL    HW2 5642   3.535   1.649   2.334
 1403SOL    HW3 5643   3.601   1.667   2.199
 1403SOL    MW4 5644   3.604   1.673   2.285
 1404SOL     OW 5645   3.647   1.957   2.395
 1404SOL    HW2 5646   3.716   1.987   2.337
 1404SOL    HW3 5647   3.643   1.862   2.381
 1404SOL    MW4 5648   3.655   1.948   2.386
 1405SOL     OW 5649   3.850   2.089   2.241
 1405SOL    HW2 5650   3.910   2.021   2.272
 1405SOL    HW3 5651   3.837   2.069   2.148
 1405SOL    MW4 5652   3.856   2.077   2.233
 1406SOL     OW 5653   3.812   2.341   2.358
 1406SOL    HW2 5654   3.723   2.372   2.344
 1406SOL    HW3 5655   3.815   2.254   2.318
 1406SOL    MW4 5656   3.801   2.334   2.351
 1407SOL     OW 5657   3.572   2.413   2.275
 1407SOL    HW2 5658   3.482   2.387   2.296
 1407SOL    HW3 5659   3.578   2.404   2.179
 1407SOL    MW4 5660   3.561   2.409   2.265
 1408SOL     OW 5661   3.565   2.690   2.352
 1408SOL    HW2 5662   3.588   2.603   2.319
 1408SOL    HW3 5663   3.476   2.705   2.320
 1408SOL    MW4 5664   3.556   2.680   2.344
 1409SOL     OW 5665   3.794   2.833   2.266
 1409SOL    HW2 5666   3.797   2.924   2.297
 1409SOL    HW3 5667   3.704   2.805   2.286
 1409SOL    MW4 5668   3.782   2.841   2.273
 1410SOL     OW 5669   3.810   3.089   2.358
 1410SOL    HW2 5670   3.814   3.085   2.453
 1410SOL    HW3 5671   3.886   3.141   2.333
 1410SOL    MW4 5672   3.821   3.095   2.367
 1411SOL     OW 5673   3.551   3.201   2.281
 1411SOL    HW2 5674   3.571   3.293   2.298
 1411SOL    HW3 5675   3.635   3.157   2.285
 1411SOL    MW4 5676   3.564   3.207   2.284
 1412SOL     OW 5677   3.570   3.464   2.347
 1412SOL    HW2 5678   3.583   3.476   2.441
 1412SOL    HW3 5679   3.647   3.504   2.307
 1412SOL    MW4 5680   3.582   3.471   2.354
 1413SOL     OW 5681   3.813   3.599   2.245
 1413SOL    HW2 5682   3.792   3.687   2.279
 1413SOL    HW3 5683   3.803   3.607   2.150
 1413SOL    MW4 5684   3.809   3.612   2.237
 1414SOL     OW 5685   3.762   3.886   2.343
 1414SOL    HW2 5686   3.760   3.892   2.439
 1414SOL    HW3 5687   3.847   3.922   2.319
 1414SOL    MW4 5688   3.773   3.891   2.353
 1415SOL     OW 5689   3.586   4.038   2.212
 1415SOL    HW2 5690   3.580   4.109   2.275
 1415SOL    HW3 5691   3.638   3.970   2.257
 1415SOL    MW4 5692   3.592   4.038   2.226
 1416SOL     OW 5693   3.573   4.247   2.387
 1416SOL    HW2 5694   3.624   4.313   2.340
 1416SOL    HW3 5695   3.482   4.270   2.370
 1416SOL    MW4 5696   3.568   4.259   2.379
 1417SOL     OW 5697   3.792   4.369   2.265
 1417SOL    HW2 5698   3.858   4.315   2.309
 1417SOL    HW3 5699   3.794   4.452   2.312
 1417SOL    MW4 5700   3.801   4.373   2.277
 1418SOL     OW 5701   4.266   4.664   2.367
 1418SOL    HW2 5702   4.265   4.664   2.462
 1418SOL    HW3 5703   4.350   4.704   2.344
 1418SOL    MW4 5704   4.277   4.669   2.376
 1419SOL     OW 5705   4.017   0.096   2.267
 1419SOL    HW2 5706   4.025   0.178   2.316
 1419SOL    HW3 5707   4.106   0.060   2.266
 1419SOL    MW4 5708   4.030   0.102   2.273
 1420SOL     OW 5709   4.039   0.359   2.363
 1420SOL    HW2 5710   4.113   0.412   2.333
 1420SOL    HW3 5711   3.962   0.407   2.333
 1420SOL    MW4 5712   4.039   0.373   2.355
 1421SOL     OW 5713   4.261   0.535   2.268
 1421SOL    HW2 5714   4.266   0.618   2.314
 1421SOL    HW3 5715   4.342   0.489   2.291
 1421SOL    MW4 5716   4.272   0.540   2.277
 1422SOL     OW 5717   4.269   0.772   2.419
 1422SOL    HW2 5718   4.190   0.807   2.378
 1422SOL    HW3 5719   4.340   0.824   2.382
 1422SOL    MW4 5720   4.268   0.783   2.409
 1423SOL     OW 5721   4.035   0.886   2.280
 1423SOL    HW2 5722   4.051   0.980   2.289
 1423SOL    HW3 5723   4.047   0.869   2.186
 1423SOL    MW4 5724   4.039   0.896   2.269
 1424SOL     OW 5725   4.063   1.153   2.369
 1424SOL    HW2 5726   4.065   1.138   2.464
 1424SOL    HW3 5727   3.982   1.203   2.355
 1424SOL    MW4 5728   4.052   1.158   2.380
 1425SOL     OW 5729   4.270   1.292   2.261
 1425SOL    HW2 5730   4.199   1.245   2.304
 1425SOL    HW3 5731   4.350   1.249   2.292
 1425SOL    MW4 5732   4.271   1.280   2.271
 1426SOL     OW 5733   4.333   1.546   2.368
 1426SOL    HW2 5734   4.327   1.459   2.330
 1426SOL    HW3 5735   4.410   1.585   2.326
 1426SOL    MW4 5736   4.343   1.540   2.357
 1427SOL     OW 5737   4.085   1.648   2.264
 1427SOL    HW2 5738   4.165   1.607   2.297
 1427SOL    HW3 5739   4.014   1.597   2.304
 1427SOL    MW4 5740   4.086   1.636   2.274
 1428SOL     OW 5741   4.000   1.910   2.382
 1428SOL    HW2 5742   4.006   1.919   2.478
 1428SOL    HW3 5743   4.020   1.818   2.365
 1428SOL    MW4 5744   4.003   1.899   2.393
 1429SOL     OW 5745   4.238   2.030   2.293
 1429SOL    HW2 5746   4.217   2.122   2.304
 1429SOL    HW3 5747   4.157   1.984   2.316
 1429SOL    MW4 5748   4.225   2.036   2.297
 1430SOL     OW 5749   4.258   2.310   2.369
 1430SOL    HW2 5750   4.182   2.360   2.339
 1430SOL    HW3 5751   4.330   2.337   2.312
 1430SOL    MW4 5752   4.258   2.320   2.358
 1431SOL     OW 5753   4.049   2.465   2.258
 1431SOL    HW2 5754   4.046   2.554   2.294
 1431SOL    HW3 5755   3.970   2.423   2.292
 1431SOL    MW4 5756   4.039   2.471   2.267
 1432SOL     OW 5757   4.025   2.717   2.365
 1432SOL    HW2 5758   4.029   2.701   2.460
 1432SOL    HW3 5759   3.940   2.758   2.352
 1432SOL    MW4 5760   4.014   2.720   2.376
 1433SOL     OW 5761   4.250   2.827   2.259
 1433SOL    HW2 5762   4.175   2.775   2.288
 1433SOL    HW3 5763   4.325   2.786   2.302
 1433SOL    MW4 5764   4.250   2.815   2.269
 1434SOL     OW 5765   4.236   3.078   2.356
 1434SOL    HW2 5766   4.228   2.991   2.317
 1434SOL    HW3 5767   4.323   3.108   2.332
 1434SOL    MW4 5768   4.246   3.071   2.348
 1435SOL     OW 5769   4.026   3.225   2.281
 1435SOL    HW2 5770   4.035   3.315   2.313
 1435SOL    HW3 5771   4.105   3.181   2.311
 1435SOL    MW4 5772   4.038   3.231   2.289
 1436SOL     OW 5773   4.020   3.467   2.404
 1436SOL    HW2 5774   4.091   3.519   2.365
 1436SOL    HW3 5775   3.940   3.500   2.363
 1436SOL    MW4 5776   4.019   3.478   2.394
 1437SOL     OW 5777   4.214   3.621   2.276
 1437SOL    HW2 5778   4.238   3.710   2.303
 1437SOL    HW3 5779   4.218   3.623   2.180
 1437SOL    MW4 5780   4.218   3.633   2.267
 1438SOL     OW 5781   4.263   3.892   2.325
 1438SOL    HW2 5782   4.288   3.873   2.415
 1438SOL    HW3 5783   4.344   3.920   2.283
 1438SOL    MW4 5784   4.277   3.894   2.331
 1439SOL     OW 5785   4.004   3.991   2.273
 1439SOL    HW2 5786   4.098   3.978   2.286
 1439SOL    HW3 5787   3.995   4.001   2.178
 1439SOL    MW4 5788   4.015   3.991   2.262
 1440SOL     OW 5789   4.009   4.239   2.384
 1440SOL    HW2 5790   4.088   4.282   2.351
 1440SOL    HW3 5791   4.014   4.149   2.351
 1440SOL    MW4 5792   4.020   4.233   2.375
 1441SOL     OW 5793   4.245   4.387   2.295
 1441SOL    HW2 5794   4.259   4.470   2.340
 1441SOL    HW3 5795   4.317   4.331   2.325
 1441SOL    MW4 5796   4.256   4.391   2.305
 1442SOL     OW 5797   0.223   4.653   2.637
 1442SOL    HW2 5798   0.229   4.563   2.669
 1442SOL    HW3 5799   0.141   4.687   2.673
 1442SOL    MW4 5800   0.213   4.646   2.646
 1443SOL     OW 5801   4.474   0.091   2.732
 1443SOL    HW2 5802   4.482   0.088   2.827
 1443SOL    HW3 5803   4.470   0.185   2.712
 1443SOL    MW4 5804   4.475   0.103   2.742
 1444SOL     OW 5805   0.009   0.344   2.630
 1444SOL    HW2 5806   0.094   0.383   2.651
 1444SOL    HW3 5807  -0.001   0.356   2.536
 1444SOL    MW4 5808   0.019   0.350   2.620
 1445SOL     OW 5809   0.226   0.506   2.714
 1445SOL    HW2 5810   0.228   0.500   2.810
 1445SOL    HW3 5811   0.293   0.444   2.686
 1445SOL    MW4 5812   0.235   0.497   2.723
 1446SOL     OW 5813   0.215   0.769   2.668
 1446SOL    HW2 5814   0.294   0.805   2.707
 1446SOL    HW3 5815   0.218   0.675   2.689
 1446SOL    MW4 5816   0.226   0.761   2.676
 1447SOL     OW 5817   4.482   0.885   2.768
 1447SOL    HW2 5818   4.411   0.835   2.726
 1447SOL    HW3 5819   4.562   0.854   2.726
 1447SOL    MW4 5820   4.483   0.875   2.757
 1448SOL     OW 5821   4.468   1.134   2.635
 1448SOL    HW2 5822   4.541   1.190   2.663
 1448SOL    HW3 5823   4.474   1.057   2.691
 1448SOL    MW4 5824   4.478   1.131   2.646
 1449SOL     OW 5825   0.202   1.280   2.699
 1449SOL    HW2 5826   0.290   1.241   2.692
 1449SOL    HW3 5827   0.215   1.371   2.672
 1449SOL    MW4 5828   0.216   1.287   2.695
 1450SOL     OW 5829   0.242   1.560   2.672
 1450SOL    HW2 5830   0.318   1.587   2.724
 1450SOL    HW3 5831   0.167   1.594   2.721
 1450SOL    MW4 5832   0.242   1.568   2.686
 1451SOL     OW 5833   4.476   1.648   2.798
 1451SOL    HW2 5834   4.475   1.646   2.894
 1451SOL    HW3 5835   4.475   1.741   2.776
 1451SOL    MW4 5836   4.476   1.660   2.808
 1452SOL     OW 5837   0.030   1.904   2.682
 1452SOL    HW2 5838   0.110   1.950   2.706
 1452SOL    HW3 5839   0.020   1.920   2.588
 1452SOL    MW4 5840   0.039   1.912   2.673
 1453SOL     OW 5841   0.254   2.057   2.756
 1453SOL    HW2 5842   0.334   2.013   2.728
 1453SOL    HW3 5843   0.264   2.147   2.724
 1453SOL    MW4 5844   0.266   2.063   2.748
 1454SOL     OW 5845   0.255   2.305   2.664
 1454SOL    HW2 5846   0.329   2.364   2.682
 1454SOL    HW3 5847   0.178   2.356   2.691
 1454SOL    MW4 5848   0.254   2.320   2.670
 1455SOL     OW 5849   0.028   2.439   2.753
 1455SOL    HW2 5850   0.034   2.446   2.848
 1455SOL    HW3 5851  -0.058   2.400   2.737
 1455SOL    MW4 5852   0.018   2.435   2.764
 1456SOL     OW 5853   0.000   2.686   2.685
 1456SOL    HW2 5854  -0.090   2.705   2.712
 1456SOL    HW3 5855   0.014   2.594   2.710
 1456SOL    MW4 5856  -0.010   2.676   2.692
 1457SOL     OW 5857   0.208   2.828   2.758
 1457SOL    HW2 5858   0.183   2.919   2.743
 1457SOL    HW3 5859   0.132   2.776   2.730
 1457SOL    MW4 5860   0.195   2.833   2.753
 1458SOL     OW 5861   0.192   3.100   2.657
 1458SOL    HW2 5862   0.286   3.116   2.668
 1458SOL    HW3 5863   0.179   3.099   2.562
 1458SOL    MW4 5864   0.203   3.102   2.646
 1459SOL     OW 5865   4.445   3.242   2.752
 1459SOL    HW2 5866   4.370   3.185   2.735
 1459SOL    HW3 5867   4.521   3.190   2.725
 1459SOL    MW4 5868   4.445   3.228   2.746
 1460SOL     OW 5869   4.465   3.498   2.631
 1460SOL    HW2 5870   4.545   3.546   2.656
 1460SOL    HW3 5871   4.468   3.419   2.684
 1460SOL    MW4 5872   4.476   3.494   2.641
 1461SOL     OW 5873   0.195   3.613   2.725
 1461SOL    HW2 5874   0.203   3.589   2.817
 1461SOL    HW3 5875   0.275   3.578   2.684
 1461SOL    MW4 5876   0.207   3.605   2.731
 1462SOL     OW 5877   0.226   3.861   2.648
 1462SOL    HW2 5878   0.215   3.773   2.684
 1462SOL    HW3 5879   0.226   3.849   2.553
 1462SOL    MW4 5880   0.224   3.848   2.640
 1463SOL     OW 5881   4.485   3.983   2.718
 1463SOL    HW2 5882   4.492   4.074   2.688
 1463SOL    HW3 5883   4.566   3.942   2.689
 1463SOL    MW4 5884   4.497   3.990   2.710
 1464SOL     OW 5885   0.034   4.263   2.639
 1464SOL    HW2 5886  -0.042   4.304   2.682
 1464SOL    HW3 5887   0.107   4.323   2.656
 1464SOL    MW4 5888   0.033   4.276   2.647
 1465SOL     OW 5889   0.258   4.396   2.721
 1465SOL    HW2 5890   0.243   4.393   2.816
 1465SOL    HW3 5891   0.326   4.330   2.706
 1465SOL    MW4 5892   0.265   4.387   2.732
 1466SOL     OW 5893   0.696   4.622   2.590
 1466SOL    HW2 5894   0.774   4.664   2.627
 1466SOL    HW3 5895   0.622   4.670   2.628
 1466SOL    MW4 5896   0.696   4.634   2.600
 1467SOL     OW 5897   0.469   0.081   2.715
 1467SOL    HW2 5898   0.484   0.085   2.810
 1467SOL    HW3 5899   0.379   0.052   2.706
 1467SOL    MW4 5900   0.459   0.078   2.726
 1468SOL     OW 5901   0.437   0.341   2.628
 1468SOL    HW2 5902   0.505   0.394   2.669
 1468SOL    HW3 5903   0.444   0.255   2.670
 1468SOL    MW4 5904   0.447   0.337   2.639
 1469SOL     OW 5905   0.642   0.500   2.739
 1469SOL    HW2 5906   0.615   0.505   2.831
 1469SOL    HW3 5907   0.726   0.454   2.741
 1469SOL    MW4 5908   0.649   0.494   2.752
 1470SOL     OW 5909   0.675   0.769   2.630
 1470SOL    HW2 5910   0.761   0.782   2.671
 1470SOL    HW3 5911   0.652   0.679   2.652
 1470SOL    MW4 5912   0.684   0.759   2.638
 1471SOL     OW 5913   0.444   0.897   2.742
 1471SOL    HW2 5914   0.446   0.987   2.710
 1471SOL    HW3 5915   0.527   0.859   2.714
 1471SOL    MW4 5916   0.455   0.904   2.734
 1472SOL     OW 5917   0.452   1.152   2.644
 1472SOL    HW2 5918   0.528   1.199   2.678
 1472SOL    HW3 5919   0.473   1.134   2.552
 1472SOL    MW4 5920   0.465   1.156   2.637
 1473SOL     OW 5921   0.678   1.285   2.743
 1473SOL    HW2 5922   0.668   1.276   2.838
 1473SOL    HW3 5923   0.767   1.254   2.725
 1473SOL    MW4 5924   0.688   1.279   2.753
 1474SOL     OW 5925   0.672   1.544   2.663
 1474SOL    HW2 5926   0.592   1.571   2.706
 1474SOL    HW3 5927   0.686   1.453   2.691
 1474SOL    MW4 5928   0.663   1.535   2.672
 1475SOL     OW 5929   0.455   1.677   2.803
 1475SOL    HW2 5930   0.452   1.689   2.898
 1475SOL    HW3 5931   0.457   1.767   2.768
 1475SOL    MW4 5932   0.455   1.691   2.811
 1476SOL     OW 5933   0.471   1.932   2.659
 1476SOL    HW2 5934   0.556   1.968   2.684
 1476SOL    HW3 5935   0.467   1.944   2.564
 1476SOL    MW4 5936   0.482   1.938   2.650
 1477SOL     OW 5937   0.704   2.068   2.749
 1477SOL    HW2 5938   0.710   2.063   2.845
 1477SOL    HW3 5939   0.781   2.022   2.717
 1477SOL    MW4 5940   0.715   2.061   2.758
 1478SOL     OW 5941   0.708   2.326   2.634
 1478SOL    HW2 5942   0.768   2.380   2.686
 1478SOL    HW3 5943   0.704   2.242   2.680
 1478SOL    MW4 5944   0.715   2.322   2.647
 1479SOL     OW 5945   0.464   2.462   2.725
 1479SOL    HW2 5946   0.453   2.550   2.690
 1479SOL    HW3 5947   0.550   2.434   2.693
 1479SOL    MW4 5948   0.474   2.470   2.716
 1480SOL     OW 5949   0.436   2.716   2.612
 1480SOL    HW2 5950   0.514   2.736   2.664
 1480SOL    HW3 5951   0.365   2.763   2.656
 1480SOL    MW4 5952   0.437   2.725   2.625
 1481SOL     OW 5953   0.649   2.828   2.764
 1481SOL    HW2 5954   0.638   2.849   2.857
 1481SOL    HW3 5955   0.661   2.914   2.722
 1481SOL    MW4 5956   0.649   2.842   2.771
 1482SOL     OW 5957   0.689   3.069   2.637
 1482SOL    HW2 5958   0.768   3.114   2.666
 1482SOL    HW3 5959   0.695   3.070   2.541
 1482SOL    MW4 5960   0.701   3.075   2.628
 1483SOL     OW 5961   0.459   3.198   2.690
 1483SOL    HW2 5962   0.468   3.198   2.785
 1483SOL    HW3 5963   0.543   3.168   2.657
 1483SOL    MW4 5964   0.471   3.194   2.698
 1484SOL     OW 5965   0.407   3.471   2.603
 1484SOL    HW2 5966   0.417   3.380   2.629
 1484SOL    HW3 5967   0.407   3.469   2.507
 1484SOL    MW4 5968   0.408   3.459   2.594
 1485SOL     OW 5969   0.632   3.607   2.679
 1485SOL    HW2 5970   0.617   3.594   2.772
 1485SOL    HW3 5971   0.570   3.548   2.636
 1485SOL    MW4 5972   0.622   3.598   2.685
 1486SOL     OW 5973   0.670   3.882   2.633
 1486SOL    HW2 5974   0.584   3.906   2.668
 1486SOL    HW3 5975   0.676   3.787   2.648
 1486SOL    MW4 5976   0.659   3.872   2.640
 1487SOL     OW 5977   0.448   3.986   2.773
 1487SOL    HW2 5978   0.452   4.073   2.734
 1487SOL    HW3 5979   0.369   3.946   2.735
 1487SOL    MW4 5980   0.438   3.992   2.763
 1488SOL     OW 5981   0.476   4.235   2.670
 1488SOL    HW2 5982   0.559   4.275   2.697
 1488SOL    HW3 5983   0.483   4.227   2.575
 1488SOL    MW4 5984   0.488   4.239   2.661
 1489SOL     OW 5985   0.670   4.410   2.789
 1489SOL    HW2 5986   0.751   4.363   2.767
 1489SOL    HW3 5987   0.674   4.490   2.737
 1489SOL    MW4 5988   0.681   4.414   2.779
 1490SOL     OW 5989   1.135   4.642   2.625
 1490SOL    HW2 5990   1.209   4.691   2.661
 1490SOL    HW3 5991   1.145   4.554   2.660
 1490SOL    MW4 5992   1.146   4.637   2.634
 1491SOL     OW 5993   0.894   0.102   2.702
 1491SOL    HW2 5994   0.891   0.102   2.797
 1491SOL    HW3 5995   0.980   0.067   2.680
 1491SOL    MW4 5996   0.905   0.097   2.711
 1492SOL     OW 5997   0.896   0.372   2.668
 1492SOL    HW2 5998   0.883   0.280   2.691
 1492SOL    HW3 5999   0.870   0.378   2.576
 1492SOL    MW4 6000   0.891   0.361   2.659
 1493SOL     OW 6001   1.110   0.489   2.800
 1493SOL    HW2 6002   1.104   0.575   2.758
 1493SOL    HW3 6003   1.036   0.440   2.765
 1493SOL    MW4 6004   1.099   0.494   2.790
 1494SOL     OW 6005   1.115   0.735   2.662
 1494SOL    HW2 6006   1.193   0.779   2.696
 1494SOL    HW3 6007   1.107   0.767   2.572
 1494SOL    MW4 6008   1.124   0.745   2.654
 1495SOL     OW 6009   0.905   0.885   2.747
 1495SOL    HW2 6010   0.912   0.898   2.842
 1495SOL    HW3 6011   0.986   0.840   2.724
 1495SOL    MW4 6012   0.917   0.881   2.756
 1496SOL     OW 6013   0.915   1.159   2.680
 1496SOL    HW2 6014   0.914   1.073   2.721
 1496SOL    HW3 6015   0.893   1.142   2.588
 1496SOL    MW4 6016   0.912   1.145   2.673
 1497SOL     OW 6017   1.169   1.283   2.750
 1497SOL    HW2 6018   1.194   1.371   2.722
 1497SOL    HW3 6019   1.086   1.266   2.705
 1497SOL    MW4 6020   1.161   1.293   2.741
 1498SOL     OW 6021   1.159   1.537   2.650
 1498SOL    HW2 6022   1.084   1.586   2.684
 1498SOL    HW3 6023   1.158   1.554   2.556
 1498SOL    MW4 6024   1.149   1.545   2.642
 1499SOL     OW 6025   0.924   1.656   2.738
 1499SOL    HW2 6026   0.906   1.656   2.832
 1499SOL    HW3 6027   0.850   1.610   2.700
 1499SOL    MW4 6028   0.912   1.650   2.745
 1500SOL     OW 6029   0.916   1.906   2.619
 1500SOL    HW2 6030   0.987   1.953   2.662
 1500SOL    HW3 6031   0.911   1.822   2.666
 1500SOL    MW4 6032   0.924   1.901   2.631
 1501SOL     OW 6033   1.111   2.062   2.738
 1501SOL    HW2 6034   1.194   2.020   2.714
 1501SOL    HW3 6035   1.116   2.149   2.699
 1501SOL    MW4 6036   1.123   2.068   2.730
 1502SOL     OW 6037   1.116   2.325   2.623
 1502SOL    HW2 6038   1.200   2.356   2.657
 1502SOL    HW3 6039   1.129   2.319   2.528
 1502SOL    MW4 6040   1.128   2.328   2.615
 1503SOL     OW 6041   0.920   2.441   2.792
 1503SOL    HW2 6042   0.908   2.524   2.745
 1503SOL    HW3 6043   0.983   2.392   2.739
 1503SOL    MW4 6044   0.927   2.446   2.779
 1504SOL     OW 6045   0.863   2.692   2.660
 1504SOL    HW2 6046   0.936   2.741   2.696
 1504SOL    HW3 6047   0.785   2.738   2.691
 1504SOL    MW4 6048   0.863   2.704   2.669
 1505SOL     OW 6049   1.083   2.832   2.725
 1505SOL    HW2 6050   1.106   2.825   2.817
 1505SOL    HW3 6051   1.159   2.795   2.679
 1505SOL    MW4 6052   1.096   2.826   2.731
 1506SOL     OW 6053   1.148   3.096   2.630
 1506SOL    HW2 6054   1.122   3.007   2.653
 1506SOL    HW3 6055   1.136   3.101   2.535
 1506SOL    MW4 6056   1.143   3.085   2.620
 1507SOL     OW 6057   0.919   3.208   2.743
 1507SOL    HW2 6058   0.903   3.286   2.690
 1507SOL    HW3 6059   1.006   3.179   2.715
 1507SOL    MW4 6060   0.928   3.215   2.732
 1508SOL     OW 6061   0.887   3.462   2.635
 1508SOL    HW2 6062   0.961   3.508   2.677
 1508SOL    HW3 6063   0.810   3.512   2.663
 1508SOL    MW4 6064   0.887   3.475   2.644
 1509SOL     OW 6065   1.102   3.599   2.744
 1509SOL    HW2 6066   1.101   3.626   2.836
 1509SOL    HW3 6067   1.100   3.681   2.695
 1509SOL    MW4 6068   1.102   3.613   2.750
 1510SOL     OW 6069   1.098   3.851   2.626
 1510SOL    HW2 6070   1.178   3.889   2.664
 1510SOL    HW3 6071   1.110   3.859   2.531
 1510SOL    MW4 6072   1.110   3.857   2.618
 1511SOL     OW 6073   0.893   4.008   2.737
 1511SOL    HW2 6074   0.958   3.963   2.682
 1511SOL    HW3 6075   0.809   3.970   2.709
 1511SOL    MW4 6076   0.890   3.997   2.726
 1512SOL     OW 6077   0.888   4.266   2.643
 1512SOL    HW2 6078   0.892   4.174   2.668
 1512SOL    HW3 6079   0.884   4.265   2.547
 1512SOL    MW4 6080   0.888   4.254   2.634
 1513SOL     OW 6081   1.144   4.351   2.728
 1513SOL    HW2 6082   1.137   4.378   2.820
 1513SOL    HW3 6083   1.055   4.327   2.703
 1513SOL    MW4 6084   1.131   4.351   2.737
 1514SOL     OW 6085   1.555   0.012   2.652
 1514SOL    HW2 6086   1.540  -0.082   2.666
 1514SOL    HW3 6087   1.558   0.021   2.557
 1514SOL    MW4 6088   1.553   0.001   2.642
 1515SOL     OW 6089   1.322   0.113   2.758
 1515SOL    HW2 6090   1.306   0.201   2.722
 1515SOL    HW3 6091   1.405   0.086   2.720
 1515SOL    MW4 6092   1.331   0.121   2.748
 1516SOL     OW 6093   1.315   0.389   2.658
 1516SOL    HW2 6094   1.399   0.418   2.692
 1516SOL    HW3 6095   1.250   0.442   2.705
 1516SOL    MW4 6096   1.317   0.400   2.669
 1517SOL     OW 6097   1.550   0.496   2.741
 1517SOL    HW2 6098   1.612   0.432   2.706
 1517SOL    HW3 6099   1.577   0.579   2.702
 1517SOL    MW4 6100   1.562   0.499   2.731
 1518SOL     OW 6101   1.599   0.754   2.633
 1518SOL    HW2 6102   1.521   0.798   2.666
 1518SOL    HW3 6103   1.576   0.727   2.545
 1518SOL    MW4 6104   1.586   0.757   2.626
 1519SOL     OW 6105   1.350   0.857   2.736
 1519SOL    HW2 6106   1.330   0.868   2.829
 1519SOL    HW3 6107   1.344   0.945   2.699
 1519SOL    MW4 6108   1.346   0.870   2.743
 1520SOL     OW 6109   1.347   1.125   2.645
 1520SOL    HW2 6110   1.425   1.172   2.677
 1520SOL    HW3 6111   1.273   1.175   2.679
 1520SOL    MW4 6112   1.348   1.138   2.653
 1521SOL     OW 6113   1.551   1.281   2.728
 1521SOL    HW2 6114   1.554   1.274   2.824
 1521SOL    HW3 6115   1.624   1.226   2.699
 1521SOL    MW4 6116   1.561   1.273   2.737
 1522SOL     OW 6117   1.618   1.546   2.636
 1522SOL    HW2 6118   1.579   1.469   2.676
 1522SOL    HW3 6119   1.602   1.536   2.542
 1522SOL    MW4 6120   1.611   1.535   2.628
 1523SOL     OW 6121   1.398   1.667   2.736
 1523SOL    HW2 6122   1.480   1.635   2.698
 1523SOL    HW3 6123   1.332   1.605   2.706
 1523SOL    MW4 6124   1.400   1.654   2.727
 1524SOL     OW 6125   1.350   1.922   2.675
 1524SOL    HW2 6126   1.356   1.828   2.691
 1524SOL    HW3 6127   1.349   1.930   2.580
 1524SOL    MW4 6128   1.351   1.911   2.664
 1525SOL     OW 6129   1.591   2.045   2.706
 1525SOL    HW2 6130   1.659   1.982   2.685
 1525SOL    HW3 6131   1.510   1.994   2.709
 1525SOL    MW4 6132   1.589   2.030   2.704
 1526SOL     OW 6133   1.558   2.319   2.623
 1526SOL    HW2 6134   1.636   2.362   2.660
 1526SOL    HW3 6135   1.571   2.226   2.642
 1526SOL    MW4 6136   1.570   2.313   2.631
 1527SOL     OW 6137   1.347   2.436   2.744
 1527SOL    HW2 6138   1.336   2.515   2.692
 1527SOL    HW3 6139   1.418   2.388   2.700
 1527SOL    MW4 6140   1.355   2.440   2.731
 1528SOL     OW 6141   1.310   2.693   2.617
 1528SOL    HW2 6142   1.399   2.711   2.646
 1528SOL    HW3 6143   1.315   2.696   2.521
 1528SOL    MW4 6144   1.322   2.695   2.608
 1529SOL     OW 6145   1.551   2.819   2.692
 1529SOL    HW2 6146   1.545   2.805   2.787
 1529SOL    HW3 6147   1.635   2.780   2.668
 1529SOL    MW4 6148   1.562   2.812   2.701
 1530SOL     OW 6149   1.581   3.091   2.640
 1530SOL    HW2 6150   1.659   3.133   2.675
 1530SOL    HW3 6151   1.587   3.000   2.669
 1530SOL    MW4 6152   1.592   3.085   2.648
 1531SOL     OW 6153   1.367   3.241   2.739
 1531SOL    HW2 6154   1.452   3.201   2.720
 1531SOL    HW3 6155   1.303   3.184   2.696
 1531SOL    MW4 6156   1.370   3.228   2.730
 1532SOL     OW 6157   1.334   3.490   2.616
 1532SOL    HW2 6158   1.342   3.400   2.647
 1532SOL    HW3 6159   1.263   3.528   2.669
 1532SOL    MW4 6160   1.325   3.483   2.627
 1533SOL     OW 6161   1.555   3.613   2.726
 1533SOL    HW2 6162   1.633   3.586   2.678
 1533SOL    HW3 6163   1.483   3.568   2.682
 1533SOL    MW4 6164   1.556   3.604   2.714
 1534SOL     OW 6165   1.582   3.894   2.664
 1534SOL    HW2 6166   1.502   3.920   2.709
 1534SOL    HW3 6167   1.581   3.798   2.665
 1534SOL    MW4 6168   1.571   3.885   2.670
 1535SOL     OW 6169   1.319   3.966   2.763
 1535SOL    HW2 6170   1.337   3.992   2.854
 1535SOL    HW3 6171   1.330   4.047   2.713
 1535SOL    MW4 6172   1.323   3.980   2.768
 1536SOL     OW 6173   1.348   4.202   2.644
 1536SOL    HW2 6174   1.280   4.261   2.678
 1536SOL    HW3 6175   1.357   4.227   2.552
 1536SOL    MW4 6176   1.340   4.213   2.637
 1537SOL     OW 6177   1.532   4.394   2.708
 1537SOL    HW2 6178   1.523   4.412   2.801
 1537SOL    HW3 6179   1.476   4.318   2.692
 1537SOL    MW4 6180   1.523   4.386   2.718
 1538SOL     OW 6181   1.998   4.662   2.589
 1538SOL    HW2 6182   2.077   4.708   2.619
 1538SOL    HW3 6183   1.999   4.672   2.494
 1538SOL    MW4 6184   2.008   4.669   2.581
 1539SOL     OW 6185   1.805   0.071   2.776
 1539SOL    HW2 6186   1.863   0.035   2.709
 1539SOL    HW3 6187   1.717   0.048   2.746
 1539SOL    MW4 6188   1.801   0.063   2.763
 1540SOL     OW 6189   1.749   0.333   2.648
 1540SOL    HW2 6190   1.819   0.394   2.671
 1540SOL    HW3 6191   1.773   0.251   2.691
 1540SOL    MW4 6192   1.761   0.330   2.656
 1541SOL     OW 6193   1.954   0.486   2.723
 1541SOL    HW2 6194   2.024   0.442   2.675
 1541SOL    HW3 6195   1.962   0.578   2.699
 1541SOL    MW4 6196   1.964   0.492   2.713
 1542SOL     OW 6197   2.003   0.730   2.638
 1542SOL    HW2 6198   1.930   0.785   2.666
 1542SOL    HW3 6199   1.990   0.719   2.544
 1542SOL    MW4 6200   1.992   0.736   2.629
 1543SOL     OW 6201   1.803   0.870   2.788
 1543SOL    HW2 6202   1.817   0.959   2.756
 1543SOL    HW3 6203   1.737   0.832   2.730
 1543SOL    MW4 6204   1.796   0.876   2.776
 1544SOL     OW 6205   1.769   1.117   2.630
 1544SOL    HW2 6206   1.847   1.167   2.656
 1544SOL    HW3 6207   1.758   1.138   2.537
 1544SOL    MW4 6208   1.778   1.127   2.621
 1545SOL     OW 6209   2.019   1.275   2.706
 1545SOL    HW2 6210   2.025   1.307   2.796
 1545SOL    HW3 6211   2.102   1.230   2.690
 1545SOL    MW4 6212   2.030   1.273   2.715
 1546SOL     OW 6213   1.994   1.541   2.625
 1546SOL    HW2 6214   1.935   1.595   2.679
 1546SOL    HW3 6215   1.979   1.452   2.655
 1546SOL    MW4 6216   1.984   1.536   2.636
 1547SOL     OW 6217   1.819   1.675   2.781
 1547SOL    HW2 6218   1.788   1.675   2.871
 1547SOL    HW3 6219   1.753   1.625   2.733
 1547SOL    MW4 6220   1.806   1.669   2.787
 1548SOL     OW 6221   1.816   1.908   2.636
 1548SOL    HW2 6222   1.888   1.957   2.675
 1548SOL    HW3 6223   1.818   1.822   2.678
 1548SOL    MW4 6224   1.825   1.903   2.646
 1549SOL     OW 6225   2.006   2.058   2.757
 1549SOL    HW2 6226   1.998   2.069   2.852
 1549SOL    HW3 6227   2.020   2.147   2.724
 1549SOL    MW4 6228   2.007   2.071   2.765
 1550SOL     OW 6229   2.053   2.301   2.670
 1550SOL    HW2 6230   2.135   2.340   2.700
 1550SOL    HW3 6231   2.047   2.325   2.578
 1550SOL    MW4 6232   2.063   2.309   2.662
 1551SOL     OW 6233   1.815   2.427   2.758
 1551SOL    HW2 6234   1.829   2.448   2.851
 1551SOL    HW3 6235   1.892   2.375   2.734
 1551SOL    MW4 6236   1.827   2.423   2.767
 1552SOL     OW 6237   1.789   2.702   2.671
 1552SOL    HW2 6238   1.804   2.610   2.693
 1552SOL    HW3 6239   1.807   2.707   2.577
 1552SOL    MW4 6240   1.794   2.691   2.661
 1553SOL     OW 6241   2.007   2.841   2.752
 1553SOL    HW2 6242   2.072   2.780   2.717
 1553SOL    HW3 6243   1.922   2.800   2.734
 1553SOL    MW4 6244   2.004   2.828   2.745
 1554SOL     OW 6245   2.026   3.117   2.658
 1554SOL    HW2 6246   1.997   3.031   2.690
 1554SOL    HW3 6247   2.017   3.112   2.563
 1554SOL    MW4 6248   2.021   3.105   2.650
 1555SOL     OW 6249   1.803   3.262   2.744
 1555SOL    HW2 6250   1.810   3.347   2.702
 1555SOL    HW3 6251   1.873   3.210   2.705
 1555SOL    MW4 6252   1.813   3.266   2.733
 1556SOL     OW 6253   1.788   3.510   2.600
 1556SOL    HW2 6254   1.868   3.555   2.629
 1556SOL    HW3 6255   1.799   3.499   2.506
 1556SOL    MW4 6256   1.800   3.514   2.592
 1557SOL     OW 6257   2.029   3.612   2.716
 1557SOL    HW2 6258   2.019   3.588   2.809
 1557SOL    HW3 6259   2.109   3.567   2.689
 1557SOL    MW4 6260   2.038   3.603   2.725
 1558SOL     OW 6261   1.992   3.865   2.637
 1558SOL    HW2 6262   1.913   3.907   2.672
 1558SOL    HW3 6263   1.990   3.777   2.673
 1558SOL    MW4 6264   1.981   3.859   2.647
 1559SOL     OW 6265   1.799   4.043   2.749
 1559SOL    HW2 6266   1.786   4.129   2.708
 1559SOL    HW3 6267   1.724   3.991   2.720
 1559SOL    MW4 6268   1.787   4.048   2.740
 1560SOL     OW 6269   1.778   4.287   2.639
 1560SOL    HW2 6270   1.693   4.330   2.648
 1560SOL    HW3 6271   1.789   4.274   2.544
 1560SOL    MW4 6272   1.768   4.291   2.627
 1561SOL     OW 6273   2.018   4.405   2.713
 1561SOL    HW2 6274   1.943   4.358   2.677
 1561SOL    HW3 6275   2.023   4.485   2.661
 1561SOL    MW4 6276   2.009   4.409   2.701
 1562SOL     OW 6277   2.471   4.661   2.661
 1562SOL    HW2 6278   2.549   4.702   2.697
 1562SOL    HW3 6279   2.491   4.646   2.569
 1562SOL    MW4 6280   2.484   4.664   2.653
 1563SOL     OW 6281   2.235   0.107   2.712
 1563SOL    HW2 6282   2.238   0.123   2.806
 1563SOL    HW3 6283   2.318   0.064   2.692
 1563SOL    MW4 6284   2.246   0.104   2.722
 1564SOL     OW 6285   2.183   0.381   2.609
 1564SOL    HW2 6286   2.190   0.290   2.636
 1564SOL    HW3 6287   2.190   0.379   2.514
 1564SOL    MW4 6288   2.185   0.369   2.600
 1565SOL     OW 6289   2.420   0.512   2.710
 1565SOL    HW2 6290   2.429   0.601   2.675
 1565SOL    HW3 6291   2.339   0.479   2.672
 1565SOL    MW4 6292   2.411   0.519   2.701
 1566SOL     OW 6293   2.453   0.788   2.647
 1566SOL    HW2 6294   2.363   0.801   2.679
 1566SOL    HW3 6295   2.447   0.803   2.552
 1566SOL    MW4 6296   2.440   0.791   2.638
 1567SOL     OW 6297   2.213   0.903   2.717
 1567SOL    HW2 6298   2.221   0.893   2.812
 1567SOL    HW3 6299   2.141   0.844   2.693
 1567SOL    MW4 6300   2.205   0.894   2.727
 1568SOL     OW 6301   2.264   1.164   2.651
 1568SOL    HW2 6302   2.259   1.070   2.671
 1568SOL    HW3 6303   2.249   1.169   2.556
 1568SOL    MW4 6304   2.261   1.152   2.641
 1569SOL     OW 6305   2.494   1.307   2.749
 1569SOL    HW2 6306   2.578   1.265   2.732
 1569SOL    HW3 6307   2.429   1.251   2.705
 1569SOL    MW4 6308   2.496   1.294   2.741
 1570SOL     OW 6309   2.490   1.565   2.657
 1570SOL    HW2 6310   2.405   1.602   2.680
 1570SOL    HW3 6311   2.481   1.472   2.678
 1570SOL    MW4 6312   2.478   1.558   2.663
 1571SOL     OW 6313   2.232   1.666   2.735
 1571SOL    HW2 6314   2.218   1.761   2.726
 1571SOL    HW3 6315   2.158   1.626   2.689
 1571SOL    MW4 6316   2.220   1.673   2.728
 1572SOL     OW 6317   2.232   1.935   2.653
 1572SOL    HW2 6318   2.147   1.968   2.685
 1572SOL    HW3 6319   2.226   1.941   2.558
 1572SOL    MW4 6320   2.220   1.940   2.645
 1573SOL     OW 6321   2.464   2.060   2.775
 1573SOL    HW2 6322   2.468   2.146   2.733
 1573SOL    HW3 6323   2.389   2.017   2.734
 1573SOL    MW4 6324   2.455   2.066   2.764
 1574SOL     OW 6325   2.483   2.304   2.626
 1574SOL    HW2 6326   2.566   2.350   2.622
 1574SOL    HW3 6327   2.441   2.322   2.541
 1574SOL    MW4 6328   2.488   2.312   2.614
 1575SOL     OW 6329   2.269   2.450   2.739
 1575SOL    HW2 6330   2.256   2.443   2.833
 1575SOL    HW3 6331   2.347   2.398   2.721
 1575SOL    MW4 6332   2.277   2.442   2.749
 1576SOL     OW 6333   2.217   2.696   2.647
 1576SOL    HW2 6334   2.294   2.746   2.677
 1576SOL    HW3 6335   2.233   2.607   2.678
 1576SOL    MW4 6336   2.229   2.691   2.655
 1577SOL     OW 6337   2.441   2.854   2.720
 1577SOL    HW2 6338   2.531   2.826   2.701
 1577SOL    HW3 6339   2.439   2.947   2.697
 1577SOL    MW4 6340   2.452   2.862   2.714
 1578SOL     OW 6341   2.444   3.106   2.662
 1578SOL    HW2 6342   2.369   3.164   2.675
 1578SOL    HW3 6343   2.460   3.109   2.568
 1578SOL    MW4 6344   2.436   3.114   2.651
 1579SOL     OW 6345   2.245   3.280   2.736
 1579SOL    HW2 6346   2.242   3.281   2.831
 1579SOL    HW3 6347   2.179   3.216   2.710
 1579SOL    MW4 6348   2.236   3.272   2.745
 1580SOL     OW 6349   2.265   3.507   2.593
 1580SOL    HW2 6350   2.325   3.564   2.642
 1580SOL    HW3 6351   2.268   3.424   2.639
 1580SOL    MW4 6352   2.273   3.504   2.605
 1581SOL     OW 6353   2.473   3.616   2.731
 1581SOL    HW2 6354   2.467   3.601   2.825
 1581SOL    HW3 6355   2.484   3.710   2.722
 1581SOL    MW4 6356   2.473   3.626   2.742
 1582SOL     OW 6357   2.487   3.879   2.629
 1582SOL    HW2 6358   2.557   3.935   2.663
 1582SOL    HW3 6359   2.406   3.924   2.655
 1582SOL    MW4 6360   2.485   3.892   2.637
 1583SOL     OW 6361   2.236   3.990   2.703
 1583SOL    HW2 6362   2.252   4.002   2.797
 1583SOL    HW3 6363   2.149   3.951   2.699
 1583SOL    MW4 6364   2.227   3.986   2.715
 1584SOL     OW 6365   2.260   4.261   2.663
 1584SOL    HW2 6366   2.259   4.165   2.661
 1584SOL    HW3 6367   2.179   4.285   2.708
 1584SOL    MW4 6368   2.249   4.252   2.669
 1585SOL     OW 6369   2.480   4.389   2.737
 1585SOL    HW2 6370   2.396   4.353   2.707
 1585SOL    HW3 6371   2.476   4.482   2.714
 1585SOL    MW4 6372   2.468   4.396   2.730
 1586SOL     OW 6373   2.919   0.017   2.625
 1586SOL    HW2 6374   3.001   0.057   2.653
 1586SOL    HW3 6375   2.927   0.010   2.530
 1586SOL    MW4 6376   2.931   0.021   2.616
 1587SOL     OW 6377   2.688   0.141   2.735
 1587SOL    HW2 6378   2.687   0.149   2.830
 1587SOL    HW3 6379   2.764   0.087   2.716
 1587SOL    MW4 6380   2.698   0.135   2.745
 1588SOL     OW 6381   2.650   0.395   2.629
 1588SOL    HW2 6382   2.645   0.304   2.657
 1588SOL    HW3 6383   2.564   0.431   2.651
 1588SOL    MW4 6384   2.638   0.388   2.635
 1589SOL     OW 6385   2.884   0.509   2.722
 1589SOL    HW2 6386   2.890   0.601   2.697
 1589SOL    HW3 6387   2.800   0.480   2.689
 1589SOL    MW4 6388   2.874   0.518   2.715
 1590SOL     OW 6389   2.902   0.772   2.657
 1590SOL    HW2 6390   2.980   0.825   2.673
 1590SOL    HW3 6391   2.833   0.814   2.708
 1590SOL    MW4 6392   2.903   0.784   2.666
 1591SOL     OW 6393   2.690   0.898   2.774
 1591SOL    HW2 6394   2.669   0.916   2.866
 1591SOL    HW3 6395   2.609   0.861   2.739
 1591SOL    MW4 6396   2.676   0.895   2.782
 1592SOL     OW 6397   2.710   1.153   2.658
 1592SOL    HW2 6398   2.803   1.170   2.673
 1592SOL    HW3 6399   2.697   1.062   2.684
 1592SOL    MW4 6400   2.720   1.143   2.664
 1593SOL     OW 6401   2.943   1.297   2.719
 1593SOL    HW2 6402   2.927   1.286   2.813
 1593SOL    HW3 6403   3.033   1.267   2.707
 1593SOL    MW4 6404   2.953   1.291   2.730
 1594SOL     OW 6405   2.926   1.556   2.629
 1594SOL    HW2 6406   2.852   1.587   2.682
 1594SOL    HW3 6407   2.927   1.461   2.641
 1594SOL    MW4 6408   2.917   1.548   2.638
 1595SOL     OW 6409   2.719   1.654   2.775
 1595SOL    HW2 6410   2.708   1.664   2.869
 1595SOL    HW3 6411   2.637   1.615   2.745
 1595SOL    MW4 6412   2.707   1.650   2.783
 1596SOL     OW 6413   2.678   1.919   2.677
 1596SOL    HW2 6414   2.687   1.832   2.716
 1596SOL    HW3 6415   2.598   1.954   2.715
 1596SOL    MW4 6416   2.669   1.912   2.687
 1597SOL     OW 6417   2.889   2.096   2.785
 1597SOL    HW2 6418   2.881   2.170   2.725
 1597SOL    HW3 6419   2.823   2.034   2.754
 1597SOL    MW4 6420   2.879   2.098   2.773
 1598SOL     OW 6421   2.930   2.319   2.605
 1598SOL    HW2 6422   3.007   2.350   2.651
 1598SOL    HW3 6423   2.859   2.374   2.637
 1598SOL    MW4 6424   2.931   2.331   2.615
 1599SOL     OW 6425   2.700   2.477   2.708
 1599SOL    HW2 6426   2.690   2.466   2.803
 1599SOL    HW3 6427   2.683   2.570   2.693
 1599SOL    MW4 6428   2.697   2.488   2.719
 1600SOL     OW 6429   2.671   2.767   2.596
 1600SOL    HW2 6430   2.762   2.774   2.627
 1600SOL    HW3 6431   2.679   2.753   2.502
 1600SOL    MW4 6432   2.684   2.766   2.588
 1601SOL     OW 6433   2.912   2.792   2.716
 1601SOL    HW2 6434   2.914   2.782   2.811
 1601SOL    HW3 6435   2.926   2.885   2.701
 1601SOL    MW4 6436   2.914   2.803   2.726
 1602SOL     OW 6437   2.945   3.057   2.669
 1602SOL    HW2 6438   2.869   3.110   2.695
 1602SOL    HW3 6439   2.944   3.060   2.573
 1602SOL    MW4 6440   2.935   3.064   2.660
 1603SOL     OW 6441   2.703   3.200   2.710
 1603SOL    HW2 6442   2.691   3.284   2.666
 1603SOL    HW3 6443   2.616   3.160   2.711
 1603SOL    MW4 6444   2.690   3.206   2.704
 1604SOL     OW 6445   2.676   3.451   2.625
 1604SOL    HW2 6446   2.613   3.506   2.671
 1604SOL    HW3 6447   2.656   3.465   2.532
 1604SOL    MW4 6448   2.665   3.460   2.618
 1605SOL     OW 6449   2.874   3.625   2.713
 1605SOL    HW2 6450   2.862   3.619   2.808
 1605SOL    HW3 6451   2.808   3.566   2.677
 1605SOL    MW4 6452   2.864   3.617   2.721
 1606SOL     OW 6453   2.893   3.883   2.627
 1606SOL    HW2 6454   2.972   3.911   2.672
 1606SOL    HW3 6455   2.878   3.794   2.659
 1606SOL    MW4 6456   2.901   3.875   2.637
 1607SOL     OW 6457   2.690   4.015   2.742
 1607SOL    HW2 6458   2.683   4.104   2.705
 1607SOL    HW3 6459   2.769   3.979   2.703
 1607SOL    MW4 6460   2.699   4.022   2.732
 1608SOL     OW 6461   2.682   4.265   2.621
 1608SOL    HW2 6462   2.752   4.310   2.668
 1608SOL    HW3 6463   2.603   4.314   2.642
 1608SOL    MW4 6464   2.681   4.277   2.630
 1609SOL     OW 6465   2.900   4.421   2.747
 1609SOL    HW2 6466   2.911   4.411   2.841
 1609SOL    HW3 6467   2.898   4.515   2.733
 1609SOL    MW4 6468   2.901   4.432   2.757
 1610SOL     OW 6469   3.356   4.666   2.627
 1610SOL    HW2 6470   3.353   4.573   2.649
 1610SOL    HW3 6471   3.284   4.705   2.676
 1610SOL    MW4 6472   3.346   4.659   2.636
 1611SOL     OW 6473   3.144   0.138   2.728
 1611SOL    HW2 6474   3.144   0.141   2.824
 1611SOL    HW3 6475   3.155   0.229   2.701
 1611SOL    MW4 6476   3.145   0.151   2.737
 1612SOL     OW 6477   3.140   0.424   2.633
 1612SOL    HW2 6478   3.054   0.456   2.661
 1612SOL    HW3 6479   3.127   0.397   2.542
 1612SOL    MW4 6480   3.127   0.424   2.625
 1613SOL     OW 6481   3.403   0.510   2.726
 1613SOL    HW2 6482   3.396   0.602   2.704
 1613SOL    HW3 6483   3.331   0.468   2.680
 1613SOL    MW4 6484   3.393   0.517   2.717
 1614SOL     OW 6485   3.367   0.780   2.672
 1614SOL    HW2 6486   3.446   0.826   2.699
 1614SOL    HW3 6487   3.365   0.788   2.577
 1614SOL    MW4 6488   3.377   0.787   2.663
 1615SOL     OW 6489   3.125   0.907   2.749
 1615SOL    HW2 6490   3.117   0.902   2.844
 1615SOL    HW3 6491   3.210   0.868   2.730
 1615SOL    MW4 6492   3.135   0.901   2.759
 1616SOL     OW 6493   3.189   1.195   2.667
 1616SOL    HW2 6494   3.173   1.108   2.702
 1616SOL    HW3 6495   3.213   1.180   2.575
 1616SOL    MW4 6496   3.190   1.182   2.659
 1617SOL     OW 6497   3.411   1.345   2.754
 1617SOL    HW2 6498   3.426   1.318   2.844
 1617SOL    HW3 6499   3.328   1.303   2.730
 1617SOL    MW4 6500   3.402   1.336   2.762
 1618SOL     OW 6501   3.373   1.576   2.639
 1618SOL    HW2 6502   3.303   1.627   2.680
 1618SOL    HW3 6503   3.381   1.499   2.695
 1618SOL    MW4 6504   3.364   1.573   2.652
 1619SOL     OW 6505   3.136   1.708   2.753
 1619SOL    HW2 6506   3.117   1.797   2.721
 1619SOL    HW3 6507   3.063   1.655   2.719
 1619SOL    MW4 6508   3.124   1.713   2.744
 1620SOL     OW 6509   3.100   1.970   2.650
 1620SOL    HW2 6510   3.190   1.988   2.678
 1620SOL    HW3 6511   3.047   2.034   2.697
 1620SOL    MW4 6512   3.105   1.981   2.660
 1621SOL     OW 6513   3.367   2.026   2.747
 1621SOL    HW2 6514   3.366   2.026   2.843
 1621SOL    HW3 6515   3.354   2.118   2.723
 1621SOL    MW4 6516   3.365   2.038   2.756
 1622SOL     OW 6517   3.362   2.295   2.667
 1622SOL    HW2 6518   3.431   2.348   2.706
 1622SOL    HW3 6519   3.368   2.314   2.573
 1622SOL    MW4 6520   3.372   2.305   2.660
 1623SOL     OW 6521   3.138   2.442   2.746
 1623SOL    HW2 6522   3.133   2.521   2.692
 1623SOL    HW3 6523   3.218   2.398   2.717
 1623SOL    MW4 6524   3.148   2.447   2.735
 1624SOL     OW 6525   3.139   2.687   2.628
 1624SOL    HW2 6526   3.207   2.747   2.657
 1624SOL    HW3 6527   3.058   2.726   2.660
 1624SOL    MW4 6528   3.137   2.700   2.636
 1625SOL     OW 6529   3.357   2.832   2.761
 1625SOL    HW2 6530   3.355   2.832   2.856
 1625SOL    HW3 6531   3.444   2.800   2.738
 1625SOL    MW4 6532   3.368   2.828   2.770
 1626SOL     OW 6533   3.373   3.113   2.671
 1626SOL    HW2 6534   3.360   3.026   2.709
 1626SOL    HW3 6535   3.356   3.101   2.577
 1626SOL    MW4 6536   3.369   3.100   2.664
 1627SOL     OW 6537   3.138   3.251   2.724
 1627SOL    HW2 6538   3.216   3.203   2.697
 1627SOL    HW3 6539   3.065   3.203   2.685
 1627SOL    MW4 6540   3.139   3.238   2.716
 1628SOL     OW 6541   3.137   3.514   2.631
 1628SOL    HW2 6542   3.147   3.429   2.673
 1628SOL    HW3 6543   3.049   3.543   2.654
 1628SOL    MW4 6544   3.127   3.507   2.640
 1629SOL     OW 6545   3.384   3.658   2.700
 1629SOL    HW2 6546   3.381   3.654   2.795
 1629SOL    HW3 6547   3.296   3.635   2.671
 1629SOL    MW4 6548   3.372   3.655   2.709
 1630SOL     OW 6549   3.369   3.920   2.648
 1630SOL    HW2 6550   3.387   3.829   2.673
 1630SOL    HW3 6551   3.360   3.917   2.553
 1630SOL    MW4 6552   3.370   3.908   2.639
 1631SOL     OW 6553   3.112   4.004   2.741
 1631SOL    HW2 6554   3.118   4.099   2.730
 1631SOL    HW3 6555   3.196   3.971   2.710
 1631SOL    MW4 6556   3.124   4.012   2.736
 1632SOL     OW 6557   3.132   4.276   2.668
 1632SOL    HW2 6558   3.050   4.314   2.697
 1632SOL    HW3 6559   3.127   4.278   2.572
 1632SOL    MW4 6560   3.121   4.281   2.659
 1633SOL     OW 6561   3.364   4.412   2.722
 1633SOL    HW2 6562   3.373   4.405   2.817
 1633SOL    HW3 6563   3.289   4.355   2.701
 1633SOL    MW4 6564   3.355   4.403   2.732
 1634SOL     OW 6565   3.802   0.011   2.640
 1634SOL    HW2 6566   3.829  -0.076   2.670
 1634SOL    HW3 6567   3.725   0.032   2.694
 1634SOL    MW4 6568   3.795   0.002   2.651
 1635SOL     OW 6569   3.567   0.098   2.770
 1635SOL    HW2 6570   3.578   0.182   2.726
 1635SOL    HW3 6571   3.493   0.057   2.723
 1635SOL    MW4 6572   3.558   0.104   2.758
 1636SOL     OW 6573   3.606   0.355   2.649
 1636SOL    HW2 6574   3.687   0.392   2.683
 1636SOL    HW3 6575   3.538   0.417   2.678
 1636SOL    MW4 6576   3.608   0.368   2.657
 1637SOL     OW 6577   3.832   0.485   2.733
 1637SOL    HW2 6578   3.828   0.487   2.828
 1637SOL    HW3 6579   3.921   0.458   2.712
 1637SOL    MW4 6580   3.843   0.482   2.742
 1638SOL     OW 6581   3.804   0.748   2.644
 1638SOL    HW2 6582   3.723   0.788   2.677
 1638SOL    HW3 6583   3.799   0.657   2.672
 1638SOL    MW4 6584   3.792   0.741   2.652
 1639SOL     OW 6585   3.609   0.907   2.735
 1639SOL    HW2 6586   3.603   0.908   2.831
 1639SOL    HW3 6587   3.613   1.000   2.711
 1639SOL    MW4 6588   3.608   0.920   2.745
 1640SOL     OW 6589   3.612   1.169   2.644
 1640SOL    HW2 6590   3.686   1.218   2.680
 1640SOL    HW3 6591   3.535   1.212   2.680
 1640SOL    MW4 6592   3.612   1.181   2.653
 1641SOL     OW 6593   3.828   1.319   2.749
 1641SOL    HW2 6594   3.896   1.259   2.719
 1641SOL    HW3 6595   3.843   1.399   2.699
 1641SOL    MW4 6596   3.839   1.322   2.738
 1642SOL     OW 6597   3.836   1.558   2.643
 1642SOL    HW2 6598   3.911   1.596   2.688
 1642SOL    HW3 6599   3.762   1.575   2.702
 1642SOL    MW4 6600   3.836   1.565   2.656
 1643SOL     OW 6601   3.602   1.682   2.753
 1643SOL    HW2 6602   3.595   1.773   2.727
 1643SOL    HW3 6603   3.538   1.636   2.698
 1643SOL    MW4 6604   3.593   1.688   2.742
 1644SOL     OW 6605   3.622   1.945   2.680
 1644SOL    HW2 6606   3.535   1.969   2.711
 1644SOL    HW3 6607   3.617   1.955   2.585
 1644SOL    MW4 6608   3.610   1.950   2.672
 1645SOL     OW 6609   3.837   2.069   2.773
 1645SOL    HW2 6610   3.919   2.031   2.740
 1645SOL    HW3 6611   3.769   2.008   2.743
 1645SOL    MW4 6612   3.839   2.056   2.764
 1646SOL     OW 6613   3.791   2.317   2.644
 1646SOL    HW2 6614   3.827   2.231   2.664
 1646SOL    HW3 6615   3.805   2.328   2.550
 1646SOL    MW4 6616   3.798   2.307   2.634
 1647SOL     OW 6617   3.572   2.443   2.753
 1647SOL    HW2 6618   3.576   2.442   2.849
 1647SOL    HW3 6619   3.641   2.382   2.726
 1647SOL    MW4 6620   3.582   2.435   2.762
 1648SOL     OW 6621   3.583   2.708   2.649
 1648SOL    HW2 6622   3.583   2.618   2.680
 1648SOL    HW3 6623   3.582   2.700   2.553
 1648SOL    MW4 6624   3.583   2.695   2.640
 1649SOL     OW 6625   3.810   2.813   2.760
 1649SOL    HW2 6626   3.883   2.781   2.708
 1649SOL    HW3 6627   3.732   2.786   2.712
 1649SOL    MW4 6628   3.810   2.805   2.747
 1650SOL     OW 6629   3.807   3.085   2.647
 1650SOL    HW2 6630   3.737   3.135   2.689
 1650SOL    HW3 6631   3.801   2.998   2.685
 1650SOL    MW4 6632   3.797   3.080   2.657
 1651SOL     OW 6633   3.606   3.233   2.748
 1651SOL    HW2 6634   3.594   3.319   2.708
 1651SOL    HW3 6635   3.529   3.183   2.722
 1651SOL    MW4 6636   3.594   3.238   2.739
 1652SOL     OW 6637   3.595   3.503   2.612
 1652SOL    HW2 6638   3.667   3.533   2.668
 1652SOL    HW3 6639   3.519   3.552   2.643
 1652SOL    MW4 6640   3.594   3.513   2.624
 1653SOL     OW 6641   3.791   3.610   2.762
 1653SOL    HW2 6642   3.869   3.567   2.729
 1653SOL    HW3 6643   3.795   3.698   2.724
 1653SOL    MW4 6644   3.802   3.616   2.753
 1654SOL     OW 6645   3.769   3.875   2.624
 1654SOL    HW2 6646   3.859   3.894   2.651
 1654SOL    HW3 6647   3.715   3.932   2.679
 1654SOL    MW4 6648   3.774   3.885   2.635
 1655SOL     OW 6649   3.584   4.030   2.795
 1655SOL    HW2 6650   3.584   4.115   2.752
 1655SOL    HW3 6651   3.508   3.985   2.758
 1655SOL    MW4 6652   3.574   4.035   2.784
 1656SOL     OW 6653   3.592   4.268   2.655
 1656SOL    HW2 6654   3.511   4.309   2.686
 1656SOL    HW3 6655   3.579   4.259   2.560
 1656SOL    MW4 6656   3.579   4.272   2.646
 1657SOL     OW 6657   3.836   4.408   2.721
 1657SOL    HW2 6658   3.909   4.351   2.696
 1657SOL    HW3 6659   3.758   4.359   2.694
 1657SOL    MW4 6660   3.835   4.394   2.714
 1658SOL     OW 6661   4.242   4.634   2.654
 1658SOL    HW2 6662   4.167   4.692   2.671
 1658SOL    HW3 6663   4.319   4.688   2.674
 1658SOL    MW4 6664   4.242   4.649   2.659
 1659SOL     OW 6665   4.028   0.113   2.749
 1659SOL    HW2 6666   4.012   0.119   2.843
 1659SOL    HW3 6667   3.941   0.101   2.710
 1659SOL    MW4 6668   4.014   0.112   2.756
 1660SOL     OW 6669   4.084   0.374   2.644
 1660SOL    HW2 6670   4.064   0.285   2.672
 1660SOL    HW3 6671   4.093   0.368   2.549
 1660SOL    MW4 6672   4.082   0.361   2.635
 1661SOL     OW 6673   4.300   0.521   2.747
 1661SOL    HW2 6674   4.224   0.465   2.730
 1661SOL    HW3 6675   4.375   0.469   2.717
 1661SOL    MW4 6676   4.300   0.506   2.741
 1662SOL     OW 6677   4.251   0.780   2.694
 1662SOL    HW2 6678   4.271   0.692   2.725
 1662SOL    HW3 6679   4.251   0.772   2.599
 1662SOL    MW4 6680   4.254   0.767   2.686
 1663SOL     OW 6681   4.002   0.892   2.771
 1663SOL    HW2 6682   4.082   0.844   2.750
 1663SOL    HW3 6683   3.933   0.846   2.724
 1663SOL    MW4 6684   4.004   0.880   2.762
 1664SOL     OW 6685   4.004   1.125   2.647
 1664SOL    HW2 6686   4.079   1.170   2.686
 1664SOL    HW3 6687   3.995   1.044   2.698
 1664SOL    MW4 6688   4.013   1.120   2.659
 1665SOL     OW 6689   4.242   1.254   2.740
 1665SOL    HW2 6690   4.242   1.345   2.710
 1665SOL    HW3 6691   4.332   1.223   2.724
 1665SOL    MW4 6692   4.254   1.262   2.734
 1666SOL     OW 6693   4.285   1.513   2.655
 1666SOL    HW2 6694   4.355   1.549   2.710
 1666SOL    HW3 6695   4.321   1.517   2.566
 1666SOL    MW4 6696   4.299   1.519   2.650
 1667SOL     OW 6697   4.056   1.660   2.752
 1667SOL    HW2 6698   4.069   1.666   2.847
 1667SOL    HW3 6699   4.128   1.605   2.722
 1667SOL    MW4 6700   4.067   1.653   2.761
 1668SOL     OW 6701   4.075   1.928   2.664
 1668SOL    HW2 6702   4.149   1.962   2.714
 1668SOL    HW3 6703   4.079   1.833   2.676
 1668SOL    MW4 6704   4.085   1.920   2.672
 1669SOL     OW 6705   4.305   2.050   2.780
 1669SOL    HW2 6706   4.305   2.130   2.727
 1669SOL    HW3 6707   4.388   2.007   2.759
 1669SOL    MW4 6708   4.316   2.055   2.771
 1670SOL     OW 6709   4.282   2.303   2.661
 1670SOL    HW2 6710   4.199   2.334   2.698
 1670SOL    HW3 6711   4.268   2.305   2.566
 1670SOL    MW4 6712   4.269   2.307   2.653
 1671SOL     OW 6713   4.025   2.418   2.749
 1671SOL    HW2 6714   4.008   2.411   2.843
 1671SOL    HW3 6715   3.942   2.392   2.708
 1671SOL    MW4 6716   4.012   2.414   2.756
 1672SOL     OW 6717   4.011   2.667   2.641
 1672SOL    HW2 6718   4.085   2.722   2.668
 1672SOL    HW3 6719   4.030   2.581   2.680
 1672SOL    MW4 6720   4.024   2.663   2.650
 1673SOL     OW 6721   4.226   2.799   2.746
 1673SOL    HW2 6722   4.248   2.818   2.837
 1673SOL    HW3 6723   4.221   2.885   2.704
 1673SOL    MW4 6724   4.229   2.813   2.752
 1674SOL     OW 6725   4.247   3.062   2.640
 1674SOL    HW2 6726   4.175   3.116   2.671
 1674SOL    HW3 6727   4.251   3.079   2.546
 1674SOL    MW4 6728   4.238   3.071   2.631
 1675SOL     OW 6729   4.037   3.219   2.738
 1675SOL    HW2 6730   4.052   3.304   2.696
 1675SOL    HW3 6731   3.961   3.183   2.693
 1675SOL    MW4 6732   4.029   3.225   2.727
 1676SOL     OW 6733   4.034   3.487   2.671
 1676SOL    HW2 6734   4.106   3.549   2.681
 1676SOL    HW3 6735   4.021   3.480   2.577
 1676SOL    MW4 6736   4.042   3.494   2.660
 1677SOL     OW 6737   4.256   3.646   2.748
 1677SOL    HW2 6738   4.243   3.641   2.843
 1677SOL    HW3 6739   4.333   3.591   2.732
 1677SOL    MW4 6740   4.265   3.638   2.758
 1678SOL     OW 6741   4.281   3.865   2.612
 1678SOL    HW2 6742   4.288   3.778   2.651
 1678SOL    HW3 6743   4.364   3.908   2.633
 1678SOL    MW4 6744   4.293   3.860   2.620
 1679SOL     OW 6745   4.027   3.972   2.713
 1679SOL    HW2 6746   4.039   3.965   2.807
 1679SOL    HW3 6747   4.107   3.935   2.675
 1679SOL    MW4 6748   4.039   3.966   2.720
 1680SOL     OW 6749   4.039   4.248   2.653
 1680SOL    HW2 6750   4.013   4.158   2.671
 1680SOL    HW3 6751   4.024   4.259   2.559
 1680SOL    MW4 6752   4.034   4.238   2.643
 1681SOL     OW 6753   4.288   4.375   2.715
 1681SOL    HW2 6754   4.210   4.323   2.695
 1681SOL    HW3 6755   4.267   4.463   2.685
 1681SOL    MW4 6756   4.275   4.379   2.708
 1682SOL     OW 6757   0.222   4.647   3.084
 1682SOL    HW2 6758   0.222   4.657   3.179
 1682SOL    HW3 6759   0.139   4.686   3.055
 1682SOL    MW4 6760   0.211   4.654   3.092
 1683SOL     OW 6761   4.475   0.105   3.031
 1683SOL    HW2 6762   4.391   0.074   3.062
 1683SOL    HW3 6763   4.484   0.193   3.067
 1683SOL    MW4 6764   4.465   0.113   3.040
 1684SOL     OW 6765   0.007   0.373   3.116
 1684SOL    HW2 6766   0.016   0.377   3.211
 1684SOL    HW3 6767  -0.081   0.406   3.099
 1684SOL    MW4 6768  -0.004   0.378   3.126
 1685SOL     OW 6769   0.216   0.483   2.987
 1685SOL    HW2 6770   0.294   0.449   3.032
 1685SOL    HW3 6771   0.143   0.438   3.029
 1685SOL    MW4 6772   0.217   0.473   2.999
 1686SOL     OW 6773   0.249   0.739   3.092
 1686SOL    HW2 6774   0.235   0.744   3.187
 1686SOL    HW3 6775   0.225   0.649   3.070
 1686SOL    MW4 6776   0.244   0.728   3.102
 1687SOL     OW 6777   4.490   0.909   3.042
 1687SOL    HW2 6778   4.574   0.863   3.054
 1687SOL    HW3 6779   4.472   0.902   2.948
 1687SOL    MW4 6780   4.499   0.902   3.031
 1688SOL     OW 6781   0.012   1.172   3.152
 1688SOL    HW2 6782  -0.055   1.222   3.104
 1688SOL    HW3 6783   0.018   1.089   3.105
 1688SOL    MW4 6784   0.004   1.168   3.140
 1689SOL     OW 6785   0.221   1.272   3.001
 1689SOL    HW2 6786   0.145   1.236   3.046
 1689SOL    HW3 6787   0.204   1.256   2.908
 1689SOL    MW4 6788   0.209   1.265   2.994
 1690SOL     OW 6789   0.244   1.539   3.131
 1690SOL    HW2 6790   0.155   1.572   3.117
 1690SOL    HW3 6791   0.239   1.447   3.107
 1690SOL    MW4 6792   0.231   1.531   3.126
 1691SOL     OW 6793   4.478   1.668   3.070
 1691SOL    HW2 6794   4.397   1.634   3.109
 1691SOL    HW3 6795   4.482   1.759   3.099
 1691SOL    MW4 6796   4.468   1.676   3.079
 1692SOL     OW 6797   4.485   1.935   3.138
 1692SOL    HW2 6798   4.409   1.977   3.099
 1692SOL    HW3 6799   4.560   1.981   3.100
 1692SOL    MW4 6800   4.485   1.946   3.128
 1693SOL     OW 6801   0.224   2.067   3.063
 1693SOL    HW2 6802   0.213   2.160   3.086
 1693SOL    HW3 6803   0.230   2.067   2.967
 1693SOL    MW4 6804   0.223   2.079   3.053
 1694SOL     OW 6805   0.201   2.316   3.166
 1694SOL    HW2 6806   0.217   2.312   3.261
 1694SOL    HW3 6807   0.257   2.387   3.135
 1694SOL    MW4 6808   0.210   2.324   3.175
 1695SOL     OW 6809   4.487   2.431   3.042
 1695SOL    HW2 6810   4.498   2.519   3.079
 1695SOL    HW3 6811   4.536   2.374   3.101
 1695SOL    MW4 6812   4.495   2.435   3.055
 1696SOL     OW 6813   4.483   2.686   3.143
 1696SOL    HW2 6814   4.474   2.683   3.238
 1696SOL    HW3 6815   4.549   2.754   3.128
 1696SOL    MW4 6816   4.490   2.695   3.154
 1697SOL     OW 6817   0.166   2.859   3.034
 1697SOL    HW2 6818   0.238   2.808   3.070
 1697SOL    HW3 6819   0.173   2.848   2.940
 1697SOL    MW4 6820   0.176   2.851   3.027
 1698SOL     OW 6821   0.232   3.108   3.103
 1698SOL    HW2 6822   0.152   3.157   3.084
 1698SOL    HW3 6823   0.204   3.017   3.107
 1698SOL    MW4 6824   0.218   3.103   3.101
 1699SOL     OW 6825   4.454   3.248   3.049
 1699SOL    HW2 6826   4.393   3.182   3.082
 1699SOL    HW3 6827   4.444   3.244   2.953
 1699SOL    MW4 6828   4.445   3.239   3.040
 1700SOL     OW 6829   0.003   3.517   3.122
 1700SOL    HW2 6830  -0.077   3.555   3.085
 1700SOL    HW3 6831  -0.010   3.423   3.116
 1700SOL    MW4 6832  -0.009   3.510   3.116
 1701SOL     OW 6833   0.239   3.623   3.022
 1701SOL    HW2 6834   0.240   3.713   3.055
 1701SOL    HW3 6835   0.161   3.583   3.060
 1701SOL    MW4 6836   0.229   3.629   3.031
 1702SOL     OW 6837   0.232   3.894   3.108
 1702SOL    HW2 6838   0.220   3.892   3.203
 1702SOL    HW3 6839   0.319   3.933   3.096
 1702SOL    MW4 6840   0.242   3.899   3.119
 1703SOL     OW 6841   4.483   3.990   2.995
 1703SOL    HW2 6842   4.569   3.959   3.024
 1703SOL    HW3 6843   4.485   3.979   2.900
 1703SOL    MW4 6844   4.495   3.984   2.986
 1704SOL     OW 6845   4.473   4.252   3.073
 1704SOL    HW2 6846   4.473   4.259   3.168
 1704SOL    HW3 6847   4.473   4.158   3.056
 1704SOL    MW4 6848   4.473   4.241   3.083
 1705SOL     OW 6849   0.223   4.385   2.990
 1705SOL    HW2 6850   0.149   4.339   3.029
 1705SOL    HW3 6851   0.218   4.474   3.026
 1705SOL    MW4 6852   0.212   4.391   3.000
 1706SOL     OW 6853   0.677   0.024   3.114
 1706SOL    HW2 6854   0.664  -0.070   3.100
 1706SOL    HW3 6855   0.594   0.063   3.085
 1706SOL    MW4 6856   0.664   0.017   3.108
 1707SOL     OW 6857   0.451   0.127   3.002
 1707SOL    HW2 6858   0.438   0.213   3.041
 1707SOL    HW3 6859   0.369   0.081   3.016
 1707SOL    MW4 6860   0.439   0.132   3.009
 1708SOL     OW 6861   0.437   0.379   3.119
 1708SOL    HW2 6862   0.437   0.397   3.213
 1708SOL    HW3 6863   0.507   0.434   3.084
 1708SOL    MW4 6864   0.446   0.389   3.127
 1709SOL     OW 6865   0.644   0.540   3.003
 1709SOL    HW2 6866   0.704   0.484   3.053
 1709SOL    HW3 6867   0.647   0.624   3.048
 1709SOL    MW4 6868   0.652   0.544   3.016
 1710SOL     OW 6869   0.690   0.785   3.136
 1710SOL    HW2 6870   0.668   0.780   3.229
 1710SOL    HW3 6871   0.619   0.837   3.097
 1710SOL    MW4 6872   0.677   0.791   3.143
 1711SOL     OW 6873   0.461   0.900   3.023
 1711SOL    HW2 6874   0.391   0.844   3.057
 1711SOL    HW3 6875   0.453   0.893   2.927
 1711SOL    MW4 6876   0.451   0.892   3.014
 1712SOL     OW 6877   0.437   1.147   3.108
 1712SOL    HW2 6878   0.438   1.055   3.083
 1712SOL    HW3 6879   0.355   1.181   3.072
 1712SOL    MW4 6880   0.426   1.140   3.100
 1713SOL     OW 6881   0.662   1.250   3.015
 1713SOL    HW2 6882   0.735   1.211   3.063
 1713SOL    HW3 6883   0.584   1.211   3.054
 1713SOL    MW4 6884   0.661   1.239   3.026
 1714SOL     OW 6885   0.634   1.501   3.161
 1714SOL    HW2 6886   0.659   1.500   3.253
 1714SOL    HW3 6887   0.660   1.415   3.128
 1714SOL    MW4 6888   0.641   1.489   3.169
 1715SOL     OW 6889   0.462   1.718   3.086
 1715SOL    HW2 6890   0.517   1.642   3.105
 1715SOL    HW3 6891   0.373   1.688   3.100
 1715SOL    MW4 6892   0.458   1.704   3.091
 1716SOL     OW 6893   0.491   1.985   3.124
 1716SOL    HW2 6894   0.482   1.890   3.120
 1716SOL    HW3 6895   0.402   2.018   3.111
 1716SOL    MW4 6896   0.478   1.977   3.122
 1717SOL     OW 6897   0.718   2.094   3.033
 1717SOL    HW2 6898   0.788   2.039   3.067
 1717SOL    HW3 6899   0.638   2.059   3.072
 1717SOL    MW4 6900   0.717   2.082   3.042
 1718SOL     OW 6901   0.661   2.354   3.124
 1718SOL    HW2 6902   0.652   2.345   3.219
 1718SOL    HW3 6903   0.684   2.266   3.093
 1718SOL    MW4 6904   0.663   2.341   3.132
 1719SOL     OW 6905   0.413   2.457   3.027
 1719SOL    HW2 6906   0.488   2.413   3.066
 1719SOL    HW3 6907   0.438   2.474   2.937
 1719SOL    MW4 6908   0.426   2.454   3.020
 1720SOL     OW 6909   0.405   2.712   3.103
 1720SOL    HW2 6910   0.484   2.764   3.089
 1720SOL    HW3 6911   0.425   2.627   3.064
 1720SOL    MW4 6912   0.418   2.708   3.096
 1721SOL     OW 6913   0.633   2.870   3.032
 1721SOL    HW2 6914   0.714   2.837   3.072
 1721SOL    HW3 6915   0.631   2.963   3.054
 1721SOL    MW4 6916   0.643   2.878   3.040
 1722SOL     OW 6917   0.653   3.134   3.102
 1722SOL    HW2 6918   0.639   3.117   3.195
 1722SOL    HW3 6919   0.571   3.173   3.072
 1722SOL    MW4 6920   0.640   3.137   3.110
 1723SOL     OW 6921   0.433   3.231   2.972
 1723SOL    HW2 6922   0.427   3.317   3.014
 1723SOL    HW3 6923   0.361   3.181   3.010
 1723SOL    MW4 6924   0.423   3.236   2.982
 1724SOL     OW 6925   0.435   3.464   3.099
 1724SOL    HW2 6926   0.420   3.450   3.193
 1724SOL    HW3 6927   0.366   3.525   3.073
 1724SOL    MW4 6928   0.424   3.471   3.108
 1725SOL     OW 6929   0.647   3.588   2.951
 1725SOL    HW2 6930   0.722   3.532   2.968
 1725SOL    HW3 6931   0.580   3.559   3.013
 1725SOL    MW4 6932   0.648   3.577   2.961
 1726SOL     OW 6933   0.703   3.829   3.081
 1726SOL    HW2 6934   0.706   3.813   3.175
 1726SOL    HW3 6935   0.684   3.744   3.042
 1726SOL    MW4 6936   0.701   3.816   3.088
 1727SOL     OW 6937   0.486   4.008   3.039
 1727SOL    HW2 6938   0.560   3.949   3.051
 1727SOL    HW3 6939   0.462   3.997   2.946
 1727SOL    MW4 6940   0.492   3.999   3.028
 1728SOL     OW 6941   0.428   4.260   3.145
 1728SOL    HW2 6942   0.445   4.171   3.113
 1728SOL    HW3 6943   0.349   4.288   3.100
 1728SOL    MW4 6944   0.420   4.252   3.135
 1729SOL     OW 6945   0.630   4.419   3.059
 1729SOL    HW2 6946   0.549   4.373   3.084
 1729SOL    HW3 6947   0.626   4.424   2.964
 1729SOL    MW4 6948   0.619   4.414   3.050
 1730SOL     OW 6949   1.089   0.036   3.119
 1730SOL    HW2 6950   1.175   0.071   3.094
 1730SOL    HW3 6951   1.027   0.084   3.064
 1730SOL    MW4 6952   1.092   0.047   3.108
 1731SOL     OW 6953   0.892   0.154   2.989
 1731SOL    HW2 6954   0.877   0.236   3.036
 1731SOL    HW3 6955   0.825   0.095   3.023
 1731SOL    MW4 6956   0.881   0.157   3.000
 1732SOL     OW 6957   0.843   0.401   3.143
 1732SOL    HW2 6958   0.853   0.392   3.238
 1732SOL    HW3 6959   0.927   0.437   3.114
 1732SOL    MW4 6960   0.855   0.404   3.152
 1733SOL     OW 6961   1.115   0.456   3.071
 1733SOL    HW2 6962   1.206   0.436   3.093
 1733SOL    HW3 6963   1.113   0.457   2.975
 1733SOL    MW4 6964   1.126   0.453   3.061
 1734SOL     OW 6965   1.140   0.725   3.145
 1734SOL    HW2 6966   1.129   0.726   3.240
 1734SOL    HW3 6967   1.124   0.634   3.121
 1734SOL    MW4 6968   1.136   0.713   3.155
 1735SOL     OW 6969   0.929   0.894   3.027
 1735SOL    HW2 6970   1.001   0.840   3.059
 1735SOL    HW3 6971   0.850   0.854   3.064
 1735SOL    MW4 6972   0.928   0.882   3.036
 1736SOL     OW 6973   0.891   1.146   3.110
 1736SOL    HW2 6974   0.966   1.200   3.085
 1736SOL    HW3 6975   0.910   1.060   3.073
 1736SOL    MW4 6976   0.904   1.141   3.102
 1737SOL     OW 6977   1.113   1.299   3.024
 1737SOL    HW2 6978   1.179   1.250   3.073
 1737SOL    HW3 6979   1.141   1.289   2.932
 1737SOL    MW4 6980   1.126   1.291   3.018
 1738SOL     OW 6981   1.106   1.557   3.130
 1738SOL    HW2 6982   1.169   1.609   3.080
 1738SOL    HW3 6983   1.120   1.468   3.100
 1738SOL    MW4 6984   1.116   1.552   3.120
 1739SOL     OW 6985   0.851   1.640   3.008
 1739SOL    HW2 6986   0.922   1.588   3.045
 1739SOL    HW3 6987   0.771   1.595   3.036
 1739SOL    MW4 6988   0.850   1.627   3.016
 1740SOL     OW 6989   0.903   1.900   3.126
 1740SOL    HW2 6990   0.906   1.898   3.222
 1740SOL    HW3 6991   0.876   1.812   3.101
 1740SOL    MW4 6992   0.900   1.888   3.136
 1741SOL     OW 6993   1.073   2.086   3.029
 1741SOL    HW2 6994   1.025   2.009   3.059
 1741SOL    HW3 6995   1.075   2.076   2.933
 1741SOL    MW4 6996   1.067   2.074   3.020
 1742SOL     OW 6997   1.113   2.337   3.140
 1742SOL    HW2 6998   1.045   2.393   3.103
 1742SOL    HW3 6999   1.103   2.253   3.094
 1742SOL    MW4 7000   1.103   2.333   3.129
 1743SOL     OW 7001   0.899   2.491   3.063
 1743SOL    HW2 7002   0.825   2.437   3.092
 1743SOL    HW3 7003   0.903   2.478   2.969
 1743SOL    MW4 7004   0.890   2.482   3.055
 1744SOL     OW 7005   0.866   2.753   3.135
 1744SOL    HW2 7006   0.873   2.767   3.229
 1744SOL    HW3 7007   0.878   2.659   3.123
 1744SOL    MW4 7008   0.869   2.742   3.146
 1745SOL     OW 7009   1.100   2.824   2.996
 1745SOL    HW2 7010   1.121   2.913   3.022
 1745SOL    HW3 7011   1.011   2.809   3.029
 1745SOL    MW4 7012   1.091   2.834   3.003
 1746SOL     OW 7013   1.118   3.082   3.103
 1746SOL    HW2 7014   1.193   3.139   3.082
 1746SOL    HW3 7015   1.042   3.128   3.067
 1746SOL    MW4 7016   1.118   3.096   3.096
 1747SOL     OW 7017   0.896   3.220   3.026
 1747SOL    HW2 7018   0.813   3.180   3.053
 1747SOL    HW3 7019   0.885   3.235   2.932
 1747SOL    MW4 7020   0.883   3.217   3.017
 1748SOL     OW 7021   0.872   3.496   3.098
 1748SOL    HW2 7022   0.956   3.532   3.068
 1748SOL    HW3 7023   0.877   3.403   3.078
 1748SOL    MW4 7024   0.884   3.489   3.092
 1749SOL     OW 7025   1.126   3.618   3.020
 1749SOL    HW2 7026   1.204   3.572   3.052
 1749SOL    HW3 7027   1.136   3.708   3.052
 1749SOL    MW4 7028   1.138   3.624   3.028
 1750SOL     OW 7029   1.122   3.890   3.087
 1750SOL    HW2 7030   1.112   3.899   3.182
 1750SOL    HW3 7031   1.040   3.921   3.051
 1750SOL    MW4 7032   1.110   3.895   3.095
 1751SOL     OW 7033   0.891   4.023   3.008
 1751SOL    HW2 7034   0.835   3.955   3.045
 1751SOL    HW3 7035   0.892   4.004   2.914
 1751SOL    MW4 7036   0.884   4.011   3.000
 1752SOL     OW 7037   0.868   4.288   3.106
 1752SOL    HW2 7038   0.850   4.196   3.085
 1752SOL    HW3 7039   0.785   4.333   3.090
 1752SOL    MW4 7040   0.855   4.282   3.101
 1753SOL     OW 7041   1.082   4.409   3.004
 1753SOL    HW2 7042   1.000   4.363   3.022
 1753SOL    HW3 7043   1.068   4.497   3.039
 1753SOL    MW4 7044   1.069   4.415   3.011
 1754SOL     OW 7045   1.571   0.016   3.128
 1754SOL    HW2 7046   1.582   0.009   3.223
 1754SOL    HW3 7047   1.486   0.058   3.116
 1754SOL    MW4 7048   1.561   0.020   3.139
 1755SOL     OW 7049   1.326   0.127   3.051
 1755SOL    HW2 7050   1.356   0.213   3.079
 1755SOL    HW3 7051   1.336   0.128   2.956
 1755SOL    MW4 7052   1.331   0.138   3.042
 1756SOL     OW 7053   1.375   0.401   3.140
 1756SOL    HW2 7054   1.371   0.420   3.233
 1756SOL    HW3 7055   1.435   0.466   3.104
 1756SOL    MW4 7056   1.383   0.412   3.147
 1757SOL     OW 7057   1.609   0.535   3.003
 1757SOL    HW2 7058   1.593   0.628   3.022
 1757SOL    HW3 7059   1.580   0.524   2.912
 1757SOL    MW4 7060   1.603   0.546   2.993
 1758SOL     OW 7061   1.561   0.784   3.123
 1758SOL    HW2 7062   1.562   0.795   3.219
 1758SOL    HW3 7063   1.480   0.826   3.095
 1758SOL    MW4 7064   1.550   0.791   3.132
 1759SOL     OW 7065   1.310   0.892   3.010
 1759SOL    HW2 7066   1.287   0.978   3.046
 1759SOL    HW3 7067   1.266   0.829   3.066
 1759SOL    MW4 7068   1.301   0.895   3.022
 1760SOL     OW 7069   1.326   1.140   3.128
 1760SOL    HW2 7070   1.345   1.127   3.220
 1760SOL    HW3 7071   1.400   1.192   3.095
 1760SOL    MW4 7072   1.338   1.145   3.136
 1761SOL     OW 7073   1.527   1.280   3.013
 1761SOL    HW2 7074   1.594   1.221   3.049
 1761SOL    HW3 7075   1.549   1.366   3.049
 1761SOL    MW4 7076   1.539   1.284   3.023
 1762SOL     OW 7077   1.518   1.528   3.132
 1762SOL    HW2 7078   1.594   1.583   3.111
 1762SOL    HW3 7079   1.444   1.572   3.091
 1762SOL    MW4 7080   1.519   1.541   3.124
 1763SOL     OW 7081   1.334   1.680   3.006
 1763SOL    HW2 7082   1.321   1.771   3.034
 1763SOL    HW3 7083   1.365   1.687   2.916
 1763SOL    MW4 7084   1.337   1.693   2.998
 1764SOL     OW 7085   1.338   1.966   3.062
 1764SOL    HW2 7086   1.344   1.958   3.157
 1764SOL    HW3 7087   1.257   2.015   3.047
 1764SOL    MW4 7088   1.328   1.971   3.073
 1765SOL     OW 7089   1.578   2.079   2.994
 1765SOL    HW2 7090   1.494   2.039   3.015
 1765SOL    HW3 7091   1.578   2.084   2.898
 1765SOL    MW4 7092   1.567   2.075   2.984
 1766SOL     OW 7093   1.612   2.345   3.087
 1766SOL    HW2 7094   1.524   2.383   3.078
 1766SOL    HW3 7095   1.604   2.256   3.053
 1766SOL    MW4 7096   1.599   2.339   3.081
 1767SOL     OW 7097   1.350   2.423   3.035
 1767SOL    HW2 7098   1.271   2.381   3.071
 1767SOL    HW3 7099   1.341   2.414   2.940
 1767SOL    MW4 7100   1.338   2.416   3.027
 1768SOL     OW 7101   1.312   2.674   3.142
 1768SOL    HW2 7102   1.309   2.583   3.112
 1768SOL    HW3 7103   1.237   2.716   3.100
 1768SOL    MW4 7104   1.301   2.668   3.133
 1769SOL     OW 7105   1.538   2.830   2.987
 1769SOL    HW2 7106   1.620   2.795   3.020
 1769SOL    HW3 7107   1.470   2.779   3.031
 1769SOL    MW4 7108   1.540   2.819   2.997
 1770SOL     OW 7109   1.563   3.087   3.077
 1770SOL    HW2 7110   1.556   3.078   3.172
 1770SOL    HW3 7111   1.567   2.997   3.044
 1770SOL    MW4 7112   1.563   3.074   3.085
 1771SOL     OW 7113   1.327   3.233   3.018
 1771SOL    HW2 7114   1.407   3.185   3.040
 1771SOL    HW3 7115   1.332   3.245   2.923
 1771SOL    MW4 7116   1.338   3.228   3.008
 1772SOL     OW 7117   1.337   3.486   3.128
 1772SOL    HW2 7118   1.342   3.472   3.223
 1772SOL    HW3 7119   1.326   3.398   3.092
 1772SOL    MW4 7120   1.336   3.473   3.136
 1773SOL     OW 7121   1.567   3.600   2.994
 1773SOL    HW2 7122   1.492   3.547   3.020
 1773SOL    HW3 7123   1.567   3.596   2.898
 1773SOL    MW4 7124   1.557   3.593   2.985
 1774SOL     OW 7125   1.572   3.890   3.084
 1774SOL    HW2 7126   1.658   3.912   3.047
 1774SOL    HW3 7127   1.551   3.804   3.046
 1774SOL    MW4 7128   1.581   3.882   3.074
 1775SOL     OW 7129   1.342   4.043   3.018
 1775SOL    HW2 7130   1.425   4.000   3.038
 1775SOL    HW3 7131   1.275   3.981   3.047
 1775SOL    MW4 7132   1.344   4.029   3.024
 1776SOL     OW 7133   1.316   4.292   3.133
 1776SOL    HW2 7134   1.309   4.208   3.088
 1776SOL    HW3 7135   1.238   4.340   3.105
 1776SOL    MW4 7136   1.305   4.287   3.123
 1777SOL     OW 7137   1.516   4.437   2.994
 1777SOL    HW2 7138   1.452   4.386   3.046
 1777SOL    HW3 7139   1.520   4.522   3.038
 1777SOL    MW4 7140   1.508   4.441   3.007
 1778SOL     OW 7141   2.036   4.651   3.100
 1778SOL    HW2 7142   2.031   4.649   3.196
 1778SOL    HW3 7143   1.965   4.710   3.074
 1778SOL    MW4 7144   2.026   4.658   3.109
 1779SOL     OW 7145   1.806   0.132   3.042
 1779SOL    HW2 7146   1.722   0.100   3.076
 1779SOL    HW3 7147   1.803   0.112   2.948
 1779SOL    MW4 7148   1.794   0.125   3.034
 1780SOL     OW 7149   1.824   0.386   3.144
 1780SOL    HW2 7150   1.807   0.298   3.112
 1780SOL    HW3 7151   1.749   0.437   3.115
 1780SOL    MW4 7152   1.812   0.381   3.136
 1781SOL     OW 7153   2.021   0.503   3.005
 1781SOL    HW2 7154   1.950   0.454   3.045
 1781SOL    HW3 7155   1.996   0.512   2.913
 1781SOL    MW4 7156   2.009   0.498   2.998
 1782SOL     OW 7157   2.033   0.744   3.144
 1782SOL    HW2 7158   1.947   0.782   3.126
 1782SOL    HW3 7159   2.037   0.666   3.088
 1782SOL    MW4 7160   2.022   0.739   3.134
 1783SOL     OW 7161   1.805   0.881   3.065
 1783SOL    HW2 7162   1.715   0.855   3.086
 1783SOL    HW3 7163   1.815   0.859   2.972
 1783SOL    MW4 7164   1.794   0.875   3.055
 1784SOL     OW 7165   1.782   1.171   3.141
 1784SOL    HW2 7166   1.784   1.161   3.236
 1784SOL    HW3 7167   1.805   1.084   3.107
 1784SOL    MW4 7168   1.785   1.158   3.149
 1785SOL     OW 7169   1.998   1.288   2.979
 1785SOL    HW2 7170   2.078   1.247   3.012
 1785SOL    HW3 7171   1.927   1.248   3.030
 1785SOL    MW4 7172   1.999   1.277   2.990
 1786SOL     OW 7173   1.995   1.528   3.123
 1786SOL    HW2 7174   2.023   1.514   3.214
 1786SOL    HW3 7175   1.995   1.441   3.084
 1786SOL    MW4 7176   1.999   1.515   3.130
 1787SOL     OW 7177   1.764   1.657   3.040
 1787SOL    HW2 7178   1.772   1.751   3.057
 1787SOL    HW3 7179   1.846   1.620   3.072
 1787SOL    MW4 7180   1.776   1.665   3.047
 1788SOL     OW 7181   1.772   1.917   3.102
 1788SOL    HW2 7182   1.852   1.970   3.096
 1788SOL    HW3 7183   1.705   1.969   3.057
 1788SOL    MW4 7184   1.774   1.931   3.095
 1789SOL     OW 7185   1.984   2.072   3.027
 1789SOL    HW2 7186   2.055   2.017   3.060
 1789SOL    HW3 7187   1.989   2.152   3.079
 1789SOL    MW4 7188   1.994   2.075   3.038
 1790SOL     OW 7189   2.034   2.333   3.155
 1790SOL    HW2 7190   2.111   2.364   3.107
 1790SOL    HW3 7191   1.963   2.388   3.123
 1790SOL    MW4 7192   2.035   2.344   3.144
 1791SOL     OW 7193   1.836   2.483   3.035
 1791SOL    HW2 7194   1.809   2.571   3.058
 1791SOL    HW3 7195   1.761   2.428   3.058
 1791SOL    MW4 7196   1.823   2.487   3.041
 1792SOL     OW 7197   1.773   2.747   3.103
 1792SOL    HW2 7198   1.784   2.722   3.194
 1792SOL    HW3 7199   1.857   2.787   3.078
 1792SOL    MW4 7200   1.785   2.749   3.111
 1793SOL     OW 7201   2.031   2.864   3.036
 1793SOL    HW2 7202   2.037   2.951   3.075
 1793SOL    HW3 7203   2.042   2.878   2.942
 1793SOL    MW4 7204   2.033   2.877   3.029
 1794SOL     OW 7205   2.033   3.119   3.130
 1794SOL    HW2 7206   2.009   3.097   3.220
 1794SOL    HW3 7207   1.955   3.163   3.095
 1794SOL    MW4 7208   2.019   3.122   3.137
 1795SOL     OW 7209   1.803   3.222   3.039
 1795SOL    HW2 7210   1.723   3.179   3.069
 1795SOL    HW3 7211   1.794   3.226   2.943
 1795SOL    MW4 7212   1.792   3.216   3.030
 1796SOL     OW 7213   1.806   3.508   3.132
 1796SOL    HW2 7214   1.804   3.414   3.113
 1796SOL    HW3 7215   1.738   3.545   3.076
 1796SOL    MW4 7216   1.797   3.501   3.122
 1797SOL     OW 7217   2.027   3.598   3.000
 1797SOL    HW2 7218   2.052   3.686   3.026
 1797SOL    HW3 7219   1.944   3.582   3.046
 1797SOL    MW4 7220   2.019   3.607   3.010
 1798SOL     OW 7221   2.062   3.863   3.075
 1798SOL    HW2 7222   2.072   3.877   3.169
 1798SOL    HW3 7223   1.973   3.893   3.055
 1798SOL    MW4 7224   2.052   3.869   3.085
 1799SOL     OW 7225   1.816   3.979   3.010
 1799SOL    HW2 7226   1.795   4.069   3.038
 1799SOL    HW3 7227   1.821   3.985   2.915
 1799SOL    MW4 7228   1.814   3.992   3.001
 1800SOL     OW 7229   1.750   4.264   3.054
 1800SOL    HW2 7230   1.828   4.312   3.027
 1800SOL    HW3 7231   1.677   4.324   3.038
 1800SOL    MW4 7232   1.751   4.278   3.048
 1801SOL     OW 7233   2.001   4.390   2.987
 1801SOL    HW2 7234   2.031   4.474   3.020
 1801SOL    HW3 7235   1.996   4.401   2.892
 1801SOL    MW4 7236   2.005   4.402   2.979
 1802SOL     OW 7237   2.461   4.658   3.130
 1802SOL    HW2 7238   2.471   4.570   3.094
 1802SOL    HW3 7239   2.390   4.697   3.080
 1802SOL    MW4 7240   2.453   4.651   3.119
 1803SOL     OW 7241   2.258   0.125   2.987
 1803SOL    HW2 7242   2.262   0.217   3.011
 1803SOL    HW3 7243   2.187   0.089   3.041
 1803SOL    MW4 7244   2.249   0.132   2.998
 1804SOL     OW 7245   2.269   0.388   3.075
 1804SOL    HW2 7246   2.266   0.376   3.170
 1804SOL    HW3 7247   2.184   0.427   3.053
 1804SOL    MW4 7248   2.257   0.392   3.084
 1805SOL     OW 7249   2.483   0.520   2.977
 1805SOL    HW2 7250   2.414   0.464   3.013
 1805SOL    HW3 7251   2.472   0.515   2.883
 1805SOL    MW4 7252   2.472   0.512   2.970
 1806SOL     OW 7253   2.432   0.772   3.063
 1806SOL    HW2 7254   2.513   0.823   3.064
 1806SOL    HW3 7255   2.457   0.686   3.029
 1806SOL    MW4 7256   2.446   0.767   3.059
 1807SOL     OW 7257   2.209   0.895   2.992
 1807SOL    HW2 7258   2.293   0.854   3.011
 1807SOL    HW3 7259   2.145   0.840   3.038
 1807SOL    MW4 7260   2.211   0.882   3.001
 1808SOL     OW 7261   2.233   1.152   3.084
 1808SOL    HW2 7262   2.215   1.163   3.178
 1808SOL    HW3 7263   2.221   1.059   3.068
 1808SOL    MW4 7264   2.229   1.141   3.095
 1809SOL     OW 7265   2.455   1.328   3.034
 1809SOL    HW2 7266   2.389   1.267   3.064
 1809SOL    HW3 7267   2.453   1.320   2.938
 1809SOL    MW4 7268   2.446   1.319   3.025
 1810SOL     OW 7269   2.447   1.574   3.167
 1810SOL    HW2 7270   2.362   1.602   3.132
 1810SOL    HW3 7271   2.466   1.493   3.121
 1810SOL    MW4 7272   2.438   1.567   3.156
 1811SOL     OW 7273   2.221   1.654   3.041
 1811SOL    HW2 7274   2.141   1.615   3.077
 1811SOL    HW3 7275   2.207   1.653   2.946
 1811SOL    MW4 7276   2.208   1.649   3.033
 1812SOL     OW 7277   2.197   1.912   3.149
 1812SOL    HW2 7278   2.261   1.972   3.112
 1812SOL    HW3 7279   2.212   1.829   3.102
 1812SOL    MW4 7280   2.207   1.909   3.138
 1813SOL     OW 7281   2.419   2.051   3.057
 1813SOL    HW2 7282   2.494   2.014   3.103
 1813SOL    HW3 7283   2.443   2.048   2.964
 1813SOL    MW4 7284   2.432   2.046   3.051
 1814SOL     OW 7285   2.482   2.310   3.084
 1814SOL    HW2 7286   2.492   2.318   3.179
 1814SOL    HW3 7287   2.451   2.220   3.071
 1814SOL    MW4 7288   2.479   2.299   3.095
 1815SOL     OW 7289   2.257   2.438   3.016
 1815SOL    HW2 7290   2.260   2.524   3.058
 1815SOL    HW3 7291   2.339   2.396   3.042
 1815SOL    MW4 7292   2.268   2.444   3.025
 1816SOL     OW 7293   2.238   2.699   3.114
 1816SOL    HW2 7294   2.311   2.757   3.091
 1816SOL    HW3 7295   2.160   2.752   3.101
 1816SOL    MW4 7296   2.237   2.713   3.109
 1817SOL     OW 7297   2.477   2.860   3.028
 1817SOL    HW2 7298   2.479   2.951   3.056
 1817SOL    HW3 7299   2.461   2.863   2.934
 1817SOL    MW4 7300   2.476   2.872   3.020
 1818SOL     OW 7301   2.455   3.127   3.075
 1818SOL    HW2 7302   2.534   3.167   3.040
 1818SOL    HW3 7303   2.383   3.176   3.036
 1818SOL    MW4 7304   2.456   3.139   3.066
 1819SOL     OW 7305   2.240   3.257   3.001
 1819SOL    HW2 7306   2.237   3.342   3.044
 1819SOL    HW3 7307   2.173   3.205   3.046
 1819SOL    MW4 7308   2.231   3.261   3.013
 1820SOL     OW 7309   2.232   3.473   3.144
 1820SOL    HW2 7310   2.310   3.508   3.101
 1820SOL    HW3 7311   2.159   3.501   3.088
 1820SOL    MW4 7312   2.233   3.481   3.131
 1821SOL     OW 7313   2.451   3.580   2.999
 1821SOL    HW2 7314   2.523   3.535   3.042
 1821SOL    HW3 7315   2.444   3.664   3.045
 1821SOL    MW4 7316   2.459   3.585   3.011
 1822SOL     OW 7317   2.459   3.849   3.103
 1822SOL    HW2 7318   2.449   3.851   3.198
 1822SOL    HW3 7319   2.543   3.892   3.087
 1822SOL    MW4 7320   2.469   3.855   3.114
 1823SOL     OW 7321   2.264   4.003   2.978
 1823SOL    HW2 7322   2.343   3.963   3.013
 1823SOL    HW3 7323   2.193   3.946   3.007
 1823SOL    MW4 7324   2.265   3.991   2.986
 1824SOL     OW 7325   2.220   4.248   3.093
 1824SOL    HW2 7326   2.221   4.160   3.055
 1824SOL    HW3 7327   2.133   4.283   3.072
 1824SOL    MW4 7328   2.209   4.241   3.085
 1825SOL     OW 7329   2.460   4.404   3.015
 1825SOL    HW2 7330   2.382   4.354   3.036
 1825SOL    HW3 7331   2.467   4.400   2.919
 1825SOL    MW4 7332   2.451   4.397   3.005
 1826SOL     OW 7333   2.908   4.636   3.126
 1826SOL    HW2 7334   2.985   4.685   3.096
 1826SOL    HW3 7335   2.917   4.550   3.086
 1826SOL    MW4 7336   2.919   4.631   3.117
 1827SOL     OW 7337   2.680   0.110   3.015
 1827SOL    HW2 7338   2.769   0.085   3.039
 1827SOL    HW3 7339   2.624   0.061   3.076
 1827SOL    MW4 7340   2.684   0.101   3.026
 1828SOL     OW 7341   2.699   0.384   3.092
 1828SOL    HW2 7342   2.674   0.298   3.060
 1828SOL    HW3 7343   2.624   0.440   3.071
 1828SOL    MW4 7344   2.686   0.380   3.085
 1829SOL     OW 7345   2.926   0.528   3.023
 1829SOL    HW2 7346   2.848   0.486   3.060
 1829SOL    HW3 7347   2.914   0.522   2.929
 1829SOL    MW4 7348   2.914   0.522   3.016
 1830SOL     OW 7349   2.908   0.780   3.146
 1830SOL    HW2 7350   2.898   0.766   3.240
 1830SOL    HW3 7351   2.914   0.691   3.109
 1830SOL    MW4 7352   2.908   0.766   3.154
 1831SOL     OW 7353   2.675   0.898   3.058
 1831SOL    HW2 7354   2.693   0.986   3.090
 1831SOL    HW3 7355   2.754   0.848   3.081
 1831SOL    MW4 7356   2.688   0.903   3.065
 1832SOL     OW 7357   2.693   1.157   3.130
 1832SOL    HW2 7358   2.756   1.204   3.075
 1832SOL    HW3 7359   2.607   1.188   3.101
 1832SOL    MW4 7360   2.690   1.167   3.119
 1833SOL     OW 7361   2.921   1.282   2.989
 1833SOL    HW2 7362   2.994   1.241   3.035
 1833SOL    HW3 7363   2.906   1.364   3.036
 1833SOL    MW4 7364   2.929   1.287   3.001
 1834SOL     OW 7365   2.892   1.542   3.125
 1834SOL    HW2 7366   2.905   1.531   3.219
 1834SOL    HW3 7367   2.972   1.586   3.095
 1834SOL    MW4 7368   2.904   1.547   3.134
 1835SOL     OW 7369   2.680   1.709   3.056
 1835SOL    HW2 7370   2.766   1.671   3.077
 1835SOL    HW3 7371   2.618   1.654   3.103
 1835SOL    MW4 7372   2.683   1.697   3.065
 1836SOL     OW 7373   2.648   1.957   3.157
 1836SOL    HW2 7374   2.730   2.006   3.150
 1836SOL    HW3 7375   2.671   1.869   3.128
 1836SOL    MW4 7376   2.662   1.952   3.152
 1837SOL     OW 7377   2.884   2.096   3.085
 1837SOL    HW2 7378   2.880   2.187   3.113
 1837SOL    HW3 7379   2.879   2.100   2.990
 1837SOL    MW4 7380   2.883   2.108   3.076
 1838SOL     OW 7381   2.912   2.363   3.175
 1838SOL    HW2 7382   2.990   2.385   3.123
 1838SOL    HW3 7383   2.839   2.395   3.123
 1838SOL    MW4 7384   2.913   2.370   3.161
 1839SOL     OW 7385   2.700   2.445   2.990
 1839SOL    HW2 7386   2.688   2.534   3.024
 1839SOL    HW3 7387   2.621   2.399   3.017
 1839SOL    MW4 7388   2.688   2.451   2.998
 1840SOL     OW 7389   2.694   2.710   3.135
 1840SOL    HW2 7390   2.694   2.711   3.231
 1840SOL    HW3 7391   2.610   2.750   3.111
 1840SOL    MW4 7392   2.683   2.716   3.144
 1841SOL     OW 7393   2.916   2.829   3.036
 1841SOL    HW2 7394   2.992   2.793   3.082
 1841SOL    HW3 7395   2.841   2.790   3.081
 1841SOL    MW4 7396   2.916   2.819   3.048
 1842SOL     OW 7397   2.940   3.097   3.103
 1842SOL    HW2 7398   2.858   3.139   3.078
 1842SOL    HW3 7399   2.927   3.004   3.081
 1842SOL    MW4 7400   2.927   3.090   3.097
 1843SOL     OW 7401   2.729   3.222   2.994
 1843SOL    HW2 7402   2.721   3.310   3.032
 1843SOL    HW3 7403   2.729   3.238   2.899
 1843SOL    MW4 7404   2.728   3.236   2.986
 1844SOL     OW 7405   2.682   3.456   3.097
 1844SOL    HW2 7406   2.691   3.464   3.192
 1844SOL    HW3 7407   2.761   3.496   3.061
 1844SOL    MW4 7408   2.693   3.463   3.105
 1845SOL     OW 7409   2.893   3.618   2.990
 1845SOL    HW2 7410   2.974   3.575   3.015
 1845SOL    HW3 7411   2.896   3.703   3.034
 1845SOL    MW4 7412   2.904   3.624   2.999
 1846SOL     OW 7413   2.934   3.877   3.128
 1846SOL    HW2 7414   2.917   3.880   3.222
 1846SOL    HW3 7415   2.853   3.907   3.087
 1846SOL    MW4 7416   2.921   3.881   3.135
 1847SOL     OW 7417   2.698   3.987   3.021
 1847SOL    HW2 7418   2.681   4.079   3.043
 1847SOL    HW3 7419   2.700   3.985   2.926
 1847SOL    MW4 7420   2.696   3.999   3.011
 1848SOL     OW 7421   2.675   4.233   3.119
 1848SOL    HW2 7422   2.685   4.240   3.214
 1848SOL    HW3 7423   2.611   4.300   3.097
 1848SOL    MW4 7424   2.668   4.242   3.128
 1849SOL     OW 7425   2.917   4.369   3.019
 1849SOL    HW2 7426   2.993   4.318   3.045
 1849SOL    HW3 7427   2.843   4.324   3.058
 1849SOL    MW4 7428   2.917   4.357   3.027
 1850SOL     OW 7429   3.329   4.632   3.100
 1850SOL    HW2 7430   3.415   4.662   3.072
 1850SOL    HW3 7431   3.325   4.540   3.072
 1850SOL    MW4 7432   3.340   4.624   3.092
 1851SOL     OW 7433   3.120   0.114   3.006
 1851SOL    HW2 7434   3.132   0.194   3.057
 1851SOL    HW3 7435   3.200   0.064   3.022
 1851SOL    MW4 7436   3.132   0.118   3.015
 1852SOL     OW 7437   3.143   0.368   3.115
 1852SOL    HW2 7438   3.230   0.394   3.086
 1852SOL    HW3 7439   3.084   0.425   3.065
 1852SOL    MW4 7440   3.147   0.379   3.105
 1853SOL     OW 7441   3.372   0.481   3.009
 1853SOL    HW2 7442   3.449   0.429   3.035
 1853SOL    HW3 7443   3.383   0.494   2.915
 1853SOL    MW4 7444   3.384   0.476   3.000
 1854SOL     OW 7445   3.362   0.742   3.085
 1854SOL    HW2 7446   3.355   0.741   3.181
 1854SOL    HW3 7447   3.365   0.649   3.061
 1854SOL    MW4 7448   3.362   0.730   3.095
 1855SOL     OW 7449   3.138   0.910   3.037
 1855SOL    HW2 7450   3.203   0.841   3.048
 1855SOL    HW3 7451   3.057   0.872   3.072
 1855SOL    MW4 7452   3.136   0.896   3.043
 1856SOL     OW 7453   3.136   1.175   3.136
 1856SOL    HW2 7454   3.214   1.218   3.102
 1856SOL    HW3 7455   3.139   1.086   3.101
 1856SOL    MW4 7456   3.147   1.169   3.127
 1857SOL     OW 7457   3.376   1.283   3.022
 1857SOL    HW2 7458   3.449   1.252   3.075
 1857SOL    HW3 7459   3.355   1.369   3.059
 1857SOL    MW4 7460   3.382   1.291   3.034
 1858SOL     OW 7461   3.315   1.529   3.132
 1858SOL    HW2 7462   3.313   1.524   3.228
 1858SOL    HW3 7463   3.404   1.559   3.111
 1858SOL    MW4 7464   3.327   1.532   3.142
 1859SOL     OW 7465   3.091   1.682   3.024
 1859SOL    HW2 7466   3.161   1.626   3.060
 1859SOL    HW3 7467   3.111   1.689   2.931
 1859SOL    MW4 7468   3.103   1.675   3.017
 1860SOL     OW 7469   3.106   1.947   3.131
 1860SOL    HW2 7470   3.071   1.864   3.098
 1860SOL    HW3 7471   3.034   2.009   3.119
 1860SOL    MW4 7472   3.092   1.944   3.125
 1861SOL     OW 7473   3.348   2.050   3.022
 1861SOL    HW2 7474   3.423   2.008   3.064
 1861SOL    HW3 7475   3.271   2.007   3.060
 1861SOL    MW4 7476   3.348   2.038   3.032
 1862SOL     OW 7477   3.343   2.305   3.119
 1862SOL    HW2 7478   3.347   2.296   3.214
 1862SOL    HW3 7479   3.341   2.215   3.087
 1862SOL    MW4 7480   3.343   2.292   3.127
 1863SOL     OW 7481   3.136   2.470   3.006
 1863SOL    HW2 7482   3.215   2.419   3.025
 1863SOL    HW3 7483   3.128   2.468   2.911
 1863SOL    MW4 7484   3.145   2.463   2.996
 1864SOL     OW 7485   3.130   2.700   3.130
 1864SOL    HW2 7486   3.146   2.683   3.223
 1864SOL    HW3 7487   3.103   2.615   3.094
 1864SOL    MW4 7488   3.128   2.686   3.138
 1865SOL     OW 7489   3.365   2.818   3.049
 1865SOL    HW2 7490   3.362   2.910   3.077
 1865SOL    HW3 7491   3.280   2.782   3.077
 1865SOL    MW4 7492   3.353   2.826   3.057
 1866SOL     OW 7493   3.351   3.088   3.097
 1866SOL    HW2 7494   3.345   3.103   3.191
 1866SOL    HW3 7495   3.291   3.152   3.058
 1866SOL    MW4 7496   3.342   3.098   3.104
 1867SOL     OW 7497   3.151   3.237   3.005
 1867SOL    HW2 7498   3.079   3.183   3.038
 1867SOL    HW3 7499   3.143   3.232   2.909
 1867SOL    MW4 7500   3.140   3.229   2.996
 1868SOL     OW 7501   3.127   3.516   3.078
 1868SOL    HW2 7502   3.202   3.570   3.052
 1868SOL    HW3 7503   3.143   3.432   3.036
 1868SOL    MW4 7504   3.139   3.512   3.069
 1869SOL     OW 7505   3.353   3.647   2.978
 1869SOL    HW2 7506   3.420   3.594   3.020
 1869SOL    HW3 7507   3.355   3.730   3.025
 1869SOL    MW4 7508   3.362   3.651   2.989
 1870SOL     OW 7509   3.356   3.864   3.139
 1870SOL    HW2 7510   3.366   3.862   3.234
 1870SOL    HW3 7511   3.286   3.927   3.123
 1870SOL    MW4 7512   3.348   3.872   3.149
 1871SOL     OW 7513   3.155   4.005   3.032
 1871SOL    HW2 7514   3.081   3.959   3.071
 1871SOL    HW3 7515   3.135   4.005   2.938
 1871SOL    MW4 7516   3.142   3.999   3.025
 1872SOL     OW 7517   3.140   4.258   3.122
 1872SOL    HW2 7518   3.130   4.246   3.216
 1872SOL    HW3 7519   3.143   4.169   3.087
 1872SOL    MW4 7520   3.139   4.245   3.130
 1873SOL     OW 7521   3.347   4.362   2.985
 1873SOL    HW2 7522   3.414   4.309   3.028
 1873SOL    HW3 7523   3.264   4.331   3.023
 1873SOL    MW4 7524   3.345   4.351   2.996
 1874SOL     OW 7525   3.827   4.609   3.116
 1874SOL    HW2 7526   3.822   4.519   3.084
 1874SOL    HW3 7527   3.744   4.649   3.089
 1874SOL    MW4 7528   3.815   4.602   3.108
 1875SOL     OW 7529   3.581   0.047   3.045
 1875SOL    HW2 7530   3.595   0.140   3.059
 1875SOL    HW3 7531   3.578   0.037   2.950
 1875SOL    MW4 7532   3.583   0.058   3.035
 1876SOL     OW 7533   3.589   0.315   3.091
 1876SOL    HW2 7534   3.602   0.325   3.185
 1876SOL    HW3 7535   3.654   0.372   3.051
 1876SOL    MW4 7536   3.599   0.324   3.098
 1877SOL     OW 7537   3.806   0.472   2.996
 1877SOL    HW2 7538   3.888   0.432   3.027
 1877SOL    HW3 7539   3.804   0.558   3.037
 1877SOL    MW4 7540   3.817   0.478   3.006
 1878SOL     OW 7541   3.808   0.729   3.110
 1878SOL    HW2 7542   3.812   0.740   3.205
 1878SOL    HW3 7543   3.888   0.772   3.078
 1878SOL    MW4 7544   3.819   0.736   3.119
 1879SOL     OW 7545   3.595   0.875   3.005
 1879SOL    HW2 7546   3.661   0.815   3.040
 1879SOL    HW3 7547   3.512   0.832   3.021
 1879SOL    MW4 7548   3.593   0.862   3.012
 1880SOL     OW 7549   3.590   1.151   3.147
 1880SOL    HW2 7550   3.668   1.190   3.107
 1880SOL    HW3 7551   3.589   1.061   3.113
 1880SOL    MW4 7552   3.600   1.144   3.137
 1881SOL     OW 7553   3.818   1.261   3.036
 1881SOL    HW2 7554   3.819   1.347   3.079
 1881SOL    HW3 7555   3.808   1.282   2.943
 1881SOL    MW4 7556   3.817   1.275   3.029
 1882SOL     OW 7557   3.842   1.518   3.123
 1882SOL    HW2 7558   3.840   1.537   3.217
 1882SOL    HW3 7559   3.770   1.569   3.087
 1882SOL    MW4 7560   3.833   1.527   3.131
 1883SOL     OW 7561   3.582   1.621   3.027
 1883SOL    HW2 7562   3.571   1.705   3.072
 1883SOL    HW3 7563   3.577   1.643   2.934
 1883SOL    MW4 7564   3.580   1.635   3.021
 1884SOL     OW 7565   3.567   1.890   3.115
 1884SOL    HW2 7566   3.599   1.887   3.205
 1884SOL    HW3 7567   3.635   1.936   3.067
 1884SOL    MW4 7568   3.580   1.896   3.121
 1885SOL     OW 7569   3.802   2.025   3.050
 1885SOL    HW2 7570   3.808   2.112   3.089
 1885SOL    HW3 7571   3.813   2.039   2.956
 1885SOL    MW4 7572   3.804   2.038   3.043
 1886SOL     OW 7573   3.787   2.286   3.154
 1886SOL    HW2 7574   3.778   2.314   3.245
 1886SOL    HW3 7575   3.709   2.321   3.110
 1886SOL    MW4 7576   3.775   2.295   3.160
 1887SOL     OW 7577   3.589   2.417   3.026
 1887SOL    HW2 7578   3.591   2.510   3.047
 1887SOL    HW3 7579   3.503   2.388   3.058
 1887SOL    MW4 7580   3.578   2.425   3.033
 1888SOL     OW 7581   3.580   2.661   3.131
 1888SOL    HW2 7582   3.657   2.707   3.098
 1888SOL    HW3 7583   3.506   2.717   3.108
 1888SOL    MW4 7584   3.581   2.674   3.124
 1889SOL     OW 7585   3.807   2.795   3.035
 1889SOL    HW2 7586   3.813   2.884   3.069
 1889SOL    HW3 7587   3.798   2.806   2.940
 1889SOL    MW4 7588   3.807   2.808   3.027
 1890SOL     OW 7589   3.792   3.063   3.126
 1890SOL    HW2 7590   3.872   3.106   3.096
 1890SOL    HW3 7591   3.721   3.117   3.091
 1890SOL    MW4 7592   3.793   3.076   3.117
 1891SOL     OW 7593   3.581   3.218   3.013
 1891SOL    HW2 7594   3.508   3.160   3.032
 1891SOL    HW3 7595   3.586   3.220   2.918
 1891SOL    MW4 7596   3.572   3.211   3.003
 1892SOL     OW 7597   3.531   3.482   3.095
 1892SOL    HW2 7598   3.616   3.523   3.080
 1892SOL    HW3 7599   3.543   3.391   3.067
 1892SOL    MW4 7600   3.544   3.476   3.089
 1893SOL     OW 7601   3.767   3.595   3.038
 1893SOL    HW2 7602   3.798   3.675   3.079
 1893SOL    HW3 7603   3.790   3.605   2.945
 1893SOL    MW4 7604   3.774   3.607   3.031
 1894SOL     OW 7605   3.851   3.846   3.124
 1894SOL    HW2 7606   3.859   3.848   3.220
 1894SOL    HW3 7607   3.763   3.879   3.107
 1894SOL    MW4 7608   3.841   3.850   3.135
 1895SOL     OW 7609   3.614   3.980   3.073
 1895SOL    HW2 7610   3.527   3.947   3.093
 1895SOL    HW3 7611   3.614   3.996   2.979
 1895SOL    MW4 7612   3.603   3.978   3.064
 1896SOL     OW 7613   3.577   4.257   3.109
 1896SOL    HW2 7614   3.654   4.296   3.068
 1896SOL    HW3 7615   3.593   4.162   3.104
 1896SOL    MW4 7616   3.590   4.249   3.103
 1897SOL     OW 7617   3.806   4.355   2.986
 1897SOL    HW2 7618   3.876   4.294   3.012
 1897SOL    HW3 7619   3.827   4.378   2.896
 1897SOL    MW4 7620   3.818   4.350   2.978
 1898SOL     OW 7621   4.250   4.661   3.120
 1898SOL    HW2 7622   4.258   4.648   3.214
 1898SOL    HW3 7623   4.258   4.573   3.083
 1898SOL    MW4 7624   4.252   4.648   3.127
 1899SOL     OW 7625   4.027   0.119   3.030
 1899SOL    HW2 7626   4.104   0.081   3.073
 1899SOL    HW3 7627   3.954   0.064   3.057
 1899SOL    MW4 7628   4.028   0.107   3.039
 1900SOL     OW 7629   4.023   0.367   3.127
 1900SOL    HW2 7630   4.098   0.415   3.093
 1900SOL    HW3 7631   4.026   0.282   3.081
 1900SOL    MW4 7632   4.033   0.362   3.116
 1901SOL     OW 7633   4.261   0.490   3.026
 1901SOL    HW2 7634   4.283   0.573   3.068
 1901SOL    HW3 7635   4.266   0.508   2.933
 1901SOL    MW4 7636   4.265   0.503   3.020
 1902SOL     OW 7637   4.284   0.737   3.132
 1902SOL    HW2 7638   4.198   0.775   3.116
 1902SOL    HW3 7639   4.345   0.807   3.108
 1902SOL    MW4 7640   4.281   0.751   3.127
 1903SOL     OW 7641   4.034   0.867   3.056
 1903SOL    HW2 7642   4.052   0.956   3.085
 1903SOL    HW3 7643   4.026   0.874   2.961
 1903SOL    MW4 7644   4.035   0.880   3.047
 1904SOL     OW 7645   4.051   1.141   3.134
 1904SOL    HW2 7646   4.056   1.151   3.229
 1904SOL    HW3 7647   3.964   1.174   3.111
 1904SOL    MW4 7648   4.040   1.146   3.144
 1905SOL     OW 7649   4.273   1.266   3.024
 1905SOL    HW2 7650   4.200   1.216   3.060
 1905SOL    HW3 7651   4.258   1.265   2.929
 1905SOL    MW4 7652   4.261   1.259   3.016
 1906SOL     OW 7653   4.250   1.530   3.146
 1906SOL    HW2 7654   4.174   1.568   3.102
 1906SOL    HW3 7655   4.263   1.445   3.103
 1906SOL    MW4 7656   4.242   1.524   3.134
 1907SOL     OW 7657   4.042   1.662   3.019
 1907SOL    HW2 7658   4.035   1.748   3.061
 1907SOL    HW3 7659   3.956   1.622   3.033
 1907SOL    MW4 7660   4.030   1.668   3.026
 1908SOL     OW 7661   4.038   1.911   3.114
 1908SOL    HW2 7662   4.109   1.974   3.102
 1908SOL    HW3 7663   3.959   1.960   3.093
 1908SOL    MW4 7664   4.037   1.926   3.110
 1909SOL     OW 7665   4.270   2.049   3.046
 1909SOL    HW2 7666   4.263   2.138   3.081
 1909SOL    HW3 7667   4.293   2.061   2.954
 1909SOL    MW4 7668   4.272   2.062   3.039
 1910SOL     OW 7669   4.260   2.297   3.167
 1910SOL    HW2 7670   4.183   2.351   3.147
 1910SOL    HW3 7671   4.333   2.344   3.126
 1910SOL    MW4 7672   4.260   2.310   3.159
 1911SOL     OW 7673   4.035   2.381   3.033
 1911SOL    HW2 7674   4.036   2.473   3.061
 1911SOL    HW3 7675   3.952   2.347   3.068
 1911SOL    MW4 7676   4.024   2.389   3.041
 1912SOL     OW 7677   4.049   2.645   3.094
 1912SOL    HW2 7678   4.041   2.662   3.188
 1912SOL    HW3 7679   3.978   2.696   3.054
 1912SOL    MW4 7680   4.039   2.654   3.101
 1913SOL     OW 7681   4.259   2.816   3.040
 1913SOL    HW2 7682   4.191   2.750   3.055
 1913SOL    HW3 7683   4.339   2.777   3.075
 1913SOL    MW4 7684   4.260   2.802   3.046
 1914SOL     OW 7685   4.257   3.071   3.122
 1914SOL    HW2 7686   4.175   3.109   3.089
 1914SOL    HW3 7687   4.256   2.981   3.090
 1914SOL    MW4 7688   4.246   3.065   3.113
 1915SOL     OW 7689   4.013   3.188   3.015
 1915SOL    HW2 7690   4.021   3.283   3.027
 1915SOL    HW3 7691   4.011   3.176   2.920
 1915SOL    MW4 7692   4.013   3.199   3.004
 1916SOL     OW 7693   4.010   3.463   3.067
 1916SOL    HW2 7694   4.013   3.478   3.162
 1916SOL    HW3 7695   3.921   3.488   3.042
 1916SOL    MW4 7696   3.998   3.468   3.076
 1917SOL     OW 7697   4.262   3.629   3.024
 1917SOL    HW2 7698   4.269   3.718   3.060
 1917SOL    HW3 7699   4.174   3.601   3.047
 1917SOL    MW4 7700   4.251   3.637   3.032
 1918SOL     OW 7701   4.286   3.872   3.115
 1918SOL    HW2 7702   4.213   3.931   3.096
 1918SOL    HW3 7703   4.363   3.917   3.080
 1918SOL    MW4 7704   4.286   3.886   3.108
 1919SOL     OW 7705   4.052   3.990   2.991
 1919SOL    HW2 7706   4.034   4.078   3.024
 1919SOL    HW3 7707   3.992   3.934   3.041
 1919SOL    MW4 7708   4.041   3.994   3.002
 1920SOL     OW 7709   4.049   4.244   3.106
 1920SOL    HW2 7710   4.042   4.248   3.201
 1920SOL    HW3 7711   4.132   4.288   3.085
 1920SOL    MW4 7712   4.059   4.250   3.115
 1921SOL     OW 7713   4.248   4.402   3.005
 1921SOL    HW2 7714   4.326   4.353   3.031
 1921SOL    HW3 7715   4.249   4.398   2.909
 1921SOL    MW4 7716   4.258   4.395   2.996
 1922SOL     OW 7717   0.221   0.019   3.398
 1922SOL    HW2 7718   0.307   0.053   3.425
 1922SOL    HW3 7719   0.228  -0.075   3.411
 1922SOL    MW4 7720   0.234   0.011   3.404
 1923SOL     OW 7721   4.486   0.127   3.528
 1923SOL    HW2 7722   4.488   0.219   3.502
 1923SOL    HW3 7723   4.566   0.090   3.492
 1923SOL    MW4 7724   4.497   0.135   3.520
 1924SOL     OW 7725   0.010   0.387   3.399
 1924SOL    HW2 7726  -0.081   0.403   3.425
 1924SOL    HW3 7727   0.061   0.448   3.452
 1924SOL    MW4 7728   0.005   0.397   3.409
 1925SOL     OW 7729   0.206   0.538   3.523
 1925SOL    HW2 7730   0.284   0.485   3.505
 1925SOL    HW3 7731   0.221   0.620   3.477
 1925SOL    MW4 7732   0.218   0.542   3.514
 1926SOL     OW 7733   0.211   0.759   3.347
 1926SOL    HW2 7734   0.275   0.824   3.375
 1926SOL    HW3 7735   0.128   0.789   3.384
 1926SOL    MW4 7736   0.208   0.771   3.356
 1927SOL     OW 7737   4.477   0.864   3.519
 1927SOL    HW2 7738   4.467   0.880   3.612
 1927SOL    HW3 7739   4.481   0.951   3.480
 1927SOL    MW4 7740   4.476   0.878   3.526
 1928SOL     OW 7741   4.482   1.132   3.434
 1928SOL    HW2 7742   4.546   1.197   3.464
 1928SOL    HW3 7743   4.480   1.142   3.339
 1928SOL    MW4 7744   4.490   1.142   3.425
 1929SOL     OW 7745   0.199   1.298   3.510
 1929SOL    HW2 7746   0.271   1.251   3.470
 1929SOL    HW3 7747   0.196   1.382   3.464
 1929SOL    MW4 7748   0.208   1.303   3.499
 1930SOL     OW 7749   0.250   1.549   3.410
 1930SOL    HW2 7750   0.327   1.589   3.452
 1930SOL    HW3 7751   0.270   1.552   3.317
 1930SOL    MW4 7752   0.263   1.555   3.403
 1931SOL     OW 7753   0.037   1.694   3.519
 1931SOL    HW2 7754  -0.035   1.636   3.496
 1931SOL    HW3 7755   0.115   1.652   3.481
 1931SOL    MW4 7756   0.038   1.681   3.511
 1932SOL     OW 7757   4.478   1.951   3.422
 1932SOL    HW2 7758   4.489   1.860   3.452
 1932SOL    HW3 7759   4.469   1.944   3.327
 1932SOL    MW4 7760   4.478   1.938   3.414
 1933SOL     OW 7761   0.250   2.032   3.491
 1933SOL    HW2 7762   0.241   2.035   3.586
 1933SOL    HW3 7763   0.160   2.030   3.459
 1933SOL    MW4 7764   0.237   2.032   3.499
 1934SOL     OW 7765   0.253   2.312   3.426
 1934SOL    HW2 7766   0.174   2.350   3.464
 1934SOL    HW3 7767   0.246   2.218   3.445
 1934SOL    MW4 7768   0.242   2.305   3.434
 1935SOL     OW 7769   0.022   2.443   3.502
 1935SOL    HW2 7770   0.027   2.458   3.596
 1935SOL    HW3 7771  -0.066   2.407   3.487
 1935SOL    MW4 7772   0.011   2.440   3.512
 1936SOL     OW 7773   4.486   2.707   3.424
 1936SOL    HW2 7774   4.564   2.755   3.451
 1936SOL    HW3 7775   4.504   2.616   3.448
 1936SOL    MW4 7776   4.499   2.701   3.431
 1937SOL     OW 7777   0.218   2.830   3.543
 1937SOL    HW2 7778   0.277   2.767   3.501
 1937SOL    HW3 7779   0.242   2.915   3.505
 1937SOL    MW4 7780   0.229   2.833   3.532
 1938SOL     OW 7781   0.188   3.070   3.393
 1938SOL    HW2 7782   0.102   3.095   3.428
 1938SOL    HW3 7783   0.185   3.098   3.302
 1938SOL    MW4 7784   0.176   3.077   3.386
 1939SOL     OW 7785   4.456   3.194   3.506
 1939SOL    HW2 7786   4.374   3.161   3.469
 1939SOL    HW3 7787   4.472   3.276   3.459
 1939SOL    MW4 7788   4.448   3.201   3.495
 1940SOL     OW 7789   4.488   3.436   3.385
 1940SOL    HW2 7790   4.419   3.491   3.422
 1940SOL    HW3 7791   4.499   3.467   3.296
 1940SOL    MW4 7792   4.480   3.447   3.378
 1941SOL     OW 7793   0.191   3.610   3.495
 1941SOL    HW2 7794   0.200   3.608   3.591
 1941SOL    HW3 7795   0.112   3.560   3.477
 1941SOL    MW4 7796   0.182   3.603   3.506
 1942SOL     OW 7797   0.182   3.871   3.387
 1942SOL    HW2 7798   0.121   3.921   3.442
 1942SOL    HW3 7799   0.166   3.780   3.411
 1942SOL    MW4 7800   0.172   3.866   3.398
 1943SOL     OW 7801   4.468   4.037   3.494
 1943SOL    HW2 7802   4.473   4.060   3.587
 1943SOL    HW3 7803   4.458   4.121   3.449
 1943SOL    MW4 7804   4.468   4.051   3.501
 1944SOL     OW 7805   4.462   4.274   3.350
 1944SOL    HW2 7806   4.382   4.322   3.373
 1944SOL    HW3 7807   4.533   4.322   3.393
 1944SOL    MW4 7808   4.461   4.287   3.358
 1945SOL     OW 7809   0.195   4.415   3.474
 1945SOL    HW2 7810   0.170   4.416   3.566
 1945SOL    HW3 7811   0.262   4.348   3.467
 1945SOL    MW4 7812   0.200   4.407   3.485
 1946SOL     OW 7813   0.684   4.633   3.406
 1946SOL    HW2 7814   0.756   4.672   3.455
 1946SOL    HW3 7815   0.694   4.667   3.317
 1946SOL    MW4 7816   0.695   4.642   3.401
 1947SOL     OW 7817   0.454   0.124   3.511
 1947SOL    HW2 7818   0.457   0.110   3.605
 1947SOL    HW3 7819   0.530   0.076   3.477
 1947SOL    MW4 7820   0.465   0.116   3.519
 1948SOL     OW 7821   0.434   0.383   3.403
 1948SOL    HW2 7822   0.512   0.423   3.441
 1948SOL    HW3 7823   0.440   0.291   3.429
 1948SOL    MW4 7824   0.445   0.376   3.411
 1949SOL     OW 7825   0.663   0.511   3.516
 1949SOL    HW2 7826   0.657   0.499   3.610
 1949SOL    HW3 7827   0.735   0.454   3.489
 1949SOL    MW4 7828   0.672   0.502   3.525
 1950SOL     OW 7829   0.674   0.773   3.416
 1950SOL    HW2 7830   0.587   0.803   3.442
 1950SOL    HW3 7831   0.681   0.685   3.452
 1950SOL    MW4 7832   0.664   0.766   3.424
 1951SOL     OW 7833   0.429   0.891   3.471
 1951SOL    HW2 7834   0.401   0.871   3.560
 1951SOL    HW3 7835   0.419   0.986   3.464
 1951SOL    MW4 7836   0.424   0.901   3.482
 1952SOL     OW 7837   0.418   1.179   3.396
 1952SOL    HW2 7838   0.506   1.199   3.427
 1952SOL    HW3 7839   0.426   1.174   3.301
 1952SOL    MW4 7840   0.431   1.181   3.388
 1953SOL     OW 7841   0.665   1.254   3.504
 1953SOL    HW2 7842   0.733   1.208   3.456
 1953SOL    HW3 7843   0.679   1.346   3.483
 1953SOL    MW4 7844   0.676   1.260   3.495
 1954SOL     OW 7845   0.719   1.516   3.426
 1954SOL    HW2 7846   0.792   1.569   3.457
 1954SOL    HW3 7847   0.641   1.564   3.453
 1954SOL    MW4 7848   0.718   1.529   3.433
 1955SOL     OW 7849   0.489   1.655   3.505
 1955SOL    HW2 7850   0.476   1.659   3.600
 1955SOL    HW3 7851   0.505   1.746   3.479
 1955SOL    MW4 7852   0.489   1.667   3.514
 1956SOL     OW 7853   0.482   1.918   3.396
 1956SOL    HW2 7854   0.396   1.950   3.423
 1956SOL    HW3 7855   0.492   1.950   3.306
 1956SOL    MW4 7856   0.472   1.927   3.388
 1957SOL     OW 7857   0.689   2.080   3.494
 1957SOL    HW2 7858   0.718   2.054   3.582
 1957SOL    HW3 7859   0.620   2.018   3.472
 1957SOL    MW4 7860   0.684   2.068   3.503
 1958SOL     OW 7861   0.694   2.327   3.398
 1958SOL    HW2 7862   0.767   2.372   3.441
 1958SOL    HW3 7863   0.699   2.237   3.429
 1958SOL    MW4 7864   0.704   2.321   3.408
 1959SOL     OW 7865   0.469   2.454   3.511
 1959SOL    HW2 7866   0.547   2.404   3.486
 1959SOL    HW3 7867   0.396   2.396   3.488
 1959SOL    MW4 7868   0.470   2.440   3.505
 1960SOL     OW 7869   0.383   2.676   3.387
 1960SOL    HW2 7870   0.412   2.594   3.426
 1960SOL    HW3 7871   0.415   2.672   3.297
 1960SOL    MW4 7872   0.391   2.665   3.380
 1961SOL     OW 7873   0.592   2.826   3.490
 1961SOL    HW2 7874   0.683   2.806   3.468
 1961SOL    HW3 7875   0.541   2.761   3.442
 1961SOL    MW4 7876   0.597   2.815   3.481
 1962SOL     OW 7877   0.598   3.070   3.365
 1962SOL    HW2 7878   0.534   3.129   3.402
 1962SOL    HW3 7879   0.584   2.987   3.411
 1962SOL    MW4 7880   0.588   3.067   3.376
 1963SOL     OW 7881   0.406   3.248   3.489
 1963SOL    HW2 7882   0.405   3.227   3.583
 1963SOL    HW3 7883   0.338   3.193   3.451
 1963SOL    MW4 7884   0.397   3.238   3.496
 1964SOL     OW 7885   0.421   3.501   3.397
 1964SOL    HW2 7886   0.419   3.413   3.433
 1964SOL    HW3 7887   0.340   3.542   3.428
 1964SOL    MW4 7888   0.410   3.495   3.406
 1965SOL     OW 7889   0.646   3.605   3.512
 1965SOL    HW2 7890   0.720   3.570   3.463
 1965SOL    HW3 7891   0.569   3.578   3.462
 1965SOL    MW4 7892   0.645   3.597   3.499
 1966SOL     OW 7893   0.658   3.823   3.360
 1966SOL    HW2 7894   0.579   3.866   3.391
 1966SOL    HW3 7895   0.663   3.743   3.413
 1966SOL    MW4 7896   0.648   3.818   3.371
 1967SOL     OW 7897   0.426   3.963   3.467
 1967SOL    HW2 7898   0.407   4.053   3.440
 1967SOL    HW3 7899   0.342   3.918   3.459
 1967SOL    MW4 7900   0.413   3.969   3.462
 1968SOL     OW 7901   0.398   4.234   3.422
 1968SOL    HW2 7902   0.481   4.264   3.458
 1968SOL    HW3 7903   0.407   4.247   3.327
 1968SOL    MW4 7904   0.410   4.240   3.414
 1969SOL     OW 7905   0.640   4.374   3.516
 1969SOL    HW2 7906   0.723   4.336   3.489
 1969SOL    HW3 7907   0.639   4.461   3.476
 1969SOL    MW4 7908   0.650   4.380   3.507
 1970SOL     OW 7909   1.105   0.004   3.413
 1970SOL    HW2 7910   1.182   0.057   3.438
 1970SOL    HW3 7911   1.095   0.018   3.319
 1970SOL    MW4 7912   1.114   0.013   3.404
 1971SOL     OW 7913   0.871   0.111   3.520
 1971SOL    HW2 7914   0.881   0.125   3.614
 1971SOL    HW3 7915   0.959   0.087   3.490
 1971SOL    MW4 7916   0.884   0.110   3.529
 1972SOL     OW 7917   0.864   0.357   3.422
 1972SOL    HW2 7918   0.951   0.381   3.456
 1972SOL    HW3 7919   0.848   0.269   3.455
 1972SOL    MW4 7920   0.874   0.349   3.431
 1973SOL     OW 7921   1.105   0.477   3.533
 1973SOL    HW2 7922   1.105   0.492   3.628
 1973SOL    HW3 7923   1.093   0.564   3.495
 1973SOL    MW4 7924   1.103   0.491   3.541
 1974SOL     OW 7925   1.137   0.723   3.428
 1974SOL    HW2 7926   1.215   0.768   3.460
 1974SOL    HW3 7927   1.064   0.770   3.469
 1974SOL    MW4 7928   1.137   0.735   3.438
 1975SOL     OW 7929   0.892   0.881   3.527
 1975SOL    HW2 7930   0.897   0.973   3.500
 1975SOL    HW3 7931   0.814   0.847   3.482
 1975SOL    MW4 7932   0.882   0.889   3.517
 1976SOL     OW 7933   0.882   1.126   3.387
 1976SOL    HW2 7934   0.966   1.163   3.413
 1976SOL    HW3 7935   0.879   1.140   3.292
 1976SOL    MW4 7936   0.893   1.133   3.378
 1977SOL     OW 7937   1.113   1.284   3.504
 1977SOL    HW2 7938   1.107   1.293   3.599
 1977SOL    HW3 7939   1.116   1.375   3.472
 1977SOL    MW4 7940   1.112   1.297   3.512
 1978SOL     OW 7941   1.146   1.524   3.400
 1978SOL    HW2 7942   1.218   1.579   3.431
 1978SOL    HW3 7943   1.141   1.542   3.306
 1978SOL    MW4 7944   1.155   1.534   3.392
 1979SOL     OW 7945   0.928   1.655   3.530
 1979SOL    HW2 7946   0.943   1.749   3.520
 1979SOL    HW3 7947   1.005   1.614   3.491
 1979SOL    MW4 7948   0.940   1.662   3.524
 1980SOL     OW 7949   0.933   1.935   3.427
 1980SOL    HW2 7950   1.015   1.982   3.444
 1980SOL    HW3 7951   0.864   1.996   3.452
 1980SOL    MW4 7952   0.935   1.949   3.432
 1981SOL     OW 7953   1.187   2.040   3.510
 1981SOL    HW2 7954   1.265   2.004   3.467
 1981SOL    HW3 7955   1.186   2.132   3.482
 1981SOL    MW4 7956   1.197   2.048   3.501
 1982SOL     OW 7957   1.121   2.309   3.419
 1982SOL    HW2 7958   1.196   2.364   3.440
 1982SOL    HW3 7959   1.118   2.307   3.324
 1982SOL    MW4 7960   1.130   2.316   3.409
 1983SOL     OW 7961   0.906   2.478   3.500
 1983SOL    HW2 7962   0.888   2.465   3.593
 1983SOL    HW3 7963   0.985   2.426   3.483
 1983SOL    MW4 7964   0.914   2.469   3.510
 1984SOL     OW 7965   0.856   2.748   3.403
 1984SOL    HW2 7966   0.931   2.795   3.441
 1984SOL    HW3 7967   0.877   2.655   3.417
 1984SOL    MW4 7968   0.869   2.742   3.410
 1985SOL     OW 7969   1.098   2.867   3.502
 1985SOL    HW2 7970   1.115   2.874   3.596
 1985SOL    HW3 7971   1.162   2.802   3.471
 1985SOL    MW4 7972   1.109   2.859   3.510
 1986SOL     OW 7973   1.080   3.123   3.396
 1986SOL    HW2 7974   1.078   3.035   3.434
 1986SOL    HW3 7975   1.091   3.107   3.302
 1986SOL    MW4 7976   1.081   3.109   3.388
 1987SOL     OW 7977   0.813   3.227   3.430
 1987SOL    HW2 7978   0.889   3.179   3.398
 1987SOL    HW3 7979   0.738   3.177   3.398
 1987SOL    MW4 7980   0.813   3.214   3.422
 1988SOL     OW 7981   0.836   3.496   3.361
 1988SOL    HW2 7982   0.828   3.406   3.390
 1988SOL    HW3 7983   0.847   3.490   3.266
 1988SOL    MW4 7984   0.836   3.484   3.352
 1989SOL     OW 7985   1.068   3.607   3.452
 1989SOL    HW2 7986   1.071   3.603   3.547
 1989SOL    HW3 7987   0.980   3.574   3.430
 1989SOL    MW4 7988   1.057   3.602   3.461
 1990SOL     OW 7989   1.121   3.864   3.358
 1990SOL    HW2 7990   1.198   3.893   3.406
 1990SOL    HW3 7991   1.106   3.775   3.390
 1990SOL    MW4 7992   1.129   3.856   3.369
 1991SOL     OW 7993   0.879   3.984   3.390
 1991SOL    HW2 7994   0.949   3.924   3.363
 1991SOL    HW3 7995   0.799   3.933   3.382
 1991SOL    MW4 7996   0.878   3.969   3.385
 1992SOL     OW 7997   0.862   4.267   3.388
 1992SOL    HW2 7998   0.889   4.175   3.387
 1992SOL    HW3 7999   0.867   4.294   3.296
 1992SOL    MW4 8000   0.866   4.259   3.376
 1993SOL     OW 8001   1.106   4.398   3.492
 1993SOL    HW2 8002   1.027   4.367   3.448
 1993SOL    HW3 8003   1.110   4.491   3.470
 1993SOL    MW4 8004   1.096   4.407   3.483
 1994SOL     OW 8005   1.572   0.012   3.395
 1994SOL    HW2 8006   1.580  -0.081   3.417
 1994SOL    HW3 8007   1.491   0.040   3.438
 1994SOL    MW4 8008   1.563   0.003   3.404
 1995SOL     OW 8009   1.332   0.134   3.469
 1995SOL    HW2 8010   1.312   0.130   3.562
 1995SOL    HW3 8011   1.341   0.228   3.451
 1995SOL    MW4 8012   1.330   0.146   3.479
 1996SOL     OW 8013   1.338   0.410   3.427
 1996SOL    HW2 8014   1.403   0.448   3.486
 1996SOL    HW3 8015   1.253   0.435   3.465
 1996SOL    MW4 8016   1.335   0.418   3.440
 1997SOL     OW 8017   1.589   0.534   3.525
 1997SOL    HW2 8018   1.580   0.521   3.619
 1997SOL    HW3 8019   1.660   0.475   3.499
 1997SOL    MW4 8020   1.597   0.525   3.534
 1998SOL     OW 8021   1.582   0.793   3.396
 1998SOL    HW2 8022   1.511   0.821   3.453
 1998SOL    HW3 8023   1.595   0.700   3.418
 1998SOL    MW4 8024   1.575   0.784   3.407
 1999SOL     OW 8025   1.353   0.879   3.534
 1999SOL    HW2 8026   1.345   0.896   3.628
 1999SOL    HW3 8027   1.332   0.963   3.493
 1999SOL    MW4 8028   1.349   0.893   3.541
 2000SOL     OW 8029   1.333   1.137   3.409
 2000SOL    HW2 8030   1.407   1.189   3.441
 2000SOL    HW3 8031   1.256   1.183   3.443
 2000SOL    MW4 8032   1.333   1.150   3.418
 2001SOL     OW 8033   1.570   1.267   3.484
 2001SOL    HW2 8034   1.564   1.272   3.580
 2001SOL    HW3 8035   1.653   1.223   3.467
 2001SOL    MW4 8036   1.580   1.262   3.495
 2002SOL     OW 8037   1.549   1.539   3.408
 2002SOL    HW2 8038   1.557   1.451   3.444
 2002SOL    HW3 8039   1.512   1.526   3.320
 2002SOL    MW4 8040   1.545   1.526   3.401
 2003SOL     OW 8041   1.338   1.679   3.503
 2003SOL    HW2 8042   1.330   1.666   3.597
 2003SOL    HW3 8043   1.404   1.615   3.476
 2003SOL    MW4 8044   1.345   1.668   3.512
 2004SOL     OW 8045   1.376   1.921   3.340
 2004SOL    HW2 8046   1.446   1.976   3.377
 2004SOL    HW3 8047   1.376   1.843   3.395
 2004SOL    MW4 8048   1.385   1.918   3.352
 2005SOL     OW 8049   1.569   2.077   3.465
 2005SOL    HW2 8050   1.650   2.026   3.466
 2005SOL    HW3 8051   1.593   2.159   3.423
 2005SOL    MW4 8052   1.583   2.081   3.460
 2006SOL     OW 8053   1.596   2.342   3.373
 2006SOL    HW2 8054   1.512   2.371   3.407
 2006SOL    HW3 8055   1.585   2.342   3.278
 2006SOL    MW4 8056   1.584   2.346   3.365
 2007SOL     OW 8057   1.353   2.450   3.472
 2007SOL    HW2 8058   1.346   2.444   3.567
 2007SOL    HW3 8059   1.349   2.543   3.452
 2007SOL    MW4 8060   1.352   2.461   3.482
 2008SOL     OW 8061   1.298   2.702   3.408
 2008SOL    HW2 8062   1.380   2.750   3.423
 2008SOL    HW3 8063   1.295   2.690   3.313
 2008SOL    MW4 8064   1.309   2.706   3.397
 2009SOL     OW 8065   1.535   2.829   3.479
 2009SOL    HW2 8066   1.614   2.790   3.441
 2009SOL    HW3 8067   1.531   2.916   3.441
 2009SOL    MW4 8068   1.545   2.835   3.469
 2010SOL     OW 8069   1.537   3.081   3.360
 2010SOL    HW2 8070   1.610   3.136   3.390
 2010SOL    HW3 8071   1.459   3.125   3.392
 2010SOL    MW4 8072   1.536   3.094   3.368
 2011SOL     OW 8073   1.314   3.218   3.487
 2011SOL    HW2 8074   1.312   3.215   3.583
 2011SOL    HW3 8075   1.234   3.174   3.460
 2011SOL    MW4 8076   1.303   3.212   3.496
 2012SOL     OW 8077   1.317   3.503   3.409
 2012SOL    HW2 8078   1.299   3.413   3.435
 2012SOL    HW3 8079   1.235   3.550   3.424
 2012SOL    MW4 8080   1.304   3.497   3.414
 2013SOL     OW 8081   1.513   3.669   3.479
 2013SOL    HW2 8082   1.529   3.652   3.572
 2013SOL    HW3 8083   1.440   3.611   3.456
 2013SOL    MW4 8084   1.505   3.659   3.488
 2014SOL     OW 8085   1.570   3.931   3.368
 2014SOL    HW2 8086   1.557   3.850   3.418
 2014SOL    HW3 8087   1.564   3.905   3.277
 2014SOL    MW4 8088   1.567   3.917   3.363
 2015SOL     OW 8089   1.342   4.019   3.488
 2015SOL    HW2 8090   1.340   4.110   3.458
 2015SOL    HW3 8091   1.416   3.980   3.442
 2015SOL    MW4 8092   1.351   4.026   3.478
 2016SOL     OW 8093   1.353   4.278   3.401
 2016SOL    HW2 8094   1.270   4.311   3.435
 2016SOL    HW3 8095   1.349   4.295   3.307
 2016SOL    MW4 8096   1.342   4.284   3.394
 2017SOL     OW 8097   1.607   4.411   3.460
 2017SOL    HW2 8098   1.683   4.367   3.421
 2017SOL    HW3 8099   1.533   4.355   3.437
 2017SOL    MW4 8100   1.608   4.398   3.452
 2018SOL     OW 8101   2.027   4.634   3.379
 2018SOL    HW2 8102   2.105   4.678   3.414
 2018SOL    HW3 8103   1.953   4.679   3.420
 2018SOL    MW4 8104   2.028   4.646   3.389
 2019SOL     OW 8105   1.815   0.114   3.495
 2019SOL    HW2 8106   1.803   0.107   3.590
 2019SOL    HW3 8107   1.738   0.071   3.457
 2019SOL    MW4 8108   1.803   0.107   3.503
 2020SOL     OW 8109   1.817   0.377   3.421
 2020SOL    HW2 8110   1.817   0.288   3.455
 2020SOL    HW3 8111   1.821   0.366   3.326
 2020SOL    MW4 8112   1.818   0.364   3.413
 2021SOL     OW 8113   2.058   0.488   3.496
 2021SOL    HW2 8114   2.068   0.579   3.469
 2021SOL    HW3 8115   1.967   0.467   3.476
 2021SOL    MW4 8116   2.047   0.497   3.490
 2022SOL     OW 8117   2.019   0.747   3.419
 2022SOL    HW2 8118   2.096   0.798   3.444
 2022SOL    HW3 8119   2.024   0.742   3.323
 2022SOL    MW4 8120   2.030   0.753   3.410
 2023SOL     OW 8121   1.801   0.877   3.540
 2023SOL    HW2 8122   1.878   0.827   3.511
 2023SOL    HW3 8123   1.729   0.842   3.489
 2023SOL    MW4 8124   1.802   0.866   3.529
 2024SOL     OW 8125   1.805   1.136   3.425
 2024SOL    HW2 8126   1.885   1.174   3.461
 2024SOL    HW3 8127   1.807   1.045   3.455
 2024SOL    MW4 8128   1.815   1.129   3.434
 2025SOL     OW 8129   1.991   1.298   3.527
 2025SOL    HW2 8130   1.981   1.303   3.622
 2025SOL    HW3 8131   1.976   1.387   3.496
 2025SOL    MW4 8132   1.988   1.310   3.535
 2026SOL     OW 8133   2.014   1.556   3.414
 2026SOL    HW2 8134   2.082   1.598   3.467
 2026SOL    HW3 8135   1.933   1.597   3.445
 2026SOL    MW4 8136   2.012   1.567   3.425
 2027SOL     OW 8137   1.780   1.667   3.508
 2027SOL    HW2 8138   1.782   1.753   3.465
 2027SOL    HW3 8139   1.707   1.621   3.467
 2027SOL    MW4 8140   1.771   1.672   3.497
 2028SOL     OW 8141   1.780   1.918   3.389
 2028SOL    HW2 8142   1.864   1.958   3.409
 2028SOL    HW3 8143   1.775   1.919   3.293
 2028SOL    MW4 8144   1.791   1.923   3.379
 2029SOL     OW 8145   2.008   2.054   3.488
 2029SOL    HW2 8146   2.089   2.011   3.461
 2029SOL    HW3 8147   2.021   2.146   3.466
 2029SOL    MW4 8148   2.020   2.061   3.482
 2030SOL     OW 8149   2.043   2.309   3.435
 2030SOL    HW2 8150   2.111   2.364   3.474
 2030SOL    HW3 8151   2.050   2.325   3.341
 2030SOL    MW4 8152   2.053   2.318   3.428
 2031SOL     OW 8153   1.812   2.465   3.513
 2031SOL    HW2 8154   1.885   2.409   3.488
 2031SOL    HW3 8155   1.734   2.418   3.482
 2031SOL    MW4 8156   1.811   2.451   3.506
 2032SOL     OW 8157   1.761   2.697   3.373
 2032SOL    HW2 8158   1.836   2.747   3.404
 2032SOL    HW3 8159   1.767   2.613   3.420
 2032SOL    MW4 8160   1.772   2.692   3.383
 2033SOL     OW 8161   2.002   2.813   3.455
 2033SOL    HW2 8162   2.006   2.807   3.550
 2033SOL    HW3 8163   1.984   2.905   3.437
 2033SOL    MW4 8164   2.000   2.824   3.465
 2034SOL     OW 8165   1.946   3.079   3.377
 2034SOL    HW2 8166   2.021   3.123   3.417
 2034SOL    HW3 8167   1.870   3.132   3.403
 2034SOL    MW4 8168   1.946   3.092   3.386
 2035SOL     OW 8169   1.727   3.263   3.467
 2035SOL    HW2 8170   1.747   3.258   3.560
 2035SOL    HW3 8171   1.740   3.355   3.444
 2035SOL    MW4 8172   1.731   3.275   3.476
 2036SOL     OW 8173   1.759   3.536   3.406
 2036SOL    HW2 8174   1.675   3.577   3.426
 2036SOL    HW3 8175   1.765   3.539   3.311
 2036SOL    MW4 8176   1.749   3.542   3.396
 2037SOL     OW 8177   2.030   3.615   3.473
 2037SOL    HW2 8178   2.098   3.551   3.453
 2037SOL    HW3 8179   1.949   3.575   3.441
 2037SOL    MW4 8180   2.028   3.602   3.466
 2038SOL     OW 8181   2.042   3.862   3.360
 2038SOL    HW2 8182   1.975   3.899   3.418
 2038SOL    HW3 8183   2.050   3.770   3.388
 2038SOL    MW4 8184   2.034   3.855   3.372
 2039SOL     OW 8185   1.819   4.017   3.465
 2039SOL    HW2 8186   1.813   4.023   3.560
 2039SOL    HW3 8187   1.736   3.979   3.438
 2039SOL    MW4 8188   1.807   4.013   3.474
 2040SOL     OW 8189   1.795   4.274   3.338
 2040SOL    HW2 8190   1.794   4.184   3.368
 2040SOL    HW3 8191   1.782   4.268   3.243
 2040SOL    MW4 8192   1.793   4.262   3.329
 2041SOL     OW 8193   2.019   4.370   3.460
 2041SOL    HW2 8194   1.938   4.339   3.419
 2041SOL    HW3 8195   2.029   4.460   3.428
 2041SOL    MW4 8196   2.010   4.378   3.450
 2042SOL     OW 8197   2.439   4.632   3.400
 2042SOL    HW2 8198   2.456   4.541   3.424
 2042SOL    HW3 8199   2.438   4.632   3.304
 2042SOL    MW4 8200   2.441   4.620   3.391
 2043SOL     OW 8201   2.243   0.116   3.507
 2043SOL    HW2 8202   2.253   0.203   3.467
 2043SOL    HW3 8203   2.314   0.064   3.471
 2043SOL    MW4 8204   2.254   0.121   3.497
 2044SOL     OW 8205   2.248   0.343   3.353
 2044SOL    HW2 8206   2.315   0.375   3.414
 2044SOL    HW3 8207   2.169   0.393   3.377
 2044SOL    MW4 8208   2.246   0.354   3.365
 2045SOL     OW 8209   2.429   0.503   3.514
 2045SOL    HW2 8210   2.505   0.454   3.482
 2045SOL    HW3 8211   2.432   0.586   3.467
 2045SOL    MW4 8212   2.439   0.507   3.504
 2046SOL     OW 8213   2.419   0.750   3.371
 2046SOL    HW2 8214   2.505   0.763   3.411
 2046SOL    HW3 8215   2.435   0.753   3.276
 2046SOL    MW4 8216   2.432   0.752   3.363
 2047SOL     OW 8217   2.222   0.925   3.482
 2047SOL    HW2 8218   2.221   1.018   3.459
 2047SOL    HW3 8219   2.298   0.889   3.436
 2047SOL    MW4 8220   2.232   0.932   3.473
 2048SOL     OW 8221   2.215   1.197   3.362
 2048SOL    HW2 8222   2.292   1.216   3.416
 2048SOL    HW3 8223   2.142   1.231   3.413
 2048SOL    MW4 8224   2.216   1.204   3.376
 2049SOL     OW 8225   2.458   1.258   3.504
 2049SOL    HW2 8226   2.464   1.256   3.600
 2049SOL    HW3 8227   2.536   1.213   3.474
 2049SOL    MW4 8228   2.469   1.252   3.513
 2050SOL     OW 8229   2.444   1.529   3.443
 2050SOL    HW2 8230   2.453   1.436   3.461
 2050SOL    HW3 8231   2.429   1.534   3.348
 2050SOL    MW4 8232   2.443   1.518   3.433
 2051SOL     OW 8233   2.230   1.695   3.561
 2051SOL    HW2 8234   2.220   1.686   3.656
 2051SOL    HW3 8235   2.310   1.648   3.540
 2051SOL    MW4 8236   2.239   1.688   3.571
 2052SOL     OW 8237   2.262   1.945   3.421
 2052SOL    HW2 8238   2.241   1.862   3.464
 2052SOL    HW3 8239   2.242   1.929   3.329
 2052SOL    MW4 8240   2.256   1.932   3.415
 2053SOL     OW 8241   2.496   2.091   3.536
 2053SOL    HW2 8242   2.468   2.110   3.625
 2053SOL    HW3 8243   2.428   2.033   3.501
 2053SOL    MW4 8244   2.484   2.086   3.543
 2054SOL     OW 8245   2.533   2.306   3.364
 2054SOL    HW2 8246   2.606   2.355   3.402
 2054SOL    HW3 8247   2.516   2.236   3.427
 2054SOL    MW4 8248   2.541   2.304   3.377
 2055SOL     OW 8249   2.291   2.455   3.497
 2055SOL    HW2 8250   2.267   2.537   3.456
 2055SOL    HW3 8251   2.379   2.436   3.463
 2055SOL    MW4 8252   2.300   2.463   3.487
 2056SOL     OW 8253   2.230   2.699   3.386
 2056SOL    HW2 8254   2.147   2.746   3.392
 2056SOL    HW3 8255   2.249   2.696   3.292
 2056SOL    MW4 8256   2.222   2.705   3.375
 2057SOL     OW 8257   2.432   2.846   3.514
 2057SOL    HW2 8258   2.424   2.932   3.473
 2057SOL    HW3 8259   2.359   2.795   3.478
 2057SOL    MW4 8260   2.421   2.850   3.504
 2058SOL     OW 8261   2.435   3.097   3.362
 2058SOL    HW2 8262   2.512   3.145   3.395
 2058SOL    HW3 8263   2.448   3.095   3.267
 2058SOL    MW4 8264   2.447   3.103   3.354
 2059SOL     OW 8265   2.188   3.157   3.489
 2059SOL    HW2 8266   2.225   3.183   3.573
 2059SOL    HW3 8267   2.262   3.119   3.441
 2059SOL    MW4 8268   2.202   3.155   3.493
 2060SOL     OW 8269   2.238   3.432   3.417
 2060SOL    HW2 8270   2.210   3.342   3.437
 2060SOL    HW3 8271   2.219   3.442   3.323
 2060SOL    MW4 8272   2.232   3.421   3.407
 2061SOL     OW 8273   2.481   3.612   3.471
 2061SOL    HW2 8274   2.465   3.702   3.445
 2061SOL    HW3 8275   2.402   3.565   3.446
 2061SOL    MW4 8276   2.469   3.617   3.464
 2062SOL     OW 8277   2.419   3.862   3.392
 2062SOL    HW2 8278   2.496   3.892   3.441
 2062SOL    HW3 8279   2.345   3.892   3.445
 2062SOL    MW4 8280   2.419   3.870   3.405
 2063SOL     OW 8281   2.231   4.004   3.520
 2063SOL    HW2 8282   2.262   4.083   3.475
 2063SOL    HW3 8283   2.160   3.971   3.465
 2063SOL    MW4 8284   2.226   4.010   3.507
 2064SOL     OW 8285   2.247   4.255   3.379
 2064SOL    HW2 8286   2.181   4.317   3.409
 2064SOL    HW3 8287   2.237   4.253   3.284
 2064SOL    MW4 8288   2.237   4.263   3.371
 2065SOL     OW 8289   2.468   4.379   3.479
 2065SOL    HW2 8290   2.444   4.377   3.572
 2065SOL    HW3 8291   2.400   4.329   3.435
 2065SOL    MW4 8292   2.456   4.372   3.486
 2066SOL     OW 8293   2.878   4.628   3.407
 2066SOL    HW2 8294   2.801   4.674   3.442
 2066SOL    HW3 8295   2.876   4.646   3.313
 2066SOL    MW4 8296   2.868   4.636   3.399
 2067SOL     OW 8297   2.656   0.115   3.497
 2067SOL    HW2 8298   2.663   0.207   3.471
 2067SOL    HW3 8299   2.571   0.087   3.463
 2067SOL    MW4 8300   2.646   0.123   3.489
 2068SOL     OW 8301   2.638   0.381   3.379
 2068SOL    HW2 8302   2.728   0.402   3.404
 2068SOL    HW3 8303   2.643   0.365   3.284
 2068SOL    MW4 8304   2.651   0.382   3.370
 2069SOL     OW 8305   2.887   0.435   3.479
 2069SOL    HW2 8306   2.882   0.454   3.572
 2069SOL    HW3 8307   2.906   0.519   3.438
 2069SOL    MW4 8308   2.889   0.448   3.486
 2070SOL     OW 8309   2.916   0.705   3.434
 2070SOL    HW2 8310   2.993   0.744   3.475
 2070SOL    HW3 8311   2.845   0.766   3.453
 2070SOL    MW4 8312   2.917   0.718   3.442
 2071SOL     OW 8313   2.663   0.840   3.488
 2071SOL    HW2 8314   2.659   0.834   3.583
 2071SOL    HW3 8315   2.658   0.933   3.469
 2071SOL    MW4 8316   2.661   0.851   3.498
 2072SOL     OW 8317   2.682   1.115   3.402
 2072SOL    HW2 8318   2.752   1.167   3.441
 2072SOL    HW3 8319   2.694   1.127   3.308
 2072SOL    MW4 8320   2.693   1.123   3.395
 2073SOL     OW 8321   2.893   1.275   3.522
 2073SOL    HW2 8322   2.885   1.284   3.617
 2073SOL    HW3 8323   2.952   1.201   3.510
 2073SOL    MW4 8324   2.900   1.267   3.533
 2074SOL     OW 8325   2.906   1.512   3.388
 2074SOL    HW2 8326   2.826   1.552   3.420
 2074SOL    HW3 8327   2.906   1.424   3.427
 2074SOL    MW4 8328   2.895   1.505   3.397
 2075SOL     OW 8329   2.686   1.648   3.501
 2075SOL    HW2 8330   2.676   1.738   3.470
 2075SOL    HW3 8331   2.603   1.606   3.481
 2075SOL    MW4 8332   2.674   1.654   3.494
 2076SOL     OW 8333   2.698   1.913   3.430
 2076SOL    HW2 8334   2.612   1.946   3.456
 2076SOL    HW3 8335   2.693   1.905   3.335
 2076SOL    MW4 8336   2.686   1.917   3.421
 2077SOL     OW 8337   2.933   2.068   3.488
 2077SOL    HW2 8338   2.929   2.081   3.583
 2077SOL    HW3 8339   2.850   2.027   3.466
 2077SOL    MW4 8340   2.922   2.064   3.498
 2078SOL     OW 8341   2.935   2.326   3.445
 2078SOL    HW2 8342   2.937   2.231   3.450
 2078SOL    HW3 8343   2.925   2.345   3.352
 2078SOL    MW4 8344   2.934   2.316   3.433
 2079SOL     OW 8345   2.710   2.485   3.513
 2079SOL    HW2 8346   2.686   2.473   3.606
 2079SOL    HW3 8347   2.791   2.436   3.503
 2079SOL    MW4 8348   2.717   2.477   3.524
 2080SOL     OW 8349   2.673   2.724   3.408
 2080SOL    HW2 8350   2.680   2.642   3.456
 2080SOL    HW3 8351   2.603   2.772   3.451
 2080SOL    MW4 8352   2.665   2.719   3.420
 2081SOL     OW 8353   2.927   2.842   3.482
 2081SOL    HW2 8354   2.935   2.820   3.575
 2081SOL    HW3 8355   2.844   2.803   3.455
 2081SOL    MW4 8356   2.917   2.834   3.490
 2082SOL     OW 8357   2.925   3.101   3.370
 2082SOL    HW2 8358   2.940   3.009   3.394
 2082SOL    HW3 8359   2.932   3.103   3.275
 2082SOL    MW4 8360   2.928   3.089   3.361
 2083SOL     OW 8361   2.685   3.209   3.472
 2083SOL    HW2 8362   2.683   3.218   3.567
 2083SOL    HW3 8363   2.767   3.162   3.454
 2083SOL    MW4 8364   2.696   3.204   3.482
 2084SOL     OW 8365   2.692   3.461   3.364
 2084SOL    HW2 8366   2.686   3.373   3.400
 2084SOL    HW3 8367   2.627   3.512   3.413
 2084SOL    MW4 8368   2.683   3.456   3.375
 2085SOL     OW 8369   2.930   3.587   3.449
 2085SOL    HW2 8370   2.928   3.679   3.421
 2085SOL    HW3 8371   2.843   3.554   3.425
 2085SOL    MW4 8372   2.918   3.595   3.442
 2086SOL     OW 8373   2.915   3.863   3.410
 2086SOL    HW2 8374   2.980   3.880   3.478
 2086SOL    HW3 8375   2.835   3.902   3.444
 2086SOL    MW4 8376   2.913   3.870   3.424
 2087SOL     OW 8377   2.664   3.958   3.509
 2087SOL    HW2 8378   2.659   3.976   3.603
 2087SOL    HW3 8379   2.660   4.044   3.468
 2087SOL    MW4 8380   2.663   3.971   3.516
 2088SOL     OW 8381   2.661   4.211   3.390
 2088SOL    HW2 8382   2.741   4.247   3.427
 2088SOL    HW3 8383   2.591   4.270   3.419
 2088SOL    MW4 8384   2.662   4.223   3.398
 2089SOL     OW 8385   2.898   4.359   3.484
 2089SOL    HW2 8386   2.888   4.351   3.579
 2089SOL    HW3 8387   2.878   4.451   3.466
 2089SOL    MW4 8388   2.894   4.370   3.494
 2090SOL     OW 8389   3.362   4.582   3.374
 2090SOL    HW2 8390   3.290   4.623   3.422
 2090SOL    HW3 8391   3.347   4.604   3.283
 2090SOL    MW4 8392   3.351   4.590   3.369
 2091SOL     OW 8393   3.141   0.052   3.481
 2091SOL    HW2 8394   3.136   0.140   3.444
 2091SOL    HW3 8395   3.052   0.017   3.473
 2091SOL    MW4 8396   3.129   0.059   3.475
 2092SOL     OW 8397   3.128   0.310   3.388
 2092SOL    HW2 8398   3.060   0.365   3.426
 2092SOL    HW3 8399   3.125   0.329   3.294
 2092SOL    MW4 8400   3.119   0.319   3.380
 2093SOL     OW 8401   3.360   0.509   3.463
 2093SOL    HW2 8402   3.356   0.511   3.559
 2093SOL    HW3 8403   3.289   0.449   3.438
 2093SOL    MW4 8404   3.350   0.501   3.473
 2094SOL     OW 8405   3.384   0.763   3.370
 2094SOL    HW2 8406   3.452   0.806   3.423
 2094SOL    HW3 8407   3.396   0.670   3.387
 2094SOL    MW4 8408   3.394   0.757   3.379
 2095SOL     OW 8409   3.160   0.877   3.506
 2095SOL    HW2 8410   3.145   0.963   3.469
 2095SOL    HW3 8411   3.242   0.847   3.467
 2095SOL    MW4 8412   3.169   0.884   3.496
 2096SOL     OW 8413   3.118   1.141   3.431
 2096SOL    HW2 8414   3.190   1.191   3.469
 2096SOL    HW3 8415   3.134   1.144   3.337
 2096SOL    MW4 8416   3.129   1.148   3.424
 2097SOL     OW 8417   3.348   1.298   3.503
 2097SOL    HW2 8418   3.436   1.264   3.488
 2097SOL    HW3 8419   3.352   1.389   3.473
 2097SOL    MW4 8420   3.360   1.306   3.497
 2098SOL     OW 8421   3.372   1.552   3.405
 2098SOL    HW2 8422   3.454   1.578   3.447
 2098SOL    HW3 8423   3.304   1.578   3.467
 2098SOL    MW4 8424   3.374   1.559   3.419
 2099SOL     OW 8425   3.110   1.644   3.517
 2099SOL    HW2 8426   3.129   1.729   3.477
 2099SOL    HW3 8427   3.045   1.604   3.459
 2099SOL    MW4 8428   3.104   1.650   3.504
 2100SOL     OW 8429   3.151   1.898   3.411
 2100SOL    HW2 8430   3.077   1.950   3.444
 2100SOL    HW3 8431   3.144   1.905   3.316
 2100SOL    MW4 8432   3.140   1.905   3.403
 2101SOL     OW 8433   3.357   2.058   3.524
 2101SOL    HW2 8434   3.355   2.140   3.475
 2101SOL    HW3 8435   3.284   2.007   3.488
 2101SOL    MW4 8436   3.347   2.062   3.513
 2102SOL     OW 8437   3.353   2.290   3.397
 2102SOL    HW2 8438   3.432   2.339   3.420
 2102SOL    HW3 8439   3.281   2.345   3.428
 2102SOL    MW4 8440   3.354   2.303   3.404
 2103SOL     OW 8441   3.174   2.453   3.528
 2103SOL    HW2 8442   3.158   2.537   3.485
 2103SOL    HW3 8443   3.093   2.403   3.514
 2103SOL    MW4 8444   3.161   2.457   3.520
 2104SOL     OW 8445   3.137   2.701   3.403
 2104SOL    HW2 8446   3.207   2.749   3.447
 2104SOL    HW3 8447   3.057   2.750   3.424
 2104SOL    MW4 8448   3.135   2.714   3.412
 2105SOL     OW 8449   3.343   2.856   3.518
 2105SOL    HW2 8450   3.417   2.803   3.489
 2105SOL    HW3 8451   3.341   2.930   3.457
 2105SOL    MW4 8452   3.353   2.859   3.506
 2106SOL     OW 8453   3.362   3.092   3.372
 2106SOL    HW2 8454   3.441   3.121   3.417
 2106SOL    HW3 8455   3.290   3.130   3.422
 2106SOL    MW4 8456   3.363   3.101   3.384
 2107SOL     OW 8457   3.149   3.215   3.500
 2107SOL    HW2 8458   3.163   3.296   3.450
 2107SOL    HW3 8459   3.066   3.181   3.466
 2107SOL    MW4 8460   3.140   3.221   3.489
 2108SOL     OW 8461   3.168   3.475   3.364
 2108SOL    HW2 8462   3.098   3.527   3.402
 2108SOL    HW3 8463   3.149   3.473   3.270
 2108SOL    MW4 8464   3.157   3.481   3.356
 2109SOL     OW 8465   3.379   3.598   3.484
 2109SOL    HW2 8466   3.388   3.690   3.456
 2109SOL    HW3 8467   3.304   3.565   3.435
 2109SOL    MW4 8468   3.371   3.606   3.474
 2110SOL     OW 8469   3.382   3.875   3.404
 2110SOL    HW2 8470   3.454   3.920   3.448
 2110SOL    HW3 8471   3.303   3.908   3.448
 2110SOL    MW4 8472   3.381   3.886   3.416
 2111SOL     OW 8473   3.152   3.959   3.538
 2111SOL    HW2 8474   3.137   3.978   3.631
 2111SOL    HW3 8475   3.130   4.041   3.494
 2111SOL    MW4 8476   3.147   3.973   3.545
 2112SOL     OW 8477   3.084   4.190   3.386
 2112SOL    HW2 8478   3.166   4.220   3.425
 2112SOL    HW3 8479   3.018   4.250   3.418
 2112SOL    MW4 8480   3.086   4.202   3.395
 2113SOL     OW 8481   3.320   4.325   3.474
 2113SOL    HW2 8482   3.337   4.344   3.566
 2113SOL    HW3 8483   3.338   4.408   3.429
 2113SOL    MW4 8484   3.325   4.339   3.480
 2114SOL     OW 8485   3.829   4.618   3.397
 2114SOL    HW2 8486   3.753   4.675   3.413
 2114SOL    HW3 8487   3.824   4.599   3.303
 2114SOL    MW4 8488   3.818   4.623   3.386
 2115SOL     OW 8489   3.585   0.047   3.480
 2115SOL    HW2 8490   3.582   0.141   3.467
 2115SOL    HW3 8491   3.501   0.015   3.446
 2115SOL    MW4 8492   3.574   0.055   3.473
 2116SOL     OW 8493   3.596   0.336   3.404
 2116SOL    HW2 8494   3.677   0.383   3.425
 2116SOL    HW3 8495   3.527   0.402   3.415
 2116SOL    MW4 8496   3.598   0.351   3.408
 2117SOL     OW 8497   3.795   0.503   3.510
 2117SOL    HW2 8498   3.816   0.504   3.603
 2117SOL    HW3 8499   3.874   0.470   3.467
 2117SOL    MW4 8500   3.808   0.499   3.516
 2118SOL     OW 8501   3.795   0.774   3.405
 2118SOL    HW2 8502   3.881   0.803   3.437
 2118SOL    HW3 8503   3.784   0.687   3.442
 2118SOL    MW4 8504   3.805   0.767   3.414
 2119SOL     OW 8505   3.575   0.904   3.524
 2119SOL    HW2 8506   3.588   0.893   3.618
 2119SOL    HW3 8507   3.659   0.880   3.486
 2119SOL    MW4 8508   3.588   0.899   3.531
 2120SOL     OW 8509   3.591   1.177   3.431
 2120SOL    HW2 8510   3.572   1.095   3.476
 2120SOL    HW3 8511   3.589   1.155   3.338
 2120SOL    MW4 8512   3.588   1.163   3.425
 2121SOL     OW 8513   3.836   1.270   3.492
 2121SOL    HW2 8514   3.840   1.273   3.587
 2121SOL    HW3 8515   3.746   1.246   3.472
 2121SOL    MW4 8516   3.825   1.268   3.502
 2122SOL     OW 8517   3.837   1.540   3.401
 2122SOL    HW2 8518   3.912   1.593   3.428
 2122SOL    HW3 8519   3.861   1.451   3.426
 2122SOL    MW4 8520   3.850   1.535   3.408
 2123SOL     OW 8521   3.600   1.657   3.535
 2123SOL    HW2 8522   3.587   1.745   3.499
 2123SOL    HW3 8523   3.681   1.627   3.494
 2123SOL    MW4 8524   3.609   1.665   3.524
 2124SOL     OW 8525   3.570   1.912   3.390
 2124SOL    HW2 8526   3.641   1.962   3.430
 2124SOL    HW3 8527   3.490   1.959   3.415
 2124SOL    MW4 8528   3.569   1.925   3.398
 2125SOL     OW 8529   3.771   2.074   3.506
 2125SOL    HW2 8530   3.772   2.076   3.602
 2125SOL    HW3 8531   3.842   2.015   3.482
 2125SOL    MW4 8532   3.780   2.067   3.516
 2126SOL     OW 8533   3.806   2.327   3.423
 2126SOL    HW2 8534   3.887   2.368   3.454
 2126SOL    HW3 8535   3.801   2.245   3.472
 2126SOL    MW4 8536   3.816   2.322   3.434
 2127SOL     OW 8537   3.572   2.455   3.489
 2127SOL    HW2 8538   3.572   2.545   3.459
 2127SOL    HW3 8539   3.655   2.419   3.458
 2127SOL    MW4 8540   3.583   2.462   3.481
 2128SOL     OW 8541   3.559   2.714   3.400
 2128SOL    HW2 8542   3.642   2.753   3.427
 2128SOL    HW3 8543   3.569   2.699   3.306
 2128SOL    MW4 8544   3.571   2.718   3.391
 2129SOL     OW 8545   3.816   2.805   3.518
 2129SOL    HW2 8546   3.793   2.811   3.611
 2129SOL    HW3 8547   3.830   2.895   3.491
 2129SOL    MW4 8548   3.815   2.818   3.527
 2130SOL     OW 8549   3.841   3.062   3.415
 2130SOL    HW2 8550   3.897   3.139   3.421
 2130SOL    HW3 8551   3.815   3.058   3.323
 2130SOL    MW4 8552   3.845   3.072   3.404
 2131SOL     OW 8553   3.592   3.202   3.485
 2131SOL    HW2 8554   3.620   3.291   3.464
 2131SOL    HW3 8555   3.671   3.149   3.473
 2131SOL    MW4 8556   3.606   3.207   3.480
 2132SOL     OW 8557   3.586   3.457   3.370
 2132SOL    HW2 8558   3.521   3.505   3.421
 2132SOL    HW3 8559   3.560   3.473   3.279
 2132SOL    MW4 8560   3.574   3.466   3.364
 2133SOL     OW 8561   3.808   3.594   3.482
 2133SOL    HW2 8562   3.820   3.583   3.576
 2133SOL    HW3 8563   3.731   3.540   3.461
 2133SOL    MW4 8564   3.799   3.585   3.491
 2134SOL     OW 8565   3.848   3.857   3.428
 2134SOL    HW2 8566   3.764   3.903   3.435
 2134SOL    HW3 8567   3.827   3.766   3.446
 2134SOL    MW4 8568   3.834   3.851   3.431
 2135SOL     OW 8569   3.603   4.014   3.490
 2135SOL    HW2 8570   3.608   4.024   3.585
 2135SOL    HW3 8571   3.572   4.099   3.458
 2135SOL    MW4 8572   3.599   4.026   3.498
 2136SOL     OW 8573   3.585   4.287   3.388
 2136SOL    HW2 8574   3.497   4.314   3.415
 2136SOL    HW3 8575   3.581   4.286   3.292
 2136SOL    MW4 8576   3.573   4.290   3.379
 2137SOL     OW 8577   3.822   4.358   3.492
 2137SOL    HW2 8578   3.741   4.317   3.463
 2137SOL    HW3 8579   3.817   4.447   3.458
 2137SOL    MW4 8580   3.811   4.365   3.484
 2138SOL     OW 8581   4.278   4.651   3.390
 2138SOL    HW2 8582   4.267   4.571   3.440
 2138SOL    HW3 8583   4.344   4.701   3.439
 2138SOL    MW4 8584   4.285   4.647   3.403
 2139SOL     OW 8585   4.034   0.108   3.501
 2139SOL    HW2 8586   4.111   0.064   3.464
 2139SOL    HW3 8587   3.959   0.060   3.465
 2139SOL    MW4 8588   4.034   0.095   3.491
 2140SOL     OW 8589   4.000   0.369   3.413
 2140SOL    HW2 8590   4.015   0.279   3.441
 2140SOL    HW3 8591   4.003   0.366   3.318
 2140SOL    MW4 8592   4.003   0.357   3.404
 2141SOL     OW 8593   4.251   0.459   3.485
 2141SOL    HW2 8594   4.259   0.551   3.461
 2141SOL    HW3 8595   4.163   0.434   3.455
 2141SOL    MW4 8596   4.240   0.468   3.478
 2142SOL     OW 8597   4.253   0.753   3.434
 2142SOL    HW2 8598   4.329   0.805   3.458
 2142SOL    HW3 8599   4.247   0.762   3.339
 2142SOL    MW4 8600   4.262   0.761   3.425
 2143SOL     OW 8601   4.030   0.875   3.535
 2143SOL    HW2 8602   4.011   0.960   3.496
 2143SOL    HW3 8603   4.118   0.853   3.504
 2143SOL    MW4 8604   4.039   0.883   3.526
 2144SOL     OW 8605   4.060   1.142   3.408
 2144SOL    HW2 8606   4.140   1.194   3.421
 2144SOL    HW3 8607   3.990   1.197   3.442
 2144SOL    MW4 8608   4.062   1.156   3.414
 2145SOL     OW 8609   4.262   1.299   3.495
 2145SOL    HW2 8610   4.285   1.390   3.480
 2145SOL    HW3 8611   4.346   1.253   3.496
 2145SOL    MW4 8612   4.276   1.305   3.493
 2146SOL     OW 8613   4.295   1.563   3.423
 2146SOL    HW2 8614   4.218   1.607   3.460
 2146SOL    HW3 8615   4.277   1.558   3.330
 2146SOL    MW4 8616   4.282   1.568   3.416
 2147SOL     OW 8617   4.041   1.682   3.502
 2147SOL    HW2 8618   4.032   1.691   3.597
 2147SOL    HW3 8619   4.025   1.771   3.468
 2147SOL    MW4 8620   4.037   1.695   3.510
 2148SOL     OW 8621   3.993   1.926   3.391
 2148SOL    HW2 8622   4.073   1.969   3.421
 2148SOL    HW3 8623   4.010   1.906   3.299
 2148SOL    MW4 8624   4.006   1.929   3.383
 2149SOL     OW 8625   4.229   2.056   3.470
 2149SOL    HW2 8626   4.239   2.150   3.461
 2149SOL    HW3 8627   4.317   2.020   3.458
 2149SOL    MW4 8628   4.242   2.064   3.467
 2150SOL     OW 8629   4.246   2.320   3.452
 2150SOL    HW2 8630   4.174   2.374   3.483
 2150SOL    HW3 8631   4.249   2.335   3.358
 2150SOL    MW4 8632   4.237   2.329   3.444
 2151SOL     OW 8633   4.030   2.473   3.484
 2151SOL    HW2 8634   4.020   2.495   3.576
 2151SOL    HW3 8635   4.032   2.557   3.439
 2151SOL    MW4 8636   4.029   2.487   3.490
 2152SOL     OW 8637   4.012   2.711   3.350
 2152SOL    HW2 8638   4.088   2.741   3.400
 2152SOL    HW3 8639   3.937   2.731   3.406
 2152SOL    MW4 8640   4.012   2.718   3.364
 2153SOL     OW 8641   4.229   2.810   3.489
 2153SOL    HW2 8642   4.220   2.813   3.584
 2153SOL    HW3 8643   4.319   2.780   3.475
 2153SOL    MW4 8644   4.240   2.807   3.500
 2154SOL     OW 8645   4.216   3.086   3.382
 2154SOL    HW2 8646   4.220   2.996   3.415
 2154SOL    HW3 8647   4.235   3.078   3.289
 2154SOL    MW4 8648   4.219   3.073   3.374
 2155SOL     OW 8649   4.014   3.269   3.453
 2155SOL    HW2 8650   4.026   3.341   3.391
 2155SOL    HW3 8651   4.081   3.205   3.428
 2155SOL    MW4 8652   4.024   3.270   3.441
 2156SOL     OW 8653   4.051   3.542   3.340
 2156SOL    HW2 8654   4.125   3.572   3.392
 2156SOL    HW3 8655   3.974   3.561   3.394
 2156SOL    MW4 8656   4.051   3.549   3.354
 2157SOL     OW 8657   4.285   3.607   3.468
 2157SOL    HW2 8658   4.269   3.616   3.562
 2157SOL    HW3 8659   4.302   3.696   3.438
 2157SOL    MW4 8660   4.285   3.620   3.476
 2158SOL     OW 8661   4.282   3.873   3.382
 2158SOL    HW2 8662   4.360   3.923   3.408
 2158SOL    HW3 8663   4.289   3.868   3.287
 2158SOL    MW4 8664   4.294   3.879   3.373
 2159SOL     OW 8665   4.072   4.018   3.501
 2159SOL    HW2 8666   4.150   3.981   3.461
 2159SOL    HW3 8667   4.004   3.951   3.488
 2159SOL    MW4 8668   4.073   4.004   3.494
 2160SOL     OW 8669   4.056   4.253   3.380
 2160SOL    HW2 8670   4.056   4.162   3.408
 2160SOL    HW3 8671   3.985   4.294   3.429
 2160SOL    MW4 8672   4.047   4.247   3.390
 2161SOL     OW 8673   4.255   4.392   3.491
 2161SOL    HW2 8674   4.260   4.394   3.587
 2161SOL    HW3 8675   4.173   4.345   3.473
 2161SOL    MW4 8676   4.245   4.386   3.502
 2162SOL     OW 8677   0.212   4.657   3.922
 2162SOL    HW2 8678   0.208   4.650   4.018
 2162SOL    HW3 8679   0.130   4.699   3.898
 2162SOL    MW4 8680   0.201   4.662   3.932
 2163SOL     OW 8681   4.464   0.109   3.817
 2163SOL    HW2 8682   4.467   0.201   3.844
 2163SOL    HW3 8683   4.448   0.112   3.723
 2163SOL    MW4 8684   4.463   0.122   3.808
 2164SOL     OW 8685   4.474   0.356   3.914
 2164SOL    HW2 8686   4.409   0.391   3.853
 2164SOL    HW3 8687   4.558   0.387   3.880
 2164SOL    MW4 8688   4.476   0.365   3.902
 2165SOL     OW 8689   0.204   0.461   3.788
 2165SOL    HW2 8690   0.199   0.543   3.838
 2165SOL    HW3 8691   0.190   0.487   3.697
 2165SOL    MW4 8692   0.202   0.475   3.783
 2166SOL     OW 8693   0.194   0.729   3.873
 2166SOL    HW2 8694   0.223   0.747   3.962
 2166SOL    HW3 8695   0.108   0.771   3.866
 2166SOL    MW4 8696   0.187   0.737   3.883
 2167SOL     OW 8697   4.437   0.881   3.813
 2167SOL    HW2 8698   4.360   0.836   3.846
 2167SOL    HW3 8699   4.430   0.970   3.849
 2167SOL    MW4 8700   4.426   0.887   3.822
 2168SOL     OW 8701   4.469   1.149   3.912
 2168SOL    HW2 8702   4.401   1.175   3.850
 2168SOL    HW3 8703   4.551   1.181   3.872
 2168SOL    MW4 8704   4.471   1.157   3.898
 2169SOL     OW 8705   0.231   1.266   3.798
 2169SOL    HW2 8706   0.249   1.355   3.827
 2169SOL    HW3 8707   0.232   1.271   3.702
 2169SOL    MW4 8708   0.233   1.278   3.789
 2170SOL     OW 8709   0.214   1.538   3.875
 2170SOL    HW2 8710   0.213   1.553   3.970
 2170SOL    HW3 8711   0.129   1.570   3.845
 2170SOL    MW4 8712   0.203   1.544   3.884
 2171SOL     OW 8713   4.477   1.675   3.788
 2171SOL    HW2 8714   4.470   1.756   3.838
 2171SOL    HW3 8715   4.509   1.701   3.702
 2171SOL    MW4 8716   4.481   1.689   3.783
 2172SOL     OW 8717   4.485   1.945   3.873
 2172SOL    HW2 8718   4.479   1.954   3.968
 2172SOL    HW3 8719   4.403   1.981   3.840
 2172SOL    MW4 8720   4.474   1.951   3.881
 2173SOL     OW 8721   0.225   2.050   3.769
 2173SOL    HW2 8722   0.212   2.140   3.797
 2173SOL    HW3 8723   0.142   2.006   3.790
 2173SOL    MW4 8724   0.212   2.056   3.776
 2174SOL     OW 8725   0.209   2.315   3.831
 2174SOL    HW2 8726   0.206   2.319   3.927
 2174SOL    HW3 8727   0.131   2.362   3.803
 2174SOL    MW4 8728   0.199   2.321   3.840
 2175SOL     OW 8729   4.476   2.477   3.767
 2175SOL    HW2 8730   4.402   2.421   3.789
 2175SOL    HW3 8731   4.466   2.554   3.825
 2175SOL    MW4 8732   4.465   2.480   3.778
 2176SOL     OW 8733   4.418   2.735   3.898
 2176SOL    HW2 8734   4.405   2.751   3.991
 2176SOL    HW3 8735   4.499   2.782   3.877
 2176SOL    MW4 8736   4.427   2.743   3.908
 2177SOL     OW 8737   0.199   2.802   3.811
 2177SOL    HW2 8738   0.262   2.738   3.843
 2177SOL    HW3 8739   0.208   2.798   3.716
 2177SOL    MW4 8740   0.209   2.793   3.802
 2178SOL     OW 8741   0.225   3.074   3.837
 2178SOL    HW2 8742   0.208   3.101   3.927
 2178SOL    HW3 8743   0.224   2.978   3.839
 2178SOL    MW4 8744   0.223   3.065   3.849
 2179SOL     OW 8745   4.475   3.192   3.784
 2179SOL    HW2 8746   4.560   3.151   3.802
 2179SOL    HW3 8747   4.474   3.203   3.688
 2179SOL    MW4 8748   4.486   3.188   3.773
 2180SOL     OW 8749   0.002   3.454   3.863
 2180SOL    HW2 8750   0.090   3.479   3.835
 2180SOL    HW3 8751  -0.012   3.367   3.824
 2180SOL    MW4 8752   0.012   3.446   3.854
 2181SOL     OW 8753   0.219   3.580   3.766
 2181SOL    HW2 8754   0.308   3.547   3.777
 2181SOL    HW3 8755   0.225   3.673   3.788
 2181SOL    MW4 8756   0.232   3.588   3.770
 2182SOL     OW 8757   0.204   3.866   3.833
 2182SOL    HW2 8758   0.200   3.868   3.929
 2182SOL    HW3 8759   0.287   3.908   3.812
 2182SOL    MW4 8760   0.215   3.872   3.843
 2183SOL     OW 8761   0.008   4.037   3.766
 2183SOL    HW2 8762  -0.074   3.991   3.783
 2183SOL    HW3 8763   0.075   3.980   3.802
 2183SOL    MW4 8764   0.006   4.024   3.773
 2184SOL     OW 8765   0.012   4.279   3.907
 2184SOL    HW2 8766   0.084   4.324   3.863
 2184SOL    HW3 8767   0.009   4.193   3.864
 2184SOL    MW4 8768   0.021   4.273   3.895
 2185SOL     OW 8769   0.194   4.421   3.760
 2185SOL    HW2 8770   0.272   4.378   3.796
 2185SOL    HW3 8771   0.192   4.506   3.805
 2185SOL    MW4 8772   0.204   4.427   3.771
 2186SOL     OW 8773   0.680   0.012   3.918
 2186SOL    HW2 8774   0.678  -0.072   3.873
 2186SOL    HW3 8775   0.593   0.049   3.904
 2186SOL    MW4 8776   0.668   0.006   3.910
 2187SOL     OW 8777   0.442   0.111   3.805
 2187SOL    HW2 8778   0.422   0.200   3.834
 2187SOL    HW3 8779   0.368   0.058   3.837
 2187SOL    MW4 8780   0.429   0.115   3.813
 2188SOL     OW 8781   0.419   0.368   3.922
 2188SOL    HW2 8782   0.494   0.400   3.872
 2188SOL    HW3 8783   0.343   0.399   3.874
 2188SOL    MW4 8784   0.419   0.376   3.909
 2189SOL     OW 8785   0.636   0.508   3.803
 2189SOL    HW2 8786   0.723   0.488   3.836
 2189SOL    HW3 8787   0.617   0.595   3.838
 2189SOL    MW4 8788   0.645   0.517   3.812
 2190SOL     OW 8789   0.614   0.775   3.898
 2190SOL    HW2 8790   0.698   0.810   3.868
 2190SOL    HW3 8791   0.550   0.807   3.834
 2190SOL    MW4 8792   0.616   0.784   3.885
 2191SOL     OW 8793   0.380   0.880   3.742
 2191SOL    HW2 8794   0.390   0.953   3.803
 2191SOL    HW3 8795   0.319   0.821   3.785
 2191SOL    MW4 8796   0.374   0.882   3.756
 2192SOL     OW 8797   0.401   1.099   3.914
 2192SOL    HW2 8798   0.484   1.126   3.873
 2192SOL    HW3 8799   0.335   1.151   3.869
 2192SOL    MW4 8800   0.404   1.110   3.903
 2193SOL     OW 8801   0.622   1.232   3.790
 2193SOL    HW2 8802   0.697   1.182   3.825
 2193SOL    HW3 8803   0.633   1.227   3.695
 2193SOL    MW4 8804   0.634   1.225   3.782
 2194SOL     OW 8805   0.625   1.503   3.887
 2194SOL    HW2 8806   0.708   1.540   3.859
 2194SOL    HW3 8807   0.621   1.417   3.846
 2194SOL    MW4 8808   0.635   1.497   3.878
 2195SOL     OW 8809   0.436   1.667   3.785
 2195SOL    HW2 8810   0.501   1.614   3.832
 2195SOL    HW3 8811   0.352   1.631   3.812
 2195SOL    MW4 8812   0.433   1.655   3.795
 2196SOL     OW 8813   0.479   1.941   3.842
 2196SOL    HW2 8814   0.453   1.849   3.831
 2196SOL    HW3 8815   0.396   1.989   3.839
 2196SOL    MW4 8816   0.464   1.935   3.840
 2197SOL     OW 8817   0.736   2.025   3.740
 2197SOL    HW2 8818   0.750   2.107   3.788
 2197SOL    HW3 8819   0.646   2.001   3.760
 2197SOL    MW4 8820   0.726   2.033   3.749
 2198SOL     OW 8821   0.706   2.279   3.850
 2198SOL    HW2 8822   0.765   2.350   3.829
 2198SOL    HW3 8823   0.619   2.310   3.825
 2198SOL    MW4 8824   0.702   2.292   3.844
 2199SOL     OW 8825   0.471   2.402   3.781
 2199SOL    HW2 8826   0.392   2.349   3.795
 2199SOL    HW3 8827   0.468   2.425   3.688
 2199SOL    MW4 8828   0.460   2.398   3.770
 2200SOL     OW 8829   0.414   2.657   3.906
 2200SOL    HW2 8830   0.472   2.715   3.856
 2200SOL    HW3 8831   0.440   2.569   3.881
 2200SOL    MW4 8832   0.425   2.653   3.896
 2201SOL     OW 8833   0.604   2.809   3.763
 2201SOL    HW2 8834   0.695   2.787   3.780
 2201SOL    HW3 8835   0.597   2.809   3.667
 2201SOL    MW4 8836   0.615   2.806   3.752
 2202SOL     OW 8837   0.661   3.069   3.853
 2202SOL    HW2 8838   0.634   3.081   3.944
 2202SOL    HW3 8839   0.638   2.978   3.833
 2202SOL    MW4 8840   0.654   3.058   3.862
 2203SOL     OW 8841   0.455   3.223   3.766
 2203SOL    HW2 8842   0.528   3.170   3.797
 2203SOL    HW3 8843   0.377   3.183   3.806
 2203SOL    MW4 8844   0.454   3.211   3.776
 2204SOL     OW 8845   0.458   3.475   3.855
 2204SOL    HW2 8846   0.539   3.512   3.819
 2204SOL    HW3 8847   0.464   3.381   3.837
 2204SOL    MW4 8848   0.470   3.467   3.848
 2205SOL     OW 8849   0.672   3.626   3.775
 2205SOL    HW2 8850   0.657   3.719   3.795
 2205SOL    HW3 8851   0.658   3.619   3.681
 2205SOL    MW4 8852   0.668   3.638   3.766
 2206SOL     OW 8853   0.693   3.931   3.804
 2206SOL    HW2 8854   0.727   3.911   3.891
 2206SOL    HW3 8855   0.772   3.952   3.753
 2206SOL    MW4 8856   0.708   3.931   3.809
 2207SOL     OW 8857   0.414   4.033   3.748
 2207SOL    HW2 8858   0.498   4.002   3.784
 2207SOL    HW3 8859   0.421   4.016   3.654
 2207SOL    MW4 8860   0.426   4.027   3.741
 2208SOL     OW 8861   0.423   4.297   3.874
 2208SOL    HW2 8862   0.503   4.347   3.856
 2208SOL    HW3 8863   0.426   4.224   3.813
 2208SOL    MW4 8864   0.434   4.294   3.864
 2209SOL     OW 8865   0.659   4.426   3.787
 2209SOL    HW2 8866   0.742   4.384   3.810
 2209SOL    HW3 8867   0.649   4.410   3.693
 2209SOL    MW4 8868   0.668   4.418   3.778
 2210SOL     OW 8869   1.108   4.665   3.855
 2210SOL    HW2 8870   1.191   4.700   3.823
 2210SOL    HW3 8871   1.120   4.570   3.852
 2210SOL    MW4 8872   1.121   4.657   3.850
 2211SOL     OW 8873   0.870   0.164   3.806
 2211SOL    HW2 8874   0.942   0.104   3.821
 2211SOL    HW3 8875   0.797   0.129   3.857
 2211SOL    MW4 8876   0.870   0.152   3.814
 2212SOL     OW 8877   0.873   0.433   3.907
 2212SOL    HW2 8878   0.884   0.431   4.002
 2212SOL    HW3 8879   0.861   0.341   3.882
 2212SOL    MW4 8880   0.873   0.420   3.916
 2213SOL     OW 8881   1.118   0.506   3.812
 2213SOL    HW2 8882   1.176   0.436   3.842
 2213SOL    HW3 8883   1.030   0.474   3.832
 2213SOL    MW4 8884   1.114   0.492   3.819
 2214SOL     OW 8885   1.096   0.772   3.923
 2214SOL    HW2 8886   1.104   0.765   4.018
 2214SOL    HW3 8887   1.098   0.682   3.892
 2214SOL    MW4 8888   1.097   0.760   3.931
 2215SOL     OW 8889   0.854   0.868   3.798
 2215SOL    HW2 8890   0.936   0.841   3.839
 2215SOL    HW3 8891   0.873   0.870   3.704
 2215SOL    MW4 8892   0.867   0.865   3.791
 2216SOL     OW 8893   0.875   1.133   3.905
 2216SOL    HW2 8894   0.881   1.142   4.000
 2216SOL    HW3 8895   0.862   1.040   3.890
 2216SOL    MW4 8896   0.874   1.122   3.916
 2217SOL     OW 8897   1.116   1.277   3.815
 2217SOL    HW2 8898   1.125   1.365   3.851
 2217SOL    HW3 8899   1.033   1.245   3.851
 2217SOL    MW4 8900   1.106   1.285   3.825
 2218SOL     OW 8901   1.107   1.548   3.905
 2218SOL    HW2 8902   1.111   1.547   4.000
 2218SOL    HW3 8903   1.181   1.602   3.878
 2218SOL    MW4 8904   1.117   1.555   3.914
 2219SOL     OW 8905   0.857   1.620   3.794
 2219SOL    HW2 8906   0.935   1.584   3.836
 2219SOL    HW3 8907   0.879   1.621   3.701
 2219SOL    MW4 8908   0.870   1.616   3.788
 2220SOL     OW 8909   0.943   1.878   3.834
 2220SOL    HW2 8910   0.915   1.787   3.829
 2220SOL    HW3 8911   0.873   1.927   3.792
 2220SOL    MW4 8912   0.930   1.873   3.828
 2221SOL     OW 8913   1.176   2.048   3.786
 2221SOL    HW2 8914   1.094   1.998   3.796
 2221SOL    HW3 8915   1.191   2.051   3.692
 2221SOL    MW4 8916   1.167   2.042   3.775
 2222SOL     OW 8917   1.074   2.294   3.867
 2222SOL    HW2 8918   1.072   2.288   3.962
 2222SOL    HW3 8919   1.107   2.209   3.838
 2222SOL    MW4 8920   1.078   2.282   3.875
 2223SOL     OW 8921   0.884   2.460   3.770
 2223SOL    HW2 8922   0.904   2.553   3.784
 2223SOL    HW3 8923   0.954   2.413   3.815
 2223SOL    MW4 8924   0.896   2.466   3.777
 2224SOL     OW 8925   0.879   2.751   3.809
 2224SOL    HW2 8926   0.887   2.728   3.901
 2224SOL    HW3 8927   0.953   2.809   3.791
 2224SOL    MW4 8928   0.889   2.756   3.819
 2225SOL     OW 8929   1.116   2.885   3.767
 2225SOL    HW2 8930   1.188   2.843   3.814
 2225SOL    HW3 8931   1.102   2.967   3.814
 2225SOL    MW4 8932   1.123   2.890   3.780
 2226SOL     OW 8933   1.093   3.128   3.881
 2226SOL    HW2 8934   1.175   3.166   3.851
 2226SOL    HW3 8935   1.026   3.170   3.826
 2226SOL    MW4 8936   1.095   3.138   3.869
 2227SOL     OW 8937   0.871   3.215   3.720
 2227SOL    HW2 8938   0.802   3.161   3.759
 2227SOL    HW3 8939   0.856   3.208   3.625
 2227SOL    MW4 8940   0.860   3.207   3.712
 2228SOL     OW 8941   0.891   3.464   3.861
 2228SOL    HW2 8942   0.870   3.385   3.812
 2228SOL    HW3 8943   0.816   3.522   3.846
 2228SOL    MW4 8944   0.878   3.462   3.852
 2229SOL     OW 8945   1.117   3.591   3.723
 2229SOL    HW2 8946   1.095   3.679   3.755
 2229SOL    HW3 8947   1.049   3.534   3.759
 2229SOL    MW4 8948   1.105   3.595   3.732
 2230SOL     OW 8949   1.072   3.847   3.824
 2230SOL    HW2 8950   1.085   3.823   3.915
 2230SOL    HW3 8951   1.154   3.891   3.799
 2230SOL    MW4 8952   1.085   3.850   3.833
 2231SOL     OW 8953   0.928   4.037   3.678
 2231SOL    HW2 8954   0.976   3.955   3.693
 2231SOL    HW3 8955   0.908   4.036   3.585
 2231SOL    MW4 8956   0.932   4.026   3.668
 2232SOL     OW 8957   0.878   4.268   3.834
 2232SOL    HW2 8958   0.883   4.249   3.928
 2232SOL    HW3 8959   0.889   4.183   3.792
 2232SOL    MW4 8960   0.880   4.254   3.841
 2233SOL     OW 8961   1.118   4.387   3.784
 2233SOL    HW2 8962   1.032   4.352   3.806
 2233SOL    HW3 8963   1.125   4.379   3.689
 2233SOL    MW4 8964   1.108   4.382   3.775
 2234SOL     OW 8965   1.570   4.655   3.861
 2234SOL    HW2 8966   1.579   4.652   3.956
 2234SOL    HW3 8967   1.560   4.563   3.835
 2234SOL    MW4 8968   1.570   4.642   3.870
 2235SOL     OW 8969   1.339   0.101   3.759
 2235SOL    HW2 8970   1.341   0.187   3.802
 2235SOL    HW3 8971   1.421   0.060   3.784
 2235SOL    MW4 8972   1.350   0.107   3.768
 2236SOL     OW 8973   1.305   0.334   3.911
 2236SOL    HW2 8974   1.308   0.341   4.007
 2236SOL    HW3 8975   1.377   0.389   3.881
 2236SOL    MW4 8976   1.315   0.342   3.920
 2237SOL     OW 8977   1.536   0.476   3.809
 2237SOL    HW2 8978   1.613   0.427   3.836
 2237SOL    HW3 8979   1.550   0.564   3.844
 2237SOL    MW4 8980   1.548   0.481   3.817
 2238SOL     OW 8981   1.563   0.742   3.903
 2238SOL    HW2 8982   1.630   0.806   3.877
 2238SOL    HW3 8983   1.480   0.783   3.879
 2238SOL    MW4 8984   1.561   0.756   3.896
 2239SOL     OW 8985   1.325   0.883   3.809
 2239SOL    HW2 8986   1.337   0.971   3.846
 2239SOL    HW3 8987   1.242   0.852   3.847
 2239SOL    MW4 8988   1.315   0.891   3.819
 2240SOL     OW 8989   1.327   1.124   3.935
 2240SOL    HW2 8990   1.392   1.161   3.875
 2240SOL    HW3 8991   1.243   1.160   3.905
 2240SOL    MW4 8992   1.324   1.134   3.923
 2241SOL     OW 8993   1.538   1.256   3.788
 2241SOL    HW2 8994   1.607   1.214   3.840
 2241SOL    HW3 8995   1.515   1.334   3.838
 2241SOL    MW4 8996   1.544   1.261   3.801
 2242SOL     OW 8997   1.522   1.492   3.919
 2242SOL    HW2 8998   1.517   1.505   4.014
 2242SOL    HW3 8999   1.600   1.540   3.893
 2242SOL    MW4 9000   1.532   1.500   3.928
 2243SOL     OW 9001   1.343   1.656   3.798
 2243SOL    HW2 9002   1.358   1.739   3.844
 2243SOL    HW3 9003   1.406   1.595   3.837
 2243SOL    MW4 9004   1.353   1.659   3.809
 2244SOL     OW 9005   1.399   1.906   3.885
 2244SOL    HW2 9006   1.396   1.913   3.981
 2244SOL    HW3 9007   1.323   1.956   3.855
 2244SOL    MW4 9008   1.388   1.914   3.894
 2245SOL     OW 9009   1.588   2.057   3.755
 2245SOL    HW2 9010   1.524   1.998   3.797
 2245SOL    HW3 9011   1.554   2.070   3.667
 2245SOL    MW4 9012   1.575   2.051   3.749
 2246SOL     OW 9013   1.557   2.316   3.847
 2246SOL    HW2 9014   1.632   2.374   3.844
 2246SOL    HW3 9015   1.592   2.229   3.828
 2246SOL    MW4 9016   1.571   2.312   3.844
 2247SOL     OW 9017   1.321   2.447   3.772
 2247SOL    HW2 9018   1.395   2.404   3.814
 2247SOL    HW3 9019   1.245   2.395   3.798
 2247SOL    MW4 9020   1.321   2.435   3.781
 2248SOL     OW 9021   1.298   2.694   3.889
 2248SOL    HW2 9022   1.304   2.704   3.984
 2248SOL    HW3 9023   1.302   2.600   3.875
 2248SOL    MW4 9024   1.299   2.683   3.900
 2249SOL     OW 9025   1.494   2.855   3.762
 2249SOL    HW2 9026   1.433   2.790   3.797
 2249SOL    HW3 9027   1.510   2.827   3.672
 2249SOL    MW4 9028   1.488   2.843   3.755
 2250SOL     OW 9029   1.578   3.092   3.892
 2250SOL    HW2 9030   1.577   3.072   3.986
 2250SOL    HW3 9031   1.552   3.009   3.850
 2250SOL    MW4 9032   1.574   3.078   3.899
 2251SOL     OW 9033   1.342   3.220   3.770
 2251SOL    HW2 9034   1.321   3.308   3.801
 2251SOL    HW3 9035   1.411   3.189   3.829
 2251SOL    MW4 9036   1.348   3.227   3.782
 2252SOL     OW 9037   1.346   3.489   3.855
 2252SOL    HW2 9038   1.429   3.517   3.816
 2252SOL    HW3 9039   1.280   3.539   3.807
 2252SOL    MW4 9040   1.348   3.499   3.843
 2253SOL     OW 9041   1.570   3.618   3.748
 2253SOL    HW2 9042   1.637   3.571   3.798
 2253SOL    HW3 9043   1.581   3.709   3.773
 2253SOL    MW4 9044   1.580   3.624   3.758
 2254SOL     OW 9045   1.565   3.879   3.861
 2254SOL    HW2 9046   1.569   3.887   3.957
 2254SOL    HW3 9047   1.475   3.904   3.840
 2254SOL    MW4 9048   1.553   3.883   3.871
 2255SOL     OW 9049   1.308   4.001   3.768
 2255SOL    HW2 9050   1.339   4.088   3.793
 2255SOL    HW3 9051   1.338   3.990   3.678
 2255SOL    MW4 9052   1.316   4.011   3.759
 2256SOL     OW 9053   1.346   4.251   3.857
 2256SOL    HW2 9054   1.404   4.302   3.801
 2256SOL    HW3 9055   1.258   4.286   3.839
 2256SOL    MW4 9056   1.342   4.263   3.848
 2257SOL     OW 9057   1.546   4.405   3.732
 2257SOL    HW2 9058   1.608   4.347   3.775
 2257SOL    HW3 9059   1.570   4.402   3.639
 2257SOL    MW4 9060   1.557   4.397   3.725
 2258SOL     OW 9061   2.018   4.646   3.879
 2258SOL    HW2 9062   2.089   4.698   3.840
 2258SOL    HW3 9063   2.021   4.563   3.832
 2258SOL    MW4 9064   2.028   4.642   3.868
 2259SOL     OW 9065   1.797   0.115   3.769
 2259SOL    HW2 9066   1.871   0.057   3.787
 2259SOL    HW3 9067   1.720   0.067   3.801
 2259SOL    MW4 9068   1.796   0.101   3.776
 2260SOL     OW 9069   1.778   0.374   3.890
 2260SOL    HW2 9070   1.768   0.381   3.984
 2260SOL    HW3 9071   1.774   0.280   3.872
 2260SOL    MW4 9072   1.776   0.363   3.900
 2261SOL     OW 9073   2.009   0.479   3.787
 2261SOL    HW2 9074   1.921   0.444   3.793
 2261SOL    HW3 9075   2.034   0.466   3.696
 2261SOL    MW4 9076   2.001   0.473   3.776
 2262SOL     OW 9077   2.012   0.767   3.855
 2262SOL    HW2 9078   2.036   0.776   3.947
 2262SOL    HW3 9079   2.006   0.673   3.841
 2262SOL    MW4 9080   2.015   0.756   3.865
 2263SOL     OW 9081   1.764   0.907   3.832
 2263SOL    HW2 9082   1.853   0.872   3.835
 2263SOL    HW3 9083   1.747   0.920   3.739
 2263SOL    MW4 9084   1.774   0.904   3.820
 2264SOL     OW 9085   1.769   1.165   3.922
 2264SOL    HW2 9086   1.763   1.158   4.017
 2264SOL    HW3 9087   1.763   1.074   3.891
 2264SOL    MW4 9088   1.767   1.152   3.930
 2265SOL     OW 9089   1.978   1.305   3.806
 2265SOL    HW2 9090   2.042   1.249   3.851
 2265SOL    HW3 9091   1.894   1.269   3.832
 2265SOL    MW4 9092   1.976   1.293   3.816
 2266SOL     OW 9093   1.972   1.572   3.887
 2266SOL    HW2 9094   1.888   1.611   3.861
 2266SOL    HW3 9095   1.969   1.483   3.851
 2266SOL    MW4 9096   1.961   1.566   3.879
 2267SOL     OW 9097   1.724   1.647   3.807
 2267SOL    HW2 9098   1.727   1.736   3.840
 2267SOL    HW3 9099   1.722   1.657   3.711
 2267SOL    MW4 9100   1.724   1.660   3.798
 2268SOL     OW 9101   1.805   1.912   3.851
 2268SOL    HW2 9102   1.806   1.928   3.945
 2268SOL    HW3 9103   1.728   1.959   3.820
 2268SOL    MW4 9104   1.795   1.921   3.859
 2269SOL     OW 9105   2.017   2.060   3.778
 2269SOL    HW2 9106   1.942   2.002   3.784
 2269SOL    HW3 9107   2.034   2.068   3.684
 2269SOL    MW4 9108   2.009   2.054   3.766
 2270SOL     OW 9109   2.022   2.326   3.873
 2270SOL    HW2 9110   1.944   2.376   3.846
 2270SOL    HW3 9111   2.002   2.237   3.845
 2270SOL    MW4 9112   2.009   2.321   3.866
 2271SOL     OW 9113   1.786   2.460   3.792
 2271SOL    HW2 9114   1.759   2.547   3.822
 2271SOL    HW3 9115   1.819   2.473   3.704
 2271SOL    MW4 9116   1.787   2.473   3.785
 2272SOL     OW 9117   1.770   2.744   3.862
 2272SOL    HW2 9118   1.779   2.761   3.956
 2272SOL    HW3 9119   1.691   2.791   3.836
 2272SOL    MW4 9120   1.761   2.753   3.871
 2273SOL     OW 9121   1.989   2.862   3.755
 2273SOL    HW2 9122   2.068   2.826   3.796
 2273SOL    HW3 9123   1.917   2.813   3.794
 2273SOL    MW4 9124   1.990   2.851   3.765
 2274SOL     OW 9125   2.023   3.142   3.810
 2274SOL    HW2 9126   2.017   3.055   3.773
 2274SOL    HW3 9127   2.094   3.184   3.761
 2274SOL    MW4 9128   2.032   3.136   3.799
 2275SOL     OW 9129   1.778   3.223   3.735
 2275SOL    HW2 9130   1.862   3.188   3.764
 2275SOL    HW3 9131   1.715   3.191   3.799
 2275SOL    MW4 9132   1.781   3.214   3.747
 2276SOL     OW 9133   1.792   3.475   3.869
 2276SOL    HW2 9134   1.860   3.528   3.828
 2276SOL    HW3 9135   1.803   3.388   3.830
 2276SOL    MW4 9136   1.802   3.470   3.858
 2277SOL     OW 9137   1.987   3.634   3.758
 2277SOL    HW2 9138   2.062   3.583   3.785
 2277SOL    HW3 9139   1.987   3.628   3.662
 2277SOL    MW4 9140   1.997   3.626   3.749
 2278SOL     OW 9141   2.017   3.899   3.893
 2278SOL    HW2 9142   2.092   3.948   3.857
 2278SOL    HW3 9143   2.011   3.822   3.837
 2278SOL    MW4 9144   2.026   3.896   3.881
 2279SOL     OW 9145   1.809   3.999   3.741
 2279SOL    HW2 9146   1.883   3.961   3.789
 2279SOL    HW3 9147   1.733   3.948   3.770
 2279SOL    MW4 9148   1.809   3.987   3.751
 2280SOL     OW 9149   1.771   4.268   3.829
 2280SOL    HW2 9150   1.854   4.307   3.804
 2280SOL    HW3 9151   1.778   4.176   3.803
 2280SOL    MW4 9152   1.783   4.261   3.822
 2281SOL     OW 9153   2.001   4.389   3.747
 2281SOL    HW2 9154   2.088   4.368   3.780
 2281SOL    HW3 9155   2.007   4.375   3.653
 2281SOL    MW4 9156   2.013   4.384   3.739
 2282SOL     OW 9157   2.449   4.627   3.907
 2282SOL    HW2 9158   2.450   4.649   4.001
 2282SOL    HW3 9159   2.520   4.679   3.870
 2282SOL    MW4 9160   2.458   4.637   3.915
 2283SOL     OW 9161   2.230   0.105   3.767
 2283SOL    HW2 9162   2.308   0.059   3.798
 2283SOL    HW3 9163   2.245   0.117   3.674
 2283SOL    MW4 9164   2.242   0.100   3.759
 2284SOL     OW 9165   2.224   0.340   3.912
 2284SOL    HW2 9166   2.224   0.259   3.862
 2284SOL    HW3 9167   2.144   0.385   3.885
 2284SOL    MW4 9168   2.213   0.335   3.902
 2285SOL     OW 9169   2.432   0.487   3.808
 2285SOL    HW2 9170   2.354   0.453   3.853
 2285SOL    HW3 9171   2.405   0.493   3.716
 2285SOL    MW4 9172   2.418   0.483   3.802
 2286SOL     OW 9173   2.475   0.766   3.881
 2286SOL    HW2 9174   2.401   0.802   3.832
 2286SOL    HW3 9175   2.484   0.676   3.849
 2286SOL    MW4 9176   2.467   0.759   3.870
 2287SOL     OW 9177   2.254   0.883   3.765
 2287SOL    HW2 9178   2.173   0.847   3.801
 2287SOL    HW3 9179   2.236   0.895   3.672
 2287SOL    MW4 9180   2.241   0.879   3.757
 2288SOL     OW 9181   2.208   1.154   3.871
 2288SOL    HW2 9182   2.201   1.137   3.965
 2288SOL    HW3 9183   2.212   1.066   3.831
 2288SOL    MW4 9184   2.208   1.140   3.878
 2289SOL     OW 9185   2.461   1.275   3.796
 2289SOL    HW2 9186   2.453   1.368   3.816
 2289SOL    HW3 9187   2.378   1.237   3.827
 2289SOL    MW4 9188   2.449   1.282   3.803
 2290SOL     OW 9189   2.458   1.541   3.879
 2290SOL    HW2 9190   2.520   1.596   3.831
 2290SOL    HW3 9191   2.372   1.580   3.861
 2290SOL    MW4 9192   2.455   1.553   3.870
 2291SOL     OW 9193   2.215   1.671   3.840
 2291SOL    HW2 9194   2.216   1.762   3.868
 2291SOL    HW3 9195   2.125   1.642   3.853
 2291SOL    MW4 9196   2.203   1.679   3.845
 2292SOL     OW 9197   2.238   1.959   3.929
 2292SOL    HW2 9198   2.224   1.959   4.024
 2292SOL    HW3 9199   2.159   1.999   3.893
 2292SOL    MW4 9200   2.226   1.964   3.937
 2293SOL     OW 9201   2.436   2.112   3.823
 2293SOL    HW2 9202   2.444   2.185   3.885
 2293SOL    HW3 9203   2.354   2.069   3.849
 2293SOL    MW4 9204   2.426   2.116   3.835
 2294SOL     OW 9205   2.455   2.355   3.961
 2294SOL    HW2 9206   2.538   2.379   3.920
 2294SOL    HW3 9207   2.391   2.413   3.920
 2294SOL    MW4 9208   2.457   2.366   3.950
 2295SOL     OW 9209   2.235   2.488   3.780
 2295SOL    HW2 9210   2.158   2.434   3.795
 2295SOL    HW3 9211   2.258   2.471   3.688
 2295SOL    MW4 9212   2.228   2.479   3.770
 2296SOL     OW 9213   2.204   2.737   3.852
 2296SOL    HW2 9214   2.222   2.752   3.945
 2296SOL    HW3 9215   2.215   2.643   3.841
 2296SOL    MW4 9216   2.208   2.727   3.863
 2297SOL     OW 9217   2.473   2.812   3.802
 2297SOL    HW2 9218   2.388   2.777   3.829
 2297SOL    HW3 9219   2.463   2.833   3.709
 2297SOL    MW4 9220   2.461   2.810   3.793
 2298SOL     OW 9221   2.464   3.095   3.862
 2298SOL    HW2 9222   2.486   3.131   3.948
 2298SOL    HW3 9223   2.473   3.000   3.873
 2298SOL    MW4 9224   2.468   3.087   3.875
 2299SOL     OW 9225   2.266   3.234   3.732
 2299SOL    HW2 9226   2.271   3.316   3.781
 2299SOL    HW3 9227   2.333   3.178   3.772
 2299SOL    MW4 9228   2.275   3.237   3.744
 2300SOL     OW 9229   2.198   3.499   3.850
 2300SOL    HW2 9230   2.195   3.488   3.945
 2300SOL    HW3 9231   2.277   3.551   3.835
 2300SOL    MW4 9232   2.208   3.504   3.861
 2301SOL     OW 9233   2.450   3.627   3.763
 2301SOL    HW2 9234   2.526   3.574   3.787
 2301SOL    HW3 9235   2.450   3.627   3.668
 2301SOL    MW4 9236   2.460   3.620   3.754
 2302SOL     OW 9237   2.454   3.868   3.900
 2302SOL    HW2 9238   2.533   3.902   3.858
 2302SOL    HW3 9239   2.447   3.778   3.868
 2302SOL    MW4 9240   2.464   3.861   3.890
 2303SOL     OW 9241   2.251   4.007   3.794
 2303SOL    HW2 9242   2.332   3.967   3.825
 2303SOL    HW3 9243   2.253   3.994   3.699
 2303SOL    MW4 9244   2.262   4.000   3.785
 2304SOL     OW 9245   2.211   4.264   3.866
 2304SOL    HW2 9246   2.229   4.267   3.960
 2304SOL    HW3 9247   2.215   4.171   3.844
 2304SOL    MW4 9248   2.214   4.252   3.875
 2305SOL     OW 9249   2.444   4.398   3.765
 2305SOL    HW2 9250   2.361   4.358   3.791
 2305SOL    HW3 9251   2.449   4.479   3.816
 2305SOL    MW4 9252   2.434   4.403   3.775
 2306SOL     OW 9253   2.904   4.631   3.834
 2306SOL    HW2 9254   2.895   4.641   3.929
 2306SOL    HW3 9255   2.985   4.677   3.813
 2306SOL    MW4 9256   2.913   4.638   3.844
 2307SOL     OW 9257   2.663   0.089   3.771
 2307SOL    HW2 9258   2.746   0.055   3.806
 2307SOL    HW3 9259   2.676   0.091   3.676
 2307SOL    MW4 9260   2.676   0.085   3.763
 2308SOL     OW 9261   2.671   0.346   3.861
 2308SOL    HW2 9262   2.656   0.260   3.821
 2308SOL    HW3 9263   2.586   0.391   3.854
 2308SOL    MW4 9264   2.658   0.341   3.855
 2309SOL     OW 9265   2.908   0.474   3.751
 2309SOL    HW2 9266   2.979   0.423   3.791
 2309SOL    HW3 9267   2.829   0.446   3.798
 2309SOL    MW4 9268   2.907   0.464   3.763
 2310SOL     OW 9269   2.916   0.745   3.853
 2310SOL    HW2 9270   2.999   0.791   3.838
 2310SOL    HW3 9271   2.935   0.654   3.831
 2310SOL    MW4 9272   2.929   0.739   3.848
 2311SOL     OW 9273   2.693   0.909   3.780
 2311SOL    HW2 9274   2.773   0.862   3.802
 2311SOL    HW3 9275   2.623   0.857   3.819
 2311SOL    MW4 9276   2.695   0.896   3.788
 2312SOL     OW 9277   2.693   1.153   3.898
 2312SOL    HW2 9278   2.688   1.072   3.848
 2312SOL    HW3 9279   2.615   1.202   3.873
 2312SOL    MW4 9280   2.682   1.149   3.888
 2313SOL     OW 9281   2.912   1.286   3.808
 2313SOL    HW2 9282   2.898   1.376   3.837
 2313SOL    HW3 9283   2.831   1.240   3.833
 2313SOL    MW4 9284   2.899   1.291   3.815
 2314SOL     OW 9285   2.864   1.549   3.893
 2314SOL    HW2 9286   2.882   1.544   3.987
 2314SOL    HW3 9287   2.947   1.577   3.854
 2314SOL    MW4 9288   2.877   1.552   3.900
 2315SOL     OW 9289   2.669   1.704   3.765
 2315SOL    HW2 9290   2.730   1.649   3.815
 2315SOL    HW3 9291   2.686   1.682   3.674
 2315SOL    MW4 9292   2.679   1.694   3.760
 2316SOL     OW 9293   2.643   1.945   3.921
 2316SOL    HW2 9294   2.652   1.876   3.855
 2316SOL    HW3 9295   2.562   1.990   3.899
 2316SOL    MW4 9296   2.634   1.942   3.910
 2317SOL     OW 9297   2.921   2.047   3.788
 2317SOL    HW2 9298   2.929   2.139   3.811
 2317SOL    HW3 9299   2.840   2.019   3.829
 2317SOL    MW4 9300   2.912   2.055   3.797
 2318SOL     OW 9301   2.921   2.323   3.858
 2318SOL    HW2 9302   2.911   2.308   3.953
 2318SOL    HW3 9303   3.011   2.352   3.848
 2318SOL    MW4 9304   2.931   2.324   3.869
 2319SOL     OW 9305   2.674   2.442   3.788
 2319SOL    HW2 9306   2.693   2.527   3.827
 2319SOL    HW3 9307   2.746   2.386   3.818
 2319SOL    MW4 9308   2.686   2.445   3.798
 2320SOL     OW 9309   2.707   2.705   3.890
 2320SOL    HW2 9310   2.687   2.661   3.973
 2320SOL    HW3 9311   2.631   2.761   3.874
 2320SOL    MW4 9312   2.694   2.707   3.899
 2321SOL     OW 9313   2.924   2.821   3.754
 2321SOL    HW2 9314   2.921   2.909   3.793
 2321SOL    HW3 9315   2.853   2.774   3.797
 2321SOL    MW4 9316   2.914   2.827   3.765
 2322SOL     OW 9317   2.883   3.092   3.872
 2322SOL    HW2 9318   2.959   3.148   3.861
 2322SOL    HW3 9319   2.812   3.137   3.827
 2322SOL    MW4 9320   2.884   3.105   3.865
 2323SOL     OW 9321   2.683   3.213   3.738
 2323SOL    HW2 9322   2.680   3.304   3.768
 2323SOL    HW3 9323   2.601   3.174   3.768
 2323SOL    MW4 9324   2.672   3.220   3.746
 2324SOL     OW 9325   2.644   3.467   3.852
 2324SOL    HW2 9326   2.657   3.463   3.947
 2324SOL    HW3 9327   2.710   3.530   3.822
 2324SOL    MW4 9328   2.655   3.475   3.861
 2325SOL     OW 9329   2.859   3.611   3.725
 2325SOL    HW2 9330   2.943   3.584   3.764
 2325SOL    HW3 9331   2.873   3.604   3.631
 2325SOL    MW4 9332   2.872   3.606   3.718
 2326SOL     OW 9333   2.881   3.896   3.837
 2326SOL    HW2 9334   2.892   3.892   3.932
 2326SOL    HW3 9335   2.863   3.806   3.811
 2326SOL    MW4 9336   2.880   3.884   3.846
 2327SOL     OW 9337   2.651   4.036   3.775
 2327SOL    HW2 9338   2.656   4.126   3.806
 2327SOL    HW3 9339   2.734   3.996   3.801
 2327SOL    MW4 9340   2.662   4.043   3.782
 2328SOL     OW 9341   2.652   4.278   3.889
 2328SOL    HW2 9342   2.733   4.307   3.847
 2328SOL    HW3 9343   2.583   4.328   3.845
 2328SOL    MW4 9344   2.654   4.288   3.877
 2329SOL     OW 9345   2.884   4.370   3.765
 2329SOL    HW2 9346   2.969   4.331   3.787
 2329SOL    HW3 9347   2.896   4.463   3.782
 2329SOL    MW4 9348   2.897   4.377   3.770
 2330SOL     OW 9349   3.364   4.638   3.873
 2330SOL    HW2 9350   3.369   4.664   3.965
 2330SOL    HW3 9351   3.431   4.690   3.829
 2330SOL    MW4 9352   3.373   4.648   3.879
 2331SOL     OW 9353   3.126   0.092   3.760
 2331SOL    HW2 9354   3.187   0.031   3.801
 2331SOL    HW3 9355   3.139   0.080   3.666
 2331SOL    MW4 9356   3.136   0.083   3.753
 2332SOL     OW 9357   3.127   0.349   3.857
 2332SOL    HW2 9358   3.133   0.345   3.952
 2332SOL    HW3 9359   3.127   0.258   3.829
 2332SOL    MW4 9360   3.128   0.337   3.865
 2333SOL     OW 9361   3.340   0.500   3.773
 2333SOL    HW2 9362   3.415   0.452   3.808
 2333SOL    HW3 9363   3.264   0.448   3.800
 2333SOL    MW4 9364   3.340   0.487   3.781
 2334SOL     OW 9365   3.369   0.750   3.883
 2334SOL    HW2 9366   3.340   0.742   3.974
 2334SOL    HW3 9367   3.371   0.660   3.850
 2334SOL    MW4 9368   3.365   0.737   3.891
 2335SOL     OW 9369   3.140   0.871   3.774
 2335SOL    HW2 9370   3.219   0.833   3.812
 2335SOL    HW3 9371   3.157   0.873   3.680
 2335SOL    MW4 9372   3.153   0.866   3.767
 2336SOL     OW 9373   3.122   1.138   3.916
 2336SOL    HW2 9374   3.134   1.049   3.884
 2336SOL    HW3 9375   3.043   1.169   3.873
 2336SOL    MW4 9376   3.113   1.130   3.906
 2337SOL     OW 9377   3.333   1.255   3.799
 2337SOL    HW2 9378   3.255   1.215   3.838
 2337SOL    HW3 9379   3.308   1.270   3.707
 2337SOL    MW4 9380   3.319   1.252   3.792
 2338SOL     OW 9381   3.368   1.534   3.866
 2338SOL    HW2 9382   3.283   1.579   3.862
 2338SOL    HW3 9383   3.347   1.442   3.852
 2338SOL    MW4 9384   3.354   1.528   3.864
 2339SOL     OW 9385   3.107   1.635   3.813
 2339SOL    HW2 9386   3.098   1.722   3.852
 2339SOL    HW3 9387   3.118   1.652   3.719
 2339SOL    MW4 9388   3.108   1.649   3.805
 2340SOL     OW 9389   3.113   1.891   3.909
 2340SOL    HW2 9390   3.092   1.896   4.002
 2340SOL    HW3 9391   3.041   1.937   3.865
 2340SOL    MW4 9392   3.101   1.897   3.915
 2341SOL     OW 9393   3.340   2.014   3.812
 2341SOL    HW2 9394   3.267   1.960   3.842
 2341SOL    HW3 9395   3.322   2.030   3.719
 2341SOL    MW4 9396   3.328   2.009   3.803
 2342SOL     OW 9397   3.405   2.280   3.873
 2342SOL    HW2 9398   3.329   2.332   3.847
 2342SOL    HW3 9399   3.380   2.190   3.853
 2342SOL    MW4 9400   3.391   2.275   3.867
 2343SOL     OW 9401   3.184   2.432   3.798
 2343SOL    HW2 9402   3.168   2.517   3.840
 2343SOL    HW3 9403   3.176   2.450   3.704
 2343SOL    MW4 9404   3.181   2.446   3.791
 2344SOL     OW 9405   3.136   2.686   3.866
 2344SOL    HW2 9406   3.124   2.718   3.956
 2344SOL    HW3 9407   3.061   2.719   3.818
 2344SOL    MW4 9408   3.125   2.694   3.872
 2345SOL     OW 9409   3.359   2.858   3.799
 2345SOL    HW2 9410   3.283   2.806   3.826
 2345SOL    HW3 9411   3.348   2.869   3.704
 2345SOL    MW4 9412   3.348   2.853   3.790
 2346SOL     OW 9413   3.345   3.119   3.905
 2346SOL    HW2 9414   3.420   3.168   3.871
 2346SOL    HW3 9415   3.361   3.029   3.879
 2346SOL    MW4 9416   3.357   3.114   3.897
 2347SOL     OW 9417   3.128   3.222   3.780
 2347SOL    HW2 9418   3.209   3.181   3.809
 2347SOL    HW3 9419   3.131   3.216   3.684
 2347SOL    MW4 9420   3.140   3.216   3.771
 2348SOL     OW 9421   3.089   3.493   3.859
 2348SOL    HW2 9422   3.162   3.517   3.802
 2348SOL    HW3 9423   3.082   3.398   3.849
 2348SOL    MW4 9424   3.097   3.484   3.850
 2349SOL     OW 9425   3.356   3.564   3.771
 2349SOL    HW2 9426   3.348   3.655   3.800
 2349SOL    HW3 9427   3.369   3.571   3.676
 2349SOL    MW4 9428   3.357   3.577   3.762
 2350SOL     OW 9429   3.345   3.830   3.842
 2350SOL    HW2 9430   3.415   3.889   3.812
 2350SOL    HW3 9431   3.265   3.881   3.829
 2350SOL    MW4 9432   3.344   3.845   3.836
 2351SOL     OW 9433   3.127   4.000   3.823
 2351SOL    HW2 9434   3.114   4.092   3.845
 2351SOL    HW3 9435   3.041   3.960   3.835
 2351SOL    MW4 9436   3.114   4.007   3.828
 2352SOL     OW 9437   3.121   4.269   3.860
 2352SOL    HW2 9438   3.129   4.294   3.952
 2352SOL    HW3 9439   3.198   4.308   3.818
 2352SOL    MW4 9440   3.133   4.277   3.866
 2353SOL     OW 9441   3.357   4.396   3.747
 2353SOL    HW2 9442   3.436   4.352   3.778
 2353SOL    HW3 9443   3.361   4.483   3.786
 2353SOL    MW4 9444   3.368   4.402   3.756
 2354SOL     OW 9445   3.792   4.651   3.880
 2354SOL    HW2 9446   3.874   4.694   3.855
 2354SOL    HW3 9447   3.806   4.559   3.860
 2354SOL    MW4 9448   3.805   4.645   3.874
 2355SOL     OW 9449   3.561   0.106   3.757
 2355SOL    HW2 9450   3.644   0.068   3.785
 2355SOL    HW3 9451   3.555   0.085   3.664
 2355SOL    MW4 9452   3.571   0.099   3.748
 2356SOL     OW 9453   3.589   0.378   3.842
 2356SOL    HW2 9454   3.680   0.406   3.831
 2356SOL    HW3 9455   3.583   0.297   3.792
 2356SOL    MW4 9456   3.600   0.371   3.834
 2357SOL     OW 9457   3.836   0.486   3.785
 2357SOL    HW2 9458   3.893   0.431   3.839
 2357SOL    HW3 9459   3.824   0.566   3.837
 2357SOL    MW4 9460   3.842   0.489   3.799
 2358SOL     OW 9461   3.807   0.738   3.907
 2358SOL    HW2 9462   3.890   0.768   3.871
 2358SOL    HW3 9463   3.741   0.792   3.864
 2358SOL    MW4 9464   3.809   0.749   3.897
 2359SOL     OW 9465   3.601   0.892   3.791
 2359SOL    HW2 9466   3.598   0.979   3.831
 2359SOL    HW3 9467   3.515   0.854   3.810
 2359SOL    MW4 9468   3.589   0.899   3.799
 2360SOL     OW 9469   3.576   1.152   3.882
 2360SOL    HW2 9470   3.626   1.220   3.836
 2360SOL    HW3 9471   3.488   1.188   3.889
 2360SOL    MW4 9472   3.571   1.166   3.877
 2361SOL     OW 9473   3.806   1.280   3.770
 2361SOL    HW2 9474   3.876   1.230   3.811
 2361SOL    HW3 9475   3.787   1.351   3.831
 2361SOL    MW4 9476   3.813   1.283   3.783
 2362SOL     OW 9477   3.817   1.536   3.905
 2362SOL    HW2 9478   3.806   1.515   3.997
 2362SOL    HW3 9479   3.750   1.601   3.887
 2362SOL    MW4 9480   3.807   1.542   3.915
 2363SOL     OW 9481   3.611   1.683   3.816
 2363SOL    HW2 9482   3.538   1.630   3.847
 2363SOL    HW3 9483   3.615   1.665   3.722
 2363SOL    MW4 9484   3.602   1.674   3.808
 2364SOL     OW 9485   3.592   1.935   3.915
 2364SOL    HW2 9486   3.604   1.844   3.888
 2364SOL    HW3 9487   3.502   1.956   3.891
 2364SOL    MW4 9488   3.582   1.926   3.908
 2365SOL     OW 9489   3.785   2.097   3.787
 2365SOL    HW2 9490   3.861   2.048   3.818
 2365SOL    HW3 9491   3.710   2.042   3.811
 2365SOL    MW4 9492   3.785   2.083   3.794
 2366SOL     OW 9493   3.782   2.347   3.886
 2366SOL    HW2 9494   3.691   2.367   3.863
 2366SOL    HW3 9495   3.792   2.255   3.865
 2366SOL    MW4 9496   3.771   2.338   3.880
 2367SOL     OW 9497   3.552   2.473   3.782
 2367SOL    HW2 9498   3.499   2.398   3.808
 2367SOL    HW3 9499   3.566   2.461   3.688
 2367SOL    MW4 9500   3.547   2.462   3.773
 2368SOL     OW 9501   3.575   2.714   3.941
 2368SOL    HW2 9502   3.569   2.619   3.932
 2368SOL    HW3 9503   3.504   2.749   3.887
 2368SOL    MW4 9504   3.565   2.706   3.933
 2369SOL     OW 9505   3.791   2.809   3.790
 2369SOL    HW2 9506   3.870   2.774   3.829
 2369SOL    HW3 9507   3.719   2.770   3.840
 2369SOL    MW4 9508   3.792   2.800   3.802
 2370SOL     OW 9509   3.798   3.086   3.823
 2370SOL    HW2 9510   3.706   3.110   3.811
 2370SOL    HW3 9511   3.801   2.992   3.805
 2370SOL    MW4 9512   3.786   3.077   3.819
 2371SOL     OW 9513   3.566   3.223   3.765
 2371SOL    HW2 9514   3.590   3.313   3.785
 2371SOL    HW3 9515   3.572   3.218   3.669
 2371SOL    MW4 9516   3.570   3.234   3.755
 2372SOL     OW 9517   3.604   3.499   3.863
 2372SOL    HW2 9518   3.595   3.503   3.958
 2372SOL    HW3 9519   3.514   3.502   3.831
 2372SOL    MW4 9520   3.591   3.500   3.871
 2373SOL     OW 9521   3.836   3.618   3.764
 2373SOL    HW2 9522   3.832   3.709   3.793
 2373SOL    HW3 9523   3.762   3.576   3.808
 2373SOL    MW4 9524   3.826   3.624   3.774
 2374SOL     OW 9525   3.801   3.878   3.852
 2374SOL    HW2 9526   3.802   3.871   3.947
 2374SOL    HW3 9527   3.884   3.921   3.830
 2374SOL    MW4 9528   3.812   3.883   3.862
 2375SOL     OW 9529   3.566   3.987   3.768
 2375SOL    HW2 9530   3.573   4.072   3.811
 2375SOL    HW3 9531   3.644   3.940   3.796
 2375SOL    MW4 9532   3.577   3.992   3.777
 2376SOL     OW 9533   3.580   4.267   3.886
 2376SOL    HW2 9534   3.597   4.269   3.980
 2376SOL    HW3 9535   3.651   4.318   3.847
 2376SOL    MW4 9536   3.592   4.274   3.894
 2377SOL     OW 9537   3.801   4.403   3.764
 2377SOL    HW2 9538   3.887   4.367   3.787
 2377SOL    HW3 9539   3.797   4.395   3.669
 2377SOL    MW4 9540   3.812   4.397   3.754
 2378SOL     OW 9541   4.242   4.640   3.890
 2378SOL    HW2 9542   4.236   4.625   3.984
 2378SOL    HW3 9543   4.328   4.681   3.878
 2378SOL    MW4 9544   4.253   4.643   3.900
 2379SOL     OW 9545   4.019   0.104   3.789
 2379SOL    HW2 9546   4.100   0.057   3.808
 2379SOL    HW3 9547   4.020   0.115   3.694
 2379SOL    MW4 9548   4.030   0.099   3.779
 2380SOL     OW 9549   4.040   0.357   3.908
 2380SOL    HW2 9550   4.051   0.360   4.003
 2380SOL    HW3 9551   4.020   0.266   3.889
 2380SOL    MW4 9552   4.039   0.346   3.918
 2381SOL     OW 9553   4.265   0.457   3.767
 2381SOL    HW2 9554   4.180   0.428   3.802
 2381SOL    HW3 9555   4.253   0.458   3.672
 2381SOL    MW4 9556   4.252   0.453   3.759
 2382SOL     OW 9557   4.224   0.700   3.918
 2382SOL    HW2 9558   4.139   0.738   3.895
 2382SOL    HW3 9559   4.234   0.626   3.859
 2382SOL    MW4 9560   4.214   0.696   3.908
 2383SOL     OW 9561   4.022   0.887   3.824
 2383SOL    HW2 9562   4.025   0.980   3.846
 2383SOL    HW3 9563   4.029   0.884   3.729
 2383SOL    MW4 9564   4.023   0.899   3.814
 2384SOL     OW 9565   4.004   1.148   3.894
 2384SOL    HW2 9566   4.018   1.149   3.989
 2384SOL    HW3 9567   4.085   1.183   3.857
 2384SOL    MW4 9568   4.017   1.153   3.902
 2385SOL     OW 9569   4.255   1.244   3.771
 2385SOL    HW2 9570   4.257   1.335   3.799
 2385SOL    HW3 9571   4.255   1.249   3.675
 2385SOL    MW4 9572   4.255   1.257   3.762
 2386SOL     OW 9573   4.266   1.509   3.844
 2386SOL    HW2 9574   4.187   1.560   3.822
 2386SOL    HW3 9575   4.339   1.566   3.822
 2386SOL    MW4 9576   4.265   1.523   3.838
 2387SOL     OW 9577   4.041   1.684   3.784
 2387SOL    HW2 9578   4.029   1.769   3.827
 2387SOL    HW3 9579   3.983   1.624   3.830
 2387SOL    MW4 9580   4.032   1.687   3.795
 2388SOL     OW 9581   4.009   1.933   3.870
 2388SOL    HW2 9582   4.008   1.938   3.966
 2388SOL    HW3 9583   4.092   1.975   3.845
 2388SOL    MW4 9584   4.020   1.939   3.880
 2389SOL     OW 9585   4.233   2.083   3.766
 2389SOL    HW2 9586   4.254   2.175   3.783
 2389SOL    HW3 9587   4.227   2.076   3.671
 2389SOL    MW4 9588   4.235   2.094   3.756
 2390SOL     OW 9589   4.242   2.338   3.846
 2390SOL    HW2 9590   4.240   2.311   3.937
 2390SOL    HW3 9591   4.160   2.386   3.833
 2390SOL    MW4 9592   4.231   2.341   3.856
 2391SOL     OW 9593   3.998   2.490   3.769
 2391SOL    HW2 9594   4.008   2.569   3.822
 2391SOL    HW3 9595   3.915   2.453   3.798
 2391SOL    MW4 9596   3.989   2.495   3.780
 2392SOL     OW 9597   4.016   2.731   3.918
 2392SOL    HW2 9598   4.009   2.767   4.007
 2392SOL    HW3 9599   4.094   2.772   3.881
 2392SOL    MW4 9600   4.025   2.741   3.925
 2393SOL     OW 9601   4.206   2.846   3.770
 2393SOL    HW2 9602   4.210   2.939   3.792
 2393SOL    HW3 9603   4.288   2.810   3.804
 2393SOL    MW4 9604   4.218   2.854   3.777
 2394SOL     OW 9605   4.232   3.106   3.867
 2394SOL    HW2 9606   4.160   3.139   3.813
 2394SOL    HW3 9607   4.310   3.148   3.831
 2394SOL    MW4 9608   4.233   3.116   3.855
 2395SOL     OW 9609   4.018   3.227   3.734
 2395SOL    HW2 9610   3.932   3.184   3.743
 2395SOL    HW3 9611   4.024   3.247   3.641
 2395SOL    MW4 9612   4.007   3.224   3.723
 2396SOL     OW 9613   4.043   3.465   3.860
 2396SOL    HW2 9614   4.037   3.374   3.831
 2396SOL    HW3 9615   3.963   3.506   3.826
 2396SOL    MW4 9616   4.031   3.459   3.852
 2397SOL     OW 9617   4.266   3.604   3.748
 2397SOL    HW2 9618   4.187   3.575   3.794
 2397SOL    HW3 9619   4.335   3.546   3.780
 2397SOL    MW4 9620   4.264   3.593   3.759
 2398SOL     OW 9621   4.272   3.871   3.823
 2398SOL    HW2 9622   4.180   3.899   3.824
 2398SOL    HW3 9623   4.268   3.777   3.806
 2398SOL    MW4 9624   4.259   3.862   3.821
 2399SOL     OW 9625   4.040   4.012   3.787
 2399SOL    HW2 9626   4.038   4.106   3.809
 2399SOL    HW3 9627   4.056   4.010   3.693
 2399SOL    MW4 9628   4.042   4.024   3.778
 2400SOL     OW 9629   4.046   4.305   3.851
 2400SOL    HW2 9630   4.044   4.318   3.946
 2400SOL    HW3 9631   4.135   4.330   3.826
 2400SOL    MW4 9632   4.058   4.310   3.861
 2401SOL     OW 9633   4.289   4.402   3.754
 2401SOL    HW2 9634   4.294   4.488   3.795
 2401SOL    HW3 9635   4.353   4.349   3.801
 2401SOL    MW4 9636   4.298   4.406   3.766
 2402SOL     OW 9637   0.237   4.649   4.201
 2402SOL    HW2 9638   0.324   4.668   4.235
 2402SOL    HW3 9639   0.221   4.558   4.227
 2402SOL    MW4 9640   0.246   4.640   4.209
 2403SOL     OW 9641   4.486   0.094   4.265
 2403SOL    HW2 9642   4.492   0.085   4.361
 2403SOL    HW3 9643   4.570   0.062   4.233
 2403SOL    MW4 9644   4.498   0.089   4.274
 2404SOL     OW 9645   4.481   0.361   4.206
 2404SOL    HW2 9646   4.482   0.268   4.232
 2404SOL    HW3 9647   4.481   0.358   4.111
 2404SOL    MW4 9648   4.481   0.348   4.197
 2405SOL     OW 9649   0.249   0.505   4.263
 2405SOL    HW2 9650   0.319   0.441   4.250
 2405SOL    HW3 9651   0.171   0.463   4.227
 2405SOL    MW4 9652   0.248   0.491   4.256
 2406SOL     OW 9653   0.255   0.753   4.139
 2406SOL    HW2 9654   0.183   0.784   4.193
 2406SOL    HW3 9655   0.282   0.670   4.178
 2406SOL    MW4 9656   0.249   0.746   4.151
 2407SOL     OW 9657   0.012   0.851   4.251
 2407SOL    HW2 9658  -0.074   0.817   4.225
 2407SOL    HW3 9659   0.004   0.945   4.238
 2407SOL    MW4 9660  -0.001   0.859   4.246
 2408SOL     OW 9661   4.440   1.123   4.178
 2408SOL    HW2 9662   4.511   1.173   4.218
 2408SOL    HW3 9663   4.463   1.118   4.085
 2408SOL    MW4 9664   4.452   1.129   4.171
 2409SOL     OW 9665   0.156   1.293   4.270
 2409SOL    HW2 9666   0.200   1.334   4.344
 2409SOL    HW3 9667   0.226   1.248   4.222
 2409SOL    MW4 9668   0.171   1.292   4.274
 2410SOL     OW 9669   4.449   1.727   4.542
 2410SOL    HW2 9670   4.448   1.702   4.450
 2410SOL    HW3 9671   4.391   1.803   4.547
 2410SOL    MW4 9672   4.441   1.734   4.531
 2411SOL     OW 9673   4.469   1.687   4.243
 2411SOL    HW2 9674   4.389   1.640   4.220
 2411SOL    HW3 9675   4.460   1.772   4.202
 2411SOL    MW4 9676   4.457   1.692   4.235
 2412SOL     OW 9677   0.179   2.072   4.211
 2412SOL    HW2 9678   0.191   2.091   4.304
 2412SOL    HW3 9679   0.261   2.032   4.184
 2412SOL    MW4 9680   0.191   2.069   4.220
 2413SOL     OW 9681   0.664   1.604   4.660
 2413SOL    HW2 9682   0.612   1.632   4.585
 2413SOL    HW3 9683   0.698   1.686   4.697
 2413SOL    MW4 9684   0.662   1.618   4.655
 2414SOL     OW 9685   0.160   2.323   4.108
 2414SOL    HW2 9686   0.236   2.367   4.148
 2414SOL    HW3 9687   0.167   2.233   4.138
 2414SOL    MW4 9688   0.171   2.317   4.117
 2415SOL     OW 9689   4.448   2.459   4.211
 2415SOL    HW2 9690   4.363   2.426   4.182
 2415SOL    HW3 9691   4.512   2.404   4.164
 2415SOL    MW4 9692   4.445   2.447   4.201
 2416SOL     OW 9693   4.426   2.732   4.182
 2416SOL    HW2 9694   4.519   2.757   4.192
 2416SOL    HW3 9695   4.428   2.637   4.179
 2416SOL    MW4 9696   4.439   2.723   4.183
 2417SOL     OW 9697   0.178   2.870   4.225
 2417SOL    HW2 9698   0.255   2.814   4.211
 2417SOL    HW3 9699   0.196   2.948   4.174
 2417SOL    MW4 9700   0.191   2.873   4.217
 2418SOL     OW 9701   0.188   3.137   4.099
 2418SOL    HW2 9702   0.256   3.186   4.145
 2418SOL    HW3 9703   0.108   3.185   4.118
 2418SOL    MW4 9704   0.187   3.150   4.108
 2419SOL     OW 9705   4.474   3.251   4.247
 2419SOL    HW2 9706   4.394   3.214   4.211
 2419SOL    HW3 9707   4.477   3.340   4.212
 2419SOL    MW4 9708   4.464   3.258   4.238
 2420SOL     OW 9709   0.017   3.496   4.146
 2420SOL    HW2 9710  -0.052   3.556   4.175
 2420SOL    HW3 9711   0.006   3.491   4.051
 2420SOL    MW4 9712   0.007   3.503   4.138
 2421SOL     OW 9713   0.247   3.590   4.253
 2421SOL    HW2 9714   0.329   3.546   4.229
 2421SOL    HW3 9715   0.178   3.537   4.212
 2421SOL    MW4 9716   0.249   3.577   4.245
 2422SOL     OW 9717   0.258   3.825   4.109
 2422SOL    HW2 9718   0.178   3.867   4.141
 2422SOL    HW3 9719   0.262   3.741   4.155
 2422SOL    MW4 9720   0.248   3.819   4.119
 2423SOL     OW 9721   0.026   3.985   4.202
 2423SOL    HW2 9722   0.021   3.984   4.298
 2423SOL    HW3 9723  -0.065   3.969   4.173
 2423SOL    MW4 9724   0.013   3.983   4.211
 2424SOL     OW 9725   0.035   4.263   4.183
 2424SOL    HW2 9726   0.049   4.168   4.186
 2424SOL    HW3 9727   0.040   4.285   4.090
 2424SOL    MW4 9728   0.037   4.254   4.171
 2425SOL     OW 9729   0.241   4.397   4.282
 2425SOL    HW2 9730   0.226   4.420   4.374
 2425SOL    HW3 9731   0.164   4.344   4.258
 2425SOL    MW4 9732   0.229   4.393   4.291
 2426SOL     OW 9733   0.724   4.612   4.199
 2426SOL    HW2 9734   0.643   4.649   4.236
 2426SOL    HW3 9735   0.714   4.620   4.105
 2426SOL    MW4 9736   0.712   4.618   4.192
 2427SOL     OW 9737   0.503   0.066   4.299
 2427SOL    HW2 9738   0.493   0.044   4.392
 2427SOL    HW3 9739   0.484   0.159   4.294
 2427SOL    MW4 9740   0.499   0.075   4.311
 2428SOL     OW 9741   0.468   0.343   4.211
 2428SOL    HW2 9742   0.522   0.417   4.236
 2428SOL    HW3 9743   0.461   0.350   4.116
 2428SOL    MW4 9744   0.474   0.353   4.202
 2429SOL     OW 9745   0.648   0.544   4.275
 2429SOL    HW2 9746   0.734   0.505   4.259
 2429SOL    HW3 9747   0.652   0.630   4.233
 2429SOL    MW4 9748   0.660   0.550   4.268
 2430SOL     OW 9749   0.659   0.794   4.165
 2430SOL    HW2 9750   0.594   0.849   4.209
 2430SOL    HW3 9751   0.622   0.777   4.079
 2430SOL    MW4 9752   0.645   0.799   4.160
 2431SOL     OW 9753   0.446   0.936   4.253
 2431SOL    HW2 9754   0.429   1.024   4.220
 2431SOL    HW3 9755   0.367   0.886   4.231
 2431SOL    MW4 9756   0.433   0.941   4.246
 2432SOL     OW 9757   0.397   1.184   4.170
 2432SOL    HW2 9758   0.484   1.220   4.188
 2432SOL    HW3 9759   0.397   1.165   4.076
 2432SOL    MW4 9760   0.408   1.186   4.160
 2433SOL     OW 9761   0.642   1.275   4.274
 2433SOL    HW2 9762   0.633   1.290   4.369
 2433SOL    HW3 9763   0.644   1.363   4.236
 2433SOL    MW4 9764   0.641   1.289   4.282
 2434SOL     OW 9765   0.644   1.530   4.161
 2434SOL    HW2 9766   0.731   1.552   4.194
 2434SOL    HW3 9767   0.651   1.538   4.066
 2434SOL    MW4 9768   0.656   1.534   4.153
 2435SOL     OW 9769   0.197   1.536   4.148
 2435SOL    HW2 9770   0.183   1.453   4.194
 2435SOL    HW3 9771   0.122   1.590   4.172
 2435SOL    MW4 9772   0.185   1.532   4.157
 2436SOL     OW 9773   0.439   1.970   4.135
 2436SOL    HW2 9774   0.447   1.886   4.179
 2436SOL    HW3 9775   0.458   1.951   4.043
 2436SOL    MW4 9776   0.443   1.957   4.128
 2437SOL     OW 9777   0.680   2.078   4.262
 2437SOL    HW2 9778   0.674   2.103   4.354
 2437SOL    HW3 9779   0.590   2.063   4.235
 2437SOL    MW4 9780   0.667   2.079   4.270
 2438SOL     OW 9781   0.659   2.327   4.122
 2438SOL    HW2 9782   0.672   2.246   4.172
 2438SOL    HW3 9783   0.671   2.301   4.031
 2438SOL    MW4 9784   0.662   2.313   4.117
 2439SOL     OW 9785   0.400   2.409   4.244
 2439SOL    HW2 9786   0.386   2.503   4.233
 2439SOL    HW3 9787   0.489   2.393   4.210
 2439SOL    MW4 9788   0.410   2.419   4.238
 2440SOL     OW 9789   0.369   2.689   4.173
 2440SOL    HW2 9790   0.447   2.739   4.197
 2440SOL    HW3 9791   0.383   2.668   4.080
 2440SOL    MW4 9792   0.381   2.693   4.164
 2441SOL     OW 9793   0.647   2.833   4.218
 2441SOL    HW2 9794   0.677   2.849   4.307
 2441SOL    HW3 9795   0.645   2.919   4.177
 2441SOL    MW4 9796   0.651   2.846   4.224
 2442SOL     OW 9797   0.619   3.101   4.123
 2442SOL    HW2 9798   0.697   3.135   4.166
 2442SOL    HW3 9799   0.546   3.143   4.170
 2442SOL    MW4 9800   0.619   3.111   4.135
 2443SOL     OW 9801   0.408   3.244   4.232
 2443SOL    HW2 9802   0.394   3.250   4.327
 2443SOL    HW3 9803   0.436   3.332   4.206
 2443SOL    MW4 9804   0.410   3.256   4.241
 2444SOL     OW 9805   0.476   3.503   4.159
 2444SOL    HW2 9806   0.559   3.535   4.193
 2444SOL    HW3 9807   0.470   3.539   4.071
 2444SOL    MW4 9808   0.486   3.512   4.152
 2445SOL     OW 9809   0.722   3.610   4.206
 2445SOL    HW2 9810   0.736   3.646   4.293
 2445SOL    HW3 9811   0.805   3.567   4.184
 2445SOL    MW4 9812   0.735   3.609   4.214
 2446SOL     OW 9813   0.710   3.850   4.080
 2446SOL    HW2 9814   0.632   3.891   4.116
 2446SOL    HW3 9815   0.711   3.762   4.118
 2446SOL    MW4 9816   0.700   3.844   4.089
 2447SOL     OW 9817   0.482   3.965   4.172
 2447SOL    HW2 9818   0.469   4.057   4.148
 2447SOL    HW3 9819   0.400   3.922   4.150
 2447SOL    MW4 9820   0.470   3.972   4.166
 2448SOL     OW 9821   0.424   4.248   4.149
 2448SOL    HW2 9822   0.361   4.307   4.191
 2448SOL    HW3 9823   0.412   4.264   4.056
 2448SOL    MW4 9824   0.414   4.258   4.143
 2449SOL     OW 9825   0.686   4.315   4.213
 2449SOL    HW2 9826   0.594   4.299   4.194
 2449SOL    HW3 9827   0.701   4.406   4.187
 2449SOL    MW4 9828   0.676   4.325   4.207
 2450SOL     OW 9829   1.105   0.001   4.137
 2450SOL    HW2 9830   1.088  -0.089   4.167
 2450SOL    HW3 9831   1.105  -0.006   4.041
 2450SOL    MW4 9832   1.103  -0.012   4.128
 2451SOL     OW 9833   0.889   0.165   4.253
 2451SOL    HW2 9834   0.968   0.133   4.210
 2451SOL    HW3 9835   0.829   0.090   4.250
 2451SOL    MW4 9836   0.891   0.151   4.247
 2452SOL     OW 9837   0.902   0.419   4.173
 2452SOL    HW2 9838   0.970   0.454   4.230
 2452SOL    HW3 9839   0.884   0.332   4.208
 2452SOL    MW4 9840   0.908   0.412   4.185
 2453SOL     OW 9841   1.125   0.499   4.318
 2453SOL    HW2 9842   1.134   0.512   4.413
 2453SOL    HW3 9843   1.200   0.445   4.294
 2453SOL    MW4 9844   1.136   0.493   4.328
 2454SOL     OW 9845   1.104   0.753   4.192
 2454SOL    HW2 9846   1.187   0.787   4.225
 2454SOL    HW3 9847   1.098   0.665   4.229
 2454SOL    MW4 9848   1.114   0.746   4.202
 2455SOL     OW 9849   0.888   0.885   4.298
 2455SOL    HW2 9850   0.967   0.840   4.269
 2455SOL    HW3 9851   0.818   0.846   4.245
 2455SOL    MW4 9852   0.889   0.874   4.287
 2456SOL     OW 9853   0.868   1.145   4.179
 2456SOL    HW2 9854   0.873   1.056   4.215
 2456SOL    HW3 9855   0.807   1.191   4.238
 2456SOL    MW4 9856   0.860   1.139   4.192
 2457SOL     OW 9857   1.118   1.231   4.254
 2457SOL    HW2 9858   1.103   1.274   4.338
 2457SOL    HW3 9859   1.031   1.213   4.220
 2457SOL    MW4 9860   1.105   1.235   4.260
 2458SOL     OW 9861   1.128   1.502   4.197
 2458SOL    HW2 9862   1.041   1.536   4.216
 2458SOL    HW3 9863   1.123   1.409   4.219
 2458SOL    MW4 9864   1.116   1.494   4.202
 2459SOL     OW 9865   0.899   1.630   4.246
 2459SOL    HW2 9866   0.908   1.636   4.341
 2459SOL    HW3 9867   0.904   1.721   4.216
 2459SOL    MW4 9868   0.901   1.643   4.255
 2460SOL     OW 9869   0.909   1.895   4.131
 2460SOL    HW2 9870   0.835   1.949   4.158
 2460SOL    HW3 9871   0.903   1.893   4.035
 2460SOL    MW4 9872   0.899   1.902   4.122
 2461SOL     OW 9873   1.108   2.055   4.232
 2461SOL    HW2 9874   1.100   2.028   4.323
 2461SOL    HW3 9875   1.037   2.008   4.187
 2461SOL    MW4 9876   1.097   2.045   4.238
 2462SOL     OW 9877   1.099   2.312   4.151
 2462SOL    HW2 9878   1.174   2.350   4.196
 2462SOL    HW3 9879   1.083   2.229   4.197
 2462SOL    MW4 9880   1.107   2.306   4.163
 2463SOL     OW 9881   0.868   2.473   4.187
 2463SOL    HW2 9882   0.933   2.403   4.177
 2463SOL    HW3 9883   0.788   2.437   4.149
 2463SOL    MW4 9884   0.866   2.459   4.181
 2464SOL     OW 9885   0.867   2.730   4.086
 2464SOL    HW2 9886   0.868   2.639   4.117
 2464SOL    HW3 9887   0.795   2.770   4.134
 2464SOL    MW4 9888   0.857   2.723   4.096
 2465SOL     OW 9889   1.065   2.843   4.246
 2465SOL    HW2 9890   1.066   2.934   4.219
 2465SOL    HW3 9891   0.995   2.803   4.193
 2465SOL    MW4 9892   1.056   2.849   4.235
 2466SOL     OW 9893   1.089   3.116   4.162
 2466SOL    HW2 9894   1.180   3.142   4.179
 2466SOL    HW3 9895   1.073   3.140   4.071
 2466SOL    MW4 9896   1.099   3.123   4.152
 2467SOL     OW 9897   0.830   3.227   4.253
 2467SOL    HW2 9898   0.793   3.228   4.341
 2467SOL    HW3 9899   0.924   3.211   4.266
 2467SOL    MW4 9900   0.838   3.225   4.266
 2468SOL     OW 9901   0.944   3.439   4.134
 2468SOL    HW2 9902   0.882   3.379   4.176
 2468SOL    HW3 9903   0.939   3.418   4.041
 2468SOL    MW4 9904   0.935   3.428   4.128
 2469SOL     OW 9905   1.151   3.602   4.255
 2469SOL    HW2 9906   1.154   3.676   4.194
 2469SOL    HW3 9907   1.076   3.550   4.227
 2469SOL    MW4 9908   1.142   3.605   4.243
 2470SOL     OW 9909   1.129   3.813   4.091
 2470SOL    HW2 9910   1.215   3.853   4.099
 2470SOL    HW3 9911   1.069   3.877   4.127
 2470SOL    MW4 9912   1.133   3.827   4.097
 2471SOL     OW 9913   0.927   3.957   4.219
 2471SOL    HW2 9914   0.926   4.045   4.181
 2471SOL    HW3 9915   0.860   3.909   4.171
 2471SOL    MW4 9916   0.918   3.963   4.208
 2472SOL     OW 9917   0.914   4.235   4.097
 2472SOL    HW2 9918   0.986   4.289   4.131
 2472SOL    HW3 9919   0.842   4.249   4.159
 2472SOL    MW4 9920   0.914   4.244   4.110
 2473SOL     OW 9921   1.115   4.395   4.196
 2473SOL    HW2 9922   1.111   4.387   4.292
 2473SOL    HW3 9923   1.198   4.353   4.173
 2473SOL    MW4 9924   1.126   4.388   4.206
 2474SOL     OW 9925   1.555   4.638   4.142
 2474SOL    HW2 9926   1.631   4.688   4.172
 2474SOL    HW3 9927   1.480   4.686   4.178
 2474SOL    MW4 9928   1.555   4.651   4.151
 2475SOL     OW 9929   1.343   0.088   4.249
 2475SOL    HW2 9930   1.333   0.067   4.342
 2475SOL    HW3 9931   1.263   0.054   4.209
 2475SOL    MW4 9932   1.331   0.081   4.256
 2476SOL     OW 9933   1.346   0.373   4.194
 2476SOL    HW2 9934   1.429   0.415   4.219
 2476SOL    HW3 9935   1.356   0.282   4.221
 2476SOL    MW4 9936   1.358   0.367   4.201
 2477SOL     OW 9937   1.563   0.506   4.342
 2477SOL    HW2 9938   1.510   0.506   4.421
 2477SOL    HW3 9939   1.538   0.586   4.296
 2477SOL    MW4 9940   1.553   0.517   4.346
 2478SOL     OW 9941   1.566   0.727   4.176
 2478SOL    HW2 9942   1.650   0.768   4.195
 2478SOL    HW3 9943   1.561   0.724   4.081
 2478SOL    MW4 9944   1.576   0.732   4.166
 2479SOL     OW 9945   1.345   0.837   4.298
 2479SOL    HW2 9946   1.347   0.925   4.261
 2479SOL    HW3 9947   1.410   0.788   4.247
 2479SOL    MW4 9948   1.354   0.842   4.287
 2480SOL     OW 9949   1.350   1.101   4.210
 2480SOL    HW2 9950   1.270   1.144   4.239
 2480SOL    HW3 9951   1.349   1.110   4.114
 2480SOL    MW4 9952   1.340   1.108   4.201
 2481SOL     OW 9953   1.546   1.261   4.282
 2481SOL    HW2 9954   1.539   1.258   4.377
 2481SOL    HW3 9955   1.474   1.206   4.250
 2481SOL    MW4 9956   1.536   1.253   4.290
 2482SOL     OW 9957   1.552   1.518   4.181
 2482SOL    HW2 9958   1.487   1.558   4.239
 2482SOL    HW3 9959   1.567   1.431   4.218
 2482SOL    MW4 9960   1.545   1.512   4.194
 2483SOL     OW 9961   1.332   1.659   4.311
 2483SOL    HW2 9962   1.341   1.735   4.254
 2483SOL    HW3 9963   1.255   1.613   4.277
 2483SOL    MW4 9964   1.323   1.663   4.299
 2484SOL     OW 9965   1.351   1.915   4.169
 2484SOL    HW2 9966   1.424   1.960   4.212
 2484SOL    HW3 9967   1.274   1.970   4.187
 2484SOL    MW4 9968   1.350   1.928   4.177
 2485SOL     OW 9969   1.582   2.084   4.214
 2485SOL    HW2 9970   1.624   2.083   4.300
 2485SOL    HW3 9971   1.544   2.171   4.207
 2485SOL    MW4 9972   1.583   2.095   4.224
 2486SOL     OW 9973   1.516   2.347   4.144
 2486SOL    HW2 9974   1.589   2.404   4.166
 2486SOL    HW3 9975   1.534   2.319   4.054
 2486SOL    MW4 9976   1.528   2.351   4.135
 2487SOL     OW 9977   1.508   2.762   4.355
 2487SOL    HW2 9978   1.497   2.855   4.374
 2487SOL    HW3 9979   1.603   2.749   4.354
 2487SOL    MW4 9980   1.520   2.772   4.357
 2488SOL     OW 9981   1.302   2.706   4.184
 2488SOL    HW2 9982   1.377   2.746   4.229
 2488SOL    HW3 9983   1.227   2.761   4.210
 2488SOL    MW4 9984   1.302   2.719   4.193
 2489SOL     OW 9985   1.483   2.609   4.578
 2489SOL    HW2 9986   1.571   2.623   4.612
 2489SOL    HW3 9987   1.475   2.670   4.504
 2489SOL    MW4 9988   1.493   2.619   4.573
 2490SOL     OW 9989   1.579   3.041   4.164
 2490SOL    HW2 9990   1.638   3.109   4.197
 2490SOL    HW3 9991   1.631   2.960   4.167
 2490SOL    MW4 9992   1.594   3.039   4.168
 2491SOL     OW 9993   1.363   3.202   4.231
 2491SOL    HW2 9994   1.437   3.142   4.219
 2491SOL    HW3 9995   1.388   3.281   4.185
 2491SOL    MW4 9996   1.376   3.204   4.224
 2492SOL     OW 9997   1.363   3.458   4.143
 2492SOL    HW2 9998   1.293   3.502   4.190
 2492SOL    HW3 9999   1.345   3.475   4.051
 2492SOL    MW410000   1.351   3.466   4.137
 2493SOL     OW10001   1.569   3.631   4.207
 2493SOL    HW210002   1.562   3.644   4.302
 2493SOL    HW310003   1.491   3.580   4.184
 2493SOL    MW410004   1.558   3.626   4.216
 2494SOL     OW10005   1.577   3.909   4.130
 2494SOL    HW210006   1.495   3.947   4.160
 2494SOL    HW310007   1.576   3.819   4.160
 2494SOL    MW410008   1.566   3.902   4.138
 2495SOL     OW10009   1.334   4.002   4.169
 2495SOL    HW210010   1.315   4.001   4.263
 2495SOL    HW310011   1.350   4.094   4.149
 2495SOL    MW410012   1.333   4.014   4.179
 2496SOL     OW10013   1.329   4.269   4.120
 2496SOL    HW210014   1.401   4.325   4.151
 2496SOL    HW310015   1.344   4.262   4.026
 2496SOL    MW410016   1.341   4.276   4.112
 2497SOL     OW10017   1.540   4.385   4.235
 2497SOL    HW210018   1.544   4.479   4.221
 2497SOL    HW310019   1.612   4.349   4.183
 2497SOL    MW410020   1.550   4.393   4.226
 2498SOL     OW10021   2.038   4.637   4.150
 2498SOL    HW210022   1.948   4.671   4.151
 2498SOL    HW310023   2.062   4.636   4.057
 2498SOL    MW410024   2.029   4.641   4.138
 2499SOL     OW10025   1.786   0.113   4.220
 2499SOL    HW210026   1.834   0.116   4.302
 2499SOL    HW310027   1.771   0.205   4.198
 2499SOL    MW410028   1.790   0.126   4.228
 2500SOL     OW10029   1.743   0.372   4.160
 2500SOL    HW210030   1.825   0.415   4.183
 2500SOL    HW310031   1.679   0.409   4.222
 2500SOL    MW410032   1.745   0.383   4.171
 2501SOL     OW10033   1.964   0.510   4.235
 2501SOL    HW210034   1.934   0.543   4.319
 2501SOL    HW310035   2.054   0.483   4.251
 2501SOL    MW410036   1.972   0.511   4.248
 2502SOL     OW10037   2.024   0.774   4.121
 2502SOL    HW210038   2.100   0.810   4.166
 2502SOL    HW310039   2.015   0.686   4.156
 2502SOL    MW410040   2.033   0.767   4.131
 2503SOL     OW10041   1.803   0.857   4.236
 2503SOL    HW210042   1.782   0.949   4.217
 2503SOL    HW310043   1.889   0.844   4.196
 2503SOL    MW410044   1.812   0.868   4.229
 2504SOL     OW10045   1.759   1.122   4.196
 2504SOL    HW210046   1.826   1.172   4.242
 2504SOL    HW310047   1.677   1.163   4.221
 2504SOL    MW410048   1.757   1.134   4.206
 2505SOL     OW10049   1.988   1.283   4.280
 2505SOL    HW210050   2.044   1.251   4.209
 2505SOL    HW310051   1.965   1.372   4.253
 2505SOL    MW410052   1.992   1.291   4.267
 2506SOL     OW10053   1.970   1.551   4.157
 2506SOL    HW210054   2.041   1.611   4.180
 2506SOL    HW310055   1.967   1.552   4.062
 2506SOL    MW410056   1.979   1.559   4.148
 2507SOL     OW10057   1.758   1.697   4.230
 2507SOL    HW210058   1.841   1.649   4.224
 2507SOL    HW310059   1.692   1.634   4.200
 2507SOL    MW410060   1.760   1.682   4.225
 2508SOL     OW10061   1.800   1.950   4.121
 2508SOL    HW210062   1.791   1.871   4.174
 2508SOL    HW310063   1.720   2.000   4.139
 2508SOL    MW410064   1.788   1.946   4.130
 2509SOL     OW10065   1.714   2.495   4.225
 2509SOL    HW210066   1.803   2.512   4.195
 2509SOL    HW310067   1.725   2.447   4.308
 2509SOL    MW410068   1.727   2.491   4.232
 2510SOL     OW10069   2.112   2.389   4.129
 2510SOL    HW210070   2.114   2.303   4.172
 2510SOL    HW310071   2.086   2.369   4.039
 2510SOL    MW410072   2.109   2.375   4.123
 2511SOL     OW10073   1.810   2.772   4.380
 2511SOL    HW210074   1.860   2.709   4.329
 2511SOL    HW310075   1.875   2.834   4.413
 2511SOL    MW410076   1.825   2.772   4.378
 2512SOL     OW10077   1.779   2.856   4.127
 2512SOL    HW210078   1.799   2.834   4.218
 2512SOL    HW310079   1.860   2.893   4.093
 2512SOL    MW410080   1.792   2.858   4.135
 2513SOL     OW10081   1.979   3.102   4.280
 2513SOL    HW210082   1.996   3.031   4.342
 2513SOL    HW310083   1.983   3.061   4.194
 2513SOL    MW410084   1.982   3.088   4.276
 2514SOL     OW10085   2.277   2.836   4.099
 2514SOL    HW210086   2.369   2.847   4.126
 2514SOL    HW310087   2.232   2.814   4.180
 2514SOL    MW410088   2.283   2.834   4.113
 2515SOL     OW10089   1.747   3.258   4.246
 2515SOL    HW210090   1.767   3.350   4.230
 2515SOL    HW310091   1.832   3.218   4.267
 2515SOL    MW410092   1.761   3.265   4.247
 2516SOL     OW10093   1.824   3.525   4.133
 2516SOL    HW210094   1.741   3.571   4.145
 2516SOL    HW310095   1.833   3.516   4.038
 2516SOL    MW410096   1.814   3.530   4.122
 2517SOL     OW10097   2.050   3.626   4.256
 2517SOL    HW210098   2.046   3.719   4.236
 2517SOL    HW310099   1.967   3.591   4.224
 2517SOL    MW410100   2.038   3.633   4.249
 2518SOL     OW10101   2.026   3.899   4.188
 2518SOL    HW210102   1.942   3.939   4.209
 2518SOL    HW310103   2.026   3.891   4.093
 2518SOL    MW410104   2.015   3.903   4.178
 2519SOL     OW10105   1.792   4.027   4.230
 2519SOL    HW210106   1.784   4.110   4.182
 2519SOL    HW310107   1.715   3.977   4.204
 2519SOL    MW410108   1.781   4.031   4.220
 2520SOL     OW10109   1.757   4.283   4.126
 2520SOL    HW210110   1.840   4.322   4.152
 2520SOL    HW310111   1.762   4.275   4.031
 2520SOL    MW410112   1.768   4.287   4.117
 2521SOL     OW10113   1.994   4.376   4.210
 2521SOL    HW210114   2.008   4.365   4.304
 2521SOL    HW310115   2.021   4.466   4.192
 2521SOL    MW410116   1.999   4.387   4.220
 2522SOL     OW10117   2.445   0.008   4.232
 2522SOL    HW210118   2.534   0.038   4.250
 2522SOL    HW310119   2.447  -0.087   4.248
 2522SOL    MW410120   2.457  -0.001   4.236
 2523SOL     OW10121   2.203   0.137   4.325
 2523SOL    HW210122   2.290   0.105   4.301
 2523SOL    HW310123   2.143   0.089   4.268
 2523SOL    MW410124   2.207   0.126   4.314
 2524SOL     OW10125   2.208   0.392   4.189
 2524SOL    HW210126   2.206   0.311   4.240
 2524SOL    HW310127   2.206   0.362   4.098
 2524SOL    MW410128   2.208   0.377   4.184
 2525SOL     OW10129   2.464   0.484   4.236
 2525SOL    HW210130   2.466   0.477   4.332
 2525SOL    HW310131   2.374   0.461   4.213
 2525SOL    MW410132   2.452   0.480   4.246
 2526SOL     OW10133   2.468   0.770   4.183
 2526SOL    HW210134   2.463   0.677   4.205
 2526SOL    HW310135   2.475   0.772   4.087
 2526SOL    MW410136   2.468   0.758   4.173
 2527SOL     OW10137   2.231   0.911   4.233
 2527SOL    HW210138   2.218   0.917   4.328
 2527SOL    HW310139   2.320   0.876   4.223
 2527SOL    MW410140   2.241   0.907   4.244
 2528SOL     OW10141   2.194   1.165   4.132
 2528SOL    HW210142   2.268   1.210   4.172
 2528SOL    HW310143   2.198   1.076   4.168
 2528SOL    MW410144   2.204   1.159   4.142
 2529SOL     OW10145   2.441   1.273   4.223
 2529SOL    HW210146   2.436   1.285   4.317
 2529SOL    HW310147   2.520   1.220   4.210
 2529SOL    MW410148   2.451   1.267   4.233
 2530SOL     OW10149   2.449   1.538   4.157
 2530SOL    HW210150   2.452   1.446   4.184
 2530SOL    HW310151   2.436   1.535   4.062
 2530SOL    MW410152   2.448   1.525   4.148
 2531SOL     OW10153   2.172   1.697   4.252
 2531SOL    HW210154   2.254   1.656   4.223
 2531SOL    HW310155   2.186   1.791   4.237
 2531SOL    MW410156   2.185   1.704   4.246
 2532SOL     OW10157   2.190   1.966   4.209
 2532SOL    HW210158   2.253   2.005   4.270
 2532SOL    HW310159   2.113   2.022   4.216
 2532SOL    MW410160   2.188   1.979   4.218
 2533SOL     OW10161   2.406   2.013   4.389
 2533SOL    HW210162   2.377   1.942   4.445
 2533SOL    HW310163   2.468   1.973   4.328
 2533SOL    MW410164   2.410   1.999   4.388
 2534SOL     OW10165   2.447   2.438   4.225
 2534SOL    HW210166   2.477   2.364   4.278
 2534SOL    HW310167   2.426   2.401   4.140
 2534SOL    MW410168   2.448   2.424   4.221
 2535SOL     OW10169   2.422   2.428   4.561
 2535SOL    HW210170   2.350   2.464   4.509
 2535SOL    HW310171   2.478   2.504   4.580
 2535SOL    MW410172   2.420   2.443   4.557
 2536SOL     OW10173   1.975   2.624   4.218
 2536SOL    HW210174   2.042   2.682   4.253
 2536SOL    HW310175   2.022   2.543   4.196
 2536SOL    MW410176   1.990   2.621   4.219
 2537SOL     OW10177   2.455   2.720   4.335
 2537SOL    HW210178   2.433   2.634   4.300
 2537SOL    HW310179   2.374   2.752   4.374
 2537SOL    MW410180   2.441   2.713   4.336
 2538SOL     OW10181   2.527   3.180   4.108
 2538SOL    HW210182   2.604   3.218   4.151
 2538SOL    HW310183   2.470   3.154   4.180
 2538SOL    MW410184   2.530   3.182   4.123
 2539SOL     OW10185   2.035   2.977   4.039
 2539SOL    HW210186   2.038   3.038   3.966
 2539SOL    HW310187   2.121   2.935   4.039
 2539SOL    MW410188   2.047   2.979   4.029
 2540SOL     OW10189   2.260   3.495   4.148
 2540SOL    HW210190   2.257   3.417   4.204
 2540SOL    HW310191   2.188   3.549   4.179
 2540SOL    MW410192   2.250   3.492   4.160
 2541SOL     OW10193   2.480   3.607   4.271
 2541SOL    HW210194   2.404   3.569   4.227
 2541SOL    HW310195   2.479   3.699   4.244
 2541SOL    MW410196   2.469   3.615   4.261
 2542SOL     OW10197   2.474   3.873   4.175
 2542SOL    HW210198   2.542   3.935   4.200
 2542SOL    HW310199   2.477   3.871   4.079
 2542SOL    MW410200   2.483   3.881   4.166
 2543SOL     OW10201   2.262   4.005   4.271
 2543SOL    HW210202   2.338   3.957   4.239
 2543SOL    HW310203   2.187   3.951   4.245
 2543SOL    MW410204   2.262   3.992   4.263
 2544SOL     OW10205   2.235   4.263   4.137
 2544SOL    HW210206   2.248   4.175   4.173
 2544SOL    HW310207   2.156   4.295   4.179
 2544SOL    MW410208   2.226   4.255   4.147
 2545SOL     OW10209   2.436   4.385   4.285
 2545SOL    HW210210   2.523   4.361   4.252
 2545SOL    HW310211   2.375   4.346   4.222
 2545SOL    MW410212   2.439   4.377   4.272
 2546SOL     OW10213   2.893   4.631   4.120
 2546SOL    HW210214   2.948   4.683   4.179
 2546SOL    HW310215   2.894   4.543   4.157
 2546SOL    MW410216   2.900   4.626   4.133
 2547SOL     OW10217   2.695   0.093   4.269
 2547SOL    HW210218   2.710   0.182   4.239
 2547SOL    HW310219   2.750   0.038   4.214
 2547SOL    MW410220   2.704   0.097   4.258
 2548SOL     OW10221   2.688   0.346   4.164
 2548SOL    HW210222   2.606   0.389   4.185
 2548SOL    HW310223   2.686   0.334   4.069
 2548SOL    MW410224   2.677   0.350   4.155
 2549SOL     OW10225   2.921   0.470   4.243
 2549SOL    HW210226   2.918   0.551   4.192
 2549SOL    HW310227   2.833   0.435   4.237
 2549SOL    MW410228   2.909   0.476   4.235
 2550SOL     OW10229   2.886   0.721   4.130
 2550SOL    HW210230   2.956   0.780   4.155
 2550SOL    HW310231   2.895   0.711   4.035
 2550SOL    MW410232   2.896   0.727   4.121
 2551SOL     OW10233   2.714   0.885   4.286
 2551SOL    HW210234   2.770   0.827   4.235
 2551SOL    HW310235   2.628   0.844   4.284
 2551SOL    MW410236   2.710   0.872   4.279
 2552SOL     OW10237   2.716   1.162   4.185
 2552SOL    HW210238   2.713   1.070   4.211
 2552SOL    HW310239   2.721   1.160   4.090
 2552SOL    MW410240   2.716   1.150   4.176
 2553SOL     OW10241   2.920   1.293   4.291
 2553SOL    HW210242   2.997   1.241   4.271
 2553SOL    HW310243   2.846   1.242   4.258
 2553SOL    MW410244   2.921   1.280   4.284
 2554SOL     OW10245   2.897   1.551   4.169
 2554SOL    HW210246   2.980   1.585   4.203
 2554SOL    HW310247   2.885   1.467   4.215
 2554SOL    MW410248   2.906   1.544   4.180
 2555SOL     OW10249   2.667   1.674   4.254
 2555SOL    HW210250   2.744   1.640   4.209
 2555SOL    HW310251   2.595   1.621   4.220
 2555SOL    MW410252   2.668   1.662   4.244
 2556SOL     OW10253   2.612   1.934   4.202
 2556SOL    HW210254   2.613   1.839   4.215
 2556SOL    HW310255   2.619   1.945   4.107
 2556SOL    MW410256   2.613   1.923   4.191
 2557SOL     OW10257   2.844   2.077   4.245
 2557SOL    HW210258   2.842   2.166   4.210
 2557SOL    HW310259   2.755   2.043   4.230
 2557SOL    MW410260   2.832   2.084   4.238
 2558SOL     OW10261   2.857   2.326   4.126
 2558SOL    HW210262   2.934   2.358   4.172
 2558SOL    HW310263   2.794   2.398   4.132
 2558SOL    MW410264   2.859   2.340   4.133
 2559SOL     OW10265   2.677   2.553   4.131
 2559SOL    HW210266   2.596   2.513   4.163
 2559SOL    HW310267   2.708   2.606   4.205
 2559SOL    MW410268   2.670   2.555   4.145
 2560SOL     OW10269   2.557   2.893   4.119
 2560SOL    HW210270   2.554   2.886   4.214
 2560SOL    HW310271   2.562   2.987   4.102
 2560SOL    MW410272   2.557   2.905   4.129
 2561SOL     OW10273   2.866   2.912   4.067
 2561SOL    HW210274   2.794   2.862   4.030
 2561SOL    HW310275   2.874   2.989   4.010
 2561SOL    MW410276   2.858   2.916   4.055
 2562SOL     OW10277   2.954   3.088   4.282
 2562SOL    HW210278   2.955   3.036   4.362
 2562SOL    HW310279   2.937   3.024   4.213
 2562SOL    MW410280   2.952   3.072   4.284
 2563SOL     OW10281   2.737   3.254   4.264
 2563SOL    HW210282   2.729   3.269   4.358
 2563SOL    HW310283   2.799   3.182   4.256
 2563SOL    MW410284   2.744   3.247   4.275
 2564SOL     OW10285   2.684   3.495   4.122
 2564SOL    HW210286   2.703   3.418   4.177
 2564SOL    HW310287   2.603   3.530   4.158
 2564SOL    MW410288   2.676   3.489   4.134
 2565SOL     OW10289   2.897   3.646   4.218
 2565SOL    HW210290   2.883   3.657   4.312
 2565SOL    HW310291   2.818   3.602   4.187
 2565SOL    MW410292   2.885   3.642   4.227
 2566SOL     OW10293   2.938   3.911   4.095
 2566SOL    HW210294   3.018   3.955   4.123
 2566SOL    HW310295   2.932   3.834   4.152
 2566SOL    MW410296   2.948   3.907   4.107
 2567SOL     OW10297   2.702   4.040   4.217
 2567SOL    HW210298   2.688   4.134   4.213
 2567SOL    HW310299   2.789   4.026   4.182
 2567SOL    MW410300   2.711   4.050   4.212
 2568SOL     OW10301   2.676   4.311   4.177
 2568SOL    HW210302   2.766   4.342   4.180
 2568SOL    HW310303   2.656   4.303   4.083
 2568SOL    MW410304   2.685   4.314   4.165
 2569SOL     OW10305   2.929   4.387   4.226
 2569SOL    HW210306   2.924   4.378   4.321
 2569SOL    HW310307   3.022   4.381   4.206
 2569SOL    MW410308   2.941   4.385   4.236
 2570SOL     OW10309   3.333   4.641   4.161
 2570SOL    HW210310   3.407   4.699   4.176
 2570SOL    HW310311   3.368   4.553   4.174
 2570SOL    MW410312   3.347   4.637   4.164
 2571SOL     OW10313   3.105   0.068   4.279
 2571SOL    HW210314   3.122   0.083   4.372
 2571SOL    HW310315   3.186   0.029   4.247
 2571SOL    MW410316   3.118   0.065   4.287
 2572SOL     OW10317   3.129   0.333   4.145
 2572SOL    HW210318   3.136   0.248   4.189
 2572SOL    HW310319   3.052   0.374   4.184
 2572SOL    MW410320   3.120   0.327   4.156
 2573SOL     OW10321   3.327   0.488   4.256
 2573SOL    HW210322   3.409   0.446   4.229
 2573SOL    HW310323   3.258   0.441   4.210
 2573SOL    MW410324   3.329   0.476   4.246
 2574SOL     OW10325   3.349   0.755   4.165
 2574SOL    HW210326   3.257   0.779   4.179
 2574SOL    HW310327   3.358   0.670   4.209
 2574SOL    MW410328   3.338   0.747   4.172
 2575SOL     OW10329   3.104   0.871   4.236
 2575SOL    HW210330   3.137   0.868   4.326
 2575SOL    HW310331   3.086   0.963   4.220
 2575SOL    MW410332   3.106   0.882   4.246
 2576SOL     OW10333   3.140   1.143   4.208
 2576SOL    HW210334   3.225   1.163   4.247
 2576SOL    HW310335   3.153   1.159   4.114
 2576SOL    MW410336   3.153   1.148   4.200
 2577SOL     OW10337   3.395   1.221   4.286
 2577SOL    HW210338   3.438   1.246   4.368
 2577SOL    HW310339   3.384   1.304   4.239
 2577SOL    MW410340   3.399   1.235   4.291
 2578SOL     OW10341   3.353   1.679   4.386
 2578SOL    HW210342   3.320   1.739   4.452
 2578SOL    HW310343   3.278   1.664   4.328
 2578SOL    MW410344   3.339   1.685   4.387
 2579SOL     OW10345   3.120   1.680   4.252
 2579SOL    HW210346   3.081   1.658   4.336
 2579SOL    HW310347   3.095   1.771   4.237
 2579SOL    MW410348   3.112   1.689   4.261
 2580SOL     OW10349   3.089   1.949   4.201
 2580SOL    HW210350   3.152   2.020   4.212
 2580SOL    HW310351   3.004   1.989   4.221
 2580SOL    MW410352   3.086   1.964   4.205
 2581SOL     OW10353   3.321   2.123   4.270
 2581SOL    HW210354   3.400   2.075   4.245
 2581SOL    HW310355   3.336   2.212   4.238
 2581SOL    MW410356   3.333   2.129   4.263
 2582SOL     OW10357   3.348   2.363   4.132
 2582SOL    HW210358   3.429   2.411   4.153
 2582SOL    HW310359   3.370   2.314   4.052
 2582SOL    MW410360   3.362   2.363   4.124
 2583SOL     OW10361   3.083   2.468   4.222
 2583SOL    HW210362   3.059   2.551   4.181
 2583SOL    HW310363   3.156   2.435   4.169
 2583SOL    MW410364   3.089   2.475   4.209
 2584SOL     OW10365   3.104   2.737   4.132
 2584SOL    HW210366   3.155   2.778   4.202
 2584SOL    HW310367   3.027   2.793   4.123
 2584SOL    MW410368   3.101   2.750   4.140
 2585SOL     OW10369   3.280   2.889   4.277
 2585SOL    HW210370   3.353   2.835   4.249
 2585SOL    HW310371   3.292   2.972   4.230
 2585SOL    MW410372   3.291   2.893   4.267
 2586SOL     OW10373   3.352   3.127   4.184
 2586SOL    HW210374   3.283   3.186   4.212
 2586SOL    HW310375   3.347   3.126   4.088
 2586SOL    MW410376   3.343   3.134   4.175
 2587SOL     OW10377   3.139   3.288   4.293
 2587SOL    HW210378   3.107   3.362   4.242
 2587SOL    HW310379   3.065   3.227   4.297
 2587SOL    MW410380   3.125   3.290   4.287
 2588SOL     OW10381   3.117   3.509   4.153
 2588SOL    HW210382   3.036   3.556   4.169
 2588SOL    HW310383   3.121   3.500   4.057
 2588SOL    MW410384   3.107   3.514   4.142
 2589SOL     OW10385   3.360   3.649   4.195
 2589SOL    HW210386   3.361   3.641   4.290
 2589SOL    HW310387   3.290   3.590   4.166
 2589SOL    MW410388   3.351   3.640   4.204
 2590SOL     OW10389   3.412   3.904   4.105
 2590SOL    HW210390   3.385   3.818   4.138
 2590SOL    HW310391   3.408   3.896   4.010
 2590SOL    MW410392   3.408   3.892   4.097
 2591SOL     OW10393   3.176   4.027   4.193
 2591SOL    HW210394   3.177   4.011   4.287
 2591SOL    HW310395   3.258   3.987   4.161
 2591SOL    MW410396   3.187   4.019   4.201
 2592SOL     OW10397   3.174   4.298   4.135
 2592SOL    HW210398   3.263   4.325   4.159
 2592SOL    HW310399   3.165   4.210   4.171
 2592SOL    MW410400   3.184   4.290   4.143
 2593SOL     OW10401   3.412   4.398   4.234
 2593SOL    HW210402   3.391   4.380   4.326
 2593SOL    HW310403   3.498   4.360   4.222
 2593SOL    MW410404   3.420   4.391   4.245
 2594SOL     OW10405   3.781   4.636   4.163
 2594SOL    HW210406   3.862   4.677   4.193
 2594SOL    HW310407   3.787   4.636   4.068
 2594SOL    MW410408   3.793   4.641   4.154
 2595SOL     OW10409   3.557   0.088   4.266
 2595SOL    HW210410   3.565   0.172   4.220
 2595SOL    HW310411   3.629   0.034   4.231
 2595SOL    MW410412   3.568   0.092   4.255
 2596SOL     OW10413   3.547   0.346   4.133
 2596SOL    HW210414   3.636   0.376   4.152
 2596SOL    HW310415   3.546   0.333   4.038
 2596SOL    MW410416   3.559   0.348   4.123
 2597SOL     OW10417   3.796   0.462   4.218
 2597SOL    HW210418   3.777   0.448   4.310
 2597SOL    HW310419   3.785   0.556   4.205
 2597SOL    MW410420   3.792   0.473   4.228
 2598SOL     OW10421   3.782   0.731   4.191
 2598SOL    HW210422   3.714   0.792   4.221
 2598SOL    HW310423   3.789   0.746   4.097
 2598SOL    MW410424   3.774   0.741   4.183
 2599SOL     OW10425   3.573   0.893   4.270
 2599SOL    HW210426   3.600   0.981   4.245
 2599SOL    HW310427   3.498   0.874   4.213
 2599SOL    MW410428   3.566   0.902   4.259
 2600SOL     OW10429   3.639   1.139   4.156
 2600SOL    HW210430   3.552   1.166   4.185
 2600SOL    HW310431   3.630   1.125   4.062
 2600SOL    MW410432   3.626   1.140   4.147
 2601SOL     OW10433   3.814   1.259   4.315
 2601SOL    HW210434   3.745   1.228   4.256
 2601SOL    HW310435   3.821   1.352   4.297
 2601SOL    MW410436   3.806   1.267   4.305
 2602SOL     OW10437   3.794   1.500   4.171
 2602SOL    HW210438   3.871   1.557   4.178
 2602SOL    HW310439   3.721   1.556   4.199
 2602SOL    MW410440   3.795   1.515   4.176
 2603SOL     OW10441   3.565   1.964   4.185
 2603SOL    HW210442   3.572   1.956   4.090
 2603SOL    HW310443   3.575   1.874   4.217
 2603SOL    MW410444   3.568   1.951   4.177
 2604SOL     OW10445   3.420   1.453   4.130
 2604SOL    HW210446   3.510   1.485   4.139
 2604SOL    HW310447   3.386   1.500   4.054
 2604SOL    MW410448   3.427   1.463   4.121
 2605SOL     OW10449   3.789   2.107   4.284
 2605SOL    HW210450   3.779   2.139   4.374
 2605SOL    HW310451   3.706   2.064   4.264
 2605SOL    MW410452   3.777   2.106   4.293
 2606SOL     OW10453   3.832   2.375   4.159
 2606SOL    HW210454   3.810   2.289   4.195
 2606SOL    HW310455   3.839   2.360   4.065
 2606SOL    MW410456   3.830   2.362   4.151
 2607SOL     OW10457   3.584   2.484   4.231
 2607SOL    HW210458   3.577   2.470   4.325
 2607SOL    HW310459   3.663   2.437   4.205
 2607SOL    MW410460   3.594   2.476   4.240
 2608SOL     OW10461   3.522   2.762   4.198
 2608SOL    HW210462   3.542   2.672   4.224
 2608SOL    HW310463   3.541   2.764   4.104
 2608SOL    MW410464   3.527   2.750   4.189
 2609SOL     OW10465   3.749   2.910   4.258
 2609SOL    HW210466   3.735   2.931   4.350
 2609SOL    HW310467   3.669   2.864   4.231
 2609SOL    MW410468   3.736   2.906   4.266
 2610SOL     OW10469   3.814   3.144   4.089
 2610SOL    HW210470   3.817   3.064   4.141
 2610SOL    HW310471   3.809   3.115   3.998
 2610SOL    MW410472   3.814   3.130   4.084
 2611SOL     OW10473   3.600   3.254   4.241
 2611SOL    HW210474   3.672   3.207   4.199
 2611SOL    HW310475   3.523   3.200   4.226
 2611SOL    MW410476   3.600   3.241   4.234
 2612SOL     OW10477   3.586   3.511   4.135
 2612SOL    HW210478   3.574   3.427   4.181
 2612SOL    HW310479   3.506   3.560   4.155
 2612SOL    MW410480   3.574   3.506   4.144
 2613SOL     OW10481   3.845   3.602   4.230
 2613SOL    HW210482   3.917   3.546   4.199
 2613SOL    HW310483   3.766   3.558   4.199
 2613SOL    MW410484   3.844   3.589   4.221
 2614SOL     OW10485   3.845   3.860   4.141
 2614SOL    HW210486   3.774   3.909   4.182
 2614SOL    HW310487   3.837   3.772   4.178
 2614SOL    MW410488   3.834   3.855   4.151
 2615SOL     OW10489   3.619   4.017   4.251
 2615SOL    HW210490   3.635   3.986   4.340
 2615SOL    HW310491   3.545   3.965   4.220
 2615SOL    MW410492   3.612   4.006   4.259
 2616SOL     OW10493   3.655   4.276   4.171
 2616SOL    HW210494   3.719   4.329   4.217
 2616SOL    HW310495   3.664   4.189   4.210
 2616SOL    MW410496   3.664   4.271   4.182
 2617SOL     OW10497   3.842   4.415   4.315
 2617SOL    HW210498   3.914   4.378   4.264
 2617SOL    HW310499   3.812   4.491   4.265
 2617SOL    MW410500   3.847   4.420   4.302
 2618SOL     OW10501   4.252   4.627   4.174
 2618SOL    HW210502   4.266   4.538   4.205
 2618SOL    HW310503   4.331   4.675   4.202
 2618SOL    MW410504   4.265   4.622   4.182
 2619SOL     OW10505   4.019   0.077   4.246
 2619SOL    HW210506   4.018   0.169   4.222
 2619SOL    HW310507   4.108   0.048   4.228
 2619SOL    MW410508   4.031   0.085   4.241
 2620SOL     OW10509   4.044   0.349   4.183
 2620SOL    HW210510   4.119   0.399   4.216
 2620SOL    HW310511   3.967   0.397   4.213
 2620SOL    MW410512   4.044   0.362   4.191
 2621SOL     OW10513   4.249   0.490   4.292
 2621SOL    HW210514   4.259   0.570   4.240
 2621SOL    HW310515   4.333   0.445   4.283
 2621SOL    MW410516   4.262   0.494   4.284
 2622SOL     OW10517   4.260   0.748   4.180
 2622SOL    HW210518   4.190   0.810   4.201
 2622SOL    HW310519   4.249   0.730   4.086
 2622SOL    MW410520   4.250   0.754   4.170
 2623SOL     OW10521   4.021   0.876   4.250
 2623SOL    HW210522   4.016   0.968   4.223
 2623SOL    HW310523   3.942   0.836   4.215
 2623SOL    MW410524   4.010   0.883   4.242
 2624SOL     OW10525   4.021   1.147   4.178
 2624SOL    HW210526   4.084   1.218   4.190
 2624SOL    HW310527   3.943   1.177   4.225
 2624SOL    MW410528   4.019   1.160   4.186
 2625SOL     OW10529   4.249   1.315   4.256
 2625SOL    HW210530   4.232   1.305   4.349
 2625SOL    HW310531   4.321   1.254   4.237
 2625SOL    MW410532   4.256   1.306   4.266
 2626SOL     OW10533   4.232   1.570   4.134
 2626SOL    HW210534   4.239   1.483   4.172
 2626SOL    HW310535   4.255   1.558   4.041
 2626SOL    MW410536   4.236   1.557   4.126
 2627SOL     OW10537   4.001   1.676   4.226
 2627SOL    HW210538   3.986   1.659   4.319
 2627SOL    HW310539   4.086   1.637   4.207
 2627SOL    MW410540   4.010   1.669   4.236
 2628SOL     OW10541   4.006   1.955   4.143
 2628SOL    HW210542   4.006   1.866   4.178
 2628SOL    HW310543   3.935   1.999   4.190
 2628SOL    MW410544   3.997   1.949   4.154
 2629SOL     OW10545   4.445   1.936   4.146
 2629SOL    HW210546   4.527   1.980   4.170
 2629SOL    HW310547   4.376   1.999   4.170
 2629SOL    MW410548   4.447   1.950   4.153
 2630SOL     OW10549   4.202   2.342   4.135
 2630SOL    HW210550   4.140   2.395   4.186
 2630SOL    HW310551   4.208   2.260   4.183
 2630SOL    MW410552   4.195   2.338   4.148
 2631SOL     OW10553   4.035   2.537   4.282
 2631SOL    HW210554   4.043   2.525   4.377
 2631SOL    HW310555   3.956   2.488   4.258
 2631SOL    MW410556   4.026   2.529   4.291
 2632SOL     OW10557   3.996   2.800   4.193
 2632SOL    HW210558   4.017   2.709   4.211
 2632SOL    HW310559   3.914   2.816   4.240
 2632SOL    MW410560   3.988   2.790   4.201
 2633SOL     OW10561   4.232   2.880   4.318
 2633SOL    HW210562   4.151   2.845   4.282
 2633SOL    HW310563   4.299   2.818   4.291
 2633SOL    MW410564   4.230   2.867   4.310
 2634SOL     OW10565   4.271   3.100   4.154
 2634SOL    HW210566   4.263   3.012   4.192
 2634SOL    HW310567   4.260   3.087   4.060
 2634SOL    MW410568   4.268   3.087   4.146
 2635SOL     OW10569   4.042   3.217   4.255
 2635SOL    HW210570   4.129   3.191   4.225
 2635SOL    HW310571   3.982   3.181   4.191
 2635SOL    MW410572   4.046   3.209   4.243
 2636SOL     OW10573   4.071   3.467   4.152
 2636SOL    HW210574   4.063   3.376   4.182
 2636SOL    HW310575   4.058   3.461   4.057
 2636SOL    MW410576   4.068   3.454   4.143
 2637SOL     OW10577   4.292   3.621   4.226
 2637SOL    HW210578   4.287   3.696   4.167
 2637SOL    HW310579   4.219   3.565   4.199
 2637SOL    MW410580   4.281   3.624   4.214
 2638SOL     OW10581   4.282   3.860   4.106
 2638SOL    HW210582   4.211   3.917   4.135
 2638SOL    HW310583   4.285   3.871   4.011
 2638SOL    MW410584   4.273   3.869   4.097
 2639SOL     OW10585   4.070   4.014   4.182
 2639SOL    HW210586   4.087   4.012   4.276
 2639SOL    HW310587   3.992   3.961   4.170
 2639SOL    MW410588   4.062   4.007   4.193
 2640SOL     OW10589   4.029   4.301   4.152
 2640SOL    HW210590   4.113   4.313   4.196
 2640SOL    HW310591   4.015   4.207   4.151
 2640SOL    MW410592   4.038   4.290   4.158
 2641SOL     OW10593   4.057   4.234   4.630
 2641SOL    HW210594   4.058   4.193   4.717
 2641SOL    HW310595   3.981   4.292   4.632
 2641SOL    MW410596   4.047   4.236   4.642
 2642SOL     OW10597   4.271   0.178   4.818
 2642SOL    HW210598   4.342   0.234   4.788
 2642SOL    HW310599   4.194   0.235   4.817
 2642SOL    MW410600   4.270   0.193   4.814
 2643SOL     OW10601   4.288   4.346   4.542
 2643SOL    HW210602   4.290   4.440   4.559
 2643SOL    HW310603   4.209   4.315   4.586
 2643SOL    MW410604   4.278   4.354   4.550
 2644SOL     OW10605   4.038   0.070   4.516
 2644SOL    HW210606   4.027   0.076   4.422
 2644SOL    HW310607   3.951   0.048   4.550
 2644SOL    MW410608   4.025   0.068   4.508
 2645SOL     OW10609   4.110   1.642   4.701
 2645SOL    HW210610   4.180   1.577   4.713
 2645SOL    HW310611   4.071   1.620   4.617
 2645SOL    MW410612   4.114   1.630   4.692
 2646SOL     OW10613   0.469   4.640   4.546
 2646SOL    HW210614   0.378   4.624   4.572
 2646SOL    HW310615   0.510   4.553   4.547
 2646SOL    MW410616   0.462   4.626   4.550
 2647SOL     OW10617   0.154   0.503   4.530
 2647SOL    HW210618   0.155   0.491   4.435
 2647SOL    HW310619   0.244   0.484   4.557
 2647SOL    MW410620   0.166   0.499   4.521
 2648SOL     OW10621   4.358   0.759   4.573
 2648SOL    HW210622   4.355   0.669   4.605
 2648SOL    HW310623   4.448   0.787   4.586
 2648SOL    MW410624   4.369   0.751   4.579
 2649SOL     OW10625   0.604   1.326   4.562
 2649SOL    HW210626   0.627   1.402   4.616
 2649SOL    HW310627   0.515   1.303   4.590
 2649SOL    MW410628   0.595   1.333   4.573
 2650SOL     OW10629   1.085   2.014   4.513
 2650SOL    HW210630   1.176   2.043   4.510
 2650SOL    HW310631   1.050   2.055   4.592
 2650SOL    MW410632   1.093   2.023   4.523
 2651SOL     OW10633   4.205   1.322   4.543
 2651SOL    HW210634   4.183   1.236   4.578
 2651SOL    HW310635   4.295   1.338   4.572
 2651SOL    MW410636   4.214   1.313   4.551
 2652SOL     OW10637   0.212   1.841   4.572
 2652SOL    HW210638   0.122   1.808   4.572
 2652SOL    HW310639   0.202   1.936   4.575
 2652SOL    MW410640   0.199   1.849   4.572
 2653SOL     OW10641   0.424   1.699   4.200
 2653SOL    HW210642   0.351   1.637   4.198
 2653SOL    HW310643   0.501   1.646   4.178
 2653SOL    MW410644   0.425   1.684   4.197
 2654SOL     OW10645   0.161   2.149   4.494
 2654SOL    HW210646   0.219   2.206   4.544
 2654SOL    HW310647   0.074   2.167   4.529
 2654SOL    MW410648   0.157   2.159   4.505
 2655SOL     OW10649   4.004   2.309   4.659
 2655SOL    HW210650   4.052   2.255   4.722
 2655SOL    HW310651   4.064   2.381   4.639
 2655SOL    MW410652   4.018   2.312   4.665
 2656SOL     OW10653   0.340   2.877   4.649
 2656SOL    HW210654   0.262   2.898   4.598
 2656SOL    HW310655   0.352   2.782   4.637
 2656SOL    MW410656   0.331   2.867   4.641
 2657SOL     OW10657   0.335   3.264   4.515
 2657SOL    HW210658   0.390   3.187   4.533
 2657SOL    HW310659   0.378   3.336   4.562
 2657SOL    MW410660   0.348   3.263   4.524
 2658SOL     OW10661   4.445   2.450   4.507
 2658SOL    HW210662   4.453   2.459   4.412
 2658SOL    HW310663   4.465   2.537   4.541
 2658SOL    MW410664   4.448   2.463   4.499
 2659SOL     OW10665   4.285   3.377   4.572
 2659SOL    HW210666   4.344   3.301   4.564
 2659SOL    HW310667   4.199   3.343   4.550
 2659SOL    MW410668   4.282   3.362   4.568
 2660SOL     OW10669   0.385   3.509   4.668
 2660SOL    HW210670   0.360   3.539   4.755
 2660SOL    HW310671   0.320   3.548   4.609
 2660SOL    MW410672   0.373   3.518   4.671
 2661SOL     OW10673   4.279   3.877   4.616
 2661SOL    HW210674   4.225   3.911   4.545
 2661SOL    HW310675   4.320   3.798   4.581
 2661SOL    MW410676   4.277   3.871   4.602
 2662SOL     OW10677   0.013   0.055   4.538
 2662SOL    HW210678  -0.071   0.009   4.546
 2662SOL    HW310679  -0.002   0.139   4.583
 2662SOL    MW410680   0.000   0.060   4.545
 2663SOL     OW10681   3.823   0.436   4.500
 2663SOL    HW210682   3.750   0.409   4.555
 2663SOL    HW310683   3.832   0.530   4.516
 2663SOL    MW410684   3.815   0.445   4.509
 2664SOL     OW10685   4.094   3.801   4.790
 2664SOL    HW210686   4.112   3.707   4.791
 2664SOL    HW310687   4.162   3.838   4.735
 2664SOL    MW410688   4.105   3.793   4.783
 2665SOL     OW10689   4.094   4.090   4.868
 2665SOL    HW210690   4.185   4.079   4.896
 2665SOL    HW310691   4.065   4.001   4.849
 2665SOL    MW410692   4.102   4.076   4.869
 2666SOL     OW10693   0.651   4.419   4.495
 2666SOL    HW210694   0.664   4.392   4.404
 2666SOL    HW310695   0.738   4.440   4.527
 2666SOL    MW410696   0.664   4.418   4.487
 2667SOL     OW10697   4.012   1.077   4.675
 2667SOL    HW210698   4.050   1.009   4.621
 2667SOL    HW310699   4.042   1.058   4.764
 2667SOL    MW410700   4.021   1.066   4.680
 2668SOL     OW10701   1.250   0.965   4.697
 2668SOL    HW210702   1.227   0.961   4.790
 2668SOL    HW310703   1.170   0.939   4.651
 2668SOL    MW410704   1.237   0.961   4.703
 2669SOL     OW10705   0.510   0.225   4.685
 2669SOL    HW210706   0.500   0.137   4.649
 2669SOL    HW310707   0.604   0.241   4.682
 2669SOL    MW410708   0.521   0.215   4.680
 2670SOL     OW10709   1.003   0.934   4.570
 2670SOL    HW210710   0.984   0.922   4.476
 2670SOL    HW310711   0.949   1.009   4.595
 2670SOL    MW410712   0.993   0.942   4.561
 2671SOL     OW10713   0.370   0.976   4.536
 2671SOL    HW210714   0.295   0.917   4.534
 2671SOL    HW310715   0.406   0.973   4.447
 2671SOL    MW410716   0.365   0.968   4.524
 2672SOL     OW10717   2.043   1.213   4.555
 2672SOL    HW210718   2.018   1.249   4.470
 2672SOL    HW310719   2.089   1.285   4.599
 2672SOL    MW410720   2.046   1.227   4.550
 2673SOL     OW10721   0.429   1.697   4.500
 2673SOL    HW210722   0.363   1.754   4.539
 2673SOL    HW310723   0.421   1.712   4.406
 2673SOL    MW410724   0.419   1.706   4.493
 2674SOL     OW10725   1.273   1.222   4.546
 2674SOL    HW210726   1.268   1.145   4.602
 2674SOL    HW310727   1.187   1.264   4.555
 2674SOL    MW410728   1.261   1.218   4.555
 2675SOL     OW10729   0.933   1.598   4.536
 2675SOL    HW210730   0.852   1.601   4.588
 2675SOL    HW310731   0.992   1.659   4.581
 2675SOL    MW410732   0.930   1.606   4.549
 2676SOL     OW10733   0.652   2.173   4.518
 2676SOL    HW210734   0.714   2.243   4.498
 2676SOL    HW310735   0.691   2.127   4.592
 2676SOL    MW410736   0.666   2.176   4.525
 2677SOL     OW10737   1.097   1.778   4.666
 2677SOL    HW210738   1.179   1.729   4.664
 2677SOL    HW310739   1.110   1.850   4.605
 2677SOL    MW410740   1.109   1.781   4.658
 2678SOL     OW10741   0.404   2.312   4.522
 2678SOL    HW210742   0.476   2.249   4.525
 2678SOL    HW310743   0.400   2.338   4.430
 2678SOL    MW410744   0.413   2.307   4.510
 2679SOL     OW10745   1.024   2.624   4.674
 2679SOL    HW210746   1.000   2.708   4.636
 2679SOL    HW310747   1.114   2.637   4.706
 2679SOL    MW410748   1.033   2.637   4.673
 2680SOL     OW10749   0.685   2.622   4.575
 2680SOL    HW210750   0.752   2.639   4.641
 2680SOL    HW310751   0.727   2.562   4.513
 2680SOL    MW410752   0.700   2.617   4.575
 2681SOL     OW10753   1.085   3.283   4.586
 2681SOL    HW210754   0.991   3.269   4.573
 2681SOL    HW310755   1.123   3.195   4.584
 2681SOL    MW410756   1.078   3.270   4.584
 2682SOL     OW10757   0.756   3.223   4.519
 2682SOL    HW210758   0.716   3.309   4.528
 2682SOL    HW310759   0.686   3.161   4.536
 2682SOL    MW410760   0.742   3.226   4.523
 2683SOL     OW10761   1.215   4.633   4.465
 2683SOL    HW210762   1.166   4.551   4.471
 2683SOL    HW310763   1.292   4.619   4.520
 2683SOL    MW410764   1.218   4.620   4.473
 2684SOL     OW10765   4.485   2.717   4.592
 2684SOL    HW210766   4.536   2.729   4.672
 2684SOL    HW310767   4.512   2.790   4.536
 2684SOL    MW410768   4.496   2.728   4.595
 2685SOL     OW10769   4.369   3.633   4.504
 2685SOL    HW210770   4.346   3.546   4.536
 2685SOL    HW310771   4.321   3.642   4.422
 2685SOL    MW410772   4.360   3.623   4.498
 2686SOL     OW10773   1.222   3.746   4.678
 2686SOL    HW210774   1.254   3.671   4.627
 2686SOL    HW310775   1.129   3.751   4.656
 2686SOL    MW410776   1.214   3.737   4.668
 2687SOL     OW10777   0.055   4.246   4.603
 2687SOL    HW210778   0.058   4.162   4.557
 2687SOL    HW310779  -0.035   4.276   4.592
 2687SOL    MW410780   0.044   4.239   4.596
 2688SOL     OW10781   0.016   3.968   4.483
 2688SOL    HW210782   0.092   3.928   4.525
 2688SOL    HW310783  -0.059   3.935   4.533
 2688SOL    MW410784   0.016   3.958   4.495
 2689SOL     OW10785   0.211   4.475   4.545
 2689SOL    HW210786   0.146   4.546   4.549
 2689SOL    HW310787   0.161   4.396   4.562
 2689SOL    MW410788   0.196   4.474   4.547
 2690SOL     OW10789   0.786   0.294   4.683
 2690SOL    HW210790   0.859   0.251   4.638
 2690SOL    HW310791   0.825   0.369   4.727
 2690SOL    MW410792   0.801   0.298   4.683
 2691SOL     OW10793   1.111   4.362   4.474
 2691SOL    HW210794   1.200   4.330   4.487
 2691SOL    HW310795   1.056   4.302   4.524
 2691SOL    MW410796   1.115   4.350   4.482
 2692SOL     OW10797   0.653   0.599   4.544
 2692SOL    HW210798   0.639   0.599   4.449
 2692SOL    HW310799   0.581   0.546   4.579
 2692SOL    MW410800   0.641   0.592   4.536
 2693SOL     OW10801   1.453   0.818   4.580
 2693SOL    HW210802   1.416   0.832   4.493
 2693SOL    HW310803   1.389   0.857   4.640
 2693SOL    MW410804   1.440   0.825   4.576
 2694SOL     OW10805   1.681   0.994   4.609
 2694SOL    HW210806   1.756   0.940   4.584
 2694SOL    HW310807   1.604   0.944   4.581
 2694SOL    MW410808   1.681   0.980   4.602
 2695SOL     OW10809   0.354   1.243   4.648
 2695SOL    HW210810   0.331   1.158   4.610
 2695SOL    HW310811   0.372   1.224   4.740
 2695SOL    MW410812   0.353   1.229   4.655
 2696SOL     OW10813   0.766   2.101   4.802
 2696SOL    HW210814   0.858   2.122   4.817
 2696SOL    HW310815   0.718   2.158   4.863
 2696SOL    MW410816   0.772   2.111   4.812
 2697SOL     OW10817   0.780   1.115   4.640
 2697SOL    HW210818   0.717   1.174   4.598
 2697SOL    HW310819   0.728   1.038   4.665
 2697SOL    MW410820   0.765   1.112   4.638
 2698SOL     OW10821   1.835   1.162   4.764
 2698SOL    HW210822   1.774   1.092   4.739
 2698SOL    HW310823   1.900   1.163   4.694
 2698SOL    MW410824   1.835   1.153   4.752
 2699SOL     OW10825   1.012   1.321   4.485
 2699SOL    HW210826   0.961   1.261   4.539
 2699SOL    HW310827   0.991   1.408   4.518
 2699SOL    MW410828   1.003   1.324   4.497
 2700SOL     OW10829   1.071   2.359   4.608
 2700SOL    HW210830   1.056   2.449   4.634
 2700SOL    HW310831   1.161   2.358   4.575
 2700SOL    MW410832   1.081   2.371   4.607
 2701SOL     OW10833   1.404   2.936   4.859
 2701SOL    HW210834   1.410   2.912   4.951
 2701SOL    HW310835   1.495   2.949   4.832
 2701SOL    MW410836   1.417   2.934   4.867
 2702SOL     OW10837   1.443   3.001   4.484
 2702SOL    HW210838   1.435   3.096   4.473
 2702SOL    HW310839   1.507   2.991   4.555
 2702SOL    MW410840   1.451   3.012   4.492
 2703SOL     OW10841   1.436   3.279   4.484
 2703SOL    HW210842   1.384   3.353   4.516
 2703SOL    HW310843   1.404   3.263   4.396
 2703SOL    MW410844   1.425   3.287   4.477
 2704SOL     OW10845   0.703   2.880   4.478
 2704SOL    HW210846   0.795   2.891   4.505
 2704SOL    HW310847   0.679   2.793   4.510
 2704SOL    MW410848   0.712   2.870   4.486
 2705SOL     OW10849   0.558   3.945   4.454
 2705SOL    HW210850   0.559   4.027   4.504
 2705SOL    HW310851   0.527   3.970   4.367
 2705SOL    MW410852   0.554   3.959   4.449
 2706SOL     OW10853   0.975   2.850   4.522
 2706SOL    HW210854   0.994   2.825   4.432
 2706SOL    HW310855   1.049   2.906   4.548
 2706SOL    MW410856   0.988   2.854   4.514
 2707SOL     OW10857   0.522   3.061   4.565
 2707SOL    HW210858   0.456   3.000   4.598
 2707SOL    HW310859   0.590   3.005   4.528
 2707SOL    MW410860   0.522   3.045   4.565
 2708SOL     OW10861   1.558   3.673   4.472
 2708SOL    HW210862   1.645   3.634   4.478
 2708SOL    HW310863   1.498   3.603   4.498
 2708SOL    MW410864   1.562   3.658   4.476
 2709SOL     OW10865   0.676   3.524   4.563
 2709SOL    HW210866   0.715   3.609   4.543
 2709SOL    HW310867   0.586   3.545   4.591
 2709SOL    MW410868   0.669   3.538   4.564
 2710SOL     OW10869   0.271   3.890   4.574
 2710SOL    HW210870   0.361   3.889   4.540
 2710SOL    HW310871   0.239   3.801   4.558
 2710SOL    MW410872   0.279   3.878   4.567
 2711SOL     OW10873   0.911   4.172   4.597
 2711SOL    HW210874   0.820   4.171   4.627
 2711SOL    HW310875   0.927   4.083   4.566
 2711SOL    MW410876   0.901   4.160   4.597
 2712SOL     OW10877   0.598   4.180   4.622
 2712SOL    HW210878   0.512   4.194   4.662
 2712SOL    HW310879   0.615   4.261   4.573
 2712SOL    MW410880   0.589   4.193   4.621
 2713SOL     OW10881   2.115   3.853   4.639
 2713SOL    HW210882   2.088   3.771   4.597
 2713SOL    HW310883   2.033   3.897   4.660
 2713SOL    MW410884   2.100   3.848   4.636
 2714SOL     OW10885   1.433   4.634   4.639
 2714SOL    HW210886   1.453   4.716   4.684
 2714SOL    HW310887   1.518   4.591   4.628
 2714SOL    MW410888   1.447   4.639   4.644
 2715SOL     OW10889   1.394   4.291   4.456
 2715SOL    HW210890   1.426   4.306   4.367
 2715SOL    HW310891   1.474   4.273   4.507
 2715SOL    MW410892   1.409   4.291   4.451
 2716SOL     OW10893   0.905   0.690   4.646
 2716SOL    HW210894   0.928   0.780   4.622
 2716SOL    HW310895   0.813   0.681   4.619
 2716SOL    MW410896   0.896   0.701   4.639
 2717SOL     OW10897   1.881   0.040   4.489
 2717SOL    HW210898   1.815  -0.030   4.497
 2717SOL    HW310899   1.964  -0.006   4.498
 2717SOL    MW410900   1.883   0.024   4.491
 2718SOL     OW10901   1.115   0.506   4.595
 2718SOL    HW210902   1.040   0.558   4.623
 2718SOL    HW310903   1.079   0.418   4.580
 2718SOL    MW410904   1.100   0.501   4.597
 2719SOL     OW10905   1.762   1.699   4.534
 2719SOL    HW210906   1.688   1.642   4.553
 2719SOL    HW310907   1.760   1.709   4.438
 2719SOL    MW410908   1.752   1.693   4.524
 2720SOL     OW10909   0.613   0.862   4.659
 2720SOL    HW210910   0.532   0.897   4.623
 2720SOL    HW310911   0.615   0.771   4.631
 2720SOL    MW410912   0.603   0.855   4.651
 2721SOL     OW10913   1.807   0.574   4.465
 2721SOL    HW210914   1.715   0.555   4.451
 2721SOL    HW310915   1.841   0.496   4.510
 2721SOL    MW410916   1.800   0.561   4.469
 2722SOL     OW10917   1.553   1.263   4.535
 2722SOL    HW210918   1.464   1.240   4.559
 2722SOL    HW310919   1.606   1.188   4.562
 2722SOL    MW410920   1.549   1.250   4.541
 2723SOL     OW10921   1.361   1.706   4.618
 2723SOL    HW210922   1.425   1.640   4.647
 2723SOL    HW310923   1.349   1.688   4.525
 2723SOL    MW410924   1.368   1.695   4.609
 2724SOL     OW10925   1.287   2.686   4.761
 2724SOL    HW210926   1.346   2.662   4.689
 2724SOL    HW310927   1.324   2.766   4.797
 2724SOL    MW410928   1.299   2.693   4.756
 2725SOL     OW10929   2.223   2.523   4.398
 2725SOL    HW210930   2.267   2.502   4.316
 2725SOL    HW310931   2.209   2.618   4.395
 2725SOL    MW410932   2.227   2.533   4.387
 2726SOL     OW10933   0.829   2.394   4.451
 2726SOL    HW210934   0.911   2.372   4.495
 2726SOL    HW310935   0.855   2.422   4.363
 2726SOL    MW410936   0.843   2.395   4.445
 2727SOL     OW10937   1.486   3.890   4.646
 2727SOL    HW210938   1.425   3.858   4.712
 2727SOL    HW310939   1.513   3.811   4.599
 2727SOL    MW410940   1.482   3.875   4.648
 2728SOL     OW10941   1.299   2.447   4.251
 2728SOL    HW210942   1.307   2.542   4.243
 2728SOL    HW310943   1.377   2.413   4.207
 2728SOL    MW410944   1.310   2.455   4.244
 2729SOL     OW10945   1.360   2.369   4.495
 2729SOL    HW210946   1.341   2.401   4.406
 2729SOL    HW310947   1.409   2.441   4.536
 2729SOL    MW410948   1.364   2.383   4.489
 2730SOL     OW10949   1.189   3.031   4.611
 2730SOL    HW210950   1.270   3.026   4.559
 2730SOL    HW310951   1.218   3.020   4.702
 2730SOL    MW410952   1.203   3.029   4.616
 2731SOL     OW10953   1.246   3.504   4.501
 2731SOL    HW210954   1.188   3.436   4.534
 2731SOL    HW310955   1.199   3.542   4.427
 2731SOL    MW410956   1.232   3.500   4.495
 2732SOL     OW10957   0.777   3.763   4.436
 2732SOL    HW210958   0.704   3.825   4.443
 2732SOL    HW310959   0.850   3.808   4.479
 2732SOL    MW410960   0.777   3.777   4.443
 2733SOL     OW10961   2.057   3.620   4.527
 2733SOL    HW210962   2.064   3.614   4.432
 2733SOL    HW310963   2.108   3.545   4.559
 2733SOL    MW410964   2.065   3.609   4.519
 2734SOL     OW10965   1.714   3.279   4.535
 2734SOL    HW210966   1.619   3.289   4.545
 2734SOL    HW310967   1.728   3.279   4.441
 2734SOL    MW410968   1.703   3.281   4.524
 2735SOL     OW10969   2.229   3.259   4.312
 2735SOL    HW210970   2.144   3.220   4.292
 2735SOL    HW310971   2.286   3.185   4.330
 2735SOL    MW410972   2.225   3.244   4.312
 2736SOL     OW10973   1.012   3.900   4.499
 2736SOL    HW210974   0.978   3.914   4.411
 2736SOL    HW310975   1.106   3.920   4.492
 2736SOL    MW410976   1.020   3.904   4.487
 2737SOL     OW10977   1.846   4.143   4.517
 2737SOL    HW210978   1.847   4.104   4.430
 2737SOL    HW310979   1.912   4.213   4.512
 2737SOL    MW410980   1.855   4.147   4.505
 2738SOL     OW10981   2.228   0.283   4.561
 2738SOL    HW210982   2.225   0.250   4.471
 2738SOL    HW310983   2.270   0.369   4.554
 2738SOL    MW410984   2.233   0.290   4.549
 2739SOL     OW10985   1.030   0.209   4.509
 2739SOL    HW210986   0.983   0.202   4.426
 2739SOL    HW310987   1.086   0.131   4.511
 2739SOL    MW410988   1.031   0.197   4.498
 2740SOL     OW10989   1.936   0.321   4.551
 2740SOL    HW210990   2.030   0.317   4.570
 2740SOL    HW310991   1.909   0.229   4.545
 2740SOL    MW410992   1.945   0.308   4.552
 2741SOL     OW10993   2.451   0.137   4.660
 2741SOL    HW210994   2.418   0.048   4.651
 2741SOL    HW310995   2.373   0.192   4.647
 2741SOL    MW410996   2.436   0.133   4.657
 2742SOL     OW10997   1.894   0.831   4.498
 2742SOL    HW210998   1.863   0.743   4.517
 2742SOL    HW310999   1.869   0.847   4.407
 2742SOL    MW411000   1.887   0.822   4.488
 2743SOL     OW11001   1.422   0.530   4.569
 2743SOL    HW211002   1.434   0.624   4.583
 2743SOL    HW311003   1.330   0.515   4.589
 2743SOL    MW411004   1.412   0.541   4.574
 2744SOL     OW11005   1.960   1.635   4.731
 2744SOL    HW211006   2.037   1.656   4.678
 2744SOL    HW311007   1.887   1.635   4.670
 2744SOL    MW411008   1.961   1.638   4.716
 2745SOL     OW11009   0.804   1.841   4.748
 2745SOL    HW211010   0.897   1.858   4.731
 2745SOL    HW311011   0.769   1.927   4.771
 2745SOL    MW411012   0.812   1.855   4.749
 2746SOL     OW11013   1.573   1.516   4.624
 2746SOL    HW211014   1.551   1.431   4.584
 2746SOL    HW311015   1.618   1.493   4.705
 2746SOL    MW411016   1.576   1.501   4.629
 2747SOL     OW11017   1.050   2.132   4.765
 2747SOL    HW211018   1.140   2.106   4.783
 2747SOL    HW311019   1.055   2.224   4.739
 2747SOL    MW411020   1.062   2.141   4.764
 2748SOL     OW11021   1.540   1.954   4.630
 2748SOL    HW211022   1.610   1.932   4.569
 2748SOL    HW311023   1.481   1.878   4.627
 2748SOL    MW411024   1.541   1.941   4.621
 2749SOL     OW11025   1.984   2.142   4.237
 2749SOL    HW211026   1.931   2.193   4.298
 2749SOL    HW311027   1.922   2.080   4.197
 2749SOL    MW411028   1.969   2.140   4.240
 2750SOL     OW11029   1.341   2.100   4.480
 2750SOL    HW211030   1.410   2.046   4.520
 2750SOL    HW311031   1.373   2.190   4.490
 2750SOL    MW411032   1.355   2.105   4.486
 2751SOL     OW11033   2.440   3.075   4.369
 2751SOL    HW211034   2.505   3.088   4.437
 2751SOL    HW311035   2.368   3.028   4.412
 2751SOL    MW411036   2.439   3.070   4.383
 2752SOL     OW11037   1.635   2.956   4.687
 2752SOL    HW211038   1.659   2.863   4.682
 2752SOL    HW311039   1.719   3.003   4.686
 2752SOL    MW411040   1.649   2.950   4.686
 2753SOL     OW11041   1.649   4.473   4.502
 2753SOL    HW211042   1.649   4.391   4.552
 2753SOL    HW311043   1.644   4.444   4.410
 2753SOL    MW411044   1.648   4.458   4.496
 2754SOL     OW11045   2.648   3.096   4.585
 2754SOL    HW211046   2.718   3.049   4.540
 2754SOL    HW311047   2.592   3.027   4.620
 2754SOL    MW411048   2.650   3.081   4.584
 2755SOL     OW11049   2.223   3.389   4.570
 2755SOL    HW211050   2.212   3.354   4.481
 2755SOL    HW311051   2.216   3.312   4.627
 2755SOL    MW411052   2.220   3.374   4.566
 2756SOL     OW11053   2.705   3.958   4.500
 2756SOL    HW211054   2.626   3.917   4.537
 2756SOL    HW311055   2.685   3.968   4.407
 2756SOL    MW411056   2.692   3.954   4.493
 2757SOL     OW11057   2.471   3.826   4.588
 2757SOL    HW211058   2.460   3.731   4.595
 2757SOL    HW311059   2.382   3.860   4.597
 2757SOL    MW411060   2.458   3.818   4.590
 2758SOL     OW11061   2.462   3.524   4.548
 2758SOL    HW211062   2.377   3.482   4.566
 2758SOL    HW311063   2.459   3.545   4.454
 2758SOL    MW411064   2.450   3.521   4.538
 2759SOL     OW11065   1.790   3.549   4.490
 2759SOL    HW211066   1.876   3.579   4.520
 2759SOL    HW311067   1.776   3.467   4.536
 2759SOL    MW411068   1.800   3.542   4.500
 2760SOL     OW11069   2.047   4.358   4.484
 2760SOL    HW211070   2.114   4.295   4.512
 2760SOL    HW311071   2.084   4.444   4.504
 2760SOL    MW411072   2.060   4.361   4.491
 2761SOL     OW11073   1.306   4.018   4.461
 2761SOL    HW211074   1.338   4.106   4.478
 2761SOL    HW311075   1.363   3.962   4.514
 2761SOL    MW411076   1.318   4.022   4.471
 2762SOL     OW11077   2.132   4.602   4.542
 2762SOL    HW211078   2.206   4.592   4.602
 2762SOL    HW311079   2.158   4.673   4.484
 2762SOL    MW411080   2.145   4.610   4.542
 2763SOL     OW11081   2.356   4.542   4.728
 2763SOL    HW211082   2.374   4.464   4.675
 2763SOL    HW311083   2.419   4.538   4.799
 2763SOL    MW411084   2.367   4.531   4.730
 2764SOL     OW11085   1.748   1.452   4.824
 2764SOL    HW211086   1.781   1.364   4.808
 2764SOL    HW311087   1.827   1.506   4.832
 2764SOL    MW411088   1.763   1.448   4.823
 2765SOL     OW11089   2.703   0.169   4.553
 2765SOL    HW211090   2.615   0.144   4.580
 2765SOL    HW311091   2.712   0.133   4.465
 2765SOL    MW411092   2.692   0.161   4.545
 2766SOL     OW11093   2.449   0.769   4.546
 2766SOL    HW211094   2.402   0.828   4.604
 2766SOL    HW311095   2.541   0.789   4.560
 2766SOL    MW411096   2.455   0.779   4.555
 2767SOL     OW11097   2.975   0.751   4.676
 2767SOL    HW211098   3.032   0.795   4.612
 2767SOL    HW311099   2.936   0.678   4.627
 2767SOL    MW411100   2.978   0.747   4.661
 2768SOL     OW11101   2.208   1.401   4.666
 2768SOL    HW211102   2.259   1.415   4.746
 2768SOL    HW311103   2.270   1.364   4.604
 2768SOL    MW411104   2.223   1.398   4.669
 2769SOL     OW11105   2.426   1.314   4.514
 2769SOL    HW211106   2.464   1.243   4.565
 2769SOL    HW311107   2.468   1.393   4.547
 2769SOL    MW411108   2.436   1.315   4.525
 2770SOL     OW11109   2.516   1.563   4.598
 2770SOL    HW211110   2.600   1.595   4.565
 2770SOL    HW311111   2.470   1.642   4.626
 2770SOL    MW411112   2.521   1.578   4.597
 2771SOL     OW11113   2.149   1.639   4.528
 2771SOL    HW211114   2.162   1.656   4.435
 2771SOL    HW311115   2.168   1.546   4.539
 2771SOL    MW411116   2.153   1.629   4.517
 2772SOL     OW11117   2.264   2.036   4.764
 2772SOL    HW211118   2.311   2.114   4.797
 2772SOL    HW311119   2.173   2.064   4.758
 2772SOL    MW411120   2.258   2.050   4.768
 2773SOL     OW11121   2.342   1.828   4.576
 2773SOL    HW211122   2.276   1.758   4.570
 2773SOL    HW311123   2.304   1.892   4.636
 2773SOL    MW411124   2.328   1.827   4.583
 2774SOL     OW11125   2.535   2.250   4.396
 2774SOL    HW211126   2.482   2.312   4.446
 2774SOL    HW311127   2.486   2.168   4.400
 2774SOL    MW411128   2.521   2.248   4.403
 2775SOL     OW11129   1.737   2.681   4.645
 2775SOL    HW211130   1.768   2.723   4.565
 2775SOL    HW311131   1.815   2.639   4.682
 2775SOL    MW411132   1.752   2.681   4.640
 2776SOL     OW11133   2.182   3.135   4.679
 2776SOL    HW211134   2.086   3.130   4.671
 2776SOL    HW311135   2.214   3.076   4.611
 2776SOL    MW411136   2.173   3.127   4.669
 2777SOL     OW11137   2.684   3.373   4.514
 2777SOL    HW211138   2.696   3.294   4.567
 2777SOL    HW311139   2.601   3.411   4.545
 2777SOL    MW411140   2.674   3.368   4.525
 2778SOL     OW11141   2.432   3.158   4.803
 2778SOL    HW211142   2.474   3.243   4.794
 2778SOL    HW311143   2.339   3.176   4.792
 2778SOL    MW411144   2.425   3.172   4.800
 2779SOL     OW11145   1.595   4.179   4.618
 2779SOL    HW211146   1.549   4.098   4.640
 2779SOL    HW311147   1.685   4.152   4.601
 2779SOL    MW411148   1.601   4.165   4.619
 2780SOL     OW11149   2.681   4.228   4.586
 2780SOL    HW211150   2.586   4.236   4.590
 2780SOL    HW311151   2.696   4.136   4.562
 2780SOL    MW411152   2.671   4.217   4.583
 2781SOL     OW11153   1.878   3.075   4.654
 2781SOL    HW211154   1.918   3.017   4.590
 2781SOL    HW311155   1.856   3.154   4.605
 2781SOL    MW411156   1.880   3.078   4.639
 2782SOL     OW11157   3.442   3.849   4.571
 2782SOL    HW211158   3.363   3.894   4.542
 2782SOL    HW311159   3.438   3.763   4.529
 2782SOL    MW411160   3.431   3.844   4.562
 2783SOL     OW11161   3.206   3.971   4.476
 2783SOL    HW211162   3.133   3.912   4.494
 2783SOL    HW311163   3.178   4.055   4.512
 2783SOL    MW411164   3.193   3.974   4.483
 2784SOL     OW11165   2.212   4.101   4.523
 2784SOL    HW211166   2.180   4.022   4.568
 2784SOL    HW311167   2.229   4.072   4.433
 2784SOL    MW411168   2.210   4.087   4.517
 2785SOL     OW11169   2.397   4.313   4.561
 2785SOL    HW211170   2.357   4.228   4.579
 2785SOL    HW311171   2.393   4.321   4.466
 2785SOL    MW411172   2.391   4.303   4.551
 2786SOL     OW11173   2.912   0.529   4.509
 2786SOL    HW211174   2.920   0.499   4.418
 2786SOL    HW311175   2.820   0.518   4.530
 2786SOL    MW411176   2.901   0.523   4.499
 2787SOL     OW11177   2.667   0.437   4.632
 2787SOL    HW211178   2.691   0.345   4.618
 2787SOL    HW311179   2.706   0.459   4.716
 2787SOL    MW411180   2.675   0.428   4.641
 2788SOL     OW11181   3.273   0.263   4.712
 2788SOL    HW211182   3.187   0.296   4.739
 2788SOL    HW311183   3.296   0.314   4.634
 2788SOL    MW411184   3.265   0.274   4.705
 2789SOL     OW11185   2.707   0.868   4.570
 2789SOL    HW211186   2.790   0.854   4.615
 2789SOL    HW311187   2.731   0.876   4.478
 2789SOL    MW411188   2.721   0.868   4.564
 2790SOL     OW11189   3.420   0.494   4.820
 2790SOL    HW211190   3.351   0.428   4.808
 2790SOL    HW311191   3.499   0.452   4.787
 2790SOL    MW411192   3.421   0.480   4.814
 2791SOL     OW11193   2.132   0.956   4.505
 2791SOL    HW211194   2.106   1.048   4.507
 2791SOL    HW311195   2.051   0.907   4.520
 2791SOL    MW411196   2.118   0.962   4.507
 2792SOL     OW11197   2.546   1.109   4.649
 2792SOL    HW211198   2.603   1.043   4.609
 2792SOL    HW311199   2.476   1.058   4.691
 2792SOL    MW411200   2.544   1.094   4.649
 2793SOL     OW11201   3.030   1.345   4.556
 2793SOL    HW211202   2.943   1.332   4.594
 2793SOL    HW311203   3.016   1.337   4.462
 2793SOL    MW411204   3.016   1.342   4.548
 2794SOL     OW11205   3.046   1.623   4.520
 2794SOL    HW211206   2.956   1.653   4.527
 2794SOL    HW311207   3.043   1.532   4.550
 2794SOL    MW411208   3.034   1.615   4.525
 2795SOL     OW11209   2.765   1.659   4.504
 2795SOL    HW211210   2.748   1.745   4.542
 2795SOL    HW311211   2.726   1.663   4.417
 2795SOL    MW411212   2.758   1.671   4.497
 2796SOL     OW11213   2.670   1.906   4.598
 2796SOL    HW211214   2.686   1.994   4.564
 2796SOL    HW311215   2.575   1.893   4.589
 2796SOL    MW411216   2.659   1.916   4.592
 2797SOL     OW11217   2.780   2.171   4.527
 2797SOL    HW211218   2.697   2.203   4.492
 2797SOL    HW311219   2.821   2.124   4.454
 2797SOL    MW411220   2.775   2.169   4.513
 2798SOL     OW11221   3.028   2.284   4.633
 2798SOL    HW211222   3.041   2.271   4.727
 2798SOL    HW311223   2.939   2.252   4.617
 2798SOL    MW411224   3.018   2.278   4.643
 2799SOL     OW11225   2.454   2.926   4.678
 2799SOL    HW211226   2.449   3.007   4.729
 2799SOL    HW311227   2.377   2.927   4.623
 2799SOL    MW411228   2.443   2.937   4.678
 2800SOL     OW11229   3.627   3.221   4.516
 2800SOL    HW211230   3.620   3.226   4.420
 2800SOL    HW311231   3.626   3.312   4.544
 2800SOL    MW411232   3.626   3.234   4.507
 2801SOL     OW11233   2.571   2.663   4.583
 2801SOL    HW211234   2.540   2.730   4.643
 2801SOL    HW311235   2.519   2.675   4.503
 2801SOL    MW411236   2.560   2.673   4.580
 2802SOL     OW11237   2.898   3.552   4.550
 2802SOL    HW211238   2.963   3.496   4.507
 2802SOL    HW311239   2.820   3.498   4.556
 2802SOL    MW411240   2.896   3.538   4.546
 2803SOL     OW11241   2.872   2.928   4.490
 2803SOL    HW211242   2.926   2.892   4.561
 2803SOL    HW311243   2.859   2.854   4.430
 2803SOL    MW411244   2.877   2.913   4.492
 2804SOL     OW11245   2.918   4.627   4.667
 2804SOL    HW211246   2.932   4.555   4.606
 2804SOL    HW311247   2.831   4.660   4.647
 2804SOL    MW411248   2.909   4.622   4.656
 2805SOL     OW11249   3.592   3.704   4.799
 2805SOL    HW211250   3.531   3.719   4.871
 2805SOL    HW311251   3.555   3.752   4.725
 2805SOL    MW411252   3.579   3.712   4.799
 2806SOL     OW11253   3.914   3.814   4.569
 2806SOL    HW211254   3.949   3.807   4.658
 2806SOL    HW311255   3.920   3.725   4.534
 2806SOL    MW411256   3.919   3.801   4.576
 2807SOL     OW11257   2.970   3.826   4.485
 2807SOL    HW211258   2.892   3.877   4.504
 2807SOL    HW311259   2.958   3.744   4.533
 2807SOL    MW411260   2.958   3.822   4.494
 2808SOL     OW11261   2.903   4.397   4.514
 2808SOL    HW211262   2.822   4.359   4.547
 2808SOL    HW311263   2.972   4.356   4.566
 2808SOL    MW411264   2.901   4.387   4.525
 2809SOL     OW11265   3.017   0.355   4.710
 2809SOL    HW211266   3.002   0.411   4.634
 2809SOL    HW311267   2.947   0.290   4.707
 2809SOL    MW411268   3.006   0.353   4.700
 2810SOL     OW11269   3.377   0.416   4.510
 2810SOL    HW211270   3.361   0.421   4.416
 2810SOL    HW311271   3.391   0.507   4.537
 2810SOL    MW411272   3.377   0.429   4.501
 2811SOL     OW11273   2.433   0.486   4.516
 2811SOL    HW211274   2.506   0.454   4.569
 2811SOL    HW311275   2.430   0.580   4.533
 2811SOL    MW411276   2.442   0.494   4.525
 2812SOL     OW11277   2.332   0.944   4.723
 2812SOL    HW211278   2.286   0.916   4.802
 2812SOL    HW311279   2.263   0.977   4.666
 2812SOL    MW411280   2.317   0.945   4.726
 2813SOL     OW11281   2.828   0.514   4.840
 2813SOL    HW211282   2.858   0.604   4.828
 2813SOL    HW311283   2.907   0.461   4.830
 2813SOL    MW411284   2.842   0.519   4.837
 2814SOL     OW11285   3.403   0.692   4.601
 2814SOL    HW211286   3.479   0.750   4.599
 2814SOL    HW311287   3.412   0.643   4.682
 2814SOL    MW411288   3.414   0.693   4.611
 2815SOL     OW11289   3.463   1.238   4.562
 2815SOL    HW211290   3.389   1.193   4.602
 2815SOL    HW311291   3.540   1.198   4.603
 2815SOL    MW411292   3.464   1.226   4.573
 2816SOL     OW11293   2.756   1.321   4.659
 2816SOL    HW211294   2.686   1.259   4.639
 2816SOL    HW311295   2.715   1.407   4.651
 2816SOL    MW411296   2.741   1.324   4.655
 2817SOL     OW11297   4.108   0.883   4.508
 2817SOL    HW211298   4.077   0.887   4.417
 2817SOL    HW311299   4.194   0.842   4.503
 2817SOL    MW411300   4.115   0.878   4.495
 2818SOL     OW11301   3.484   1.524   4.599
 2818SOL    HW211302   3.422   1.563   4.538
 2818SOL    HW311303   3.479   1.430   4.582
 2818SOL    MW411304   3.475   1.517   4.589
 2819SOL     OW11305   3.240   1.803   4.602
 2819SOL    HW211306   3.192   1.881   4.575
 2819SOL    HW311307   3.176   1.733   4.597
 2819SOL    MW411308   3.226   1.804   4.597
 2820SOL     OW11309   3.201   2.089   4.526
 2820SOL    HW211310   3.142   2.159   4.554
 2820SOL    HW311311   3.243   2.123   4.448
 2820SOL    MW411312   3.199   2.103   4.520
 2821SOL     OW11313   3.487   1.829   4.758
 2821SOL    HW211314   3.521   1.740   4.762
 2821SOL    HW311315   3.394   1.818   4.738
 2821SOL    MW411316   3.479   1.816   4.756
 2822SOL     OW11317   2.768   2.667   4.377
 2822SOL    HW211318   2.712   2.673   4.454
 2822SOL    HW311319   2.852   2.637   4.410
 2822SOL    MW411320   2.771   2.664   4.391
 2823SOL     OW11321   3.460   2.482   4.496
 2823SOL    HW211322   3.365   2.473   4.492
 2823SOL    HW311323   3.474   2.573   4.524
 2823SOL    MW411324   3.449   2.493   4.499
 2824SOL     OW11325   3.185   2.442   4.475
 2824SOL    HW211326   3.139   2.451   4.392
 2824SOL    HW311327   3.133   2.377   4.524
 2824SOL    MW411328   3.172   2.434   4.471
 2825SOL     OW11329   3.544   2.738   4.572
 2825SOL    HW211330   3.607   2.808   4.555
 2825SOL    HW311331   3.572   2.699   4.654
 2825SOL    MW411332   3.556   2.742   4.580
 2826SOL     OW11333   3.314   3.123   4.565
 2826SOL    HW211334   3.315   3.028   4.569
 2826SOL    HW311335   3.405   3.149   4.549
 2826SOL    MW411336   3.326   3.114   4.564
 2827SOL     OW11337   3.303   2.850   4.541
 2827SOL    HW211338   3.307   2.878   4.449
 2827SOL    HW311339   3.389   2.813   4.558
 2827SOL    MW411340   3.314   2.849   4.531
 2828SOL     OW11341   4.162   2.501   4.552
 2828SOL    HW211342   4.248   2.464   4.530
 2828SOL    HW311343   4.177   2.595   4.558
 2828SOL    MW411344   4.175   2.509   4.549
 2829SOL     OW11345   3.640   3.482   4.597
 2829SOL    HW211346   3.639   3.531   4.679
 2829SOL    HW311347   3.726   3.500   4.559
 2829SOL    MW411348   3.651   3.491   4.603
 2830SOL     OW11349   3.600   4.217   4.615
 2830SOL    HW211350   3.678   4.270   4.630
 2830SOL    HW311351   3.632   4.137   4.575
 2830SOL    MW411352   3.614   4.214   4.612
 2831SOL     OW11353   3.124   4.229   4.589
 2831SOL    HW211354   3.130   4.225   4.685
 2831SOL    HW311355   3.204   4.274   4.562
 2831SOL    MW411356   3.135   4.235   4.598
 2832SOL     OW11357   3.162   0.055   4.560
 2832SOL    HW211358   3.088   0.030   4.615
 2832SOL    HW311359   3.202   0.130   4.605
 2832SOL    MW411360   3.158   0.061   4.573
 2833SOL     OW11361   3.370   4.322   4.494
 2833SOL    HW211362   3.439   4.277   4.543
 2833SOL    HW311363   3.386   4.415   4.510
 2833SOL    MW411364   3.381   4.328   4.502
 2834SOL     OW11365   3.690   3.969   4.530
 2834SOL    HW211366   3.755   3.907   4.564
 2834SOL    HW311367   3.606   3.934   4.558
 2834SOL    MW411368   3.687   3.956   4.538
 2835SOL     OW11369   3.494   0.094   4.718
 2835SOL    HW211370   3.471   0.032   4.649
 2835SOL    HW311371   3.411   0.136   4.741
 2835SOL    MW411372   3.480   0.092   4.712
 2836SOL     OW11373   3.186   0.856   4.505
 2836SOL    HW211374   3.212   0.935   4.553
 2836SOL    HW311375   3.258   0.795   4.520
 2836SOL    MW411376   3.199   0.859   4.513
 2837SOL     OW11377   3.212   1.148   4.638
 2837SOL    HW211378   3.186   1.158   4.729
 2837SOL    HW311379   3.161   1.213   4.591
 2837SOL    MW411380   3.201   1.158   4.644
 2838SOL     OW11381   4.012   1.520   4.472
 2838SOL    HW211382   4.076   1.451   4.489
 2838SOL    HW311383   3.933   1.490   4.516
 2838SOL    MW411384   4.010   1.507   4.480
 2839SOL     OW11385   3.762   1.163   4.568
 2839SOL    HW211386   3.792   1.180   4.479
 2839SOL    HW311387   3.841   1.137   4.615
 2839SOL    MW411388   3.776   1.162   4.563
 2840SOL     OW11389   0.124   0.807   4.508
 2840SOL    HW211390   0.076   0.821   4.427
 2840SOL    HW311391   0.134   0.712   4.514
 2840SOL    MW411392   0.119   0.796   4.498
 2841SOL     OW11393   4.245   0.498   4.594
 2841SOL    HW211394   4.247   0.494   4.498
 2841SOL    HW311395   4.178   0.435   4.620
 2841SOL    MW411396   4.237   0.489   4.585
 2842SOL     OW11397   3.613   1.690   4.272
 2842SOL    HW211398   3.681   1.712   4.336
 2842SOL    HW311399   3.534   1.677   4.325
 2842SOL    MW411400   3.612   1.691   4.288
 2843SOL     OW11401   3.757   1.939   4.665
 2843SOL    HW211402   3.666   1.917   4.684
 2843SOL    HW311403   3.753   2.030   4.634
 2843SOL    MW411404   3.744   1.948   4.664
 2844SOL     OW11405   3.408   2.110   4.742
 2844SOL    HW211406   3.450   2.031   4.776
 2844SOL    HW311407   3.360   2.080   4.664
 2844SOL    MW411408   3.407   2.095   4.736
 2845SOL     OW11409   4.165   2.128   4.830
 2845SOL    HW211410   4.131   2.045   4.798
 2845SOL    HW311411   4.187   2.110   4.922
 2845SOL    MW411412   4.164   2.114   4.838
 2846SOL     OW11413   4.040   1.908   4.714
 2846SOL    HW211414   3.945   1.915   4.705
 2846SOL    HW311415   4.057   1.815   4.727
 2846SOL    MW411416   4.030   1.897   4.714
 2847SOL     OW11417   3.757   2.200   4.555
 2847SOL    HW211418   3.838   2.238   4.588
 2847SOL    HW311419   3.687   2.251   4.596
 2847SOL    MW411420   3.758   2.211   4.565
 2848SOL     OW11421   3.623   2.580   4.835
 2848SOL    HW211422   3.594   2.495   4.803
 2848SOL    HW311423   3.697   2.560   4.893
 2848SOL    MW411424   3.629   2.566   4.839
 2849SOL     OW11425   3.720   2.967   4.536
 2849SOL    HW211426   3.808   2.979   4.570
 2849SOL    HW311427   3.683   3.055   4.532
 2849SOL    MW411428   3.726   2.980   4.540
 2850SOL     OW11429   4.015   3.020   4.657
 2850SOL    HW211430   4.025   3.043   4.749
 2850SOL    HW311431   4.074   2.946   4.644
 2850SOL    MW411432   4.024   3.013   4.668
 2851SOL     OW11433   3.201   3.386   4.544
 2851SOL    HW211434   3.214   3.310   4.601
 2851SOL    HW311435   3.180   3.348   4.458
 2851SOL    MW411436   3.200   3.371   4.540
 2852SOL     OW11437   4.028   3.281   4.513
 2852SOL    HW211438   4.028   3.198   4.561
 2852SOL    HW311439   4.006   3.256   4.423
 2852SOL    MW411440   4.025   3.266   4.507
 2853SOL     OW11441   3.414   3.597   4.464
 2853SOL    HW211442   3.348   3.537   4.497
 2853SOL    HW311443   3.496   3.569   4.505
 2853SOL    MW411444   3.416   3.586   4.474
 2854SOL     OW11445   3.896   3.542   4.515
 2854SOL    HW211446   3.893   3.563   4.422
 2854SOL    HW311447   3.918   3.449   4.519
 2854SOL    MW411448   3.899   3.533   4.503
 2855SOL     OW11449   0.113   2.935   4.491
 2855SOL    HW211450   0.131   2.928   4.397
 2855SOL    HW311451   0.075   3.022   4.501
 2855SOL    MW411452   0.110   2.945   4.480
 2856SOL     OW11453   4.087   4.010   4.457
 2856SOL    HW211454   4.067   4.078   4.521
 2856SOL    HW311455   4.017   3.945   4.467
 2856SOL    MW411456   4.075   4.010   4.467
 2857SOL     OW11457   3.846   4.412   4.598
 2857SOL    HW211458   3.847   4.404   4.503
 2857SOL    HW311459   3.852   4.506   4.614
 2857SOL    MW411460   3.847   4.423   4.588
 2858SOL     OW11461   3.402   4.591   4.506
 2858SOL    HW211462   3.441   4.631   4.428
 2858SOL    HW311463   3.317   4.633   4.514
 2858SOL    MW411464   3.396   4.602   4.497
 2859SOL     OW11465   3.637   0.904   4.560
 2859SOL    HW211466   3.690   0.983   4.567
 2859SOL    HW311467   3.624   0.891   4.466
 2859SOL    MW411468   3.642   0.912   4.549
 2860SOL     OW11469   3.869   0.709   4.570
 2860SOL    HW211470   3.957   0.747   4.564
 2860SOL    HW311471   3.812   0.784   4.586
 2860SOL    MW411472   3.873   0.724   4.571
 2861SOL     OW11473   4.468   0.324   4.614
 2861SOL    HW211474   4.542   0.379   4.589
 2861SOL    HW311475   4.393   0.383   4.616
 2861SOL    MW411476   4.468   0.339   4.611
 2862SOL     OW11477   0.427   0.452   4.555
 2862SOL    HW211478   0.450   0.369   4.598
 2862SOL    HW311479   0.442   0.436   4.462
 2862SOL    MW411480   0.432   0.439   4.548
 2863SOL     OW11481   4.034   0.324   4.639
 2863SOL    HW211482   3.970   0.360   4.579
 2863SOL    HW311483   4.057   0.239   4.601
 2863SOL    MW411484   4.029   0.317   4.626
 2864SOL     OW11485   3.753   1.477   4.571
 2864SOL    HW211486   3.759   1.382   4.573
 2864SOL    HW311487   3.661   1.495   4.591
 2864SOL    MW411488   3.741   1.467   4.574
 2865SOL     OW11489   4.446   1.449   4.581
 2865SOL    HW211490   4.536   1.434   4.551
 2865SOL    HW311491   4.439   1.544   4.589
 2865SOL    MW411492   4.457   1.459   4.578
 2866SOL     OW11493   0.231   1.443   4.474
 2866SOL    HW211494   0.272   1.376   4.529
 2866SOL    HW311495   0.282   1.522   4.489
 2866SOL    MW411496   0.243   1.444   4.483
 2867SOL     OW11497   3.798   1.761   4.459
 2867SOL    HW211498   3.809   1.681   4.512
 2867SOL    HW311499   3.780   1.830   4.523
 2867SOL    MW411500   3.797   1.759   4.475
 2868SOL     OW11501   3.060   2.682   4.541
 2868SOL    HW211502   3.135   2.741   4.550
 2868SOL    HW311503   3.098   2.595   4.542
 2868SOL    MW411504   3.075   2.678   4.543
 2869SOL     OW11505   4.223   2.095   4.247
 2869SOL    HW211506   4.152   2.057   4.196
 2869SOL    HW311507   4.215   2.054   4.333
 2869SOL    MW411508   4.213   2.085   4.252
 2870SOL     OW11509   4.401   2.194   4.621
 2870SOL    HW211510   4.363   2.198   4.709
 2870SOL    HW311511   4.422   2.286   4.600
 2870SOL    MW411512   4.398   2.207   4.630
 2871SOL     OW11513   4.285   1.973   4.488
 2871SOL    HW211514   4.215   1.970   4.553
 2871SOL    HW311515   4.341   2.045   4.517
 2871SOL    MW411516   4.283   1.982   4.501
 2872SOL     OW11517   3.557   2.329   4.718
 2872SOL    HW211518   3.512   2.361   4.640
 2872SOL    HW311519   3.507   2.252   4.745
 2872SOL    MW411520   3.545   2.323   4.712
 2873SOL     OW11521   0.400   2.586   4.547
 2873SOL    HW211522   0.382   2.492   4.553
 2873SOL    HW311523   0.495   2.592   4.561
 2873SOL    MW411524   0.410   2.574   4.550
 2874SOL     OW11525   4.200   2.776   4.578
 2874SOL    HW211526   4.291   2.784   4.607
 2874SOL    HW311527   4.202   2.804   4.487
 2874SOL    MW411528   4.212   2.781   4.570
 2875SOL     OW11529   0.044   3.199   4.523
 2875SOL    HW211530   0.033   3.224   4.431
 2875SOL    HW311531   0.133   3.225   4.544
 2875SOL    MW411532   0.054   3.205   4.514
 2876SOL     OW11533   0.165   3.625   4.522
 2876SOL    HW211534   0.187   3.604   4.432
 2876SOL    HW311535   0.072   3.648   4.519
 2876SOL    MW411536   0.155   3.625   4.510
 2877SOL     OW11537   4.257   4.616   4.618
 2877SOL    HW211538   4.181   4.656   4.577
 2877SOL    HW311539   4.267   4.662   4.701
 2877SOL    MW411540   4.248   4.627   4.623
 2878SOL     OW11541   3.798   0.062   4.664
 2878SOL    HW211542   3.833   0.151   4.664
 2878SOL    HW311543   3.708   0.072   4.697
 2878SOL    MW411544   3.790   0.075   4.668
 2879SOL     OW11545   0.316   4.133   4.735
 2879SOL    HW211546   0.234   4.182   4.745
 2879SOL    HW311547   0.288   4.044   4.711
 2879SOL    MW411548   0.301   4.128   4.733
 2880SOL     OW11549   3.607   0.338   4.635
 2880SOL    HW211550   3.592   0.247   4.663
 2880SOL    HW311551   3.528   0.361   4.586
 2880SOL    MW411552   3.595   0.329   4.632
 2881SOL     OW11553   4.266   4.379   4.274
 2881SOL    HW211554   4.351   4.351   4.238
 2881SOL    HW311555   4.271   4.356   4.367
 2881SOL    MW411556   4.278   4.372   4.282
 2882NA      NA11557   2.608   4.394   0.608
 2883NA      NA11558   0.638   2.335   0.425
   4.49070   4.66690  10.00000
