Gromacs Runs On Most of All Computer Systems in water t= 630.00000 step= 630000
11558
    1RG35     P    1   2.105   2.878   4.458
    1RG35   O1P    2   2.087   2.789   4.343
    1RG35   O2P    3   2.035   3.003   4.436
    1RG35   O5'    4   2.028   2.810   4.578
    1RG35   C5'    5   1.883   2.811   4.588
    1RG35  H5'1    6   1.832   2.819   4.492
    1RG35  H5'2    7   1.856   2.902   4.642
    1RG35   C4'    8   1.825   2.693   4.668
    1RG35   H4'    9   1.723   2.715   4.701
    1RG35   O4'   10   1.820   2.588   4.578
    1RG35   C1'   11   1.885   2.480   4.638
    1RG35   H1'   12   1.814   2.434   4.706
    1RG35    N9   13   1.945   2.390   4.546
    1RG35    C8   14   2.033   2.421   4.447
    1RG35    H8   15   2.080   2.518   4.435
    1RG35    N7   16   2.061   2.322   4.369
    1RG35    C5   17   1.989   2.217   4.418
    1RG35    C6   18   1.971   2.079   4.372
    1RG35    O6   19   2.022   2.018   4.276
    1RG35    N1   20   1.889   2.006   4.452
    1RG35    H1   21   1.888   1.909   4.424
    1RG35    C2   22   1.832   2.051   4.566
    1RG35    N2   23   1.746   1.972   4.618
    1RG35   H21   24   1.729   1.882   4.573
    1RG35   H22   25   1.689   2.005   4.694
    1RG35    N3   26   1.832   2.178   4.604
    1RG35    C4   27   1.912   2.255   4.525
    1RG35   C3'   28   1.903   2.646   4.793
    1RG35   H3'   29   1.961   2.733   4.826
    1RG35   C2'   30   1.993   2.540   4.727
    1RG35  H2'1   31   2.070   2.587   4.665
    1RG35   O2'   32   2.053   2.451   4.819
    1RG35  HO'2   33   2.114   2.389   4.777
    1RG35   O3'   34   1.811   2.591   4.890
    1RG35   H3T   35   1.856   2.515   4.929
    1RG35   O3P   36   2.239   2.891   4.514
    2SOL     OW   37   0.515   0.080   0.462
    2SOL    HW2   38   0.509  -0.008   0.424
    2SOL    HW3   39   0.601   0.111   0.436
    2SOL    MW4   40   0.525   0.072   0.453
    3SOL     OW   41   4.109   0.136   0.520
    3SOL    HW2   42   4.204   0.135   0.530
    3SOL    HW3   43   4.089   0.221   0.482
    3SOL    MW4   44   4.119   0.147   0.516
    4SOL     OW   45   3.843   0.538   0.489
    4SOL    HW2   46   3.763   0.577   0.455
    4SOL    HW3   47   3.834   0.542   0.584
    4SOL    MW4   48   3.831   0.543   0.497
    5SOL     OW   49   0.396   1.676   0.292
    5SOL    HW2   50   0.407   1.619   0.216
    5SOL    HW3   51   0.388   1.616   0.366
    5SOL    MW4   52   0.396   1.661   0.291
    6SOL     OW   53   1.434   0.750   0.442
    6SOL    HW2   54   1.365   0.817   0.441
    6SOL    HW3   55   1.498   0.782   0.505
    6SOL    MW4   56   1.433   0.763   0.450
    7SOL     OW   57   0.243   0.489   0.464
    7SOL    HW2   58   0.231   0.486   0.558
    7SOL    HW3   59   0.251   0.398   0.437
    7SOL    MW4   60   0.243   0.477   0.473
    8SOL     OW   61   0.460   0.960   0.475
    8SOL    HW2   62   0.477   0.952   0.569
    8SOL    HW3   63   0.438   0.871   0.447
    8SOL    MW4   64   0.460   0.947   0.484
    9SOL     OW   65   0.922   0.898   0.460
    9SOL    HW2   66   0.910   0.877   0.553
    9SOL    HW3   67   0.848   0.956   0.440
    9SOL    MW4   68   0.910   0.903   0.470
   10SOL     OW   69   0.734   1.076   0.378
   10SOL    HW2   70   0.713   1.097   0.287
   10SOL    HW3   71   0.650   1.055   0.418
   10SOL    MW4   72   0.720   1.076   0.371
   11SOL     OW   73   4.297   1.517   0.368
   11SOL    HW2   74   4.237   1.580   0.407
   11SOL    HW3   75   4.294   1.536   0.274
   11SOL    MW4   76   4.289   1.528   0.361
   12SOL     OW   77   4.093   2.369   0.579
   12SOL    HW2   78   4.007   2.356   0.618
   12SOL    HW3   79   4.099   2.462   0.561
   12SOL    MW4   80   4.083   2.379   0.582
   13SOL     OW   81   0.063   1.600   0.469
   13SOL    HW2   82   0.033   1.636   0.553
   13SOL    HW3   83  -0.014   1.555   0.434
   13SOL    MW4   84   0.049   1.599   0.475
   14SOL     OW   85   0.931   2.186   0.137
   14SOL    HW2   86   0.946   2.280   0.144
   14SOL    HW3   87   0.998   2.155   0.077
   14SOL    MW4   88   0.942   2.194   0.130
   15SOL     OW   89   0.191   2.649   0.351
   15SOL    HW2   90   0.171   2.735   0.388
   15SOL    HW3   91   0.283   2.656   0.324
   15SOL    MW4   92   0.201   2.661   0.352
   16SOL     OW   93   4.111   3.372   0.440
   16SOL    HW2   94   4.106   3.296   0.382
   16SOL    HW3   95   4.119   3.335   0.528
   16SOL    MW4   96   4.111   3.357   0.444
   17SOL     OW   97   0.196   2.914   0.455
   17SOL    HW2   98   0.285   2.948   0.459
   17SOL    HW3   99   0.140   2.991   0.465
   17SOL    MW4  100   0.201   2.929   0.457
   18SOL     OW  101   0.577   3.242   0.360
   18SOL    HW2  102   0.673   3.244   0.361
   18SOL    HW3  103   0.552   3.334   0.361
   18SOL    MW4  104   0.587   3.255   0.360
   19SOL     OW  105   0.648   3.746   0.324
   19SOL    HW2  106   0.704   3.792   0.261
   19SOL    HW3  107   0.629   3.811   0.391
   19SOL    MW4  108   0.653   3.760   0.324
   20SOL     OW  109   4.175   3.821   0.457
   20SOL    HW2  110   4.196   3.869   0.537
   20SOL    HW3  111   4.210   3.733   0.472
   20SOL    MW4  112   4.183   3.816   0.470
   21SOL     OW  113   0.121   3.821   0.206
   21SOL    HW2  114   0.191   3.832   0.271
   21SOL    HW3  115   0.156   3.862   0.127
   21SOL    MW4  116   0.135   3.828   0.204
   22SOL     OW  117   0.002   4.433   0.483
   22SOL    HW2  118  -0.041   4.358   0.443
   22SOL    HW3  119  -0.050   4.452   0.561
   22SOL    MW4  120  -0.011   4.426   0.488
   23SOL     OW  121   4.379   4.247   0.313
   23SOL    HW2  122   4.381   4.152   0.322
   23SOL    HW3  123   4.287   4.270   0.323
   23SOL    MW4  124   4.367   4.238   0.315
   24SOL     OW  125   4.385   3.967   0.355
   24SOL    HW2  126   4.311   3.911   0.379
   24SOL    HW3  127   4.441   3.911   0.301
   24SOL    MW4  128   4.383   3.952   0.351
   25SOL     OW  129   0.444   3.059   0.536
   25SOL    HW2  130   0.489   3.085   0.616
   25SOL    HW3  131   0.451   3.135   0.479
   25SOL    MW4  132   0.451   3.072   0.539
   26SOL     OW  133   0.501   4.461   0.446
   26SOL    HW2  134   0.567   4.438   0.511
   26SOL    HW3  135   0.426   4.405   0.467
   26SOL    MW4  136   0.500   4.450   0.457
   27SOL     OW  137   0.277   0.212   0.371
   27SOL    HW2  138   0.214   0.141   0.367
   27SOL    HW3  139   0.360   0.170   0.390
   27SOL    MW4  140   0.280   0.197   0.373
   28SOL     OW  141   0.029   0.553   0.297
   28SOL    HW2  142   0.053   0.561   0.205
   28SOL    HW3  143   0.110   0.525   0.340
   28SOL    MW4  144   0.043   0.550   0.291
   29SOL     OW  145   1.170   4.535   0.364
   29SOL    HW2  146   1.111   4.470   0.402
   29SOL    HW3  147   1.209   4.492   0.288
   29SOL    MW4  148   1.167   4.521   0.359
   30SOL     OW  149   1.190   1.003   0.446
   30SOL    HW2  150   1.103   0.965   0.433
   30SOL    HW3  151   1.217   0.971   0.533
   30SOL    MW4  152   1.182   0.994   0.456
   31SOL     OW  153   0.674   0.508   0.448
   31SOL    HW2  154   0.764   0.540   0.441
   31SOL    HW3  155   0.678   0.419   0.413
   31SOL    MW4  156   0.686   0.500   0.442
   32SOL     OW  157   0.295   1.210   0.490
   32SOL    HW2  158   0.357   1.137   0.488
   32SOL    HW3  159   0.212   1.172   0.463
   32SOL    MW4  160   0.293   1.195   0.486
   33SOL     OW  161   0.055   2.058   0.398
   33SOL    HW2  162   0.009   2.125   0.347
   33SOL    HW3  163   0.099   2.004   0.333
   33SOL    MW4  164   0.055   2.060   0.383
   34SOL     OW  165   0.501   1.969   0.381
   34SOL    HW2  166   0.436   2.040   0.383
   34SOL    HW3  167   0.452   1.893   0.351
   34SOL    MW4  168   0.486   1.969   0.377
   35SOL     OW  169   0.816   2.734   0.187
   35SOL    HW2  170   0.807   2.811   0.130
   35SOL    HW3  171   0.869   2.765   0.261
   35SOL    MW4  172   0.822   2.748   0.189
   36SOL     OW  173   0.641   2.486   0.145
   36SOL    HW2  174   0.707   2.551   0.168
   36SOL    HW3  175   0.660   2.464   0.054
   36SOL    MW4  176   0.652   2.492   0.136
   37SOL     OW  177   3.908   2.155   0.264
   37SOL    HW2  178   3.922   2.133   0.172
   37SOL    HW3  179   3.995   2.171   0.299
   37SOL    MW4  180   3.921   2.154   0.257
   38SOL     OW  181   1.264   2.421   0.503
   38SOL    HW2  182   1.235   2.337   0.469
   38SOL    HW3  183   1.338   2.446   0.448
   38SOL    MW4  184   1.270   2.413   0.492
   39SOL     OW  185   0.522   2.491   0.496
   39SOL    HW2  186   0.511   2.546   0.419
   39SOL    HW3  187   0.617   2.475   0.501
   39SOL    MW4  188   0.533   2.496   0.487
   40SOL     OW  189   4.316   3.006   0.359
   40SOL    HW2  190   4.329   2.924   0.407
   40SOL    HW3  191   4.317   2.980   0.267
   40SOL    MW4  192   4.318   2.992   0.353
   41SOL     OW  193   0.478   2.698   0.289
   41SOL    HW2  194   0.531   2.651   0.225
   41SOL    HW3  195   0.539   2.757   0.333
   41SOL    MW4  196   0.493   2.700   0.286
   42SOL     OW  197   0.881   0.420   0.170
   42SOL    HW2  198   0.880   0.437   0.076
   42SOL    HW3  199   0.880   0.506   0.211
   42SOL    MW4  200   0.881   0.433   0.163
   43SOL     OW  201   0.264   3.605   0.472
   43SOL    HW2  202   0.254   3.696   0.443
   43SOL    HW3  203   0.345   3.575   0.430
   43SOL    MW4  204   0.273   3.613   0.462
   44SOL     OW  205   0.533   3.516   0.408
   44SOL    HW2  206   0.569   3.581   0.347
   44SOL    HW3  207   0.556   3.550   0.495
   44SOL    MW4  208   0.541   3.529   0.411
   45SOL     OW  209   1.128   3.644   0.472
   45SOL    HW2  210   1.044   3.608   0.447
   45SOL    HW3  211   1.190   3.572   0.458
   45SOL    MW4  212   1.125   3.630   0.467
   46SOL     OW  213   0.268   4.304   0.459
   46SOL    HW2  214   0.214   4.351   0.396
   46SOL    HW3  215   0.235   4.214   0.458
   46SOL    MW4  216   0.257   4.299   0.451
   47SOL     OW  217   0.852   3.576   0.407
   47SOL    HW2  218   0.799   3.640   0.359
   47SOL    HW3  219   0.805   3.562   0.489
   47SOL    MW4  220   0.839   3.583   0.411
   48SOL     OW  221   0.695   4.198   0.453
   48SOL    HW2  222   0.640   4.248   0.392
   48SOL    HW3  223   0.698   4.252   0.532
   48SOL    MW4  224   0.688   4.212   0.455
   49SOL     OW  225   0.777   0.211   0.348
   49SOL    HW2  226   0.851   0.156   0.374
   49SOL    HW3  227   0.815   0.275   0.288
   49SOL    MW4  228   0.792   0.212   0.344
   50SOL     OW  229   0.931   0.613   0.385
   50SOL    HW2  230   0.939   0.708   0.398
   50SOL    HW3  231   1.011   0.577   0.422
   50SOL    MW4  232   0.942   0.621   0.391
   51SOL     OW  233   0.445   0.686   0.418
   51SOL    HW2  234   0.376   0.626   0.447
   51SOL    HW3  235   0.526   0.635   0.425
   51SOL    MW4  236   0.447   0.672   0.423
   52SOL     OW  237   1.515   0.476   0.400
   52SOL    HW2  238   1.522   0.468   0.495
   52SOL    HW3  239   1.495   0.569   0.385
   52SOL    MW4  240   1.514   0.487   0.410
   53SOL     OW  241   1.918   0.819   0.417
   53SOL    HW2  242   1.829   0.837   0.446
   53SOL    HW3  243   1.908   0.784   0.329
   53SOL    MW4  244   1.905   0.817   0.410
   54SOL     OW  245   1.515   4.612   0.175
   54SOL    HW2  246   1.495   4.704   0.161
   54SOL    HW3  247   1.595   4.612   0.228
   54SOL    MW4  248   1.523   4.624   0.181
   55SOL     OW  249   0.894   1.595   0.418
   55SOL    HW2  250   0.862   1.506   0.429
   55SOL    HW3  251   0.895   1.631   0.507
   55SOL    MW4  252   0.890   1.588   0.431
   56SOL     OW  253   0.825   1.320   0.474
   56SOL    HW2  254   0.797   1.242   0.427
   56SOL    HW3  255   0.916   1.301   0.498
   56SOL    MW4  256   0.834   1.307   0.471
   57SOL     OW  257   1.402   1.382   0.313
   57SOL    HW2  258   1.389   1.291   0.289
   57SOL    HW3  259   1.315   1.421   0.313
   57SOL    MW4  260   1.389   1.375   0.310
   58SOL     OW  261   1.098   1.286   0.542
   58SOL    HW2  262   1.135   1.206   0.504
   58SOL    HW3  263   1.126   1.356   0.483
   58SOL    MW4  264   1.107   1.285   0.529
   59SOL     OW  265   1.153   1.503   0.363
   59SOL    HW2  266   1.215   1.575   0.373
   59SOL    HW3  267   1.067   1.544   0.372
   59SOL    MW4  268   1.150   1.518   0.366
   60SOL     OW  269   4.429   2.279   0.266
   60SOL    HW2  270   4.449   2.361   0.311
   60SOL    HW3  271   4.462   2.291   0.178
   60SOL    MW4  272   4.436   2.291   0.260
   61SOL     OW  273   0.152   1.822   0.271
   61SOL    HW2  274   0.100   1.768   0.331
   61SOL    HW3  275   0.238   1.781   0.270
   61SOL    MW4  276   0.157   1.810   0.279
   62SOL     OW  277   0.807   2.147   0.499
   62SOL    HW2  278   0.804   2.238   0.527
   62SOL    HW3  279   0.875   2.108   0.554
   62SOL    MW4  280   0.816   2.154   0.510
   63SOL     OW  281   0.845   1.854   0.282
   63SOL    HW2  282   0.843   1.761   0.303
   63SOL    HW3  283   0.938   1.877   0.288
   63SOL    MW4  284   0.857   1.845   0.286
   64SOL     OW  285   0.805   2.424   0.539
   64SOL    HW2  286   0.874   2.454   0.479
   64SOL    HW3  287   0.833   2.455   0.625
   64SOL    MW4  288   0.818   2.432   0.542
   65SOL     OW  289   0.971   2.465   0.175
   65SOL    HW2  290   0.936   2.545   0.137
   65SOL    HW3  291   1.000   2.490   0.263
   65SOL    MW4  292   0.970   2.479   0.182
   66SOL     OW  293   0.632   2.900   0.420
   66SOL    HW2  294   0.559   2.960   0.437
   66SOL    HW3  295   0.648   2.859   0.505
   66SOL    MW4  296   0.624   2.903   0.434
   67SOL     OW  297   0.872   3.291   0.367
   67SOL    HW2  298   0.908   3.280   0.455
   67SOL    HW3  299   0.876   3.385   0.350
   67SOL    MW4  300   0.877   3.302   0.376
   68SOL     OW  301   2.133   3.542   0.472
   68SOL    HW2  302   2.091   3.537   0.558
   68SOL    HW3  303   2.171   3.455   0.459
   68SOL    MW4  304   2.133   3.530   0.482
   69SOL     OW  305   0.952   4.068   0.494
   69SOL    HW2  306   0.868   4.110   0.475
   69SOL    HW3  307   0.942   4.033   0.583
   69SOL    MW4  308   0.940   4.069   0.503
   70SOL     OW  309   0.566   3.950   0.486
   70SOL    HW2  310   0.522   3.953   0.571
   70SOL    HW3  311   0.605   4.037   0.476
   70SOL    MW4  312   0.565   3.962   0.496
   71SOL     OW  313   1.108   4.289   0.498
   71SOL    HW2  314   1.060   4.206   0.501
   71SOL    HW3  315   1.134   4.304   0.589
   71SOL    MW4  316   1.105   4.280   0.511
   72SOL     OW  317   1.206   0.514   0.452
   72SOL    HW2  318   1.191   0.454   0.379
   72SOL    HW3  319   1.298   0.540   0.443
   72SOL    MW4  320   1.216   0.509   0.441
   73SOL     OW  321   1.039   0.125   0.454
   73SOL    HW2  322   1.047   0.035   0.423
   73SOL    HW3  323   0.999   0.117   0.540
   73SOL    MW4  324   1.035   0.112   0.461
   74SOL     OW  325   1.392   0.246   0.253
   74SOL    HW2  326   1.304   0.280   0.236
   74SOL    HW3  327   1.434   0.314   0.305
   74SOL    MW4  328   1.386   0.259   0.257
   75SOL     OW  329   2.002   4.534   0.458
   75SOL    HW2  330   2.024   4.444   0.435
   75SOL    HW3  331   1.922   4.552   0.408
   75SOL    MW4  332   1.994   4.524   0.448
   76SOL     OW  333   1.119   0.322   0.277
   76SOL    HW2  334   1.100   0.249   0.336
   76SOL    HW3  335   1.035   0.339   0.234
   76SOL    MW4  336   1.105   0.314   0.279
   77SOL     OW  337   2.128   0.284   0.438
   77SOL    HW2  338   2.089   0.371   0.437
   77SOL    HW3  339   2.086   0.238   0.365
   77SOL    MW4  340   2.117   0.289   0.429
   78SOL     OW  341   2.373   1.105   0.361
   78SOL    HW2  342   2.392   1.056   0.281
   78SOL    HW3  343   2.300   1.058   0.400
   78SOL    MW4  344   2.366   1.092   0.355
   79SOL     OW  345   1.624   1.184   0.465
   79SOL    HW2  346   1.553   1.170   0.402
   79SOL    HW3  347   1.679   1.251   0.424
   79SOL    MW4  348   1.622   1.191   0.451
   80SOL     OW  349   1.681   0.900   0.538
   80SOL    HW2  350   1.708   0.900   0.630
   80SOL    HW3  351   1.682   0.992   0.512
   80SOL    MW4  352   1.685   0.912   0.546
   81SOL     OW  353   1.408   1.096   0.296
   81SOL    HW2  354   1.330   1.062   0.339
   81SOL    HW3  355   1.431   1.029   0.232
   81SOL    MW4  356   1.401   1.083   0.294
   82SOL     OW  357   1.897   1.865   0.417
   82SOL    HW2  358   1.969   1.808   0.392
   82SOL    HW3  359   1.936   1.952   0.422
   82SOL    MW4  360   1.912   1.869   0.414
   83SOL     OW  361   1.036   2.552   0.421
   83SOL    HW2  362   1.111   2.510   0.463
   83SOL    HW3  363   1.049   2.645   0.436
   83SOL    MW4  364   1.047   2.559   0.428
   84SOL     OW  365   1.512   2.483   0.394
   84SOL    HW2  366   1.533   2.564   0.347
   84SOL    HW3  367   1.565   2.416   0.351
   84SOL    MW4  368   1.522   2.485   0.382
   85SOL     OW  369   2.280   1.639   0.518
   85SOL    HW2  370   2.293   1.545   0.509
   85SOL    HW3  371   2.361   1.678   0.486
   85SOL    MW4  372   2.292   1.632   0.513
   86SOL     OW  373   1.702   2.221   0.313
   86SOL    HW2  374   1.765   2.268   0.368
   86SOL    HW3  375   1.739   2.226   0.225
   86SOL    MW4  376   1.715   2.228   0.308
   87SOL     OW  377   1.126   1.932   0.307
   87SOL    HW2  378   1.197   1.871   0.325
   87SOL    HW3  379   1.153   2.014   0.348
   87SOL    MW4  380   1.139   1.934   0.315
   88SOL     OW  381   0.872   2.997   0.346
   88SOL    HW2  382   0.872   3.092   0.332
   88SOL    HW3  383   0.783   2.977   0.375
   88SOL    MW4  384   0.860   3.007   0.348
   89SOL     OW  385   2.035   2.106   0.501
   89SOL    HW2  386   2.029   2.088   0.595
   89SOL    HW3  387   2.129   2.115   0.485
   89SOL    MW4  388   2.047   2.105   0.512
   90SOL     OW  389   2.008   0.524   0.478
   90SOL    HW2  390   1.987   0.617   0.475
   90SOL    HW3  391   1.931   0.481   0.439
   90SOL    MW4  392   1.995   0.531   0.472
   91SOL     OW  393   1.092   3.881   0.332
   91SOL    HW2  394   1.111   3.805   0.387
   91SOL    HW3  395   1.052   3.945   0.391
   91SOL    MW4  396   1.089   3.879   0.347
   92SOL     OW  397   2.098   2.545   0.389
   92SOL    HW2  398   2.083   2.639   0.400
   92SOL    HW3  399   2.145   2.519   0.467
   92SOL    MW4  400   2.102   2.554   0.400
   93SOL     OW  401   1.373   3.944   0.402
   93SOL    HW2  402   1.303   3.913   0.345
   93SOL    HW3  403   1.398   4.029   0.366
   93SOL    MW4  404   1.367   3.951   0.390
   94SOL     OW  405   1.769   2.887   0.410
   94SOL    HW2  406   1.862   2.863   0.412
   94SOL    HW3  407   1.741   2.885   0.501
   94SOL    MW4  408   1.778   2.884   0.422
   95SOL     OW  409   2.198   4.022   0.445
   95SOL    HW2  410   2.151   3.941   0.428
   95SOL    HW3  411   2.285   4.007   0.409
   95SOL    MW4  412   2.204   4.009   0.438
   96SOL     OW  413   0.873   3.829   0.182
   96SOL    HW2  414   0.949   3.861   0.231
   96SOL    HW3  415   0.888   3.859   0.092
   96SOL    MW4  416   0.885   3.838   0.177
   97SOL     OW  417   1.750   4.544   0.323
   97SOL    HW2  418   1.725   4.615   0.382
   97SOL    HW3  419   1.708   4.466   0.360
   97SOL    MW4  420   1.741   4.543   0.336
   98SOL     OW  421   2.087   4.632   0.855
   98SOL    HW2  422   2.090   4.539   0.831
   98SOL    HW3  423   2.053   4.675   0.777
   98SOL    MW4  424   2.083   4.625   0.842
   99SOL     OW  425   2.617   4.427   0.326
   99SOL    HW2  426   2.678   4.425   0.399
   99SOL    HW3  427   2.638   4.507   0.279
   99SOL    MW4  428   2.628   4.437   0.329
  100SOL     OW  429   1.369   4.211   0.359
  100SOL    HW2  430   1.293   4.226   0.417
  100SOL    HW3  431   1.354   4.270   0.285
  100SOL    MW4  432   1.357   4.221   0.357
  101SOL     OW  433   2.392   0.354   0.491
  101SOL    HW2  434   2.306   0.342   0.452
  101SOL    HW3  435   2.431   0.426   0.441
  101SOL    MW4  436   2.386   0.362   0.479
  102SOL     OW  437   1.622   1.829   0.443
  102SOL    HW2  438   1.712   1.855   0.424
  102SOL    HW3  439   1.627   1.735   0.457
  102SOL    MW4  440   1.635   1.820   0.442
  103SOL     OW  441   2.046   1.256   0.512
  103SOL    HW2  442   1.988   1.311   0.461
  103SOL    HW3  443   2.132   1.298   0.505
  103SOL    MW4  444   2.050   1.269   0.504
  104SOL     OW  445   2.631   1.080   0.512
  104SOL    HW2  446   2.714   1.123   0.492
  104SOL    HW3  447   2.571   1.110   0.445
  104SOL    MW4  448   2.634   1.090   0.501
  105SOL     OW  449   2.516   1.755   0.451
  105SOL    HW2  450   2.608   1.732   0.463
  105SOL    HW3  451   2.515   1.850   0.443
  105SOL    MW4  452   2.528   1.764   0.452
  106SOL     OW  453   1.597   1.515   0.452
  106SOL    HW2  454   1.522   1.471   0.414
  106SOL    HW3  455   1.584   1.507   0.547
  106SOL    MW4  456   1.586   1.508   0.460
  107SOL     OW  457   1.343   1.736   0.392
  107SOL    HW2  458   1.431   1.769   0.374
  107SOL    HW3  459   1.344   1.715   0.485
  107SOL    MW4  460   1.354   1.737   0.402
  108SOL     OW  461   2.295   2.203   0.437
  108SOL    HW2  462   2.302   2.265   0.364
  108SOL    HW3  463   2.297   2.259   0.515
  108SOL    MW4  464   2.296   2.219   0.438
  109SOL     OW  465   1.790   3.179   0.418
  109SOL    HW2  466   1.776   3.088   0.393
  109SOL    HW3  467   1.856   3.211   0.356
  109SOL    MW4  468   1.797   3.171   0.407
  110SOL     OW  469   1.100   2.837   0.479
  110SOL    HW2  470   1.179   2.881   0.446
  110SOL    HW3  471   1.028   2.889   0.444
  110SOL    MW4  472   1.101   2.850   0.470
  111SOL     OW  473   1.504   3.192   0.459
  111SOL    HW2  474   1.598   3.194   0.441
  111SOL    HW3  475   1.482   3.099   0.460
  111SOL    MW4  476   1.514   3.180   0.457
  112SOL     OW  477   1.236   2.150   0.485
  112SOL    HW2  478   1.202   2.110   0.564
  112SOL    HW3  479   1.330   2.134   0.489
  112SOL    MW4  480   1.244   2.143   0.496
  113SOL     OW  481   3.615   1.563   0.374
  113SOL    HW2  482   3.526   1.531   0.361
  113SOL    HW3  483   3.622   1.577   0.468
  113SOL    MW4  484   3.604   1.561   0.385
  114SOL     OW  485   1.896   2.354   0.480
  114SOL    HW2  486   1.942   2.273   0.500
  114SOL    HW3  487   1.962   2.409   0.438
  114SOL    MW4  488   1.911   2.351   0.477
  115SOL     OW  489   1.509   2.092   0.488
  115SOL    HW2  490   1.553   2.137   0.417
  115SOL    HW3  491   1.528   1.999   0.474
  115SOL    MW4  492   1.517   2.086   0.477
  116SOL     OW  493   1.364   3.482   0.493
  116SOL    HW2  494   1.419   3.560   0.489
  116SOL    HW3  495   1.410   3.418   0.438
  116SOL    MW4  496   1.377   3.484   0.485
  117SOL     OW  497   2.472   3.437   0.476
  117SOL    HW2  498   2.383   3.404   0.470
  117SOL    HW3  499   2.471   3.496   0.551
  117SOL    MW4  500   2.460   3.440   0.485
  118SOL     OW  501   1.596   4.337   0.445
  118SOL    HW2  502   1.592   4.339   0.541
  118SOL    HW3  503   1.510   4.304   0.418
  118SOL    MW4  504   1.584   4.333   0.454
  119SOL     OW  505   1.548   3.736   0.478
  119SOL    HW2  506   1.496   3.814   0.458
  119SOL    HW3  507   1.639   3.765   0.468
  119SOL    MW4  508   1.553   3.750   0.474
  120SOL     OW  509   1.309   4.396   0.158
  120SOL    HW2  510   1.383   4.456   0.153
  120SOL    HW3  511   1.288   4.376   0.067
  120SOL    MW4  512   1.316   4.401   0.145
  121SOL     OW  513   1.363   0.052   0.470
  121SOL    HW2  514   1.354   0.114   0.397
  121SOL    HW3  515   1.310  -0.023   0.444
  121SOL    MW4  516   1.355   0.051   0.457
  122SOL     OW  517   2.365   4.641   0.586
  122SOL    HW2  518   2.420   4.699   0.534
  122SOL    HW3  519   2.355   4.686   0.670
  122SOL    MW4  520   2.371   4.654   0.590
  123SOL     OW  521   1.999   0.099   0.608
  123SOL    HW2  522   2.057   0.163   0.565
  123SOL    HW3  523   2.010   0.019   0.556
  123SOL    MW4  524   2.008   0.097   0.595
  124SOL     OW  525   2.846   1.446   0.350
  124SOL    HW2  526   2.787   1.432   0.276
  124SOL    HW3  527   2.863   1.358   0.385
  124SOL    MW4  528   2.841   1.433   0.345
  125SOL     OW  529   2.835   0.429   0.388
  125SOL    HW2  530   2.843   0.372   0.311
  125SOL    HW3  531   2.917   0.478   0.389
  125SOL    MW4  532   2.847   0.428   0.378
  126SOL     OW  533   2.139   0.995   0.498
  126SOL    HW2  534   2.098   1.081   0.494
  126SOL    HW3  535   2.069   0.933   0.480
  126SOL    MW4  536   2.125   0.998   0.495
  127SOL     OW  537   2.883   1.189   0.465
  127SOL    HW2  538   2.954   1.142   0.422
  127SOL    HW3  539   2.914   1.203   0.554
  127SOL    MW4  540   2.896   1.185   0.471
  128SOL     OW  541   2.793   1.692   0.501
  128SOL    HW2  542   2.801   1.607   0.458
  128SOL    HW3  543   2.772   1.671   0.592
  128SOL    MW4  544   2.791   1.678   0.508
  129SOL     OW  545   3.162   1.881   0.381
  129SOL    HW2  546   3.170   1.947   0.449
  129SOL    HW3  547   3.252   1.867   0.350
  129SOL    MW4  548   3.175   1.888   0.386
  130SOL     OW  549   2.949   4.590   0.465
  130SOL    HW2  550   2.981   4.674   0.500
  130SOL    HW3  551   3.024   4.531   0.472
  130SOL    MW4  552   2.963   4.594   0.470
  131SOL     OW  553   2.092   1.680   0.317
  131SOL    HW2  554   2.144   1.687   0.237
  131SOL    HW3  555   2.153   1.646   0.382
  131SOL    MW4  556   2.107   1.676   0.315
  132SOL     OW  557   1.584   1.509   0.733
  132SOL    HW2  558   1.646   1.558   0.788
  132SOL    HW3  559   1.504   1.561   0.734
  132SOL    MW4  560   1.582   1.522   0.741
  133SOL     OW  561   2.492   2.035   0.487
  133SOL    HW2  562   2.428   2.090   0.443
  133SOL    HW3  563   2.576   2.078   0.473
  133SOL    MW4  564   2.495   2.048   0.480
  134SOL     OW  565   2.750   2.165   0.499
  134SOL    HW2  566   2.780   2.104   0.431
  134SOL    HW3  567   2.802   2.142   0.576
  134SOL    MW4  568   2.761   2.154   0.501
  135SOL     OW  569   2.539   2.543   0.425
  135SOL    HW2  570   2.625   2.506   0.410
  135SOL    HW3  571   2.482   2.499   0.362
  135SOL    MW4  572   2.543   2.532   0.415
  136SOL     OW  573   1.581   2.716   0.281
  136SOL    HW2  574   1.661   2.762   0.308
  136SOL    HW3  575   1.564   2.747   0.192
  136SOL    MW4  576   1.589   2.726   0.273
  137SOL     OW  577   1.406   2.902   0.451
  137SOL    HW2  578   1.448   2.857   0.525
  137SOL    HW3  579   1.448   2.865   0.374
  137SOL    MW4  580   1.417   2.892   0.451
  138SOL     OW  581   2.065   3.790   0.370
  138SOL    HW2  582   2.079   3.790   0.275
  138SOL    HW3  583   2.106   3.710   0.401
  138SOL    MW4  584   2.072   3.780   0.362
  139SOL     OW  585   2.478   3.995   0.391
  139SOL    HW2  586   2.535   3.921   0.410
  139SOL    HW3  587   2.525   4.045   0.324
  139SOL    MW4  588   2.492   3.992   0.385
  140SOL     OW  589   1.823   3.885   0.485
  140SOL    HW2  590   1.812   3.966   0.435
  140SOL    HW3  591   1.901   3.844   0.447
  140SOL    MW4  592   1.832   3.890   0.473
  141SOL     OW  593   2.231   3.278   0.489
  141SOL    HW2  594   2.240   3.247   0.579
  141SOL    HW3  595   2.271   3.209   0.436
  141SOL    MW4  596   2.237   3.265   0.494
  142SOL     OW  597   2.380   4.401   0.458
  142SOL    HW2  598   2.459   4.425   0.409
  142SOL    HW3  599   2.364   4.475   0.516
  142SOL    MW4  600   2.388   4.414   0.459
  143SOL     OW  601   2.111   4.282   0.450
  143SOL    HW2  602   2.141   4.191   0.452
  143SOL    HW3  603   2.191   4.333   0.440
  143SOL    MW4  604   2.125   4.276   0.449
  144SOL     OW  605   3.038   0.179   0.573
  144SOL    HW2  606   2.965   0.235   0.601
  144SOL    HW3  607   3.074   0.145   0.655
  144SOL    MW4  608   3.033   0.182   0.587
  145SOL     OW  609   2.609   3.714   0.449
  145SOL    HW2  610   2.578   3.651   0.384
  145SOL    HW3  611   2.570   3.684   0.531
  145SOL    MW4  612   2.600   3.702   0.451
  146SOL     OW  613   2.528   4.198   0.574
  146SOL    HW2  614   2.474   4.273   0.550
  146SOL    HW3  615   2.481   4.122   0.540
  146SOL    MW4  616   2.515   4.198   0.567
  147SOL     OW  617   2.576   0.134   0.464
  147SOL    HW2  618   2.513   0.206   0.460
  147SOL    HW3  619   2.650   0.169   0.512
  147SOL    MW4  620   2.577   0.148   0.470
  148SOL     OW  621   1.775   0.368   0.428
  148SOL    HW2  622   1.749   0.277   0.435
  148SOL    HW3  623   1.694   0.414   0.404
  148SOL    MW4  624   1.761   0.362   0.426
  149SOL     OW  625   3.035   0.606   0.487
  149SOL    HW2  626   3.014   0.696   0.512
  149SOL    HW3  627   3.131   0.603   0.489
  149SOL    MW4  628   3.045   0.617   0.491
  150SOL     OW  629   2.307   1.354   0.514
  150SOL    HW2  630   2.351   1.335   0.597
  150SOL    HW3  631   2.346   1.293   0.452
  150SOL    MW4  632   2.318   1.344   0.517
  151SOL     OW  633   2.554   0.526   0.357
  151SOL    HW2  634   2.564   0.618   0.381
  151SOL    HW3  635   2.642   0.490   0.364
  151SOL    MW4  636   2.567   0.533   0.361
  152SOL     OW  637   3.088   1.619   0.486
  152SOL    HW2  638   2.994   1.611   0.468
  152SOL    HW3  639   3.114   1.700   0.442
  152SOL    MW4  640   3.079   1.629   0.478
  153SOL     OW  641   3.595   0.887   0.417
  153SOL    HW2  642   3.677   0.936   0.409
  153SOL    HW3  643   3.573   0.891   0.510
  153SOL    MW4  644   3.602   0.894   0.428
  154SOL     OW  645   3.722   1.979   0.426
  154SOL    HW2  646   3.755   2.044   0.364
  154SOL    HW3  647   3.758   2.006   0.511
  154SOL    MW4  648   3.731   1.991   0.429
  155SOL     OW  649   2.774   0.289   0.628
  155SOL    HW2  650   2.788   0.346   0.552
  155SOL    HW3  651   2.765   0.349   0.702
  155SOL    MW4  652   2.775   0.305   0.627
  156SOL     OW  653   3.186   2.071   0.585
  156SOL    HW2  654   3.092   2.077   0.600
  156SOL    HW3  655   3.218   2.013   0.654
  156SOL    MW4  656   3.178   2.064   0.596
  157SOL     OW  657   2.814   2.440   0.421
  157SOL    HW2  658   2.904   2.457   0.449
  157SOL    HW3  659   2.790   2.358   0.464
  157SOL    MW4  660   2.823   2.432   0.430
  158SOL     OW  661   2.858   1.933   0.363
  158SOL    HW2  662   2.952   1.918   0.353
  158SOL    HW3  663   2.825   1.853   0.403
  158SOL    MW4  664   2.866   1.921   0.367
  159SOL     OW  665   2.311   2.438   0.275
  159SOL    HW2  666   2.228   2.480   0.297
  159SOL    HW3  667   2.333   2.473   0.189
  159SOL    MW4  668   2.303   2.448   0.266
  160SOL     OW  669   2.613   2.800   0.501
  160SOL    HW2  670   2.586   2.723   0.450
  160SOL    HW3  671   2.550   2.805   0.572
  160SOL    MW4  672   2.601   2.790   0.503
  161SOL     OW  673   3.165   3.163   0.544
  161SOL    HW2  674   3.182   3.070   0.529
  161SOL    HW3  675   3.158   3.172   0.639
  161SOL    MW4  676   3.166   3.152   0.555
  162SOL     OW  677   3.427   3.225   0.552
  162SOL    HW2  678   3.445   3.186   0.638
  162SOL    HW3  679   3.337   3.198   0.532
  162SOL    MW4  680   3.418   3.216   0.561
  163SOL     OW  681   2.293   2.947   0.527
  163SOL    HW2  682   2.347   2.900   0.590
  163SOL    HW3  683   2.356   2.989   0.468
  163SOL    MW4  684   2.308   2.946   0.528
  164SOL     OW  685   1.813   4.140   0.383
  164SOL    HW2  686   1.731   4.190   0.378
  164SOL    HW3  687   1.882   4.206   0.384
  164SOL    MW4  688   1.811   4.155   0.383
  165SOL     OW  689   3.413   4.116   0.434
  165SOL    HW2  690   3.330   4.134   0.391
  165SOL    HW3  691   3.394   4.044   0.494
  165SOL    MW4  692   3.399   4.109   0.436
  166SOL     OW  693   2.959   3.366   0.471
  166SOL    HW2  694   2.873   3.333   0.447
  166SOL    HW3  695   3.020   3.299   0.440
  166SOL    MW4  696   2.956   3.353   0.463
  167SOL     OW  697   2.702   3.276   0.457
  167SOL    HW2  698   2.709   3.249   0.548
  167SOL    HW3  699   2.628   3.337   0.455
  167SOL    MW4  700   2.693   3.280   0.469
  168SOL     OW  701   3.706   4.219   0.651
  168SOL    HW2  702   3.750   4.134   0.654
  168SOL    HW3  703   3.683   4.230   0.558
  168SOL    MW4  704   3.709   4.209   0.639
  169SOL     OW  705   3.186   4.137   0.296
  169SOL    HW2  706   3.158   4.228   0.303
  169SOL    HW3  707   3.105   4.087   0.290
  169SOL    MW4  708   3.172   4.143   0.296
  170SOL     OW  709   3.308   0.302   0.537
  170SOL    HW2  710   3.231   0.247   0.529
  170SOL    HW3  711   3.382   0.243   0.519
  170SOL    MW4  712   3.308   0.287   0.533
  171SOL     OW  713   2.768   0.022   0.289
  171SOL    HW2  714   2.695   0.048   0.344
  171SOL    HW3  715   2.830  -0.020   0.350
  171SOL    MW4  716   2.767   0.020   0.304
  172SOL     OW  717   2.888   4.071   0.318
  172SOL    HW2  718   2.869   3.990   0.366
  172SOL    HW3  719   2.803   4.101   0.287
  172SOL    MW4  720   2.874   4.064   0.321
  173SOL     OW  721   2.811   0.275   0.158
  173SOL    HW2  722   2.773   0.276   0.071
  173SOL    HW3  723   2.802   0.184   0.188
  173SOL    MW4  724   2.805   0.263   0.151
  174SOL     OW  725   2.952   0.870   0.535
  174SOL    HW2  726   3.009   0.881   0.611
  174SOL    HW3  727   3.003   0.904   0.461
  174SOL    MW4  728   2.966   0.876   0.535
  175SOL     OW  729   3.356   0.945   0.296
  175SOL    HW2  730   3.353   0.908   0.208
  175SOL    HW3  731   3.446   0.930   0.324
  175SOL    MW4  732   3.368   0.938   0.288
  176SOL     OW  733   3.553   0.609   0.357
  176SOL    HW2  734   3.486   0.587   0.421
  176SOL    HW3  735   3.577   0.699   0.377
  176SOL    MW4  736   3.548   0.618   0.368
  177SOL     OW  737   3.310   0.836   0.055
  177SOL    HW2  738   3.335   0.821  -0.036
  177SOL    HW3  739   3.305   0.749   0.094
  177SOL    MW4  740   3.313   0.823   0.048
  178SOL     OW  741   3.490   1.823   0.669
  178SOL    HW2  742   3.487   1.840   0.575
  178SOL    HW3  743   3.401   1.838   0.699
  178SOL    MW4  744   3.478   1.827   0.660
  179SOL     OW  745   3.465   1.839   0.388
  179SOL    HW2  746   3.501   1.751   0.389
  179SOL    HW3  747   3.540   1.896   0.371
  179SOL    MW4  748   3.480   1.835   0.386
  180SOL     OW  749   3.420   1.211   0.403
  180SOL    HW2  750   3.388   1.135   0.354
  180SOL    HW3  751   3.390   1.196   0.492
  180SOL    MW4  752   3.412   1.199   0.408
  181SOL     OW  753   3.879   1.724   0.368
  181SOL    HW2  754   3.822   1.667   0.317
  181SOL    HW3  755   3.837   1.810   0.362
  181SOL    MW4  756   3.866   1.728   0.360
  182SOL     OW  757   3.312   2.286   0.689
  182SOL    HW2  758   3.278   2.211   0.641
  182SOL    HW3  759   3.350   2.248   0.769
  182SOL    MW4  760   3.313   2.271   0.693
  183SOL     OW  761   3.560   2.677   0.621
  183SOL    HW2  762   3.579   2.655   0.712
  183SOL    HW3  763   3.529   2.595   0.583
  183SOL    MW4  764   3.559   2.663   0.628
  184SOL     OW  765   2.047   2.813   0.472
  184SOL    HW2  766   2.017   2.805   0.562
  184SOL    HW3  767   2.123   2.871   0.476
  184SOL    MW4  768   2.053   2.819   0.484
  185SOL     OW  769   3.284   2.644   0.361
  185SOL    HW2  770   3.289   2.634   0.266
  185SOL    HW3  771   3.347   2.580   0.395
  185SOL    MW4  772   3.293   2.634   0.353
  186SOL     OW  773   2.878   2.829   0.779
  186SOL    HW2  774   2.894   2.812   0.686
  186SOL    HW3  775   2.946   2.779   0.824
  186SOL    MW4  776   2.889   2.820   0.773
  187SOL     OW  777   2.664   0.807   0.463
  187SOL    HW2  778   2.759   0.803   0.466
  187SOL    HW3  779   2.643   0.900   0.476
  187SOL    MW4  780   2.674   0.819   0.465
  188SOL     OW  781   2.942   4.196   0.565
  188SOL    HW2  782   2.934   4.172   0.473
  188SOL    HW3  783   3.001   4.130   0.602
  188SOL    MW4  784   2.949   4.184   0.558
  189SOL     OW  785   3.300   3.670   0.500
  189SOL    HW2  786   3.346   3.669   0.416
  189SOL    HW3  787   3.340   3.599   0.550
  189SOL    MW4  788   3.311   3.660   0.495
  190SOL     OW  789   3.845   3.421   0.440
  190SOL    HW2  790   3.934   3.396   0.417
  190SOL    HW3  791   3.854   3.502   0.489
  190SOL    MW4  792   3.858   3.428   0.443
  191SOL     OW  793   3.830   3.341   0.723
  191SOL    HW2  794   3.922   3.359   0.746
  191SOL    HW3  795   3.832   3.325   0.629
  191SOL    MW4  796   3.842   3.341   0.714
  192SOL     OW  797   2.853   3.857   0.519
  192SOL    HW2  798   2.922   3.793   0.534
  192SOL    HW3  799   2.781   3.807   0.483
  192SOL    MW4  800   2.853   3.842   0.516
  193SOL     OW  801   2.525   3.039   0.399
  193SOL    HW2  802   2.555   2.950   0.418
  193SOL    HW3  803   2.605   3.092   0.403
  193SOL    MW4  804   2.540   3.034   0.402
  194SOL     OW  805   0.062   0.020   0.335
  194SOL    HW2  806   0.008   0.040   0.258
  194SOL    HW3  807   0.032  -0.066   0.364
  194SOL    MW4  808   0.051   0.012   0.329
  195SOL     OW  809   3.789   0.266   0.467
  195SOL    HW2  810   3.867   0.243   0.416
  195SOL    HW3  811   3.798   0.360   0.485
  195SOL    MW4  812   3.801   0.275   0.463
  196SOL     OW  813   3.298   0.563   0.474
  196SOL    HW2  814   3.274   0.470   0.475
  196SOL    HW3  815   3.307   0.584   0.382
  196SOL    MW4  816   3.296   0.553   0.462
  197SOL     OW  817   3.353   0.575   0.154
  197SOL    HW2  818   3.340   0.484   0.127
  197SOL    HW3  819   3.440   0.576   0.194
  197SOL    MW4  820   3.363   0.563   0.155
  198SOL     OW  821   4.062   0.364   0.366
  198SOL    HW2  822   4.151   0.394   0.385
  198SOL    HW3  823   4.008   0.442   0.377
  198SOL    MW4  824   4.067   0.378   0.370
  199SOL     OW  825   4.467   0.819   0.509
  199SOL    HW2  826   4.373   0.802   0.496
  199SOL    HW3  827   4.510   0.766   0.442
  199SOL    MW4  828   4.460   0.810   0.498
  200SOL     OW  829   3.975   0.796   0.519
  200SOL    HW2  830   3.926   0.868   0.480
  200SOL    HW3  831   3.918   0.719   0.510
  200SOL    MW4  832   3.961   0.795   0.513
  201SOL     OW  833   4.113   1.049   0.394
  201SOL    HW2  834   4.168   1.112   0.440
  201SOL    HW3  835   4.167   0.970   0.386
  201SOL    MW4  836   4.127   1.047   0.399
  202SOL     OW  837   3.687   1.281   0.452
  202SOL    HW2  838   3.598   1.251   0.437
  202SOL    HW3  839   3.689   1.369   0.414
  202SOL    MW4  840   3.676   1.288   0.445
  203SOL     OW  841   3.336   1.492   0.358
  203SOL    HW2  842   3.258   1.514   0.409
  203SOL    HW3  843   3.347   1.398   0.372
  203SOL    MW4  844   3.327   1.482   0.367
  204SOL     OW  845   3.095   1.032   0.325
  204SOL    HW2  846   3.081   1.026   0.230
  204SOL    HW3  847   3.187   1.010   0.338
  204SOL    MW4  848   3.105   1.028   0.314
  205SOL     OW  849   3.734   2.334   0.412
  205SOL    HW2  850   3.799   2.275   0.374
  205SOL    HW3  851   3.754   2.334   0.505
  205SOL    MW4  852   3.745   2.326   0.419
  206SOL     OW  853   4.064   3.119   0.339
  206SOL    HW2  854   4.146   3.073   0.357
  206SOL    HW3  855   3.996   3.062   0.376
  206SOL    MW4  856   4.066   3.105   0.347
  207SOL     OW  857   3.059   2.542   0.502
  207SOL    HW2  858   3.091   2.505   0.584
  207SOL    HW3  859   3.138   2.557   0.450
  207SOL    MW4  860   3.073   2.539   0.506
  208SOL     OW  861   3.019   3.630   0.510
  208SOL    HW2  862   3.114   3.637   0.497
  208SOL    HW3  863   3.000   3.537   0.498
  208SOL    MW4  864   3.029   3.619   0.507
  209SOL     OW  865   3.166   2.885   0.492
  209SOL    HW2  866   3.207   2.811   0.447
  209SOL    HW3  867   3.074   2.860   0.500
  209SOL    MW4  868   3.159   2.872   0.488
  210SOL     OW  869   3.870   2.948   0.468
  210SOL    HW2  870   3.848   2.878   0.406
  210SOL    HW3  871   3.794   3.006   0.468
  210SOL    MW4  872   3.857   2.946   0.460
  211SOL     OW  873   3.801   2.633   0.451
  211SOL    HW2  874   3.795   2.542   0.420
  211SOL    HW3  875   3.718   2.647   0.498
  211SOL    MW4  876   3.789   2.623   0.453
  212SOL     OW  877   3.899   4.110   0.299
  212SOL    HW2  878   3.901   4.035   0.360
  212SOL    HW3  879   3.880   4.071   0.214
  212SOL    MW4  880   3.897   4.095   0.296
  213SOL     OW  881   3.477   2.436   0.499
  213SOL    HW2  882   3.421   2.384   0.558
  213SOL    HW3  883   3.555   2.381   0.486
  213SOL    MW4  884   3.480   2.422   0.505
  214SOL     OW  885   3.352   3.902   0.624
  214SOL    HW2  886   3.386   3.899   0.714
  214SOL    HW3  887   3.344   3.810   0.599
  214SOL    MW4  888   3.355   3.890   0.633
  215SOL     OW  889   4.277   3.947   0.679
  215SOL    HW2  890   4.234   3.926   0.763
  215SOL    HW3  891   4.258   4.039   0.666
  215SOL    MW4  892   4.269   3.956   0.689
  216SOL     OW  893   3.651   4.261   0.370
  216SOL    HW2  894   3.712   4.206   0.321
  216SOL    HW3  895   3.568   4.213   0.366
  216SOL    MW4  896   3.648   4.247   0.363
  217SOL     OW  897   3.589   4.541   0.489
  217SOL    HW2  898   3.610   4.505   0.403
  217SOL    HW3  899   3.666   4.522   0.543
  217SOL    MW4  900   3.602   4.534   0.485
  218SOL     OW  901   4.394   0.165   0.538
  218SOL    HW2  902   4.451   0.129   0.470
  218SOL    HW3  903   4.438   0.146   0.620
  218SOL    MW4  904   4.407   0.158   0.540
  219SOL     OW  905   4.228   0.778   0.385
  219SOL    HW2  906   4.140   0.789   0.422
  219SOL    HW3  907   4.234   0.684   0.368
  219SOL    MW4  908   4.217   0.767   0.388
  220SOL     OW  909   0.402   2.240   0.470
  220SOL    HW2  910   0.435   2.330   0.473
  220SOL    HW3  911   0.331   2.238   0.534
  220SOL    MW4  912   0.397   2.251   0.479
  221SOL     OW  913   4.313   0.457   0.493
  221SOL    HW2  914   4.355   0.373   0.508
  221SOL    HW3  915   4.382   0.512   0.456
  221SOL    MW4  916   4.328   0.453   0.490
  222SOL     OW  917   4.290   1.268   0.488
  222SOL    HW2  918   4.286   1.347   0.433
  222SOL    HW3  919   4.299   1.302   0.577
  222SOL    MW4  920   4.291   1.283   0.492
  223SOL     OW  921   3.526   0.135   0.497
  223SOL    HW2  922   3.543   0.042   0.482
  223SOL    HW3  923   3.613   0.176   0.492
  223SOL    MW4  924   3.540   0.128   0.494
  224SOL     OW  925   3.828   1.039   0.431
  224SOL    HW2  926   3.919   1.053   0.404
  224SOL    HW3  927   3.795   1.127   0.450
  224SOL    MW4  928   3.835   1.053   0.430
  225SOL     OW  929   0.041   1.107   0.442
  225SOL    HW2  930  -0.047   1.147   0.438
  225SOL    HW3  931   0.025   1.013   0.433
  225SOL    MW4  932   0.027   1.100   0.440
  226SOL     OW  933   4.168   2.209   0.366
  226SOL    HW2  934   4.150   2.280   0.427
  226SOL    HW3  935   4.247   2.236   0.320
  226SOL    MW4  936   4.176   2.222   0.368
  227SOL     OW  937   0.325   1.497   0.508
  227SOL    HW2  938   0.317   1.403   0.491
  227SOL    HW3  939   0.235   1.529   0.513
  227SOL    MW4  940   0.312   1.489   0.506
  228SOL     OW  941   0.610   2.233   0.227
  228SOL    HW2  942   0.624   2.322   0.195
  228SOL    HW3  943   0.527   2.237   0.275
  228SOL    MW4  944   0.601   2.245   0.229
  229SOL     OW  945   4.281   1.973   0.473
  229SOL    HW2  946   4.373   1.984   0.447
  229SOL    HW3  947   4.237   2.050   0.437
  229SOL    MW4  948   4.287   1.985   0.465
  230SOL     OW  949   4.472   2.511   0.435
  230SOL    HW2  950   4.561   2.541   0.412
  230SOL    HW3  951   4.480   2.479   0.524
  230SOL    MW4  952   4.485   2.511   0.443
  231SOL     OW  953   4.291   3.576   0.462
  231SOL    HW2  954   4.374   3.542   0.427
  231SOL    HW3  955   4.226   3.512   0.435
  231SOL    MW4  956   4.294   3.563   0.454
  232SOL     OW  957   4.340   2.743   0.468
  232SOL    HW2  958   4.250   2.708   0.467
  232SOL    HW3  959   4.395   2.665   0.467
  232SOL    MW4  960   4.335   2.728   0.468
  233SOL     OW  961   0.314   3.867   0.406
  233SOL    HW2  962   0.274   3.934   0.461
  233SOL    HW3  963   0.408   3.881   0.416
  233SOL    MW4  964   0.321   3.878   0.415
  234SOL     OW  965   0.033   3.466   0.368
  234SOL    HW2  966   0.023   3.511   0.284
  234SOL    HW3  967   0.104   3.512   0.412
  234SOL    MW4  968   0.041   3.478   0.362
  235SOL     OW  969   0.037   3.150   0.472
  235SOL    HW2  970   0.029   3.243   0.455
  235SOL    HW3  971  -0.037   3.110   0.425
  235SOL    MW4  972   0.026   3.157   0.464
  236SOL     OW  973   3.906   3.876   0.445
  236SOL    HW2  974   3.876   3.788   0.467
  236SOL    HW3  975   4.000   3.866   0.431
  236SOL    MW4  976   3.914   3.863   0.446
  237SOL     OW  977   3.689   3.184   0.503
  237SOL    HW2  978   3.711   3.268   0.461
  237SOL    HW3  979   3.594   3.179   0.499
  237SOL    MW4  980   3.680   3.195   0.497
  238SOL     OW  981   0.136   4.069   0.475
  238SOL    HW2  982   0.129   4.073   0.570
  238SOL    HW3  983   0.053   4.031   0.446
  238SOL    MW4  984   0.124   4.065   0.484
  239SOL     OW  985   4.090   4.280   0.393
  239SOL    HW2  986   4.026   4.225   0.349
  239SOL    HW3  987   4.053   4.368   0.390
  239SOL    MW4  988   4.077   4.284   0.387
  240SOL     OW  989   4.197   4.208   0.655
  240SOL    HW2  990   4.251   4.283   0.678
  240SOL    HW3  991   4.152   4.233   0.575
  240SOL    MW4  992   4.198   4.221   0.648
  241SOL     OW  993   4.038   4.549   0.439
  241SOL    HW2  994   4.079   4.635   0.450
  241SOL    HW3  995   3.971   4.546   0.507
  241SOL    MW4  996   4.035   4.560   0.449
  242SOL     OW  997   0.257   4.637   0.834
  242SOL    HW2  998   0.237   4.550   0.799
  242SOL    HW3  999   0.178   4.688   0.818
  242SOL    MW4 1000   0.244   4.632   0.827
  243SOL     OW 1001   0.021   0.134   0.804
  243SOL    HW2 1002  -0.063   0.100   0.836
  243SOL    HW3 1003   0.019   0.227   0.826
  243SOL    MW4 1004   0.010   0.142   0.811
  244SOL     OW 1005   4.480   0.413   0.866
  244SOL    HW2 1006   4.502   0.397   0.958
  244SOL    HW3 1007   4.564   0.438   0.826
  244SOL    MW4 1008   4.494   0.415   0.873
  245SOL     OW 1009   0.223   0.498   0.735
  245SOL    HW2 1010   0.309   0.456   0.739
  245SOL    HW3 1011   0.239   0.589   0.761
  245SOL    MW4 1012   0.236   0.505   0.739
  246SOL     OW 1013   0.237   0.759   0.847
  246SOL    HW2 1014   0.225   0.766   0.942
  246SOL    HW3 1015   0.153   0.788   0.810
  246SOL    MW4 1016   0.224   0.764   0.855
  247SOL     OW 1017   4.481   0.876   0.768
  247SOL    HW2 1018   4.402   0.852   0.817
  247SOL    HW3 1019   4.468   0.839   0.681
  247SOL    MW4 1020   4.468   0.868   0.763
  248SOL     OW 1021   0.010   1.170   0.876
  248SOL    HW2 1022   0.011   1.158   0.971
  248SOL    HW3 1023   0.005   1.081   0.841
  248SOL    MW4 1024   0.009   1.157   0.884
  249SOL     OW 1025   0.253   1.266   0.765
  249SOL    HW2 1026   0.168   1.232   0.793
  249SOL    HW3 1027   0.254   1.252   0.670
  249SOL    MW4 1028   0.242   1.260   0.756
  250SOL     OW 1029   0.233   1.525   0.845
  250SOL    HW2 1030   0.310   1.569   0.807
  250SOL    HW3 1031   0.242   1.434   0.819
  250SOL    MW4 1032   0.245   1.519   0.837
  251SOL     OW 1033   0.016   1.668   0.727
  251SOL    HW2 1034  -0.058   1.635   0.778
  251SOL    HW3 1035   0.093   1.635   0.774
  251SOL    MW4 1036   0.017   1.659   0.740
  252SOL     OW 1037   0.008   1.932   0.801
  252SOL    HW2 1038   0.073   1.981   0.750
  252SOL    HW3 1039   0.014   1.842   0.769
  252SOL    MW4 1040   0.017   1.927   0.790
  253SOL     OW 1041   0.210   2.064   0.650
  253SOL    HW2 1042   0.213   2.149   0.693
  253SOL    HW3 1043   0.153   2.078   0.574
  253SOL    MW4 1044   0.203   2.077   0.645
  254SOL     OW 1045   0.266   2.302   0.816
  254SOL    HW2 1046   0.245   2.297   0.909
  254SOL    HW3 1047   0.328   2.375   0.810
  254SOL    MW4 1048   0.271   2.311   0.827
  255SOL     OW 1049   0.043   2.425   0.712
  255SOL    HW2 1050  -0.032   2.380   0.753
  255SOL    HW3 1051   0.119   2.397   0.763
  255SOL    MW4 1052   0.043   2.415   0.724
  256SOL     OW 1053   0.024   2.679   0.841
  256SOL    HW2 1054   0.039   2.668   0.935
  256SOL    HW3 1055   0.043   2.593   0.804
  256SOL    MW4 1056   0.028   2.666   0.849
  257SOL     OW 1057   0.231   2.849   0.748
  257SOL    HW2 1058   0.156   2.797   0.776
  257SOL    HW3 1059   0.208   2.878   0.660
  257SOL    MW4 1060   0.218   2.846   0.740
  258SOL     OW 1061   0.284   3.089   0.868
  258SOL    HW2 1062   0.259   3.098   0.960
  258SOL    HW3 1063   0.267   2.997   0.848
  258SOL    MW4 1064   0.278   3.078   0.878
  259SOL     OW 1065   0.034   3.113   0.739
  259SOL    HW2 1066   0.123   3.100   0.773
  259SOL    HW3 1067   0.046   3.130   0.646
  259SOL    MW4 1068   0.047   3.113   0.732
  260SOL     OW 1069   0.083   3.394   0.836
  260SOL    HW2 1070   0.002   3.422   0.792
  260SOL    HW3 1071   0.081   3.299   0.832
  260SOL    MW4 1072   0.072   3.385   0.829
  261SOL     OW 1073   0.260   3.604   0.759
  261SOL    HW2 1074   0.198   3.537   0.787
  261SOL    HW3 1075   0.260   3.598   0.663
  261SOL    MW4 1076   0.252   3.594   0.750
  262SOL     OW 1077   0.181   3.859   0.852
  262SOL    HW2 1078   0.201   3.844   0.944
  262SOL    HW3 1079   0.203   3.776   0.809
  262SOL    MW4 1080   0.187   3.846   0.858
  263SOL     OW 1081   0.038   4.048   0.730
  263SOL    HW2 1082  -0.045   4.006   0.707
  263SOL    HW3 1083   0.089   3.980   0.774
  263SOL    MW4 1084   0.034   4.034   0.733
  264SOL     OW 1085   0.011   4.284   0.886
  264SOL    HW2 1086   0.011   4.266   0.980
  264SOL    HW3 1087   0.010   4.198   0.844
  264SOL    MW4 1088   0.011   4.271   0.893
  265SOL     OW 1089   0.244   4.363   0.747
  265SOL    HW2 1090   0.159   4.351   0.791
  265SOL    HW3 1091   0.223   4.362   0.654
  265SOL    MW4 1092   0.230   4.361   0.741
  266SOL     OW 1093   0.680   4.600   0.820
  266SOL    HW2 1094   0.662   4.571   0.910
  266SOL    HW3 1095   0.612   4.663   0.801
  266SOL    MW4 1096   0.669   4.604   0.830
  267SOL     OW 1097   0.493   0.108   0.729
  267SOL    HW2 1098   0.424   0.053   0.768
  267SOL    HW3 1099   0.495   0.082   0.637
  267SOL    MW4 1100   0.484   0.097   0.722
  268SOL     OW 1101   0.469   0.367   0.822
  268SOL    HW2 1102   0.546   0.411   0.788
  268SOL    HW3 1103   0.475   0.278   0.789
  268SOL    MW4 1104   0.480   0.361   0.813
  269SOL     OW 1105   0.671   0.506   0.721
  269SOL    HW2 1106   0.745   0.451   0.748
  269SOL    HW3 1107   0.675   0.507   0.625
  269SOL    MW4 1108   0.681   0.499   0.712
  270SOL     OW 1109   0.665   0.755   0.836
  270SOL    HW2 1110   0.584   0.802   0.818
  270SOL    HW3 1111   0.651   0.668   0.797
  270SOL    MW4 1112   0.653   0.750   0.828
  271SOL     OW 1113   0.438   0.917   0.755
  271SOL    HW2 1114   0.438   0.997   0.807
  271SOL    HW3 1115   0.364   0.866   0.788
  271SOL    MW4 1116   0.429   0.921   0.766
  272SOL     OW 1117   0.486   1.150   0.876
  272SOL    HW2 1118   0.557   1.171   0.816
  272SOL    HW3 1119   0.406   1.178   0.831
  272SOL    MW4 1120   0.484   1.156   0.862
  273SOL     OW 1121   0.692   1.275   0.708
  273SOL    HW2 1122   0.695   1.362   0.749
  273SOL    HW3 1123   0.730   1.289   0.621
  273SOL    MW4 1124   0.697   1.288   0.702
  274SOL     OW 1125   0.705   1.530   0.816
  274SOL    HW2 1126   0.689   1.526   0.910
  274SOL    HW3 1127   0.624   1.564   0.778
  274SOL    MW4 1128   0.692   1.534   0.823
  275SOL     OW 1129   0.446   1.633   0.724
  275SOL    HW2 1130   0.432   1.724   0.697
  275SOL    HW3 1131   0.420   1.581   0.649
  275SOL    MW4 1132   0.440   1.638   0.711
  276SOL     OW 1133   0.457   1.904   0.639
  276SOL    HW2 1134   0.372   1.947   0.635
  276SOL    HW3 1135   0.500   1.930   0.557
  276SOL    MW4 1136   0.452   1.913   0.628
  277SOL     OW 1137   0.607   2.037   0.842
  277SOL    HW2 1138   0.552   2.002   0.913
  277SOL    HW3 1139   0.548   2.042   0.767
  277SOL    MW4 1140   0.592   2.033   0.842
  278SOL     OW 1141   0.661   2.316   0.883
  278SOL    HW2 1142   0.660   2.332   0.977
  278SOL    HW3 1143   0.628   2.226   0.874
  278SOL    MW4 1144   0.656   2.306   0.894
  279SOL     OW 1145   0.468   2.483   0.753
  279SOL    HW2 1146   0.551   2.447   0.785
  279SOL    HW3 1147   0.482   2.495   0.659
  279SOL    MW4 1148   0.481   2.480   0.745
  280SOL     OW 1149   0.484   2.757   0.792
  280SOL    HW2 1150   0.477   2.662   0.781
  280SOL    HW3 1151   0.401   2.791   0.761
  280SOL    MW4 1152   0.472   2.749   0.787
  281SOL     OW 1153   0.730   2.794   0.668
  281SOL    HW2 1154   0.796   2.756   0.726
  281SOL    HW3 1155   0.648   2.790   0.717
  281SOL    MW4 1156   0.728   2.788   0.682
  282SOL     OW 1157   0.775   3.060   0.798
  282SOL    HW2 1158   0.685   3.092   0.787
  282SOL    HW3 1159   0.774   2.971   0.762
  282SOL    MW4 1160   0.763   3.053   0.792
  283SOL     OW 1161   0.524   3.157   0.781
  283SOL    HW2 1162   0.539   3.251   0.785
  283SOL    HW3 1163   0.435   3.144   0.814
  283SOL    MW4 1164   0.514   3.167   0.786
  284SOL     OW 1165   0.489   3.453   0.819
  284SOL    HW2 1166   0.504   3.436   0.912
  284SOL    HW3 1167   0.402   3.493   0.815
  284SOL    MW4 1168   0.480   3.456   0.830
  285SOL     OW 1169   0.693   3.590   0.661
  285SOL    HW2 1170   0.621   3.547   0.706
  285SOL    HW3 1171   0.706   3.672   0.709
  285SOL    MW4 1172   0.685   3.595   0.673
  286SOL     OW 1173   0.676   3.828   0.843
  286SOL    HW2 1174   0.739   3.887   0.802
  286SOL    HW3 1175   0.591   3.861   0.816
  286SOL    MW4 1176   0.673   3.840   0.834
  287SOL     OW 1177   0.433   3.962   0.758
  287SOL    HW2 1178   0.437   4.056   0.778
  287SOL    HW3 1179   0.345   3.935   0.787
  287SOL    MW4 1180   0.422   3.971   0.765
  288SOL     OW 1181   0.482   4.225   0.815
  288SOL    HW2 1182   0.474   4.204   0.909
  288SOL    HW3 1183   0.404   4.277   0.796
  288SOL    MW4 1184   0.471   4.229   0.825
  289SOL     OW 1185   0.658   4.378   0.672
  289SOL    HW2 1186   0.599   4.322   0.722
  289SOL    HW3 1187   0.670   4.456   0.726
  289SOL    MW4 1188   0.652   4.381   0.686
  290SOL     OW 1189   1.116   4.630   0.830
  290SOL    HW2 1190   1.193   4.681   0.808
  290SOL    HW3 1191   1.045   4.670   0.779
  290SOL    MW4 1192   1.117   4.642   0.820
  291SOL     OW 1193   0.896   0.095   0.686
  291SOL    HW2 1194   0.880   0.178   0.732
  291SOL    HW3 1195   0.837   0.033   0.728
  291SOL    MW4 1196   0.886   0.098   0.698
  292SOL     OW 1197   0.893   0.351   0.818
  292SOL    HW2 1198   0.905   0.350   0.913
  292SOL    HW3 1199   0.961   0.409   0.785
  292SOL    MW4 1200   0.903   0.358   0.826
  293SOL     OW 1201   1.131   0.464   0.739
  293SOL    HW2 1202   1.205   0.418   0.778
  293SOL    HW3 1203   1.142   0.453   0.645
  293SOL    MW4 1204   1.142   0.456   0.732
  294SOL     OW 1205   1.119   0.739   0.810
  294SOL    HW2 1206   1.117   0.748   0.906
  294SOL    HW3 1207   1.119   0.644   0.795
  294SOL    MW4 1208   1.119   0.728   0.821
  295SOL     OW 1209   0.881   0.876   0.736
  295SOL    HW2 1210   0.958   0.825   0.762
  295SOL    HW3 1211   0.807   0.833   0.778
  295SOL    MW4 1212   0.882   0.864   0.745
  296SOL     OW 1213   0.897   1.135   0.858
  296SOL    HW2 1214   0.890   1.047   0.822
  296SOL    HW3 1215   0.825   1.183   0.818
  296SOL    MW4 1216   0.887   1.130   0.848
  297SOL     OW 1217   1.139   1.265   0.813
  297SOL    HW2 1218   1.058   1.216   0.828
  297SOL    HW3 1219   1.131   1.298   0.723
  297SOL    MW4 1220   1.127   1.263   0.803
  298SOL     OW 1221   1.137   1.536   0.842
  298SOL    HW2 1222   1.050   1.549   0.803
  298SOL    HW3 1223   1.146   1.440   0.846
  298SOL    MW4 1224   1.127   1.525   0.837
  299SOL     OW 1225   0.904   1.689   0.694
  299SOL    HW2 1226   0.886   1.772   0.738
  299SOL    HW3 1227   0.831   1.632   0.720
  299SOL    MW4 1228   0.892   1.693   0.703
  300SOL     OW 1229   0.885   1.932   0.850
  300SOL    HW2 1230   0.892   1.920   0.944
  300SOL    HW3 1231   0.794   1.957   0.835
  300SOL    MW4 1232   0.874   1.934   0.860
  301SOL     OW 1233   1.123   2.067   0.721
  301SOL    HW2 1234   1.122   2.147   0.775
  301SOL    HW3 1235   1.060   2.009   0.763
  301SOL    MW4 1236   1.115   2.070   0.734
  302SOL     OW 1237   1.114   2.337   0.874
  302SOL    HW2 1238   1.123   2.330   0.969
  302SOL    HW3 1239   1.202   2.352   0.842
  302SOL    MW4 1240   1.127   2.338   0.882
  303SOL     OW 1241   0.881   2.483   0.792
  303SOL    HW2 1242   0.968   2.454   0.819
  303SOL    HW3 1243   0.820   2.419   0.829
  303SOL    MW4 1244   0.884   2.471   0.800
  304SOL     OW 1245   0.917   2.744   0.892
  304SOL    HW2 1246   0.935   2.744   0.986
  304SOL    HW3 1247   0.917   2.652   0.867
  304SOL    MW4 1248   0.919   2.732   0.901
  305SOL     OW 1249   1.132   2.873   0.762
  305SOL    HW2 1250   1.062   2.828   0.809
  305SOL    HW3 1251   1.118   2.848   0.670
  305SOL    MW4 1252   1.121   2.864   0.756
  306SOL     OW 1253   1.169   3.145   0.809
  306SOL    HW2 1254   1.101   3.192   0.761
  306SOL    HW3 1255   1.147   3.053   0.798
  306SOL    MW4 1256   1.157   3.139   0.801
  307SOL     OW 1257   0.967   3.270   0.671
  307SOL    HW2 1258   0.928   3.337   0.727
  307SOL    HW3 1259   0.924   3.188   0.696
  307SOL    MW4 1260   0.956   3.268   0.681
  308SOL     OW 1261   0.917   3.486   0.820
  308SOL    HW2 1262   0.989   3.543   0.795
  308SOL    HW3 1263   0.841   3.520   0.772
  308SOL    MW4 1264   0.916   3.498   0.810
  309SOL     OW 1265   1.129   3.651   0.740
  309SOL    HW2 1266   1.188   3.583   0.771
  309SOL    HW3 1267   1.138   3.650   0.645
  309SOL    MW4 1268   1.138   3.642   0.732
  310SOL     OW 1269   1.137   3.917   0.847
  310SOL    HW2 1270   1.163   3.922   0.938
  310SOL    HW3 1271   1.140   3.824   0.826
  310SOL    MW4 1272   1.141   3.906   0.856
  311SOL     OW 1273   0.893   3.990   0.754
  311SOL    HW2 1274   0.904   4.084   0.766
  311SOL    HW3 1275   0.971   3.951   0.794
  311SOL    MW4 1276   0.905   3.997   0.761
  312SOL     OW 1277   0.918   4.259   0.807
  312SOL    HW2 1278   1.006   4.292   0.790
  312SOL    HW3 1279   0.860   4.318   0.759
  312SOL    MW4 1280   0.922   4.271   0.799
  313SOL     OW 1281   1.175   4.352   0.763
  313SOL    HW2 1282   1.253   4.326   0.811
  313SOL    HW3 1283   1.170   4.447   0.775
  313SOL    MW4 1284   1.184   4.361   0.771
  314SOL     OW 1285   1.584   4.596   0.860
  314SOL    HW2 1286   1.588   4.612   0.954
  314SOL    HW3 1287   1.512   4.652   0.829
  314SOL    MW4 1288   1.575   4.606   0.868
  315SOL     OW 1289   1.354   0.084   0.758
  315SOL    HW2 1290   1.379   0.174   0.780
  315SOL    HW3 1291   1.339   0.086   0.664
  315SOL    MW4 1292   1.356   0.096   0.749
  316SOL     OW 1293   1.370   0.336   0.824
  316SOL    HW2 1294   1.378   0.345   0.919
  316SOL    HW3 1295   1.435   0.396   0.788
  316SOL    MW4 1296   1.380   0.345   0.832
  317SOL     OW 1297   1.543   0.496   0.695
  317SOL    HW2 1298   1.533   0.579   0.742
  317SOL    HW3 1299   1.617   0.453   0.738
  317SOL    MW4 1300   1.552   0.502   0.706
  318SOL     OW 1301   1.512   0.753   0.816
  318SOL    HW2 1302   1.593   0.796   0.791
  318SOL    HW3 1303   1.445   0.793   0.761
  318SOL    MW4 1304   1.513   0.764   0.805
  319SOL     OW 1305   1.302   0.907   0.694
  319SOL    HW2 1306   1.322   0.974   0.759
  319SOL    HW3 1307   1.239   0.849   0.737
  319SOL    MW4 1308   1.296   0.908   0.708
  320SOL     OW 1309   1.364   1.119   0.882
  320SOL    HW2 1310   1.440   1.156   0.837
  320SOL    HW3 1311   1.297   1.188   0.875
  320SOL    MW4 1312   1.366   1.133   0.875
  321SOL     OW 1313   1.581   1.232   0.733
  321SOL    HW2 1314   1.591   1.328   0.735
  321SOL    HW3 1315   1.591   1.210   0.640
  321SOL    MW4 1316   1.584   1.242   0.721
  322SOL     OW 1317   1.782   1.659   0.885
  322SOL    HW2 1318   1.738   1.638   0.967
  322SOL    HW3 1319   1.862   1.605   0.887
  322SOL    MW4 1320   1.787   1.649   0.896
  323SOL     OW 1321   1.346   1.661   0.687
  323SOL    HW2 1322   1.357   1.747   0.729
  323SOL    HW3 1323   1.281   1.616   0.740
  323SOL    MW4 1324   1.339   1.667   0.699
  324SOL     OW 1325   1.355   1.909   0.812
  324SOL    HW2 1326   1.375   1.937   0.901
  324SOL    HW3 1327   1.289   1.971   0.781
  324SOL    MW4 1328   1.349   1.921   0.820
  325SOL     OW 1329   1.598   2.046   0.753
  325SOL    HW2 1330   1.519   1.996   0.772
  325SOL    HW3 1331   1.588   2.073   0.662
  325SOL    MW4 1332   1.587   2.043   0.744
  326SOL     OW 1333   1.604   2.308   0.859
  326SOL    HW2 1334   1.527   2.336   0.810
  326SOL    HW3 1335   1.607   2.213   0.847
  326SOL    MW4 1336   1.594   2.299   0.851
  327SOL     OW 1337   1.366   2.418   0.769
  327SOL    HW2 1338   1.350   2.509   0.794
  327SOL    HW3 1339   1.340   2.413   0.677
  327SOL    MW4 1340   1.360   2.429   0.761
  328SOL     OW 1341   1.342   2.708   0.824
  328SOL    HW2 1342   1.356   2.708   0.919
  328SOL    HW3 1343   1.268   2.766   0.811
  328SOL    MW4 1344   1.334   2.715   0.835
  329SOL     OW 1345   1.564   2.830   0.690
  329SOL    HW2 1346   1.586   2.914   0.730
  329SOL    HW3 1347   1.490   2.798   0.742
  329SOL    MW4 1348   1.557   2.837   0.703
  330SOL     OW 1349   1.620   3.076   0.794
  330SOL    HW2 1350   1.629   3.101   0.886
  330SOL    HW3 1351   1.545   3.126   0.763
  330SOL    MW4 1352   1.612   3.086   0.802
  331SOL     OW 1353   1.415   3.240   0.717
  331SOL    HW2 1354   1.328   3.207   0.741
  331SOL    HW3 1355   1.416   3.240   0.622
  331SOL    MW4 1356   1.404   3.236   0.708
  332SOL     OW 1357   1.312   3.485   0.839
  332SOL    HW2 1358   1.389   3.542   0.836
  332SOL    HW3 1359   1.340   3.404   0.798
  332SOL    MW4 1360   1.326   3.482   0.833
  333SOL     OW 1361   1.551   3.654   0.761
  333SOL    HW2 1362   1.626   3.607   0.796
  333SOL    HW3 1363   1.575   3.672   0.670
  333SOL    MW4 1364   1.564   3.650   0.753
  334SOL     OW 1365   1.573   3.915   0.845
  334SOL    HW2 1366   1.522   3.969   0.784
  334SOL    HW3 1367   1.556   3.825   0.817
  334SOL    MW4 1368   1.564   3.910   0.833
  335SOL     OW 1369   1.353   4.046   0.677
  335SOL    HW2 1370   1.271   4.010   0.711
  335SOL    HW3 1371   1.368   3.999   0.595
  335SOL    MW4 1372   1.344   4.035   0.670
  336SOL     OW 1373   1.407   4.236   0.866
  336SOL    HW2 1374   1.476   4.289   0.825
  336SOL    HW3 1375   1.399   4.160   0.808
  336SOL    MW4 1376   1.415   4.233   0.853
  337SOL     OW 1377   1.613   4.359   0.739
  337SOL    HW2 1378   1.704   4.336   0.758
  337SOL    HW3 1379   1.598   4.441   0.786
  337SOL    MW4 1380   1.623   4.367   0.747
  338SOL     OW 1381   1.739   0.117   0.709
  338SOL    HW2 1382   1.830   0.108   0.682
  338SOL    HW3 1383   1.726   0.050   0.775
  338SOL    MW4 1384   1.749   0.107   0.714
  339SOL     OW 1385   1.644   0.099   0.450
  339SOL    HW2 1386   1.550   0.085   0.453
  339SOL    HW3 1387   1.670   0.105   0.542
  339SOL    MW4 1388   1.635   0.098   0.463
  340SOL     OW 1389   1.736   0.377   0.841
  340SOL    HW2 1390   1.754   0.295   0.795
  340SOL    HW3 1391   1.812   0.432   0.821
  340SOL    MW4 1392   1.748   0.373   0.832
  341SOL     OW 1393   1.979   0.528   0.764
  341SOL    HW2 1394   1.984   0.519   0.669
  341SOL    HW3 1395   2.062   0.492   0.795
  341SOL    MW4 1396   1.991   0.522   0.755
  342SOL     OW 1397   2.005   0.775   0.862
  342SOL    HW2 1398   2.088   0.811   0.830
  342SOL    HW3 1399   1.992   0.695   0.812
  342SOL    MW4 1400   2.014   0.769   0.851
  343SOL     OW 1401   1.761   0.899   0.807
  343SOL    HW2 1402   1.769   0.990   0.834
  343SOL    HW3 1403   1.844   0.859   0.832
  343SOL    MW4 1404   1.773   0.906   0.814
  344SOL     OW 1405   1.772   1.176   0.914
  344SOL    HW2 1406   1.852   1.202   0.867
  344SOL    HW3 1407   1.700   1.204   0.857
  344SOL    MW4 1408   1.773   1.183   0.901
  345SOL     OW 1409   2.023   1.236   0.787
  345SOL    HW2 1410   2.106   1.194   0.808
  345SOL    HW3 1411   2.022   1.242   0.691
  345SOL    MW4 1412   2.034   1.232   0.777
  346SOL     OW 1413   2.037   1.508   0.888
  346SOL    HW2 1414   2.099   1.566   0.845
  346SOL    HW3 1415   2.067   1.420   0.866
  346SOL    MW4 1416   2.049   1.504   0.880
  347SOL     OW 1417   1.885   1.462   0.400
  347SOL    HW2 1418   1.938   1.534   0.365
  347SOL    HW3 1419   1.798   1.500   0.409
  347SOL    MW4 1420   1.881   1.477   0.396
  348SOL     OW 1421   1.840   1.934   0.846
  348SOL    HW2 1422   1.832   1.840   0.863
  348SOL    HW3 1423   1.751   1.961   0.822
  348SOL    MW4 1424   1.827   1.925   0.845
  349SOL     OW 1425   2.064   2.076   0.786
  349SOL    HW2 1426   2.060   2.166   0.819
  349SOL    HW3 1427   1.980   2.038   0.813
  349SOL    MW4 1428   2.052   2.083   0.794
  350SOL     OW 1429   2.088   2.347   0.829
  350SOL    HW2 1430   2.093   2.363   0.923
  350SOL    HW3 1431   2.004   2.385   0.803
  350SOL    MW4 1432   2.077   2.354   0.838
  351SOL     OW 1433   1.837   2.432   0.735
  351SOL    HW2 1434   1.756   2.386   0.756
  351SOL    HW3 1435   1.847   2.421   0.640
  351SOL    MW4 1436   1.828   2.424   0.725
  352SOL     OW 1437   1.772   2.672   0.849
  352SOL    HW2 1438   1.791   2.586   0.812
  352SOL    HW3 1439   1.702   2.707   0.793
  352SOL    MW4 1440   1.765   2.665   0.836
  353SOL     OW 1441   1.958   2.829   0.731
  353SOL    HW2 1442   2.038   2.787   0.764
  353SOL    HW3 1443   1.888   2.793   0.785
  353SOL    MW4 1444   1.959   2.819   0.743
  354SOL     OW 1445   1.989   3.117   0.845
  354SOL    HW2 1446   1.926   3.171   0.797
  354SOL    HW3 1447   1.956   3.027   0.834
  354SOL    MW4 1448   1.976   3.112   0.837
  355SOL     OW 1449   1.805   3.245   0.700
  355SOL    HW2 1450   1.736   3.187   0.732
  355SOL    HW3 1451   1.803   3.235   0.605
  355SOL    MW4 1452   1.795   3.236   0.692
  356SOL     OW 1453   1.778   3.498   0.827
  356SOL    HW2 1454   1.806   3.487   0.918
  356SOL    HW3 1455   1.779   3.409   0.791
  356SOL    MW4 1456   1.782   3.485   0.835
  357SOL     OW 1457   2.018   3.583   0.730
  357SOL    HW2 1458   2.022   3.672   0.763
  357SOL    HW3 1459   1.930   3.553   0.755
  357SOL    MW4 1460   2.007   3.591   0.738
  358SOL     OW 1461   2.056   3.858   0.849
  358SOL    HW2 1462   2.062   3.871   0.943
  358SOL    HW3 1463   1.975   3.903   0.824
  358SOL    MW4 1464   2.046   3.865   0.858
  359SOL     OW 1465   1.825   3.988   0.760
  359SOL    HW2 1466   1.733   3.967   0.779
  359SOL    HW3 1467   1.835   3.965   0.667
  359SOL    MW4 1468   1.814   3.982   0.750
  360SOL     OW 1469   1.856   4.261   0.825
  360SOL    HW2 1470   1.846   4.271   0.920
  360SOL    HW3 1471   1.837   4.169   0.809
  360SOL    MW4 1472   1.852   4.250   0.836
  361SOL     OW 1473   2.100   4.349   0.750
  361SOL    HW2 1474   2.009   4.328   0.772
  361SOL    HW3 1475   2.112   4.316   0.661
  361SOL    MW4 1476   2.089   4.342   0.741
  362SOL     OW 1477   2.618   4.590   0.814
  362SOL    HW2 1478   2.590   4.500   0.835
  362SOL    HW3 1479   2.539   4.643   0.827
  362SOL    MW4 1480   2.604   4.585   0.818
  363SOL     OW 1481   2.322   0.116   0.839
  363SOL    HW2 1482   2.373   0.112   0.919
  363SOL    HW3 1483   2.239   0.074   0.861
  363SOL    MW4 1484   2.318   0.110   0.852
  364SOL     OW 1485   2.212   0.393   0.856
  364SOL    HW2 1486   2.291   0.441   0.831
  364SOL    HW3 1487   2.238   0.301   0.855
  364SOL    MW4 1488   2.226   0.387   0.853
  365SOL     OW 1489   2.458   0.461   0.746
  365SOL    HW2 1490   2.452   0.404   0.669
  365SOL    HW3 1491   2.546   0.446   0.781
  365SOL    MW4 1492   2.469   0.452   0.740
  366SOL     OW 1493   2.485   0.736   0.685
  366SOL    HW2 1494   2.538   0.738   0.606
  366SOL    HW3 1495   2.465   0.643   0.697
  366SOL    MW4 1496   2.489   0.724   0.676
  367SOL     OW 1497   2.239   0.879   0.741
  367SOL    HW2 1498   2.306   0.821   0.707
  367SOL    HW3 1499   2.214   0.934   0.666
  367SOL    MW4 1500   2.244   0.879   0.727
  368SOL     OW 1501   2.259   1.131   0.874
  368SOL    HW2 1502   2.243   1.131   0.969
  368SOL    HW3 1503   2.240   1.041   0.847
  368SOL    MW4 1504   2.254   1.119   0.883
  369SOL     OW 1505   2.471   1.258   0.725
  369SOL    HW2 1506   2.425   1.213   0.796
  369SOL    HW3 1507   2.563   1.238   0.740
  369SOL    MW4 1508   2.477   1.249   0.737
  370SOL     OW 1509   2.462   1.520   0.873
  370SOL    HW2 1510   2.539   1.569   0.845
  370SOL    HW3 1511   2.467   1.438   0.824
  370SOL    MW4 1512   2.473   1.516   0.863
  371SOL     OW 1513   2.236   1.655   0.788
  371SOL    HW2 1514   2.310   1.599   0.810
  371SOL    HW3 1515   2.239   1.664   0.693
  371SOL    MW4 1516   2.246   1.649   0.778
  372SOL     OW 1517   2.284   1.929   0.834
  372SOL    HW2 1518   2.266   1.837   0.814
  372SOL    HW3 1519   2.203   1.974   0.811
  372SOL    MW4 1520   2.271   1.923   0.828
  373SOL     OW 1521   2.515   2.077   0.752
  373SOL    HW2 1522   2.440   2.042   0.800
  373SOL    HW3 1523   2.500   2.050   0.661
  373SOL    MW4 1524   2.503   2.069   0.746
  374SOL     OW 1525   2.622   2.302   0.837
  374SOL    HW2 1526   2.575   2.372   0.791
  374SOL    HW3 1527   2.577   2.222   0.810
  374SOL    MW4 1528   2.610   2.301   0.827
  375SOL     OW 1529   2.228   2.440   0.605
  375SOL    HW2 1530   2.313   2.472   0.633
  375SOL    HW3 1531   2.202   2.378   0.673
  375SOL    MW4 1532   2.235   2.436   0.618
  376SOL     OW 1533   2.184   2.700   0.813
  376SOL    HW2 1534   2.196   2.685   0.907
  376SOL    HW3 1535   2.184   2.612   0.774
  376SOL    MW4 1536   2.186   2.686   0.820
  377SOL     OW 1537   2.423   2.820   0.743
  377SOL    HW2 1538   2.492   2.775   0.792
  377SOL    HW3 1539   2.342   2.781   0.774
  377SOL    MW4 1540   2.421   2.809   0.754
  378SOL     OW 1541   2.470   3.072   0.835
  378SOL    HW2 1542   2.481   3.067   0.930
  378SOL    HW3 1543   2.444   2.984   0.809
  378SOL    MW4 1544   2.468   3.060   0.844
  379SOL     OW 1545   2.252   3.223   0.769
  379SOL    HW2 1546   2.170   3.180   0.793
  379SOL    HW3 1547   2.320   3.162   0.799
  379SOL    MW4 1548   2.250   3.209   0.776
  380SOL     OW 1549   2.261   3.490   0.811
  380SOL    HW2 1550   2.258   3.395   0.795
  380SOL    HW3 1551   2.172   3.520   0.794
  380SOL    MW4 1552   2.249   3.481   0.806
  381SOL     OW 1553   2.487   3.606   0.717
  381SOL    HW2 1554   2.562   3.554   0.747
  381SOL    HW3 1555   2.412   3.564   0.758
  381SOL    MW4 1556   2.487   3.593   0.726
  382SOL     OW 1557   2.533   3.877   0.779
  382SOL    HW2 1558   2.451   3.923   0.761
  382SOL    HW3 1559   2.512   3.785   0.767
  382SOL    MW4 1560   2.519   3.871   0.775
  383SOL     OW 1561   2.264   3.987   0.733
  383SOL    HW2 1562   2.196   3.937   0.778
  383SOL    HW3 1563   2.230   3.999   0.644
  383SOL    MW4 1564   2.251   3.982   0.727
  384SOL     OW 1565   2.305   4.227   0.860
  384SOL    HW2 1566   2.296   4.136   0.833
  384SOL    HW3 1567   2.241   4.275   0.808
  384SOL    MW4 1568   2.296   4.222   0.850
  385SOL     OW 1569   2.566   4.316   0.861
  385SOL    HW2 1570   2.585   4.332   0.953
  385SOL    HW3 1571   2.473   4.292   0.859
  385SOL    MW4 1572   2.556   4.315   0.873
  386SOL     OW 1573   2.879   4.599   0.887
  386SOL    HW2 1574   2.892   4.504   0.875
  386SOL    HW3 1575   2.786   4.612   0.873
  386SOL    MW4 1576   2.868   4.588   0.883
  387SOL     OW 1577   2.736   4.466   0.574
  387SOL    HW2 1578   2.814   4.518   0.556
  387SOL    HW3 1579   2.688   4.517   0.640
  387SOL    MW4 1580   2.740   4.480   0.581
  388SOL     OW 1581   2.725   0.451   0.834
  388SOL    HW2 1582   2.732   0.427   0.926
  388SOL    HW3 1583   2.811   0.489   0.812
  388SOL    MW4 1584   2.737   0.453   0.843
  389SOL     OW 1585   2.990   0.549   0.777
  389SOL    HW2 1586   3.037   0.470   0.805
  389SOL    HW3 1587   3.004   0.553   0.683
  389SOL    MW4 1588   2.998   0.539   0.768
  390SOL     OW 1589   2.915   0.782   0.908
  390SOL    HW2 1590   2.919   0.780   1.003
  390SOL    HW3 1591   2.928   0.691   0.882
  390SOL    MW4 1592   2.918   0.770   0.917
  391SOL     OW 1593   2.634   0.826   0.903
  391SOL    HW2 1594   2.722   0.789   0.899
  391SOL    HW3 1595   2.587   0.782   0.832
  391SOL    MW4 1596   2.639   0.815   0.893
  392SOL     OW 1597   2.698   1.079   0.789
  392SOL    HW2 1598   2.680   0.997   0.835
  392SOL    HW3 1599   2.676   1.061   0.697
  392SOL    MW4 1600   2.693   1.066   0.783
  393SOL     OW 1601   2.926   1.240   0.727
  393SOL    HW2 1602   3.008   1.202   0.758
  393SOL    HW3 1603   2.859   1.176   0.749
  393SOL    MW4 1604   2.928   1.227   0.734
  394SOL     OW 1605   2.920   1.488   0.880
  394SOL    HW2 1606   2.996   1.537   0.849
  394SOL    HW3 1607   2.917   1.410   0.824
  394SOL    MW4 1608   2.929   1.484   0.868
  395SOL     OW 1609   2.699   1.640   0.769
  395SOL    HW2 1610   2.693   1.730   0.801
  395SOL    HW3 1611   2.793   1.620   0.773
  395SOL    MW4 1612   2.711   1.649   0.774
  396SOL     OW 1613   2.719   1.922   0.824
  396SOL    HW2 1614   2.719   1.913   0.920
  396SOL    HW3 1615   2.650   1.986   0.806
  396SOL    MW4 1616   2.710   1.930   0.834
  397SOL     OW 1617   2.919   2.098   0.711
  397SOL    HW2 1618   2.904   2.178   0.761
  397SOL    HW3 1619   2.867   2.031   0.755
  397SOL    MW4 1620   2.910   2.100   0.723
  398SOL     OW 1621   2.892   2.358   0.828
  398SOL    HW2 1622   2.923   2.318   0.909
  398SOL    HW3 1623   2.798   2.366   0.839
  398SOL    MW4 1624   2.884   2.353   0.840
  399SOL     OW 1625   2.465   2.505   0.702
  399SOL    HW2 1626   2.511   2.516   0.618
  399SOL    HW3 1627   2.505   2.571   0.759
  399SOL    MW4 1628   2.477   2.515   0.698
  400SOL     OW 1629   2.646   2.708   0.875
  400SOL    HW2 1630   2.668   2.716   0.968
  400SOL    HW3 1631   2.719   2.750   0.829
  400SOL    MW4 1632   2.659   2.714   0.881
  401SOL     OW 1633   2.910   2.789   0.508
  401SOL    HW2 1634   2.940   2.698   0.506
  401SOL    HW3 1635   2.815   2.782   0.502
  401SOL    MW4 1636   2.901   2.776   0.507
  402SOL     OW 1637   2.923   3.082   0.845
  402SOL    HW2 1638   2.863   3.135   0.793
  402SOL    HW3 1639   2.901   2.992   0.822
  402SOL    MW4 1640   2.912   3.077   0.835
  403SOL     OW 1641   2.696   3.194   0.727
  403SOL    HW2 1642   2.694   3.285   0.757
  403SOL    HW3 1643   2.610   3.159   0.748
  403SOL    MW4 1644   2.685   3.201   0.733
  404SOL     OW 1645   2.721   3.463   0.826
  404SOL    HW2 1646   2.706   3.464   0.921
  404SOL    HW3 1647   2.806   3.504   0.815
  404SOL    MW4 1648   2.730   3.468   0.837
  405SOL     OW 1649   2.994   3.612   0.801
  405SOL    HW2 1650   2.972   3.704   0.816
  405SOL    HW3 1651   2.986   3.601   0.706
  405SOL    MW4 1652   2.990   3.622   0.790
  406SOL     OW 1653   2.951   3.867   0.856
  406SOL    HW2 1654   2.950   3.877   0.951
  406SOL    HW3 1655   2.883   3.927   0.825
  406SOL    MW4 1656   2.942   3.876   0.865
  407SOL     OW 1657   2.755   4.018   0.733
  407SOL    HW2 1658   2.674   3.971   0.747
  407SOL    HW3 1659   2.796   3.976   0.657
  407SOL    MW4 1660   2.750   4.007   0.725
  408SOL     OW 1661   2.878   4.320   0.853
  408SOL    HW2 1662   2.826   4.292   0.929
  408SOL    HW3 1663   2.959   4.270   0.860
  408SOL    MW4 1664   2.882   4.310   0.864
  409SOL     OW 1665   3.131   4.367   0.469
  409SOL    HW2 1666   3.221   4.367   0.501
  409SOL    HW3 1667   3.083   4.314   0.532
  409SOL    MW4 1668   3.137   4.360   0.482
  410SOL     OW 1669   3.366   4.633   0.878
  410SOL    HW2 1670   3.352   4.635   0.973
  410SOL    HW3 1671   3.279   4.651   0.841
  410SOL    MW4 1672   3.353   4.636   0.886
  411SOL     OW 1673   3.107   0.065   0.802
  411SOL    HW2 1674   3.100   0.154   0.836
  411SOL    HW3 1675   3.026   0.023   0.830
  411SOL    MW4 1676   3.095   0.071   0.810
  412SOL     OW 1677   3.130   0.339   0.869
  412SOL    HW2 1678   3.130   0.355   0.964
  412SOL    HW3 1679   3.216   0.368   0.840
  412SOL    MW4 1680   3.141   0.345   0.878
  413SOL     OW 1681   3.383   0.434   0.779
  413SOL    HW2 1682   3.472   0.415   0.811
  413SOL    HW3 1683   3.374   0.381   0.700
  413SOL    MW4 1684   3.394   0.424   0.773
  414SOL     OW 1685   3.360   0.714   0.840
  414SOL    HW2 1686   3.280   0.749   0.801
  414SOL    HW3 1687   3.367   0.625   0.804
  414SOL    MW4 1688   3.351   0.707   0.830
  415SOL     OW 1689   3.140   0.859   0.752
  415SOL    HW2 1690   3.172   0.947   0.774
  415SOL    HW3 1691   3.065   0.846   0.809
  415SOL    MW4 1692   3.134   0.869   0.762
  416SOL     OW 1693   3.153   1.128   0.825
  416SOL    HW2 1694   3.160   1.140   0.920
  416SOL    HW3 1695   3.215   1.191   0.788
  416SOL    MW4 1696   3.162   1.138   0.833
  417SOL     OW 1697   3.371   1.241   0.680
  417SOL    HW2 1698   3.446   1.198   0.722
  417SOL    HW3 1699   3.364   1.325   0.724
  417SOL    MW4 1700   3.380   1.246   0.691
  418SOL     OW 1701   3.370   1.476   0.810
  418SOL    HW2 1702   3.391   1.503   0.899
  418SOL    HW3 1703   3.442   1.509   0.757
  418SOL    MW4 1704   3.382   1.484   0.814
  419SOL     OW 1705   3.130   1.621   0.763
  419SOL    HW2 1706   3.217   1.588   0.784
  419SOL    HW3 1707   3.121   1.606   0.669
  419SOL    MW4 1708   3.140   1.614   0.753
  420SOL     OW 1709   3.220   1.880   0.786
  420SOL    HW2 1710   3.216   1.897   0.880
  420SOL    HW3 1711   3.176   1.796   0.775
  420SOL    MW4 1712   3.214   1.872   0.797
  421SOL     OW 1713   3.618   1.968   0.875
  421SOL    HW2 1714   3.553   2.036   0.892
  421SOL    HW3 1715   3.574   1.906   0.816
  421SOL    MW4 1716   3.604   1.969   0.870
  422SOL     OW 1717   3.452   2.176   0.905
  422SOL    HW2 1718   3.408   2.186   0.989
  422SOL    HW3 1719   3.515   2.248   0.901
  422SOL    MW4 1720   3.454   2.187   0.915
  423SOL     OW 1721   3.138   2.485   0.770
  423SOL    HW2 1722   3.207   2.420   0.758
  423SOL    HW3 1723   3.059   2.432   0.787
  423SOL    MW4 1724   3.136   2.469   0.771
  424SOL     OW 1725   3.136   2.737   0.876
  424SOL    HW2 1726   3.141   2.651   0.834
  424SOL    HW3 1727   3.208   2.787   0.836
  424SOL    MW4 1728   3.146   2.732   0.865
  425SOL     OW 1729   3.349   2.871   0.723
  425SOL    HW2 1730   3.284   2.888   0.655
  425SOL    HW3 1731   3.414   2.814   0.681
  425SOL    MW4 1732   3.349   2.866   0.708
  426SOL     OW 1733   3.455   3.092   0.815
  426SOL    HW2 1734   3.467   3.104   0.909
  426SOL    HW3 1735   3.422   3.003   0.806
  426SOL    MW4 1736   3.452   3.082   0.826
  427SOL     OW 1737   3.168   3.211   0.833
  427SOL    HW2 1738   3.236   3.155   0.869
  427SOL    HW3 1739   3.086   3.172   0.864
  427SOL    MW4 1740   3.166   3.198   0.842
  428SOL     OW 1741   3.235   3.504   0.866
  428SOL    HW2 1742   3.214   3.411   0.856
  428SOL    HW3 1743   3.154   3.549   0.843
  428SOL    MW4 1744   3.221   3.498   0.862
  429SOL     OW 1745   3.388   4.358   0.569
  429SOL    HW2 1746   3.413   4.273   0.533
  429SOL    HW3 1747   3.464   4.414   0.554
  429SOL    MW4 1748   3.401   4.354   0.562
  430SOL     OW 1749   3.466   3.898   0.868
  430SOL    HW2 1750   3.478   3.993   0.864
  430SOL    HW3 1751   3.419   3.882   0.950
  430SOL    MW4 1752   3.461   3.908   0.878
  431SOL     OW 1753   3.111   4.022   0.686
  431SOL    HW2 1754   3.192   3.972   0.675
  431SOL    HW3 1755   3.059   3.970   0.747
  431SOL    MW4 1756   3.115   4.008   0.693
  432SOL     OW 1757   3.132   4.222   0.900
  432SOL    HW2 1758   3.211   4.276   0.891
  432SOL    HW3 1759   3.157   4.137   0.863
  432SOL    MW4 1760   3.146   4.218   0.894
  433SOL     OW 1761   3.385   4.354   0.848
  433SOL    HW2 1762   3.400   4.445   0.873
  433SOL    HW3 1763   3.383   4.355   0.752
  433SOL    MW4 1764   3.387   4.366   0.839
  434SOL     OW 1765   3.813   4.628   0.868
  434SOL    HW2 1766   3.888   4.686   0.853
  434SOL    HW3 1767   3.737   4.677   0.835
  434SOL    MW4 1768   3.813   4.642   0.862
  435SOL     OW 1769   3.569   0.093   0.754
  435SOL    HW2 1770   3.492   0.052   0.792
  435SOL    HW3 1771   3.553   0.092   0.660
  435SOL    MW4 1772   3.557   0.087   0.747
  436SOL     OW 1773   3.642   0.351   0.867
  436SOL    HW2 1774   3.619   0.343   0.960
  436SOL    HW3 1775   3.617   0.266   0.829
  436SOL    MW4 1776   3.636   0.339   0.874
  437SOL     OW 1777   3.824   0.525   0.786
  437SOL    HW2 1778   3.817   0.604   0.839
  437SOL    HW3 1779   3.758   0.466   0.822
  437SOL    MW4 1780   3.814   0.528   0.798
  438SOL     OW 1781   3.808   0.787   0.877
  438SOL    HW2 1782   3.831   0.774   0.969
  438SOL    HW3 1783   3.882   0.836   0.841
  438SOL    MW4 1784   3.821   0.791   0.885
  439SOL     OW 1785   3.580   0.850   0.720
  439SOL    HW2 1786   3.661   0.818   0.760
  439SOL    HW3 1787   3.510   0.803   0.766
  439SOL    MW4 1788   3.581   0.839   0.731
  440SOL     OW 1789   3.566   1.119   0.818
  440SOL    HW2 1790   3.566   1.114   0.913
  440SOL    HW3 1791   3.573   1.027   0.790
  440SOL    MW4 1792   3.567   1.106   0.827
  441SOL     OW 1793   3.793   1.271   0.724
  441SOL    HW2 1794   3.715   1.227   0.758
  441SOL    HW3 1795   3.780   1.270   0.629
  441SOL    MW4 1796   3.781   1.265   0.716
  442SOL     OW 1797   3.808   1.544   0.814
  442SOL    HW2 1798   3.877   1.603   0.784
  442SOL    HW3 1799   3.840   1.457   0.792
  442SOL    MW4 1800   3.821   1.540   0.807
  443SOL     OW 1801   3.592   1.560   0.656
  443SOL    HW2 1802   3.564   1.651   0.663
  443SOL    HW3 1803   3.667   1.554   0.715
  443SOL    MW4 1804   3.598   1.571   0.665
  444SOL     OW 1805   3.827   2.051   0.704
  444SOL    HW2 1806   3.890   1.998   0.753
  444SOL    HW3 1807   3.744   2.037   0.750
  444SOL    MW4 1808   3.824   2.042   0.717
  445SOL     OW 1809   3.830   2.333   0.668
  445SOL    HW2 1810   3.773   2.357   0.741
  445SOL    HW3 1811   3.856   2.243   0.686
  445SOL    MW4 1812   3.826   2.325   0.680
  446SOL     OW 1813   4.135   1.728   0.459
  446SOL    HW2 1814   4.048   1.735   0.419
  446SOL    HW3 1815   4.174   1.814   0.446
  446SOL    MW4 1816   4.128   1.741   0.452
  447SOL     OW 1817   3.666   2.381   0.886
  447SOL    HW2 1818   3.682   2.476   0.889
  447SOL    HW3 1819   3.725   2.346   0.953
  447SOL    MW4 1820   3.676   2.389   0.895
  448SOL     OW 1821   3.722   2.657   0.858
  448SOL    HW2 1822   3.674   2.697   0.930
  448SOL    HW3 1823   3.761   2.731   0.811
  448SOL    MW4 1824   3.721   2.672   0.861
  449SOL     OW 1825   3.864   2.882   0.755
  449SOL    HW2 1826   3.828   2.967   0.779
  449SOL    HW3 1827   3.876   2.887   0.660
  449SOL    MW4 1828   3.861   2.894   0.746
  450SOL     OW 1829   3.745   3.116   0.850
  450SOL    HW2 1830   3.758   3.201   0.809
  450SOL    HW3 1831   3.656   3.090   0.823
  450SOL    MW4 1832   3.735   3.124   0.841
  451SOL     OW 1833   3.429   3.481   0.657
  451SOL    HW2 1834   3.414   3.392   0.626
  451SOL    HW3 1835   3.377   3.488   0.737
  451SOL    MW4 1836   3.420   3.470   0.663
  452SOL     OW 1837   3.685   3.557   0.774
  452SOL    HW2 1838   3.731   3.473   0.765
  452SOL    HW3 1839   3.601   3.543   0.731
  452SOL    MW4 1840   3.680   3.544   0.767
  453SOL     OW 1841   3.873   3.640   0.592
  453SOL    HW2 1842   3.803   3.609   0.649
  453SOL    HW3 1843   3.951   3.639   0.647
  453SOL    MW4 1844   3.874   3.636   0.607
  454SOL     OW 1845   3.722   3.823   0.857
  454SOL    HW2 1846   3.633   3.854   0.874
  454SOL    HW3 1847   3.711   3.731   0.830
  454SOL    MW4 1848   3.709   3.815   0.856
  455SOL     OW 1849   2.646   4.173   0.216
  455SOL    HW2 1850   2.663   4.196   0.124
  455SOL    HW3 1851   2.622   4.255   0.257
  455SOL    MW4 1852   2.645   4.187   0.209
  456SOL     OW 1853   3.562   4.155   0.869
  456SOL    HW2 1854   3.633   4.171   0.807
  456SOL    HW3 1855   3.501   4.228   0.856
  456SOL    MW4 1856   3.564   4.167   0.859
  457SOL     OW 1857   3.821   4.481   0.632
  457SOL    HW2 1858   3.790   4.392   0.648
  457SOL    HW3 1859   3.843   4.514   0.719
  457SOL    MW4 1860   3.820   4.473   0.646
  458SOL     OW 1861   4.257   0.015   0.869
  458SOL    HW2 1862   4.250  -0.003   0.963
  458SOL    HW3 1863   4.182   0.071   0.849
  458SOL    MW4 1864   4.246   0.020   0.879
  459SOL     OW 1865   4.018   0.129   0.776
  459SOL    HW2 1866   4.009   0.218   0.809
  459SOL    HW3 1867   4.040   0.139   0.684
  459SOL    MW4 1868   4.020   0.142   0.769
  460SOL     OW 1869   4.031   0.382   0.891
  460SOL    HW2 1870   4.105   0.424   0.845
  460SOL    HW3 1871   3.959   0.444   0.881
  460SOL    MW4 1872   4.031   0.396   0.883
  461SOL     OW 1873   4.225   0.515   0.767
  461SOL    HW2 1874   4.312   0.495   0.802
  461SOL    HW3 1875   4.231   0.493   0.674
  461SOL    MW4 1876   4.237   0.509   0.760
  462SOL     OW 1877   4.241   0.771   0.889
  462SOL    HW2 1878   4.170   0.828   0.858
  462SOL    HW3 1879   4.223   0.687   0.848
  462SOL    MW4 1880   4.229   0.768   0.879
  463SOL     OW 1881   4.025   0.910   0.776
  463SOL    HW2 1882   4.024   1.005   0.770
  463SOL    HW3 1883   4.003   0.880   0.688
  463SOL    MW4 1884   4.022   0.919   0.764
  464SOL     OW 1885   4.047   1.199   0.824
  464SOL    HW2 1886   4.041   1.185   0.919
  464SOL    HW3 1887   3.959   1.223   0.797
  464SOL    MW4 1888   4.035   1.200   0.833
  465SOL     OW 1889   4.304   1.330   0.755
  465SOL    HW2 1890   4.221   1.283   0.770
  465SOL    HW3 1891   4.370   1.277   0.799
  465SOL    MW4 1892   4.302   1.317   0.763
  466SOL     OW 1893   4.272   1.573   0.869
  466SOL    HW2 1894   4.275   1.576   0.964
  466SOL    HW3 1895   4.285   1.480   0.848
  466SOL    MW4 1896   4.274   1.561   0.879
  467SOL     OW 1897   4.051   1.654   0.724
  467SOL    HW2 1898   4.118   1.603   0.769
  467SOL    HW3 1899   4.090   1.679   0.641
  467SOL    MW4 1900   4.065   1.651   0.719
  468SOL     OW 1901   4.031   1.917   0.848
  468SOL    HW2 1902   4.036   1.828   0.812
  468SOL    HW3 1903   4.113   1.958   0.821
  468SOL    MW4 1904   4.042   1.910   0.839
  469SOL     OW 1905   4.263   2.054   0.738
  469SOL    HW2 1906   4.346   2.023   0.775
  469SOL    HW3 1907   4.273   2.044   0.644
  469SOL    MW4 1908   4.275   2.048   0.731
  470SOL     OW 1909   4.277   2.308   0.817
  470SOL    HW2 1910   4.205   2.344   0.765
  470SOL    HW3 1911   4.285   2.217   0.787
  470SOL    MW4 1912   4.269   2.300   0.806
  471SOL     OW 1913   4.091   2.638   0.525
  471SOL    HW2 1914   4.081   2.666   0.616
  471SOL    HW3 1915   4.005   2.652   0.486
  471SOL    MW4 1916   4.079   2.644   0.532
  472SOL     OW 1917   4.049   2.678   0.799
  472SOL    HW2 1918   4.134   2.722   0.792
  472SOL    HW3 1919   3.986   2.750   0.805
  472SOL    MW4 1920   4.052   2.693   0.799
  473SOL     OW 1921   4.277   2.804   0.725
  473SOL    HW2 1922   4.357   2.796   0.778
  473SOL    HW3 1923   4.308   2.801   0.635
  473SOL    MW4 1924   4.292   2.803   0.720
  474SOL     OW 1925   4.252   3.075   0.789
  474SOL    HW2 1926   4.259   2.986   0.755
  474SOL    HW3 1927   4.343   3.105   0.796
  474SOL    MW4 1928   4.265   3.068   0.786
  475SOL     OW 1929   4.121   3.323   0.720
  475SOL    HW2 1930   4.191   3.384   0.742
  475SOL    HW3 1931   4.161   3.236   0.730
  475SOL    MW4 1932   4.136   3.319   0.724
  476SOL     OW 1933   4.074   3.645   0.811
  476SOL    HW2 1934   4.074   3.597   0.893
  476SOL    HW3 1935   4.099   3.735   0.835
  476SOL    MW4 1936   4.078   3.651   0.825
  477SOL     OW 1937   4.363   3.526   0.738
  477SOL    HW2 1938   4.292   3.574   0.781
  477SOL    HW3 1939   4.357   3.551   0.646
  477SOL    MW4 1940   4.353   3.536   0.731
  478SOL     OW 1941   4.159   3.893   0.909
  478SOL    HW2 1942   4.203   3.886   0.993
  478SOL    HW3 1943   4.119   3.980   0.910
  478SOL    MW4 1944   4.160   3.904   0.920
  479SOL     OW 1945   3.854   3.997   0.705
  479SOL    HW2 1946   3.807   3.936   0.762
  479SOL    HW3 1947   3.867   3.948   0.624
  479SOL    MW4 1948   3.850   3.982   0.702
  480SOL     OW 1949   4.038   4.140   0.861
  480SOL    HW2 1950   4.090   4.171   0.787
  480SOL    HW3 1951   3.957   4.107   0.823
  480SOL    MW4 1952   4.034   4.140   0.846
  481SOL     OW 1953   4.319   4.446   0.747
  481SOL    HW2 1954   4.275   4.526   0.778
  481SOL    HW3 1955   4.368   4.414   0.822
  481SOL    MW4 1956   4.319   4.453   0.761
  482SOL     OW 1957   0.219   4.660   1.141
  482SOL    HW2 1958   0.299   4.708   1.165
  482SOL    HW3 1959   0.214   4.668   1.046
  482SOL    MW4 1960   0.229   4.667   1.132
  483SOL     OW 1961   4.465   0.109   1.214
  483SOL    HW2 1962   4.398   0.046   1.185
  483SOL    HW3 1963   4.548   0.069   1.188
  483SOL    MW4 1964   4.467   0.095   1.207
  484SOL     OW 1965   0.011   0.389   1.161
  484SOL    HW2 1966  -0.053   0.444   1.208
  484SOL    HW3 1967  -0.012   0.300   1.185
  484SOL    MW4 1968  -0.001   0.385   1.170
  485SOL     OW 1969   0.259   0.496   1.196
  485SOL    HW2 1970   0.247   0.583   1.158
  485SOL    HW3 1971   0.177   0.450   1.177
  485SOL    MW4 1972   0.246   0.501   1.188
  486SOL     OW 1973   0.253   0.779   1.137
  486SOL    HW2 1974   0.327   0.796   1.194
  486SOL    HW3 1975   0.177   0.814   1.184
  486SOL    MW4 1976   0.252   0.786   1.150
  487SOL     OW 1977   0.029   0.908   1.238
  487SOL    HW2 1978   0.050   0.888   1.329
  487SOL    HW3 1979  -0.062   0.879   1.227
  487SOL    MW4 1980   0.020   0.902   1.248
  488SOL     OW 1981   0.036   1.163   1.137
  488SOL    HW2 1982  -0.049   1.196   1.169
  488SOL    HW3 1983   0.048   1.080   1.183
  488SOL    MW4 1984   0.026   1.156   1.147
  489SOL     OW 1985   0.251   1.302   1.239
  489SOL    HW2 1986   0.330   1.263   1.201
  489SOL    HW3 1987   0.179   1.254   1.199
  489SOL    MW4 1988   0.252   1.291   1.229
  490SOL     OW 1989   0.274   1.558   1.129
  490SOL    HW2 1990   0.252   1.474   1.169
  490SOL    HW3 1991   0.257   1.546   1.036
  490SOL    MW4 1992   0.269   1.545   1.122
  491SOL     OW 1993   0.032   1.672   1.210
  491SOL    HW2 1994   0.025   1.757   1.167
  491SOL    HW3 1995   0.107   1.630   1.167
  491SOL    MW4 1996   0.041   1.678   1.199
  492SOL     OW 1997   0.032   1.908   1.093
  492SOL    HW2 1998  -0.042   1.957   1.128
  492SOL    HW3 1999   0.015   1.903   0.999
  492SOL    MW4 2000   0.020   1.914   1.085
  493SOL     OW 2001   0.233   2.060   1.204
  493SOL    HW2 2002   0.219   2.151   1.176
  493SOL    HW3 2003   0.163   2.011   1.159
  493SOL    MW4 2004   0.222   2.066   1.194
  494SOL     OW 2005   0.195   2.318   1.091
  494SOL    HW2 2006   0.259   2.374   1.137
  494SOL    HW3 2007   0.110   2.354   1.116
  494SOL    MW4 2008   0.192   2.330   1.101
  495SOL     OW 2009   4.467   2.437   1.185
  495SOL    HW2 2010   4.454   2.442   1.280
  495SOL    HW3 2011   4.395   2.383   1.154
  495SOL    MW4 2012   4.456   2.431   1.194
  496SOL     OW 2013   0.036   2.695   1.118
  496SOL    HW2 2014  -0.047   2.739   1.140
  496SOL    HW3 2015   0.025   2.606   1.154
  496SOL    MW4 2016   0.023   2.689   1.126
  497SOL     OW 2017   0.235   2.845   1.204
  497SOL    HW2 2018   0.235   2.828   1.298
  497SOL    HW3 2019   0.161   2.796   1.170
  497SOL    MW4 2020   0.225   2.837   1.212
  498SOL     OW 2021   0.206   3.105   1.128
  498SOL    HW2 2022   0.290   3.140   1.158
  498SOL    HW3 2023   0.199   3.019   1.169
  498SOL    MW4 2024   0.216   3.098   1.138
  499SOL     OW 2025   4.460   3.234   1.205
  499SOL    HW2 2026   4.388   3.202   1.152
  499SOL    HW3 2027   4.539   3.203   1.160
  499SOL    MW4 2028   4.461   3.226   1.192
  500SOL     OW 2029   4.477   3.468   1.077
  500SOL    HW2 2030   4.475   3.393   1.136
  500SOL    HW3 2031   4.513   3.433   0.995
  500SOL    MW4 2032   4.481   3.453   1.074
  501SOL     OW 2033   0.216   3.588   1.200
  501SOL    HW2 2034   0.195   3.602   1.292
  501SOL    HW3 2035   0.134   3.556   1.161
  501SOL    MW4 2036   0.202   3.586   1.207
  502SOL     OW 2037   0.244   3.855   1.125
  502SOL    HW2 2038   0.171   3.891   1.174
  502SOL    HW3 2039   0.244   3.762   1.147
  502SOL    MW4 2040   0.234   3.847   1.134
  503SOL     OW 2041   0.044   3.988   1.246
  503SOL    HW2 2042   0.018   3.994   1.338
  503SOL    HW3 2043  -0.035   3.957   1.201
  503SOL    MW4 2044   0.030   3.985   1.252
  504SOL     OW 2045   0.020   4.252   1.184
  504SOL    HW2 2046   0.086   4.309   1.224
  504SOL    HW3 2047   0.050   4.163   1.205
  504SOL    MW4 2048   0.033   4.248   1.192
  505SOL     OW 2049   0.252   4.400   1.232
  505SOL    HW2 2050   0.262   4.411   1.326
  505SOL    HW3 2051   0.233   4.487   1.198
  505SOL    MW4 2052   0.251   4.413   1.240
  506SOL     OW 2053   0.652   4.578   1.099
  506SOL    HW2 2054   0.724   4.632   1.130
  506SOL    HW3 2055   0.661   4.495   1.147
  506SOL    MW4 2056   0.662   4.574   1.110
  507SOL     OW 2057   0.473   0.091   1.231
  507SOL    HW2 2058   0.496   0.165   1.175
  507SOL    HW3 2059   0.516   0.015   1.191
  507SOL    MW4 2060   0.482   0.091   1.218
  508SOL     OW 2061   0.505   0.348   1.107
  508SOL    HW2 2062   0.430   0.398   1.139
  508SOL    HW3 2063   0.488   0.339   1.013
  508SOL    MW4 2064   0.493   0.353   1.099
  509SOL     OW 2065   0.700   0.501   1.221
  509SOL    HW2 2066   0.710   0.581   1.170
  509SOL    HW3 2067   0.628   0.455   1.178
  509SOL    MW4 2068   0.692   0.505   1.208
  510SOL     OW 2069   0.722   0.759   1.111
  510SOL    HW2 2070   0.644   0.795   1.153
  510SOL    HW3 2071   0.701   0.760   1.017
  510SOL    MW4 2072   0.709   0.764   1.104
  511SOL     OW 2073   0.505   0.881   1.255
  511SOL    HW2 2074   0.471   0.885   1.344
  511SOL    HW3 2075   0.499   0.971   1.223
  511SOL    MW4 2076   0.500   0.894   1.262
  512SOL     OW 2077   0.471   1.134   1.151
  512SOL    HW2 2078   0.545   1.189   1.176
  512SOL    HW3 2079   0.477   1.127   1.056
  512SOL    MW4 2080   0.481   1.140   1.142
  513SOL     OW 2081   0.672   1.287   1.237
  513SOL    HW2 2082   0.752   1.240   1.211
  513SOL    HW3 2083   0.684   1.375   1.203
  513SOL    MW4 2084   0.684   1.292   1.229
  514SOL     OW 2085   0.670   1.535   1.131
  514SOL    HW2 2086   0.757   1.566   1.158
  514SOL    HW3 2087   0.609   1.593   1.176
  514SOL    MW4 2088   0.674   1.547   1.141
  515SOL     OW 2089   0.479   1.719   1.212
  515SOL    HW2 2090   0.471   1.713   1.307
  515SOL    HW3 2091   0.409   1.664   1.178
  515SOL    MW4 2092   0.469   1.711   1.220
  516SOL     OW 2093   0.484   1.956   1.089
  516SOL    HW2 2094   0.497   1.865   1.117
  516SOL    HW3 2095   0.400   1.981   1.128
  516SOL    MW4 2096   0.475   1.947   1.098
  517SOL     OW 2097   0.680   2.053   1.245
  517SOL    HW2 2098   0.645   2.062   1.334
  517SOL    HW3 2099   0.607   2.015   1.195
  517SOL    MW4 2100   0.665   2.049   1.250
  518SOL     OW 2101   0.679   2.331   1.160
  518SOL    HW2 2102   0.602   2.368   1.205
  518SOL    HW3 2103   0.677   2.238   1.181
  518SOL    MW4 2104   0.668   2.324   1.168
  519SOL     OW 2105   0.414   2.443   1.226
  519SOL    HW2 2106   0.411   2.462   1.320
  519SOL    HW3 2107   0.409   2.530   1.184
  519SOL    MW4 2108   0.413   2.457   1.233
  520SOL     OW 2109   0.427   2.683   1.093
  520SOL    HW2 2110   0.361   2.748   1.116
  520SOL    HW3 2111   0.437   2.690   0.998
  520SOL    MW4 2112   0.420   2.692   1.084
  521SOL     OW 2113   0.679   2.795   1.180
  521SOL    HW2 2114   0.686   2.877   1.130
  521SOL    HW3 2115   0.611   2.746   1.134
  521SOL    MW4 2116   0.671   2.800   1.167
  522SOL     OW 2117   0.684   3.064   1.085
  522SOL    HW2 2118   0.752   3.104   1.139
  522SOL    HW3 2119   0.716   3.073   0.995
  522SOL    MW4 2120   0.697   3.071   1.080
  523SOL     OW 2121   0.469   3.207   1.212
  523SOL    HW2 2122   0.464   3.297   1.181
  523SOL    HW3 2123   0.545   3.170   1.167
  523SOL    MW4 2124   0.478   3.214   1.202
  524SOL     OW 2125   0.451   3.459   1.104
  524SOL    HW2 2126   0.523   3.508   1.145
  524SOL    HW3 2127   0.372   3.509   1.128
  524SOL    MW4 2128   0.450   3.472   1.112
  525SOL     OW 2129   0.671   3.590   1.203
  525SOL    HW2 2130   0.684   3.596   1.297
  525SOL    HW3 2131   0.704   3.673   1.169
  525SOL    MW4 2132   0.677   3.602   1.211
  526SOL     OW 2133   0.717   3.862   1.112
  526SOL    HW2 2134   0.639   3.903   1.150
  526SOL    HW3 2135   0.701   3.863   1.018
  526SOL    MW4 2136   0.704   3.867   1.104
  527SOL     OW 2137   0.481   3.981   1.210
  527SOL    HW2 2138   0.473   4.070   1.175
  527SOL    HW3 2139   0.402   3.936   1.180
  527SOL    MW4 2140   0.469   3.987   1.201
  528SOL     OW 2141   0.429   4.225   1.114
  528SOL    HW2 2142   0.502   4.273   1.153
  528SOL    HW3 2143   0.352   4.278   1.136
  528SOL    MW4 2144   0.429   4.238   1.122
  529SOL     OW 2145   0.670   4.338   1.233
  529SOL    HW2 2146   0.663   4.334   1.329
  529SOL    HW3 2147   0.764   4.341   1.216
  529SOL    MW4 2148   0.681   4.338   1.243
  530SOL     OW 2149   1.123   4.664   1.102
  530SOL    HW2 2150   1.135   4.578   1.143
  530SOL    HW3 2151   1.127   4.645   1.008
  530SOL    MW4 2152   1.125   4.650   1.095
  531SOL     OW 2153   0.865   0.088   1.174
  531SOL    HW2 2154   0.863   0.096   1.270
  531SOL    HW3 2155   0.956   0.066   1.154
  531SOL    MW4 2156   0.877   0.086   1.184
  532SOL     OW 2157   0.902   0.377   1.089
  532SOL    HW2 2158   0.888   0.297   1.141
  532SOL    HW3 2159   0.839   0.440   1.124
  532SOL    MW4 2160   0.892   0.374   1.101
  533SOL     OW 2161   1.115   0.505   1.203
  533SOL    HW2 2162   1.098   0.516   1.297
  533SOL    HW3 2163   1.041   0.452   1.172
  533SOL    MW4 2164   1.103   0.499   1.211
  534SOL     OW 2165   1.154   0.758   1.078
  534SOL    HW2 2166   1.077   0.799   1.117
  534SOL    HW3 2167   1.156   0.670   1.115
  534SOL    MW4 2168   1.144   0.752   1.088
  535SOL     OW 2169   0.969   0.895   1.228
  535SOL    HW2 2170   0.942   0.983   1.200
  535SOL    HW3 2171   0.900   0.838   1.195
  535SOL    MW4 2172   0.956   0.899   1.220
  536SOL     OW 2173   0.913   1.182   1.139
  536SOL    HW2 2174   0.989   1.236   1.162
  536SOL    HW3 2175   0.910   1.185   1.043
  536SOL    MW4 2176   0.923   1.190   1.129
  537SOL     OW 2177   1.128   1.319   1.242
  537SOL    HW2 2178   1.133   1.326   1.338
  537SOL    HW3 2179   1.189   1.249   1.220
  537SOL    MW4 2180   1.136   1.311   1.252
  538SOL     OW 2181   1.184   1.578   1.137
  538SOL    HW2 2182   1.176   1.487   1.167
  538SOL    HW3 2183   1.176   1.573   1.042
  538SOL    MW4 2184   1.182   1.565   1.129
  539SOL     OW 2185   0.914   1.640   1.216
  539SOL    HW2 2186   0.901   1.734   1.204
  539SOL    HW3 2187   1.003   1.625   1.185
  539SOL    MW4 2188   0.924   1.650   1.210
  540SOL     OW 2189   0.925   1.918   1.127
  540SOL    HW2 2190   1.004   1.971   1.136
  540SOL    HW3 2191   0.859   1.965   1.176
  540SOL    MW4 2192   0.927   1.931   1.135
  541SOL     OW 2193   1.153   2.063   1.226
  541SOL    HW2 2194   1.112   2.062   1.313
  541SOL    HW3 2195   1.144   2.153   1.196
  541SOL    MW4 2196   1.146   2.075   1.234
  542SOL     OW 2197   1.144   2.322   1.145
  542SOL    HW2 2198   1.227   2.368   1.160
  542SOL    HW3 2199   1.077   2.381   1.181
  542SOL    MW4 2200   1.146   2.336   1.151
  543SOL     OW 2201   0.920   2.449   1.241
  543SOL    HW2 2202   0.930   2.434   1.335
  543SOL    HW3 2203   0.842   2.401   1.216
  543SOL    MW4 2204   0.911   2.441   1.250
  544SOL     OW 2205   0.941   2.724   1.165
  544SOL    HW2 2206   0.936   2.633   1.193
  544SOL    HW3 2207   0.853   2.759   1.178
  544SOL    MW4 2208   0.929   2.717   1.170
  545SOL     OW 2209   1.160   2.879   1.190
  545SOL    HW2 2210   1.173   2.895   1.283
  545SOL    HW3 2211   1.073   2.839   1.184
  545SOL    MW4 2212   1.150   2.876   1.201
  546SOL     OW 2213   1.185   3.155   1.098
  546SOL    HW2 2214   1.178   3.065   1.129
  546SOL    HW3 2215   1.162   3.150   1.005
  546SOL    MW4 2216   1.181   3.143   1.090
  547SOL     OW 2217   0.910   3.213   1.174
  547SOL    HW2 2218   0.903   3.305   1.148
  547SOL    HW3 2219   0.996   3.186   1.143
  547SOL    MW4 2220   0.921   3.222   1.166
  548SOL     OW 2221   0.903   3.494   1.093
  548SOL    HW2 2222   0.816   3.518   1.124
  548SOL    HW3 2223   0.896   3.497   0.997
  548SOL    MW4 2224   0.890   3.498   1.084
  549SOL     OW 2225   1.129   3.610   1.229
  549SOL    HW2 2226   1.210   3.571   1.195
  549SOL    HW3 2227   1.059   3.567   1.180
  549SOL    MW4 2228   1.130   3.599   1.218
  550SOL     OW 2229   1.155   3.883   1.134
  550SOL    HW2 2230   1.082   3.933   1.169
  550SOL    HW3 2231   1.138   3.792   1.159
  550SOL    MW4 2232   1.143   3.877   1.142
  551SOL     OW 2233   0.915   4.013   1.221
  551SOL    HW2 2234   0.911   4.006   1.316
  551SOL    HW3 2235   0.853   3.947   1.189
  551SOL    MW4 2236   0.906   4.003   1.229
  552SOL     OW 2237   0.923   4.277   1.108
  552SOL    HW2 2238   0.907   4.190   1.147
  552SOL    HW3 2239   0.932   4.260   1.015
  552SOL    MW4 2240   0.922   4.263   1.101
  553SOL     OW 2241   1.156   4.422   1.209
  553SOL    HW2 2242   1.154   4.431   1.305
  553SOL    HW3 2243   1.068   4.392   1.186
  553SOL    MW4 2244   1.144   4.419   1.219
  554SOL     OW 2245   1.587   4.623   1.140
  554SOL    HW2 2246   1.660   4.678   1.169
  554SOL    HW3 2247   1.598   4.541   1.187
  554SOL    MW4 2248   1.598   4.620   1.150
  555SOL     OW 2249   1.364   0.098   1.233
  555SOL    HW2 2250   1.436   0.048   1.195
  555SOL    HW3 2251   1.286   0.064   1.190
  555SOL    MW4 2252   1.363   0.087   1.222
  556SOL     OW 2253   1.363   0.351   1.127
  556SOL    HW2 2254   1.367   0.260   1.158
  556SOL    HW3 2255   1.282   0.385   1.164
  556SOL    MW4 2256   1.353   0.344   1.136
  557SOL     OW 2257   1.588   0.502   1.239
  557SOL    HW2 2258   1.562   0.591   1.214
  557SOL    HW3 2259   1.516   0.447   1.210
  557SOL    MW4 2260   1.575   0.507   1.232
  558SOL     OW 2261   1.567   0.748   1.116
  558SOL    HW2 2262   1.657   0.780   1.117
  558SOL    HW3 2263   1.542   0.752   1.023
  558SOL    MW4 2264   1.576   0.753   1.104
  559SOL     OW 2265   1.358   0.883   1.235
  559SOL    HW2 2266   1.440   0.846   1.201
  559SOL    HW3 2267   1.290   0.845   1.180
  559SOL    MW4 2268   1.360   0.873   1.223
  560SOL     OW 2269   1.346   1.159   1.165
  560SOL    HW2 2270   1.336   1.072   1.203
  560SOL    HW3 2271   1.359   1.144   1.071
  560SOL    MW4 2272   1.346   1.146   1.158
  561SOL     OW 2273   1.539   1.344   1.196
  561SOL    HW2 2274   1.615   1.286   1.193
  561SOL    HW3 2275   1.464   1.286   1.195
  561SOL    MW4 2276   1.539   1.329   1.195
  562SOL     OW 2277   1.628   1.590   1.100
  562SOL    HW2 2278   1.702   1.620   1.153
  562SOL    HW3 2279   1.599   1.510   1.143
  562SOL    MW4 2280   1.634   1.583   1.112
  563SOL     OW 2281   1.397   1.721   1.192
  563SOL    HW2 2282   1.473   1.681   1.149
  563SOL    HW3 2283   1.323   1.668   1.164
  563SOL    MW4 2284   1.398   1.709   1.183
  564SOL     OW 2285   1.406   1.968   1.079
  564SOL    HW2 2286   1.415   1.878   1.110
  564SOL    HW3 2287   1.328   2.001   1.124
  564SOL    MW4 2288   1.397   1.961   1.089
  565SOL     OW 2289   1.622   2.056   1.244
  565SOL    HW2 2290   1.633   2.144   1.209
  565SOL    HW3 2291   1.552   2.017   1.192
  565SOL    MW4 2292   1.614   2.062   1.232
  566SOL     OW 2293   1.626   2.327   1.147
  566SOL    HW2 2294   1.538   2.362   1.158
  566SOL    HW3 2295   1.637   2.320   1.052
  566SOL    MW4 2296   1.616   2.330   1.136
  567SOL     OW 2297   1.392   2.452   1.207
  567SOL    HW2 2298   1.374   2.474   1.299
  567SOL    HW3 2299   1.400   2.536   1.163
  567SOL    MW4 2300   1.391   2.466   1.213
  568SOL     OW 2301   1.377   2.719   1.118
  568SOL    HW2 2302   1.452   2.770   1.148
  568SOL    HW3 2303   1.301   2.766   1.151
  568SOL    MW4 2304   1.377   2.732   1.126
  569SOL     OW 2305   1.602   2.880   1.180
  569SOL    HW2 2306   1.686   2.837   1.164
  569SOL    HW3 2307   1.605   2.958   1.125
  569SOL    MW4 2308   1.614   2.884   1.170
  570SOL     OW 2309   1.624   3.135   1.066
  570SOL    HW2 2310   1.692   3.177   1.119
  570SOL    HW3 2311   1.542   3.166   1.104
  570SOL    MW4 2312   1.623   3.145   1.078
  571SOL     OW 2313   1.411   3.242   1.197
  571SOL    HW2 2314   1.401   3.224   1.290
  571SOL    HW3 2315   1.325   3.223   1.159
  571SOL    MW4 2316   1.398   3.237   1.204
  572SOL     OW 2317   1.367   3.506   1.129
  572SOL    HW2 2318   1.404   3.424   1.161
  572SOL    HW3 2319   1.314   3.481   1.053
  572SOL    MW4 2320   1.365   3.492   1.123
  573SOL     OW 2321   1.599   3.637   1.227
  573SOL    HW2 2322   1.611   3.722   1.184
  573SOL    HW3 2323   1.512   3.609   1.201
  573SOL    MW4 2324   1.589   3.645   1.218
  574SOL     OW 2325   1.622   3.898   1.115
  574SOL    HW2 2326   1.543   3.931   1.157
  574SOL    HW3 2327   1.602   3.900   1.021
  574SOL    MW4 2328   1.609   3.902   1.108
  575SOL     OW 2329   1.396   3.989   1.227
  575SOL    HW2 2330   1.405   4.083   1.212
  575SOL    HW3 2331   1.315   3.965   1.182
  575SOL    MW4 2332   1.387   3.998   1.219
  576SOL     OW 2333   1.381   4.248   1.154
  576SOL    HW2 2334   1.295   4.287   1.169
  576SOL    HW3 2335   1.389   4.244   1.059
  576SOL    MW4 2336   1.370   4.252   1.143
  577SOL     OW 2337   1.595   4.375   1.266
  577SOL    HW2 2338   1.588   4.359   1.360
  577SOL    HW3 2339   1.520   4.329   1.228
  577SOL    MW4 2340   1.585   4.367   1.273
  578SOL     OW 2341   2.017   0.007   1.128
  578SOL    HW2 2342   1.999  -0.083   1.155
  578SOL    HW3 2343   2.032   0.002   1.033
  578SOL    MW4 2344   2.016  -0.005   1.119
  579SOL     OW 2345   1.787   0.139   1.237
  579SOL    HW2 2346   1.784   0.217   1.183
  579SOL    HW3 2347   1.872   0.099   1.217
  579SOL    MW4 2348   1.798   0.144   1.227
  580SOL     OW 2349   1.804   0.392   1.113
  580SOL    HW2 2350   1.727   0.433   1.152
  580SOL    HW3 2351   1.775   0.365   1.026
  580SOL    MW4 2352   1.790   0.394   1.106
  581SOL     OW 2353   2.037   0.485   1.227
  581SOL    HW2 2354   2.017   0.477   1.320
  581SOL    HW3 2355   1.959   0.452   1.182
  581SOL    MW4 2356   2.024   0.480   1.233
  582SOL     OW 2357   2.025   0.746   1.152
  582SOL    HW2 2358   2.024   0.656   1.182
  582SOL    HW3 2359   2.007   0.740   1.058
  582SOL    MW4 2360   2.022   0.734   1.144
  583SOL     OW 2361   1.817   0.906   1.248
  583SOL    HW2 2362   1.839   0.939   1.335
  583SOL    HW3 2363   1.891   0.850   1.224
  583SOL    MW4 2364   1.829   0.903   1.256
  584SOL     OW 2365   1.768   1.167   1.202
  584SOL    HW2 2366   1.777   1.073   1.221
  584SOL    HW3 2367   1.781   1.173   1.108
  584SOL    MW4 2368   1.771   1.155   1.192
  585SOL     OW 2369   1.996   1.288   1.265
  585SOL    HW2 2370   2.060   1.228   1.226
  585SOL    HW3 2371   1.911   1.246   1.247
  585SOL    MW4 2372   1.993   1.274   1.257
  586SOL     OW 2373   2.055   1.540   1.163
  586SOL    HW2 2374   2.040   1.457   1.208
  586SOL    HW3 2375   2.054   1.518   1.070
  586SOL    MW4 2376   2.053   1.526   1.157
  587SOL     OW 2377   1.846   1.712   1.230
  587SOL    HW2 2378   1.867   1.801   1.204
  587SOL    HW3 2379   1.925   1.661   1.209
  587SOL    MW4 2380   1.859   1.717   1.224
  588SOL     OW 2381   1.846   1.959   1.108
  588SOL    HW2 2382   1.766   1.991   1.150
  588SOL    HW3 2383   1.823   1.951   1.015
  588SOL    MW4 2384   1.832   1.962   1.101
  589SOL     OW 2385   2.049   2.116   1.188
  589SOL    HW2 2386   2.036   2.105   1.282
  589SOL    HW3 2387   1.983   2.060   1.147
  589SOL    MW4 2388   2.038   2.107   1.195
  590SOL     OW 2389   2.065   2.377   1.086
  590SOL    HW2 2390   2.131   2.409   1.147
  590SOL    HW3 2391   2.046   2.288   1.116
  590SOL    MW4 2392   2.071   2.369   1.098
  591SOL     OW 2393   1.844   2.482   1.219
  591SOL    HW2 2394   1.917   2.444   1.170
  591SOL    HW3 2395   1.772   2.420   1.207
  591SOL    MW4 2396   1.844   2.469   1.211
  592SOL     OW 2397   1.806   2.721   1.116
  592SOL    HW2 2398   1.813   2.632   1.153
  592SOL    HW3 2399   1.801   2.707   1.022
  592SOL    MW4 2400   1.806   2.707   1.109
  593SOL     OW 2401   2.041   2.858   1.206
  593SOL    HW2 2402   2.049   2.951   1.187
  593SOL    HW3 2403   1.952   2.836   1.181
  593SOL    MW4 2404   2.030   2.867   1.200
  594SOL     OW 2405   2.047   3.112   1.113
  594SOL    HW2 2406   1.985   3.180   1.142
  594SOL    HW3 2407   2.037   3.110   1.018
  594SOL    MW4 2408   2.037   3.121   1.105
  595SOL     OW 2409   1.837   3.261   1.201
  595SOL    HW2 2410   1.847   3.264   1.296
  595SOL    HW3 2411   1.823   3.352   1.175
  595SOL    MW4 2412   1.837   3.273   1.210
  596SOL     OW 2413   1.799   3.508   1.092
  596SOL    HW2 2414   1.879   3.550   1.124
  596SOL    HW3 2415   1.728   3.556   1.134
  596SOL    MW4 2416   1.800   3.520   1.102
  597SOL     OW 2417   2.012   3.627   1.215
  597SOL    HW2 2418   2.027   3.625   1.310
  597SOL    HW3 2419   2.088   3.583   1.178
  597SOL    MW4 2420   2.024   3.621   1.223
  598SOL     OW 2421   2.068   3.897   1.129
  598SOL    HW2 2422   1.990   3.938   1.167
  598SOL    HW3 2423   2.066   3.807   1.161
  598SOL    MW4 2424   2.057   3.891   1.138
  599SOL     OW 2425   1.835   4.023   1.226
  599SOL    HW2 2426   1.814   4.022   1.319
  599SOL    HW3 2427   1.765   3.972   1.185
  599SOL    MW4 2428   1.823   4.016   1.233
  600SOL     OW 2429   1.812   4.285   1.107
  600SOL    HW2 2430   1.816   4.195   1.142
  600SOL    HW3 2431   1.729   4.319   1.140
  600SOL    MW4 2432   1.802   4.277   1.116
  601SOL     OW 2433   2.040   4.412   1.212
  601SOL    HW2 2434   2.041   4.405   1.307
  601SOL    HW3 2435   1.968   4.355   1.184
  601SOL    MW4 2436   2.031   4.404   1.221
  602SOL     OW 2437   2.462   0.040   1.091
  602SOL    HW2 2438   2.534   0.092   1.127
  602SOL    HW3 2439   2.385   0.066   1.143
  602SOL    MW4 2440   2.461   0.050   1.103
  603SOL     OW 2441   2.227   0.109   1.231
  603SOL    HW2 2442   2.214   0.200   1.202
  603SOL    HW3 2443   2.150   0.062   1.198
  603SOL    MW4 2444   2.215   0.115   1.222
  604SOL     OW 2445   2.252   0.365   1.132
  604SOL    HW2 2446   2.183   0.416   1.173
  604SOL    HW3 2447   2.231   0.367   1.038
  604SOL    MW4 2448   2.240   0.372   1.125
  605SOL     OW 2449   2.467   0.529   1.189
  605SOL    HW2 2450   2.448   0.546   1.281
  605SOL    HW3 2451   2.401   0.466   1.161
  605SOL    MW4 2452   2.456   0.523   1.197
  606SOL     OW 2453   2.460   0.791   1.106
  606SOL    HW2 2454   2.453   0.698   1.129
  606SOL    HW3 2455   2.516   0.792   1.028
  606SOL    MW4 2456   2.466   0.779   1.099
  607SOL     OW 2457   2.256   0.890   1.249
  607SOL    HW2 2458   2.336   0.875   1.197
  607SOL    HW3 2459   2.196   0.822   1.220
  607SOL    MW4 2460   2.259   0.879   1.238
  608SOL     OW 2461   2.216   1.158   1.150
  608SOL    HW2 2462   2.294   1.197   1.189
  608SOL    HW3 2463   2.224   1.064   1.169
  608SOL    MW4 2464   2.228   1.151   1.157
  609SOL     OW 2465   2.484   1.250   1.242
  609SOL    HW2 2466   2.563   1.210   1.206
  609SOL    HW3 2467   2.485   1.339   1.206
  609SOL    MW4 2468   2.495   1.257   1.233
  610SOL     OW 2469   2.482   1.514   1.154
  610SOL    HW2 2470   2.411   1.568   1.187
  610SOL    HW3 2471   2.473   1.517   1.058
  610SOL    MW4 2472   2.471   1.521   1.145
  611SOL     OW 2473   2.277   1.684   1.252
  611SOL    HW2 2474   2.255   1.768   1.211
  611SOL    HW3 2475   2.202   1.627   1.232
  611SOL    MW4 2476   2.264   1.688   1.244
  612SOL     OW 2477   2.251   1.937   1.125
  612SOL    HW2 2478   2.192   2.009   1.147
  612SOL    HW3 2479   2.252   1.935   1.030
  612SOL    MW4 2480   2.243   1.946   1.116
  613SOL     OW 2481   2.488   2.092   1.214
  613SOL    HW2 2482   2.572   2.060   1.181
  613SOL    HW3 2483   2.425   2.024   1.187
  613SOL    MW4 2484   2.491   2.079   1.206
  614SOL     OW 2485   2.476   2.337   1.084
  614SOL    HW2 2486   2.470   2.248   1.120
  614SOL    HW3 2487   2.533   2.328   1.008
  614SOL    MW4 2488   2.482   2.324   1.078
  615SOL     OW 2489   2.267   2.476   1.222
  615SOL    HW2 2490   2.285   2.462   1.315
  615SOL    HW3 2491   2.333   2.424   1.176
  615SOL    MW4 2492   2.278   2.467   1.228
  616SOL     OW 2493   2.259   2.728   1.099
  616SOL    HW2 2494   2.269   2.641   1.137
  616SOL    HW3 2495   2.179   2.763   1.138
  616SOL    MW4 2496   2.250   2.721   1.109
  617SOL     OW 2497   2.482   2.847   1.243
  617SOL    HW2 2498   2.478   2.841   1.339
  617SOL    HW3 2499   2.408   2.793   1.214
  617SOL    MW4 2500   2.471   2.839   1.252
  618SOL     OW 2501   2.475   3.079   1.101
  618SOL    HW2 2502   2.409   3.132   1.146
  618SOL    HW3 2503   2.475   2.996   1.148
  618SOL    MW4 2504   2.466   3.075   1.113
  619SOL     OW 2505   2.269   3.253   1.197
  619SOL    HW2 2506   2.259   3.345   1.173
  619SOL    HW3 2507   2.194   3.210   1.154
  619SOL    MW4 2508   2.258   3.259   1.188
  620SOL     OW 2509   2.251   3.524   1.109
  620SOL    HW2 2510   2.333   3.569   1.128
  620SOL    HW3 2511   2.250   3.515   1.014
  620SOL    MW4 2512   2.262   3.529   1.099
  621SOL     OW 2513   2.500   3.630   1.189
  621SOL    HW2 2514   2.483   3.641   1.282
  621SOL    HW3 2515   2.524   3.717   1.158
  621SOL    MW4 2516   2.501   3.643   1.197
  622SOL     OW 2517   2.533   3.883   1.065
  622SOL    HW2 2518   2.451   3.926   1.088
  622SOL    HW3 2519   2.532   3.878   0.970
  622SOL    MW4 2520   2.522   3.888   1.056
  623SOL     OW 2521   2.313   4.023   1.163
  623SOL    HW2 2522   2.295   4.117   1.155
  623SOL    HW3 2523   2.226   3.983   1.165
  623SOL    MW4 2524   2.299   4.030   1.162
  624SOL     OW 2525   2.279   4.312   1.122
  624SOL    HW2 2526   2.195   4.354   1.141
  624SOL    HW3 2527   2.270   4.280   1.033
  624SOL    MW4 2528   2.267   4.313   1.113
  625SOL     OW 2529   2.519   4.443   1.200
  625SOL    HW2 2530   2.442   4.386   1.193
  625SOL    HW3 2531   2.494   4.523   1.153
  625SOL    MW4 2532   2.505   4.446   1.193
  626SOL     OW 2533   2.913   4.626   1.163
  626SOL    HW2 2534   2.922   4.541   1.207
  626SOL    HW3 2535   2.902   4.604   1.070
  626SOL    MW4 2536   2.913   4.612   1.156
  627SOL     OW 2537   2.693   0.135   1.231
  627SOL    HW2 2538   2.671   0.137   1.325
  627SOL    HW3 2539   2.760   0.067   1.224
  627SOL    MW4 2540   2.699   0.126   1.243
  628SOL     OW 2541   2.709   0.421   1.113
  628SOL    HW2 2542   2.703   0.329   1.140
  628SOL    HW3 2543   2.618   0.451   1.114
  628SOL    MW4 2544   2.696   0.413   1.117
  629SOL     OW 2545   2.947   0.490   1.254
  629SOL    HW2 2546   2.955   0.582   1.229
  629SOL    HW3 2547   2.865   0.461   1.213
  629SOL    MW4 2548   2.937   0.498   1.246
  630SOL     OW 2549   2.934   0.758   1.190
  630SOL    HW2 2550   3.013   0.809   1.204
  630SOL    HW3 2551   2.862   0.818   1.208
  630SOL    MW4 2552   2.935   0.772   1.194
  631SOL     OW 2553   2.693   0.916   1.234
  631SOL    HW2 2554   2.692   1.002   1.192
  631SOL    HW3 2555   2.612   0.874   1.204
  631SOL    MW4 2556   2.682   0.922   1.224
  632SOL     OW 2557   2.699   1.146   1.100
  632SOL    HW2 2558   2.785   1.179   1.126
  632SOL    HW3 2559   2.711   1.114   1.011
  632SOL    MW4 2560   2.712   1.146   1.092
  633SOL     OW 2561   2.930   1.280   1.207
  633SOL    HW2 2562   2.925   1.274   1.302
  633SOL    HW3 2563   2.914   1.373   1.188
  633SOL    MW4 2564   2.927   1.292   1.217
  634SOL     OW 2565   2.903   1.557   1.143
  634SOL    HW2 2566   2.990   1.582   1.174
  634SOL    HW3 2567   2.912   1.550   1.048
  634SOL    MW4 2568   2.916   1.559   1.135
  635SOL     OW 2569   2.687   1.689   1.231
  635SOL    HW2 2570   2.766   1.640   1.208
  635SOL    HW3 2571   2.615   1.632   1.204
  635SOL    MW4 2572   2.688   1.675   1.225
  636SOL     OW 2573   2.698   1.951   1.101
  636SOL    HW2 2574   2.791   1.968   1.118
  636SOL    HW3 2575   2.678   1.872   1.152
  636SOL    MW4 2576   2.708   1.943   1.110
  637SOL     OW 2577   2.951   2.015   1.171
  637SOL    HW2 2578   2.954   2.007   1.266
  637SOL    HW3 2579   2.958   2.109   1.155
  637SOL    MW4 2580   2.952   2.027   1.181
  638SOL     OW 2581   2.937   2.286   1.089
  638SOL    HW2 2582   3.010   2.336   1.125
  638SOL    HW3 2583   2.859   2.336   1.113
  638SOL    MW4 2584   2.936   2.299   1.097
  639SOL     OW 2585   2.703   2.448   1.186
  639SOL    HW2 2586   2.702   2.442   1.282
  639SOL    HW3 2587   2.617   2.417   1.159
  639SOL    MW4 2588   2.692   2.443   1.195
  640SOL     OW 2589   2.705   2.714   1.144
  640SOL    HW2 2590   2.704   2.620   1.163
  640SOL    HW3 2591   2.627   2.748   1.187
  640SOL    MW4 2592   2.695   2.706   1.152
  641SOL     OW 2593   2.943   2.803   1.233
  641SOL    HW2 2594   2.936   2.838   1.322
  641SOL    HW3 2595   2.855   2.772   1.212
  641SOL    MW4 2596   2.931   2.803   1.242
  642SOL     OW 2597   2.943   3.074   1.119
  642SOL    HW2 2598   2.938   2.984   1.151
  642SOL    HW3 2599   2.929   3.066   1.024
  642SOL    MW4 2600   2.940   3.061   1.110
  643SOL     OW 2601   2.707   3.197   1.218
  643SOL    HW2 2602   2.784   3.161   1.175
  643SOL    HW3 2603   2.634   3.146   1.184
  643SOL    MW4 2604   2.707   3.186   1.208
  644SOL     OW 2605   2.683   3.440   1.089
  644SOL    HW2 2606   2.688   3.354   1.130
  644SOL    HW3 2607   2.613   3.486   1.136
  644SOL    MW4 2608   2.674   3.435   1.100
  645SOL     OW 2609   2.928   3.610   1.169
  645SOL    HW2 2610   2.998   3.553   1.135
  645SOL    HW3 2611   2.848   3.576   1.129
  645SOL    MW4 2612   2.927   3.598   1.159
  646SOL     OW 2613   2.937   3.892   1.140
  646SOL    HW2 2614   3.019   3.929   1.172
  646SOL    HW3 2615   2.948   3.797   1.149
  646SOL    MW4 2616   2.950   3.884   1.145
  647SOL     OW 2617   2.721   4.040   1.198
  647SOL    HW2 2618   2.804   3.995   1.180
  647SOL    HW3 2619   2.654   3.981   1.163
  647SOL    MW4 2620   2.723   4.026   1.191
  648SOL     OW 2621   2.717   4.297   1.084
  648SOL    HW2 2622   2.700   4.205   1.103
  648SOL    HW3 2623   2.657   4.344   1.142
  648SOL    MW4 2624   2.707   4.291   1.094
  649SOL     OW 2625   2.888   4.361   1.281
  649SOL    HW2 2626   2.978   4.336   1.258
  649SOL    HW3 2627   2.835   4.325   1.211
  649SOL    MW4 2628   2.893   4.353   1.269
  650SOL     OW 2629   3.331   4.606   1.156
  650SOL    HW2 2630   3.416   4.649   1.167
  650SOL    HW3 2631   3.269   4.665   1.198
  650SOL    MW4 2632   3.334   4.619   1.163
  651SOL     OW 2633   3.130   0.097   1.256
  651SOL    HW2 2634   3.116   0.104   1.351
  651SOL    HW3 2635   3.055   0.048   1.224
  651SOL    MW4 2636   3.119   0.092   1.264
  652SOL     OW 2637   3.144   0.348   1.140
  652SOL    HW2 2638   3.129   0.255   1.160
  652SOL    HW3 2639   3.082   0.395   1.195
  652SOL    MW4 2640   3.134   0.342   1.150
  653SOL     OW 2641   3.390   0.457   1.255
  653SOL    HW2 2642   3.380   0.542   1.211
  653SOL    HW3 2643   3.309   0.410   1.235
  653SOL    MW4 2644   3.378   0.462   1.247
  654SOL     OW 2645   3.376   0.714   1.121
  654SOL    HW2 2646   3.301   0.763   1.155
  654SOL    HW3 2647   3.361   0.709   1.027
  654SOL    MW4 2648   3.364   0.720   1.113
  655SOL     OW 2649   3.178   0.873   1.219
  655SOL    HW2 2650   3.156   0.886   1.311
  655SOL    HW3 2651   3.184   0.962   1.184
  655SOL    MW4 2652   3.176   0.887   1.227
  656SOL     OW 2653   3.161   1.176   1.097
  656SOL    HW2 2654   3.236   1.213   1.143
  656SOL    HW3 2655   3.085   1.220   1.136
  656SOL    MW4 2656   3.161   1.186   1.109
  657SOL     OW 2657   3.390   1.287   1.191
  657SOL    HW2 2658   3.368   1.282   1.284
  657SOL    HW3 2659   3.379   1.379   1.168
  657SOL    MW4 2660   3.386   1.298   1.200
  658SOL     OW 2661   3.398   1.538   1.089
  658SOL    HW2 2662   3.470   1.581   1.136
  658SOL    HW3 2663   3.320   1.584   1.120
  658SOL    MW4 2664   3.397   1.550   1.100
  659SOL     OW 2665   3.160   1.651   1.177
  659SOL    HW2 2666   3.166   1.657   1.272
  659SOL    HW3 2667   3.172   1.741   1.146
  659SOL    MW4 2668   3.163   1.664   1.185
  660SOL     OW 2669   3.181   1.903   1.064
  660SOL    HW2 2670   3.249   1.943   1.118
  660SOL    HW3 2671   3.100   1.943   1.095
  660SOL    MW4 2672   3.179   1.913   1.075
  661SOL     OW 2673   3.379   1.996   1.220
  661SOL    HW2 2674   3.467   1.970   1.193
  661SOL    HW3 2675   3.377   2.091   1.208
  661SOL    MW4 2676   3.390   2.005   1.215
  662SOL     OW 2677   3.367   2.271   1.170
  662SOL    HW2 2678   3.444   2.328   1.178
  662SOL    HW3 2679   3.293   2.325   1.197
  662SOL    MW4 2680   3.367   2.285   1.174
  663SOL     OW 2681   3.134   2.420   1.225
  663SOL    HW2 2682   3.137   2.416   1.320
  663SOL    HW3 2683   3.172   2.505   1.203
  663SOL    MW4 2684   3.139   2.431   1.235
  664SOL     OW 2685   3.176   2.681   1.148
  664SOL    HW2 2686   3.095   2.713   1.190
  664SOL    HW3 2687   3.163   2.699   1.055
  664SOL    MW4 2688   3.163   2.688   1.142
  665SOL     OW 2689   3.409   2.851   1.222
  665SOL    HW2 2690   3.407   2.937   1.181
  665SOL    HW3 2691   3.340   2.801   1.177
  665SOL    MW4 2692   3.399   2.856   1.211
  666SOL     OW 2693   3.421   3.101   1.093
  666SOL    HW2 2694   3.488   3.152   1.138
  666SOL    HW3 2695   3.340   3.149   1.110
  666SOL    MW4 2696   3.419   3.114   1.101
  667SOL     OW 2697   3.174   3.205   1.184
  667SOL    HW2 2698   3.171   3.296   1.152
  667SOL    HW3 2699   3.088   3.169   1.160
  667SOL    MW4 2700   3.162   3.212   1.176
  668SOL     OW 2701   3.159   3.469   1.130
  668SOL    HW2 2702   3.214   3.516   1.193
  668SOL    HW3 2703   3.192   3.497   1.045
  668SOL    MW4 2704   3.171   3.479   1.127
  669SOL     OW 2705   3.375   3.605   1.255
  669SOL    HW2 2706   3.386   3.613   1.350
  669SOL    HW3 2707   3.458   3.566   1.225
  669SOL    MW4 2708   3.388   3.601   1.263
  670SOL     OW 2709   3.367   3.867   1.126
  670SOL    HW2 2710   3.292   3.899   1.176
  670SOL    HW3 2711   3.382   3.778   1.159
  670SOL    MW4 2712   3.359   3.859   1.137
  671SOL     OW 2713   3.168   3.984   1.269
  671SOL    HW2 2714   3.137   3.973   1.359
  671SOL    HW3 2715   3.151   4.076   1.249
  671SOL    MW4 2716   3.161   3.994   1.278
  672SOL     OW 2717   3.105   4.242   1.170
  672SOL    HW2 2718   3.198   4.260   1.189
  672SOL    HW3 2719   3.100   4.242   1.074
  672SOL    MW4 2720   3.117   4.244   1.160
  673SOL     OW 2721   3.358   4.331   1.247
  673SOL    HW2 2722   3.443   4.303   1.212
  673SOL    HW3 2723   3.347   4.420   1.214
  673SOL    MW4 2724   3.368   4.339   1.238
  674SOL     OW 2725   3.801   4.623   1.149
  674SOL    HW2 2726   3.810   4.529   1.168
  674SOL    HW3 2727   3.804   4.629   1.054
  674SOL    MW4 2728   3.803   4.611   1.139
  675SOL     OW 2729   3.561   0.086   1.185
  675SOL    HW2 2730   3.580   0.176   1.159
  675SOL    HW3 2731   3.641   0.038   1.166
  675SOL    MW4 2732   3.574   0.091   1.179
  676SOL     OW 2733   3.626   0.366   1.140
  676SOL    HW2 2734   3.712   0.394   1.170
  676SOL    HW3 2735   3.565   0.406   1.202
  676SOL    MW4 2736   3.629   0.375   1.152
  677SOL     OW 2737   3.859   0.479   1.247
  677SOL    HW2 2738   3.953   0.464   1.241
  677SOL    HW3 2739   3.847   0.568   1.213
  677SOL    MW4 2740   3.869   0.489   1.242
  678SOL     OW 2741   3.847   0.753   1.151
  678SOL    HW2 2742   3.911   0.812   1.193
  678SOL    HW3 2743   3.763   0.797   1.163
  678SOL    MW4 2744   3.844   0.767   1.158
  679SOL     OW 2745   3.607   0.866   1.195
  679SOL    HW2 2746   3.594   0.953   1.156
  679SOL    HW3 2747   3.527   0.819   1.176
  679SOL    MW4 2748   3.595   0.872   1.187
  680SOL     OW 2749   3.610   1.122   1.107
  680SOL    HW2 2750   3.685   1.150   1.159
  680SOL    HW3 2751   3.542   1.185   1.128
  680SOL    MW4 2752   3.611   1.134   1.117
  681SOL     OW 2753   3.831   1.267   1.221
  681SOL    HW2 2754   3.814   1.267   1.315
  681SOL    HW3 2755   3.826   1.359   1.195
  681SOL    MW4 2756   3.828   1.279   1.230
  682SOL     OW 2757   3.831   1.519   1.119
  682SOL    HW2 2758   3.910   1.568   1.141
  682SOL    HW3 2759   3.833   1.512   1.023
  682SOL    MW4 2760   3.841   1.524   1.109
  683SOL     OW 2761   3.609   1.649   1.226
  683SOL    HW2 2762   3.634   1.742   1.221
  683SOL    HW3 2763   3.679   1.603   1.180
  683SOL    MW4 2764   3.621   1.655   1.219
  684SOL     OW 2765   3.634   1.938   1.154
  684SOL    HW2 2766   3.719   1.966   1.188
  684SOL    HW3 2767   3.644   1.941   1.059
  684SOL    MW4 2768   3.647   1.942   1.146
  685SOL     OW 2769   3.879   2.052   1.229
  685SOL    HW2 2770   3.888   2.031   1.322
  685SOL    HW3 2771   3.946   1.999   1.186
  685SOL    MW4 2772   3.889   2.042   1.236
  686SOL     OW 2773   3.780   2.302   1.144
  686SOL    HW2 2774   3.867   2.339   1.161
  686SOL    HW3 2775   3.788   2.210   1.167
  686SOL    MW4 2776   3.793   2.295   1.150
  687SOL     OW 2777   3.572   2.458   1.217
  687SOL    HW2 2778   3.584   2.460   1.312
  687SOL    HW3 2779   3.650   2.412   1.184
  687SOL    MW4 2780   3.584   2.452   1.225
  688SOL     OW 2781   3.619   2.726   1.126
  688SOL    HW2 2782   3.608   2.638   1.161
  688SOL    HW3 2783   3.558   2.780   1.176
  688SOL    MW4 2784   3.610   2.722   1.137
  689SOL     OW 2785   3.837   2.849   1.209
  689SOL    HW2 2786   3.835   2.834   1.303
  689SOL    HW3 2787   3.758   2.805   1.176
  689SOL    MW4 2788   3.826   2.841   1.217
  690SOL     OW 2789   3.804   3.104   1.132
  690SOL    HW2 2790   3.816   3.011   1.154
  690SOL    HW3 2791   3.790   3.104   1.037
  690SOL    MW4 2792   3.804   3.092   1.122
  691SOL     OW 2793   3.598   3.271   1.256
  691SOL    HW2 2794   3.597   3.359   1.218
  691SOL    HW3 2795   3.675   3.229   1.217
  691SOL    MW4 2796   3.608   3.277   1.246
  692SOL     OW 2797   3.596   3.526   1.103
  692SOL    HW2 2798   3.680   3.562   1.131
  692SOL    HW3 2799   3.595   3.541   1.008
  692SOL    MW4 2800   3.607   3.533   1.094
  693SOL     OW 2801   3.843   3.613   1.185
  693SOL    HW2 2802   3.831   3.609   1.280
  693SOL    HW3 2803   3.850   3.707   1.166
  693SOL    MW4 2804   3.842   3.625   1.195
  694SOL     OW 2805   3.829   3.899   1.127
  694SOL    HW2 2806   3.747   3.933   1.163
  694SOL    HW3 2807   3.804   3.861   1.043
  694SOL    MW4 2808   3.815   3.899   1.121
  695SOL     OW 2809   3.597   3.991   1.254
  695SOL    HW2 2810   3.580   4.019   1.344
  695SOL    HW3 2811   3.520   3.938   1.231
  695SOL    MW4 2812   3.585   3.988   1.263
  696SOL     OW 2813   3.591   4.248   1.136
  696SOL    HW2 2814   3.604   4.168   1.188
  696SOL    HW3 2815   3.603   4.219   1.046
  696SOL    MW4 2816   3.595   4.233   1.131
  697SOL     OW 2817   3.819   4.362   1.205
  697SOL    HW2 2818   3.809   4.369   1.300
  697SOL    HW3 2819   3.745   4.308   1.177
  697SOL    MW4 2820   3.808   4.356   1.213
  698SOL     OW 2821   4.243   4.626   1.162
  698SOL    HW2 2822   4.257   4.547   1.215
  698SOL    HW3 2823   4.181   4.678   1.213
  698SOL    MW4 2824   4.237   4.622   1.176
  699SOL     OW 2825   4.029   0.107   1.258
  699SOL    HW2 2826   4.023   0.114   1.354
  699SOL    HW3 2827   3.964   0.040   1.235
  699SOL    MW4 2828   4.019   0.099   1.268
  700SOL     OW 2829   4.112   0.365   1.156
  700SOL    HW2 2830   4.093   0.275   1.183
  700SOL    HW3 2831   4.084   0.369   1.064
  700SOL    MW4 2832   4.105   0.354   1.147
  701SOL     OW 2833   4.305   0.548   1.266
  701SOL    HW2 2834   4.305   0.536   1.361
  701SOL    HW3 2835   4.233   0.493   1.235
  701SOL    MW4 2836   4.296   0.539   1.274
  702SOL     OW 2837   4.255   0.791   1.151
  702SOL    HW2 2838   4.285   0.707   1.184
  702SOL    HW3 2839   4.238   0.776   1.058
  702SOL    MW4 2840   4.256   0.778   1.143
  703SOL     OW 2841   4.035   0.930   1.263
  703SOL    HW2 2842   4.048   0.928   1.358
  703SOL    HW3 2843   4.114   0.888   1.228
  703SOL    MW4 2844   4.047   0.924   1.271
  704SOL     OW 2845   4.015   1.140   1.084
  704SOL    HW2 2846   4.022   1.067   1.146
  704SOL    HW3 2847   3.950   1.199   1.123
  704SOL    MW4 2848   4.007   1.138   1.097
  705SOL     OW 2849   4.265   1.263   1.201
  705SOL    HW2 2850   4.259   1.259   1.296
  705SOL    HW3 2851   4.175   1.247   1.171
  705SOL    MW4 2852   4.252   1.261   1.210
  706SOL     OW 2853   4.304   1.529   1.142
  706SOL    HW2 2854   4.316   1.439   1.175
  706SOL    HW3 2855   4.391   1.568   1.149
  706SOL    MW4 2856   4.317   1.522   1.148
  707SOL     OW 2857   4.052   1.661   1.194
  707SOL    HW2 2858   4.058   1.673   1.289
  707SOL    HW3 2859   4.125   1.603   1.173
  707SOL    MW4 2860   4.062   1.655   1.204
  708SOL     OW 2861   4.085   1.912   1.112
  708SOL    HW2 2862   4.081   1.817   1.126
  708SOL    HW3 2863   4.067   1.923   1.019
  708SOL    MW4 2864   4.082   1.901   1.102
  709SOL     OW 2865   4.316   2.039   1.207
  709SOL    HW2 2866   4.306   2.128   1.172
  709SOL    HW3 2867   4.231   1.998   1.191
  709SOL    MW4 2868   4.303   2.046   1.200
  710SOL     OW 2869   4.256   2.286   1.105
  710SOL    HW2 2870   4.182   2.341   1.128
  710SOL    HW3 2871   4.260   2.289   1.009
  710SOL    MW4 2872   4.247   2.293   1.095
  711SOL     OW 2873   4.022   2.430   1.196
  711SOL    HW2 2874   4.016   2.420   1.291
  711SOL    HW3 2875   4.046   2.522   1.184
  711SOL    MW4 2876   4.024   2.441   1.207
  712SOL     OW 2877   4.043   2.689   1.114
  712SOL    HW2 2878   3.963   2.736   1.137
  712SOL    HW3 2879   4.043   2.687   1.018
  712SOL    MW4 2880   4.033   2.695   1.104
  713SOL     OW 2881   4.291   2.815   1.179
  713SOL    HW2 2882   4.287   2.904   1.146
  713SOL    HW3 2883   4.204   2.779   1.161
  713SOL    MW4 2884   4.279   2.822   1.172
  714SOL     OW 2885   4.274   3.077   1.062
  714SOL    HW2 2886   4.197   3.126   1.090
  714SOL    HW3 2887   4.263   3.065   0.968
  714SOL    MW4 2888   4.262   3.082   1.053
  715SOL     OW 2889   4.048   3.222   1.164
  715SOL    HW2 2890   4.046   3.222   1.260
  715SOL    HW3 2891   3.963   3.186   1.139
  715SOL    MW4 2892   4.037   3.217   1.173
  716SOL     OW 2893   4.066   3.488   1.088
  716SOL    HW2 2894   4.054   3.394   1.097
  716SOL    HW3 2895   3.982   3.526   1.115
  716SOL    MW4 2896   4.053   3.481   1.093
  717SOL     OW 2897   4.281   3.620   1.194
  717SOL    HW2 2898   4.202   3.583   1.156
  717SOL    HW3 2899   4.353   3.577   1.147
  717SOL    MW4 2900   4.280   3.609   1.183
  718SOL     OW 2901   4.293   3.886   1.146
  718SOL    HW2 2902   4.209   3.915   1.182
  718SOL    HW3 2903   4.293   3.791   1.159
  718SOL    MW4 2904   4.282   3.877   1.153
  719SOL     OW 2905   4.057   3.987   1.266
  719SOL    HW2 2906   4.064   4.075   1.231
  719SOL    HW3 2907   3.974   3.954   1.232
  719SOL    MW4 2908   4.047   3.994   1.257
  720SOL     OW 2909   4.051   4.233   1.145
  720SOL    HW2 2910   3.969   4.281   1.158
  720SOL    HW3 2911   4.056   4.220   1.051
  720SOL    MW4 2912   4.041   4.238   1.135
  721SOL     OW 2913   4.272   4.378   1.270
  721SOL    HW2 2914   4.202   4.326   1.230
  721SOL    HW3 2915   4.352   4.330   1.250
  721SOL    MW4 2916   4.274   4.365   1.262
  722SOL     OW 2917   0.255   0.021   1.592
  722SOL    HW2 2918   0.340   0.054   1.561
  722SOL    HW3 2919   0.190   0.069   1.541
  722SOL    MW4 2920   0.258   0.032   1.581
  723SOL     OW 2921   0.039   0.145   1.487
  723SOL    HW2 2922  -0.035   0.114   1.538
  723SOL    HW3 2923   0.020   0.118   1.397
  723SOL    MW4 2924   0.027   0.138   1.482
  724SOL     OW 2925   0.031   0.394   1.591
  724SOL    HW2 2926   0.032   0.381   1.686
  724SOL    HW3 2927   0.033   0.305   1.555
  724SOL    MW4 2928   0.032   0.380   1.599
  725SOL     OW 2929   0.238   0.500   1.473
  725SOL    HW2 2930   0.163   0.455   1.511
  725SOL    HW3 2931   0.227   0.488   1.378
  725SOL    MW4 2932   0.227   0.492   1.465
  726SOL     OW 2933   0.250   0.730   1.631
  726SOL    HW2 2934   0.322   0.786   1.601
  726SOL    HW3 2935   0.258   0.650   1.578
  726SOL    MW4 2936   0.261   0.727   1.620
  727SOL     OW 2937   0.019   0.860   1.504
  727SOL    HW2 2938   0.014   0.955   1.519
  727SOL    HW3 2939   0.091   0.832   1.560
  727SOL    MW4 2940   0.028   0.869   1.513
  728SOL     OW 2941   0.026   1.144   1.543
  728SOL    HW2 2942   0.023   1.141   1.639
  728SOL    HW3 2943   0.103   1.196   1.522
  728SOL    MW4 2944   0.036   1.150   1.553
  729SOL     OW 2945   0.260   1.293   1.516
  729SOL    HW2 2946   0.248   1.387   1.532
  729SOL    HW3 2947   0.262   1.285   1.420
  729SOL    MW4 2948   0.259   1.304   1.505
  730SOL     OW 2949   0.209   1.560   1.578
  730SOL    HW2 2950   0.198   1.554   1.673
  730SOL    HW3 2951   0.123   1.585   1.545
  730SOL    MW4 2952   0.196   1.563   1.586
  731SOL     OW 2953   4.448   1.639   1.477
  731SOL    HW2 2954   4.447   1.732   1.500
  731SOL    HW3 2955   4.477   1.638   1.386
  731SOL    MW4 2956   4.452   1.651   1.468
  732SOL     OW 2957   4.485   1.902   1.558
  732SOL    HW2 2958   4.481   1.903   1.654
  732SOL    HW3 2959   4.412   1.957   1.530
  732SOL    MW4 2960   4.475   1.909   1.567
  733SOL     OW 2961   0.206   2.084   1.476
  733SOL    HW2 2962   0.140   2.021   1.505
  733SOL    HW3 2963   0.215   2.068   1.383
  733SOL    MW4 2964   0.199   2.073   1.468
  734SOL     OW 2965   0.222   2.348   1.570
  734SOL    HW2 2966   0.225   2.344   1.666
  734SOL    HW3 2967   0.225   2.257   1.542
  734SOL    MW4 2968   0.223   2.336   1.579
  735SOL     OW 2969   4.485   2.454   1.454
  735SOL    HW2 2970   4.411   2.423   1.506
  735SOL    HW3 2971   4.562   2.415   1.497
  735SOL    MW4 2972   4.485   2.445   1.467
  736SOL     OW 2973   4.485   2.691   1.593
  736SOL    HW2 2974   4.412   2.745   1.562
  736SOL    HW3 2975   4.484   2.615   1.534
  736SOL    MW4 2976   4.475   2.688   1.581
  737SOL     OW 2977   0.220   2.816   1.498
  737SOL    HW2 2978   0.293   2.783   1.550
  737SOL    HW3 2979   0.142   2.776   1.537
  737SOL    MW4 2980   0.219   2.806   1.510
  738SOL     OW 2981   0.203   3.089   1.574
  738SOL    HW2 2982   0.123   3.131   1.544
  738SOL    HW3 2983   0.199   3.001   1.539
  738SOL    MW4 2984   0.192   3.083   1.566
  739SOL     OW 2985   4.474   3.246   1.475
  739SOL    HW2 2986   4.472   3.339   1.496
  739SOL    HW3 2987   4.476   3.243   1.380
  739SOL    MW4 2988   4.474   3.258   1.466
  740SOL     OW 2989   4.450   3.540   1.563
  740SOL    HW2 2990   4.458   3.530   1.658
  740SOL    HW3 2991   4.356   3.543   1.547
  740SOL    MW4 2992   4.439   3.539   1.574
  741SOL     OW 2993   0.179   3.668   1.457
  741SOL    HW2 2994   0.211   3.755   1.480
  741SOL    HW3 2995   0.099   3.658   1.509
  741SOL    MW4 2996   0.173   3.679   1.467
  742SOL     OW 2997   0.246   3.903   1.573
  742SOL    HW2 2998   0.244   3.882   1.667
  742SOL    HW3 2999   0.313   3.971   1.566
  742SOL    MW4 3000   0.255   3.909   1.585
  743SOL     OW 3001   4.489   4.003   1.538
  743SOL    HW2 3002   4.504   4.095   1.561
  743SOL    HW3 3003   4.568   3.958   1.565
  743SOL    MW4 3004   4.501   4.009   1.544
  744SOL     OW 3005   0.002   4.291   1.588
  744SOL    HW2 3006   0.023   4.290   1.682
  744SOL    HW3 3007  -0.086   4.329   1.584
  744SOL    MW4 3008  -0.007   4.296   1.600
  745SOL     OW 3009   0.250   4.414   1.518
  745SOL    HW2 3010   0.158   4.388   1.522
  745SOL    HW3 3011   0.249   4.508   1.538
  745SOL    MW4 3012   0.238   4.423   1.521
  746SOL     OW 3013   0.715   4.639   1.578
  746SOL    HW2 3014   0.790   4.684   1.539
  746SOL    HW3 3015   0.645   4.703   1.576
  746SOL    MW4 3016   0.716   4.653   1.573
  747SOL     OW 3017   0.501   0.128   1.506
  747SOL    HW2 3018   0.494   0.221   1.525
  747SOL    HW3 3019   0.481   0.121   1.412
  747SOL    MW4 3020   0.498   0.139   1.496
  748SOL     OW 3021   0.456   0.388   1.595
  748SOL    HW2 3022   0.527   0.441   1.558
  748SOL    HW3 3023   0.377   0.421   1.553
  748SOL    MW4 3024   0.455   0.399   1.585
  749SOL     OW 3025   0.652   0.530   1.479
  749SOL    HW2 3026   0.681   0.619   1.500
  749SOL    HW3 3027   0.665   0.522   1.385
  749SOL    MW4 3028   0.657   0.541   1.469
  750SOL     OW 3029   0.719   0.794   1.556
  750SOL    HW2 3030   0.733   0.770   1.648
  750SOL    HW3 3031   0.792   0.853   1.536
  750SOL    MW4 3032   0.731   0.799   1.566
  751SOL     OW 3033   0.445   0.887   1.524
  751SOL    HW2 3034   0.458   0.980   1.543
  751SOL    HW3 3035   0.532   0.848   1.531
  751SOL    MW4 3036   0.458   0.894   1.528
  752SOL     OW 3037   0.461   1.145   1.618
  752SOL    HW2 3038   0.535   1.187   1.574
  752SOL    HW3 3039   0.384   1.191   1.587
  752SOL    MW4 3040   0.461   1.156   1.608
  753SOL     OW 3041   0.680   1.265   1.505
  753SOL    HW2 3042   0.679   1.358   1.525
  753SOL    HW3 3043   0.664   1.260   1.410
  753SOL    MW4 3044   0.678   1.276   1.495
  754SOL     OW 3045   0.661   1.538   1.582
  754SOL    HW2 3046   0.727   1.605   1.567
  754SOL    HW3 3047   0.579   1.579   1.556
  754SOL    MW4 3048   0.659   1.552   1.576
  755SOL     OW 3049   0.427   1.698   1.489
  755SOL    HW2 3050   0.424   1.781   1.536
  755SOL    HW3 3051   0.336   1.667   1.490
  755SOL    MW4 3052   0.414   1.705   1.496
  756SOL     OW 3053   0.432   1.948   1.584
  756SOL    HW2 3054   0.426   1.945   1.679
  756SOL    HW3 3055   0.358   2.001   1.556
  756SOL    MW4 3056   0.421   1.954   1.593
  757SOL     OW 3057   0.649   2.090   1.506
  757SOL    HW2 3058   0.733   2.050   1.529
  757SOL    HW3 3059   0.585   2.043   1.559
  757SOL    MW4 3060   0.652   2.078   1.516
  758SOL     OW 3061   0.694   2.359   1.615
  758SOL    HW2 3062   0.626   2.405   1.565
  758SOL    HW3 3063   0.689   2.269   1.584
  758SOL    MW4 3064   0.684   2.354   1.604
  759SOL     OW 3065   0.465   2.483   1.491
  759SOL    HW2 3066   0.443   2.572   1.518
  759SOL    HW3 3067   0.402   2.427   1.535
  759SOL    MW4 3068   0.454   2.488   1.500
  760SOL     OW 3069   0.448   2.729   1.608
  760SOL    HW2 3070   0.450   2.727   1.704
  760SOL    HW3 3071   0.537   2.754   1.583
  760SOL    MW4 3072   0.460   2.732   1.617
  761SOL     OW 3073   0.669   2.844   1.477
  761SOL    HW2 3074   0.653   2.937   1.493
  761SOL    HW3 3075   0.669   2.835   1.382
  761SOL    MW4 3076   0.667   2.855   1.467
  762SOL     OW 3077   0.623   3.110   1.559
  762SOL    HW2 3078   0.702   3.157   1.534
  762SOL    HW3 3079   0.552   3.157   1.515
  762SOL    MW4 3080   0.624   3.122   1.550
  763SOL     OW 3081   0.403   3.280   1.478
  763SOL    HW2 3082   0.332   3.230   1.518
  763SOL    HW3 3083   0.411   3.244   1.390
  763SOL    MW4 3084   0.395   3.269   1.472
  764SOL     OW 3085   0.434   3.544   1.545
  764SOL    HW2 3086   0.436   3.453   1.514
  764SOL    HW3 3087   0.353   3.580   1.509
  764SOL    MW4 3088   0.424   3.537   1.536
  765SOL     OW 3089   0.694   3.615   1.478
  765SOL    HW2 3090   0.765   3.567   1.520
  765SOL    HW3 3091   0.615   3.583   1.521
  765SOL    MW4 3092   0.693   3.605   1.489
  766SOL     OW 3093   0.696   3.883   1.600
  766SOL    HW2 3094   0.777   3.916   1.562
  766SOL    HW3 3095   0.682   3.798   1.559
  766SOL    MW4 3096   0.705   3.876   1.590
  767SOL     OW 3097   0.496   4.023   1.490
  767SOL    HW2 3098   0.560   3.964   1.531
  767SOL    HW3 3099   0.503   4.004   1.396
  767SOL    MW4 3100   0.505   4.013   1.483
  768SOL     OW 3101   0.484   4.268   1.623
  768SOL    HW2 3102   0.480   4.182   1.580
  768SOL    HW3 3103   0.406   4.314   1.593
  768SOL    MW4 3104   0.473   4.262   1.614
  769SOL     OW 3105   0.712   4.378   1.499
  769SOL    HW2 3106   0.631   4.348   1.540
  769SOL    HW3 3107   0.717   4.471   1.522
  769SOL    MW4 3108   0.702   4.387   1.507
  770SOL     OW 3109   1.074   4.649   1.607
  770SOL    HW2 3110   1.072   4.626   1.699
  770SOL    HW3 3111   1.162   4.685   1.593
  770SOL    MW4 3112   1.086   4.651   1.617
  771SOL     OW 3113   0.892   0.138   1.453
  771SOL    HW2 3114   0.879   0.219   1.501
  771SOL    HW3 3115   0.971   0.099   1.492
  771SOL    MW4 3116   0.901   0.143   1.464
  772SOL     OW 3117   0.863   0.385   1.579
  772SOL    HW2 3118   0.869   0.393   1.675
  772SOL    HW3 3119   0.794   0.447   1.554
  772SOL    MW4 3120   0.855   0.394   1.589
  773SOL     OW 3121   1.090   0.529   1.479
  773SOL    HW2 3122   1.106   0.604   1.537
  773SOL    HW3 3123   1.014   0.486   1.517
  773SOL    MW4 3124   1.082   0.533   1.492
  774SOL     OW 3125   1.159   0.743   1.622
  774SOL    HW2 3126   1.161   0.737   1.717
  774SOL    HW3 3127   1.246   0.774   1.598
  774SOL    MW4 3128   1.171   0.746   1.631
  775SOL     OW 3129   0.962   0.920   1.497
  775SOL    HW2 3130   1.038   0.874   1.533
  775SOL    HW3 3131   0.975   0.916   1.402
  775SOL    MW4 3132   0.974   0.914   1.489
  776SOL     OW 3133   0.920   1.178   1.602
  776SOL    HW2 3134   0.940   1.095   1.560
  776SOL    HW3 3135   0.831   1.199   1.573
  776SOL    MW4 3136   0.911   1.170   1.593
  777SOL     OW 3137   1.152   1.317   1.514
  777SOL    HW2 3138   1.223   1.261   1.545
  777SOL    HW3 3139   1.072   1.273   1.542
  777SOL    MW4 3140   1.151   1.304   1.522
  778SOL     OW 3141   1.139   1.601   1.574
  778SOL    HW2 3142   1.215   1.648   1.538
  778SOL    HW3 3143   1.153   1.510   1.549
  778SOL    MW4 3144   1.151   1.595   1.566
  779SOL     OW 3145   0.880   1.678   1.500
  779SOL    HW2 3146   0.970   1.654   1.522
  779SOL    HW3 3147   0.877   1.675   1.404
  779SOL    MW4 3148   0.892   1.675   1.490
  780SOL     OW 3149   0.872   1.927   1.600
  780SOL    HW2 3150   0.954   1.963   1.567
  780SOL    HW3 3151   0.874   1.835   1.575
  780SOL    MW4 3152   0.883   1.920   1.592
  781SOL     OW 3153   1.110   2.049   1.517
  781SOL    HW2 3154   1.187   2.010   1.558
  781SOL    HW3 3155   1.115   2.142   1.540
  781SOL    MW4 3156   1.121   2.056   1.525
  782SOL     OW 3157   1.139   2.311   1.605
  782SOL    HW2 3158   1.214   2.334   1.550
  782SOL    HW3 3159   1.070   2.371   1.577
  782SOL    MW4 3160   1.140   2.322   1.594
  783SOL     OW 3161   0.929   2.459   1.526
  783SOL    HW2 3162   0.935   2.554   1.539
  783SOL    HW3 3163   0.850   2.434   1.575
  783SOL    MW4 3164   0.919   2.468   1.534
  784SOL     OW 3165   0.920   2.737   1.573
  784SOL    HW2 3166   0.890   2.712   1.660
  784SOL    HW3 3167   0.843   2.777   1.532
  784SOL    MW4 3168   0.906   2.739   1.579
  785SOL     OW 3169   1.158   2.866   1.483
  785SOL    HW2 3170   1.142   2.956   1.511
  785SOL    HW3 3171   1.088   2.815   1.523
  785SOL    MW4 3172   1.147   2.872   1.492
  786SOL     OW 3173   1.101   3.114   1.584
  786SOL    HW2 3174   1.107   3.116   1.679
  786SOL    HW3 3175   1.189   3.136   1.554
  786SOL    MW4 3176   1.114   3.118   1.593
  787SOL     OW 3177   0.862   3.219   1.457
  787SOL    HW2 3178   0.936   3.168   1.490
  787SOL    HW3 3179   0.869   3.215   1.362
  787SOL    MW4 3180   0.873   3.212   1.449
  788SOL     OW 3181   0.910   3.460   1.596
  788SOL    HW2 3182   0.989   3.509   1.572
  788SOL    HW3 3183   0.919   3.376   1.552
  788SOL    MW4 3184   0.922   3.455   1.587
  789SOL     OW 3185   1.131   3.608   1.504
  789SOL    HW2 3186   1.205   3.552   1.528
  789SOL    HW3 3187   1.138   3.617   1.409
  789SOL    MW4 3188   1.142   3.602   1.495
  790SOL     OW 3189   1.103   3.853   1.651
  790SOL    HW2 3190   1.176   3.901   1.611
  790SOL    HW3 3191   1.109   3.765   1.616
  790SOL    MW4 3192   1.113   3.848   1.641
  791SOL     OW 3193   0.924   3.985   1.503
  791SOL    HW2 3194   0.908   4.072   1.541
  791SOL    HW3 3195   0.992   3.947   1.559
  791SOL    MW4 3196   0.931   3.992   1.515
  792SOL     OW 3197   0.918   4.238   1.617
  792SOL    HW2 3198   0.911   4.236   1.712
  792SOL    HW3 3199   0.843   4.291   1.589
  792SOL    MW4 3200   0.907   4.245   1.626
  793SOL     OW 3201   1.128   4.395   1.482
  793SOL    HW2 3202   1.065   4.337   1.525
  793SOL    HW3 3203   1.133   4.472   1.539
  793SOL    MW4 3204   1.121   4.397   1.495
  794SOL     OW 3205   1.558   4.628   1.621
  794SOL    HW2 3206   1.543   4.644   1.715
  794SOL    HW3 3207   1.478   4.659   1.578
  794SOL    MW4 3208   1.545   4.634   1.628
  795SOL     OW 3209   1.331   0.074   1.519
  795SOL    HW2 3210   1.320   0.163   1.551
  795SOL    HW3 3211   1.337   0.084   1.424
  795SOL    MW4 3212   1.330   0.087   1.510
  796SOL     OW 3213   1.303   0.366   1.583
  796SOL    HW2 3214   1.392   0.400   1.574
  796SOL    HW3 3215   1.251   0.422   1.526
  796SOL    MW4 3216   1.308   0.378   1.574
  797SOL     OW 3217   1.544   0.493   1.531
  797SOL    HW2 3218   1.612   0.447   1.581
  797SOL    HW3 3219   1.575   0.491   1.440
  797SOL    MW4 3220   1.557   0.487   1.525
  798SOL     OW 3221   1.633   0.757   1.595
  798SOL    HW2 3222   1.625   0.752   1.691
  798SOL    HW3 3223   1.620   0.667   1.565
  798SOL    MW4 3224   1.630   0.744   1.604
  799SOL     OW 3225   1.397   0.859   1.522
  799SOL    HW2 3226   1.476   0.817   1.557
  799SOL    HW3 3227   1.412   0.864   1.427
  799SOL    MW4 3228   1.409   0.854   1.514
  800SOL     OW 3229   1.383   1.153   1.594
  800SOL    HW2 3230   1.392   1.156   1.689
  800SOL    HW3 3231   1.372   1.060   1.574
  800SOL    MW4 3232   1.383   1.141   1.604
  801SOL     OW 3233   1.568   1.333   1.482
  801SOL    HW2 3234   1.486   1.291   1.509
  801SOL    HW3 3235   1.559   1.344   1.387
  801SOL    MW4 3236   1.556   1.329   1.473
  802SOL     OW 3237   1.618   1.598   1.604
  802SOL    HW2 3238   1.587   1.583   1.693
  802SOL    HW3 3239   1.603   1.515   1.559
  802SOL    MW4 3240   1.612   1.585   1.610
  803SOL     OW 3241   1.385   1.743   1.501
  803SOL    HW2 3242   1.468   1.699   1.517
  803SOL    HW3 3243   1.379   1.749   1.406
  803SOL    MW4 3244   1.395   1.738   1.491
  804SOL     OW 3245   1.358   1.974   1.617
  804SOL    HW2 3246   1.364   1.965   1.712
  804SOL    HW3 3247   1.359   1.884   1.584
  804SOL    MW4 3248   1.359   1.961   1.625
  805SOL     OW 3249   1.577   2.112   1.509
  805SOL    HW2 3250   1.518   2.043   1.540
  805SOL    HW3 3251   1.583   2.097   1.414
  805SOL    MW4 3252   1.570   2.101   1.500
  806SOL     OW 3253   1.596   2.393   1.597
  806SOL    HW2 3254   1.684   2.425   1.577
  806SOL    HW3 3255   1.602   2.299   1.582
  806SOL    MW4 3256   1.609   2.385   1.593
  807SOL     OW 3257   1.357   2.476   1.491
  807SOL    HW2 3258   1.350   2.565   1.525
  807SOL    HW3 3259   1.446   2.449   1.513
  807SOL    MW4 3260   1.368   2.485   1.498
  808SOL     OW 3261   1.370   2.735   1.617
  808SOL    HW2 3262   1.451   2.771   1.583
  808SOL    HW3 3263   1.301   2.781   1.570
  808SOL    MW4 3264   1.371   2.746   1.606
  809SOL     OW 3265   1.582   2.847   1.463
  809SOL    HW2 3266   1.670   2.813   1.480
  809SOL    HW3 3267   1.580   2.860   1.368
  809SOL    MW4 3268   1.594   2.844   1.453
  810SOL     OW 3269   1.567   3.092   1.595
  810SOL    HW2 3270   1.647   3.144   1.583
  810SOL    HW3 3271   1.574   3.024   1.527
  810SOL    MW4 3272   1.579   3.090   1.584
  811SOL     OW 3273   1.347   3.187   1.483
  811SOL    HW2 3274   1.336   3.278   1.511
  811SOL    HW3 3275   1.425   3.157   1.529
  811SOL    MW4 3276   1.356   3.195   1.493
  812SOL     OW 3277   1.350   3.441   1.565
  812SOL    HW2 3278   1.349   3.422   1.658
  812SOL    HW3 3279   1.427   3.496   1.553
  812SOL    MW4 3280   1.360   3.446   1.576
  813SOL     OW 3281   1.590   3.599   1.501
  813SOL    HW2 3282   1.570   3.688   1.530
  813SOL    HW3 3283   1.601   3.607   1.406
  813SOL    MW4 3284   1.589   3.612   1.493
  814SOL     OW 3285   1.568   3.860   1.582
  814SOL    HW2 3286   1.566   3.834   1.674
  814SOL    HW3 3287   1.480   3.891   1.564
  814SOL    MW4 3288   1.556   3.861   1.592
  815SOL     OW 3289   1.309   3.968   1.513
  815SOL    HW2 3290   1.323   4.053   1.556
  815SOL    HW3 3291   1.310   3.988   1.419
  815SOL    MW4 3292   1.311   3.982   1.506
  816SOL     OW 3293   1.335   4.223   1.610
  816SOL    HW2 3294   1.414   4.271   1.583
  816SOL    HW3 3295   1.263   4.272   1.571
  816SOL    MW4 3296   1.336   4.236   1.601
  817SOL     OW 3297   1.571   4.355   1.545
  817SOL    HW2 3298   1.646   4.310   1.582
  817SOL    HW3 3299   1.571   4.441   1.588
  817SOL    MW4 3300   1.581   4.361   1.555
  818SOL     OW 3301   2.007   4.645   1.603
  818SOL    HW2 3302   2.020   4.657   1.697
  818SOL    HW3 3303   1.923   4.687   1.585
  818SOL    MW4 3304   1.998   4.652   1.613
  819SOL     OW 3305   1.765   0.120   1.531
  819SOL    HW2 3306   1.703   0.049   1.547
  819SOL    HW3 3307   1.774   0.122   1.435
  819SOL    MW4 3308   1.758   0.111   1.520
  820SOL     OW 3309   1.773   0.367   1.648
  820SOL    HW2 3310   1.847   0.396   1.594
  820SOL    HW3 3311   1.750   0.281   1.614
  820SOL    MW4 3312   1.780   0.359   1.637
  821SOL     OW 3313   1.974   0.478   1.496
  821SOL    HW2 3314   2.048   0.431   1.536
  821SOL    HW3 3315   1.981   0.567   1.531
  821SOL    MW4 3316   1.985   0.484   1.506
  822SOL     OW 3317   2.031   0.753   1.582
  822SOL    HW2 3318   2.100   0.816   1.561
  822SOL    HW3 3319   1.949   0.800   1.564
  822SOL    MW4 3320   2.029   0.768   1.577
  823SOL     OW 3321   1.815   0.940   1.522
  823SOL    HW2 3322   1.819   1.021   1.572
  823SOL    HW3 3323   1.749   0.887   1.567
  823SOL    MW4 3324   1.807   0.944   1.534
  824SOL     OW 3325   1.781   1.194   1.627
  824SOL    HW2 3326   1.854   1.245   1.591
  824SOL    HW3 3327   1.704   1.225   1.579
  824SOL    MW4 3328   1.781   1.205   1.616
  825SOL     OW 3329   2.019   1.307   1.549
  825SOL    HW2 3330   2.040   1.399   1.566
  825SOL    HW3 3331   2.027   1.298   1.454
  825SOL    MW4 3332   2.023   1.318   1.539
  826SOL     OW 3333   2.077   1.570   1.619
  826SOL    HW2 3334   2.163   1.602   1.592
  826SOL    HW3 3335   2.016   1.638   1.590
  826SOL    MW4 3336   2.081   1.583   1.612
  827SOL     OW 3337   1.866   1.724   1.522
  827SOL    HW2 3338   1.792   1.674   1.557
  827SOL    HW3 3339   1.868   1.702   1.429
  827SOL    MW4 3340   1.856   1.715   1.514
  828SOL     OW 3341   1.802   1.987   1.599
  828SOL    HW2 3342   1.807   1.894   1.577
  828SOL    HW3 3343   1.729   2.020   1.547
  828SOL    MW4 3344   1.793   1.979   1.589
  829SOL     OW 3345   2.035   2.066   1.462
  829SOL    HW2 3346   2.110   2.029   1.509
  829SOL    HW3 3347   1.959   2.037   1.512
  829SOL    MW4 3348   2.035   2.057   1.475
  830SOL     OW 3349   2.034   2.329   1.595
  830SOL    HW2 3350   2.060   2.316   1.686
  830SOL    HW3 3351   2.024   2.240   1.560
  830SOL    MW4 3352   2.036   2.315   1.602
  831SOL     OW 3353   1.843   2.486   1.492
  831SOL    HW2 3354   1.910   2.428   1.528
  831SOL    HW3 3355   1.851   2.476   1.398
  831SOL    MW4 3356   1.853   2.477   1.485
  832SOL     OW 3357   1.825   2.736   1.578
  832SOL    HW2 3358   1.905   2.777   1.544
  832SOL    HW3 3359   1.827   2.647   1.544
  832SOL    MW4 3360   1.836   2.730   1.569
  833SOL     OW 3361   2.067   2.808   1.478
  833SOL    HW2 3362   2.059   2.889   1.528
  833SOL    HW3 3363   2.067   2.836   1.386
  833SOL    MW4 3364   2.066   2.822   1.472
  834SOL     OW 3365   2.051   3.072   1.594
  834SOL    HW2 3366   2.056   3.077   1.690
  834SOL    HW3 3367   2.127   3.122   1.564
  834SOL    MW4 3368   2.061   3.080   1.603
  835SOL     OW 3369   1.843   3.229   1.489
  835SOL    HW2 3370   1.854   3.306   1.544
  835SOL    HW3 3371   1.906   3.165   1.523
  835SOL    MW4 3372   1.852   3.230   1.500
  836SOL     OW 3373   1.829   3.485   1.615
  836SOL    HW2 3374   1.812   3.480   1.709
  836SOL    HW3 3375   1.745   3.511   1.576
  836SOL    MW4 3376   1.815   3.488   1.622
  837SOL     OW 3377   2.063   3.605   1.490
  837SOL    HW2 3378   2.128   3.541   1.516
  837SOL    HW3 3379   1.981   3.574   1.530
  837SOL    MW4 3380   2.060   3.593   1.499
  838SOL     OW 3381   2.096   3.863   1.596
  838SOL    HW2 3382   2.162   3.911   1.547
  838SOL    HW3 3383   2.095   3.775   1.557
  838SOL    MW4 3384   2.104   3.858   1.584
  839SOL     OW 3385   1.820   3.994   1.508
  839SOL    HW2 3386   1.885   3.929   1.534
  839SOL    HW3 3387   1.735   3.955   1.530
  839SOL    MW4 3388   1.817   3.981   1.514
  840SOL     OW 3389   1.817   4.274   1.593
  840SOL    HW2 3390   1.898   4.304   1.551
  840SOL    HW3 3391   1.814   4.180   1.573
  840SOL    MW4 3392   1.827   4.265   1.585
  841SOL     OW 3393   2.066   4.373   1.476
  841SOL    HW2 3394   2.138   4.333   1.526
  841SOL    HW3 3395   2.053   4.458   1.517
  841SOL    MW4 3396   2.074   4.379   1.488
  842SOL     OW 3397   2.442   4.664   1.591
  842SOL    HW2 3398   2.468   4.666   1.684
  842SOL    HW3 3399   2.363   4.717   1.587
  842SOL    MW4 3400   2.435   4.671   1.603
  843SOL     OW 3401   2.223   0.137   1.515
  843SOL    HW2 3402   2.157   0.079   1.554
  843SOL    HW3 3403   2.215   0.122   1.421
  843SOL    MW4 3404   2.213   0.127   1.508
  844SOL     OW 3405   2.224   0.390   1.619
  844SOL    HW2 3406   2.245   0.386   1.712
  844SOL    HW3 3407   2.231   0.299   1.588
  844SOL    MW4 3408   2.228   0.377   1.627
  845SOL     OW 3409   2.431   0.512   1.476
  845SOL    HW2 3410   2.506   0.462   1.508
  845SOL    HW3 3411   2.356   0.476   1.523
  845SOL    MW4 3412   2.431   0.501   1.486
  846SOL     OW 3413   2.473   0.758   1.595
  846SOL    HW2 3414   2.389   0.801   1.578
  846SOL    HW3 3415   2.467   0.674   1.550
  846SOL    MW4 3416   2.461   0.753   1.587
  847SOL     OW 3417   2.259   0.909   1.530
  847SOL    HW2 3418   2.279   1.000   1.553
  847SOL    HW3 3419   2.267   0.907   1.435
  847SOL    MW4 3420   2.263   0.921   1.521
  848SOL     OW 3421   2.250   1.165   1.619
  848SOL    HW2 3422   2.256   1.149   1.713
  848SOL    HW3 3423   2.160   1.194   1.605
  848SOL    MW4 3424   2.239   1.167   1.630
  849SOL     OW 3425   2.477   1.295   1.521
  849SOL    HW2 3426   2.395   1.255   1.550
  849SOL    HW3 3427   2.481   1.276   1.427
  849SOL    MW4 3428   2.467   1.287   1.512
  850SOL     OW 3429   2.518   1.535   1.656
  850SOL    HW2 3430   2.592   1.568   1.606
  850SOL    HW3 3431   2.485   1.461   1.604
  850SOL    MW4 3432   2.523   1.529   1.642
  851SOL     OW 3433   2.315   1.684   1.520
  851SOL    HW2 3434   2.397   1.644   1.547
  851SOL    HW3 3435   2.322   1.690   1.424
  851SOL    MW4 3436   2.327   1.680   1.511
  852SOL     OW 3437   2.251   1.950   1.585
  852SOL    HW2 3438   2.246   1.945   1.681
  852SOL    HW3 3439   2.247   1.859   1.556
  852SOL    MW4 3440   2.250   1.938   1.594
  853SOL     OW 3441   2.494   2.084   1.512
  853SOL    HW2 3442   2.416   2.034   1.538
  853SOL    HW3 3443   2.489   2.090   1.417
  853SOL    MW4 3444   2.483   2.078   1.503
  854SOL     OW 3445   2.532   2.351   1.623
  854SOL    HW2 3446   2.517   2.335   1.716
  854SOL    HW3 3447   2.547   2.264   1.585
  854SOL    MW4 3448   2.532   2.338   1.630
  855SOL     OW 3449   2.288   2.424   1.488
  855SOL    HW2 3450   2.362   2.397   1.543
  855SOL    HW3 3451   2.213   2.374   1.522
  855SOL    MW4 3452   2.288   2.414   1.500
  856SOL     OW 3453   2.247   2.680   1.633
  856SOL    HW2 3454   2.254   2.591   1.597
  856SOL    HW3 3455   2.171   2.718   1.588
  856SOL    MW4 3456   2.238   2.673   1.622
  857SOL     OW 3457   2.455   2.834   1.516
  857SOL    HW2 3458   2.440   2.918   1.560
  857SOL    HW3 3459   2.392   2.774   1.558
  857SOL    MW4 3460   2.444   2.837   1.527
  858SOL     OW 3461   2.449   3.082   1.619
  858SOL    HW2 3462   2.530   3.113   1.578
  858SOL    HW3 3463   2.380   3.134   1.579
  858SOL    MW4 3464   2.451   3.093   1.608
  859SOL     OW 3465   2.268   3.208   1.481
  859SOL    HW2 3466   2.270   3.303   1.490
  859SOL    HW3 3467   2.290   3.191   1.390
  859SOL    MW4 3468   2.271   3.218   1.470
  860SOL     OW 3469   2.268   3.464   1.600
  860SOL    HW2 3470   2.270   3.464   1.696
  860SOL    HW3 3471   2.342   3.519   1.574
  860SOL    MW4 3472   2.278   3.471   1.609
  861SOL     OW 3473   2.475   3.611   1.456
  861SOL    HW2 3474   2.552   3.561   1.482
  861SOL    HW3 3475   2.489   3.698   1.493
  861SOL    MW4 3476   2.487   3.616   1.464
  862SOL     OW 3477   2.521   3.864   1.550
  862SOL    HW2 3478   2.507   3.876   1.644
  862SOL    HW3 3479   2.609   3.900   1.535
  862SOL    MW4 3480   2.531   3.871   1.561
  863SOL     OW 3481   2.299   4.010   1.443
  863SOL    HW2 3482   2.375   3.966   1.482
  863SOL    HW3 3483   2.320   4.017   1.350
  863SOL    MW4 3484   2.312   4.005   1.436
  864SOL     OW 3485   2.290   4.248   1.599
  864SOL    HW2 3486   2.354   4.309   1.561
  864SOL    HW3 3487   2.308   4.165   1.555
  864SOL    MW4 3488   2.301   4.245   1.588
  865SOL     OW 3489   2.477   4.417   1.473
  865SOL    HW2 3490   2.467   4.503   1.513
  865SOL    HW3 3491   2.494   4.434   1.381
  865SOL    MW4 3492   2.478   4.431   1.466
  866SOL     OW 3493   2.887   4.644   1.629
  866SOL    HW2 3494   2.914   4.671   1.717
  866SOL    HW3 3495   2.799   4.680   1.619
  866SOL    MW4 3496   2.879   4.652   1.640
  867SOL     OW 3497   2.663   0.116   1.506
  867SOL    HW2 3498   2.657   0.205   1.539
  867SOL    HW3 3499   2.575   0.080   1.518
  867SOL    MW4 3500   2.651   0.123   1.512
  868SOL     OW 3501   2.644   0.380   1.617
  868SOL    HW2 3502   2.656   0.368   1.711
  868SOL    HW3 3503   2.730   0.405   1.585
  868SOL    MW4 3504   2.657   0.382   1.625
  869SOL     OW 3505   2.875   0.462   1.507
  869SOL    HW2 3506   2.860   0.552   1.537
  869SOL    HW3 3507   2.898   0.471   1.415
  869SOL    MW4 3508   2.876   0.475   1.499
  870SOL     OW 3509   2.881   0.729   1.595
  870SOL    HW2 3510   2.888   0.739   1.690
  870SOL    HW3 3511   2.808   0.785   1.570
  870SOL    MW4 3512   2.873   0.737   1.604
  871SOL     OW 3513   2.679   0.916   1.514
  871SOL    HW2 3514   2.601   0.868   1.542
  871SOL    HW3 3515   2.675   0.915   1.418
  871SOL    MW4 3516   2.668   0.910   1.505
  872SOL     OW 3517   2.720   1.179   1.618
  872SOL    HW2 3518   2.711   1.087   1.593
  872SOL    HW3 3519   2.632   1.216   1.608
  872SOL    MW4 3520   2.707   1.171   1.613
  873SOL     OW 3521   2.907   1.292   1.471
  873SOL    HW2 3522   2.982   1.241   1.503
  873SOL    HW3 3523   2.831   1.239   1.494
  873SOL    MW4 3524   2.907   1.278   1.478
  874SOL     OW 3525   2.946   1.541   1.572
  874SOL    HW2 3526   2.868   1.596   1.561
  874SOL    HW3 3527   2.924   1.460   1.526
  874SOL    MW4 3528   2.933   1.538   1.564
  875SOL     OW 3529   2.722   1.680   1.507
  875SOL    HW2 3530   2.715   1.769   1.540
  875SOL    HW3 3531   2.699   1.687   1.414
  875SOL    MW4 3532   2.718   1.692   1.499
  876SOL     OW 3533   2.712   1.940   1.606
  876SOL    HW2 3534   2.710   1.944   1.701
  876SOL    HW3 3535   2.630   1.981   1.579
  876SOL    MW4 3536   2.701   1.946   1.615
  877SOL     OW 3537   2.911   2.055   1.460
  877SOL    HW2 3538   2.910   2.140   1.505
  877SOL    HW3 3539   2.845   2.002   1.506
  877SOL    MW4 3540   2.903   2.059   1.472
  878SOL     OW 3541   2.928   2.304   1.584
  878SOL    HW2 3542   2.917   2.318   1.678
  878SOL    HW3 3543   2.853   2.349   1.545
  878SOL    MW4 3544   2.916   2.312   1.592
  879SOL     OW 3545   2.706   2.471   1.459
  879SOL    HW2 3546   2.719   2.556   1.500
  879SOL    HW3 3547   2.641   2.427   1.514
  879SOL    MW4 3548   2.699   2.476   1.472
  880SOL     OW 3549   2.705   2.749   1.593
  880SOL    HW2 3550   2.766   2.809   1.551
  880SOL    HW3 3551   2.619   2.776   1.560
  880SOL    MW4 3552   2.702   2.761   1.583
  881SOL     OW 3553   2.925   2.866   1.497
  881SOL    HW2 3554   2.997   2.812   1.529
  881SOL    HW3 3555   2.942   2.953   1.534
  881SOL    MW4 3556   2.937   2.870   1.506
  882SOL     OW 3557   2.935   3.149   1.585
  882SOL    HW2 3558   2.947   3.159   1.679
  882SOL    HW3 3559   3.014   3.189   1.546
  882SOL    MW4 3560   2.947   3.156   1.592
  883SOL     OW 3561   2.689   3.169   1.488
  883SOL    HW2 3562   2.778   3.151   1.517
  883SOL    HW3 3563   2.697   3.189   1.395
  883SOL    MW4 3564   2.701   3.169   1.479
  884SOL     OW 3565   2.716   3.474   1.553
  884SOL    HW2 3566   2.713   3.481   1.648
  884SOL    HW3 3567   2.715   3.380   1.535
  884SOL    MW4 3568   2.716   3.463   1.563
  885SOL     OW 3569   2.954   3.626   1.459
  885SOL    HW2 3570   2.883   3.568   1.487
  885SOL    HW3 3571   2.937   3.641   1.366
  885SOL    MW4 3572   2.942   3.621   1.450
  886SOL     OW 3573   2.881   3.859   1.614
  886SOL    HW2 3574   2.840   3.928   1.562
  886SOL    HW3 3575   2.903   3.791   1.550
  886SOL    MW4 3576   2.879   3.859   1.598
  887SOL     OW 3577   2.720   4.053   1.475
  887SOL    HW2 3578   2.689   4.135   1.512
  887SOL    HW3 3579   2.719   4.067   1.380
  887SOL    MW4 3580   2.716   4.065   1.467
  888SOL     OW 3581   2.659   4.266   1.624
  888SOL    HW2 3582   2.745   4.306   1.618
  888SOL    HW3 3583   2.600   4.328   1.582
  888SOL    MW4 3584   2.663   4.279   1.618
  889SOL     OW 3585   2.897   4.385   1.564
  889SOL    HW2 3586   2.897   4.479   1.581
  889SOL    HW3 3587   2.892   4.378   1.469
  889SOL    MW4 3588   2.896   4.396   1.554
  890SOL     OW 3589   3.356   4.623   1.621
  890SOL    HW2 3590   3.425   4.676   1.579
  890SOL    HW3 3591   3.360   4.539   1.575
  890SOL    MW4 3592   3.366   4.619   1.609
  891SOL     OW 3593   3.117   0.097   1.528
  891SOL    HW2 3594   3.182   0.038   1.567
  891SOL    HW3 3595   3.033   0.064   1.558
  891SOL    MW4 3596   3.115   0.085   1.537
  892SOL     OW 3597   3.122   0.373   1.623
  892SOL    HW2 3598   3.130   0.285   1.587
  892SOL    HW3 3599   3.038   0.405   1.590
  892SOL    MW4 3600   3.112   0.366   1.614
  893SOL     OW 3601   3.351   0.477   1.532
  893SOL    HW2 3602   3.279   0.417   1.552
  893SOL    HW3 3603   3.356   0.478   1.437
  893SOL    MW4 3604   3.342   0.469   1.522
  894SOL     OW 3605   3.339   0.742   1.587
  894SOL    HW2 3606   3.346   0.766   1.680
  894SOL    HW3 3607   3.347   0.647   1.586
  894SOL    MW4 3608   3.341   0.733   1.599
  895SOL     OW 3609   3.113   0.867   1.496
  895SOL    HW2 3610   3.181   0.817   1.542
  895SOL    HW3 3611   3.031   0.832   1.530
  895SOL    MW4 3612   3.111   0.856   1.507
  896SOL     OW 3613   3.117   1.146   1.585
  896SOL    HW2 3614   3.104   1.154   1.679
  896SOL    HW3 3615   3.128   1.052   1.570
  896SOL    MW4 3616   3.117   1.134   1.595
  897SOL     OW 3617   3.320   1.279   1.460
  897SOL    HW2 3618   3.403   1.236   1.482
  897SOL    HW3 3619   3.254   1.229   1.508
  897SOL    MW4 3620   3.323   1.267   1.469
  898SOL     OW 3621   3.354   1.530   1.576
  898SOL    HW2 3622   3.354   1.532   1.672
  898SOL    HW3 3623   3.361   1.437   1.554
  898SOL    MW4 3624   3.355   1.518   1.586
  899SOL     OW 3625   3.172   1.660   1.443
  899SOL    HW2 3626   3.250   1.628   1.487
  899SOL    HW3 3627   3.099   1.618   1.488
  899SOL    MW4 3628   3.173   1.651   1.455
  900SOL     OW 3629   3.141   1.934   1.600
  900SOL    HW2 3630   3.132   1.842   1.574
  900SOL    HW3 3631   3.084   1.982   1.539
  900SOL    MW4 3632   3.132   1.928   1.588
  901SOL     OW 3633   3.392   2.039   1.526
  901SOL    HW2 3634   3.315   1.995   1.561
  901SOL    HW3 3635   3.396   2.012   1.435
  901SOL    MW4 3636   3.383   2.030   1.519
  902SOL     OW 3637   3.365   2.298   1.612
  902SOL    HW2 3638   3.442   2.335   1.569
  902SOL    HW3 3639   3.360   2.208   1.580
  902SOL    MW4 3640   3.375   2.291   1.602
  903SOL     OW 3641   3.142   2.449   1.503
  903SOL    HW2 3642   3.225   2.408   1.526
  903SOL    HW3 3643   3.075   2.390   1.539
  903SOL    MW4 3644   3.144   2.435   1.511
  904SOL     OW 3645   3.139   2.697   1.638
  904SOL    HW2 3646   3.208   2.749   1.596
  904SOL    HW3 3647   3.139   2.614   1.592
  904SOL    MW4 3648   3.148   2.693   1.626
  905SOL     OW 3649   3.332   2.832   1.484
  905SOL    HW2 3650   3.337   2.918   1.525
  905SOL    HW3 3651   3.340   2.849   1.391
  905SOL    MW4 3652   3.334   2.845   1.477
  906SOL     OW 3653   3.330   3.086   1.607
  906SOL    HW2 3654   3.328   3.102   1.702
  906SOL    HW3 3655   3.417   3.114   1.580
  906SOL    MW4 3656   3.341   3.092   1.616
  907SOL     OW 3657   3.165   3.277   1.466
  907SOL    HW2 3658   3.215   3.207   1.507
  907SOL    HW3 3659   3.168   3.258   1.372
  907SOL    MW4 3660   3.172   3.265   1.459
  908SOL     OW 3661   3.163   3.519   1.603
  908SOL    HW2 3662   3.171   3.438   1.551
  908SOL    HW3 3663   3.091   3.566   1.563
  908SOL    MW4 3664   3.155   3.514   1.591
  909SOL     OW 3665   3.384   3.631   1.526
  909SOL    HW2 3666   3.451   3.576   1.567
  909SOL    HW3 3667   3.302   3.601   1.565
  909SOL    MW4 3668   3.382   3.620   1.536
  910SOL     OW 3669   3.369   3.898   1.576
  910SOL    HW2 3670   3.277   3.915   1.555
  910SOL    HW3 3671   3.383   3.807   1.553
  910SOL    MW4 3672   3.358   3.888   1.570
  911SOL     OW 3673   3.111   3.974   1.540
  911SOL    HW2 3674   3.111   4.064   1.571
  911SOL    HW3 3675   3.033   3.935   1.579
  911SOL    MW4 3676   3.101   3.980   1.550
  912SOL     OW 3677   3.118   4.250   1.605
  912SOL    HW2 3678   3.140   4.253   1.698
  912SOL    HW3 3679   3.045   4.311   1.595
  912SOL    MW4 3680   3.112   4.259   1.616
  913SOL     OW 3681   3.358   4.357   1.518
  913SOL    HW2 3682   3.289   4.304   1.558
  913SOL    HW3 3683   3.358   4.331   1.426
  913SOL    MW4 3684   3.349   4.346   1.511
  914SOL     OW 3685   3.765   4.654   1.582
  914SOL    HW2 3686   3.768   4.644   1.677
  914SOL    HW3 3687   3.848   4.697   1.560
  914SOL    MW4 3688   3.777   4.658   1.592
  915SOL     OW 3689   3.534   0.107   1.472
  915SOL    HW2 3690   3.613   0.064   1.504
  915SOL    HW3 3691   3.541   0.103   1.376
  915SOL    MW4 3692   3.545   0.101   1.463
  916SOL     OW 3693   3.602   0.370   1.534
  916SOL    HW2 3694   3.586   0.278   1.517
  916SOL    HW3 3695   3.516   0.411   1.530
  916SOL    MW4 3696   3.589   0.363   1.531
  917SOL     OW 3697   3.838   0.509   1.534
  917SOL    HW2 3698   3.751   0.474   1.554
  917SOL    HW3 3699   3.844   0.504   1.438
  917SOL    MW4 3700   3.827   0.504   1.524
  918SOL     OW 3701   3.809   0.781   1.574
  918SOL    HW2 3702   3.736   0.820   1.525
  918SOL    HW3 3703   3.813   0.690   1.543
  918SOL    MW4 3704   3.800   0.774   1.563
  919SOL     OW 3705   3.556   0.910   1.473
  919SOL    HW2 3706   3.476   0.864   1.499
  919SOL    HW3 3707   3.578   0.874   1.387
  919SOL    MW4 3708   3.549   0.899   1.465
  920SOL     OW 3709   3.545   1.169   1.586
  920SOL    HW2 3710   3.617   1.219   1.547
  920SOL    HW3 3711   3.555   1.081   1.547
  920SOL    MW4 3712   3.556   1.164   1.575
  921SOL     OW 3713   3.778   1.312   1.496
  921SOL    HW2 3714   3.841   1.256   1.540
  921SOL    HW3 3715   3.798   1.400   1.526
  921SOL    MW4 3716   3.789   1.316   1.505
  922SOL     OW 3717   3.824   1.563   1.608
  922SOL    HW2 3718   3.810   1.548   1.701
  922SOL    HW3 3719   3.740   1.594   1.576
  922SOL    MW4 3720   3.811   1.565   1.616
  923SOL     OW 3721   3.589   1.651   1.495
  923SOL    HW2 3722   3.503   1.615   1.514
  923SOL    HW3 3723   3.596   1.649   1.400
  923SOL    MW4 3724   3.579   1.646   1.485
  924SOL     OW 3725   3.616   1.905   1.634
  924SOL    HW2 3726   3.639   1.826   1.585
  924SOL    HW3 3727   3.542   1.942   1.587
  924SOL    MW4 3728   3.609   1.899   1.622
  925SOL     OW 3729   3.820   2.047   1.507
  925SOL    HW2 3730   3.809   2.141   1.517
  925SOL    HW3 3731   3.752   2.009   1.562
  925SOL    MW4 3732   3.810   2.054   1.516
  926SOL     OW 3733   3.828   2.321   1.566
  926SOL    HW2 3734   3.833   2.321   1.661
  926SOL    HW3 3735   3.912   2.357   1.538
  926SOL    MW4 3736   3.840   2.326   1.575
  927SOL     OW 3737   3.593   2.441   1.484
  927SOL    HW2 3738   3.582   2.521   1.536
  927SOL    HW3 3739   3.684   2.415   1.498
  927SOL    MW4 3740   3.603   2.448   1.493
  928SOL     OW 3741   3.567   2.694   1.601
  928SOL    HW2 3742   3.555   2.693   1.696
  928SOL    HW3 3743   3.486   2.732   1.567
  928SOL    MW4 3744   3.555   2.699   1.609
  929SOL     OW 3745   3.804   2.804   1.499
  929SOL    HW2 3746   3.877   2.747   1.526
  929SOL    HW3 3747   3.726   2.761   1.534
  929SOL    MW4 3748   3.804   2.791   1.507
  930SOL     OW 3749   3.815   3.079   1.593
  930SOL    HW2 3750   3.903   3.090   1.559
  930SOL    HW3 3751   3.791   2.989   1.569
  930SOL    MW4 3752   3.823   3.069   1.585
  931SOL     OW 3753   3.578   3.225   1.522
  931SOL    HW2 3754   3.664   3.186   1.540
  931SOL    HW3 3755   3.574   3.228   1.426
  931SOL    MW4 3756   3.589   3.220   1.511
  932SOL     OW 3757   3.582   3.479   1.604
  932SOL    HW2 3758   3.656   3.523   1.563
  932SOL    HW3 3759   3.585   3.390   1.569
  932SOL    MW4 3760   3.592   3.473   1.594
  933SOL     OW 3761   3.791   3.602   1.451
  933SOL    HW2 3762   3.861   3.552   1.494
  933SOL    HW3 3763   3.791   3.686   1.497
  933SOL    MW4 3764   3.800   3.606   1.463
  934SOL     OW 3765   3.791   3.840   1.592
  934SOL    HW2 3766   3.877   3.881   1.580
  934SOL    HW3 3767   3.728   3.907   1.567
  934SOL    MW4 3768   3.794   3.854   1.587
  935SOL     OW 3769   3.587   4.040   1.508
  935SOL    HW2 3770   3.591   4.117   1.565
  935SOL    HW3 3771   3.508   3.993   1.537
  935SOL    MW4 3772   3.577   4.044   1.520
  936SOL     OW 3773   3.603   4.282   1.625
  936SOL    HW2 3774   3.592   4.283   1.720
  936SOL    HW3 3775   3.523   4.321   1.591
  936SOL    MW4 3776   3.591   4.287   1.633
  937SOL     OW 3777   3.833   4.409   1.494
  937SOL    HW2 3778   3.755   4.373   1.534
  937SOL    HW3 3779   3.836   4.500   1.524
  937SOL    MW4 3780   3.823   4.416   1.503
  938SOL     OW 3781   4.275   0.017   1.595
  938SOL    HW2 3782   4.279   0.009   1.690
  938SOL    HW3 3783   4.262  -0.072   1.563
  938SOL    MW4 3784   4.274   0.004   1.603
  939SOL     OW 3785   4.012   0.092   1.538
  939SOL    HW2 3786   3.992   0.182   1.564
  939SOL    HW3 3787   4.098   0.074   1.577
  939SOL    MW4 3788   4.021   0.101   1.546
  940SOL     OW 3789   4.037   0.342   1.638
  940SOL    HW2 3790   4.029   0.343   1.733
  940SOL    HW3 3791   3.963   0.395   1.607
  940SOL    MW4 3792   4.026   0.349   1.646
  941SOL     OW 3793   4.270   0.495   1.537
  941SOL    HW2 3794   4.195   0.447   1.574
  941SOL    HW3 3795   4.345   0.437   1.552
  941SOL    MW4 3796   4.270   0.481   1.544
  942SOL     OW 3797   4.286   0.765   1.620
  942SOL    HW2 3798   4.291   0.672   1.601
  942SOL    HW3 3799   4.369   0.801   1.586
  942SOL    MW4 3800   4.298   0.758   1.613
  943SOL     OW 3801   4.042   0.902   1.526
  943SOL    HW2 3802   4.113   0.847   1.561
  943SOL    HW3 3803   3.964   0.848   1.534
  943SOL    MW4 3804   4.041   0.888   1.531
  944SOL     OW 3805   4.019   1.168   1.594
  944SOL    HW2 3806   4.012   1.176   1.689
  944SOL    HW3 3807   4.019   1.074   1.578
  944SOL    MW4 3808   4.018   1.157   1.604
  945SOL     OW 3809   4.275   1.282   1.478
  945SOL    HW2 3810   4.200   1.230   1.508
  945SOL    HW3 3811   4.352   1.234   1.510
  945SOL    MW4 3812   4.275   1.269   1.486
  946SOL     OW 3813   4.249   1.521   1.640
  946SOL    HW2 3814   4.251   1.437   1.593
  946SOL    HW3 3815   4.325   1.569   1.605
  946SOL    MW4 3816   4.259   1.516   1.629
  947SOL     OW 3817   4.063   1.683   1.466
  947SOL    HW2 3818   4.130   1.638   1.518
  947SOL    HW3 3819   3.980   1.653   1.503
  947SOL    MW4 3820   4.060   1.673   1.478
  948SOL     OW 3821   4.079   1.932   1.591
  948SOL    HW2 3822   4.077   1.850   1.542
  948SOL    HW3 3823   3.993   1.971   1.576
  948SOL    MW4 3824   4.067   1.926   1.583
  949SOL     OW 3825   4.290   2.078   1.475
  949SOL    HW2 3826   4.210   2.037   1.507
  949SOL    HW3 3827   4.290   2.058   1.381
  949SOL    MW4 3828   4.279   2.070   1.467
  950SOL     OW 3829   4.284   2.317   1.611
  950SOL    HW2 3830   4.291   2.288   1.702
  950SOL    HW3 3831   4.297   2.238   1.559
  950SOL    MW4 3832   4.286   2.303   1.616
  951SOL     OW 3833   4.069   2.423   1.490
  951SOL    HW2 3834   4.072   2.511   1.525
  951SOL    HW3 3835   4.143   2.378   1.530
  951SOL    MW4 3836   4.079   2.428   1.500
  952SOL     OW 3837   4.044   2.673   1.577
  952SOL    HW2 3838   4.048   2.667   1.672
  952SOL    HW3 3839   4.115   2.732   1.553
  952SOL    MW4 3840   4.054   2.680   1.586
  953SOL     OW 3841   4.258   2.819   1.458
  953SOL    HW2 3842   4.250   2.913   1.477
  953SOL    HW3 3843   4.277   2.815   1.364
  953SOL    MW4 3844   4.259   2.831   1.448
  954SOL     OW 3845   4.268   3.082   1.567
  954SOL    HW2 3846   4.279   3.081   1.662
  954SOL    HW3 3847   4.338   3.139   1.535
  954SOL    MW4 3848   4.279   3.089   1.575
  955SOL     OW 3849   4.045   3.190   1.453
  955SOL    HW2 3850   4.010   3.273   1.488
  955SOL    HW3 3851   4.129   3.179   1.498
  955SOL    MW4 3852   4.051   3.199   1.463
  956SOL     OW 3853   3.972   3.434   1.570
  956SOL    HW2 3854   3.995   3.432   1.663
  956SOL    HW3 3855   4.045   3.479   1.528
  956SOL    MW4 3856   3.985   3.440   1.577
  957SOL     OW 3857   4.187   3.593   1.476
  957SOL    HW2 3858   4.207   3.678   1.513
  957SOL    HW3 3859   4.215   3.599   1.384
  957SOL    MW4 3860   4.193   3.605   1.469
  958SOL     OW 3861   4.247   3.839   1.583
  958SOL    HW2 3862   4.176   3.903   1.586
  958SOL    HW3 3863   4.323   3.889   1.555
  958SOL    MW4 3864   4.247   3.854   1.580
  959SOL     OW 3865   4.030   3.991   1.552
  959SOL    HW2 3866   4.038   4.079   1.588
  959SOL    HW3 3867   4.031   4.004   1.457
  959SOL    MW4 3868   4.031   4.004   1.544
  960SOL     OW 3869   4.034   4.276   1.645
  960SOL    HW2 3870   4.021   4.294   1.738
  960SOL    HW3 3871   3.957   4.312   1.603
  960SOL    MW4 3872   4.022   4.283   1.652
  961SOL     OW 3873   4.242   4.417   1.543
  961SOL    HW2 3874   4.167   4.369   1.579
  961SOL    HW3 3875   4.243   4.393   1.450
  961SOL    MW4 3876   4.232   4.407   1.535
  962SOL     OW 3877   0.227   4.643   1.866
  962SOL    HW2 3878   0.303   4.695   1.894
  962SOL    HW3 3879   0.229   4.646   1.771
  962SOL    MW4 3880   0.237   4.650   1.857
  963SOL     OW 3881   4.487   0.080   1.989
  963SOL    HW2 3882   4.496   0.173   1.968
  963SOL    HW3 3883   4.569   0.041   1.958
  963SOL    MW4 3884   4.499   0.087   1.982
  964SOL     OW 3885   4.479   0.333   1.891
  964SOL    HW2 3886   4.406   0.389   1.918
  964SOL    HW3 3887   4.558   0.383   1.913
  964SOL    MW4 3888   4.480   0.347   1.897
  965SOL     OW 3889   0.191   0.501   1.971
  965SOL    HW2 3890   0.268   0.464   1.930
  965SOL    HW3 3891   0.198   0.595   1.955
  965SOL    MW4 3892   0.202   0.509   1.964
  966SOL     OW 3893   0.207   0.771   1.908
  966SOL    HW2 3894   0.296   0.793   1.935
  966SOL    HW3 3895   0.216   0.751   1.814
  966SOL    MW4 3896   0.220   0.771   1.899
  967SOL     OW 3897   4.458   0.905   1.987
  967SOL    HW2 3898   4.384   0.858   1.949
  967SOL    HW3 3899   4.535   0.861   1.951
  967SOL    MW4 3900   4.458   0.893   1.977
  968SOL     OW 3901   4.464   1.128   1.822
  968SOL    HW2 3902   4.385   1.176   1.849
  968SOL    HW3 3903   4.479   1.066   1.892
  968SOL    MW4 3904   4.455   1.126   1.835
  969SOL     OW 3905   0.178   1.259   1.958
  969SOL    HW2 3906   0.181   1.353   1.938
  969SOL    HW3 3907   0.102   1.227   1.910
  969SOL    MW4 3908   0.169   1.267   1.949
  970SOL     OW 3909   0.193   1.511   1.845
  970SOL    HW2 3910   0.268   1.563   1.874
  970SOL    HW3 3911   0.117   1.564   1.871
  970SOL    MW4 3912   0.193   1.525   1.852
  971SOL     OW 3913   4.484   1.649   1.949
  971SOL    HW2 3914   4.501   1.648   2.043
  971SOL    HW3 3915   4.403   1.598   1.938
  971SOL    MW4 3916   4.475   1.642   1.960
  972SOL     OW 3917   4.486   1.901   1.837
  972SOL    HW2 3918   4.405   1.940   1.870
  972SOL    HW3 3919   4.494   1.818   1.885
  972SOL    MW4 3920   4.477   1.895   1.848
  973SOL     OW 3921   0.208   2.025   1.959
  973SOL    HW2 3922   0.214   2.102   1.902
  973SOL    HW3 3923   0.134   1.975   1.924
  973SOL    MW4 3924   0.199   2.028   1.947
  974SOL     OW 3925   0.211   2.284   1.830
  974SOL    HW2 3926   0.281   2.334   1.872
  974SOL    HW3 3927   0.131   2.316   1.872
  974SOL    MW4 3928   0.209   2.295   1.841
  975SOL     OW 3929   0.009   2.390   1.958
  975SOL    HW2 3930  -0.020   2.406   2.048
  975SOL    HW3 3931   0.014   2.477   1.919
  975SOL    MW4 3932   0.006   2.403   1.965
  976SOL     OW 3933   4.479   2.635   1.863
  976SOL    HW2 3934   4.412   2.696   1.895
  976SOL    HW3 3935   4.476   2.645   1.767
  976SOL    MW4 3936   4.470   2.645   1.854
  977SOL     OW 3937   0.187   2.781   1.970
  977SOL    HW2 3938   0.175   2.870   1.937
  977SOL    HW3 3939   0.122   2.729   1.923
  977SOL    MW4 3940   0.177   2.786   1.959
  978SOL     OW 3941   0.244   3.054   1.873
  978SOL    HW2 3942   0.306   3.120   1.905
  978SOL    HW3 3943   0.229   3.078   1.782
  978SOL    MW4 3944   0.251   3.066   1.865
  979SOL     OW 3945   0.033   3.234   1.903
  979SOL    HW2 3946  -0.053   3.194   1.888
  979SOL    HW3 3947   0.094   3.160   1.909
  979SOL    MW4 3948   0.030   3.219   1.902
  980SOL     OW 3949   4.477   3.500   1.842
  980SOL    HW2 3950   4.556   3.538   1.881
  980SOL    HW3 3951   4.489   3.406   1.850
  980SOL    MW4 3952   4.489   3.493   1.848
  981SOL     OW 3953   0.227   3.630   1.965
  981SOL    HW2 3954   0.251   3.633   2.057
  981SOL    HW3 3955   0.292   3.573   1.925
  981SOL    MW4 3956   0.239   3.623   1.972
  982SOL     OW 3957   0.223   3.861   1.834
  982SOL    HW2 3958   0.304   3.897   1.870
  982SOL    HW3 3959   0.215   3.774   1.872
  982SOL    MW4 3960   0.232   3.855   1.844
  983SOL     OW 3961   4.480   4.019   1.940
  983SOL    HW2 3962   4.507   4.109   1.924
  983SOL    HW3 3963   4.554   3.966   1.910
  983SOL    MW4 3964   4.494   4.024   1.934
  984SOL     OW 3965   0.037   4.287   1.859
  984SOL    HW2 3966  -0.043   4.299   1.910
  984SOL    HW3 3967   0.108   4.292   1.923
  984SOL    MW4 3968   0.035   4.289   1.874
  985SOL     OW 3969   0.251   4.385   1.993
  985SOL    HW2 3970   0.224   4.397   2.083
  985SOL    HW3 3971   0.244   4.472   1.953
  985SOL    MW4 3972   0.246   4.398   1.999
  986SOL     OW 3973   0.647   4.648   1.858
  986SOL    HW2 3974   0.661   4.565   1.904
  986SOL    HW3 3975   0.669   4.629   1.767
  986SOL    MW4 3976   0.652   4.635   1.852
  987SOL     OW 3977   0.441   0.119   1.980
  987SOL    HW2 3978   0.441   0.207   1.944
  987SOL    HW3 3979   0.520   0.078   1.945
  987SOL    MW4 3980   0.452   0.125   1.971
  988SOL     OW 3981   0.437   0.387   1.885
  988SOL    HW2 3982   0.510   0.438   1.919
  988SOL    HW3 3983   0.446   0.392   1.790
  988SOL    MW4 3984   0.448   0.394   1.877
  989SOL     OW 3985   0.650   0.513   1.974
  989SOL    HW2 3986   0.651   0.521   2.069
  989SOL    HW3 3987   0.732   0.468   1.953
  989SOL    MW4 3988   0.661   0.508   1.984
  990SOL     OW 3989   0.691   0.750   1.844
  990SOL    HW2 3990   0.761   0.795   1.890
  990SOL    HW3 3991   0.692   0.661   1.880
  990SOL    MW4 3992   0.700   0.744   1.855
  991SOL     OW 3993   0.455   0.834   1.988
  991SOL    HW2 3994   0.432   0.922   1.959
  991SOL    HW3 3995   0.541   0.818   1.950
  991SOL    MW4 3996   0.463   0.844   1.979
  992SOL     OW 3997   0.417   1.096   1.893
  992SOL    HW2 3998   0.342   1.145   1.927
  992SOL    HW3 3999   0.421   1.121   1.800
  992SOL    MW4 4000   0.407   1.106   1.885
  993SOL     OW 4001   0.659   1.245   1.929
  993SOL    HW2 4002   0.675   1.230   2.022
  993SOL    HW3 4003   0.578   1.198   1.911
  993SOL    MW4 4004   0.651   1.237   1.939
  994SOL     OW 4005   0.678   1.522   1.877
  994SOL    HW2 4006   0.674   1.427   1.882
  994SOL    HW3 4007   0.679   1.542   1.783
  994SOL    MW4 4008   0.678   1.512   1.865
  995SOL     OW 4009   0.425   1.630   1.950
  995SOL    HW2 4010   0.418   1.653   2.043
  995SOL    HW3 4011   0.505   1.577   1.945
  995SOL    MW4 4012   0.435   1.626   1.962
  996SOL     OW 4013   0.427   1.894   1.859
  996SOL    HW2 4014   0.436   1.800   1.878
  996SOL    HW3 4015   0.342   1.917   1.894
  996SOL    MW4 4016   0.417   1.885   1.866
  997SOL     OW 4017   0.642   2.026   1.957
  997SOL    HW2 4018   0.642   2.030   2.053
  997SOL    HW3 4019   0.554   1.995   1.934
  997SOL    MW4 4020   0.630   2.022   1.967
  998SOL     OW 4021   0.659   2.314   1.897
  998SOL    HW2 4022   0.646   2.219   1.906
  998SOL    HW3 4023   0.664   2.328   1.802
  998SOL    MW4 4024   0.658   2.303   1.886
  999SOL     OW 4025   0.423   2.428   1.950
  999SOL    HW2 4026   0.410   2.432   2.044
  999SOL    HW3 4027   0.511   2.392   1.939
  999SOL    MW4 4028   0.433   2.424   1.961
 1000SOL     OW 4029   0.434   2.706   1.881
 1000SOL    HW2 4030   0.453   2.619   1.914
 1000SOL    HW3 4031   0.343   2.722   1.908
 1000SOL    MW4 4032   0.424   2.697   1.889
 1001SOL     OW 4033   0.667   2.836   1.966
 1001SOL    HW2 4034   0.659   2.843   2.061
 1001SOL    HW3 4035   0.581   2.804   1.937
 1001SOL    MW4 4036   0.654   2.832   1.975
 1002SOL     OW 4037   0.680   3.091   1.830
 1002SOL    HW2 4038   0.661   3.006   1.870
 1002SOL    HW3 4039   0.651   3.082   1.739
 1002SOL    MW4 4040   0.674   3.079   1.824
 1003SOL     OW 4041   0.447   3.211   1.936
 1003SOL    HW2 4042   0.443   3.298   1.896
 1003SOL    HW3 4043   0.527   3.172   1.901
 1003SOL    MW4 4044   0.457   3.217   1.926
 1004SOL     OW 4045   0.432   3.487   1.831
 1004SOL    HW2 4046   0.505   3.531   1.874
 1004SOL    HW3 4047   0.433   3.520   1.741
 1004SOL    MW4 4048   0.442   3.497   1.825
 1005SOL     OW 4049   0.661   3.593   1.952
 1005SOL    HW2 4050   0.746   3.550   1.942
 1005SOL    HW3 4051   0.670   3.676   1.906
 1005SOL    MW4 4052   0.673   3.598   1.945
 1006SOL     OW 4053   0.700   3.866   1.868
 1006SOL    HW2 4054   0.789   3.869   1.904
 1006SOL    HW3 4055   0.712   3.868   1.773
 1006SOL    MW4 4056   0.714   3.866   1.860
 1007SOL     OW 4057   0.437   3.975   1.985
 1007SOL    HW2 4058   0.439   4.062   1.946
 1007SOL    HW3 4059   0.516   3.932   1.951
 1007SOL    MW4 4060   0.448   3.981   1.976
 1008SOL     OW 4061   0.469   4.247   1.900
 1008SOL    HW2 4062   0.395   4.305   1.918
 1008SOL    HW3 4063   0.470   4.237   1.805
 1008SOL    MW4 4064   0.460   4.254   1.890
 1009SOL     OW 4065   0.693   4.401   1.969
 1009SOL    HW2 4066   0.776   4.363   1.943
 1009SOL    HW3 4067   0.626   4.342   1.934
 1009SOL    MW4 4068   0.695   4.388   1.961
 1010SOL     OW 4069   1.107   4.634   1.882
 1010SOL    HW2 4070   1.181   4.694   1.890
 1010SOL    HW3 4071   1.141   4.549   1.908
 1010SOL    MW4 4072   1.121   4.631   1.886
 1011SOL     OW 4073   0.896   0.112   1.983
 1011SOL    HW2 4074   0.970   0.067   1.942
 1011SOL    HW3 4075   0.820   0.058   1.961
 1011SOL    MW4 4076   0.896   0.099   1.975
 1012SOL     OW 4077   0.876   0.367   1.865
 1012SOL    HW2 4078   0.957   0.405   1.899
 1012SOL    HW3 4079   0.885   0.273   1.883
 1012SOL    MW4 4080   0.888   0.359   1.872
 1013SOL     OW 4081   1.102   0.499   1.974
 1013SOL    HW2 4082   1.189   0.470   1.947
 1013SOL    HW3 4083   1.101   0.592   1.954
 1013SOL    MW4 4084   1.113   0.507   1.968
 1014SOL     OW 4085   1.154   0.782   1.885
 1014SOL    HW2 4086   1.224   0.840   1.915
 1014SOL    HW3 4087   1.073   0.826   1.912
 1014SOL    MW4 4088   1.152   0.796   1.893
 1015SOL     OW 4089   0.907   0.867   1.983
 1015SOL    HW2 4090   0.900   0.885   2.077
 1015SOL    HW3 4091   0.910   0.953   1.942
 1015SOL    MW4 4092   0.907   0.881   1.990
 1016SOL     OW 4093   0.908   1.132   1.879
 1016SOL    HW2 4094   0.821   1.158   1.907
 1016SOL    HW3 4095   0.910   1.151   1.785
 1016SOL    MW4 4096   0.897   1.138   1.870
 1017SOL     OW 4097   1.120   1.286   1.970
 1017SOL    HW2 4098   1.095   1.374   1.939
 1017SOL    HW3 4099   1.047   1.230   1.944
 1017SOL    MW4 4100   1.107   1.290   1.962
 1018SOL     OW 4101   1.126   1.550   1.864
 1018SOL    HW2 4102   1.050   1.599   1.896
 1018SOL    HW3 4103   1.132   1.572   1.771
 1018SOL    MW4 4104   1.116   1.559   1.856
 1019SOL     OW 4105   0.895   1.661   1.974
 1019SOL    HW2 4106   0.885   1.750   1.942
 1019SOL    HW3 4107   0.815   1.616   1.946
 1019SOL    MW4 4108   0.884   1.667   1.966
 1020SOL     OW 4109   0.877   1.927   1.875
 1020SOL    HW2 4110   0.789   1.952   1.904
 1020SOL    HW3 4111   0.871   1.927   1.779
 1020SOL    MW4 4112   0.864   1.931   1.866
 1021SOL     OW 4113   1.089   2.081   1.966
 1021SOL    HW2 4114   1.077   2.172   1.939
 1021SOL    HW3 4115   1.016   2.034   1.925
 1021SOL    MW4 4116   1.078   2.086   1.957
 1022SOL     OW 4117   1.084   2.348   1.882
 1022SOL    HW2 4118   1.155   2.384   1.935
 1022SOL    HW3 4119   1.126   2.325   1.799
 1022SOL    MW4 4120   1.099   2.350   1.878
 1023SOL     OW 4121   0.851   2.473   1.984
 1023SOL    HW2 4122   0.924   2.417   1.958
 1023SOL    HW3 4123   0.774   2.418   1.974
 1023SOL    MW4 4124   0.851   2.459   1.979
 1024SOL     OW 4125   0.890   2.708   1.849
 1024SOL    HW2 4126   0.888   2.622   1.891
 1024SOL    HW3 4127   0.819   2.757   1.891
 1024SOL    MW4 4128   0.881   2.703   1.860
 1025SOL     OW 4129   1.112   2.858   1.969
 1025SOL    HW2 4130   1.098   2.842   2.062
 1025SOL    HW3 4131   1.042   2.811   1.925
 1025SOL    MW4 4132   1.101   2.850   1.976
 1026SOL     OW 4133   1.129   3.122   1.870
 1026SOL    HW2 4134   1.041   3.143   1.902
 1026SOL    HW3 4135   1.138   3.028   1.885
 1026SOL    MW4 4136   1.119   3.112   1.876
 1027SOL     OW 4137   0.888   3.240   1.950
 1027SOL    HW2 4138   0.863   3.236   2.042
 1027SOL    HW3 4139   0.828   3.181   1.906
 1027SOL    MW4 4140   0.877   3.232   1.956
 1028SOL     OW 4141   0.899   3.498   1.888
 1028SOL    HW2 4142   0.895   3.405   1.908
 1028SOL    HW3 4143   0.891   3.502   1.792
 1028SOL    MW4 4144   0.897   3.486   1.878
 1029SOL     OW 4145   1.153   3.577   1.964
 1029SOL    HW2 4146   1.146   3.592   2.058
 1029SOL    HW3 4147   1.066   3.546   1.938
 1029SOL    MW4 4148   1.141   3.575   1.973
 1030SOL     OW 4149   1.169   3.847   1.919
 1030SOL    HW2 4150   1.177   3.755   1.944
 1030SOL    HW3 4151   1.144   3.844   1.826
 1030SOL    MW4 4152   1.167   3.834   1.910
 1031SOL     OW 4153   0.937   3.976   1.992
 1031SOL    HW2 4154   0.933   3.984   2.087
 1031SOL    HW3 4155   1.023   3.937   1.975
 1031SOL    MW4 4156   0.948   3.972   2.002
 1032SOL     OW 4157   0.925   4.240   1.896
 1032SOL    HW2 4158   1.004   4.280   1.931
 1032SOL    HW3 4159   0.922   4.152   1.935
 1032SOL    MW4 4160   0.935   4.234   1.906
 1033SOL     OW 4161   1.145   4.384   2.001
 1033SOL    HW2 4162   1.119   4.381   2.093
 1033SOL    HW3 4163   1.214   4.319   1.993
 1033SOL    MW4 4164   1.151   4.375   2.012
 1034SOL     OW 4165   1.573   4.653   1.897
 1034SOL    HW2 4166   1.655   4.697   1.921
 1034SOL    HW3 4167   1.582   4.564   1.931
 1034SOL    MW4 4168   1.585   4.647   1.904
 1035SOL     OW 4169   1.330   0.126   1.957
 1035SOL    HW2 4170   1.315   0.122   2.051
 1035SOL    HW3 4171   1.414   0.080   1.944
 1035SOL    MW4 4172   1.339   0.119   1.967
 1036SOL     OW 4173   1.341   0.385   1.857
 1036SOL    HW2 4174   1.347   0.299   1.900
 1036SOL    HW3 4175   1.313   0.365   1.768
 1036SOL    MW4 4176   1.338   0.371   1.851
 1037SOL     OW 4177   1.562   0.511   1.987
 1037SOL    HW2 4178   1.641   0.462   1.963
 1037SOL    HW3 4179   1.493   0.470   1.935
 1037SOL    MW4 4180   1.564   0.499   1.977
 1038SOL     OW 4181   1.593   0.749   1.868
 1038SOL    HW2 4182   1.670   0.778   1.916
 1038SOL    HW3 4183   1.578   0.659   1.896
 1038SOL    MW4 4184   1.601   0.741   1.878
 1039SOL     OW 4185   1.373   0.914   1.988
 1039SOL    HW2 4186   1.351   0.900   2.080
 1039SOL    HW3 4187   1.445   0.855   1.970
 1039SOL    MW4 4188   1.379   0.905   1.998
 1040SOL     OW 4189   1.382   1.172   1.865
 1040SOL    HW2 4190   1.398   1.083   1.897
 1040SOL    HW3 4191   1.294   1.193   1.898
 1040SOL    MW4 4192   1.372   1.163   1.873
 1041SOL     OW 4193   1.606   1.292   1.963
 1041SOL    HW2 4194   1.606   1.380   1.926
 1041SOL    HW3 4195   1.524   1.253   1.932
 1041SOL    MW4 4196   1.595   1.298   1.954
 1042SOL     OW 4197   1.591   1.568   1.895
 1042SOL    HW2 4198   1.668   1.622   1.908
 1042SOL    HW3 4199   1.517   1.623   1.921
 1042SOL    MW4 4200   1.591   1.582   1.900
 1043SOL     OW 4201   1.351   1.693   1.957
 1043SOL    HW2 4202   1.343   1.679   2.052
 1043SOL    HW3 4203   1.288   1.632   1.919
 1043SOL    MW4 4204   1.341   1.683   1.965
 1044SOL     OW 4205   1.364   1.969   1.905
 1044SOL    HW2 4206   1.358   1.874   1.911
 1044SOL    HW3 4207   1.274   1.999   1.915
 1044SOL    MW4 4208   1.351   1.960   1.907
 1045SOL     OW 4209   1.567   2.117   2.001
 1045SOL    HW2 4210   1.549   2.205   1.969
 1045SOL    HW3 4211   1.497   2.063   1.964
 1045SOL    MW4 4212   1.556   2.121   1.992
 1046SOL     OW 4213   1.541   2.363   1.877
 1046SOL    HW2 4214   1.628   2.389   1.909
 1046SOL    HW3 4215   1.547   2.373   1.782
 1046SOL    MW4 4216   1.553   2.368   1.869
 1047SOL     OW 4217   1.327   2.451   1.992
 1047SOL    HW2 4218   1.330   2.544   1.967
 1047SOL    HW3 4219   1.407   2.414   1.957
 1047SOL    MW4 4220   1.338   2.459   1.984
 1048SOL     OW 4221   1.338   2.705   1.897
 1048SOL    HW2 4222   1.264   2.760   1.925
 1048SOL    HW3 4223   1.348   2.725   1.804
 1048SOL    MW4 4224   1.329   2.715   1.888
 1049SOL     OW 4225   1.591   2.836   1.987
 1049SOL    HW2 4226   1.672   2.806   1.945
 1049SOL    HW3 4227   1.523   2.781   1.948
 1049SOL    MW4 4228   1.593   2.825   1.976
 1050SOL     OW 4229   1.565   3.099   1.890
 1050SOL    HW2 4230   1.545   3.011   1.923
 1050SOL    HW3 4231   1.558   3.091   1.795
 1050SOL    MW4 4232   1.562   3.086   1.882
 1051SOL     OW 4233   1.344   3.223   2.023
 1051SOL    HW2 4234   1.424   3.175   2.005
 1051SOL    HW3 4235   1.277   3.179   1.972
 1051SOL    MW4 4236   1.346   3.211   2.014
 1052SOL     OW 4237   1.336   3.419   1.829
 1052SOL    HW2 4238   1.336   3.354   1.900
 1052SOL    HW3 4239   1.274   3.486   1.859
 1052SOL    MW4 4240   1.328   3.419   1.843
 1053SOL     OW 4241   1.536   3.570   1.964
 1053SOL    HW2 4242   1.524   3.575   2.059
 1053SOL    HW3 4243   1.464   3.513   1.934
 1053SOL    MW4 4244   1.525   3.563   1.973
 1054SOL     OW 4245   1.596   3.831   1.875
 1054SOL    HW2 4246   1.676   3.862   1.917
 1054SOL    HW3 4247   1.582   3.743   1.910
 1054SOL    MW4 4248   1.605   3.824   1.886
 1055SOL     OW 4249   1.402   3.994   1.985
 1055SOL    HW2 4250   1.467   3.929   1.957
 1055SOL    HW3 4251   1.317   3.951   1.969
 1055SOL    MW4 4252   1.399   3.979   1.979
 1056SOL     OW 4253   1.378   4.252   1.880
 1056SOL    HW2 4254   1.390   4.164   1.916
 1056SOL    HW3 4255   1.389   4.240   1.785
 1056SOL    MW4 4256   1.381   4.238   1.872
 1057SOL     OW 4257   1.613   4.375   1.987
 1057SOL    HW2 4258   1.593   4.380   2.081
 1057SOL    HW3 4259   1.531   4.346   1.947
 1057SOL    MW4 4260   1.599   4.372   1.994
 1058SOL     OW 4261   2.023   0.006   1.883
 1058SOL    HW2 4262   2.099   0.045   1.925
 1058SOL    HW3 4263   2.024  -0.086   1.910
 1058SOL    MW4 4264   2.033  -0.001   1.892
 1059SOL     OW 4265   1.806   0.139   2.002
 1059SOL    HW2 4266   1.813   0.099   2.088
 1059SOL    HW3 4267   1.873   0.095   1.950
 1059SOL    MW4 4268   1.816   0.128   2.006
 1060SOL     OW 4269   1.813   0.415   1.919
 1060SOL    HW2 4270   1.813   0.326   1.956
 1060SOL    HW3 4271   1.795   0.402   1.826
 1060SOL    MW4 4272   1.811   0.401   1.912
 1061SOL     OW 4273   2.032   0.551   2.032
 1061SOL    HW2 4274   2.052   0.639   1.999
 1061SOL    HW3 4275   1.952   0.526   1.985
 1061SOL    MW4 4276   2.024   0.560   2.021
 1062SOL     OW 4277   2.065   0.789   1.876
 1062SOL    HW2 4278   2.136   0.852   1.884
 1062SOL    HW3 4279   2.061   0.768   1.783
 1062SOL    MW4 4280   2.074   0.794   1.865
 1063SOL     OW 4281   1.821   0.860   2.012
 1063SOL    HW2 4282   1.796   0.943   1.971
 1063SOL    HW3 4283   1.901   0.834   1.966
 1063SOL    MW4 4284   1.828   0.868   2.000
 1064SOL     OW 4285   1.792   1.115   1.894
 1064SOL    HW2 4286   1.728   1.175   1.931
 1064SOL    HW3 4287   1.788   1.131   1.800
 1064SOL    MW4 4288   1.783   1.125   1.886
 1065SOL     OW 4289   2.002   1.284   1.967
 1065SOL    HW2 4290   2.078   1.250   1.920
 1065SOL    HW3 4291   1.931   1.223   1.946
 1065SOL    MW4 4292   2.002   1.271   1.958
 1066SOL     OW 4293   2.023   1.551   1.886
 1066SOL    HW2 4294   2.007   1.462   1.919
 1066SOL    HW3 4295   2.057   1.538   1.798
 1066SOL    MW4 4296   2.025   1.537   1.879
 1067SOL     OW 4297   1.821   1.728   1.962
 1067SOL    HW2 4298   1.826   1.817   1.927
 1067SOL    HW3 4299   1.903   1.687   1.936
 1067SOL    MW4 4300   1.832   1.734   1.954
 1068SOL     OW 4301   1.834   2.012   1.883
 1068SOL    HW2 4302   1.773   2.070   1.927
 1068SOL    HW3 4303   1.803   2.009   1.792
 1068SOL    MW4 4304   1.822   2.019   1.876
 1069SOL     OW 4305   2.082   2.069   1.997
 1069SOL    HW2 4306   2.152   2.035   1.942
 1069SOL    HW3 4307   2.001   2.035   1.958
 1069SOL    MW4 4308   2.080   2.060   1.985
 1070SOL     OW 4309   2.042   2.306   1.887
 1070SOL    HW2 4310   2.117   2.362   1.905
 1070SOL    HW3 4311   2.058   2.227   1.938
 1070SOL    MW4 4312   2.054   2.303   1.896
 1071SOL     OW 4313   1.798   2.427   1.925
 1071SOL    HW2 4314   1.805   2.436   2.020
 1071SOL    HW3 4315   1.879   2.383   1.899
 1071SOL    MW4 4316   1.810   2.422   1.934
 1072SOL     OW 4317   1.805   2.714   1.868
 1072SOL    HW2 4318   1.811   2.619   1.875
 1072SOL    HW3 4319   1.813   2.732   1.774
 1072SOL    MW4 4320   1.807   2.704   1.857
 1073SOL     OW 4321   2.037   2.837   2.001
 1073SOL    HW2 4322   2.026   2.830   2.096
 1073SOL    HW3 4323   1.961   2.792   1.964
 1073SOL    MW4 4324   2.026   2.830   2.009
 1074SOL     OW 4325   2.042   3.077   1.877
 1074SOL    HW2 4326   1.960   3.123   1.895
 1074SOL    HW3 4327   2.032   2.992   1.920
 1074SOL    MW4 4328   2.030   3.072   1.885
 1075SOL     OW 4329   1.793   3.200   1.978
 1075SOL    HW2 4330   1.790   3.185   2.072
 1075SOL    HW3 4331   1.706   3.174   1.947
 1075SOL    MW4 4332   1.781   3.195   1.986
 1076SOL     OW 4333   1.772   3.463   1.882
 1076SOL    HW2 4334   1.781   3.376   1.921
 1076SOL    HW3 4335   1.687   3.494   1.911
 1076SOL    MW4 4336   1.762   3.455   1.891
 1077SOL     OW 4337   1.999   3.582   1.974
 1077SOL    HW2 4338   2.001   3.666   1.929
 1077SOL    HW3 4339   1.919   3.540   1.943
 1077SOL    MW4 4340   1.989   3.587   1.964
 1078SOL     OW 4341   2.064   3.847   1.876
 1078SOL    HW2 4342   2.130   3.904   1.916
 1078SOL    HW3 4343   2.077   3.859   1.782
 1078SOL    MW4 4344   2.075   3.856   1.869
 1079SOL     OW 4345   1.820   3.967   1.956
 1079SOL    HW2 4346   1.802   4.052   1.915
 1079SOL    HW3 4347   1.914   3.955   1.945
 1079SOL    MW4 4348   1.830   3.977   1.949
 1080SOL     OW 4349   1.833   4.236   1.871
 1080SOL    HW2 4350   1.743   4.266   1.881
 1080SOL    HW3 4351   1.848   4.236   1.776
 1080SOL    MW4 4352   1.823   4.240   1.859
 1081SOL     OW 4353   2.018   4.414   1.958
 1081SOL    HW2 4354   2.096   4.369   1.926
 1081SOL    HW3 4355   1.945   4.359   1.928
 1081SOL    MW4 4356   2.018   4.401   1.950
 1082SOL     OW 4357   2.494   4.665   1.863
 1082SOL    HW2 4358   2.570   4.719   1.888
 1082SOL    HW3 4359   2.505   4.584   1.912
 1082SOL    MW4 4360   2.506   4.662   1.873
 1083SOL     OW 4361   2.270   0.131   1.951
 1083SOL    HW2 4362   2.274   0.126   2.046
 1083SOL    HW3 4363   2.346   0.080   1.921
 1083SOL    MW4 4364   2.280   0.123   1.960
 1084SOL     OW 4365   2.229   0.413   1.902
 1084SOL    HW2 4366   2.229   0.324   1.938
 1084SOL    HW3 4367   2.150   0.453   1.938
 1084SOL    MW4 4368   2.218   0.406   1.912
 1085SOL     OW 4369   2.452   0.530   1.996
 1085SOL    HW2 4370   2.523   0.482   1.955
 1085SOL    HW3 4371   2.372   0.489   1.963
 1085SOL    MW4 4372   2.451   0.518   1.986
 1086SOL     OW 4373   2.499   0.790   1.870
 1086SOL    HW2 4374   2.475   0.701   1.896
 1086SOL    HW3 4375   2.476   0.795   1.778
 1086SOL    MW4 4376   2.493   0.779   1.861
 1087SOL     OW 4377   2.290   0.933   1.961
 1087SOL    HW2 4378   2.281   0.914   2.055
 1087SOL    HW3 4379   2.368   0.884   1.934
 1087SOL    MW4 4380   2.299   0.924   1.970
 1088SOL     OW 4381   2.254   1.195   1.905
 1088SOL    HW2 4382   2.325   1.245   1.943
 1088SOL    HW3 4383   2.267   1.106   1.938
 1088SOL    MW4 4384   2.265   1.190   1.915
 1089SOL     OW 4385   2.496   1.344   1.993
 1089SOL    HW2 4386   2.506   1.341   2.088
 1089SOL    HW3 4387   2.481   1.436   1.973
 1089SOL    MW4 4388   2.495   1.356   2.003
 1090SOL     OW 4389   2.497   1.616   1.927
 1090SOL    HW2 4390   2.416   1.664   1.946
 1090SOL    HW3 4391   2.494   1.603   1.832
 1090SOL    MW4 4392   2.486   1.620   1.917
 1091SOL     OW 4393   2.234   1.726   1.999
 1091SOL    HW2 4394   2.227   1.720   2.095
 1091SOL    HW3 4395   2.163   1.671   1.967
 1091SOL    MW4 4396   2.224   1.718   2.007
 1092SOL     OW 4397   2.293   1.956   1.859
 1092SOL    HW2 4398   2.363   1.992   1.914
 1092SOL    HW3 4399   2.262   1.879   1.907
 1092SOL    MW4 4400   2.298   1.951   1.873
 1093SOL     OW 4401   2.520   2.080   2.001
 1093SOL    HW2 4402   2.584   2.021   1.962
 1093SOL    HW3 4403   2.538   2.165   1.961
 1093SOL    MW4 4404   2.530   2.084   1.990
 1094SOL     OW 4405   2.509   2.344   1.905
 1094SOL    HW2 4406   2.580   2.395   1.944
 1094SOL    HW3 4407   2.430   2.384   1.940
 1094SOL    MW4 4408   2.508   2.356   1.915
 1095SOL     OW 4409   2.262   2.444   1.983
 1095SOL    HW2 4410   2.274   2.457   2.077
 1095SOL    HW3 4411   2.264   2.532   1.946
 1095SOL    MW4 4412   2.264   2.457   1.990
 1096SOL     OW 4413   2.276   2.710   1.904
 1096SOL    HW2 4414   2.196   2.756   1.931
 1096SOL    HW3 4415   2.260   2.686   1.812
 1096SOL    MW4 4416   2.263   2.713   1.895
 1097SOL     OW 4417   2.495   2.863   1.973
 1097SOL    HW2 4418   2.485   2.951   1.937
 1097SOL    HW3 4419   2.410   2.821   1.957
 1097SOL    MW4 4420   2.482   2.869   1.966
 1098SOL     OW 4421   2.482   3.121   1.887
 1098SOL    HW2 4422   2.398   3.149   1.923
 1098SOL    HW3 4423   2.465   3.105   1.794
 1098SOL    MW4 4424   2.469   3.123   1.879
 1099SOL     OW 4425   2.253   3.217   2.011
 1099SOL    HW2 4426   2.262   3.194   2.103
 1099SOL    HW3 4427   2.173   3.172   1.983
 1099SOL    MW4 4428   2.243   3.208   2.019
 1100SOL     OW 4429   2.245   3.492   1.867
 1100SOL    HW2 4430   2.256   3.403   1.902
 1100SOL    HW3 4431   2.169   3.527   1.914
 1100SOL    MW4 4432   2.237   3.485   1.878
 1101SOL     OW 4433   2.461   3.645   1.928
 1101SOL    HW2 4434   2.480   3.633   2.022
 1101SOL    HW3 4435   2.377   3.601   1.915
 1101SOL    MW4 4436   2.452   3.637   1.939
 1102SOL     OW 4437   2.464   3.892   1.821
 1102SOL    HW2 4438   2.391   3.941   1.859
 1102SOL    HW3 4439   2.452   3.803   1.853
 1102SOL    MW4 4440   2.453   3.887   1.830
 1103SOL     OW 4441   2.259   4.006   1.977
 1103SOL    HW2 4442   2.268   4.007   2.072
 1103SOL    HW3 4443   2.248   4.099   1.953
 1103SOL    MW4 4444   2.259   4.019   1.987
 1104SOL     OW 4445   2.245   4.257   1.879
 1104SOL    HW2 4446   2.327   4.299   1.906
 1104SOL    HW3 4447   2.252   4.250   1.784
 1104SOL    MW4 4448   2.257   4.262   1.870
 1105SOL     OW 4449   2.487   4.405   1.981
 1105SOL    HW2 4450   2.485   4.428   2.073
 1105SOL    HW3 4451   2.572   4.362   1.969
 1105SOL    MW4 4452   2.498   4.402   1.991
 1106SOL     OW 4453   2.943   0.035   1.889
 1106SOL    HW2 4454   3.028   0.069   1.919
 1106SOL    HW3 4455   2.934  -0.049   1.934
 1106SOL    MW4 4456   2.953   0.029   1.899
 1107SOL     OW 4457   2.707   0.134   1.984
 1107SOL    HW2 4458   2.703   0.104   2.075
 1107SOL    HW3 4459   2.795   0.109   1.954
 1107SOL    MW4 4460   2.718   0.127   1.992
 1108SOL     OW 4461   2.677   0.406   1.891
 1108SOL    HW2 4462   2.751   0.459   1.921
 1108SOL    HW3 4463   2.693   0.320   1.929
 1108SOL    MW4 4464   2.689   0.402   1.900
 1109SOL     OW 4465   2.902   0.540   1.996
 1109SOL    HW2 4466   2.979   0.506   1.949
 1109SOL    HW3 4467   2.897   0.632   1.970
 1109SOL    MW4 4468   2.912   0.547   1.986
 1110SOL     OW 4469   2.904   0.774   1.877
 1110SOL    HW2 4470   2.980   0.824   1.907
 1110SOL    HW3 4471   2.829   0.816   1.919
 1110SOL    MW4 4472   2.904   0.786   1.886
 1111SOL     OW 4473   2.694   0.918   2.008
 1111SOL    HW2 4474   2.695   1.008   1.973
 1111SOL    HW3 4475   2.617   0.878   1.966
 1111SOL    MW4 4476   2.684   0.925   1.998
 1112SOL     OW 4477   2.693   1.166   1.895
 1112SOL    HW2 4478   2.617   1.222   1.910
 1112SOL    HW3 4479   2.713   1.177   1.802
 1112SOL    MW4 4480   2.686   1.175   1.884
 1113SOL     OW 4481   2.922   1.300   1.993
 1113SOL    HW2 4482   2.914   1.383   1.946
 1113SOL    HW3 4483   2.836   1.259   1.984
 1113SOL    MW4 4484   2.910   1.306   1.986
 1114SOL     OW 4485   2.923   1.543   1.851
 1114SOL    HW2 4486   2.997   1.591   1.889
 1114SOL    HW3 4487   2.944   1.537   1.757
 1114SOL    MW4 4488   2.935   1.549   1.843
 1115SOL     OW 4489   2.744   1.698   2.025
 1115SOL    HW2 4490   2.805   1.646   1.973
 1115SOL    HW3 4491   2.657   1.668   1.998
 1115SOL    MW4 4492   2.740   1.687   2.014
 1116SOL     OW 4493   2.718   1.933   1.871
 1116SOL    HW2 4494   2.792   1.984   1.905
 1116SOL    HW3 4495   2.728   1.847   1.911
 1116SOL    MW4 4496   2.729   1.929   1.881
 1117SOL     OW 4497   2.923   2.085   1.959
 1117SOL    HW2 4498   2.923   2.088   2.055
 1117SOL    HW3 4499   2.997   2.030   1.937
 1117SOL    MW4 4500   2.933   2.078   1.969
 1118SOL     OW 4501   2.920   2.348   1.859
 1118SOL    HW2 4502   2.991   2.400   1.895
 1118SOL    HW3 4503   2.926   2.264   1.905
 1118SOL    MW4 4504   2.930   2.344   1.870
 1119SOL     OW 4505   2.711   2.488   2.013
 1119SOL    HW2 4506   2.696   2.574   1.974
 1119SOL    HW3 4507   2.790   2.455   1.970
 1119SOL    MW4 4508   2.719   2.495   2.002
 1120SOL     OW 4509   2.708   2.726   1.885
 1120SOL    HW2 4510   2.630   2.776   1.913
 1120SOL    HW3 4511   2.707   2.732   1.789
 1120SOL    MW4 4512   2.698   2.734   1.876
 1121SOL     OW 4513   2.931   2.870   1.969
 1121SOL    HW2 4514   2.912   2.951   1.920
 1121SOL    HW3 4515   2.868   2.807   1.934
 1121SOL    MW4 4516   2.920   2.873   1.958
 1122SOL     OW 4517   2.932   3.149   1.863
 1122SOL    HW2 4518   3.004   3.193   1.908
 1122SOL    HW3 4519   2.853   3.182   1.905
 1122SOL    MW4 4520   2.931   3.159   1.874
 1123SOL     OW 4521   2.700   3.253   1.996
 1123SOL    HW2 4522   2.700   3.336   1.947
 1123SOL    HW3 4523   2.623   3.206   1.964
 1123SOL    MW4 4524   2.690   3.258   1.985
 1124SOL     OW 4525   2.708   3.489   1.837
 1124SOL    HW2 4526   2.766   3.557   1.871
 1124SOL    HW3 4527   2.620   3.524   1.850
 1124SOL    MW4 4528   2.704   3.503   1.843
 1125SOL     OW 4529   2.902   3.648   1.953
 1125SOL    HW2 4530   2.911   3.618   2.044
 1125SOL    HW3 4531   2.977   3.610   1.908
 1125SOL    MW4 4532   2.913   3.639   1.959
 1126SOL     OW 4533   2.886   3.920   1.894
 1126SOL    HW2 4534   2.905   3.829   1.919
 1126SOL    HW3 4535   2.877   3.916   1.799
 1126SOL    MW4 4536   2.887   3.907   1.885
 1127SOL     OW 4537   2.652   4.002   2.002
 1127SOL    HW2 4538   2.734   3.962   1.973
 1127SOL    HW3 4539   2.585   3.961   1.947
 1127SOL    MW4 4540   2.654   3.991   1.991
 1128SOL     OW 4541   2.699   4.256   1.897
 1128SOL    HW2 4542   2.693   4.166   1.929
 1128SOL    HW3 4543   2.670   4.251   1.806
 1128SOL    MW4 4544   2.694   4.243   1.889
 1129SOL     OW 4545   2.912   4.423   1.962
 1129SOL    HW2 4546   2.905   4.420   2.058
 1129SOL    HW3 4547   2.849   4.358   1.932
 1129SOL    MW4 4548   2.903   4.414   1.971
 1130SOL     OW 4549   3.360   4.621   1.904
 1130SOL    HW2 4550   3.359   4.535   1.945
 1130SOL    HW3 4551   3.357   4.602   1.810
 1130SOL    MW4 4552   3.359   4.607   1.897
 1131SOL     OW 4553   3.191   0.156   1.996
 1131SOL    HW2 4554   3.180   0.136   2.089
 1131SOL    HW3 4555   3.239   0.081   1.961
 1131SOL    MW4 4556   3.196   0.143   2.004
 1132SOL     OW 4557   3.134   0.411   1.900
 1132SOL    HW2 4558   3.153   0.322   1.931
 1132SOL    HW3 4559   3.135   0.404   1.805
 1132SOL    MW4 4560   3.136   0.398   1.892
 1133SOL     OW 4561   3.375   0.517   1.968
 1133SOL    HW2 4562   3.429   0.464   1.909
 1133SOL    HW3 4563   3.285   0.494   1.944
 1133SOL    MW4 4564   3.370   0.507   1.957
 1134SOL     OW 4565   3.356   0.784   1.854
 1134SOL    HW2 4566   3.274   0.825   1.881
 1134SOL    HW3 4567   3.355   0.698   1.896
 1134SOL    MW4 4568   3.345   0.778   1.863
 1135SOL     OW 4569   3.131   0.906   1.951
 1135SOL    HW2 4570   3.131   0.918   2.046
 1135SOL    HW3 4571   3.113   0.994   1.916
 1135SOL    MW4 4572   3.128   0.920   1.959
 1136SOL     OW 4573   3.106   1.161   1.847
 1136SOL    HW2 4574   3.183   1.206   1.882
 1136SOL    HW3 4575   3.032   1.203   1.890
 1136SOL    MW4 4576   3.106   1.173   1.857
 1137SOL     OW 4577   3.348   1.271   1.954
 1137SOL    HW2 4578   3.362   1.289   2.047
 1137SOL    HW3 4579   3.331   1.357   1.915
 1137SOL    MW4 4580   3.348   1.285   1.961
 1138SOL     OW 4581   3.388   1.538   1.840
 1138SOL    HW2 4582   3.467   1.577   1.878
 1138SOL    HW3 4583   3.316   1.580   1.887
 1138SOL    MW4 4584   3.389   1.549   1.851
 1139SOL     OW 4585   3.159   1.651   1.968
 1139SOL    HW2 4586   3.169   1.652   2.064
 1139SOL    HW3 4587   3.150   1.743   1.944
 1139SOL    MW4 4588   3.159   1.663   1.978
 1140SOL     OW 4589   3.134   1.910   1.878
 1140SOL    HW2 4590   3.215   1.948   1.911
 1140SOL    HW3 4591   3.134   1.931   1.784
 1140SOL    MW4 4592   3.144   1.918   1.870
 1141SOL     OW 4593   3.347   2.023   2.000
 1141SOL    HW2 4594   3.438   2.003   1.976
 1141SOL    HW3 4595   3.336   2.115   1.977
 1141SOL    MW4 4596   3.358   2.032   1.994
 1142SOL     OW 4597   3.368   2.304   1.877
 1142SOL    HW2 4598   3.302   2.371   1.897
 1142SOL    HW3 4599   3.377   2.308   1.781
 1142SOL    MW4 4600   3.361   2.314   1.867
 1143SOL     OW 4601   3.162   2.466   1.961
 1143SOL    HW2 4602   3.132   2.444   2.049
 1143SOL    HW3 4603   3.165   2.562   1.960
 1143SOL    MW4 4604   3.158   2.476   1.972
 1144SOL     OW 4605   3.171   2.730   1.923
 1144SOL    HW2 4606   3.092   2.779   1.946
 1144SOL    HW3 4607   3.154   2.699   1.834
 1144SOL    MW4 4608   3.158   2.732   1.914
 1145SOL     OW 4609   3.405   2.850   1.976
 1145SOL    HW2 4610   3.393   2.856   2.071
 1145SOL    HW3 4611   3.325   2.807   1.945
 1145SOL    MW4 4612   3.393   2.845   1.985
 1146SOL     OW 4613   3.351   3.115   1.883
 1146SOL    HW2 4614   3.429   3.163   1.911
 1146SOL    HW3 4615   3.368   3.025   1.912
 1146SOL    MW4 4616   3.364   3.109   1.891
 1147SOL     OW 4617   3.165   3.260   1.995
 1147SOL    HW2 4618   3.172   3.339   1.940
 1147SOL    HW3 4619   3.232   3.201   1.960
 1147SOL    MW4 4620   3.175   3.263   1.983
 1148SOL     OW 4621   3.157   3.515   1.881
 1148SOL    HW2 4622   3.211   3.593   1.897
 1148SOL    HW3 4623   3.147   3.512   1.786
 1148SOL    MW4 4624   3.163   3.525   1.871
 1149SOL     OW 4625   3.360   3.673   1.993
 1149SOL    HW2 4626   3.431   3.621   1.955
 1149SOL    HW3 4627   3.363   3.756   1.946
 1149SOL    MW4 4628   3.370   3.677   1.982
 1150SOL     OW 4629   3.388   3.916   1.874
 1150SOL    HW2 4630   3.305   3.951   1.906
 1150SOL    HW3 4631   3.385   3.930   1.779
 1150SOL    MW4 4632   3.377   3.923   1.865
 1151SOL     OW 4633   3.136   4.012   1.949
 1151SOL    HW2 4634   3.133   4.027   2.043
 1151SOL    HW3 4635   3.046   3.989   1.926
 1151SOL    MW4 4636   3.123   4.011   1.958
 1152SOL     OW 4637   3.168   4.284   1.866
 1152SOL    HW2 4638   3.157   4.194   1.897
 1152SOL    HW3 4639   3.093   4.331   1.904
 1152SOL    MW4 4640   3.157   4.278   1.875
 1153SOL     OW 4641   3.372   4.376   2.016
 1153SOL    HW2 4642   3.437   4.311   1.989
 1153SOL    HW3 4643   3.292   4.351   1.971
 1153SOL    MW4 4644   3.370   4.364   2.007
 1154SOL     OW 4645   3.783   4.624   1.851
 1154SOL    HW2 4646   3.793   4.540   1.895
 1154SOL    HW3 4647   3.718   4.671   1.904
 1154SOL    MW4 4648   3.776   4.619   1.864
 1155SOL     OW 4649   3.583   0.100   1.939
 1155SOL    HW2 4650   3.562   0.123   2.029
 1155SOL    HW3 4651   3.510   0.044   1.911
 1155SOL    MW4 4652   3.570   0.096   1.947
 1156SOL     OW 4653   3.537   0.357   1.828
 1156SOL    HW2 4654   3.564   0.270   1.859
 1156SOL    HW3 4655   3.561   0.357   1.735
 1156SOL    MW4 4656   3.544   0.345   1.820
 1157SOL     OW 4657   3.777   0.486   1.911
 1157SOL    HW2 4658   3.791   0.571   1.869
 1157SOL    HW3 4659   3.685   0.466   1.894
 1157SOL    MW4 4660   3.766   0.495   1.903
 1158SOL     OW 4661   3.786   0.756   1.846
 1158SOL    HW2 4662   3.714   0.808   1.883
 1158SOL    HW3 4663   3.786   0.778   1.753
 1158SOL    MW4 4664   3.776   0.766   1.839
 1159SOL     OW 4665   3.588   0.943   1.925
 1159SOL    HW2 4666   3.592   1.038   1.914
 1159SOL    HW3 4667   3.503   0.918   1.889
 1159SOL    MW4 4668   3.578   0.952   1.919
 1160SOL     OW 4669   3.594   1.208   1.883
 1160SOL    HW2 4670   3.508   1.246   1.905
 1160SOL    HW3 4671   3.587   1.184   1.790
 1160SOL    MW4 4672   3.582   1.210   1.873
 1161SOL     OW 4673   3.839   1.297   1.954
 1161SOL    HW2 4674   3.837   1.311   2.048
 1161SOL    HW3 4675   3.749   1.272   1.932
 1161SOL    MW4 4676   3.827   1.296   1.963
 1162SOL     OW 4677   3.808   1.561   1.882
 1162SOL    HW2 4678   3.879   1.599   1.932
 1162SOL    HW3 4679   3.813   1.467   1.899
 1162SOL    MW4 4680   3.818   1.554   1.891
 1163SOL     OW 4681   3.578   1.666   1.984
 1163SOL    HW2 4682   3.590   1.761   1.981
 1163SOL    HW3 4683   3.662   1.630   1.955
 1163SOL    MW4 4684   3.591   1.674   1.980
 1164SOL     OW 4685   3.603   1.935   1.907
 1164SOL    HW2 4686   3.666   1.985   1.959
 1164SOL    HW3 4687   3.631   1.949   1.817
 1164SOL    MW4 4688   3.615   1.944   1.902
 1165SOL     OW 4689   3.856   2.077   2.000
 1165SOL    HW2 4690   3.929   2.023   1.971
 1165SOL    HW3 4691   3.869   2.161   1.957
 1165SOL    MW4 4692   3.867   2.081   1.991
 1166SOL     OW 4693   3.867   2.319   1.856
 1166SOL    HW2 4694   3.931   2.387   1.878
 1166SOL    HW3 4695   3.790   2.341   1.908
 1166SOL    MW4 4696   3.865   2.331   1.866
 1167SOL     OW 4697   3.635   2.405   2.004
 1167SOL    HW2 4698   3.600   2.486   1.969
 1167SOL    HW3 4699   3.581   2.336   1.965
 1167SOL    MW4 4700   3.623   2.406   1.994
 1168SOL     OW 4701   3.570   2.653   1.881
 1168SOL    HW2 4702   3.648   2.704   1.898
 1168SOL    HW3 4703   3.499   2.700   1.925
 1168SOL    MW4 4704   3.571   2.666   1.889
 1169SOL     OW 4705   3.777   2.830   1.961
 1169SOL    HW2 4706   3.767   2.828   2.056
 1169SOL    HW3 4707   3.771   2.923   1.939
 1169SOL    MW4 4708   3.775   2.842   1.970
 1170SOL     OW 4709   3.800   3.093   1.869
 1170SOL    HW2 4710   3.728   3.154   1.884
 1170SOL    HW3 4711   3.805   3.083   1.774
 1170SOL    MW4 4712   3.791   3.099   1.858
 1171SOL     OW 4713   3.593   3.257   1.958
 1171SOL    HW2 4714   3.567   3.250   2.050
 1171SOL    HW3 4715   3.568   3.347   1.934
 1171SOL    MW4 4716   3.586   3.268   1.967
 1172SOL     OW 4717   3.571   3.524   1.894
 1172SOL    HW2 4718   3.661   3.542   1.918
 1172SOL    HW3 4719   3.575   3.504   1.800
 1172SOL    MW4 4720   3.583   3.524   1.885
 1173SOL     OW 4721   3.827   3.582   1.965
 1173SOL    HW2 4722   3.896   3.534   1.919
 1173SOL    HW3 4723   3.834   3.672   1.932
 1173SOL    MW4 4724   3.837   3.588   1.954
 1174SOL     OW 4725   3.830   3.832   1.863
 1174SOL    HW2 4726   3.757   3.883   1.900
 1174SOL    HW3 4727   3.809   3.825   1.770
 1174SOL    MW4 4728   3.817   3.838   1.856
 1175SOL     OW 4729   3.636   3.952   2.004
 1175SOL    HW2 4730   3.627   3.973   2.097
 1175SOL    HW3 4731   3.551   3.916   1.979
 1175SOL    MW4 4732   3.624   3.950   2.013
 1176SOL     OW 4733   3.563   4.216   1.911
 1176SOL    HW2 4734   3.632   4.276   1.939
 1176SOL    HW3 4735   3.582   4.135   1.958
 1176SOL    MW4 4736   3.575   4.213   1.921
 1177SOL     OW 4737   3.765   4.378   1.993
 1177SOL    HW2 4738   3.763   4.390   2.088
 1177SOL    HW3 4739   3.850   4.339   1.976
 1177SOL    MW4 4740   3.776   4.374   2.004
 1178SOL     OW 4741   4.274   4.623   1.877
 1178SOL    HW2 4742   4.194   4.662   1.911
 1178SOL    HW3 4743   4.344   4.673   1.917
 1178SOL    MW4 4744   4.273   4.634   1.886
 1179SOL     OW 4745   4.024   0.029   1.983
 1179SOL    HW2 4746   4.000   0.047   2.074
 1179SOL    HW3 4747   3.944  -0.006   1.943
 1179SOL    MW4 4748   4.011   0.027   1.990
 1180SOL     OW 4749   4.014   0.315   1.903
 1180SOL    HW2 4750   4.016   0.223   1.930
 1180SOL    HW3 4751   3.924   0.344   1.921
 1180SOL    MW4 4752   4.002   0.307   1.909
 1181SOL     OW 4753   4.252   0.474   1.963
 1181SOL    HW2 4754   4.240   0.484   2.057
 1181SOL    HW3 4755   4.174   0.427   1.934
 1181SOL    MW4 4756   4.240   0.469   1.971
 1182SOL     OW 4757   4.250   0.752   1.889
 1182SOL    HW2 4758   4.251   0.661   1.918
 1182SOL    HW3 4759   4.264   0.747   1.794
 1182SOL    MW4 4760   4.252   0.739   1.880
 1183SOL     OW 4761   4.008   0.853   1.985
 1183SOL    HW2 4762   4.079   0.818   1.932
 1183SOL    HW3 4763   3.928   0.826   1.939
 1183SOL    MW4 4764   4.007   0.845   1.972
 1184SOL     OW 4765   4.030   1.125   1.890
 1184SOL    HW2 4766   4.012   1.037   1.922
 1184SOL    HW3 4767   3.957   1.178   1.922
 1184SOL    MW4 4768   4.018   1.120   1.898
 1185SOL     OW 4769   4.259   1.250   1.992
 1185SOL    HW2 4770   4.256   1.236   2.087
 1185SOL    HW3 4771   4.183   1.202   1.958
 1185SOL    MW4 4772   4.248   1.242   2.000
 1186SOL     OW 4773   4.237   1.506   1.916
 1186SOL    HW2 4774   4.238   1.418   1.954
 1186SOL    HW3 4775   4.229   1.492   1.822
 1186SOL    MW4 4776   4.236   1.492   1.909
 1187SOL     OW 4777   4.019   1.663   2.012
 1187SOL    HW2 4778   4.003   1.667   2.106
 1187SOL    HW3 4779   4.099   1.611   2.003
 1187SOL    MW4 4780   4.027   1.657   2.023
 1188SOL     OW 4781   4.048   1.906   1.902
 1188SOL    HW2 4782   4.050   1.813   1.926
 1188SOL    HW3 4783   4.031   1.906   1.808
 1188SOL    MW4 4784   4.046   1.894   1.893
 1189SOL     OW 4785   4.279   2.015   1.971
 1189SOL    HW2 4786   4.271   2.034   2.064
 1189SOL    HW3 4787   4.196   1.974   1.948
 1189SOL    MW4 4788   4.267   2.012   1.980
 1190SOL     OW 4789   4.250   2.278   1.885
 1190SOL    HW2 4790   4.283   2.193   1.913
 1190SOL    HW3 4791   4.325   2.337   1.893
 1190SOL    MW4 4792   4.264   2.275   1.890
 1191SOL     OW 4793   4.060   2.485   1.954
 1191SOL    HW2 4794   4.038   2.458   2.043
 1191SOL    HW3 4795   4.124   2.421   1.924
 1191SOL    MW4 4796   4.066   2.473   1.962
 1192SOL     OW 4797   4.020   2.728   1.851
 1192SOL    HW2 4798   4.040   2.642   1.889
 1192SOL    HW3 4799   3.942   2.757   1.898
 1192SOL    MW4 4800   4.013   2.720   1.862
 1193SOL     OW 4801   4.276   2.803   1.940
 1193SOL    HW2 4802   4.273   2.809   2.035
 1193SOL    HW3 4803   4.184   2.795   1.913
 1193SOL    MW4 4804   4.264   2.803   1.949
 1194SOL     OW 4805   4.300   3.068   1.845
 1194SOL    HW2 4806   4.224   3.095   1.896
 1194SOL    HW3 4807   4.311   2.975   1.866
 1194SOL    MW4 4808   4.292   3.059   1.855
 1195SOL     OW 4809   4.057   3.172   1.947
 1195SOL    HW2 4810   4.041   3.178   2.042
 1195SOL    HW3 4811   3.971   3.150   1.911
 1195SOL    MW4 4812   4.043   3.170   1.955
 1196SOL     OW 4813   4.049   3.438   1.834
 1196SOL    HW2 4814   4.124   3.477   1.878
 1196SOL    HW3 4815   4.040   3.352   1.874
 1196SOL    MW4 4816   4.057   3.432   1.845
 1197SOL     OW 4817   4.245   3.601   1.951
 1197SOL    HW2 4818   4.235   3.694   1.932
 1197SOL    HW3 4819   4.334   3.580   1.925
 1197SOL    MW4 4820   4.255   3.611   1.945
 1198SOL     OW 4821   4.249   3.868   1.859
 1198SOL    HW2 4822   4.324   3.924   1.876
 1198SOL    HW3 4823   4.254   3.849   1.765
 1198SOL    MW4 4824   4.260   3.873   1.849
 1199SOL     OW 4825   4.024   3.987   1.978
 1199SOL    HW2 4826   4.104   3.958   1.934
 1199SOL    HW3 4827   3.955   3.936   1.936
 1199SOL    MW4 4828   4.026   3.976   1.967
 1200SOL     OW 4829   4.020   4.264   1.965
 1200SOL    HW2 4830   4.111   4.293   1.975
 1200SOL    HW3 4831   4.026   4.168   1.969
 1200SOL    MW4 4832   4.033   4.255   1.967
 1201SOL     OW 4833   4.291   4.344   1.986
 1201SOL    HW2 4834   4.276   4.351   2.080
 1201SOL    HW3 4835   4.307   4.433   1.956
 1201SOL    MW4 4836   4.291   4.356   1.994
 1202SOL     OW 4837   0.225   4.607   2.363
 1202SOL    HW2 4838   0.241   4.609   2.457
 1202SOL    HW3 4839   0.296   4.658   2.325
 1202SOL    MW4 4840   0.236   4.614   2.370
 1203SOL     OW 4841   4.475   0.120   2.260
 1203SOL    HW2 4842   4.541   0.071   2.309
 1203SOL    HW3 4843   4.492   0.097   2.169
 1203SOL    MW4 4844   4.486   0.110   2.255
 1204SOL     OW 4845   4.448   0.369   2.371
 1204SOL    HW2 4846   4.529   0.406   2.335
 1204SOL    HW3 4847   4.437   0.286   2.325
 1204SOL    MW4 4848   4.457   0.363   2.360
 1205SOL     OW 4849   0.214   0.461   2.260
 1205SOL    HW2 4850   0.302   0.436   2.288
 1205SOL    HW3 4851   0.220   0.469   2.165
 1205SOL    MW4 4852   0.226   0.459   2.251
 1206SOL     OW 4853   0.207   0.722   2.337
 1206SOL    HW2 4854   0.199   0.722   2.432
 1206SOL    HW3 4855   0.214   0.630   2.313
 1206SOL    MW4 4856   0.207   0.710   2.346
 1207SOL     OW 4857   4.454   0.855   2.269
 1207SOL    HW2 4858   4.541   0.819   2.285
 1207SOL    HW3 4859   4.452   0.872   2.175
 1207SOL    MW4 4860   4.465   0.853   2.259
 1208SOL     OW 4861   0.015   1.118   2.360
 1208SOL    HW2 4862   0.002   1.115   2.455
 1208SOL    HW3 4863   0.005   1.027   2.331
 1208SOL    MW4 4864   0.012   1.105   2.368
 1209SOL     OW 4865   0.234   1.218   2.231
 1209SOL    HW2 4866   0.159   1.177   2.273
 1209SOL    HW3 4867   0.212   1.218   2.137
 1209SOL    MW4 4868   0.221   1.213   2.224
 1210SOL     OW 4869   0.233   1.531   2.321
 1210SOL    HW2 4870   0.217   1.517   2.415
 1210SOL    HW3 4871   0.216   1.445   2.282
 1210SOL    MW4 4872   0.228   1.518   2.329
 1211SOL     OW 4873   0.004   1.652   2.219
 1211SOL    HW2 4874  -0.023   1.736   2.256
 1211SOL    HW3 4875   0.084   1.629   2.266
 1211SOL    MW4 4876   0.011   1.660   2.230
 1212SOL     OW 4877   4.461   1.885   2.364
 1212SOL    HW2 4878   4.398   1.943   2.321
 1212SOL    HW3 4879   4.546   1.912   2.329
 1212SOL    MW4 4880   4.464   1.896   2.354
 1213SOL     OW 4881   0.196   2.021   2.242
 1213SOL    HW2 4882   0.279   1.991   2.279
 1213SOL    HW3 4883   0.214   2.031   2.148
 1213SOL    MW4 4884   0.209   2.018   2.234
 1214SOL     OW 4885   0.184   2.280   2.332
 1214SOL    HW2 4886   0.203   2.280   2.425
 1214SOL    HW3 4887   0.170   2.188   2.310
 1214SOL    MW4 4888   0.185   2.268   2.341
 1215SOL     OW 4889   4.465   2.443   2.236
 1215SOL    HW2 4890   4.472   2.521   2.290
 1215SOL    HW3 4891   4.535   2.386   2.268
 1215SOL    MW4 4892   4.475   2.446   2.247
 1216SOL     OW 4893   0.007   2.663   2.382
 1216SOL    HW2 4894   0.014   2.670   2.478
 1216SOL    HW3 4895   0.074   2.723   2.349
 1216SOL    MW4 4896   0.017   2.671   2.390
 1217SOL     OW 4897   0.196   2.837   2.242
 1217SOL    HW2 4898   0.282   2.800   2.263
 1217SOL    HW3 4899   0.185   2.821   2.149
 1217SOL    MW4 4900   0.206   2.830   2.233
 1218SOL     OW 4901   0.169   3.096   2.314
 1218SOL    HW2 4902   0.089   3.119   2.266
 1218SOL    HW3 4903   0.180   3.002   2.300
 1218SOL    MW4 4904   0.160   3.087   2.306
 1219SOL     OW 4905   4.438   3.208   2.184
 1219SOL    HW2 4906   4.453   3.298   2.212
 1219SOL    HW3 4907   4.473   3.205   2.094
 1219SOL    MW4 4908   4.445   3.219   2.176
 1220SOL     OW 4909   0.006   3.453   2.323
 1220SOL    HW2 4910   0.016   3.456   2.418
 1220SOL    HW3 4911  -0.080   3.493   2.307
 1220SOL    MW4 4912  -0.005   3.458   2.333
 1221SOL     OW 4913   0.240   3.602   2.249
 1221SOL    HW2 4914   0.306   3.539   2.278
 1221SOL    HW3 4915   0.156   3.561   2.271
 1221SOL    MW4 4916   0.238   3.588   2.256
 1222SOL     OW 4917   0.210   3.858   2.356
 1222SOL    HW2 4918   0.126   3.890   2.323
 1222SOL    HW3 4919   0.213   3.766   2.329
 1222SOL    MW4 4920   0.199   3.850   2.348
 1223SOL     OW 4921   4.480   3.958   2.216
 1223SOL    HW2 4922   4.476   4.048   2.250
 1223SOL    HW3 4923   4.484   3.969   2.121
 1223SOL    MW4 4924   4.480   3.972   2.208
 1224SOL     OW 4925   4.473   4.219   2.356
 1224SOL    HW2 4926   4.481   4.235   2.450
 1224SOL    HW3 4927   4.541   4.274   2.316
 1224SOL    MW4 4928   4.483   4.228   2.363
 1225SOL     OW 4929   0.191   4.365   2.247
 1225SOL    HW2 4930   0.270   4.317   2.274
 1225SOL    HW3 4931   0.195   4.447   2.296
 1225SOL    MW4 4932   0.202   4.369   2.257
 1226SOL     OW 4933   0.683   4.639   2.369
 1226SOL    HW2 4934   0.670   4.656   2.462
 1226SOL    HW3 4935   0.752   4.700   2.343
 1226SOL    MW4 4936   0.691   4.649   2.377
 1227SOL     OW 4937   0.431   0.107   2.279
 1227SOL    HW2 4938   0.516   0.071   2.304
 1227SOL    HW3 4939   0.428   0.100   2.184
 1227SOL    MW4 4940   0.441   0.101   2.270
 1228SOL     OW 4941   0.452   0.376   2.380
 1228SOL    HW2 4942   0.440   0.386   2.474
 1228SOL    HW3 4943   0.440   0.282   2.364
 1228SOL    MW4 4944   0.448   0.365   2.390
 1229SOL     OW 4945   0.691   0.515   2.239
 1229SOL    HW2 4946   0.701   0.594   2.292
 1229SOL    HW3 4947   0.620   0.467   2.281
 1229SOL    MW4 4948   0.683   0.519   2.251
 1230SOL     OW 4949   0.709   0.754   2.355
 1230SOL    HW2 4950   0.717   0.767   2.450
 1230SOL    HW3 4951   0.617   0.771   2.336
 1230SOL    MW4 4952   0.698   0.758   2.365
 1231SOL     OW 4953   0.453   0.839   2.281
 1231SOL    HW2 4954   0.366   0.803   2.299
 1231SOL    HW3 4955   0.464   0.830   2.186
 1231SOL    MW4 4956   0.443   0.833   2.271
 1232SOL     OW 4957   0.486   1.110   2.287
 1232SOL    HW2 4958   0.491   1.014   2.293
 1232SOL    HW3 4959   0.397   1.127   2.255
 1232SOL    MW4 4960   0.475   1.099   2.283
 1233SOL     OW 4961   0.717   1.249   2.197
 1233SOL    HW2 4962   0.694   1.338   2.222
 1233SOL    HW3 4963   0.643   1.196   2.227
 1233SOL    MW4 4964   0.704   1.254   2.204
 1234SOL     OW 4965   0.670   1.502   2.301
 1234SOL    HW2 4966   0.673   1.496   2.396
 1234SOL    HW3 4967   0.747   1.553   2.278
 1234SOL    MW4 4968   0.681   1.508   2.310
 1235SOL     OW 4969   0.444   1.660   2.223
 1235SOL    HW2 4970   0.522   1.611   2.248
 1235SOL    HW3 4971   0.373   1.621   2.274
 1235SOL    MW4 4972   0.445   1.649   2.233
 1236SOL     OW 4973   0.448   1.912   2.340
 1236SOL    HW2 4974   0.522   1.961   2.302
 1236SOL    HW3 4975   0.457   1.824   2.304
 1236SOL    MW4 4976   0.459   1.907   2.330
 1237SOL     OW 4977   0.648   2.063   2.233
 1237SOL    HW2 4978   0.726   2.021   2.269
 1237SOL    HW3 4979   0.644   2.148   2.277
 1237SOL    MW4 4980   0.658   2.068   2.244
 1238SOL     OW 4981   0.631   2.306   2.357
 1238SOL    HW2 4982   0.652   2.278   2.446
 1238SOL    HW3 4983   0.714   2.341   2.323
 1238SOL    MW4 4984   0.645   2.307   2.364
 1239SOL     OW 4985   0.394   2.436   2.230
 1239SOL    HW2 4986   0.460   2.382   2.274
 1239SOL    HW3 4987   0.310   2.406   2.267
 1239SOL    MW4 4988   0.391   2.425   2.241
 1240SOL     OW 4989   0.436   2.717   2.294
 1240SOL    HW2 4990   0.438   2.701   2.389
 1240SOL    HW3 4991   0.432   2.630   2.255
 1240SOL    MW4 4992   0.436   2.704   2.301
 1241SOL     OW 4993   0.647   2.870   2.244
 1241SOL    HW2 4994   0.721   2.822   2.281
 1241SOL    HW3 4995   0.571   2.814   2.261
 1241SOL    MW4 4996   0.646   2.856   2.251
 1242SOL     OW 4997   0.646   3.120   2.348
 1242SOL    HW2 4998   0.562   3.143   2.308
 1242SOL    HW3 4999   0.665   3.032   2.315
 1242SOL    MW4 5000   0.637   3.111   2.338
 1243SOL     OW 5001   0.405   3.196   2.201
 1243SOL    HW2 5002   0.320   3.160   2.226
 1243SOL    HW3 5003   0.404   3.195   2.106
 1243SOL    MW4 5004   0.394   3.191   2.192
 1244SOL     OW 5005   0.447   3.441   2.333
 1244SOL    HW2 5006   0.525   3.483   2.297
 1244SOL    HW3 5007   0.442   3.357   2.287
 1244SOL    MW4 5008   0.457   3.436   2.322
 1245SOL     OW 5009   0.685   3.575   2.235
 1245SOL    HW2 5010   0.670   3.659   2.278
 1245SOL    HW3 5011   0.659   3.589   2.144
 1245SOL    MW4 5012   0.679   3.588   2.229
 1246SOL     OW 5013   0.653   3.815   2.360
 1246SOL    HW2 5014   0.654   3.825   2.455
 1246SOL    HW3 5015   0.577   3.865   2.331
 1246SOL    MW4 5016   0.643   3.823   2.369
 1247SOL     OW 5017   0.429   3.980   2.270
 1247SOL    HW2 5018   0.355   3.929   2.305
 1247SOL    HW3 5019   0.416   3.977   2.175
 1247SOL    MW4 5020   0.417   3.973   2.262
 1248SOL     OW 5021   0.425   4.242   2.355
 1248SOL    HW2 5022   0.506   4.282   2.323
 1248SOL    HW3 5023   0.431   4.151   2.328
 1248SOL    MW4 5024   0.437   4.236   2.347
 1249SOL     OW 5025   0.662   4.378   2.251
 1249SOL    HW2 5026   0.665   4.465   2.290
 1249SOL    HW3 5027   0.673   4.394   2.157
 1249SOL    MW4 5028   0.664   4.392   2.243
 1250SOL     OW 5029   1.099   4.617   2.340
 1250SOL    HW2 5030   1.074   4.617   2.432
 1250SOL    HW3 5031   1.035   4.673   2.297
 1250SOL    MW4 5032   1.087   4.624   2.346
 1251SOL     OW 5033   0.894   0.128   2.266
 1251SOL    HW2 5034   0.875   0.214   2.303
 1251SOL    HW3 5035   0.888   0.141   2.171
 1251SOL    MW4 5036   0.890   0.141   2.258
 1252SOL     OW 5037   0.879   0.384   2.377
 1252SOL    HW2 5038   0.963   0.428   2.365
 1252SOL    HW3 5039   0.818   0.433   2.323
 1252SOL    MW4 5040   0.882   0.396   2.369
 1253SOL     OW 5041   1.102   0.507   2.257
 1253SOL    HW2 5042   1.174   0.451   2.283
 1253SOL    HW3 5043   1.089   0.489   2.164
 1253SOL    MW4 5044   1.110   0.497   2.248
 1254SOL     OW 5045   1.109   0.776   2.344
 1254SOL    HW2 5046   1.026   0.822   2.335
 1254SOL    HW3 5047   1.097   0.694   2.296
 1254SOL    MW4 5048   1.097   0.772   2.337
 1255SOL     OW 5049   0.895   0.938   2.261
 1255SOL    HW2 5050   0.913   1.010   2.321
 1255SOL    HW3 5051   0.823   0.890   2.302
 1255SOL    MW4 5052   0.888   0.941   2.274
 1256SOL     OW 5053   0.901   1.186   2.381
 1256SOL    HW2 5054   0.981   1.227   2.347
 1256SOL    HW3 5055   0.834   1.208   2.317
 1256SOL    MW4 5056   0.903   1.195   2.368
 1257SOL     OW 5057   1.157   1.297   2.266
 1257SOL    HW2 5058   1.238   1.250   2.282
 1257SOL    HW3 5059   1.147   1.297   2.171
 1257SOL    MW4 5060   1.166   1.291   2.256
 1258SOL     OW 5061   1.141   1.536   2.405
 1258SOL    HW2 5062   1.066   1.565   2.352
 1258SOL    HW3 5063   1.172   1.457   2.361
 1258SOL    MW4 5064   1.135   1.530   2.392
 1259SOL     OW 5065   0.907   1.643   2.262
 1259SOL    HW2 5066   0.896   1.733   2.292
 1259SOL    HW3 5067   0.909   1.649   2.167
 1259SOL    MW4 5068   0.906   1.656   2.254
 1260SOL     OW 5069   0.868   1.901   2.333
 1260SOL    HW2 5070   0.866   1.913   2.428
 1260SOL    HW3 5071   0.942   1.955   2.304
 1260SOL    MW4 5072   0.878   1.910   2.341
 1261SOL     OW 5073   1.075   2.062   2.239
 1261SOL    HW2 5074   1.149   2.011   2.272
 1261SOL    HW3 5075   1.086   2.062   2.144
 1261SOL    MW4 5076   1.086   2.055   2.230
 1262SOL     OW 5077   1.069   2.297   2.374
 1262SOL    HW2 5078   1.155   2.328   2.345
 1262SOL    HW3 5079   1.060   2.212   2.332
 1262SOL    MW4 5080   1.080   2.290   2.365
 1263SOL     OW 5081   0.860   2.449   2.262
 1263SOL    HW2 5082   0.943   2.406   2.279
 1263SOL    HW3 5083   0.855   2.455   2.166
 1263SOL    MW4 5084   0.870   2.444   2.251
 1264SOL     OW 5085   0.857   2.705   2.364
 1264SOL    HW2 5086   0.856   2.706   2.460
 1264SOL    HW3 5087   0.863   2.612   2.341
 1264SOL    MW4 5088   0.858   2.693   2.374
 1265SOL     OW 5089   1.083   2.824   2.265
 1265SOL    HW2 5090   1.154   2.764   2.286
 1265SOL    HW3 5091   1.005   2.784   2.302
 1265SOL    MW4 5092   1.082   2.811   2.273
 1266SOL     OW 5093   1.106   3.073   2.373
 1266SOL    HW2 5094   1.030   3.114   2.330
 1266SOL    HW3 5095   1.102   2.982   2.345
 1266SOL    MW4 5096   1.095   3.066   2.363
 1267SOL     OW 5097   0.901   3.224   2.244
 1267SOL    HW2 5098   0.912   3.310   2.286
 1267SOL    HW3 5099   0.809   3.202   2.260
 1267SOL    MW4 5100   0.890   3.233   2.252
 1268SOL     OW 5101   0.931   3.498   2.352
 1268SOL    HW2 5102   0.919   3.490   2.447
 1268SOL    HW3 5103   0.844   3.521   2.319
 1268SOL    MW4 5104   0.918   3.500   2.360
 1269SOL     OW 5105   1.142   3.623   2.247
 1269SOL    HW2 5106   1.217   3.574   2.280
 1269SOL    HW3 5107   1.065   3.573   2.277
 1269SOL    MW4 5108   1.141   3.610   2.256
 1270SOL     OW 5109   1.130   3.869   2.358
 1270SOL    HW2 5110   1.212   3.917   2.341
 1270SOL    HW3 5111   1.142   3.786   2.312
 1270SOL    MW4 5112   1.143   3.865   2.350
 1271SOL     OW 5113   0.883   3.968   2.283
 1271SOL    HW2 5114   0.958   3.913   2.308
 1271SOL    HW3 5115   0.807   3.922   2.317
 1271SOL    MW4 5116   0.883   3.955   2.291
 1272SOL     OW 5117   0.874   4.236   2.361
 1272SOL    HW2 5118   0.872   4.148   2.322
 1272SOL    HW3 5119   0.800   4.281   2.320
 1272SOL    MW4 5120   0.864   4.230   2.350
 1273SOL     OW 5121   1.101   4.337   2.269
 1273SOL    HW2 5122   1.021   4.304   2.310
 1273SOL    HW3 5123   1.100   4.431   2.287
 1273SOL    MW4 5124   1.090   4.345   2.277
 1274SOL     OW 5125   1.539   4.646   2.369
 1274SOL    HW2 5126   1.620   4.680   2.331
 1274SOL    HW3 5127   1.470   4.670   2.307
 1274SOL    MW4 5128   1.541   4.654   2.356
 1275SOL     OW 5129   1.324   0.098   2.234
 1275SOL    HW2 5130   1.331   0.179   2.283
 1275SOL    HW3 5131   1.258   0.047   2.280
 1275SOL    MW4 5132   1.316   0.102   2.246
 1276SOL     OW 5133   1.322   0.364   2.325
 1276SOL    HW2 5134   1.316   0.372   2.420
 1276SOL    HW3 5135   1.409   0.397   2.303
 1276SOL    MW4 5136   1.332   0.369   2.335
 1277SOL     OW 5137   1.553   0.480   2.256
 1277SOL    HW2 5138   1.631   0.441   2.295
 1277SOL    HW3 5139   1.575   0.491   2.163
 1277SOL    MW4 5140   1.566   0.476   2.249
 1278SOL     OW 5141   1.569   0.713   2.405
 1278SOL    HW2 5142   1.649   0.757   2.376
 1278SOL    HW3 5143   1.564   0.634   2.351
 1278SOL    MW4 5144   1.579   0.708   2.394
 1279SOL     OW 5145   1.363   0.866   2.269
 1279SOL    HW2 5146   1.433   0.821   2.315
 1279SOL    HW3 5147   1.283   0.835   2.311
 1279SOL    MW4 5148   1.361   0.856   2.280
 1280SOL     OW 5149   1.391   1.153   2.324
 1280SOL    HW2 5150   1.379   1.150   2.419
 1280SOL    HW3 5151   1.397   1.061   2.298
 1280SOL    MW4 5152   1.390   1.140   2.333
 1281SOL     OW 5153   1.629   1.288   2.245
 1281SOL    HW2 5154   1.547   1.245   2.269
 1281SOL    HW3 5155   1.625   1.298   2.150
 1281SOL    MW4 5156   1.618   1.284   2.236
 1282SOL     OW 5157   1.549   1.558   2.329
 1282SOL    HW2 5158   1.620   1.617   2.305
 1282SOL    HW3 5159   1.577   1.472   2.296
 1282SOL    MW4 5160   1.562   1.554   2.322
 1283SOL     OW 5161   1.309   1.666   2.229
 1283SOL    HW2 5162   1.389   1.614   2.236
 1283SOL    HW3 5163   1.251   1.632   2.297
 1283SOL    MW4 5164   1.312   1.655   2.239
 1284SOL     OW 5165   1.292   1.919   2.341
 1284SOL    HW2 5166   1.367   1.969   2.311
 1284SOL    HW3 5167   1.309   1.830   2.312
 1284SOL    MW4 5168   1.304   1.914   2.334
 1285SOL     OW 5169   1.511   2.057   2.257
 1285SOL    HW2 5170   1.598   2.037   2.291
 1285SOL    HW3 5171   1.524   2.066   2.163
 1285SOL    MW4 5172   1.524   2.055   2.249
 1286SOL     OW 5173   1.583   2.325   2.337
 1286SOL    HW2 5174   1.600   2.326   2.431
 1286SOL    HW3 5175   1.574   2.233   2.314
 1286SOL    MW4 5176   1.584   2.313   2.346
 1287SOL     OW 5177   1.344   2.413   2.260
 1287SOL    HW2 5178   1.433   2.384   2.278
 1287SOL    HW3 5179   1.339   2.419   2.165
 1287SOL    MW4 5180   1.355   2.410   2.250
 1288SOL     OW 5181   1.306   2.674   2.344
 1288SOL    HW2 5182   1.389   2.700   2.302
 1288SOL    HW3 5183   1.311   2.579   2.349
 1288SOL    MW4 5184   1.318   2.665   2.339
 1289SOL     OW 5185   1.554   2.805   2.263
 1289SOL    HW2 5186   1.558   2.894   2.300
 1289SOL    HW3 5187   1.585   2.815   2.173
 1289SOL    MW4 5188   1.559   2.818   2.256
 1290SOL     OW 5189   1.564   3.073   2.373
 1290SOL    HW2 5190   1.573   3.103   2.463
 1290SOL    HW3 5191   1.482   3.113   2.342
 1290SOL    MW4 5192   1.554   3.083   2.380
 1291SOL     OW 5193   1.325   3.209   2.300
 1291SOL    HW2 5194   1.252   3.149   2.314
 1291SOL    HW3 5195   1.342   3.206   2.206
 1291SOL    MW4 5196   1.318   3.201   2.290
 1292SOL     OW 5197   1.334   3.465   2.366
 1292SOL    HW2 5198   1.347   3.473   2.460
 1292SOL    HW3 5199   1.322   3.371   2.351
 1292SOL    MW4 5200   1.334   3.454   2.376
 1293SOL     OW 5201   1.511   3.600   2.236
 1293SOL    HW2 5202   1.515   3.684   2.282
 1293SOL    HW3 5203   1.440   3.553   2.279
 1293SOL    MW4 5204   1.502   3.605   2.248
 1294SOL     OW 5205   1.589   3.853   2.343
 1294SOL    HW2 5206   1.581   3.852   2.439
 1294SOL    HW3 5207   1.647   3.926   2.325
 1294SOL    MW4 5208   1.595   3.862   2.353
 1295SOL     OW 5209   1.365   3.993   2.251
 1295SOL    HW2 5210   1.441   3.946   2.285
 1295SOL    HW3 5211   1.382   4.001   2.158
 1295SOL    MW4 5212   1.377   3.988   2.244
 1296SOL     OW 5213   1.346   4.250   2.340
 1296SOL    HW2 5214   1.359   4.160   2.312
 1296SOL    HW3 5215   1.256   4.270   2.316
 1296SOL    MW4 5216   1.336   4.241   2.333
 1297SOL     OW 5217   1.571   4.388   2.250
 1297SOL    HW2 5218   1.491   4.342   2.273
 1297SOL    HW3 5219   1.565   4.472   2.296
 1297SOL    MW4 5220   1.560   4.393   2.259
 1298SOL     OW 5221   2.036   4.623   2.331
 1298SOL    HW2 5222   2.107   4.669   2.287
 1298SOL    HW3 5223   2.047   4.531   2.307
 1298SOL    MW4 5224   2.047   4.617   2.322
 1299SOL     OW 5225   1.787   0.078   2.273
 1299SOL    HW2 5226   1.791   0.172   2.290
 1299SOL    HW3 5227   1.873   0.045   2.298
 1299SOL    MW4 5228   1.799   0.086   2.279
 1300SOL     OW 5229   1.801   0.368   2.346
 1300SOL    HW2 5230   1.793   0.361   2.441
 1300SOL    HW3 5231   1.886   0.410   2.332
 1300SOL    MW4 5232   1.811   0.373   2.357
 1301SOL     OW 5233   2.042   0.522   2.301
 1301SOL    HW2 5234   2.057   0.614   2.322
 1301SOL    HW3 5235   2.035   0.521   2.205
 1301SOL    MW4 5236   2.043   0.534   2.291
 1302SOL     OW 5237   2.035   0.788   2.391
 1302SOL    HW2 5238   2.098   0.837   2.339
 1302SOL    HW3 5239   1.950   0.813   2.354
 1302SOL    MW4 5240   2.032   0.798   2.379
 1303SOL     OW 5241   1.781   0.879   2.284
 1303SOL    HW2 5242   1.795   0.972   2.304
 1303SOL    HW3 5243   1.798   0.872   2.190
 1303SOL    MW4 5244   1.785   0.891   2.275
 1304SOL     OW 5245   1.831   1.128   2.351
 1304SOL    HW2 5246   1.909   1.166   2.312
 1304SOL    HW3 5247   1.761   1.191   2.334
 1304SOL    MW4 5248   1.832   1.141   2.344
 1305SOL     OW 5249   2.022   1.308   2.244
 1305SOL    HW2 5250   2.006   1.398   2.269
 1305SOL    HW3 5251   2.027   1.310   2.149
 1305SOL    MW4 5252   2.021   1.320   2.235
 1306SOL     OW 5253   1.973   1.571   2.304
 1306SOL    HW2 5254   1.970   1.548   2.397
 1306SOL    HW3 5255   1.887   1.608   2.286
 1306SOL    MW4 5256   1.961   1.573   2.314
 1307SOL     OW 5257   1.759   1.720   2.243
 1307SOL    HW2 5258   1.791   1.802   2.281
 1307SOL    HW3 5259   1.785   1.725   2.151
 1307SOL    MW4 5260   1.767   1.732   2.235
 1308SOL     OW 5261   1.776   1.988   2.359
 1308SOL    HW2 5262   1.786   1.958   2.450
 1308SOL    HW3 5263   1.866   2.003   2.330
 1308SOL    MW4 5264   1.790   1.986   2.367
 1309SOL     OW 5265   2.056   2.017   2.277
 1309SOL    HW2 5266   2.146   1.994   2.302
 1309SOL    HW3 5267   2.062   2.039   2.184
 1309SOL    MW4 5268   2.069   2.017   2.268
 1310SOL     OW 5269   2.007   2.294   2.340
 1310SOL    HW2 5270   2.085   2.335   2.302
 1310SOL    HW3 5271   2.023   2.200   2.334
 1310SOL    MW4 5272   2.019   2.287   2.334
 1311SOL     OW 5273   1.812   2.430   2.223
 1311SOL    HW2 5274   1.872   2.381   2.279
 1311SOL    HW3 5275   1.726   2.390   2.238
 1311SOL    MW4 5276   1.809   2.419   2.232
 1312SOL     OW 5277   1.777   2.692   2.362
 1312SOL    HW2 5278   1.792   2.610   2.315
 1312SOL    HW3 5279   1.693   2.724   2.328
 1312SOL    MW4 5280   1.768   2.686   2.351
 1313SOL     OW 5281   2.007   2.793   2.269
 1313SOL    HW2 5282   2.079   2.735   2.295
 1313SOL    HW3 5283   1.929   2.753   2.308
 1313SOL    MW4 5284   2.006   2.780   2.278
 1314SOL     OW 5285   1.999   3.051   2.332
 1314SOL    HW2 5286   2.081   3.094   2.307
 1314SOL    HW3 5287   2.014   2.958   2.312
 1314SOL    MW4 5288   2.012   3.044   2.326
 1315SOL     OW 5289   1.773   3.225   2.266
 1315SOL    HW2 5290   1.846   3.181   2.309
 1315SOL    HW3 5291   1.695   3.181   2.300
 1315SOL    MW4 5292   1.772   3.213   2.276
 1316SOL     OW 5293   1.749   3.501   2.335
 1316SOL    HW2 5294   1.744   3.409   2.310
 1316SOL    HW3 5295   1.662   3.536   2.316
 1316SOL    MW4 5296   1.737   3.493   2.329
 1317SOL     OW 5297   2.015   3.644   2.230
 1317SOL    HW2 5298   1.949   3.586   2.269
 1317SOL    HW3 5299   2.020   3.617   2.139
 1317SOL    MW4 5300   2.007   3.633   2.223
 1318SOL     OW 5301   2.026   3.925   2.328
 1318SOL    HW2 5302   2.016   3.922   2.423
 1318SOL    HW3 5303   2.028   3.833   2.302
 1318SOL    MW4 5304   2.025   3.913   2.337
 1319SOL     OW 5305   1.793   4.032   2.231
 1319SOL    HW2 5306   1.877   4.002   2.264
 1319SOL    HW3 5307   1.796   4.017   2.137
 1319SOL    MW4 5308   1.804   4.026   2.223
 1320SOL     OW 5309   1.813   4.279   2.348
 1320SOL    HW2 5310   1.828   4.190   2.316
 1320SOL    HW3 5311   1.723   4.298   2.321
 1320SOL    MW4 5312   1.803   4.270   2.340
 1321SOL     OW 5313   2.065   4.338   2.215
 1321SOL    HW2 5314   1.979   4.322   2.255
 1321SOL    HW3 5315   2.044   4.373   2.128
 1321SOL    MW4 5316   2.051   4.341   2.208
 1322SOL     OW 5317   2.486   0.004   2.363
 1322SOL    HW2 5318   2.574   0.035   2.340
 1322SOL    HW3 5319   2.483  -0.086   2.331
 1322SOL    MW4 5320   2.497  -0.004   2.355
 1323SOL     OW 5321   2.259   0.103   2.219
 1323SOL    HW2 5322   2.260   0.191   2.257
 1323SOL    HW3 5323   2.336   0.060   2.255
 1323SOL    MW4 5324   2.269   0.109   2.229
 1324SOL     OW 5325   2.264   0.347   2.354
 1324SOL    HW2 5326   2.335   0.410   2.341
 1324SOL    HW3 5327   2.187   0.392   2.318
 1324SOL    MW4 5328   2.263   0.362   2.347
 1325SOL     OW 5329   2.470   0.511   2.279
 1325SOL    HW2 5330   2.541   0.449   2.295
 1325SOL    HW3 5331   2.456   0.509   2.185
 1325SOL    MW4 5332   2.478   0.503   2.269
 1326SOL     OW 5333   2.456   0.773   2.416
 1326SOL    HW2 5334   2.537   0.813   2.383
 1326SOL    HW3 5335   2.462   0.681   2.393
 1326SOL    MW4 5336   2.467   0.766   2.409
 1327SOL     OW 5337   2.256   0.925   2.266
 1327SOL    HW2 5338   2.250   1.007   2.315
 1327SOL    HW3 5339   2.318   0.872   2.317
 1327SOL    MW4 5340   2.264   0.928   2.280
 1328SOL     OW 5341   2.235   1.188   2.364
 1328SOL    HW2 5342   2.312   1.227   2.322
 1328SOL    HW3 5343   2.160   1.223   2.315
 1328SOL    MW4 5344   2.235   1.198   2.352
 1329SOL     OW 5345   2.472   1.315   2.262
 1329SOL    HW2 5346   2.537   1.266   2.313
 1329SOL    HW3 5347   2.471   1.402   2.302
 1329SOL    MW4 5348   2.481   1.320   2.274
 1330SOL     OW 5349   2.466   1.538   2.409
 1330SOL    HW2 5350   2.470   1.560   2.502
 1330SOL    HW3 5351   2.549   1.570   2.373
 1330SOL    MW4 5352   2.477   1.545   2.417
 1331SOL     OW 5353   2.249   1.666   2.266
 1331SOL    HW2 5354   2.311   1.610   2.312
 1331SOL    HW3 5355   2.163   1.628   2.285
 1331SOL    MW4 5356   2.246   1.653   2.275
 1332SOL     OW 5357   2.288   1.914   2.379
 1332SOL    HW2 5358   2.364   1.960   2.345
 1332SOL    HW3 5359   2.287   1.830   2.332
 1332SOL    MW4 5360   2.298   1.909   2.368
 1333SOL     OW 5361   2.503   2.061   2.275
 1333SOL    HW2 5362   2.578   2.005   2.291
 1333SOL    HW3 5363   2.506   2.080   2.181
 1333SOL    MW4 5364   2.513   2.056   2.265
 1334SOL     OW 5365   2.444   2.328   2.413
 1334SOL    HW2 5366   2.511   2.389   2.381
 1334SOL    HW3 5367   2.473   2.243   2.380
 1334SOL    MW4 5368   2.457   2.325   2.404
 1335SOL     OW 5369   2.237   2.420   2.265
 1335SOL    HW2 5370   2.235   2.513   2.284
 1335SOL    HW3 5371   2.306   2.385   2.322
 1335SOL    MW4 5372   2.246   2.427   2.275
 1336SOL     OW 5373   2.226   2.684   2.366
 1336SOL    HW2 5374   2.219   2.709   2.458
 1336SOL    HW3 5375   2.281   2.752   2.327
 1336SOL    MW4 5376   2.232   2.697   2.373
 1337SOL     OW 5377   2.411   2.860   2.233
 1337SOL    HW2 5378   2.477   2.811   2.282
 1337SOL    HW3 5379   2.442   2.859   2.143
 1337SOL    MW4 5380   2.423   2.853   2.228
 1338SOL     OW 5381   2.501   3.097   2.390
 1338SOL    HW2 5382   2.562   3.156   2.345
 1338SOL    HW3 5383   2.471   3.037   2.321
 1338SOL    MW4 5384   2.505   3.097   2.375
 1339SOL     OW 5385   2.251   3.191   2.293
 1339SOL    HW2 5386   2.232   3.284   2.309
 1339SOL    HW3 5387   2.323   3.171   2.353
 1339SOL    MW4 5388   2.258   3.201   2.303
 1340SOL     OW 5389   2.242   3.491   2.335
 1340SOL    HW2 5390   2.229   3.495   2.429
 1340SOL    HW3 5391   2.178   3.552   2.299
 1340SOL    MW4 5392   2.232   3.500   2.342
 1341SOL     OW 5393   2.472   3.605   2.217
 1341SOL    HW2 5394   2.452   3.684   2.268
 1341SOL    HW3 5395   2.415   3.538   2.254
 1341SOL    MW4 5396   2.462   3.607   2.229
 1342SOL     OW 5397   2.446   3.838   2.363
 1342SOL    HW2 5398   2.452   3.841   2.458
 1342SOL    HW3 5399   2.370   3.892   2.342
 1342SOL    MW4 5400   2.437   3.846   2.373
 1343SOL     OW 5401   2.268   4.020   2.252
 1343SOL    HW2 5402   2.268   4.109   2.285
 1343SOL    HW3 5403   2.181   3.986   2.274
 1343SOL    MW4 5404   2.256   4.027   2.259
 1344SOL     OW 5405   2.292   4.273   2.356
 1344SOL    HW2 5406   2.263   4.271   2.447
 1344SOL    HW3 5407   2.211   4.286   2.305
 1344SOL    MW4 5408   2.277   4.274   2.361
 1345SOL     OW 5409   2.492   4.441   2.241
 1345SOL    HW2 5410   2.581   4.413   2.264
 1345SOL    HW3 5411   2.435   4.377   2.285
 1345SOL    MW4 5412   2.497   4.429   2.250
 1346SOL     OW 5413   2.953   4.638   2.386
 1346SOL    HW2 5414   3.015   4.693   2.338
 1346SOL    HW3 5415   2.947   4.558   2.334
 1346SOL    MW4 5416   2.961   4.635   2.373
 1347SOL     OW 5417   2.723   0.078   2.265
 1347SOL    HW2 5418   2.721   0.169   2.294
 1347SOL    HW3 5419   2.800   0.040   2.308
 1347SOL    MW4 5420   2.733   0.085   2.275
 1348SOL     OW 5421   2.693   0.341   2.361
 1348SOL    HW2 5422   2.680   0.362   2.454
 1348SOL    HW3 5423   2.765   0.397   2.334
 1348SOL    MW4 5424   2.701   0.352   2.370
 1349SOL     OW 5425   2.906   0.510   2.284
 1349SOL    HW2 5426   2.900   0.595   2.328
 1349SOL    HW3 5427   2.906   0.532   2.191
 1349SOL    MW4 5428   2.905   0.524   2.278
 1350SOL     OW 5429   2.900   0.768   2.381
 1350SOL    HW2 5430   2.890   0.774   2.476
 1350SOL    HW3 5431   2.820   0.807   2.346
 1350SOL    MW4 5432   2.888   0.774   2.389
 1351SOL     OW 5433   2.661   0.896   2.283
 1351SOL    HW2 5434   2.672   0.988   2.308
 1351SOL    HW3 5435   2.625   0.900   2.194
 1351SOL    MW4 5436   2.658   0.909   2.274
 1352SOL     OW 5437   2.668   1.157   2.369
 1352SOL    HW2 5438   2.661   1.143   2.464
 1352SOL    HW3 5439   2.751   1.204   2.358
 1352SOL    MW4 5440   2.678   1.161   2.380
 1353SOL     OW 5441   2.891   1.289   2.270
 1353SOL    HW2 5442   2.965   1.250   2.318
 1353SOL    HW3 5443   2.916   1.283   2.178
 1353SOL    MW4 5444   2.904   1.283   2.264
 1354SOL     OW 5445   2.954   1.538   2.359
 1354SOL    HW2 5446   2.942   1.510   2.449
 1354SOL    HW3 5447   2.936   1.460   2.306
 1354SOL    MW4 5448   2.950   1.524   2.364
 1355SOL     OW 5449   2.686   1.629   2.295
 1355SOL    HW2 5450   2.766   1.609   2.342
 1355SOL    HW3 5451   2.713   1.637   2.203
 1355SOL    MW4 5452   2.700   1.627   2.289
 1356SOL     OW 5453   2.717   1.903   2.328
 1356SOL    HW2 5454   2.724   1.907   2.424
 1356SOL    HW3 5455   2.712   1.810   2.308
 1356SOL    MW4 5456   2.717   1.891   2.338
 1357SOL     OW 5457   2.930   2.056   2.254
 1357SOL    HW2 5458   3.006   2.022   2.300
 1357SOL    HW3 5459   2.861   1.991   2.269
 1357SOL    MW4 5460   2.931   2.043   2.262
 1358SOL     OW 5461   2.874   2.313   2.356
 1358SOL    HW2 5462   2.890   2.303   2.450
 1358SOL    HW3 5463   2.868   2.223   2.324
 1358SOL    MW4 5464   2.876   2.300   2.364
 1359SOL     OW 5465   2.646   2.464   2.276
 1359SOL    HW2 5466   2.722   2.413   2.304
 1359SOL    HW3 5467   2.661   2.480   2.182
 1359SOL    MW4 5468   2.658   2.460   2.267
 1360SOL     OW 5469   2.645   2.734   2.339
 1360SOL    HW2 5470   2.727   2.766   2.301
 1360SOL    HW3 5471   2.642   2.642   2.312
 1360SOL    MW4 5472   2.656   2.726   2.330
 1361SOL     OW 5473   2.903   2.844   2.261
 1361SOL    HW2 5474   2.882   2.935   2.282
 1361SOL    HW3 5475   2.917   2.843   2.166
 1361SOL    MW4 5476   2.902   2.856   2.251
 1362SOL     OW 5477   2.872   3.098   2.358
 1362SOL    HW2 5478   2.956   3.134   2.332
 1362SOL    HW3 5479   2.807   3.158   2.320
 1362SOL    MW4 5480   2.875   3.111   2.350
 1363SOL     OW 5481   2.656   3.272   2.269
 1363SOL    HW2 5482   2.665   3.366   2.283
 1363SOL    HW3 5483   2.660   3.262   2.174
 1363SOL    MW4 5484   2.658   3.283   2.259
 1364SOL     OW 5485   2.691   3.542   2.370
 1364SOL    HW2 5486   2.776   3.557   2.329
 1364SOL    HW3 5487   2.628   3.578   2.308
 1364SOL    MW4 5488   2.694   3.549   2.357
 1365SOL     OW 5489   2.921   3.604   2.226
 1365SOL    HW2 5490   2.994   3.556   2.266
 1365SOL    HW3 5491   2.935   3.695   2.251
 1365SOL    MW4 5492   2.933   3.609   2.235
 1366SOL     OW 5493   2.897   3.894   2.357
 1366SOL    HW2 5494   2.904   3.876   2.451
 1366SOL    HW3 5495   2.807   3.923   2.345
 1366SOL    MW4 5496   2.886   3.895   2.368
 1367SOL     OW 5497   2.659   4.016   2.282
 1367SOL    HW2 5498   2.583   3.968   2.316
 1367SOL    HW3 5499   2.649   4.012   2.187
 1367SOL    MW4 5500   2.647   4.009   2.274
 1368SOL     OW 5501   2.708   4.293   2.319
 1368SOL    HW2 5502   2.696   4.308   2.413
 1368SOL    HW3 5503   2.696   4.199   2.309
 1368SOL    MW4 5504   2.705   4.283   2.330
 1369SOL     OW 5505   2.933   4.426   2.227
 1369SOL    HW2 5506   3.004   4.378   2.269
 1369SOL    HW3 5507   2.854   4.377   2.249
 1369SOL    MW4 5508   2.932   4.413   2.235
 1370SOL     OW 5509   3.373   4.645   2.375
 1370SOL    HW2 5510   3.406   4.653   2.465
 1370SOL    HW3 5511   3.440   4.689   2.322
 1370SOL    MW4 5512   3.386   4.652   2.380
 1371SOL     OW 5513   3.152   0.112   2.272
 1371SOL    HW2 5514   3.144   0.200   2.309
 1371SOL    HW3 5515   3.220   0.070   2.325
 1371SOL    MW4 5516   3.160   0.118   2.284
 1372SOL     OW 5517   3.125   0.367   2.352
 1372SOL    HW2 5518   3.208   0.408   2.328
 1372SOL    HW3 5519   3.059   0.423   2.311
 1372SOL    MW4 5520   3.127   0.380   2.343
 1373SOL     OW 5521   3.341   0.505   2.237
 1373SOL    HW2 5522   3.420   0.466   2.274
 1373SOL    HW3 5523   3.363   0.519   2.144
 1373SOL    MW4 5524   3.354   0.502   2.229
 1374SOL     OW 5525   3.346   0.766   2.351
 1374SOL    HW2 5526   3.415   0.822   2.315
 1374SOL    HW3 5527   3.363   0.679   2.315
 1374SOL    MW4 5528   3.357   0.762   2.341
 1375SOL     OW 5529   3.118   0.905   2.242
 1375SOL    HW2 5530   3.199   0.870   2.281
 1375SOL    HW3 5531   3.048   0.853   2.282
 1375SOL    MW4 5532   3.120   0.893   2.253
 1376SOL     OW 5533   3.148   1.179   2.345
 1376SOL    HW2 5534   3.233   1.211   2.316
 1376SOL    HW3 5535   3.140   1.092   2.304
 1376SOL    MW4 5536   3.158   1.171   2.336
 1377SOL     OW 5537   3.366   1.306   2.243
 1377SOL    HW2 5538   3.435   1.252   2.280
 1377SOL    HW3 5539   3.384   1.394   2.276
 1377SOL    MW4 5540   3.377   1.310   2.252
 1378SOL     OW 5541   3.399   1.556   2.333
 1378SOL    HW2 5542   3.385   1.560   2.427
 1378SOL    HW3 5543   3.323   1.601   2.296
 1378SOL    MW4 5544   3.387   1.563   2.340
 1379SOL     OW 5545   3.160   1.682   2.246
 1379SOL    HW2 5546   3.137   1.770   2.278
 1379SOL    HW3 5547   3.098   1.624   2.291
 1379SOL    MW4 5548   3.149   1.686   2.256
 1380SOL     OW 5549   3.124   1.919   2.379
 1380SOL    HW2 5550   3.118   1.895   2.471
 1380SOL    HW3 5551   3.206   1.968   2.371
 1380SOL    MW4 5552   3.134   1.923   2.390
 1381SOL     OW 5553   3.349   2.064   2.276
 1381SOL    HW2 5554   3.434   2.030   2.305
 1381SOL    HW3 5555   3.346   2.044   2.183
 1381SOL    MW4 5556   3.360   2.057   2.268
 1382SOL     OW 5557   3.313   2.299   2.392
 1382SOL    HW2 5558   3.231   2.340   2.363
 1382SOL    HW3 5559   3.312   2.213   2.350
 1382SOL    MW4 5560   3.302   2.293   2.383
 1383SOL     OW 5561   3.105   2.438   2.242
 1383SOL    HW2 5562   3.114   2.527   2.277
 1383SOL    HW3 5563   3.029   2.402   2.289
 1383SOL    MW4 5564   3.096   2.445   2.253
 1384SOL     OW 5565   3.144   2.683   2.361
 1384SOL    HW2 5566   3.132   2.687   2.456
 1384SOL    HW3 5567   3.075   2.739   2.326
 1384SOL    MW4 5568   3.133   2.691   2.369
 1385SOL     OW 5569   3.342   2.842   2.237
 1385SOL    HW2 5570   3.323   2.923   2.284
 1385SOL    HW3 5571   3.268   2.785   2.257
 1385SOL    MW4 5572   3.330   2.845   2.246
 1386SOL     OW 5573   3.323   3.096   2.331
 1386SOL    HW2 5574   3.400   3.150   2.310
 1386SOL    HW3 5575   3.251   3.139   2.284
 1386SOL    MW4 5576   3.324   3.109   2.322
 1387SOL     OW 5577   3.095   3.226   2.257
 1387SOL    HW2 5578   3.108   3.307   2.307
 1387SOL    HW3 5579   3.123   3.248   2.168
 1387SOL    MW4 5580   3.101   3.240   2.252
 1388SOL     OW 5581   3.133   3.483   2.353
 1388SOL    HW2 5582   3.154   3.491   2.446
 1388SOL    HW3 5583   3.200   3.535   2.309
 1388SOL    MW4 5584   3.144   3.491   2.360
 1389SOL     OW 5585   3.335   3.637   2.255
 1389SOL    HW2 5586   3.418   3.598   2.284
 1389SOL    HW3 5587   3.347   3.651   2.161
 1389SOL    MW4 5588   3.348   3.634   2.246
 1390SOL     OW 5589   3.335   3.899   2.316
 1390SOL    HW2 5590   3.423   3.934   2.300
 1390SOL    HW3 5591   3.338   3.811   2.278
 1390SOL    MW4 5592   3.347   3.892   2.309
 1391SOL     OW 5593   3.117   4.037   2.226
 1391SOL    HW2 5594   3.179   3.975   2.263
 1391SOL    HW3 5595   3.031   3.998   2.242
 1391SOL    MW4 5596   3.114   4.024   2.233
 1392SOL     OW 5597   3.131   4.280   2.352
 1392SOL    HW2 5598   3.223   4.297   2.332
 1392SOL    HW3 5599   3.117   4.189   2.323
 1392SOL    MW4 5600   3.141   4.270   2.345
 1393SOL     OW 5601   3.386   4.384   2.307
 1393SOL    HW2 5602   3.372   4.475   2.334
 1393SOL    HW3 5603   3.382   4.388   2.211
 1393SOL    MW4 5604   3.383   4.397   2.298
 1394SOL     OW 5605   3.795   4.665   2.374
 1394SOL    HW2 5606   3.827   4.673   2.464
 1394SOL    HW3 5607   3.860   4.711   2.321
 1394SOL    MW4 5608   3.808   4.672   2.379
 1395SOL     OW 5609   3.577   0.121   2.234
 1395SOL    HW2 5610   3.569   0.208   2.274
 1395SOL    HW3 5611   3.641   0.076   2.289
 1395SOL    MW4 5612   3.584   0.127   2.246
 1396SOL     OW 5613   3.569   0.380   2.336
 1396SOL    HW2 5614   3.588   0.395   2.429
 1396SOL    HW3 5615   3.643   0.420   2.290
 1396SOL    MW4 5616   3.582   0.387   2.342
 1397SOL     OW 5617   3.804   0.470   2.193
 1397SOL    HW2 5618   3.768   0.551   2.230
 1397SOL    HW3 5619   3.804   0.485   2.099
 1397SOL    MW4 5620   3.799   0.483   2.186
 1398SOL     OW 5621   3.751   0.743   2.305
 1398SOL    HW2 5622   3.761   0.742   2.400
 1398SOL    HW3 5623   3.838   0.762   2.271
 1398SOL    MW4 5624   3.764   0.745   2.313
 1399SOL     OW 5625   3.554   0.907   2.223
 1399SOL    HW2 5626   3.623   0.844   2.245
 1399SOL    HW3 5627   3.552   0.909   2.128
 1399SOL    MW4 5628   3.563   0.899   2.214
 1400SOL     OW 5629   3.588   1.168   2.321
 1400SOL    HW2 5630   3.582   1.167   2.416
 1400SOL    HW3 5631   3.606   1.077   2.297
 1400SOL    MW4 5632   3.590   1.156   2.330
 1401SOL     OW 5633   3.830   1.279   2.236
 1401SOL    HW2 5634   3.834   1.360   2.287
 1401SOL    HW3 5635   3.738   1.252   2.239
 1401SOL    MW4 5636   3.819   1.286   2.243
 1402SOL     OW 5637   3.812   1.500   2.385
 1402SOL    HW2 5638   3.812   1.501   2.481
 1402SOL    HW3 5639   3.742   1.561   2.360
 1402SOL    MW4 5640   3.803   1.508   2.394
 1403SOL     OW 5641   3.647   1.680   2.266
 1403SOL    HW2 5642   3.564   1.654   2.306
 1403SOL    HW3 5643   3.632   1.673   2.172
 1403SOL    MW4 5644   3.634   1.676   2.259
 1404SOL     OW 5645   3.592   1.945   2.350
 1404SOL    HW2 5646   3.667   2.002   2.334
 1404SOL    HW3 5647   3.610   1.867   2.297
 1404SOL    MW4 5648   3.604   1.942   2.341
 1405SOL     OW 5649   3.829   2.098   2.269
 1405SOL    HW2 5650   3.880   2.027   2.309
 1405SOL    HW3 5651   3.859   2.101   2.178
 1405SOL    MW4 5652   3.840   2.089   2.263
 1406SOL     OW 5653   3.782   2.353   2.366
 1406SOL    HW2 5654   3.695   2.379   2.335
 1406SOL    HW3 5655   3.789   2.260   2.344
 1406SOL    MW4 5656   3.771   2.344   2.359
 1407SOL     OW 5657   3.531   2.427   2.278
 1407SOL    HW2 5658   3.452   2.380   2.306
 1407SOL    HW3 5659   3.542   2.400   2.187
 1407SOL    MW4 5660   3.522   2.417   2.270
 1408SOL     OW 5661   3.550   2.707   2.351
 1408SOL    HW2 5662   3.545   2.613   2.330
 1408SOL    HW3 5663   3.480   2.746   2.298
 1408SOL    MW4 5664   3.540   2.700   2.341
 1409SOL     OW 5665   3.794   2.819   2.245
 1409SOL    HW2 5666   3.781   2.909   2.274
 1409SOL    HW3 5667   3.714   2.774   2.271
 1409SOL    MW4 5668   3.782   2.825   2.252
 1410SOL     OW 5669   3.774   3.082   2.340
 1410SOL    HW2 5670   3.788   3.120   2.427
 1410SOL    HW3 5671   3.853   3.105   2.291
 1410SOL    MW4 5672   3.787   3.090   2.345
 1411SOL     OW 5673   3.544   3.220   2.244
 1411SOL    HW2 5674   3.548   3.309   2.280
 1411SOL    HW3 5675   3.626   3.179   2.272
 1411SOL    MW4 5676   3.556   3.226   2.253
 1412SOL     OW 5677   3.565   3.481   2.343
 1412SOL    HW2 5678   3.568   3.470   2.438
 1412SOL    HW3 5679   3.651   3.517   2.320
 1412SOL    MW4 5680   3.577   3.484   2.352
 1413SOL     OW 5681   3.817   3.590   2.250
 1413SOL    HW2 5682   3.815   3.680   2.284
 1413SOL    HW3 5683   3.808   3.600   2.155
 1413SOL    MW4 5684   3.815   3.604   2.242
 1414SOL     OW 5685   3.829   3.829   2.355
 1414SOL    HW2 5686   3.838   3.820   2.450
 1414SOL    HW3 5687   3.906   3.879   2.328
 1414SOL    MW4 5688   3.840   3.834   2.364
 1415SOL     OW 5689   3.587   3.996   2.281
 1415SOL    HW2 5690   3.597   4.081   2.323
 1415SOL    HW3 5691   3.657   3.942   2.317
 1415SOL    MW4 5692   3.597   4.000   2.291
 1416SOL     OW 5693   3.610   4.243   2.360
 1416SOL    HW2 5694   3.675   4.304   2.323
 1416SOL    HW3 5695   3.527   4.291   2.353
 1416SOL    MW4 5696   3.608   4.258   2.354
 1417SOL     OW 5697   3.792   4.417   2.258
 1417SOL    HW2 5698   3.864   4.367   2.296
 1417SOL    HW3 5699   3.797   4.503   2.300
 1417SOL    MW4 5700   3.802   4.422   2.269
 1418SOL     OW 5701   4.244   4.625   2.297
 1418SOL    HW2 5702   4.258   4.613   2.391
 1418SOL    HW3 5703   4.313   4.685   2.270
 1418SOL    MW4 5704   4.255   4.631   2.306
 1419SOL     OW 5705   4.008   0.095   2.246
 1419SOL    HW2 5706   4.029   0.185   2.271
 1419SOL    HW3 5707   4.087   0.045   2.268
 1419SOL    MW4 5708   4.021   0.101   2.252
 1420SOL     OW 5709   4.020   0.358   2.350
 1420SOL    HW2 5710   4.099   0.411   2.337
 1420SOL    HW3 5711   3.951   0.406   2.304
 1420SOL    MW4 5712   4.021   0.371   2.342
 1421SOL     OW 5713   4.243   0.512   2.226
 1421SOL    HW2 5714   4.231   0.594   2.274
 1421SOL    HW3 5715   4.322   0.473   2.263
 1421SOL    MW4 5716   4.252   0.518   2.237
 1422SOL     OW 5717   4.208   0.743   2.365
 1422SOL    HW2 5718   4.131   0.787   2.329
 1422SOL    HW3 5719   4.282   0.795   2.333
 1422SOL    MW4 5720   4.207   0.756   2.356
 1423SOL     OW 5721   3.997   0.884   2.255
 1423SOL    HW2 5722   4.007   0.973   2.289
 1423SOL    HW3 5723   4.015   0.892   2.161
 1423SOL    MW4 5724   4.001   0.897   2.247
 1424SOL     OW 5725   4.038   1.136   2.356
 1424SOL    HW2 5726   4.023   1.141   2.450
 1424SOL    HW3 5727   3.955   1.165   2.317
 1424SOL    MW4 5728   4.025   1.140   2.363
 1425SOL     OW 5729   4.270   1.236   2.254
 1425SOL    HW2 5730   4.196   1.196   2.300
 1425SOL    HW3 5731   4.347   1.197   2.294
 1425SOL    MW4 5732   4.270   1.226   2.266
 1426SOL     OW 5733   4.306   1.510   2.357
 1426SOL    HW2 5734   4.297   1.427   2.310
 1426SOL    HW3 5735   4.374   1.557   2.310
 1426SOL    MW4 5736   4.313   1.505   2.345
 1427SOL     OW 5737   4.049   1.627   2.305
 1427SOL    HW2 5738   4.134   1.587   2.323
 1427SOL    HW3 5739   3.986   1.572   2.352
 1427SOL    MW4 5740   4.052   1.614   2.314
 1428SOL     OW 5741   4.025   1.901   2.336
 1428SOL    HW2 5742   4.031   1.904   2.432
 1428SOL    HW3 5743   4.030   1.808   2.315
 1428SOL    MW4 5744   4.026   1.889   2.346
 1429SOL     OW 5745   4.257   2.025   2.252
 1429SOL    HW2 5746   4.254   2.114   2.287
 1429SOL    HW3 5747   4.179   1.983   2.286
 1429SOL    MW4 5748   4.246   2.031   2.261
 1430SOL     OW 5749   4.249   2.304   2.333
 1430SOL    HW2 5750   4.170   2.345   2.299
 1430SOL    HW3 5751   4.320   2.359   2.302
 1430SOL    MW4 5752   4.248   2.317   2.325
 1431SOL     OW 5753   4.016   2.446   2.230
 1431SOL    HW2 5754   4.023   2.541   2.240
 1431SOL    HW3 5755   3.933   2.424   2.273
 1431SOL    MW4 5756   4.006   2.456   2.237
 1432SOL     OW 5757   4.036   2.695   2.298
 1432SOL    HW2 5758   4.036   2.686   2.393
 1432SOL    HW3 5759   3.949   2.730   2.278
 1432SOL    MW4 5760   4.024   2.699   2.308
 1433SOL     OW 5761   4.297   2.812   2.228
 1433SOL    HW2 5762   4.218   2.770   2.262
 1433SOL    HW3 5763   4.368   2.776   2.280
 1433SOL    MW4 5764   4.296   2.802   2.239
 1434SOL     OW 5765   4.242   3.077   2.325
 1434SOL    HW2 5766   4.256   2.985   2.302
 1434SOL    HW3 5767   4.309   3.125   2.276
 1434SOL    MW4 5768   4.253   3.071   2.316
 1435SOL     OW 5769   4.015   3.197   2.216
 1435SOL    HW2 5770   4.018   3.275   2.271
 1435SOL    HW3 5771   4.082   3.139   2.252
 1435SOL    MW4 5772   4.024   3.199   2.228
 1436SOL     OW 5773   4.032   3.457   2.344
 1436SOL    HW2 5774   4.106   3.502   2.302
 1436SOL    HW3 5775   3.954   3.496   2.305
 1436SOL    MW4 5776   4.032   3.468   2.333
 1437SOL     OW 5777   4.260   3.577   2.226
 1437SOL    HW2 5778   4.254   3.662   2.270
 1437SOL    HW3 5779   4.239   3.596   2.135
 1437SOL    MW4 5780   4.256   3.590   2.220
 1438SOL     OW 5781   4.265   3.831   2.316
 1438SOL    HW2 5782   4.263   3.857   2.408
 1438SOL    HW3 5783   4.334   3.885   2.277
 1438SOL    MW4 5784   4.274   3.842   2.323
 1439SOL     OW 5785   4.043   3.982   2.270
 1439SOL    HW2 5786   4.123   3.936   2.296
 1439SOL    HW3 5787   4.046   3.984   2.175
 1439SOL    MW4 5788   4.054   3.976   2.261
 1440SOL     OW 5789   4.005   4.261   2.355
 1440SOL    HW2 5790   4.087   4.298   2.321
 1440SOL    HW3 5791   4.009   4.169   2.330
 1440SOL    MW4 5792   4.016   4.254   2.347
 1441SOL     OW 5793   4.244   4.355   2.259
 1441SOL    HW2 5794   4.242   4.448   2.281
 1441SOL    HW3 5795   4.311   4.318   2.315
 1441SOL    MW4 5796   4.252   4.362   2.269
 1442SOL     OW 5797   0.267   4.637   2.641
 1442SOL    HW2 5798   0.259   4.550   2.679
 1442SOL    HW3 5799   0.181   4.677   2.654
 1442SOL    MW4 5800   0.255   4.631   2.648
 1443SOL     OW 5801   0.016   0.039   2.707
 1443SOL    HW2 5802   0.013   0.036   2.802
 1443SOL    HW3 5803   0.012   0.132   2.685
 1443SOL    MW4 5804   0.015   0.051   2.716
 1444SOL     OW 5805   0.020   0.299   2.626
 1444SOL    HW2 5806   0.087   0.360   2.656
 1444SOL    HW3 5807   0.002   0.326   2.536
 1444SOL    MW4 5808   0.026   0.311   2.618
 1445SOL     OW 5809   0.187   0.508   2.711
 1445SOL    HW2 5810   0.175   0.513   2.806
 1445SOL    HW3 5811   0.274   0.469   2.700
 1445SOL    MW4 5812   0.197   0.504   2.722
 1446SOL     OW 5813   0.188   0.776   2.629
 1446SOL    HW2 5814   0.274   0.809   2.656
 1446SOL    HW3 5815   0.183   0.689   2.668
 1446SOL    MW4 5816   0.199   0.769   2.638
 1447SOL     OW 5817   4.439   0.877   2.694
 1447SOL    HW2 5818   4.364   0.821   2.673
 1447SOL    HW3 5819   4.514   0.836   2.649
 1447SOL    MW4 5820   4.439   0.864   2.686
 1448SOL     OW 5821   4.467   1.153   2.641
 1448SOL    HW2 5822   4.542   1.192   2.687
 1448SOL    HW3 5823   4.463   1.064   2.676
 1448SOL    MW4 5824   4.477   1.146   2.652
 1449SOL     OW 5825   0.198   1.289   2.730
 1449SOL    HW2 5826   0.251   1.228   2.679
 1449SOL    HW3 5827   0.219   1.375   2.694
 1449SOL    MW4 5828   0.208   1.292   2.718
 1450SOL     OW 5829   0.206   1.517   2.591
 1450SOL    HW2 5830   0.277   1.568   2.632
 1450SOL    HW3 5831   0.126   1.551   2.632
 1450SOL    MW4 5832   0.205   1.528   2.602
 1451SOL     OW 5833   4.484   1.619   2.719
 1451SOL    HW2 5834   4.474   1.612   2.814
 1451SOL    HW3 5835   4.464   1.711   2.700
 1451SOL    MW4 5836   4.480   1.630   2.729
 1452SOL     OW 5837   4.453   1.896   2.640
 1452SOL    HW2 5838   4.536   1.939   2.664
 1452SOL    HW3 5839   4.459   1.884   2.546
 1452SOL    MW4 5840   4.465   1.900   2.631
 1453SOL     OW 5841   0.204   2.029   2.708
 1453SOL    HW2 5842   0.275   1.970   2.682
 1453SOL    HW3 5843   0.215   2.106   2.653
 1453SOL    MW4 5844   0.214   2.031   2.697
 1454SOL     OW 5845   0.236   2.313   2.607
 1454SOL    HW2 5846   0.312   2.369   2.622
 1454SOL    HW3 5847   0.167   2.353   2.660
 1454SOL    MW4 5848   0.237   2.326   2.616
 1455SOL     OW 5849   0.015   2.447   2.722
 1455SOL    HW2 5850  -0.007   2.430   2.814
 1455SOL    HW3 5851  -0.052   2.401   2.672
 1455SOL    MW4 5852   0.003   2.439   2.727
 1456SOL     OW 5853   0.021   2.720   2.646
 1456SOL    HW2 5854  -0.056   2.756   2.691
 1456SOL    HW3 5855   0.021   2.628   2.671
 1456SOL    MW4 5856   0.011   2.713   2.656
 1457SOL     OW 5857   0.223   2.873   2.730
 1457SOL    HW2 5858   0.203   2.965   2.712
 1457SOL    HW3 5859   0.150   2.826   2.690
 1457SOL    MW4 5860   0.210   2.879   2.722
 1458SOL     OW 5861   0.214   3.130   2.618
 1458SOL    HW2 5862   0.298   3.174   2.625
 1458SOL    HW3 5863   0.202   3.113   2.525
 1458SOL    MW4 5864   0.223   3.133   2.607
 1459SOL     OW 5865   4.482   3.241   2.758
 1459SOL    HW2 5866   4.411   3.188   2.721
 1459SOL    HW3 5867   4.560   3.212   2.709
 1459SOL    MW4 5868   4.483   3.230   2.746
 1460SOL     OW 5869   4.468   3.494   2.613
 1460SOL    HW2 5870   4.549   3.538   2.639
 1460SOL    HW3 5871   4.471   3.410   2.659
 1460SOL    MW4 5872   4.479   3.489   2.623
 1461SOL     OW 5873   0.210   3.633   2.712
 1461SOL    HW2 5874   0.211   3.614   2.806
 1461SOL    HW3 5875   0.299   3.617   2.683
 1461SOL    MW4 5876   0.222   3.629   2.721
 1462SOL     OW 5877   0.191   3.891   2.630
 1462SOL    HW2 5878   0.219   3.807   2.668
 1462SOL    HW3 5879   0.205   3.880   2.536
 1462SOL    MW4 5880   0.196   3.878   2.623
 1463SOL     OW 5881   4.465   4.010   2.746
 1463SOL    HW2 5882   4.467   4.102   2.719
 1463SOL    HW3 5883   4.534   3.968   2.695
 1463SOL    MW4 5884   4.474   4.017   2.736
 1464SOL     OW 5885   4.464   4.268   2.638
 1464SOL    HW2 5886   4.401   4.326   2.681
 1464SOL    HW3 5887   4.550   4.304   2.660
 1464SOL    MW4 5888   4.467   4.281   2.647
 1465SOL     OW 5889   0.200   4.369   2.752
 1465SOL    HW2 5890   0.180   4.352   2.844
 1465SOL    HW3 5891   0.280   4.318   2.735
 1465SOL    MW4 5892   0.208   4.360   2.762
 1466SOL     OW 5893   0.678   4.660   2.640
 1466SOL    HW2 5894   0.760   4.705   2.661
 1466SOL    HW3 5895   0.611   4.713   2.683
 1466SOL    MW4 5896   0.680   4.673   2.648
 1467SOL     OW 5897   0.471   0.125   2.769
 1467SOL    HW2 5898   0.463   0.112   2.864
 1467SOL    HW3 5899   0.399   0.074   2.732
 1467SOL    MW4 5900   0.460   0.117   2.777
 1468SOL     OW 5901   0.443   0.375   2.658
 1468SOL    HW2 5902   0.522   0.425   2.675
 1468SOL    HW3 5903   0.460   0.288   2.696
 1468SOL    MW4 5904   0.455   0.370   2.665
 1469SOL     OW 5905   0.655   0.545   2.722
 1469SOL    HW2 5906   0.658   0.559   2.817
 1469SOL    HW3 5907   0.730   0.489   2.703
 1469SOL    MW4 5908   0.665   0.539   2.732
 1470SOL     OW 5909   0.694   0.794   2.617
 1470SOL    HW2 5910   0.774   0.835   2.650
 1470SOL    HW3 5911   0.689   0.710   2.662
 1470SOL    MW4 5912   0.704   0.788   2.628
 1471SOL     OW 5913   0.437   0.890   2.708
 1471SOL    HW2 5914   0.427   0.971   2.658
 1471SOL    HW3 5915   0.523   0.856   2.683
 1471SOL    MW4 5916   0.447   0.896   2.698
 1472SOL     OW 5917   0.404   1.133   2.563
 1472SOL    HW2 5918   0.485   1.174   2.596
 1472SOL    HW3 5919   0.416   1.132   2.468
 1472SOL    MW4 5920   0.416   1.138   2.555
 1473SOL     OW 5921   0.647   1.236   2.690
 1473SOL    HW2 5922   0.647   1.248   2.785
 1473SOL    HW3 5923   0.734   1.200   2.671
 1473SOL    MW4 5924   0.659   1.233   2.700
 1474SOL     OW 5925   0.645   1.484   2.577
 1474SOL    HW2 5926   0.568   1.536   2.599
 1474SOL    HW3 5927   0.626   1.397   2.611
 1474SOL    MW4 5928   0.632   1.479   2.584
 1475SOL     OW 5929   0.431   1.643   2.692
 1475SOL    HW2 5930   0.425   1.636   2.787
 1475SOL    HW3 5931   0.434   1.737   2.676
 1475SOL    MW4 5932   0.430   1.655   2.703
 1476SOL     OW 5933   0.422   1.913   2.616
 1476SOL    HW2 5934   0.498   1.960   2.649
 1476SOL    HW3 5935   0.432   1.914   2.521
 1476SOL    MW4 5936   0.433   1.919   2.608
 1477SOL     OW 5937   0.657   2.032   2.724
 1477SOL    HW2 5938   0.662   2.043   2.819
 1477SOL    HW3 5939   0.740   1.989   2.701
 1477SOL    MW4 5940   0.669   2.027   2.733
 1478SOL     OW 5941   0.687   2.279   2.627
 1478SOL    HW2 5942   0.765   2.323   2.662
 1478SOL    HW3 5943   0.682   2.197   2.677
 1478SOL    MW4 5944   0.697   2.274   2.638
 1479SOL     OW 5945   0.467   2.449   2.679
 1479SOL    HW2 5946   0.483   2.534   2.638
 1479SOL    HW3 5947   0.546   2.398   2.662
 1479SOL    MW4 5948   0.479   2.453   2.671
 1480SOL     OW 5949   0.442   2.729   2.594
 1480SOL    HW2 5950   0.515   2.774   2.636
 1480SOL    HW3 5951   0.366   2.782   2.616
 1480SOL    MW4 5952   0.442   2.742   2.603
 1481SOL     OW 5953   0.645   2.853   2.724
 1481SOL    HW2 5954   0.642   2.849   2.819
 1481SOL    HW3 5955   0.653   2.946   2.704
 1481SOL    MW4 5956   0.646   2.865   2.734
 1482SOL     OW 5957   0.668   3.115   2.636
 1482SOL    HW2 5958   0.753   3.129   2.677
 1482SOL    HW3 5959   0.684   3.123   2.542
 1482SOL    MW4 5960   0.681   3.118   2.629
 1483SOL     OW 5961   0.442   3.247   2.701
 1483SOL    HW2 5962   0.426   3.236   2.795
 1483SOL    HW3 5963   0.526   3.204   2.686
 1483SOL    MW4 5964   0.451   3.240   2.712
 1484SOL     OW 5965   0.451   3.516   2.597
 1484SOL    HW2 5966   0.460   3.433   2.643
 1484SOL    HW3 5967   0.423   3.492   2.509
 1484SOL    MW4 5968   0.449   3.502   2.591
 1485SOL     OW 5969   0.665   3.628   2.733
 1485SOL    HW2 5970   0.669   3.616   2.828
 1485SOL    HW3 5971   0.582   3.588   2.707
 1485SOL    MW4 5972   0.655   3.621   2.743
 1486SOL     OW 5973   0.674   3.884   2.639
 1486SOL    HW2 5974   0.591   3.917   2.673
 1486SOL    HW3 5975   0.676   3.792   2.666
 1486SOL    MW4 5976   0.664   3.876   2.647
 1487SOL     OW 5977   0.430   3.990   2.730
 1487SOL    HW2 5978   0.434   4.084   2.712
 1487SOL    HW3 5979   0.349   3.962   2.688
 1487SOL    MW4 5980   0.420   3.999   2.722
 1488SOL     OW 5981   0.424   4.258   2.631
 1488SOL    HW2 5982   0.511   4.288   2.656
 1488SOL    HW3 5983   0.427   4.254   2.536
 1488SOL    MW4 5984   0.436   4.261   2.622
 1489SOL     OW 5985   0.640   4.395   2.748
 1489SOL    HW2 5986   0.733   4.371   2.739
 1489SOL    HW3 5987   0.637   4.487   2.724
 1489SOL    MW4 5988   0.652   4.404   2.744
 1490SOL     OW 5989   1.104   4.601   2.628
 1490SOL    HW2 5990   1.180   4.654   2.653
 1490SOL    HW3 5991   1.115   4.520   2.678
 1490SOL    MW4 5992   1.115   4.597   2.638
 1491SOL     OW 5993   0.914   0.125   2.729
 1491SOL    HW2 5994   0.910   0.135   2.825
 1491SOL    HW3 5995   0.981   0.059   2.715
 1491SOL    MW4 5996   0.922   0.118   2.740
 1492SOL     OW 5997   0.871   0.382   2.649
 1492SOL    HW2 5998   0.888   0.292   2.680
 1492SOL    HW3 5999   0.876   0.375   2.554
 1492SOL    MW4 6000   0.874   0.369   2.641
 1493SOL     OW 6001   1.149   0.472   2.711
 1493SOL    HW2 6002   1.171   0.562   2.686
 1493SOL    HW3 6003   1.062   0.458   2.675
 1493SOL    MW4 6004   1.141   0.482   2.703
 1494SOL     OW 6005   1.179   0.747   2.623
 1494SOL    HW2 6006   1.244   0.815   2.644
 1494SOL    HW3 6007   1.166   0.753   2.529
 1494SOL    MW4 6008   1.186   0.756   2.614
 1495SOL     OW 6009   0.962   0.882   2.694
 1495SOL    HW2 6010   0.975   0.895   2.788
 1495SOL    HW3 6011   1.037   0.828   2.667
 1495SOL    MW4 6012   0.974   0.876   2.703
 1496SOL     OW 6013   0.915   1.147   2.652
 1496SOL    HW2 6014   0.945   1.056   2.655
 1496SOL    HW3 6015   0.909   1.168   2.559
 1496SOL    MW4 6016   0.918   1.138   2.640
 1497SOL     OW 6017   1.155   1.258   2.733
 1497SOL    HW2 6018   1.151   1.351   2.710
 1497SOL    HW3 6019   1.069   1.224   2.709
 1497SOL    MW4 6020   1.143   1.266   2.727
 1498SOL     OW 6021   1.099   1.526   2.674
 1498SOL    HW2 6022   1.008   1.556   2.674
 1498SOL    HW3 6023   1.128   1.540   2.583
 1498SOL    MW4 6024   1.091   1.532   2.662
 1499SOL     OW 6025   0.845   1.632   2.708
 1499SOL    HW2 6026   0.845   1.645   2.803
 1499SOL    HW3 6027   0.765   1.584   2.690
 1499SOL    MW4 6028   0.835   1.627   2.718
 1500SOL     OW 6029   0.862   1.893   2.610
 1500SOL    HW2 6030   0.930   1.941   2.658
 1500SOL    HW3 6031   0.868   1.804   2.645
 1500SOL    MW4 6032   0.872   1.887   2.621
 1501SOL     OW 6033   1.062   2.041   2.725
 1501SOL    HW2 6034   1.146   1.999   2.709
 1501SOL    HW3 6035   1.074   2.131   2.695
 1501SOL    MW4 6036   1.075   2.047   2.719
 1502SOL     OW 6037   1.121   2.298   2.666
 1502SOL    HW2 6038   1.197   2.356   2.679
 1502SOL    HW3 6039   1.114   2.289   2.571
 1502SOL    MW4 6040   1.130   2.305   2.655
 1503SOL     OW 6041   0.887   2.442   2.741
 1503SOL    HW2 6042   0.893   2.529   2.700
 1503SOL    HW3 6043   0.961   2.393   2.703
 1503SOL    MW4 6044   0.898   2.447   2.730
 1504SOL     OW 6045   0.859   2.709   2.639
 1504SOL    HW2 6046   0.939   2.744   2.678
 1504SOL    HW3 6047   0.789   2.767   2.670
 1504SOL    MW4 6048   0.860   2.721   2.648
 1505SOL     OW 6049   1.083   2.832   2.742
 1505SOL    HW2 6050   1.106   2.825   2.835
 1505SOL    HW3 6051   1.159   2.795   2.696
 1505SOL    MW4 6052   1.096   2.826   2.748
 1506SOL     OW 6053   1.148   3.096   2.649
 1506SOL    HW2 6054   1.122   3.007   2.672
 1506SOL    HW3 6055   1.136   3.101   2.554
 1506SOL    MW4 6056   1.143   3.085   2.639
 1507SOL     OW 6057   0.919   3.208   2.752
 1507SOL    HW2 6058   0.903   3.286   2.700
 1507SOL    HW3 6059   1.006   3.179   2.724
 1507SOL    MW4 6060   0.928   3.215   2.742
 1508SOL     OW 6061   0.887   3.462   2.645
 1508SOL    HW2 6062   0.961   3.508   2.686
 1508SOL    HW3 6063   0.810   3.512   2.673
 1508SOL    MW4 6064   0.887   3.475   2.654
 1509SOL     OW 6065   1.102   3.599   2.739
 1509SOL    HW2 6066   1.101   3.626   2.831
 1509SOL    HW3 6067   1.100   3.681   2.690
 1509SOL    MW4 6068   1.102   3.613   2.745
 1510SOL     OW 6069   1.098   3.851   2.629
 1510SOL    HW2 6070   1.178   3.889   2.667
 1510SOL    HW3 6071   1.110   3.859   2.534
 1510SOL    MW4 6072   1.110   3.857   2.622
 1511SOL     OW 6073   0.893   4.008   2.758
 1511SOL    HW2 6074   0.958   3.963   2.704
 1511SOL    HW3 6075   0.809   3.970   2.730
 1511SOL    MW4 6076   0.890   3.997   2.747
 1512SOL     OW 6077   0.888   4.266   2.694
 1512SOL    HW2 6078   0.892   4.174   2.719
 1512SOL    HW3 6079   0.884   4.265   2.598
 1512SOL    MW4 6080   0.888   4.254   2.684
 1513SOL     OW 6081   1.144   4.351   2.753
 1513SOL    HW2 6082   1.137   4.378   2.844
 1513SOL    HW3 6083   1.055   4.327   2.728
 1513SOL    MW4 6084   1.131   4.351   2.762
 1514SOL     OW 6085   1.562   4.640   2.654
 1514SOL    HW2 6086   1.571   4.547   2.676
 1514SOL    HW3 6087   1.554   4.641   2.559
 1514SOL    MW4 6088   1.562   4.628   2.644
 1515SOL     OW 6089   1.325   0.083   2.736
 1515SOL    HW2 6090   1.324   0.154   2.672
 1515SOL    HW3 6091   1.406   0.036   2.719
 1515SOL    MW4 6092   1.335   0.086   2.725
 1516SOL     OW 6093   1.348   0.337   2.606
 1516SOL    HW2 6094   1.435   0.371   2.624
 1516SOL    HW3 6095   1.289   0.399   2.648
 1516SOL    MW4 6096   1.351   0.349   2.614
 1517SOL     OW 6097   1.539   0.472   2.771
 1517SOL    HW2 6098   1.622   0.433   2.743
 1517SOL    HW3 6099   1.554   0.566   2.763
 1517SOL    MW4 6100   1.552   0.479   2.766
 1518SOL     OW 6101   1.590   0.727   2.680
 1518SOL    HW2 6102   1.527   0.795   2.704
 1518SOL    HW3 6103   1.583   0.721   2.585
 1518SOL    MW4 6104   1.580   0.735   2.671
 1519SOL     OW 6105   1.403   0.900   2.713
 1519SOL    HW2 6106   1.418   0.911   2.807
 1519SOL    HW3 6107   1.429   0.983   2.674
 1519SOL    MW4 6108   1.409   0.912   2.720
 1520SOL     OW 6109   1.365   1.141   2.591
 1520SOL    HW2 6110   1.429   1.206   2.620
 1520SOL    HW3 6111   1.284   1.166   2.635
 1520SOL    MW4 6112   1.363   1.153   2.600
 1521SOL     OW 6113   1.570   1.308   2.695
 1521SOL    HW2 6114   1.567   1.287   2.789
 1521SOL    HW3 6115   1.654   1.273   2.666
 1521SOL    MW4 6116   1.580   1.300   2.704
 1522SOL     OW 6117   1.493   1.558   2.598
 1522SOL    HW2 6118   1.513   1.470   2.631
 1522SOL    HW3 6119   1.522   1.557   2.507
 1522SOL    MW4 6120   1.499   1.546   2.591
 1523SOL     OW 6121   1.310   1.724   2.732
 1523SOL    HW2 6122   1.362   1.668   2.673
 1523SOL    HW3 6123   1.226   1.679   2.740
 1523SOL    MW4 6124   1.306   1.711   2.725
 1524SOL     OW 6125   1.317   1.971   2.618
 1524SOL    HW2 6126   1.315   1.885   2.659
 1524SOL    HW3 6127   1.327   1.953   2.524
 1524SOL    MW4 6128   1.318   1.957   2.611
 1525SOL     OW 6129   1.533   2.104   2.710
 1525SOL    HW2 6130   1.608   2.050   2.686
 1525SOL    HW3 6131   1.460   2.070   2.657
 1525SOL    MW4 6132   1.533   2.093   2.700
 1526SOL     OW 6133   1.591   2.358   2.618
 1526SOL    HW2 6134   1.674   2.398   2.647
 1526SOL    HW3 6135   1.599   2.266   2.643
 1526SOL    MW4 6136   1.603   2.351   2.625
 1527SOL     OW 6137   1.351   2.471   2.723
 1527SOL    HW2 6138   1.341   2.562   2.695
 1527SOL    HW3 6139   1.434   2.443   2.686
 1527SOL    MW4 6140   1.360   2.479   2.715
 1528SOL     OW 6141   1.318   2.727   2.605
 1528SOL    HW2 6142   1.392   2.781   2.632
 1528SOL    HW3 6143   1.330   2.714   2.511
 1528SOL    MW4 6144   1.329   2.733   2.596
 1529SOL     OW 6145   1.543   2.852   2.707
 1529SOL    HW2 6146   1.535   2.843   2.802
 1529SOL    HW3 6147   1.628   2.811   2.686
 1529SOL    MW4 6148   1.553   2.845   2.716
 1530SOL     OW 6149   1.604   3.121   2.643
 1530SOL    HW2 6150   1.683   3.161   2.679
 1530SOL    HW3 6151   1.605   3.031   2.677
 1530SOL    MW4 6152   1.614   3.114   2.652
 1531SOL     OW 6153   1.349   3.258   2.748
 1531SOL    HW2 6154   1.429   3.208   2.733
 1531SOL    HW3 6155   1.278   3.198   2.724
 1531SOL    MW4 6156   1.350   3.244   2.743
 1532SOL     OW 6157   1.327   3.504   2.627
 1532SOL    HW2 6158   1.346   3.420   2.669
 1532SOL    HW3 6159   1.244   3.532   2.665
 1532SOL    MW4 6160   1.319   3.496   2.638
 1533SOL     OW 6161   1.574   3.631   2.751
 1533SOL    HW2 6162   1.654   3.602   2.708
 1533SOL    HW3 6163   1.503   3.594   2.698
 1533SOL    MW4 6164   1.575   3.622   2.739
 1534SOL     OW 6165   1.529   3.870   2.604
 1534SOL    HW2 6166   1.458   3.915   2.649
 1534SOL    HW3 6167   1.544   3.791   2.657
 1534SOL    MW4 6168   1.522   3.865   2.617
 1535SOL     OW 6169   1.330   4.023   2.703
 1535SOL    HW2 6170   1.327   4.031   2.798
 1535SOL    HW3 6171   1.337   4.113   2.672
 1535SOL    MW4 6172   1.331   4.036   2.711
 1536SOL     OW 6173   1.383   4.274   2.611
 1536SOL    HW2 6174   1.305   4.306   2.656
 1536SOL    HW3 6175   1.360   4.275   2.518
 1536SOL    MW4 6176   1.370   4.278   2.605
 1537SOL     OW 6177   1.606   4.378   2.742
 1537SOL    HW2 6178   1.604   4.366   2.837
 1537SOL    HW3 6179   1.525   4.339   2.710
 1537SOL    MW4 6180   1.595   4.371   2.750
 1538SOL     OW 6181   2.001   4.642   2.594
 1538SOL    HW2 6182   2.086   4.676   2.619
 1538SOL    HW3 6183   2.007   4.625   2.500
 1538SOL    MW4 6184   2.013   4.644   2.585
 1539SOL     OW 6185   1.808   0.108   2.721
 1539SOL    HW2 6186   1.873   0.057   2.672
 1539SOL    HW3 6187   1.724   0.065   2.702
 1539SOL    MW4 6188   1.805   0.095   2.712
 1540SOL     OW 6189   1.788   0.369   2.622
 1540SOL    HW2 6190   1.856   0.422   2.665
 1540SOL    HW3 6191   1.806   0.280   2.651
 1540SOL    MW4 6192   1.799   0.364   2.632
 1541SOL     OW 6193   2.004   0.492   2.728
 1541SOL    HW2 6194   2.069   0.434   2.688
 1541SOL    HW3 6195   2.024   0.579   2.694
 1541SOL    MW4 6196   2.015   0.496   2.718
 1542SOL     OW 6197   2.054   0.754   2.658
 1542SOL    HW2 6198   1.977   0.805   2.684
 1542SOL    HW3 6199   2.059   0.766   2.563
 1542SOL    MW4 6200   2.044   0.762   2.649
 1543SOL     OW 6201   1.820   0.878   2.750
 1543SOL    HW2 6202   1.789   0.957   2.706
 1543SOL    HW3 6203   1.753   0.813   2.731
 1543SOL    MW4 6204   1.807   0.880   2.742
 1544SOL     OW 6205   1.764   1.124   2.636
 1544SOL    HW2 6206   1.842   1.174   2.660
 1544SOL    HW3 6207   1.774   1.108   2.542
 1544SOL    MW4 6208   1.776   1.128   2.627
 1545SOL     OW 6209   1.968   1.281   2.714
 1545SOL    HW2 6210   1.978   1.322   2.800
 1545SOL    HW3 6211   2.056   1.250   2.692
 1545SOL    MW4 6212   1.981   1.283   2.722
 1546SOL     OW 6213   1.956   1.522   2.563
 1546SOL    HW2 6214   1.897   1.583   2.607
 1546SOL    HW3 6215   1.931   1.436   2.598
 1546SOL    MW4 6216   1.945   1.519   2.574
 1547SOL     OW 6217   1.734   1.669   2.699
 1547SOL    HW2 6218   1.744   1.679   2.794
 1547SOL    HW3 6219   1.642   1.646   2.687
 1547SOL    MW4 6220   1.723   1.667   2.710
 1548SOL     OW 6221   1.758   1.929   2.634
 1548SOL    HW2 6222   1.837   1.955   2.682
 1548SOL    HW3 6223   1.738   1.842   2.667
 1548SOL    MW4 6224   1.766   1.921   2.645
 1549SOL     OW 6225   1.997   2.044   2.727
 1549SOL    HW2 6226   2.013   2.068   2.818
 1549SOL    HW3 6227   1.996   2.128   2.680
 1549SOL    MW4 6228   1.999   2.059   2.733
 1550SOL     OW 6229   2.024   2.320   2.609
 1550SOL    HW2 6230   2.109   2.354   2.635
 1550SOL    HW3 6231   2.023   2.327   2.513
 1550SOL    MW4 6232   2.035   2.325   2.599
 1551SOL     OW 6233   1.819   2.466   2.718
 1551SOL    HW2 6234   1.836   2.467   2.813
 1551SOL    HW3 6235   1.882   2.403   2.683
 1551SOL    MW4 6236   1.830   2.458   2.726
 1552SOL     OW 6237   1.785   2.740   2.650
 1552SOL    HW2 6238   1.795   2.655   2.692
 1552SOL    HW3 6239   1.759   2.721   2.560
 1552SOL    MW4 6240   1.783   2.727   2.644
 1553SOL     OW 6241   2.007   2.866   2.757
 1553SOL    HW2 6242   2.078   2.813   2.719
 1553SOL    HW3 6243   1.927   2.830   2.719
 1553SOL    MW4 6244   2.006   2.854   2.747
 1554SOL     OW 6245   2.012   3.092   2.596
 1554SOL    HW2 6246   2.024   3.009   2.643
 1554SOL    HW3 6247   2.015   3.069   2.504
 1554SOL    MW4 6248   2.014   3.078   2.590
 1555SOL     OW 6249   1.832   3.278   2.724
 1555SOL    HW2 6250   1.807   3.353   2.670
 1555SOL    HW3 6251   1.903   3.236   2.675
 1555SOL    MW4 6252   1.838   3.283   2.710
 1556SOL     OW 6253   1.794   3.538   2.599
 1556SOL    HW2 6254   1.877   3.580   2.621
 1556SOL    HW3 6255   1.795   3.531   2.504
 1556SOL    MW4 6256   1.805   3.542   2.589
 1557SOL     OW 6257   2.037   3.649   2.700
 1557SOL    HW2 6258   2.028   3.645   2.795
 1557SOL    HW3 6259   2.120   3.606   2.680
 1557SOL    MW4 6260   2.046   3.643   2.710
 1558SOL     OW 6261   1.986   3.889   2.611
 1558SOL    HW2 6262   1.905   3.916   2.654
 1558SOL    HW3 6263   2.003   3.801   2.645
 1558SOL    MW4 6264   1.977   3.881   2.621
 1559SOL     OW 6265   1.750   3.989   2.718
 1559SOL    HW2 6266   1.765   4.075   2.678
 1559SOL    HW3 6267   1.671   3.956   2.677
 1559SOL    MW4 6268   1.742   3.996   2.708
 1560SOL     OW 6269   1.830   4.268   2.617
 1560SOL    HW2 6270   1.741   4.299   2.637
 1560SOL    HW3 6271   1.835   4.272   2.522
 1560SOL    MW4 6272   1.819   4.273   2.607
 1561SOL     OW 6273   2.029   4.402   2.742
 1561SOL    HW2 6274   1.964   4.365   2.683
 1561SOL    HW3 6275   2.037   4.494   2.716
 1561SOL    MW4 6276   2.022   4.410   2.731
 1562SOL     OW 6277   2.463   4.642   2.639
 1562SOL    HW2 6278   2.548   4.676   2.666
 1562SOL    HW3 6279   2.464   4.644   2.544
 1562SOL    MW4 6280   2.474   4.647   2.630
 1563SOL     OW 6281   2.230   0.084   2.711
 1563SOL    HW2 6282   2.232   0.102   2.805
 1563SOL    HW3 6283   2.316   0.045   2.691
 1563SOL    MW4 6284   2.242   0.081   2.721
 1564SOL     OW 6285   2.234   0.353   2.635
 1564SOL    HW2 6286   2.240   0.260   2.656
 1564SOL    HW3 6287   2.226   0.356   2.539
 1564SOL    MW4 6288   2.233   0.341   2.625
 1565SOL     OW 6289   2.424   0.486   2.781
 1565SOL    HW2 6290   2.413   0.580   2.768
 1565SOL    HW3 6291   2.359   0.446   2.724
 1565SOL    MW4 6292   2.414   0.493   2.772
 1566SOL     OW 6293   2.433   0.755   2.691
 1566SOL    HW2 6294   2.364   0.817   2.711
 1566SOL    HW3 6295   2.440   0.756   2.596
 1566SOL    MW4 6296   2.425   0.763   2.681
 1567SOL     OW 6297   2.242   0.926   2.749
 1567SOL    HW2 6298   2.253   0.944   2.842
 1567SOL    HW3 6299   2.174   0.859   2.745
 1567SOL    MW4 6300   2.235   0.920   2.760
 1568SOL     OW 6301   2.222   1.170   2.635
 1568SOL    HW2 6302   2.227   1.077   2.657
 1568SOL    HW3 6303   2.238   1.174   2.541
 1568SOL    MW4 6304   2.225   1.159   2.626
 1569SOL     OW 6305   2.443   1.303   2.766
 1569SOL    HW2 6306   2.513   1.247   2.730
 1569SOL    HW3 6307   2.362   1.265   2.731
 1569SOL    MW4 6308   2.442   1.290   2.757
 1570SOL     OW 6309   2.450   1.576   2.689
 1570SOL    HW2 6310   2.374   1.624   2.723
 1570SOL    HW3 6311   2.445   1.491   2.732
 1570SOL    MW4 6312   2.439   1.571   2.699
 1571SOL     OW 6313   2.171   1.633   2.732
 1571SOL    HW2 6314   2.164   1.727   2.715
 1571SOL    HW3 6315   2.114   1.593   2.667
 1571SOL    MW4 6316   2.163   1.640   2.721
 1572SOL     OW 6317   2.204   1.891   2.654
 1572SOL    HW2 6318   2.136   1.953   2.681
 1572SOL    HW3 6319   2.203   1.895   2.559
 1572SOL    MW4 6320   2.195   1.899   2.645
 1573SOL     OW 6321   2.438   2.001   2.740
 1573SOL    HW2 6322   2.423   2.094   2.726
 1573SOL    HW3 6323   2.366   1.958   2.694
 1573SOL    MW4 6324   2.427   2.008   2.732
 1574SOL     OW 6325   2.458   2.275   2.676
 1574SOL    HW2 6326   2.525   2.335   2.707
 1574SOL    HW3 6327   2.453   2.291   2.582
 1574SOL    MW4 6328   2.466   2.285   2.668
 1575SOL     OW 6329   2.245   2.453   2.711
 1575SOL    HW2 6330   2.219   2.455   2.803
 1575SOL    HW3 6331   2.322   2.396   2.709
 1575SOL    MW4 6332   2.252   2.446   2.723
 1576SOL     OW 6333   2.211   2.720   2.637
 1576SOL    HW2 6334   2.296   2.753   2.663
 1576SOL    HW3 6335   2.213   2.627   2.660
 1576SOL    MW4 6336   2.222   2.712   2.643
 1577SOL     OW 6337   2.441   2.820   2.723
 1577SOL    HW2 6338   2.516   2.772   2.687
 1577SOL    HW3 6339   2.462   2.912   2.706
 1577SOL    MW4 6340   2.454   2.826   2.716
 1578SOL     OW 6341   2.491   3.089   2.668
 1578SOL    HW2 6342   2.409   3.126   2.699
 1578SOL    HW3 6343   2.485   3.093   2.573
 1578SOL    MW4 6344   2.479   3.094   2.660
 1579SOL     OW 6345   2.224   3.221   2.729
 1579SOL    HW2 6346   2.215   3.224   2.824
 1579SOL    HW3 6347   2.137   3.196   2.698
 1579SOL    MW4 6348   2.211   3.218   2.737
 1580SOL     OW 6349   2.241   3.491   2.624
 1580SOL    HW2 6350   2.320   3.534   2.657
 1580SOL    HW3 6351   2.236   3.410   2.674
 1580SOL    MW4 6352   2.251   3.486   2.635
 1581SOL     OW 6353   2.461   3.614   2.744
 1581SOL    HW2 6354   2.455   3.603   2.839
 1581SOL    HW3 6355   2.440   3.706   2.729
 1581SOL    MW4 6356   2.458   3.625   2.754
 1582SOL     OW 6357   2.447   3.903   2.643
 1582SOL    HW2 6358   2.526   3.955   2.658
 1582SOL    HW3 6359   2.376   3.955   2.681
 1582SOL    MW4 6360   2.448   3.917   2.650
 1583SOL     OW 6361   2.212   4.018   2.726
 1583SOL    HW2 6362   2.219   4.007   2.821
 1583SOL    HW3 6363   2.133   3.969   2.702
 1583SOL    MW4 6364   2.202   4.010   2.735
 1584SOL     OW 6365   2.250   4.277   2.630
 1584SOL    HW2 6366   2.247   4.188   2.665
 1584SOL    HW3 6367   2.173   4.320   2.667
 1584SOL    MW4 6368   2.239   4.271   2.640
 1585SOL     OW 6369   2.487   4.377   2.710
 1585SOL    HW2 6370   2.401   4.342   2.689
 1585SOL    HW3 6371   2.479   4.471   2.693
 1585SOL    MW4 6372   2.475   4.385   2.705
 1586SOL     OW 6373   2.993   4.655   2.660
 1586SOL    HW2 6374   3.081   4.682   2.686
 1586SOL    HW3 6375   2.996   4.652   2.564
 1586SOL    MW4 6376   3.005   4.658   2.650
 1587SOL     OW 6377   2.712   0.078   2.723
 1587SOL    HW2 6378   2.706   0.102   2.816
 1587SOL    HW3 6379   2.806   0.067   2.707
 1587SOL    MW4 6380   2.724   0.080   2.733
 1588SOL     OW 6381   2.662   0.362   2.661
 1588SOL    HW2 6382   2.680   0.272   2.685
 1588SOL    HW3 6383   2.583   0.385   2.709
 1588SOL    MW4 6384   2.654   0.353   2.670
 1589SOL     OW 6385   2.900   0.494   2.740
 1589SOL    HW2 6386   2.877   0.584   2.719
 1589SOL    HW3 6387   2.819   0.445   2.727
 1589SOL    MW4 6388   2.887   0.499   2.735
 1590SOL     OW 6389   2.883   0.762   2.669
 1590SOL    HW2 6390   2.950   0.817   2.709
 1590SOL    HW3 6391   2.800   0.803   2.693
 1590SOL    MW4 6392   2.881   0.775   2.677
 1591SOL     OW 6393   2.659   0.891   2.742
 1591SOL    HW2 6394   2.677   0.886   2.836
 1591SOL    HW3 6395   2.571   0.853   2.733
 1591SOL    MW4 6396   2.650   0.885   2.754
 1592SOL     OW 6397   2.651   1.145   2.642
 1592SOL    HW2 6398   2.731   1.177   2.683
 1592SOL    HW3 6399   2.649   1.051   2.660
 1592SOL    MW4 6400   2.661   1.137   2.650
 1593SOL     OW 6401   2.900   1.269   2.718
 1593SOL    HW2 6402   2.908   1.267   2.813
 1593SOL    HW3 6403   2.977   1.221   2.686
 1593SOL    MW4 6404   2.911   1.262   2.726
 1594SOL     OW 6405   2.907   1.544   2.637
 1594SOL    HW2 6406   2.829   1.586   2.674
 1594SOL    HW3 6407   2.904   1.455   2.671
 1594SOL    MW4 6408   2.896   1.538   2.647
 1595SOL     OW 6409   2.699   1.685   2.766
 1595SOL    HW2 6410   2.699   1.694   2.862
 1595SOL    HW3 6411   2.613   1.649   2.746
 1595SOL    MW4 6412   2.688   1.682   2.776
 1596SOL     OW 6413   2.707   1.927   2.629
 1596SOL    HW2 6414   2.700   1.840   2.669
 1596SOL    HW3 6415   2.625   1.970   2.651
 1596SOL    MW4 6416   2.696   1.921   2.638
 1597SOL     OW 6417   2.936   2.060   2.732
 1597SOL    HW2 6418   2.927   2.152   2.707
 1597SOL    HW3 6419   2.862   2.016   2.691
 1597SOL    MW4 6420   2.925   2.066   2.724
 1598SOL     OW 6421   2.909   2.322   2.626
 1598SOL    HW2 6422   2.985   2.357   2.672
 1598SOL    HW3 6423   2.834   2.368   2.665
 1598SOL    MW4 6424   2.909   2.333   2.637
 1599SOL     OW 6425   2.686   2.423   2.746
 1599SOL    HW2 6426   2.693   2.441   2.840
 1599SOL    HW3 6427   2.682   2.510   2.705
 1599SOL    MW4 6428   2.686   2.437   2.753
 1600SOL     OW 6429   2.670   2.687   2.619
 1600SOL    HW2 6430   2.745   2.734   2.654
 1600SOL    HW3 6431   2.669   2.708   2.526
 1600SOL    MW4 6432   2.680   2.696   2.611
 1601SOL     OW 6433   2.888   2.836   2.711
 1601SOL    HW2 6434   2.902   2.841   2.806
 1601SOL    HW3 6435   2.889   2.928   2.682
 1601SOL    MW4 6436   2.890   2.849   2.720
 1602SOL     OW 6437   2.922   3.108   2.634
 1602SOL    HW2 6438   2.861   3.153   2.693
 1602SOL    HW3 6439   2.889   3.128   2.546
 1602SOL    MW4 6440   2.909   3.117   2.630
 1603SOL     OW 6441   2.706   3.255   2.780
 1603SOL    HW2 6442   2.698   3.342   2.740
 1603SOL    HW3 6443   2.639   3.202   2.736
 1603SOL    MW4 6444   2.696   3.260   2.769
 1604SOL     OW 6445   2.682   3.478   2.636
 1604SOL    HW2 6446   2.611   3.539   2.656
 1604SOL    HW3 6447   2.693   3.483   2.541
 1604SOL    MW4 6448   2.674   3.487   2.626
 1605SOL     OW 6449   2.918   3.602   2.750
 1605SOL    HW2 6450   2.901   3.597   2.844
 1605SOL    HW3 6451   2.856   3.540   2.711
 1605SOL    MW4 6452   2.908   3.593   2.757
 1606SOL     OW 6453   2.926   3.854   2.636
 1606SOL    HW2 6454   2.994   3.899   2.687
 1606SOL    HW3 6455   2.923   3.766   2.673
 1606SOL    MW4 6456   2.934   3.848   2.648
 1607SOL     OW 6457   2.692   4.017   2.695
 1607SOL    HW2 6458   2.713   4.105   2.663
 1607SOL    HW3 6459   2.773   3.968   2.685
 1607SOL    MW4 6460   2.705   4.022   2.690
 1608SOL     OW 6461   2.726   4.272   2.597
 1608SOL    HW2 6462   2.791   4.320   2.648
 1608SOL    HW3 6463   2.642   4.303   2.631
 1608SOL    MW4 6464   2.723   4.283   2.608
 1609SOL     OW 6465   2.937   4.395   2.752
 1609SOL    HW2 6466   2.918   4.391   2.846
 1609SOL    HW3 6467   2.924   4.487   2.729
 1609SOL    MW4 6468   2.933   4.406   2.761
 1610SOL     OW 6469   3.429   4.656   2.651
 1610SOL    HW2 6470   3.415   4.564   2.675
 1610SOL    HW3 6471   3.367   4.705   2.705
 1610SOL    MW4 6472   3.419   4.650   2.661
 1611SOL     OW 6473   3.226   0.121   2.787
 1611SOL    HW2 6474   3.191   0.121   2.876
 1611SOL    HW3 6475   3.186   0.197   2.745
 1611SOL    MW4 6476   3.216   0.131   2.793
 1612SOL     OW 6477   3.119   0.366   2.625
 1612SOL    HW2 6478   3.052   0.426   2.654
 1612SOL    HW3 6479   3.116   0.370   2.529
 1612SOL    MW4 6480   3.110   0.374   2.616
 1613SOL     OW 6481   3.370   0.482   2.712
 1613SOL    HW2 6482   3.357   0.573   2.686
 1613SOL    HW3 6483   3.290   0.438   2.685
 1613SOL    MW4 6484   3.358   0.488   2.705
 1614SOL     OW 6485   3.370   0.748   2.625
 1614SOL    HW2 6486   3.444   0.808   2.632
 1614SOL    HW3 6487   3.354   0.740   2.531
 1614SOL    MW4 6488   3.378   0.755   2.614
 1615SOL     OW 6489   3.119   0.894   2.739
 1615SOL    HW2 6490   3.135   0.899   2.833
 1615SOL    HW3 6491   3.180   0.828   2.707
 1615SOL    MW4 6492   3.129   0.886   2.747
 1616SOL     OW 6493   3.140   1.150   2.637
 1616SOL    HW2 6494   3.136   1.060   2.668
 1616SOL    HW3 6495   3.141   1.143   2.542
 1616SOL    MW4 6496   3.140   1.138   2.629
 1617SOL     OW 6497   3.372   1.282   2.700
 1617SOL    HW2 6498   3.371   1.290   2.795
 1617SOL    HW3 6499   3.282   1.255   2.678
 1617SOL    MW4 6500   3.360   1.279   2.710
 1618SOL     OW 6501   3.370   1.550   2.621
 1618SOL    HW2 6502   3.286   1.584   2.652
 1618SOL    HW3 6503   3.369   1.458   2.645
 1618SOL    MW4 6504   3.359   1.542   2.628
 1619SOL     OW 6505   3.143   1.635   2.735
 1619SOL    HW2 6506   3.143   1.729   2.713
 1619SOL    HW3 6507   3.068   1.600   2.688
 1619SOL    MW4 6508   3.133   1.643   2.726
 1620SOL     OW 6509   3.163   1.915   2.665
 1620SOL    HW2 6510   3.235   1.970   2.695
 1620SOL    HW3 6511   3.084   1.962   2.692
 1620SOL    MW4 6512   3.162   1.929   2.672
 1621SOL     OW 6513   3.390   2.070   2.738
 1621SOL    HW2 6514   3.399   2.064   2.833
 1621SOL    HW3 6515   3.378   2.163   2.720
 1621SOL    MW4 6516   3.390   2.081   2.748
 1622SOL     OW 6517   3.382   2.340   2.677
 1622SOL    HW2 6518   3.471   2.372   2.690
 1622SOL    HW3 6519   3.372   2.332   2.582
 1622SOL    MW4 6520   3.392   2.343   2.667
 1623SOL     OW 6521   3.135   2.435   2.758
 1623SOL    HW2 6522   3.130   2.515   2.706
 1623SOL    HW3 6523   3.219   2.396   2.734
 1623SOL    MW4 6524   3.146   2.440   2.748
 1624SOL     OW 6525   3.119   2.677   2.633
 1624SOL    HW2 6526   3.197   2.731   2.648
 1624SOL    HW3 6527   3.046   2.731   2.660
 1624SOL    MW4 6528   3.120   2.691   2.639
 1625SOL     OW 6529   3.346   2.834   2.699
 1625SOL    HW2 6530   3.330   2.821   2.792
 1625SOL    HW3 6531   3.437   2.807   2.685
 1625SOL    MW4 6532   3.356   2.829   2.709
 1626SOL     OW 6533   3.370   3.087   2.616
 1626SOL    HW2 6534   3.354   2.997   2.642
 1626SOL    HW3 6535   3.372   3.085   2.520
 1626SOL    MW4 6536   3.368   3.075   2.607
 1627SOL     OW 6537   3.155   3.206   2.731
 1627SOL    HW2 6538   3.228   3.153   2.699
 1627SOL    HW3 6539   3.079   3.174   2.681
 1627SOL    MW4 6540   3.155   3.195   2.720
 1628SOL     OW 6541   3.141   3.487   2.622
 1628SOL    HW2 6542   3.154   3.400   2.659
 1628SOL    HW3 6543   3.059   3.518   2.659
 1628SOL    MW4 6544   3.132   3.480   2.632
 1629SOL     OW 6545   3.362   3.614   2.708
 1629SOL    HW2 6546   3.352   3.616   2.803
 1629SOL    HW3 6547   3.282   3.574   2.676
 1629SOL    MW4 6548   3.350   3.609   2.717
 1630SOL     OW 6549   3.351   3.883   2.628
 1630SOL    HW2 6550   3.368   3.791   2.650
 1630SOL    HW3 6551   3.318   3.880   2.538
 1630SOL    MW4 6552   3.349   3.870   2.619
 1631SOL     OW 6553   3.140   4.020   2.737
 1631SOL    HW2 6554   3.159   4.109   2.708
 1631SOL    HW3 6555   3.217   3.970   2.711
 1631SOL    MW4 6556   3.152   4.025   2.730
 1632SOL     OW 6557   3.181   4.296   2.642
 1632SOL    HW2 6558   3.104   4.333   2.687
 1632SOL    HW3 6559   3.165   4.311   2.549
 1632SOL    MW4 6560   3.169   4.303   2.636
 1633SOL     OW 6561   3.410   4.397   2.737
 1633SOL    HW2 6562   3.405   4.396   2.833
 1633SOL    HW3 6563   3.324   4.365   2.709
 1633SOL    MW4 6564   3.398   4.392   2.746
 1634SOL     OW 6565   3.829   4.661   2.671
 1634SOL    HW2 6566   3.820   4.568   2.696
 1634SOL    HW3 6567   3.751   4.703   2.706
 1634SOL    MW4 6568   3.818   4.654   2.679
 1635SOL     OW 6569   3.620   0.150   2.767
 1635SOL    HW2 6570   3.634   0.210   2.693
 1635SOL    HW3 6571   3.553   0.089   2.735
 1635SOL    MW4 6572   3.613   0.150   2.753
 1636SOL     OW 6573   3.630   0.386   2.600
 1636SOL    HW2 6574   3.710   0.424   2.638
 1636SOL    HW3 6575   3.560   0.420   2.655
 1636SOL    MW4 6576   3.632   0.396   2.613
 1637SOL     OW 6577   3.842   0.496   2.733
 1637SOL    HW2 6578   3.845   0.488   2.829
 1637SOL    HW3 6579   3.922   0.452   2.704
 1637SOL    MW4 6580   3.853   0.489   2.742
 1638SOL     OW 6581   3.796   0.729   2.593
 1638SOL    HW2 6582   3.722   0.776   2.629
 1638SOL    HW3 6583   3.809   0.655   2.652
 1638SOL    MW4 6584   3.788   0.725   2.606
 1639SOL     OW 6585   3.609   0.875   2.710
 1639SOL    HW2 6586   3.589   0.866   2.803
 1639SOL    HW3 6587   3.621   0.970   2.698
 1639SOL    MW4 6588   3.608   0.887   2.721
 1640SOL     OW 6589   3.580   1.139   2.604
 1640SOL    HW2 6590   3.655   1.184   2.643
 1640SOL    HW3 6591   3.503   1.181   2.643
 1640SOL    MW4 6592   3.580   1.150   2.614
 1641SOL     OW 6593   3.774   1.260   2.761
 1641SOL    HW2 6594   3.851   1.214   2.726
 1641SOL    HW3 6595   3.794   1.352   2.750
 1641SOL    MW4 6596   3.787   1.266   2.755
 1642SOL     OW 6597   3.829   1.535   2.655
 1642SOL    HW2 6598   3.904   1.581   2.694
 1642SOL    HW3 6599   3.752   1.583   2.688
 1642SOL    MW4 6600   3.829   1.547   2.665
 1643SOL     OW 6601   3.598   1.657   2.741
 1643SOL    HW2 6602   3.592   1.748   2.712
 1643SOL    HW3 6603   3.521   1.615   2.703
 1643SOL    MW4 6604   3.587   1.663   2.733
 1644SOL     OW 6605   3.588   1.908   2.636
 1644SOL    HW2 6606   3.516   1.964   2.664
 1644SOL    HW3 6607   3.581   1.907   2.540
 1644SOL    MW4 6608   3.578   1.915   2.627
 1645SOL     OW 6609   3.851   2.044   2.701
 1645SOL    HW2 6610   3.923   1.992   2.666
 1645SOL    HW3 6611   3.772   2.000   2.670
 1645SOL    MW4 6612   3.850   2.032   2.692
 1646SOL     OW 6613   3.861   2.306   2.650
 1646SOL    HW2 6614   3.860   2.211   2.666
 1646SOL    HW3 6615   3.804   2.318   2.575
 1646SOL    MW4 6616   3.853   2.295   2.643
 1647SOL     OW 6617   3.636   2.441   2.740
 1647SOL    HW2 6618   3.630   2.451   2.835
 1647SOL    HW3 6619   3.710   2.382   2.726
 1647SOL    MW4 6620   3.645   2.434   2.750
 1648SOL     OW 6621   3.589   2.709   2.625
 1648SOL    HW2 6622   3.598   2.617   2.651
 1648SOL    HW3 6623   3.587   2.707   2.529
 1648SOL    MW4 6624   3.590   2.696   2.616
 1649SOL     OW 6625   3.843   2.853   2.697
 1649SOL    HW2 6626   3.920   2.803   2.671
 1649SOL    HW3 6627   3.769   2.797   2.673
 1649SOL    MW4 6628   3.843   2.839   2.690
 1650SOL     OW 6629   3.841   3.136   2.617
 1650SOL    HW2 6630   3.767   3.169   2.667
 1650SOL    HW3 6631   3.851   3.046   2.647
 1650SOL    MW4 6632   3.833   3.129   2.628
 1651SOL     OW 6633   3.589   3.239   2.712
 1651SOL    HW2 6634   3.584   3.331   2.686
 1651SOL    HW3 6635   3.526   3.195   2.655
 1651SOL    MW4 6636   3.580   3.245   2.701
 1652SOL     OW 6637   3.594   3.495   2.621
 1652SOL    HW2 6638   3.666   3.536   2.670
 1652SOL    HW3 6639   3.516   3.539   2.653
 1652SOL    MW4 6640   3.594   3.506   2.632
 1653SOL     OW 6641   3.811   3.609   2.761
 1653SOL    HW2 6642   3.885   3.566   2.719
 1653SOL    HW3 6643   3.815   3.700   2.732
 1653SOL    MW4 6644   3.821   3.615   2.752
 1654SOL     OW 6645   3.841   3.845   2.626
 1654SOL    HW2 6646   3.909   3.905   2.658
 1654SOL    HW3 6647   3.759   3.887   2.654
 1654SOL    MW4 6648   3.839   3.859   2.634
 1655SOL     OW 6649   3.597   3.952   2.711
 1655SOL    HW2 6650   3.600   4.046   2.699
 1655SOL    HW3 6651   3.511   3.926   2.679
 1655SOL    MW4 6652   3.586   3.961   2.705
 1656SOL     OW 6653   3.598   4.219   2.642
 1656SOL    HW2 6654   3.528   4.280   2.665
 1656SOL    HW3 6655   3.615   4.235   2.549
 1656SOL    MW4 6656   3.591   4.229   2.633
 1657SOL     OW 6657   3.802   4.382   2.730
 1657SOL    HW2 6658   3.887   4.348   2.705
 1657SOL    HW3 6659   3.739   4.323   2.688
 1657SOL    MW4 6660   3.805   4.370   2.721
 1658SOL     OW 6661   4.267   0.008   2.576
 1658SOL    HW2 6662   4.227   0.065   2.642
 1658SOL    HW3 6663   4.359   0.006   2.600
 1658SOL    MW4 6664   4.274   0.015   2.588
 1659SOL     OW 6665   4.075   0.096   2.774
 1659SOL    HW2 6666   4.073   0.114   2.868
 1659SOL    HW3 6667   3.985   0.074   2.752
 1659SOL    MW4 6668   4.063   0.096   2.784
 1660SOL     OW 6669   4.050   0.347   2.621
 1660SOL    HW2 6670   4.032   0.260   2.656
 1660SOL    HW3 6671   4.025   0.341   2.529
 1660SOL    MW4 6672   4.044   0.335   2.613
 1661SOL     OW 6673   4.307   0.473   2.721
 1661SOL    HW2 6674   4.224   0.428   2.705
 1661SOL    HW3 6675   4.374   0.409   2.700
 1661SOL    MW4 6676   4.305   0.459   2.716
 1662SOL     OW 6677   4.212   0.727   2.631
 1662SOL    HW2 6678   4.243   0.640   2.657
 1662SOL    HW3 6679   4.220   0.728   2.535
 1662SOL    MW4 6680   4.217   0.716   2.621
 1663SOL     OW 6681   3.999   0.871   2.701
 1663SOL    HW2 6682   4.076   0.817   2.684
 1663SOL    HW3 6683   3.928   0.825   2.657
 1663SOL    MW4 6684   4.000   0.858   2.693
 1664SOL     OW 6685   4.000   1.135   2.622
 1664SOL    HW2 6686   4.073   1.173   2.672
 1664SOL    HW3 6687   3.990   1.047   2.659
 1664SOL    MW4 6688   4.008   1.128   2.634
 1665SOL     OW 6689   4.212   1.251   2.737
 1665SOL    HW2 6690   4.217   1.347   2.727
 1665SOL    HW3 6691   4.299   1.220   2.711
 1665SOL    MW4 6692   4.224   1.260   2.732
 1666SOL     OW 6693   4.245   1.506   2.627
 1666SOL    HW2 6694   4.334   1.530   2.654
 1666SOL    HW3 6695   4.254   1.481   2.535
 1666SOL    MW4 6696   4.258   1.506   2.619
 1667SOL     OW 6697   4.044   1.663   2.763
 1667SOL    HW2 6698   4.057   1.654   2.858
 1667SOL    HW3 6699   4.113   1.610   2.724
 1667SOL    MW4 6700   4.055   1.654   2.771
 1668SOL     OW 6701   4.056   1.900   2.597
 1668SOL    HW2 6702   4.117   1.959   2.643
 1668SOL    HW3 6703   4.067   1.816   2.640
 1668SOL    MW4 6704   4.066   1.897   2.609
 1669SOL     OW 6705   4.254   2.054   2.720
 1669SOL    HW2 6706   4.265   2.142   2.684
 1669SOL    HW3 6707   4.339   2.012   2.706
 1669SOL    MW4 6708   4.266   2.060   2.713
 1670SOL     OW 6709   4.297   2.314   2.600
 1670SOL    HW2 6710   4.238   2.379   2.637
 1670SOL    HW3 6711   4.273   2.308   2.508
 1670SOL    MW4 6712   4.286   2.322   2.593
 1671SOL     OW 6713   4.087   2.462   2.723
 1671SOL    HW2 6714   4.096   2.464   2.818
 1671SOL    HW3 6715   4.018   2.396   2.708
 1671SOL    MW4 6716   4.079   2.453   2.734
 1672SOL     OW 6717   4.035   2.696   2.583
 1672SOL    HW2 6718   4.118   2.740   2.604
 1672SOL    HW3 6719   4.040   2.613   2.631
 1672SOL    MW4 6720   4.047   2.691   2.592
 1673SOL     OW 6721   4.261   2.825   2.717
 1673SOL    HW2 6722   4.248   2.833   2.811
 1673SOL    HW3 6723   4.266   2.915   2.685
 1673SOL    MW4 6724   4.260   2.838   2.725
 1674SOL     OW 6725   4.288   3.086   2.608
 1674SOL    HW2 6726   4.211   3.136   2.637
 1674SOL    HW3 6727   4.276   3.077   2.513
 1674SOL    MW4 6728   4.276   3.092   2.599
 1675SOL     OW 6729   4.073   3.242   2.714
 1675SOL    HW2 6730   4.054   3.330   2.682
 1675SOL    HW3 6731   4.000   3.189   2.681
 1675SOL    MW4 6732   4.061   3.247   2.705
 1676SOL     OW 6733   4.042   3.503   2.630
 1676SOL    HW2 6734   4.120   3.548   2.663
 1676SOL    HW3 6735   4.059   3.491   2.537
 1676SOL    MW4 6736   4.055   3.508   2.622
 1677SOL     OW 6737   4.253   3.631   2.727
 1677SOL    HW2 6738   4.253   3.622   2.822
 1677SOL    HW3 6739   4.327   3.578   2.698
 1677SOL    MW4 6740   4.263   3.622   2.736
 1678SOL     OW 6741   4.268   3.878   2.597
 1678SOL    HW2 6742   4.265   3.790   2.634
 1678SOL    HW3 6743   4.332   3.924   2.651
 1678SOL    MW4 6744   4.276   3.872   2.609
 1679SOL     OW 6745   4.054   3.993   2.727
 1679SOL    HW2 6746   4.074   3.994   2.820
 1679SOL    HW3 6747   4.131   3.951   2.686
 1679SOL    MW4 6748   4.067   3.987   2.734
 1680SOL     OW 6749   4.040   4.280   2.636
 1680SOL    HW2 6750   4.047   4.188   2.662
 1680SOL    HW3 6751   4.011   4.277   2.545
 1680SOL    MW4 6752   4.037   4.267   2.627
 1681SOL     OW 6753   4.269   4.426   2.749
 1681SOL    HW2 6754   4.189   4.384   2.717
 1681SOL    HW3 6755   4.269   4.513   2.708
 1681SOL    MW4 6756   4.259   4.432   2.739
 1682SOL     OW 6757   0.217   4.643   3.114
 1682SOL    HW2 6758   0.207   4.642   3.209
 1682SOL    HW3 6759   0.136   4.684   3.082
 1682SOL    MW4 6760   0.205   4.648   3.122
 1683SOL     OW 6761   4.486   0.099   2.991
 1683SOL    HW2 6762   4.403   0.074   3.030
 1683SOL    HW3 6763   4.495   0.193   3.008
 1683SOL    MW4 6764   4.476   0.108   2.998
 1684SOL     OW 6765   4.489   0.359   3.088
 1684SOL    HW2 6766   4.475   0.356   3.183
 1684SOL    HW3 6767   4.409   0.399   3.053
 1684SOL    MW4 6768   4.477   0.364   3.096
 1685SOL     OW 6769   0.207   0.528   2.987
 1685SOL    HW2 6770   0.288   0.486   3.014
 1685SOL    HW3 6771   0.138   0.466   3.010
 1685SOL    MW4 6772   0.209   0.515   2.993
 1686SOL     OW 6773   0.225   0.794   3.053
 1686SOL    HW2 6774   0.226   0.788   3.149
 1686SOL    HW3 6775   0.220   0.703   3.024
 1686SOL    MW4 6776   0.224   0.781   3.062
 1687SOL     OW 6777   4.480   0.910   2.971
 1687SOL    HW2 6778   4.564   0.866   2.984
 1687SOL    HW3 6779   4.461   0.899   2.878
 1687SOL    MW4 6780   4.489   0.903   2.960
 1688SOL     OW 6781   4.445   1.151   3.096
 1688SOL    HW2 6782   4.368   1.184   3.050
 1688SOL    HW3 6783   4.464   1.067   3.053
 1688SOL    MW4 6784   4.437   1.144   3.084
 1689SOL     OW 6785   0.197   1.266   3.019
 1689SOL    HW2 6786   0.109   1.232   3.039
 1689SOL    HW3 6787   0.196   1.280   2.925
 1689SOL    MW4 6788   0.185   1.264   3.009
 1690SOL     OW 6789   0.216   1.530   3.078
 1690SOL    HW2 6790   0.135   1.565   3.040
 1690SOL    HW3 6791   0.219   1.438   3.049
 1690SOL    MW4 6792   0.206   1.522   3.069
 1691SOL     OW 6793   4.434   1.644   2.989
 1691SOL    HW2 6794   4.380   1.606   3.059
 1691SOL    HW3 6795   4.442   1.736   3.013
 1691SOL    MW4 6796   4.428   1.651   3.002
 1692SOL     OW 6797   4.453   1.919   3.049
 1692SOL    HW2 6798   4.371   1.968   3.039
 1692SOL    HW3 6799   4.520   1.977   3.011
 1692SOL    MW4 6800   4.451   1.933   3.043
 1693SOL     OW 6801   0.203   2.068   2.998
 1693SOL    HW2 6802   0.188   2.160   3.019
 1693SOL    HW3 6803   0.216   2.067   2.903
 1693SOL    MW4 6804   0.203   2.080   2.988
 1694SOL     OW 6805   0.175   2.331   3.076
 1694SOL    HW2 6806   0.203   2.326   3.168
 1694SOL    HW3 6807   0.246   2.378   3.032
 1694SOL    MW4 6808   0.188   2.337   3.083
 1695SOL     OW 6809   4.449   2.479   2.999
 1695SOL    HW2 6810   4.453   2.572   3.021
 1695SOL    HW3 6811   4.523   2.440   3.046
 1695SOL    MW4 6812   4.459   2.486   3.008
 1696SOL     OW 6813   4.471   2.744   3.088
 1696SOL    HW2 6814   4.479   2.720   3.181
 1696SOL    HW3 6815   4.560   2.768   3.062
 1696SOL    MW4 6816   4.484   2.744   3.097
 1697SOL     OW 6817   0.222   2.857   3.005
 1697SOL    HW2 6818   0.301   2.804   3.021
 1697SOL    HW3 6819   0.209   2.851   2.910
 1697SOL    MW4 6820   0.231   2.849   2.994
 1698SOL     OW 6821   0.229   3.120   3.115
 1698SOL    HW2 6822   0.138   3.143   3.095
 1698SOL    HW3 6823   0.238   3.029   3.086
 1698SOL    MW4 6824   0.218   3.111   3.108
 1699SOL     OW 6825   4.481   3.226   3.027
 1699SOL    HW2 6826   4.407   3.172   3.055
 1699SOL    HW3 6827   4.480   3.222   2.932
 1699SOL    MW4 6828   4.471   3.219   3.018
 1700SOL     OW 6829   0.002   3.483   3.133
 1700SOL    HW2 6830  -0.073   3.529   3.096
 1700SOL    HW3 6831  -0.001   3.396   3.093
 1700SOL    MW4 6832  -0.008   3.477   3.123
 1701SOL     OW 6833   0.230   3.616   2.993
 1701SOL    HW2 6834   0.226   3.706   3.025
 1701SOL    HW3 6835   0.166   3.569   3.047
 1701SOL    MW4 6836   0.221   3.622   3.005
 1702SOL     OW 6837   0.208   3.877   3.089
 1702SOL    HW2 6838   0.216   3.870   3.184
 1702SOL    HW3 6839   0.284   3.930   3.063
 1702SOL    MW4 6840   0.219   3.883   3.098
 1703SOL     OW 6841   4.474   4.005   3.019
 1703SOL    HW2 6842   4.542   3.942   3.044
 1703SOL    HW3 6843   4.475   4.005   2.924
 1703SOL    MW4 6844   4.483   3.997   3.010
 1704SOL     OW 6845   4.429   4.264   3.085
 1704SOL    HW2 6846   4.431   4.267   3.181
 1704SOL    HW3 6847   4.450   4.173   3.064
 1704SOL    MW4 6848   4.432   4.253   3.095
 1705SOL     OW 6849   0.209   4.374   3.030
 1705SOL    HW2 6850   0.137   4.344   3.085
 1705SOL    HW3 6851   0.210   4.469   3.041
 1705SOL    MW4 6852   0.199   4.382   3.039
 1706SOL     OW 6853   0.699   4.642   3.101
 1706SOL    HW2 6854   0.684   4.553   3.071
 1706SOL    HW3 6855   0.616   4.687   3.084
 1706SOL    MW4 6856   0.686   4.636   3.095
 1707SOL     OW 6857   0.461   0.102   3.065
 1707SOL    HW2 6858   0.452   0.197   3.056
 1707SOL    HW3 6859   0.371   0.071   3.079
 1707SOL    MW4 6860   0.448   0.111   3.066
 1708SOL     OW 6861   0.443   0.386   3.045
 1708SOL    HW2 6862   0.437   0.405   3.139
 1708SOL    HW3 6863   0.520   0.434   3.016
 1708SOL    MW4 6864   0.452   0.395   3.053
 1709SOL     OW 6865   0.671   0.538   3.012
 1709SOL    HW2 6866   0.747   0.489   3.041
 1709SOL    HW3 6867   0.670   0.616   3.068
 1709SOL    MW4 6868   0.681   0.542   3.023
 1710SOL     OW 6869   0.738   0.819   3.114
 1710SOL    HW2 6870   0.719   0.816   3.208
 1710SOL    HW3 6871   0.663   0.863   3.075
 1710SOL    MW4 6872   0.725   0.824   3.122
 1711SOL     OW 6873   0.480   0.913   2.989
 1711SOL    HW2 6874   0.406   0.861   3.021
 1711SOL    HW3 6875   0.476   0.905   2.894
 1711SOL    MW4 6876   0.470   0.905   2.981
 1712SOL     OW 6877   0.455   1.179   3.092
 1712SOL    HW2 6878   0.454   1.090   3.057
 1712SOL    HW3 6879   0.363   1.206   3.091
 1712SOL    MW4 6880   0.442   1.171   3.087
 1713SOL     OW 6881   0.674   1.287   2.968
 1713SOL    HW2 6882   0.749   1.245   3.010
 1713SOL    HW3 6883   0.598   1.251   3.014
 1713SOL    MW4 6884   0.674   1.277   2.980
 1714SOL     OW 6885   0.658   1.552   3.087
 1714SOL    HW2 6886   0.634   1.530   3.177
 1714SOL    HW3 6887   0.680   1.469   3.046
 1714SOL    MW4 6888   0.657   1.538   3.093
 1715SOL     OW 6889   0.431   1.641   2.973
 1715SOL    HW2 6890   0.510   1.614   3.018
 1715SOL    HW3 6891   0.360   1.596   3.020
 1715SOL    MW4 6892   0.432   1.631   2.985
 1716SOL     OW 6893   0.418   1.922   3.091
 1716SOL    HW2 6894   0.403   1.837   3.049
 1716SOL    HW3 6895   0.352   1.979   3.053
 1716SOL    MW4 6896   0.407   1.918   3.081
 1717SOL     OW 6897   0.656   2.058   2.988
 1717SOL    HW2 6898   0.730   2.011   3.027
 1717SOL    HW3 6899   0.580   2.027   3.037
 1717SOL    MW4 6900   0.656   2.048   3.000
 1718SOL     OW 6901   0.627   2.336   3.081
 1718SOL    HW2 6902   0.629   2.337   3.177
 1718SOL    HW3 6903   0.641   2.244   3.058
 1718SOL    MW4 6904   0.629   2.324   3.091
 1719SOL     OW 6905   0.400   2.446   2.945
 1719SOL    HW2 6906   0.474   2.403   2.988
 1719SOL    HW3 6907   0.422   2.447   2.852
 1719SOL    MW4 6908   0.413   2.441   2.939
 1720SOL     OW 6909   0.420   2.698   3.132
 1720SOL    HW2 6910   0.496   2.748   3.103
 1720SOL    HW3 6911   0.411   2.628   3.068
 1720SOL    MW4 6912   0.429   2.695   3.120
 1721SOL     OW 6913   0.635   2.813   3.004
 1721SOL    HW2 6914   0.714   2.768   3.035
 1721SOL    HW3 6915   0.639   2.899   3.045
 1721SOL    MW4 6916   0.646   2.818   3.014
 1722SOL     OW 6917   0.631   3.089   3.098
 1722SOL    HW2 6918   0.637   3.115   3.190
 1722SOL    HW3 6919   0.577   3.156   3.057
 1722SOL    MW4 6920   0.625   3.101   3.105
 1723SOL     OW 6921   0.441   3.249   2.984
 1723SOL    HW2 6922   0.452   3.335   3.024
 1723SOL    HW3 6923   0.355   3.218   3.015
 1723SOL    MW4 6924   0.431   3.256   2.993
 1724SOL     OW 6925   0.454   3.490   3.108
 1724SOL    HW2 6926   0.463   3.498   3.203
 1724SOL    HW3 6927   0.373   3.536   3.088
 1724SOL    MW4 6928   0.445   3.497   3.118
 1725SOL     OW 6929   0.654   3.642   3.012
 1725SOL    HW2 6930   0.723   3.603   3.066
 1725SOL    HW3 6931   0.578   3.585   3.025
 1725SOL    MW4 6932   0.653   3.629   3.021
 1726SOL     OW 6933   0.659   3.900   3.132
 1726SOL    HW2 6934   0.663   3.894   3.228
 1726SOL    HW3 6935   0.662   3.809   3.103
 1726SOL    MW4 6936   0.660   3.887   3.141
 1727SOL     OW 6937   0.436   4.009   2.995
 1727SOL    HW2 6938   0.499   3.952   3.040
 1727SOL    HW3 6939   0.452   3.993   2.902
 1727SOL    MW4 6940   0.447   3.999   2.989
 1728SOL     OW 6941   0.456   4.252   3.085
 1728SOL    HW2 6942   0.440   4.164   3.053
 1728SOL    HW3 6943   0.390   4.306   3.041
 1728SOL    MW4 6944   0.445   4.248   3.075
 1729SOL     OW 6945   0.687   4.368   3.018
 1729SOL    HW2 6946   0.606   4.330   3.052
 1729SOL    HW3 6947   0.673   4.373   2.923
 1729SOL    MW4 6948   0.675   4.364   3.010
 1730SOL     OW 6949   1.128   4.643   3.103
 1730SOL    HW2 6950   1.202   4.685   3.059
 1730SOL    HW3 6951   1.054   4.702   3.088
 1730SOL    MW4 6952   1.128   4.656   3.095
 1731SOL     OW 6953   0.904   0.145   3.012
 1731SOL    HW2 6954   0.894   0.229   3.056
 1731SOL    HW3 6955   0.827   0.094   3.039
 1731SOL    MW4 6956   0.892   0.149   3.021
 1732SOL     OW 6957   0.890   0.414   3.096
 1732SOL    HW2 6958   0.905   0.419   3.190
 1732SOL    HW3 6959   0.968   0.453   3.057
 1732SOL    MW4 6960   0.902   0.420   3.103
 1733SOL     OW 6961   1.131   0.518   2.980
 1733SOL    HW2 6962   1.198   0.465   3.025
 1733SOL    HW3 6963   1.138   0.490   2.888
 1733SOL    MW4 6964   1.141   0.507   2.973
 1734SOL     OW 6965   1.173   0.768   3.085
 1734SOL    HW2 6966   1.164   0.767   3.181
 1734SOL    HW3 6967   1.161   0.676   3.059
 1734SOL    MW4 6968   1.170   0.755   3.095
 1735SOL     OW 6969   0.959   0.893   2.970
 1735SOL    HW2 6970   1.025   0.846   3.021
 1735SOL    HW3 6971   0.876   0.867   3.010
 1735SOL    MW4 6972   0.957   0.883   2.982
 1736SOL     OW 6973   0.897   1.155   3.075
 1736SOL    HW2 6974   0.967   1.210   3.038
 1736SOL    HW3 6975   0.925   1.065   3.056
 1736SOL    MW4 6976   0.910   1.150   3.067
 1737SOL     OW 6977   1.107   1.302   3.006
 1737SOL    HW2 6978   1.182   1.260   3.049
 1737SOL    HW3 6979   1.114   1.275   2.915
 1737SOL    MW4 6980   1.118   1.293   3.000
 1738SOL     OW 6981   1.109   1.574   3.094
 1738SOL    HW2 6982   1.190   1.624   3.081
 1738SOL    HW3 6983   1.127   1.488   3.056
 1738SOL    MW4 6984   1.122   1.569   3.088
 1739SOL     OW 6985   0.869   1.668   2.975
 1739SOL    HW2 6986   0.951   1.632   3.008
 1739SOL    HW3 6987   0.801   1.623   3.026
 1739SOL    MW4 6988   0.871   1.657   2.986
 1740SOL     OW 6989   0.887   1.916   3.086
 1740SOL    HW2 6990   0.897   1.912   3.181
 1740SOL    HW3 6991   0.890   1.824   3.058
 1740SOL    MW4 6992   0.889   1.903   3.095
 1741SOL     OW 6993   1.111   2.048   3.011
 1741SOL    HW2 6994   1.032   2.004   3.041
 1741SOL    HW3 6995   1.105   2.047   2.916
 1741SOL    MW4 6996   1.100   2.042   3.002
 1742SOL     OW 6997   1.105   2.298   3.131
 1742SOL    HW2 6998   1.027   2.337   3.092
 1742SOL    HW3 6999   1.101   2.206   3.106
 1742SOL    MW4 7000   1.094   2.291   3.122
 1743SOL     OW 7001   0.884   2.412   3.010
 1743SOL    HW2 7002   0.794   2.382   3.027
 1743SOL    HW3 7003   0.886   2.427   2.916
 1743SOL    MW4 7004   0.872   2.410   3.000
 1744SOL     OW 7005   0.889   2.681   3.068
 1744SOL    HW2 7006   0.914   2.684   3.160
 1744SOL    HW3 7007   0.887   2.587   3.047
 1744SOL    MW4 7008   0.892   2.669   3.078
 1745SOL     OW 7009   1.133   2.811   2.999
 1745SOL    HW2 7010   1.123   2.900   3.032
 1745SOL    HW3 7011   1.054   2.766   3.028
 1745SOL    MW4 7012   1.122   2.817   3.007
 1746SOL     OW 7013   1.120   3.081   3.095
 1746SOL    HW2 7014   1.189   3.146   3.082
 1746SOL    HW3 7015   1.042   3.120   3.058
 1746SOL    MW4 7016   1.119   3.094   3.089
 1747SOL     OW 7017   0.893   3.223   3.032
 1747SOL    HW2 7018   0.819   3.165   3.051
 1747SOL    HW3 7019   0.891   3.233   2.937
 1747SOL    MW4 7020   0.883   3.216   3.022
 1748SOL     OW 7021   0.876   3.512   3.112
 1748SOL    HW2 7022   0.959   3.548   3.079
 1748SOL    HW3 7023   0.879   3.420   3.088
 1748SOL    MW4 7024   0.887   3.505   3.105
 1749SOL     OW 7025   1.107   3.623   3.017
 1749SOL    HW2 7026   1.185   3.579   3.051
 1749SOL    HW3 7027   1.112   3.712   3.052
 1749SOL    MW4 7028   1.118   3.629   3.026
 1750SOL     OW 7029   1.143   3.887   3.111
 1750SOL    HW2 7030   1.150   3.892   3.206
 1750SOL    HW3 7031   1.061   3.932   3.091
 1750SOL    MW4 7032   1.133   3.893   3.121
 1751SOL     OW 7033   0.897   3.997   3.039
 1751SOL    HW2 7034   0.814   3.959   3.067
 1751SOL    HW3 7035   0.892   3.998   2.944
 1751SOL    MW4 7036   0.885   3.992   3.030
 1752SOL     OW 7037   0.882   4.262   3.165
 1752SOL    HW2 7038   0.880   4.169   3.140
 1752SOL    HW3 7039   0.814   4.303   3.112
 1752SOL    MW4 7040   0.873   4.255   3.155
 1753SOL     OW 7041   1.124   4.373   3.023
 1753SOL    HW2 7042   1.047   4.343   3.072
 1753SOL    HW3 7043   1.135   4.464   3.050
 1753SOL    MW4 7044   1.115   4.381   3.033
 1754SOL     OW 7045   1.548   4.637   3.097
 1754SOL    HW2 7046   1.537   4.640   3.192
 1754SOL    HW3 7047   1.479   4.695   3.063
 1754SOL    MW4 7048   1.537   4.645   3.105
 1755SOL     OW 7049   1.346   0.123   3.005
 1755SOL    HW2 7050   1.332   0.206   3.050
 1755SOL    HW3 7051   1.335   0.144   2.912
 1755SOL    MW4 7052   1.343   0.137   2.999
 1756SOL     OW 7053   1.317   0.375   3.126
 1756SOL    HW2 7054   1.299   0.372   3.220
 1756SOL    HW3 7055   1.410   0.396   3.119
 1756SOL    MW4 7056   1.327   0.377   3.137
 1757SOL     OW 7057   1.574   0.469   3.052
 1757SOL    HW2 7058   1.586   0.563   3.062
 1757SOL    HW3 7059   1.548   0.458   2.960
 1757SOL    MW4 7060   1.572   0.480   3.041
 1758SOL     OW 7061   1.591   0.753   3.106
 1758SOL    HW2 7062   1.582   0.747   3.201
 1758SOL    HW3 7063   1.517   0.806   3.078
 1758SOL    MW4 7064   1.580   0.759   3.115
 1759SOL     OW 7065   1.397   0.913   2.990
 1759SOL    HW2 7066   1.396   1.003   3.022
 1759SOL    HW3 7067   1.309   0.880   3.006
 1759SOL    MW4 7068   1.385   0.920   2.996
 1760SOL     OW 7069   1.332   1.173   3.088
 1760SOL    HW2 7070   1.350   1.148   3.179
 1760SOL    HW3 7071   1.414   1.211   3.057
 1760SOL    MW4 7072   1.345   1.175   3.096
 1761SOL     OW 7073   1.560   1.258   2.970
 1761SOL    HW2 7074   1.626   1.211   3.021
 1761SOL    HW3 7075   1.559   1.346   3.008
 1761SOL    MW4 7076   1.569   1.264   2.982
 1762SOL     OW 7077   1.569   1.509   3.074
 1762SOL    HW2 7078   1.647   1.563   3.062
 1762SOL    HW3 7079   1.496   1.566   3.049
 1762SOL    MW4 7080   1.569   1.523   3.069
 1763SOL     OW 7081   1.360   1.691   3.013
 1763SOL    HW2 7082   1.353   1.778   3.052
 1763SOL    HW3 7083   1.344   1.704   2.920
 1763SOL    MW4 7084   1.357   1.704   3.006
 1764SOL     OW 7085   1.340   1.930   3.115
 1764SOL    HW2 7086   1.341   1.955   3.208
 1764SOL    HW3 7087   1.262   1.972   3.079
 1764SOL    MW4 7088   1.330   1.939   3.123
 1765SOL     OW 7089   1.558   2.066   2.994
 1765SOL    HW2 7090   1.486   2.013   3.028
 1765SOL    HW3 7091   1.538   2.077   2.901
 1765SOL    MW4 7092   1.546   2.060   2.986
 1766SOL     OW 7093   1.583   2.327   3.131
 1766SOL    HW2 7094   1.503   2.378   3.120
 1766SOL    HW3 7095   1.573   2.253   3.072
 1766SOL    MW4 7096   1.572   2.324   3.122
 1767SOL     OW 7097   1.348   2.460   3.010
 1767SOL    HW2 7098   1.261   2.430   3.034
 1767SOL    HW3 7099   1.353   2.450   2.915
 1767SOL    MW4 7100   1.337   2.455   3.001
 1768SOL     OW 7101   1.372   2.715   3.118
 1768SOL    HW2 7102   1.398   2.628   3.088
 1768SOL    HW3 7103   1.290   2.732   3.072
 1768SOL    MW4 7104   1.365   2.705   3.108
 1769SOL     OW 7105   1.571   2.857   2.982
 1769SOL    HW2 7106   1.653   2.832   3.025
 1769SOL    HW3 7107   1.503   2.824   3.041
 1769SOL    MW4 7108   1.573   2.849   2.996
 1770SOL     OW 7109   1.582   3.115   3.058
 1770SOL    HW2 7110   1.563   3.087   3.147
 1770SOL    HW3 7111   1.573   3.036   3.005
 1770SOL    MW4 7112   1.578   3.101   3.063
 1771SOL     OW 7113   1.343   3.253   3.012
 1771SOL    HW2 7114   1.432   3.224   3.029
 1771SOL    HW3 7115   1.341   3.271   2.918
 1771SOL    MW4 7116   1.354   3.252   3.002
 1772SOL     OW 7117   1.326   3.495   3.137
 1772SOL    HW2 7118   1.310   3.490   3.231
 1772SOL    HW3 7119   1.326   3.404   3.108
 1772SOL    MW4 7120   1.324   3.482   3.145
 1773SOL     OW 7121   1.548   3.624   3.033
 1773SOL    HW2 7122   1.466   3.580   3.057
 1773SOL    HW3 7123   1.553   3.616   2.938
 1773SOL    MW4 7124   1.538   3.617   3.024
 1774SOL     OW 7125   1.581   3.887   3.154
 1774SOL    HW2 7126   1.662   3.911   3.109
 1774SOL    HW3 7127   1.570   3.794   3.135
 1774SOL    MW4 7128   1.590   3.878   3.145
 1775SOL     OW 7129   1.379   3.984   2.988
 1775SOL    HW2 7130   1.448   3.929   3.026
 1775SOL    HW3 7131   1.298   3.940   3.013
 1775SOL    MW4 7132   1.378   3.971   2.996
 1776SOL     OW 7133   1.341   4.230   3.148
 1776SOL    HW2 7134   1.357   4.141   3.118
 1776SOL    HW3 7135   1.263   4.258   3.099
 1776SOL    MW4 7136   1.333   4.222   3.138
 1777SOL     OW 7137   1.546   4.366   3.026
 1777SOL    HW2 7138   1.479   4.311   3.068
 1777SOL    HW3 7139   1.523   4.455   3.053
 1777SOL    MW4 7140   1.534   4.371   3.035
 1778SOL     OW 7141   2.019   0.008   3.114
 1778SOL    HW2 7142   2.010  -0.010   3.208
 1778SOL    HW3 7143   1.930   0.023   3.084
 1778SOL    MW4 7144   2.006   0.007   3.123
 1779SOL     OW 7145   1.798   0.099   3.012
 1779SOL    HW2 7146   1.719   0.055   3.043
 1779SOL    HW3 7147   1.797   0.086   2.917
 1779SOL    MW4 7148   1.788   0.092   3.004
 1780SOL     OW 7149   1.810   0.348   3.154
 1780SOL    HW2 7150   1.821   0.265   3.109
 1780SOL    HW3 7151   1.725   0.380   3.125
 1780SOL    MW4 7152   1.801   0.341   3.144
 1781SOL     OW 7153   2.017   0.505   3.026
 1781SOL    HW2 7154   1.933   0.465   3.047
 1781SOL    HW3 7155   2.023   0.500   2.930
 1781SOL    MW4 7156   2.007   0.499   3.016
 1782SOL     OW 7157   2.076   0.761   3.109
 1782SOL    HW2 7158   1.993   0.804   3.092
 1782SOL    HW3 7159   2.067   0.674   3.069
 1782SOL    MW4 7160   2.064   0.755   3.101
 1783SOL     OW 7161   1.826   0.885   3.026
 1783SOL    HW2 7162   1.747   0.835   3.047
 1783SOL    HW3 7163   1.827   0.889   2.931
 1783SOL    MW4 7164   1.816   0.879   3.016
 1784SOL     OW 7165   1.768   1.137   3.101
 1784SOL    HW2 7166   1.778   1.135   3.196
 1784SOL    HW3 7167   1.781   1.047   3.073
 1784SOL    MW4 7168   1.771   1.125   3.110
 1785SOL     OW 7169   1.994   1.289   3.020
 1785SOL    HW2 7170   2.070   1.259   3.069
 1785SOL    HW3 7171   1.924   1.229   3.045
 1785SOL    MW4 7172   1.995   1.277   3.030
 1786SOL     OW 7173   1.995   1.537   3.114
 1786SOL    HW2 7174   1.996   1.531   3.209
 1786SOL    HW3 7175   2.003   1.446   3.084
 1786SOL    MW4 7176   1.997   1.524   3.123
 1787SOL     OW 7177   1.780   1.680   2.997
 1787SOL    HW2 7178   1.767   1.759   3.049
 1787SOL    HW3 7179   1.853   1.635   3.039
 1787SOL    MW4 7180   1.788   1.685   3.009
 1788SOL     OW 7181   1.764   1.938   3.113
 1788SOL    HW2 7182   1.844   1.973   3.072
 1788SOL    HW3 7183   1.693   1.975   3.061
 1788SOL    MW4 7184   1.765   1.947   3.101
 1789SOL     OW 7185   2.000   2.054   3.032
 1789SOL    HW2 7186   2.081   2.004   3.043
 1789SOL    HW3 7187   2.017   2.137   3.076
 1789SOL    MW4 7188   2.013   2.058   3.039
 1790SOL     OW 7189   2.015   2.314   3.142
 1790SOL    HW2 7190   2.095   2.353   3.106
 1790SOL    HW3 7191   1.944   2.365   3.103
 1790SOL    MW4 7192   2.016   2.326   3.132
 1791SOL     OW 7193   1.786   2.461   3.006
 1791SOL    HW2 7194   1.775   2.554   3.026
 1791SOL    HW3 7195   1.708   2.420   3.041
 1791SOL    MW4 7196   1.775   2.468   3.013
 1792SOL     OW 7197   1.777   2.736   3.102
 1792SOL    HW2 7198   1.789   2.720   3.196
 1792SOL    HW3 7199   1.857   2.779   3.074
 1792SOL    MW4 7200   1.789   2.739   3.111
 1793SOL     OW 7201   2.017   2.803   3.016
 1793SOL    HW2 7202   2.032   2.886   3.061
 1793SOL    HW3 7203   2.006   2.827   2.925
 1793SOL    MW4 7204   2.017   2.817   3.010
 1794SOL     OW 7205   1.979   3.058   3.125
 1794SOL    HW2 7206   1.979   3.061   3.221
 1794SOL    HW3 7207   1.930   3.135   3.098
 1794SOL    MW4 7208   1.973   3.068   3.134
 1795SOL     OW 7209   1.823   3.274   3.012
 1795SOL    HW2 7210   1.741   3.226   3.027
 1795SOL    HW3 7211   1.833   3.275   2.917
 1795SOL    MW4 7212   1.813   3.268   3.001
 1796SOL     OW 7213   1.777   3.513   3.121
 1796SOL    HW2 7214   1.790   3.425   3.086
 1796SOL    HW3 7215   1.697   3.545   3.079
 1796SOL    MW4 7216   1.768   3.506   3.111
 1797SOL     OW 7217   1.992   3.629   2.979
 1797SOL    HW2 7218   2.013   3.705   3.034
 1797SOL    HW3 7219   1.915   3.590   3.022
 1797SOL    MW4 7220   1.984   3.634   2.992
 1798SOL     OW 7221   2.010   3.854   3.118
 1798SOL    HW2 7222   2.020   3.847   3.213
 1798SOL    HW3 7223   1.925   3.896   3.106
 1798SOL    MW4 7224   2.000   3.858   3.129
 1799SOL     OW 7225   1.798   3.982   3.000
 1799SOL    HW2 7226   1.798   4.072   3.033
 1799SOL    HW3 7227   1.749   3.986   2.918
 1799SOL    MW4 7228   1.792   3.995   2.994
 1800SOL     OW 7229   1.788   4.234   3.110
 1800SOL    HW2 7230   1.866   4.285   3.086
 1800SOL    HW3 7231   1.714   4.290   3.087
 1800SOL    MW4 7232   1.789   4.248   3.103
 1801SOL     OW 7233   2.015   4.407   3.026
 1801SOL    HW2 7234   2.014   4.500   3.047
 1801SOL    HW3 7235   2.023   4.404   2.930
 1801SOL    MW4 7236   2.016   4.419   3.016
 1802SOL     OW 7237   2.482   4.660   3.029
 1802SOL    HW2 7238   2.482   4.565   3.021
 1802SOL    HW3 7239   2.391   4.686   3.016
 1802SOL    MW4 7240   2.470   4.651   3.027
 1803SOL     OW 7241   2.235   0.112   2.972
 1803SOL    HW2 7242   2.249   0.202   3.002
 1803SOL    HW3 7243   2.147   0.090   3.003
 1803SOL    MW4 7244   2.225   0.121   2.980
 1804SOL     OW 7245   2.250   0.370   3.111
 1804SOL    HW2 7246   2.241   0.356   3.205
 1804SOL    HW3 7247   2.171   0.419   3.087
 1804SOL    MW4 7248   2.238   0.375   3.120
 1805SOL     OW 7249   2.464   0.510   3.043
 1805SOL    HW2 7250   2.395   0.453   3.076
 1805SOL    HW3 7251   2.442   0.524   2.951
 1805SOL    MW4 7252   2.452   0.504   3.035
 1806SOL     OW 7253   2.468   0.765   3.147
 1806SOL    HW2 7254   2.549   0.800   3.109
 1806SOL    HW3 7255   2.461   0.677   3.110
 1806SOL    MW4 7256   2.478   0.758   3.137
 1807SOL     OW 7257   2.270   0.930   3.029
 1807SOL    HW2 7258   2.353   0.904   3.070
 1807SOL    HW3 7259   2.205   0.875   3.072
 1807SOL    MW4 7260   2.272   0.919   3.040
 1808SOL     OW 7261   2.204   1.171   3.160
 1808SOL    HW2 7262   2.225   1.170   3.253
 1808SOL    HW3 7263   2.215   1.081   3.131
 1808SOL    MW4 7264   2.208   1.159   3.168
 1809SOL     OW 7265   2.456   1.280   3.040
 1809SOL    HW2 7266   2.376   1.232   3.062
 1809SOL    HW3 7267   2.455   1.284   2.944
 1809SOL    MW4 7268   2.445   1.274   3.030
 1810SOL     OW 7269   2.436   1.526   3.157
 1810SOL    HW2 7270   2.360   1.565   3.114
 1810SOL    HW3 7271   2.437   1.435   3.126
 1810SOL    MW4 7272   2.426   1.519   3.147
 1811SOL     OW 7273   2.224   1.646   3.005
 1811SOL    HW2 7274   2.146   1.606   3.044
 1811SOL    HW3 7275   2.214   1.631   2.911
 1811SOL    MW4 7276   2.212   1.638   2.998
 1812SOL     OW 7277   2.246   1.914   3.116
 1812SOL    HW2 7278   2.330   1.949   3.084
 1812SOL    HW3 7279   2.242   1.826   3.078
 1812SOL    MW4 7280   2.257   1.907   3.106
 1813SOL     OW 7281   2.474   2.030   3.004
 1813SOL    HW2 7282   2.565   2.019   3.032
 1813SOL    HW3 7283   2.475   2.010   2.910
 1813SOL    MW4 7284   2.486   2.026   2.995
 1814SOL     OW 7285   2.463   2.302   3.077
 1814SOL    HW2 7286   2.456   2.300   3.172
 1814SOL    HW3 7287   2.450   2.211   3.049
 1814SOL    MW4 7288   2.461   2.290   3.086
 1815SOL     OW 7289   2.232   2.423   2.999
 1815SOL    HW2 7290   2.239   2.513   3.030
 1815SOL    HW3 7291   2.304   2.377   3.043
 1815SOL    MW4 7292   2.243   2.429   3.009
 1816SOL     OW 7293   2.245   2.673   3.095
 1816SOL    HW2 7294   2.314   2.728   3.058
 1816SOL    HW3 7295   2.164   2.715   3.068
 1816SOL    MW4 7296   2.244   2.686   3.087
 1817SOL     OW 7297   2.440   2.854   2.998
 1817SOL    HW2 7298   2.411   2.945   3.011
 1817SOL    HW3 7299   2.449   2.844   2.904
 1817SOL    MW4 7300   2.438   2.865   2.987
 1818SOL     OW 7301   2.427   3.104   3.132
 1818SOL    HW2 7302   2.513   3.140   3.111
 1818SOL    HW3 7303   2.365   3.162   3.087
 1818SOL    MW4 7304   2.430   3.117   3.123
 1819SOL     OW 7305   2.201   3.248   2.999
 1819SOL    HW2 7306   2.201   3.337   3.034
 1819SOL    HW3 7307   2.143   3.199   3.059
 1819SOL    MW4 7308   2.193   3.253   3.012
 1820SOL     OW 7309   2.191   3.494   3.112
 1820SOL    HW2 7310   2.268   3.538   3.077
 1820SOL    HW3 7311   2.118   3.531   3.063
 1820SOL    MW4 7312   2.192   3.505   3.101
 1821SOL     OW 7313   2.426   3.601   3.008
 1821SOL    HW2 7314   2.493   3.562   3.064
 1821SOL    HW3 7315   2.428   3.694   3.030
 1821SOL    MW4 7316   2.435   3.608   3.018
 1822SOL     OW 7317   2.435   3.859   3.052
 1822SOL    HW2 7318   2.441   3.851   3.147
 1822SOL    HW3 7319   2.521   3.890   3.025
 1822SOL    MW4 7320   2.447   3.862   3.061
 1823SOL     OW 7321   2.213   3.992   2.982
 1823SOL    HW2 7322   2.293   3.955   3.019
 1823SOL    HW3 7323   2.142   3.945   3.025
 1823SOL    MW4 7324   2.214   3.981   2.992
 1824SOL     OW 7325   2.244   4.246   3.086
 1824SOL    HW2 7326   2.229   4.157   3.054
 1824SOL    HW3 7327   2.162   4.292   3.069
 1824SOL    MW4 7328   2.231   4.241   3.079
 1825SOL     OW 7329   2.471   4.388   2.987
 1825SOL    HW2 7330   2.397   4.332   3.011
 1825SOL    HW3 7331   2.475   4.383   2.892
 1825SOL    MW4 7332   2.462   4.380   2.978
 1826SOL     OW 7333   2.884   4.651   3.130
 1826SOL    HW2 7334   2.966   4.689   3.097
 1826SOL    HW3 7335   2.888   4.559   3.103
 1826SOL    MW4 7336   2.895   4.643   3.122
 1827SOL     OW 7337   2.713   0.144   3.006
 1827SOL    HW2 7338   2.766   0.082   3.056
 1827SOL    HW3 7339   2.623   0.114   3.019
 1827SOL    MW4 7340   2.708   0.132   3.014
 1828SOL     OW 7341   2.700   0.391   3.143
 1828SOL    HW2 7342   2.721   0.308   3.100
 1828SOL    HW3 7343   2.622   0.422   3.098
 1828SOL    MW4 7344   2.693   0.384   3.132
 1829SOL     OW 7345   2.914   0.505   3.011
 1829SOL    HW2 7346   2.832   0.471   3.046
 1829SOL    HW3 7347   2.900   0.510   2.916
 1829SOL    MW4 7348   2.901   0.501   3.003
 1830SOL     OW 7349   2.902   0.752   3.138
 1830SOL    HW2 7350   2.901   0.750   3.234
 1830SOL    HW3 7351   2.917   0.662   3.112
 1830SOL    MW4 7352   2.904   0.740   3.147
 1831SOL     OW 7353   2.684   0.872   3.020
 1831SOL    HW2 7354   2.685   0.964   3.045
 1831SOL    HW3 7355   2.757   0.833   3.069
 1831SOL    MW4 7356   2.694   0.879   3.030
 1832SOL     OW 7357   2.679   1.152   3.114
 1832SOL    HW2 7358   2.757   1.199   3.084
 1832SOL    HW3 7359   2.606   1.207   3.086
 1832SOL    MW4 7360   2.680   1.166   3.106
 1833SOL     OW 7361   2.900   1.265   2.995
 1833SOL    HW2 7362   2.972   1.225   3.042
 1833SOL    HW3 7363   2.891   1.353   3.033
 1833SOL    MW4 7364   2.908   1.272   3.006
 1834SOL     OW 7365   2.891   1.529   3.101
 1834SOL    HW2 7366   2.902   1.550   3.194
 1834SOL    HW3 7367   2.972   1.559   3.060
 1834SOL    MW4 7368   2.904   1.535   3.108
 1835SOL     OW 7369   2.643   1.679   3.030
 1835SOL    HW2 7370   2.719   1.627   3.057
 1835SOL    HW3 7371   2.568   1.623   3.047
 1835SOL    MW4 7372   2.643   1.665   3.036
 1836SOL     OW 7373   2.706   1.946   3.115
 1836SOL    HW2 7374   2.792   1.973   3.082
 1836SOL    HW3 7375   2.688   1.863   3.071
 1836SOL    MW4 7376   2.715   1.938   3.105
 1837SOL     OW 7377   2.936   2.037   3.003
 1837SOL    HW2 7378   2.920   2.128   3.028
 1837SOL    HW3 7379   2.931   2.037   2.907
 1837SOL    MW4 7380   2.933   2.049   2.993
 1838SOL     OW 7381   2.912   2.289   3.129
 1838SOL    HW2 7382   2.983   2.337   3.087
 1838SOL    HW3 7383   2.833   2.341   3.111
 1838SOL    MW4 7384   2.911   2.302   3.121
 1839SOL     OW 7385   2.695   2.459   3.032
 1839SOL    HW2 7386   2.680   2.552   3.048
 1839SOL    HW3 7387   2.615   2.416   3.062
 1839SOL    MW4 7388   2.682   2.466   3.038
 1840SOL     OW 7389   2.692   2.752   3.108
 1840SOL    HW2 7390   2.676   2.736   3.201
 1840SOL    HW3 7391   2.614   2.799   3.078
 1840SOL    MW4 7392   2.680   2.756   3.117
 1841SOL     OW 7393   2.922   2.845   2.996
 1841SOL    HW2 7394   3.001   2.800   3.022
 1841SOL    HW3 7395   2.852   2.800   3.043
 1841SOL    MW4 7396   2.923   2.833   3.006
 1842SOL     OW 7397   2.921   3.096   3.135
 1842SOL    HW2 7398   2.838   3.136   3.109
 1842SOL    HW3 7399   2.912   3.004   3.110
 1842SOL    MW4 7400   2.909   3.089   3.128
 1843SOL     OW 7401   2.678   3.239   3.067
 1843SOL    HW2 7402   2.670   3.329   3.097
 1843SOL    HW3 7403   2.700   3.246   2.974
 1843SOL    MW4 7404   2.680   3.252   3.059
 1844SOL     OW 7405   2.640   3.492   3.134
 1844SOL    HW2 7406   2.654   3.503   3.228
 1844SOL    HW3 7407   2.716   3.534   3.093
 1844SOL    MW4 7408   2.652   3.499   3.141
 1845SOL     OW 7409   2.873   3.594   3.033
 1845SOL    HW2 7410   2.956   3.559   3.063
 1845SOL    HW3 7411   2.885   3.689   3.034
 1845SOL    MW4 7412   2.885   3.602   3.037
 1846SOL     OW 7413   2.917   3.871   3.046
 1846SOL    HW2 7414   2.920   3.874   3.141
 1846SOL    HW3 7415   2.830   3.904   3.023
 1846SOL    MW4 7416   2.906   3.876   3.055
 1847SOL     OW 7417   2.684   3.979   2.982
 1847SOL    HW2 7418   2.674   4.065   3.023
 1847SOL    HW3 7419   2.690   3.998   2.888
 1847SOL    MW4 7420   2.684   3.993   2.975
 1848SOL     OW 7421   2.663   4.233   3.104
 1848SOL    HW2 7422   2.668   4.261   3.195
 1848SOL    HW3 7423   2.602   4.295   3.064
 1848SOL    MW4 7424   2.655   4.245   3.111
 1849SOL     OW 7425   2.911   4.373   3.026
 1849SOL    HW2 7426   2.983   4.315   3.049
 1849SOL    HW3 7427   2.832   4.321   3.046
 1849SOL    MW4 7428   2.910   4.358   3.032
 1850SOL     OW 7429   3.372   4.658   3.127
 1850SOL    HW2 7430   3.456   4.698   3.106
 1850SOL    HW3 7431   3.378   4.570   3.090
 1850SOL    MW4 7432   3.383   4.652   3.119
 1851SOL     OW 7433   3.114   0.107   3.040
 1851SOL    HW2 7434   3.107   0.197   3.073
 1851SOL    HW3 7435   3.194   0.073   3.079
 1851SOL    MW4 7436   3.124   0.115   3.049
 1852SOL     OW 7437   3.131   0.367   3.126
 1852SOL    HW2 7438   3.217   0.391   3.091
 1852SOL    HW3 7439   3.071   0.429   3.084
 1852SOL    MW4 7440   3.134   0.378   3.116
 1853SOL     OW 7441   3.361   0.477   2.995
 1853SOL    HW2 7442   3.438   0.439   3.037
 1853SOL    HW3 7443   3.379   0.473   2.901
 1853SOL    MW4 7444   3.373   0.471   2.988
 1854SOL     OW 7445   3.350   0.740   3.060
 1854SOL    HW2 7446   3.331   0.740   3.154
 1854SOL    HW3 7447   3.355   0.648   3.036
 1854SOL    MW4 7448   3.348   0.728   3.070
 1855SOL     OW 7449   3.119   0.898   3.019
 1855SOL    HW2 7450   3.189   0.833   3.028
 1855SOL    HW3 7451   3.046   0.861   3.068
 1855SOL    MW4 7452   3.119   0.885   3.027
 1856SOL     OW 7453   3.138   1.157   3.103
 1856SOL    HW2 7454   3.203   1.205   3.052
 1856SOL    HW3 7455   3.150   1.066   3.079
 1856SOL    MW4 7456   3.148   1.152   3.093
 1857SOL     OW 7457   3.346   1.289   2.988
 1857SOL    HW2 7458   3.408   1.223   3.019
 1857SOL    HW3 7459   3.364   1.367   3.041
 1857SOL    MW4 7460   3.357   1.291   2.999
 1858SOL     OW 7461   3.371   1.509   3.135
 1858SOL    HW2 7462   3.373   1.539   3.226
 1858SOL    HW3 7463   3.444   1.555   3.094
 1858SOL    MW4 7464   3.381   1.519   3.142
 1859SOL     OW 7465   3.133   1.640   3.031
 1859SOL    HW2 7466   3.208   1.594   3.068
 1859SOL    HW3 7467   3.144   1.632   2.936
 1859SOL    MW4 7468   3.144   1.633   3.023
 1860SOL     OW 7469   3.151   1.907   3.117
 1860SOL    HW2 7470   3.147   1.816   3.090
 1860SOL    HW3 7471   3.080   1.950   3.069
 1860SOL    MW4 7472   3.141   1.901   3.107
 1861SOL     OW 7473   3.397   2.032   3.019
 1861SOL    HW2 7474   3.472   2.008   3.073
 1861SOL    HW3 7475   3.328   1.971   3.045
 1861SOL    MW4 7476   3.398   2.021   3.029
 1862SOL     OW 7477   3.413   2.308   3.110
 1862SOL    HW2 7478   3.415   2.306   3.206
 1862SOL    HW3 7479   3.403   2.217   3.085
 1862SOL    MW4 7480   3.412   2.296   3.120
 1863SOL     OW 7481   3.131   2.421   3.020
 1863SOL    HW2 7482   3.212   2.376   3.045
 1863SOL    HW3 7483   3.141   2.436   2.926
 1863SOL    MW4 7484   3.143   2.417   3.011
 1864SOL     OW 7485   3.158   2.696   3.096
 1864SOL    HW2 7486   3.151   2.705   3.191
 1864SOL    HW3 7487   3.138   2.604   3.078
 1864SOL    MW4 7488   3.154   2.685   3.106
 1865SOL     OW 7489   3.334   2.849   2.973
 1865SOL    HW2 7490   3.318   2.932   3.019
 1865SOL    HW3 7491   3.273   2.788   3.013
 1865SOL    MW4 7492   3.324   2.852   2.985
 1866SOL     OW 7493   3.350   3.084   3.096
 1866SOL    HW2 7494   3.370   3.076   3.189
 1866SOL    HW3 7495   3.279   3.148   3.092
 1866SOL    MW4 7496   3.343   3.092   3.108
 1867SOL     OW 7497   3.120   3.244   3.013
 1867SOL    HW2 7498   3.041   3.202   3.046
 1867SOL    HW3 7499   3.130   3.208   2.924
 1867SOL    MW4 7500   3.111   3.233   3.005
 1868SOL     OW 7501   3.122   3.501   3.120
 1868SOL    HW2 7502   3.196   3.555   3.094
 1868SOL    HW3 7503   3.134   3.419   3.071
 1868SOL    MW4 7504   3.134   3.497   3.110
 1869SOL     OW 7505   3.367   3.637   3.001
 1869SOL    HW2 7506   3.428   3.575   3.042
 1869SOL    HW3 7507   3.381   3.719   3.049
 1869SOL    MW4 7508   3.377   3.640   3.013
 1870SOL     OW 7509   3.416   3.883   3.133
 1870SOL    HW2 7510   3.384   3.861   3.220
 1870SOL    HW3 7511   3.340   3.916   3.086
 1870SOL    MW4 7512   3.402   3.884   3.138
 1871SOL     OW 7513   3.188   3.967   2.998
 1871SOL    HW2 7514   3.101   3.931   3.018
 1871SOL    HW3 7515   3.183   3.991   2.905
 1871SOL    MW4 7516   3.176   3.965   2.988
 1872SOL     OW 7517   3.160   4.263   3.139
 1872SOL    HW2 7518   3.144   4.259   3.233
 1872SOL    HW3 7519   3.169   4.172   3.112
 1872SOL    MW4 7520   3.159   4.251   3.148
 1873SOL     OW 7521   3.386   4.377   3.016
 1873SOL    HW2 7522   3.444   4.320   3.066
 1873SOL    HW3 7523   3.298   4.346   3.037
 1873SOL    MW4 7524   3.382   4.365   3.025
 1874SOL     OW 7525   3.838   4.653   3.112
 1874SOL    HW2 7526   3.839   4.560   3.088
 1874SOL    HW3 7527   3.749   4.682   3.091
 1874SOL    MW4 7528   3.826   4.644   3.106
 1875SOL     OW 7529   3.602   0.090   3.028
 1875SOL    HW2 7530   3.599   0.173   3.075
 1875SOL    HW3 7531   3.620   0.114   2.937
 1875SOL    MW4 7532   3.604   0.104   3.023
 1876SOL     OW 7533   3.559   0.353   3.123
 1876SOL    HW2 7534   3.561   0.362   3.218
 1876SOL    HW3 7535   3.643   0.389   3.093
 1876SOL    MW4 7536   3.570   0.359   3.131
 1877SOL     OW 7537   3.797   0.453   3.004
 1877SOL    HW2 7538   3.878   0.435   3.051
 1877SOL    HW3 7539   3.771   0.541   3.033
 1877SOL    MW4 7540   3.804   0.463   3.014
 1878SOL     OW 7541   3.786   0.706   3.124
 1878SOL    HW2 7542   3.783   0.731   3.217
 1878SOL    HW3 7543   3.872   0.736   3.094
 1878SOL    MW4 7544   3.797   0.713   3.132
 1879SOL     OW 7545   3.593   0.867   2.989
 1879SOL    HW2 7546   3.665   0.808   3.013
 1879SOL    HW3 7547   3.514   0.822   3.018
 1879SOL    MW4 7548   3.592   0.853   2.996
 1880SOL     OW 7549   3.527   1.114   3.082
 1880SOL    HW2 7550   3.614   1.155   3.075
 1880SOL    HW3 7551   3.542   1.022   3.063
 1880SOL    MW4 7552   3.541   1.107   3.079
 1881SOL     OW 7553   3.751   1.258   3.035
 1881SOL    HW2 7554   3.774   1.347   3.063
 1881SOL    HW3 7555   3.752   1.262   2.939
 1881SOL    MW4 7556   3.754   1.270   3.026
 1882SOL     OW 7557   3.817   1.516   3.112
 1882SOL    HW2 7558   3.806   1.533   3.206
 1882SOL    HW3 7559   3.740   1.556   3.072
 1882SOL    MW4 7560   3.806   1.524   3.120
 1883SOL     OW 7561   3.582   1.643   3.013
 1883SOL    HW2 7562   3.592   1.732   3.046
 1883SOL    HW3 7563   3.583   1.653   2.918
 1883SOL    MW4 7564   3.583   1.656   3.005
 1884SOL     OW 7565   3.607   1.903   3.140
 1884SOL    HW2 7566   3.607   1.924   3.233
 1884SOL    HW3 7567   3.682   1.950   3.104
 1884SOL    MW4 7568   3.617   1.912   3.147
 1885SOL     OW 7569   3.814   2.039   2.976
 1885SOL    HW2 7570   3.812   2.131   3.003
 1885SOL    HW3 7571   3.836   2.042   2.883
 1885SOL    MW4 7572   3.817   2.052   2.967
 1886SOL     OW 7573   3.829   2.310   3.080
 1886SOL    HW2 7574   3.845   2.293   3.173
 1886SOL    HW3 7575   3.742   2.350   3.077
 1886SOL    MW4 7576   3.820   2.313   3.092
 1887SOL     OW 7577   3.610   2.478   3.026
 1887SOL    HW2 7578   3.592   2.570   3.046
 1887SOL    HW3 7579   3.532   2.431   3.056
 1887SOL    MW4 7580   3.598   2.484   3.032
 1888SOL     OW 7581   3.558   2.743   3.121
 1888SOL    HW2 7582   3.638   2.787   3.092
 1888SOL    HW3 7583   3.488   2.783   3.068
 1888SOL    MW4 7584   3.559   2.754   3.110
 1889SOL     OW 7585   3.781   2.852   3.004
 1889SOL    HW2 7586   3.785   2.939   3.043
 1889SOL    HW3 7587   3.800   2.866   2.911
 1889SOL    MW4 7588   3.784   2.865   2.997
 1890SOL     OW 7589   3.800   3.105   3.121
 1890SOL    HW2 7590   3.879   3.146   3.085
 1890SOL    HW3 7591   3.728   3.148   3.076
 1890SOL    MW4 7592   3.801   3.116   3.111
 1891SOL     OW 7593   3.561   3.222   2.995
 1891SOL    HW2 7594   3.485   3.167   3.011
 1891SOL    HW3 7595   3.559   3.242   2.902
 1891SOL    MW4 7596   3.551   3.217   2.985
 1892SOL     OW 7597   3.547   3.484   3.121
 1892SOL    HW2 7598   3.630   3.525   3.097
 1892SOL    HW3 7599   3.555   3.394   3.088
 1892SOL    MW4 7600   3.559   3.478   3.113
 1893SOL     OW 7601   3.820   3.576   3.041
 1893SOL    HW2 7602   3.812   3.667   3.068
 1893SOL    HW3 7603   3.818   3.579   2.945
 1893SOL    MW4 7604   3.818   3.588   3.032
 1894SOL     OW 7605   3.802   3.846   3.088
 1894SOL    HW2 7606   3.793   3.857   3.182
 1894SOL    HW3 7607   3.739   3.909   3.051
 1894SOL    MW4 7608   3.792   3.856   3.095
 1895SOL     OW 7609   3.609   4.005   2.983
 1895SOL    HW2 7610   3.539   3.962   3.032
 1895SOL    HW3 7611   3.593   3.980   2.892
 1895SOL    MW4 7612   3.598   3.996   2.977
 1896SOL     OW 7613   3.613   4.241   3.129
 1896SOL    HW2 7614   3.667   4.299   3.074
 1896SOL    HW3 7615   3.600   4.163   3.075
 1896SOL    MW4 7616   3.619   4.238   3.114
 1897SOL     OW 7617   3.787   4.401   3.010
 1897SOL    HW2 7618   3.860   4.348   3.041
 1897SOL    HW3 7619   3.795   4.400   2.915
 1897SOL    MW4 7620   3.798   4.394   3.002
 1898SOL     OW 7621   4.270   0.018   3.129
 1898SOL    HW2 7622   4.286  -0.016   3.217
 1898SOL    HW3 7623   4.254  -0.061   3.076
 1898SOL    MW4 7624   4.270   0.003   3.134
 1899SOL     OW 7625   4.047   0.144   3.048
 1899SOL    HW2 7626   4.124   0.101   3.085
 1899SOL    HW3 7627   3.973   0.092   3.080
 1899SOL    MW4 7628   4.048   0.132   3.057
 1900SOL     OW 7629   4.035   0.399   3.133
 1900SOL    HW2 7630   4.096   0.434   3.068
 1900SOL    HW3 7631   4.033   0.304   3.116
 1900SOL    MW4 7632   4.043   0.391   3.122
 1901SOL     OW 7633   4.259   0.499   3.003
 1901SOL    HW2 7634   4.262   0.590   3.032
 1901SOL    HW3 7635   4.278   0.503   2.909
 1901SOL    MW4 7636   4.262   0.512   2.994
 1902SOL     OW 7637   4.243   0.744   3.108
 1902SOL    HW2 7638   4.154   0.758   3.074
 1902SOL    HW3 7639   4.298   0.800   3.055
 1902SOL    MW4 7640   4.239   0.753   3.097
 1903SOL     OW 7641   3.993   0.826   2.992
 1903SOL    HW2 7642   3.988   0.917   3.021
 1903SOL    HW3 7643   3.996   0.831   2.896
 1903SOL    MW4 7644   3.993   0.839   2.983
 1904SOL     OW 7645   4.014   1.127   3.122
 1904SOL    HW2 7646   4.033   1.150   3.213
 1904SOL    HW3 7647   3.928   1.165   3.105
 1904SOL    MW4 7648   4.005   1.135   3.132
 1905SOL     OW 7649   4.221   1.285   3.005
 1905SOL    HW2 7650   4.151   1.230   3.040
 1905SOL    HW3 7651   4.216   1.273   2.911
 1905SOL    MW4 7652   4.211   1.276   2.997
 1906SOL     OW 7653   4.277   1.509   3.156
 1906SOL    HW2 7654   4.196   1.558   3.137
 1906SOL    HW3 7655   4.273   1.433   3.097
 1906SOL    MW4 7656   4.266   1.506   3.145
 1907SOL     OW 7657   4.031   1.666   3.043
 1907SOL    HW2 7658   4.021   1.756   3.077
 1907SOL    HW3 7659   3.956   1.619   3.078
 1907SOL    MW4 7660   4.020   1.672   3.052
 1908SOL     OW 7661   4.033   1.941   3.128
 1908SOL    HW2 7662   4.110   1.960   3.074
 1908SOL    HW3 7663   3.959   1.976   3.079
 1908SOL    MW4 7664   4.034   1.949   3.115
 1909SOL     OW 7665   4.225   2.051   2.978
 1909SOL    HW2 7666   4.226   2.138   3.017
 1909SOL    HW3 7667   4.223   2.068   2.884
 1909SOL    MW4 7668   4.225   2.065   2.971
 1910SOL     OW 7669   4.247   2.304   3.092
 1910SOL    HW2 7670   4.164   2.349   3.077
 1910SOL    HW3 7671   4.313   2.368   3.067
 1910SOL    MW4 7672   4.245   2.319   3.087
 1911SOL     OW 7673   4.043   2.474   3.016
 1911SOL    HW2 7674   4.036   2.562   3.053
 1911SOL    HW3 7675   3.964   2.429   3.046
 1911SOL    MW4 7676   4.032   2.479   3.025
 1912SOL     OW 7677   4.010   2.721   3.114
 1912SOL    HW2 7678   4.004   2.726   3.210
 1912SOL    HW3 7679   3.926   2.753   3.083
 1912SOL    MW4 7680   3.998   2.726   3.123
 1913SOL     OW 7681   4.229   2.838   2.982
 1913SOL    HW2 7682   4.151   2.803   3.026
 1913SOL    HW3 7683   4.303   2.803   3.032
 1913SOL    MW4 7684   4.228   2.829   2.995
 1914SOL     OW 7685   4.265   3.074   3.109
 1914SOL    HW2 7686   4.189   3.120   3.074
 1914SOL    HW3 7687   4.257   2.985   3.074
 1914SOL    MW4 7688   4.254   3.069   3.099
 1915SOL     OW 7689   4.032   3.198   3.001
 1915SOL    HW2 7690   4.039   3.282   3.048
 1915SOL    HW3 7691   4.025   3.223   2.909
 1915SOL    MW4 7692   4.032   3.212   2.995
 1916SOL     OW 7693   4.058   3.433   3.116
 1916SOL    HW2 7694   4.057   3.473   3.203
 1916SOL    HW3 7695   3.984   3.473   3.070
 1916SOL    MW4 7696   4.048   3.443   3.121
 1917SOL     OW 7697   4.257   3.592   3.011
 1917SOL    HW2 7698   4.240   3.677   3.051
 1917SOL    HW3 7699   4.191   3.534   3.050
 1917SOL    MW4 7700   4.246   3.595   3.022
 1918SOL     OW 7701   4.255   3.879   3.111
 1918SOL    HW2 7702   4.175   3.907   3.067
 1918SOL    HW3 7703   4.325   3.928   3.068
 1918SOL    MW4 7704   4.254   3.889   3.100
 1919SOL     OW 7705   4.018   3.997   3.014
 1919SOL    HW2 7706   4.024   4.075   3.070
 1919SOL    HW3 7707   3.951   3.943   3.055
 1919SOL    MW4 7708   4.010   4.001   3.027
 1920SOL     OW 7709   4.017   4.272   3.112
 1920SOL    HW2 7710   4.022   4.287   3.206
 1920SOL    HW3 7711   4.092   4.319   3.076
 1920SOL    MW4 7712   4.028   4.280   3.119
 1921SOL     OW 7713   4.225   4.429   3.025
 1921SOL    HW2 7714   4.298   4.374   3.054
 1921SOL    HW3 7715   4.231   4.429   2.930
 1921SOL    MW4 7716   4.236   4.422   3.016
 1922SOL     OW 7717   0.213   4.664   3.395
 1922SOL    HW2 7718   0.295   4.704   3.424
 1922SOL    HW3 7719   0.219   4.573   3.425
 1922SOL    MW4 7720   0.225   4.657   3.403
 1923SOL     OW 7721   0.021   0.139   3.520
 1923SOL    HW2 7722   0.001   0.212   3.462
 1923SOL    HW3 7723   0.088   0.090   3.473
 1923SOL    MW4 7724   0.027   0.142   3.506
 1924SOL     OW 7725   4.449   0.362   3.357
 1924SOL    HW2 7726   4.379   0.413   3.398
 1924SOL    HW3 7727   4.530   0.408   3.381
 1924SOL    MW4 7728   4.450   0.375   3.366
 1925SOL     OW 7729   0.203   0.490   3.410
 1925SOL    HW2 7730   0.288   0.447   3.397
 1925SOL    HW3 7731   0.216   0.579   3.376
 1925SOL    MW4 7732   0.216   0.496   3.404
 1926SOL     OW 7733   0.233   0.754   3.341
 1926SOL    HW2 7734   0.306   0.779   3.397
 1926SOL    HW3 7735   0.156   0.793   3.383
 1926SOL    MW4 7736   0.232   0.763   3.354
 1927SOL     OW 7737   4.462   0.887   3.469
 1927SOL    HW2 7738   4.458   0.891   3.565
 1927SOL    HW3 7739   4.452   0.978   3.441
 1927SOL    MW4 7740   4.460   0.899   3.478
 1928SOL     OW 7741   4.427   1.138   3.367
 1928SOL    HW2 7742   4.506   1.184   3.393
 1928SOL    HW3 7743   4.429   1.140   3.271
 1928SOL    MW4 7744   4.438   1.144   3.358
 1929SOL     OW 7745   0.168   1.291   3.439
 1929SOL    HW2 7746   0.242   1.246   3.397
 1929SOL    HW3 7747   0.183   1.384   3.420
 1929SOL    MW4 7748   0.180   1.297   3.431
 1930SOL     OW 7749   0.218   1.550   3.356
 1930SOL    HW2 7750   0.302   1.585   3.386
 1930SOL    HW3 7751   0.226   1.549   3.260
 1930SOL    MW4 7752   0.230   1.555   3.347
 1931SOL     OW 7753   4.473   1.716   3.455
 1931SOL    HW2 7754   4.402   1.653   3.443
 1931SOL    HW3 7755   4.550   1.672   3.419
 1931SOL    MW4 7756   4.474   1.702   3.449
 1932SOL     OW 7757   4.454   1.943   3.326
 1932SOL    HW2 7758   4.451   1.853   3.359
 1932SOL    HW3 7759   4.470   1.934   3.233
 1932SOL    MW4 7760   4.456   1.930   3.318
 1933SOL     OW 7761   0.186   2.055   3.442
 1933SOL    HW2 7762   0.167   2.036   3.534
 1933SOL    HW3 7763   0.112   2.019   3.394
 1933SOL    MW4 7764   0.174   2.047   3.448
 1934SOL     OW 7765   0.223   2.303   3.360
 1934SOL    HW2 7766   0.147   2.358   3.377
 1934SOL    HW3 7767   0.203   2.220   3.403
 1934SOL    MW4 7768   0.211   2.299   3.368
 1935SOL     OW 7769   4.483   2.446   3.423
 1935SOL    HW2 7770   4.485   2.467   3.517
 1935SOL    HW3 7771   4.399   2.402   3.410
 1935SOL    MW4 7772   4.473   2.443   3.434
 1936SOL     OW 7773   4.476   2.722   3.366
 1936SOL    HW2 7774   4.557   2.762   3.398
 1936SOL    HW3 7775   4.490   2.627   3.378
 1936SOL    MW4 7776   4.489   2.714   3.372
 1937SOL     OW 7777   0.200   2.861   3.472
 1937SOL    HW2 7778   0.272   2.812   3.434
 1937SOL    HW3 7779   0.207   2.948   3.433
 1937SOL    MW4 7780   0.210   2.866   3.462
 1938SOL     OW 7781   0.235   3.135   3.393
 1938SOL    HW2 7782   0.143   3.160   3.404
 1938SOL    HW3 7783   0.249   3.137   3.298
 1938SOL    MW4 7784   0.225   3.138   3.382
 1939SOL     OW 7785   4.466   3.211   3.493
 1939SOL    HW2 7786   4.387   3.166   3.463
 1939SOL    HW3 7787   4.451   3.303   3.471
 1939SOL    MW4 7788   4.453   3.217   3.486
 1940SOL     OW 7789   4.442   3.475   3.420
 1940SOL    HW2 7790   4.372   3.537   3.438
 1940SOL    HW3 7791   4.450   3.474   3.324
 1940SOL    MW4 7792   4.434   3.483   3.409
 1941SOL     OW 7793   0.193   3.609   3.465
 1941SOL    HW2 7794   0.199   3.612   3.560
 1941SOL    HW3 7795   0.112   3.561   3.448
 1941SOL    MW4 7796   0.183   3.603   3.475
 1942SOL     OW 7797   0.192   3.871   3.379
 1942SOL    HW2 7798   0.105   3.911   3.391
 1942SOL    HW3 7799   0.181   3.781   3.411
 1942SOL    MW4 7800   0.179   3.864   3.385
 1943SOL     OW 7801   4.462   4.022   3.429
 1943SOL    HW2 7802   4.480   4.031   3.523
 1943SOL    HW3 7803   4.478   4.109   3.393
 1943SOL    MW4 7804   4.466   4.035   3.437
 1944SOL     OW 7805   4.469   4.278   3.347
 1944SOL    HW2 7806   4.395   4.318   3.393
 1944SOL    HW3 7807   4.544   4.332   3.372
 1944SOL    MW4 7808   4.469   4.290   3.356
 1945SOL     OW 7809   0.194   4.392   3.443
 1945SOL    HW2 7810   0.198   4.383   3.538
 1945SOL    HW3 7811   0.279   4.359   3.412
 1945SOL    MW4 7812   0.206   4.387   3.452
 1946SOL     OW 7813   0.662   4.662   3.381
 1946SOL    HW2 7814   0.743   4.703   3.413
 1946SOL    HW3 7815   0.677   4.649   3.288
 1946SOL    MW4 7816   0.675   4.666   3.373
 1947SOL     OW 7817   0.435   0.146   3.441
 1947SOL    HW2 7818   0.430   0.161   3.535
 1947SOL    HW3 7819   0.515   0.094   3.430
 1947SOL    MW4 7820   0.445   0.141   3.452
 1948SOL     OW 7821   0.467   0.405   3.324
 1948SOL    HW2 7822   0.545   0.441   3.367
 1948SOL    HW3 7823   0.463   0.314   3.354
 1948SOL    MW4 7824   0.477   0.398   3.333
 1949SOL     OW 7825   0.671   0.535   3.454
 1949SOL    HW2 7826   0.669   0.536   3.550
 1949SOL    HW3 7827   0.755   0.494   3.433
 1949SOL    MW4 7828   0.682   0.530   3.464
 1950SOL     OW 7829   0.644   0.804   3.373
 1950SOL    HW2 7830   0.552   0.828   3.385
 1950SOL    HW3 7831   0.648   0.712   3.400
 1950SOL    MW4 7832   0.632   0.795   3.378
 1951SOL     OW 7833   0.411   0.924   3.494
 1951SOL    HW2 7834   0.417   0.943   3.588
 1951SOL    HW3 7835   0.403   1.009   3.452
 1951SOL    MW4 7836   0.411   0.937   3.501
 1952SOL     OW 7837   0.424   1.171   3.360
 1952SOL    HW2 7838   0.503   1.190   3.411
 1952SOL    HW3 7839   0.451   1.180   3.269
 1952SOL    MW4 7840   0.438   1.174   3.355
 1953SOL     OW 7841   0.645   1.254   3.502
 1953SOL    HW2 7842   0.712   1.215   3.446
 1953SOL    HW3 7843   0.639   1.345   3.472
 1953SOL    MW4 7844   0.653   1.261   3.491
 1954SOL     OW 7845   0.597   1.502   3.354
 1954SOL    HW2 7846   0.683   1.539   3.374
 1954SOL    HW3 7847   0.535   1.570   3.380
 1954SOL    MW4 7848   0.601   1.516   3.360
 1955SOL     OW 7849   0.415   1.692   3.450
 1955SOL    HW2 7850   0.410   1.694   3.545
 1955SOL    HW3 7851   0.433   1.782   3.425
 1955SOL    MW4 7852   0.417   1.704   3.459
 1956SOL     OW 7853   0.430   1.947   3.376
 1956SOL    HW2 7854   0.359   2.011   3.387
 1956SOL    HW3 7855   0.433   1.931   3.282
 1956SOL    MW4 7856   0.421   1.953   3.365
 1957SOL     OW 7857   0.678   2.033   3.450
 1957SOL    HW2 7858   0.662   2.026   3.544
 1957SOL    HW3 7859   0.594   2.008   3.410
 1957SOL    MW4 7860   0.665   2.029   3.457
 1958SOL     OW 7861   0.694   2.302   3.348
 1958SOL    HW2 7862   0.757   2.356   3.396
 1958SOL    HW3 7863   0.701   2.216   3.389
 1958SOL    MW4 7864   0.703   2.298   3.360
 1959SOL     OW 7865   0.458   2.421   3.453
 1959SOL    HW2 7866   0.541   2.388   3.420
 1959SOL    HW3 7867   0.392   2.382   3.395
 1959SOL    MW4 7868   0.460   2.411   3.441
 1960SOL     OW 7869   0.423   2.681   3.406
 1960SOL    HW2 7870   0.441   2.594   3.441
 1960SOL    HW3 7871   0.413   2.667   3.312
 1960SOL    MW4 7872   0.424   2.668   3.398
 1961SOL     OW 7873   0.659   2.857   3.458
 1961SOL    HW2 7874   0.733   2.797   3.445
 1961SOL    HW3 7875   0.582   2.804   3.438
 1961SOL    MW4 7876   0.659   2.842   3.453
 1962SOL     OW 7877   0.642   3.124   3.373
 1962SOL    HW2 7878   0.580   3.153   3.440
 1962SOL    HW3 7879   0.659   3.032   3.393
 1962SOL    MW4 7880   0.636   3.116   3.384
 1963SOL     OW 7881   0.443   3.296   3.534
 1963SOL    HW2 7882   0.452   3.276   3.627
 1963SOL    HW3 7883   0.369   3.243   3.504
 1963SOL    MW4 7884   0.435   3.286   3.542
 1964SOL     OW 7885   0.436   3.532   3.378
 1964SOL    HW2 7886   0.434   3.447   3.422
 1964SOL    HW3 7887   0.354   3.574   3.405
 1964SOL    MW4 7888   0.425   3.526   3.387
 1965SOL     OW 7889   0.648   3.660   3.506
 1965SOL    HW2 7890   0.726   3.626   3.463
 1965SOL    HW3 7891   0.575   3.621   3.459
 1965SOL    MW4 7892   0.649   3.651   3.494
 1966SOL     OW 7893   0.655   3.917   3.417
 1966SOL    HW2 7894   0.591   3.971   3.463
 1966SOL    HW3 7895   0.642   3.829   3.452
 1966SOL    MW4 7896   0.645   3.913   3.427
 1967SOL     OW 7897   0.401   4.021   3.528
 1967SOL    HW2 7898   0.397   4.111   3.496
 1967SOL    HW3 7899   0.332   3.975   3.479
 1967SOL    MW4 7900   0.391   4.027   3.518
 1968SOL     OW 7901   0.436   4.268   3.384
 1968SOL    HW2 7902   0.510   4.317   3.420
 1968SOL    HW3 7903   0.453   4.267   3.289
 1968SOL    MW4 7904   0.448   4.274   3.376
 1969SOL     OW 7905   0.633   4.426   3.522
 1969SOL    HW2 7906   0.714   4.378   3.508
 1969SOL    HW3 7907   0.644   4.508   3.472
 1969SOL    MW4 7908   0.645   4.431   3.513
 1970SOL     OW 7909   1.097   4.640   3.398
 1970SOL    HW2 7910   1.179   4.677   3.433
 1970SOL    HW3 7911   1.108   4.644   3.303
 1970SOL    MW4 7912   1.110   4.646   3.390
 1971SOL     OW 7913   0.877   0.146   3.463
 1971SOL    HW2 7914   0.869   0.121   3.555
 1971SOL    HW3 7915   0.952   0.097   3.430
 1971SOL    MW4 7916   0.886   0.136   3.471
 1972SOL     OW 7917   0.898   0.400   3.363
 1972SOL    HW2 7918   0.975   0.441   3.402
 1972SOL    HW3 7919   0.891   0.315   3.408
 1972SOL    MW4 7920   0.907   0.394   3.374
 1973SOL     OW 7921   1.107   0.527   3.486
 1973SOL    HW2 7922   1.127   0.525   3.580
 1973SOL    HW3 7923   1.134   0.614   3.458
 1973SOL    MW4 7924   1.113   0.538   3.495
 1974SOL     OW 7925   1.129   0.773   3.356
 1974SOL    HW2 7926   1.199   0.827   3.394
 1974SOL    HW3 7927   1.049   0.809   3.394
 1974SOL    MW4 7928   1.128   0.785   3.366
 1975SOL     OW 7929   0.884   0.899   3.472
 1975SOL    HW2 7930   0.881   0.985   3.430
 1975SOL    HW3 7931   0.802   0.857   3.447
 1975SOL    MW4 7932   0.873   0.905   3.463
 1976SOL     OW 7933   0.888   1.158   3.352
 1976SOL    HW2 7934   0.967   1.195   3.391
 1976SOL    HW3 7935   0.904   1.161   3.257
 1976SOL    MW4 7936   0.900   1.163   3.344
 1977SOL     OW 7937   1.146   1.259   3.428
 1977SOL    HW2 7938   1.138   1.250   3.523
 1977SOL    HW3 7939   1.123   1.350   3.410
 1977SOL    MW4 7940   1.142   1.270   3.438
 1978SOL     OW 7941   1.083   1.526   3.373
 1978SOL    HW2 7942   1.150   1.585   3.407
 1978SOL    HW3 7943   1.087   1.538   3.278
 1978SOL    MW4 7944   1.092   1.535   3.365
 1979SOL     OW 7945   0.836   1.607   3.446
 1979SOL    HW2 7946   0.849   1.698   3.421
 1979SOL    HW3 7947   0.915   1.562   3.418
 1979SOL    MW4 7948   0.848   1.613   3.439
 1980SOL     OW 7949   0.906   1.909   3.373
 1980SOL    HW2 7950   0.982   1.943   3.420
 1980SOL    HW3 7951   0.831   1.951   3.415
 1980SOL    MW4 7952   0.906   1.919   3.384
 1981SOL     OW 7953   1.120   2.041   3.491
 1981SOL    HW2 7954   1.201   2.005   3.453
 1981SOL    HW3 7955   1.107   2.124   3.445
 1981SOL    MW4 7956   1.129   2.047   3.480
 1982SOL     OW 7957   1.106   2.299   3.402
 1982SOL    HW2 7958   1.188   2.336   3.431
 1982SOL    HW3 7959   1.113   2.296   3.306
 1982SOL    MW4 7960   1.118   2.303   3.393
 1983SOL     OW 7961   0.893   2.464   3.467
 1983SOL    HW2 7962   0.892   2.453   3.562
 1983SOL    HW3 7963   0.963   2.407   3.436
 1983SOL    MW4 7964   0.902   2.455   3.475
 1984SOL     OW 7965   0.873   2.707   3.369
 1984SOL    HW2 7966   0.958   2.750   3.378
 1984SOL    HW3 7967   0.888   2.617   3.397
 1984SOL    MW4 7968   0.886   2.700   3.374
 1985SOL     OW 7969   1.092   2.854   3.470
 1985SOL    HW2 7970   1.089   2.853   3.566
 1985SOL    HW3 7971   1.172   2.805   3.449
 1985SOL    MW4 7972   1.102   2.848   3.480
 1986SOL     OW 7973   1.078   3.119   3.353
 1986SOL    HW2 7974   1.083   3.033   3.393
 1986SOL    HW3 7975   1.095   3.104   3.260
 1986SOL    MW4 7976   1.081   3.106   3.346
 1987SOL     OW 7977   0.860   3.273   3.453
 1987SOL    HW2 7978   0.933   3.225   3.414
 1987SOL    HW3 7979   0.782   3.227   3.422
 1987SOL    MW4 7980   0.859   3.261   3.443
 1988SOL     OW 7981   0.877   3.548   3.384
 1988SOL    HW2 7982   0.872   3.458   3.415
 1988SOL    HW3 7983   0.871   3.541   3.289
 1988SOL    MW4 7984   0.875   3.535   3.375
 1989SOL     OW 7985   1.093   3.637   3.529
 1989SOL    HW2 7986   1.088   3.637   3.625
 1989SOL    HW3 7987   1.008   3.604   3.501
 1989SOL    MW4 7988   1.081   3.632   3.538
 1990SOL     OW 7989   1.115   3.875   3.404
 1990SOL    HW2 7990   1.175   3.925   3.459
 1990SOL    HW3 7991   1.110   3.789   3.446
 1990SOL    MW4 7992   1.123   3.870   3.416
 1991SOL     OW 7993   0.899   4.037   3.511
 1991SOL    HW2 7994   0.964   3.973   3.481
 1991SOL    HW3 7995   0.815   3.997   3.489
 1991SOL    MW4 7996   0.896   4.023   3.504
 1992SOL     OW 7997   0.866   4.301   3.438
 1992SOL    HW2 7998   0.884   4.212   3.468
 1992SOL    HW3 7999   0.847   4.292   3.345
 1992SOL    MW4 8000   0.866   4.288   3.429
 1993SOL     OW 8001   1.089   4.402   3.518
 1993SOL    HW2 8002   1.008   4.357   3.495
 1993SOL    HW3 8003   1.083   4.487   3.476
 1993SOL    MW4 8004   1.078   4.407   3.509
 1994SOL     OW 8005   1.508   4.624   3.366
 1994SOL    HW2 8006   1.532   4.549   3.419
 1994SOL    HW3 8007   1.443   4.671   3.418
 1994SOL    MW4 8008   1.502   4.621   3.380
 1995SOL     OW 8009   1.319   0.109   3.518
 1995SOL    HW2 8010   1.327   0.105   3.613
 1995SOL    HW3 8011   1.304   0.201   3.499
 1995SOL    MW4 8012   1.318   0.121   3.528
 1996SOL     OW 8013   1.298   0.358   3.401
 1996SOL    HW2 8014   1.379   0.402   3.429
 1996SOL    HW3 8015   1.228   0.409   3.440
 1996SOL    MW4 8016   1.300   0.370   3.410
 1997SOL     OW 8017   1.517   0.500   3.471
 1997SOL    HW2 8018   1.510   0.519   3.565
 1997SOL    HW3 8019   1.598   0.448   3.464
 1997SOL    MW4 8020   1.527   0.495   3.483
 1998SOL     OW 8021   1.585   0.758   3.376
 1998SOL    HW2 8022   1.512   0.809   3.411
 1998SOL    HW3 8023   1.578   0.673   3.419
 1998SOL    MW4 8024   1.574   0.754   3.386
 1999SOL     OW 8025   1.358   0.879   3.480
 1999SOL    HW2 8026   1.371   0.890   3.574
 1999SOL    HW3 8027   1.354   0.969   3.446
 1999SOL    MW4 8028   1.359   0.893   3.488
 2000SOL     OW 8029   1.368   1.123   3.358
 2000SOL    HW2 8030   1.430   1.180   3.403
 2000SOL    HW3 8031   1.282   1.162   3.377
 2000SOL    MW4 8032   1.365   1.136   3.366
 2001SOL     OW 8033   1.556   1.293   3.460
 2001SOL    HW2 8034   1.575   1.301   3.553
 2001SOL    HW3 8035   1.636   1.258   3.422
 2001SOL    MW4 8036   1.569   1.289   3.467
 2002SOL     OW 8037   1.526   1.548   3.350
 2002SOL    HW2 8038   1.551   1.460   3.376
 2002SOL    HW3 8039   1.543   1.551   3.255
 2002SOL    MW4 8040   1.531   1.537   3.341
 2003SOL     OW 8041   1.296   1.672   3.471
 2003SOL    HW2 8042   1.327   1.659   3.561
 2003SOL    HW3 8043   1.352   1.614   3.418
 2003SOL    MW4 8044   1.308   1.663   3.476
 2004SOL     OW 8045   1.369   1.942   3.399
 2004SOL    HW2 8046   1.433   1.977   3.460
 2004SOL    HW3 8047   1.374   1.847   3.410
 2004SOL    MW4 8048   1.378   1.934   3.408
 2005SOL     OW 8049   1.583   2.084   3.509
 2005SOL    HW2 8050   1.654   2.034   3.468
 2005SOL    HW3 8051   1.583   2.168   3.463
 2005SOL    MW4 8052   1.592   2.088   3.497
 2006SOL     OW 8053   1.568   2.321   3.405
 2006SOL    HW2 8054   1.481   2.360   3.412
 2006SOL    HW3 8055   1.592   2.332   3.313
 2006SOL    MW4 8056   1.560   2.328   3.394
 2007SOL     OW 8057   1.330   2.428   3.458
 2007SOL    HW2 8058   1.335   2.426   3.554
 2007SOL    HW3 8059   1.304   2.518   3.437
 2007SOL    MW4 8060   1.327   2.440   3.468
 2008SOL     OW 8061   1.311   2.697   3.387
 2008SOL    HW2 8062   1.392   2.724   3.431
 2008SOL    HW3 8063   1.333   2.699   3.293
 2008SOL    MW4 8064   1.324   2.701   3.380
 2009SOL     OW 8065   1.543   2.826   3.491
 2009SOL    HW2 8066   1.613   2.774   3.451
 2009SOL    HW3 8067   1.546   2.909   3.445
 2009SOL    MW4 8068   1.553   2.830   3.479
 2010SOL     OW 8069   1.524   3.047   3.335
 2010SOL    HW2 8070   1.595   3.098   3.375
 2010SOL    HW3 8071   1.445   3.096   3.358
 2010SOL    MW4 8072   1.523   3.060   3.343
 2011SOL     OW 8073   1.314   3.210   3.435
 2011SOL    HW2 8074   1.335   3.211   3.529
 2011SOL    HW3 8075   1.223   3.181   3.432
 2011SOL    MW4 8076   1.305   3.206   3.447
 2012SOL     OW 8077   1.308   3.479   3.404
 2012SOL    HW2 8078   1.300   3.387   3.430
 2012SOL    HW3 8079   1.234   3.522   3.447
 2012SOL    MW4 8080   1.297   3.472   3.413
 2013SOL     OW 8081   1.522   3.617   3.482
 2013SOL    HW2 8082   1.525   3.610   3.577
 2013SOL    HW3 8083   1.447   3.564   3.456
 2013SOL    MW4 8084   1.513   3.609   3.491
 2014SOL     OW 8085   1.547   3.895   3.428
 2014SOL    HW2 8086   1.544   3.802   3.448
 2014SOL    HW3 8087   1.557   3.899   3.333
 2014SOL    MW4 8088   1.548   3.884   3.418
 2015SOL     OW 8089   1.300   4.016   3.547
 2015SOL    HW2 8090   1.300   4.105   3.512
 2015SOL    HW3 8091   1.379   3.976   3.510
 2015SOL    MW4 8092   1.311   4.023   3.538
 2016SOL     OW 8093   1.304   4.264   3.419
 2016SOL    HW2 8094   1.232   4.324   3.439
 2016SOL    HW3 8095   1.302   4.255   3.323
 2016SOL    MW4 8096   1.294   4.271   3.409
 2017SOL     OW 8097   1.541   4.385   3.504
 2017SOL    HW2 8098   1.621   4.338   3.479
 2017SOL    HW3 8099   1.471   4.340   3.456
 2017SOL    MW4 8100   1.542   4.373   3.494
 2018SOL     OW 8101   1.974   4.646   3.387
 2018SOL    HW2 8102   2.046   4.703   3.416
 2018SOL    HW3 8103   1.898   4.677   3.436
 2018SOL    MW4 8104   1.974   4.658   3.397
 2019SOL     OW 8105   1.761   0.087   3.511
 2019SOL    HW2 8106   1.762   0.085   3.607
 2019SOL    HW3 8107   1.670   0.066   3.488
 2019SOL    MW4 8108   1.749   0.084   3.521
 2020SOL     OW 8109   1.766   0.360   3.424
 2020SOL    HW2 8110   1.772   0.270   3.456
 2020SOL    HW3 8111   1.795   0.355   3.333
 2020SOL    MW4 8112   1.771   0.347   3.416
 2021SOL     OW 8113   2.007   0.507   3.492
 2021SOL    HW2 8114   2.006   0.598   3.462
 2021SOL    HW3 8115   1.926   0.470   3.458
 2021SOL    MW4 8116   1.996   0.514   3.483
 2022SOL     OW 8117   2.032   0.756   3.400
 2022SOL    HW2 8118   2.103   0.803   3.444
 2022SOL    HW3 8119   2.057   0.756   3.307
 2022SOL    MW4 8120   2.045   0.762   3.393
 2023SOL     OW 8121   1.803   0.887   3.480
 2023SOL    HW2 8122   1.884   0.848   3.445
 2023SOL    HW3 8123   1.733   0.834   3.442
 2023SOL    MW4 8124   1.805   0.875   3.471
 2024SOL     OW 8125   1.806   1.159   3.373
 2024SOL    HW2 8126   1.881   1.200   3.418
 2024SOL    HW3 8127   1.806   1.069   3.405
 2024SOL    MW4 8128   1.816   1.153   3.383
 2025SOL     OW 8129   1.990   1.298   3.532
 2025SOL    HW2 8130   1.995   1.306   3.627
 2025SOL    HW3 8131   1.994   1.388   3.500
 2025SOL    MW4 8132   1.991   1.311   3.540
 2026SOL     OW 8133   1.998   1.559   3.400
 2026SOL    HW2 8134   2.066   1.609   3.445
 2026SOL    HW3 8135   1.916   1.587   3.442
 2026SOL    MW4 8136   1.996   1.569   3.412
 2027SOL     OW 8137   1.746   1.657   3.495
 2027SOL    HW2 8138   1.751   1.749   3.467
 2027SOL    HW3 8139   1.671   1.622   3.447
 2027SOL    MW4 8140   1.737   1.664   3.485
 2028SOL     OW 8141   1.791   1.913   3.402
 2028SOL    HW2 8142   1.858   1.971   3.437
 2028SOL    HW3 8143   1.799   1.921   3.307
 2028SOL    MW4 8144   1.801   1.921   3.394
 2029SOL     OW 8145   1.991   2.067   3.505
 2029SOL    HW2 8146   2.062   2.023   3.459
 2029SOL    HW3 8147   1.982   2.152   3.461
 2029SOL    MW4 8148   1.999   2.073   3.493
 2030SOL     OW 8149   1.990   2.324   3.407
 2030SOL    HW2 8150   2.072   2.357   3.444
 2030SOL    HW3 8151   2.006   2.320   3.313
 2030SOL    MW4 8152   2.003   2.328   3.400
 2031SOL     OW 8153   1.780   2.466   3.515
 2031SOL    HW2 8154   1.848   2.415   3.471
 2031SOL    HW3 8155   1.698   2.421   3.494
 2031SOL    MW4 8156   1.778   2.453   3.506
 2032SOL     OW 8157   1.786   2.699   3.383
 2032SOL    HW2 8158   1.873   2.729   3.408
 2032SOL    HW3 8159   1.779   2.612   3.421
 2032SOL    MW4 8160   1.796   2.692   3.391
 2033SOL     OW 8161   2.025   2.800   3.453
 2033SOL    HW2 8162   2.026   2.791   3.548
 2033SOL    HW3 8163   1.998   2.890   3.437
 2033SOL    MW4 8164   2.022   2.811   3.464
 2034SOL     OW 8165   1.977   3.074   3.403
 2034SOL    HW2 8166   2.056   3.125   3.418
 2034SOL    HW3 8167   1.905   3.136   3.418
 2034SOL    MW4 8168   1.978   3.089   3.407
 2035SOL     OW 8169   1.749   3.207   3.451
 2035SOL    HW2 8170   1.721   3.210   3.542
 2035SOL    HW3 8171   1.749   3.298   3.422
 2035SOL    MW4 8172   1.745   3.219   3.459
 2036SOL     OW 8173   1.772   3.473   3.395
 2036SOL    HW2 8174   1.693   3.516   3.426
 2036SOL    HW3 8175   1.778   3.497   3.302
 2036SOL    MW4 8176   1.763   3.482   3.387
 2037SOL     OW 8177   1.992   3.618   3.499
 2037SOL    HW2 8178   2.071   3.579   3.461
 2037SOL    HW3 8179   1.920   3.570   3.460
 2037SOL    MW4 8180   1.993   3.607   3.489
 2038SOL     OW 8181   2.041   3.873   3.414
 2038SOL    HW2 8182   1.966   3.930   3.431
 2038SOL    HW3 8183   2.015   3.788   3.447
 2038SOL    MW4 8184   2.028   3.870   3.420
 2039SOL     OW 8185   1.798   4.010   3.475
 2039SOL    HW2 8186   1.803   4.003   3.570
 2039SOL    HW3 8187   1.714   3.970   3.452
 2039SOL    MW4 8188   1.788   4.004   3.484
 2040SOL     OW 8189   1.800   4.271   3.399
 2040SOL    HW2 8190   1.796   4.177   3.417
 2040SOL    HW3 8191   1.782   4.277   3.305
 2040SOL    MW4 8192   1.797   4.259   3.389
 2041SOL     OW 8193   2.040   4.385   3.457
 2041SOL    HW2 8194   1.959   4.336   3.439
 2041SOL    HW3 8195   2.012   4.476   3.462
 2041SOL    MW4 8196   2.026   4.390   3.455
 2042SOL     OW 8197   2.454   0.016   3.338
 2042SOL    HW2 8198   2.444  -0.068   3.384
 2042SOL    HW3 8199   2.450  -0.006   3.245
 2042SOL    MW4 8200   2.452   0.002   3.332
 2043SOL     OW 8201   2.194   0.106   3.468
 2043SOL    HW2 8202   2.207   0.201   3.462
 2043SOL    HW3 8203   2.273   0.068   3.428
 2043SOL    MW4 8204   2.206   0.113   3.462
 2044SOL     OW 8205   2.223   0.369   3.392
 2044SOL    HW2 8206   2.295   0.410   3.439
 2044SOL    HW3 8207   2.144   0.411   3.426
 2044SOL    MW4 8208   2.222   0.380   3.403
 2045SOL     OW 8209   2.459   0.527   3.534
 2045SOL    HW2 8210   2.544   0.494   3.505
 2045SOL    HW3 8211   2.447   0.609   3.487
 2045SOL    MW4 8212   2.469   0.533   3.524
 2046SOL     OW 8213   2.430   0.813   3.424
 2046SOL    HW2 8214   2.515   0.842   3.457
 2046SOL    HW3 8215   2.446   0.792   3.332
 2046SOL    MW4 8216   2.443   0.814   3.416
 2047SOL     OW 8217   2.207   0.917   3.538
 2047SOL    HW2 8218   2.231   1.008   3.522
 2047SOL    HW3 8219   2.284   0.867   3.511
 2047SOL    MW4 8220   2.220   0.922   3.532
 2048SOL     OW 8221   2.242   1.182   3.438
 2048SOL    HW2 8222   2.308   1.246   3.465
 2048SOL    HW3 8223   2.159   1.217   3.473
 2048SOL    MW4 8224   2.239   1.195   3.446
 2049SOL     OW 8225   2.454   1.334   3.518
 2049SOL    HW2 8226   2.462   1.311   3.611
 2049SOL    HW3 8227   2.525   1.286   3.475
 2049SOL    MW4 8228   2.464   1.324   3.525
 2050SOL     OW 8229   2.434   1.588   3.417
 2050SOL    HW2 8230   2.425   1.510   3.472
 2050SOL    HW3 8231   2.439   1.553   3.328
 2050SOL    MW4 8232   2.433   1.573   3.412
 2051SOL     OW 8233   2.209   1.684   3.515
 2051SOL    HW2 8234   2.217   1.670   3.609
 2051SOL    HW3 8235   2.292   1.653   3.479
 2051SOL    MW4 8236   2.221   1.678   3.523
 2052SOL     OW 8237   2.213   1.934   3.410
 2052SOL    HW2 8238   2.203   1.849   3.453
 2052SOL    HW3 8239   2.214   1.913   3.316
 2052SOL    MW4 8240   2.212   1.920   3.403
 2053SOL     OW 8241   2.449   2.045   3.457
 2053SOL    HW2 8242   2.448   2.049   3.552
 2053SOL    HW3 8243   2.366   2.004   3.433
 2053SOL    MW4 8244   2.438   2.040   3.466
 2054SOL     OW 8245   2.432   2.307   3.343
 2054SOL    HW2 8246   2.513   2.344   3.380
 2054SOL    HW3 8247   2.425   2.221   3.385
 2054SOL    MW4 8248   2.442   2.301   3.354
 2055SOL     OW 8249   2.243   2.431   3.504
 2055SOL    HW2 8250   2.243   2.516   3.460
 2055SOL    HW3 8251   2.315   2.383   3.463
 2055SOL    MW4 8252   2.253   2.436   3.493
 2056SOL     OW 8253   2.245   2.679   3.366
 2056SOL    HW2 8254   2.164   2.724   3.390
 2056SOL    HW3 8255   2.245   2.680   3.270
 2056SOL    MW4 8256   2.234   2.685   3.356
 2057SOL     OW 8257   2.443   2.839   3.505
 2057SOL    HW2 8258   2.428   2.931   3.481
 2057SOL    HW3 8259   2.370   2.792   3.464
 2057SOL    MW4 8260   2.431   2.845   3.497
 2058SOL     OW 8261   2.430   3.101   3.405
 2058SOL    HW2 8262   2.518   3.136   3.421
 2058SOL    HW3 8263   2.420   3.103   3.310
 2058SOL    MW4 8264   2.441   3.106   3.395
 2059SOL     OW 8265   2.189   3.229   3.447
 2059SOL    HW2 8266   2.176   3.244   3.540
 2059SOL    HW3 8267   2.274   3.185   3.440
 2059SOL    MW4 8268   2.198   3.225   3.458
 2060SOL     OW 8269   2.225   3.499   3.398
 2060SOL    HW2 8270   2.203   3.407   3.412
 2060SOL    HW3 8271   2.232   3.508   3.303
 2060SOL    MW4 8272   2.223   3.488   3.387
 2061SOL     OW 8273   2.437   3.612   3.526
 2061SOL    HW2 8274   2.447   3.692   3.474
 2061SOL    HW3 8275   2.359   3.570   3.489
 2061SOL    MW4 8276   2.428   3.617   3.514
 2062SOL     OW 8277   2.471   3.822   3.315
 2062SOL    HW2 8278   2.551   3.857   3.354
 2062SOL    HW3 8279   2.400   3.863   3.364
 2062SOL    MW4 8280   2.472   3.832   3.326
 2063SOL     OW 8281   2.300   3.948   3.478
 2063SOL    HW2 8282   2.307   4.039   3.451
 2063SOL    HW3 8283   2.206   3.928   3.472
 2063SOL    MW4 8284   2.288   3.957   3.473
 2064SOL     OW 8285   2.275   4.225   3.379
 2064SOL    HW2 8286   2.199   4.274   3.408
 2064SOL    HW3 8287   2.275   4.234   3.284
 2064SOL    MW4 8288   2.265   4.233   3.371
 2065SOL     OW 8289   2.447   4.421   3.458
 2065SOL    HW2 8290   2.454   4.415   3.553
 2065SOL    HW3 8291   2.379   4.357   3.434
 2065SOL    MW4 8292   2.439   4.411   3.467
 2066SOL     OW 8293   2.887   4.618   3.389
 2066SOL    HW2 8294   2.802   4.646   3.422
 2066SOL    HW3 8295   2.883   4.636   3.295
 2066SOL    MW4 8296   2.875   4.624   3.381
 2067SOL     OW 8297   2.685   0.097   3.487
 2067SOL    HW2 8298   2.681   0.192   3.477
 2067SOL    HW3 8299   2.600   0.066   3.455
 2067SOL    MW4 8300   2.673   0.105   3.482
 2068SOL     OW 8301   2.678   0.391   3.450
 2068SOL    HW2 8302   2.757   0.426   3.491
 2068SOL    HW3 8303   2.696   0.396   3.356
 2068SOL    MW4 8304   2.691   0.396   3.443
 2069SOL     OW 8305   2.918   0.502   3.516
 2069SOL    HW2 8306   2.931   0.507   3.611
 2069SOL    HW3 8307   2.909   0.593   3.489
 2069SOL    MW4 8308   2.919   0.515   3.525
 2070SOL     OW 8309   2.902   0.780   3.426
 2070SOL    HW2 8310   2.978   0.825   3.463
 2070SOL    HW3 8311   2.827   0.831   3.456
 2070SOL    MW4 8312   2.902   0.792   3.435
 2071SOL     OW 8313   2.683   0.909   3.497
 2071SOL    HW2 8314   2.665   0.909   3.591
 2071SOL    HW3 8315   2.668   1.000   3.470
 2071SOL    MW4 8316   2.679   0.921   3.506
 2072SOL     OW 8317   2.653   1.176   3.404
 2072SOL    HW2 8318   2.740   1.199   3.436
 2072SOL    HW3 8319   2.662   1.176   3.308
 2072SOL    MW4 8320   2.666   1.179   3.395
 2073SOL     OW 8321   2.896   1.275   3.483
 2073SOL    HW2 8322   2.890   1.293   3.577
 2073SOL    HW3 8323   2.983   1.238   3.470
 2073SOL    MW4 8324   2.906   1.273   3.494
 2074SOL     OW 8325   2.904   1.564   3.376
 2074SOL    HW2 8326   2.822   1.596   3.415
 2074SOL    HW3 8327   2.912   1.474   3.407
 2074SOL    MW4 8328   2.894   1.556   3.385
 2075SOL     OW 8329   2.677   1.694   3.479
 2075SOL    HW2 8330   2.688   1.784   3.451
 2075SOL    HW3 8331   2.587   1.672   3.455
 2075SOL    MW4 8332   2.666   1.703   3.472
 2076SOL     OW 8333   2.711   1.962   3.406
 2076SOL    HW2 8334   2.630   2.004   3.434
 2076SOL    HW3 8335   2.697   1.943   3.313
 2076SOL    MW4 8336   2.699   1.965   3.397
 2077SOL     OW 8337   2.953   2.065   3.512
 2077SOL    HW2 8338   2.929   2.074   3.604
 2077SOL    HW3 8339   2.878   2.020   3.472
 2077SOL    MW4 8340   2.940   2.060   3.519
 2078SOL     OW 8341   2.913   2.308   3.407
 2078SOL    HW2 8342   2.917   2.220   3.445
 2078SOL    HW3 8343   2.910   2.294   3.313
 2078SOL    MW4 8344   2.913   2.295   3.400
 2079SOL     OW 8345   2.658   2.420   3.437
 2079SOL    HW2 8346   2.655   2.417   3.532
 2079SOL    HW3 8347   2.746   2.388   3.415
 2079SOL    MW4 8348   2.669   2.416   3.446
 2080SOL     OW 8349   2.647   2.702   3.373
 2080SOL    HW2 8350   2.641   2.614   3.409
 2080SOL    HW3 8351   2.579   2.751   3.420
 2080SOL    MW4 8352   2.637   2.697   3.384
 2081SOL     OW 8353   2.886   2.809   3.452
 2081SOL    HW2 8354   2.906   2.790   3.543
 2081SOL    HW3 8355   2.800   2.771   3.437
 2081SOL    MW4 8356   2.878   2.802   3.462
 2082SOL     OW 8357   2.888   3.082   3.404
 2082SOL    HW2 8358   2.893   2.992   3.435
 2082SOL    HW3 8359   2.912   3.077   3.312
 2082SOL    MW4 8360   2.892   3.070   3.396
 2083SOL     OW 8361   2.678   3.236   3.466
 2083SOL    HW2 8362   2.661   3.213   3.558
 2083SOL    HW3 8363   2.753   3.182   3.441
 2083SOL    MW4 8364   2.685   3.226   3.475
 2084SOL     OW 8365   2.663   3.514   3.418
 2084SOL    HW2 8366   2.661   3.418   3.422
 2084SOL    HW3 8367   2.586   3.542   3.467
 2084SOL    MW4 8368   2.652   3.505   3.425
 2085SOL     OW 8369   2.911   3.618   3.469
 2085SOL    HW2 8370   2.906   3.705   3.429
 2085SOL    HW3 8371   2.824   3.580   3.453
 2085SOL    MW4 8372   2.899   3.624   3.461
 2086SOL     OW 8373   2.890   3.871   3.314
 2086SOL    HW2 8374   2.967   3.906   3.360
 2086SOL    HW3 8375   2.817   3.922   3.347
 2086SOL    MW4 8376   2.891   3.882   3.324
 2087SOL     OW 8377   2.681   3.979   3.439
 2087SOL    HW2 8378   2.668   3.960   3.532
 2087SOL    HW3 8379   2.666   4.073   3.430
 2087SOL    MW4 8380   2.677   3.989   3.450
 2088SOL     OW 8381   2.648   4.249   3.372
 2088SOL    HW2 8382   2.720   4.284   3.425
 2088SOL    HW3 8383   2.570   4.293   3.406
 2088SOL    MW4 8384   2.647   4.260   3.383
 2089SOL     OW 8385   2.897   4.350   3.482
 2089SOL    HW2 8386   2.893   4.364   3.576
 2089SOL    HW3 8387   2.892   4.438   3.444
 2089SOL    MW4 8388   2.895   4.363   3.489
 2090SOL     OW 8389   3.350   4.632   3.405
 2090SOL    HW2 8390   3.263   4.670   3.417
 2090SOL    HW3 8391   3.373   4.654   3.315
 2090SOL    MW4 8392   3.341   4.640   3.395
 2091SOL     OW 8393   3.106   0.076   3.478
 2091SOL    HW2 8394   3.101   0.169   3.453
 2091SOL    HW3 8395   3.019   0.042   3.457
 2091SOL    MW4 8396   3.094   0.084   3.472
 2092SOL     OW 8397   3.125   0.342   3.409
 2092SOL    HW2 8398   3.045   0.379   3.444
 2092SOL    HW3 8399   3.116   0.351   3.314
 2092SOL    MW4 8400   3.114   0.348   3.401
 2093SOL     OW 8401   3.346   0.516   3.476
 2093SOL    HW2 8402   3.356   0.519   3.571
 2093SOL    HW3 8403   3.281   0.448   3.461
 2093SOL    MW4 8404   3.339   0.508   3.487
 2094SOL     OW 8405   3.303   0.755   3.326
 2094SOL    HW2 8406   3.376   0.797   3.372
 2094SOL    HW3 8407   3.299   0.667   3.363
 2094SOL    MW4 8408   3.312   0.749   3.337
 2095SOL     OW 8409   3.133   0.889   3.517
 2095SOL    HW2 8410   3.120   0.977   3.483
 2095SOL    HW3 8411   3.186   0.845   3.450
 2095SOL    MW4 8412   3.138   0.895   3.504
 2096SOL     OW 8413   3.130   1.151   3.389
 2096SOL    HW2 8414   3.210   1.186   3.428
 2096SOL    HW3 8415   3.142   1.163   3.295
 2096SOL    MW4 8416   3.142   1.157   3.382
 2097SOL     OW 8417   3.350   1.273   3.512
 2097SOL    HW2 8418   3.415   1.233   3.454
 2097SOL    HW3 8419   3.347   1.364   3.483
 2097SOL    MW4 8420   3.358   1.280   3.500
 2098SOL     OW 8421   3.333   1.543   3.446
 2098SOL    HW2 8422   3.401   1.587   3.497
 2098SOL    HW3 8423   3.251   1.572   3.487
 2098SOL    MW4 8424   3.331   1.553   3.458
 2099SOL     OW 8425   3.104   1.686   3.516
 2099SOL    HW2 8426   3.129   1.766   3.470
 2099SOL    HW3 8427   3.029   1.653   3.467
 2099SOL    MW4 8428   3.097   1.692   3.504
 2100SOL     OW 8429   3.180   1.935   3.398
 2100SOL    HW2 8430   3.104   1.990   3.419
 2100SOL    HW3 8431   3.174   1.921   3.304
 2100SOL    MW4 8432   3.169   1.940   3.388
 2101SOL     OW 8433   3.396   2.076   3.504
 2101SOL    HW2 8434   3.401   2.155   3.451
 2101SOL    HW3 8435   3.329   2.023   3.461
 2101SOL    MW4 8436   3.388   2.079   3.491
 2102SOL     OW 8437   3.378   2.326   3.373
 2102SOL    HW2 8438   3.456   2.370   3.407
 2102SOL    HW3 8439   3.305   2.365   3.422
 2102SOL    MW4 8440   3.378   2.337   3.384
 2103SOL     OW 8441   3.135   2.456   3.498
 2103SOL    HW2 8442   3.146   2.540   3.454
 2103SOL    HW3 8443   3.053   2.421   3.462
 2103SOL    MW4 8444   3.126   2.462   3.487
 2104SOL     OW 8445   3.127   2.699   3.381
 2104SOL    HW2 8446   3.184   2.760   3.429
 2104SOL    HW3 8447   3.039   2.735   3.391
 2104SOL    MW4 8448   3.123   2.712   3.388
 2105SOL     OW 8449   3.335   2.834   3.499
 2105SOL    HW2 8450   3.391   2.775   3.449
 2105SOL    HW3 8451   3.366   2.921   3.475
 2105SOL    MW4 8452   3.347   2.838   3.489
 2106SOL     OW 8453   3.400   3.096   3.383
 2106SOL    HW2 8454   3.483   3.125   3.421
 2106SOL    HW3 8455   3.333   3.136   3.439
 2106SOL    MW4 8456   3.402   3.105   3.395
 2107SOL     OW 8457   3.152   3.173   3.511
 2107SOL    HW2 8458   3.149   3.268   3.497
 2107SOL    HW3 8459   3.070   3.140   3.475
 2107SOL    MW4 8460   3.141   3.181   3.504
 2108SOL     OW 8461   3.106   3.432   3.420
 2108SOL    HW2 8462   3.038   3.499   3.424
 2108SOL    HW3 8463   3.124   3.421   3.327
 2108SOL    MW4 8464   3.100   3.440   3.408
 2109SOL     OW 8465   3.337   3.594   3.521
 2109SOL    HW2 8466   3.341   3.683   3.485
 2109SOL    HW3 8467   3.253   3.560   3.491
 2109SOL    MW4 8468   3.326   3.602   3.513
 2110SOL     OW 8469   3.360   3.838   3.406
 2110SOL    HW2 8470   3.427   3.903   3.426
 2110SOL    HW3 8471   3.279   3.876   3.442
 2110SOL    MW4 8472   3.358   3.851   3.414
 2111SOL     OW 8473   3.120   3.956   3.480
 2111SOL    HW2 8474   3.116   3.941   3.575
 2111SOL    HW3 8475   3.120   4.051   3.470
 2111SOL    MW4 8476   3.120   3.967   3.491
 2112SOL     OW 8477   3.137   4.223   3.423
 2112SOL    HW2 8478   3.212   4.277   3.447
 2112SOL    HW3 8479   3.062   4.268   3.462
 2112SOL    MW4 8480   3.137   4.236   3.432
 2113SOL     OW 8481   3.382   4.357   3.468
 2113SOL    HW2 8482   3.379   4.356   3.563
 2113SOL    HW3 8483   3.373   4.449   3.444
 2113SOL    MW4 8484   3.380   4.369   3.477
 2114SOL     OW 8485   3.835   4.658   3.399
 2114SOL    HW2 8486   3.753   4.681   3.443
 2114SOL    HW3 8487   3.814   4.665   3.306
 2114SOL    MW4 8488   3.821   4.662   3.392
 2115SOL     OW 8489   3.586   0.086   3.485
 2115SOL    HW2 8490   3.573   0.176   3.457
 2115SOL    HW3 8491   3.502   0.043   3.468
 2115SOL    MW4 8492   3.573   0.092   3.479
 2116SOL     OW 8493   3.544   0.345   3.402
 2116SOL    HW2 8494   3.618   0.397   3.433
 2116SOL    HW3 8495   3.467   0.389   3.437
 2116SOL    MW4 8496   3.544   0.357   3.411
 2117SOL     OW 8497   3.771   0.499   3.480
 2117SOL    HW2 8498   3.768   0.501   3.575
 2117SOL    HW3 8499   3.848   0.445   3.459
 2117SOL    MW4 8500   3.781   0.492   3.490
 2118SOL     OW 8501   3.766   0.785   3.382
 2118SOL    HW2 8502   3.858   0.811   3.395
 2118SOL    HW3 8503   3.762   0.695   3.413
 2118SOL    MW4 8504   3.778   0.777   3.388
 2119SOL     OW 8505   3.514   0.907   3.472
 2119SOL    HW2 8506   3.519   0.902   3.568
 2119SOL    HW3 8507   3.598   0.871   3.442
 2119SOL    MW4 8508   3.526   0.901   3.481
 2120SOL     OW 8509   3.543   1.163   3.359
 2120SOL    HW2 8510   3.526   1.076   3.397
 2120SOL    HW3 8511   3.559   1.146   3.266
 2120SOL    MW4 8512   3.543   1.149   3.352
 2121SOL     OW 8513   3.782   1.286   3.447
 2121SOL    HW2 8514   3.778   1.285   3.542
 2121SOL    HW3 8515   3.697   1.253   3.419
 2121SOL    MW4 8516   3.770   1.281   3.456
 2122SOL     OW 8517   3.775   1.548   3.391
 2122SOL    HW2 8518   3.846   1.590   3.438
 2122SOL    HW3 8519   3.782   1.455   3.415
 2122SOL    MW4 8520   3.785   1.541   3.400
 2123SOL     OW 8521   3.569   1.672   3.539
 2123SOL    HW2 8522   3.578   1.755   3.492
 2123SOL    HW3 8523   3.631   1.613   3.497
 2123SOL    MW4 8524   3.578   1.675   3.528
 2124SOL     OW 8525   3.604   1.917   3.413
 2124SOL    HW2 8526   3.676   1.962   3.457
 2124SOL    HW3 8527   3.525   1.960   3.445
 2124SOL    MW4 8528   3.603   1.929   3.423
 2125SOL     OW 8529   3.835   2.068   3.530
 2125SOL    HW2 8530   3.827   2.083   3.625
 2125SOL    HW3 8531   3.921   2.028   3.520
 2125SOL    MW4 8532   3.845   2.065   3.541
 2126SOL     OW 8533   3.785   2.276   3.364
 2126SOL    HW2 8534   3.860   2.327   3.397
 2126SOL    HW3 8535   3.796   2.190   3.404
 2126SOL    MW4 8536   3.797   2.271   3.374
 2127SOL     OW 8537   3.600   2.435   3.517
 2127SOL    HW2 8538   3.581   2.513   3.464
 2127SOL    HW3 8539   3.671   2.391   3.471
 2127SOL    MW4 8540   3.607   2.440   3.504
 2128SOL     OW 8541   3.532   2.672   3.390
 2128SOL    HW2 8542   3.609   2.722   3.417
 2128SOL    HW3 8543   3.535   2.674   3.294
 2128SOL    MW4 8544   3.542   2.679   3.381
 2129SOL     OW 8545   3.754   2.829   3.484
 2129SOL    HW2 8546   3.739   2.839   3.578
 2129SOL    HW3 8547   3.782   2.916   3.456
 2129SOL    MW4 8548   3.755   2.842   3.493
 2130SOL     OW 8549   3.822   3.091   3.392
 2130SOL    HW2 8550   3.900   3.130   3.431
 2130SOL    HW3 8551   3.834   3.102   3.298
 2130SOL    MW4 8552   3.834   3.098   3.385
 2131SOL     OW 8553   3.610   3.192   3.509
 2131SOL    HW2 8554   3.607   3.277   3.466
 2131SOL    HW3 8555   3.673   3.142   3.458
 2131SOL    MW4 8556   3.618   3.197   3.497
 2132SOL     OW 8557   3.562   3.439   3.395
 2132SOL    HW2 8558   3.503   3.498   3.441
 2132SOL    HW3 8559   3.554   3.463   3.303
 2132SOL    MW4 8560   3.553   3.450   3.389
 2133SOL     OW 8561   3.775   3.611   3.471
 2133SOL    HW2 8562   3.770   3.596   3.566
 2133SOL    HW3 8563   3.722   3.541   3.433
 2133SOL    MW4 8564   3.767   3.599   3.479
 2134SOL     OW 8565   3.780   3.854   3.362
 2134SOL    HW2 8566   3.708   3.904   3.400
 2134SOL    HW3 8567   3.776   3.769   3.407
 2134SOL    MW4 8568   3.770   3.849   3.373
 2135SOL     OW 8569   3.579   4.013   3.480
 2135SOL    HW2 8570   3.569   4.008   3.575
 2135SOL    HW3 8571   3.591   4.106   3.462
 2135SOL    MW4 8572   3.579   4.024   3.490
 2136SOL     OW 8573   3.632   4.277   3.399
 2136SOL    HW2 8574   3.542   4.309   3.402
 2136SOL    HW3 8575   3.652   4.272   3.305
 2136SOL    MW4 8576   3.623   4.280   3.387
 2137SOL     OW 8577   3.846   4.414   3.516
 2137SOL    HW2 8578   3.769   4.368   3.483
 2137SOL    HW3 8579   3.841   4.501   3.476
 2137SOL    MW4 8580   3.835   4.419   3.507
 2138SOL     OW 8581   4.301   4.627   3.401
 2138SOL    HW2 8582   4.300   4.539   3.439
 2138SOL    HW3 8583   4.381   4.667   3.436
 2138SOL    MW4 8584   4.311   4.621   3.411
 2139SOL     OW 8585   4.071   0.119   3.434
 2139SOL    HW2 8586   4.150   0.065   3.441
 2139SOL    HW3 8587   3.999   0.056   3.431
 2139SOL    MW4 8588   4.072   0.103   3.435
 2140SOL     OW 8589   4.014   0.386   3.410
 2140SOL    HW2 8590   4.032   0.292   3.415
 2140SOL    HW3 8591   4.039   0.410   3.320
 2140SOL    MW4 8592   4.019   0.377   3.398
 2141SOL     OW 8593   4.266   0.499   3.506
 2141SOL    HW2 8594   4.268   0.586   3.465
 2141SOL    HW3 8595   4.176   0.470   3.496
 2141SOL    MW4 8596   4.255   0.507   3.500
 2142SOL     OW 8597   4.238   0.741   3.383
 2142SOL    HW2 8598   4.311   0.791   3.419
 2142SOL    HW3 8599   4.246   0.751   3.288
 2142SOL    MW4 8600   4.249   0.749   3.375
 2143SOL     OW 8601   4.025   0.887   3.440
 2143SOL    HW2 8602   4.046   0.979   3.426
 2143SOL    HW3 8603   4.106   0.840   3.419
 2143SOL    MW4 8604   4.039   0.893   3.436
 2144SOL     OW 8605   4.039   1.188   3.418
 2144SOL    HW2 8606   4.098   1.249   3.463
 2144SOL    HW3 8607   3.952   1.219   3.440
 2144SOL    MW4 8608   4.036   1.200   3.427
 2145SOL     OW 8609   4.270   1.292   3.545
 2145SOL    HW2 8610   4.262   1.382   3.511
 2145SOL    HW3 8611   4.336   1.252   3.489
 2145SOL    MW4 8612   4.278   1.299   3.533
 2146SOL     OW 8613   4.255   1.555   3.432
 2146SOL    HW2 8614   4.177   1.606   3.453
 2146SOL    HW3 8615   4.253   1.545   3.337
 2146SOL    MW4 8616   4.244   1.560   3.422
 2147SOL     OW 8617   4.023   1.668   3.495
 2147SOL    HW2 8618   4.027   1.676   3.590
 2147SOL    HW3 8619   4.033   1.757   3.462
 2147SOL    MW4 8620   4.025   1.681   3.503
 2148SOL     OW 8621   4.043   1.928   3.412
 2148SOL    HW2 8622   4.123   1.980   3.422
 2148SOL    HW3 8623   4.027   1.928   3.317
 2148SOL    MW4 8624   4.052   1.935   3.400
 2149SOL     OW 8625   4.245   2.072   3.508
 2149SOL    HW2 8626   4.231   2.157   3.466
 2149SOL    HW3 8627   4.322   2.036   3.464
 2149SOL    MW4 8628   4.253   2.079   3.496
 2150SOL     OW 8629   4.236   2.325   3.389
 2150SOL    HW2 8630   4.159   2.362   3.431
 2150SOL    HW3 8631   4.221   2.338   3.295
 2150SOL    MW4 8632   4.224   2.332   3.382
 2151SOL     OW 8633   3.989   2.413   3.479
 2151SOL    HW2 8634   3.985   2.431   3.573
 2151SOL    HW3 8635   3.973   2.498   3.438
 2151SOL    MW4 8636   3.987   2.426   3.486
 2152SOL     OW 8637   3.964   2.692   3.379
 2152SOL    HW2 8638   4.040   2.731   3.422
 2152SOL    HW3 8639   3.888   2.735   3.419
 2152SOL    MW4 8640   3.964   2.703   3.390
 2153SOL     OW 8641   4.200   2.809   3.445
 2153SOL    HW2 8642   4.218   2.821   3.539
 2153SOL    HW3 8643   4.285   2.784   3.408
 2153SOL    MW4 8644   4.214   2.807   3.453
 2154SOL     OW 8645   4.248   3.096   3.380
 2154SOL    HW2 8646   4.242   3.004   3.406
 2154SOL    HW3 8647   4.234   3.094   3.286
 2154SOL    MW4 8648   4.245   3.083   3.371
 2155SOL     OW 8649   4.035   3.229   3.489
 2155SOL    HW2 8650   4.035   3.320   3.460
 2155SOL    HW3 8651   4.112   3.190   3.447
 2155SOL    MW4 8652   4.045   3.236   3.479
 2156SOL     OW 8653   4.035   3.510   3.375
 2156SOL    HW2 8654   4.103   3.557   3.423
 2156SOL    HW3 8655   3.953   3.550   3.405
 2156SOL    MW4 8656   4.033   3.522   3.385
 2157SOL     OW 8657   4.240   3.649   3.495
 2157SOL    HW2 8658   4.225   3.634   3.588
 2157SOL    HW3 8659   4.225   3.743   3.483
 2157SOL    MW4 8660   4.236   3.660   3.505
 2158SOL     OW 8661   4.218   3.910   3.421
 2158SOL    HW2 8662   4.299   3.948   3.454
 2158SOL    HW3 8663   4.231   3.902   3.327
 2158SOL    MW4 8664   4.230   3.914   3.413
 2159SOL     OW 8665   3.971   4.016   3.474
 2159SOL    HW2 8666   4.057   3.976   3.462
 2159SOL    HW3 8667   3.909   3.952   3.441
 2159SOL    MW4 8668   3.974   4.003   3.468
 2160SOL     OW 8669   4.021   4.268   3.380
 2160SOL    HW2 8670   4.022   4.179   3.415
 2160SOL    HW3 8671   3.954   4.313   3.432
 2160SOL    MW4 8672   4.012   4.262   3.392
 2161SOL     OW 8673   4.248   4.358   3.514
 2161SOL    HW2 8674   4.238   4.354   3.609
 2161SOL    HW3 8675   4.168   4.317   3.480
 2161SOL    MW4 8676   4.236   4.352   3.522
 2162SOL     OW 8677   0.202   4.642   3.845
 2162SOL    HW2 8678   0.208   4.628   3.940
 2162SOL    HW3 8679   0.117   4.684   3.833
 2162SOL    MW4 8680   0.192   4.646   3.856
 2163SOL     OW 8681   4.447   0.095   3.771
 2163SOL    HW2 8682   4.466   0.177   3.816
 2163SOL    HW3 8683   4.471   0.111   3.680
 2163SOL    MW4 8684   4.453   0.108   3.765
 2164SOL     OW 8685   0.009   0.355   3.861
 2164SOL    HW2 8686  -0.072   0.404   3.847
 2164SOL    HW3 8687   0.071   0.393   3.799
 2164SOL    MW4 8688   0.007   0.367   3.851
 2165SOL     OW 8689   0.183   0.518   3.734
 2165SOL    HW2 8690   0.181   0.610   3.762
 2165SOL    HW3 8691   0.191   0.522   3.639
 2165SOL    MW4 8692   0.184   0.531   3.725
 2166SOL     OW 8693   0.214   0.775   3.821
 2166SOL    HW2 8694   0.200   0.762   3.915
 2166SOL    HW3 8695   0.137   0.823   3.791
 2166SOL    MW4 8696   0.202   0.780   3.829
 2167SOL     OW 8697   4.476   0.908   3.745
 2167SOL    HW2 8698   4.398   0.872   3.786
 2167SOL    HW3 8699   4.476   1.001   3.768
 2167SOL    MW4 8700   4.466   0.915   3.753
 2168SOL     OW 8701   0.026   1.169   3.831
 2168SOL    HW2 8702  -0.054   1.223   3.830
 2168SOL    HW3 8703   0.092   1.222   3.786
 2168SOL    MW4 8704   0.024   1.183   3.825
 2169SOL     OW 8705   0.225   1.324   3.716
 2169SOL    HW2 8706   0.191   1.411   3.738
 2169SOL    HW3 8707   0.194   1.308   3.627
 2169SOL    MW4 8708   0.217   1.333   3.707
 2170SOL     OW 8709   0.177   1.558   3.841
 2170SOL    HW2 8710   0.156   1.543   3.933
 2170SOL    HW3 8711   0.095   1.588   3.802
 2170SOL    MW4 8712   0.163   1.560   3.848
 2171SOL     OW 8713   4.456   1.703   3.742
 2171SOL    HW2 8714   4.451   1.796   3.765
 2171SOL    HW3 8715   4.466   1.702   3.647
 2171SOL    MW4 8716   4.457   1.715   3.733
 2172SOL     OW 8717   4.471   1.959   3.868
 2172SOL    HW2 8718   4.472   1.944   3.962
 2172SOL    HW3 8719   4.385   1.998   3.850
 2172SOL    MW4 8720   4.459   1.962   3.878
 2173SOL     OW 8721   0.193   2.062   3.720
 2173SOL    HW2 8722   0.205   2.153   3.749
 2173SOL    HW3 8723   0.114   2.033   3.766
 2173SOL    MW4 8724   0.184   2.070   3.730
 2174SOL     OW 8725   0.234   2.301   3.831
 2174SOL    HW2 8726   0.216   2.291   3.924
 2174SOL    HW3 8727   0.156   2.346   3.797
 2174SOL    MW4 8728   0.221   2.306   3.839
 2175SOL     OW 8729   0.020   2.425   3.712
 2175SOL    HW2 8730  -0.071   2.397   3.721
 2175SOL    HW3 8731   0.022   2.513   3.751
 2175SOL    MW4 8732   0.009   2.433   3.718
 2176SOL     OW 8733   4.465   2.675   3.809
 2176SOL    HW2 8734   4.492   2.666   3.901
 2176SOL    HW3 8735   4.537   2.726   3.769
 2176SOL    MW4 8736   4.478   2.681   3.816
 2177SOL     OW 8737   0.195   2.847   3.749
 2177SOL    HW2 8738   0.267   2.791   3.776
 2177SOL    HW3 8739   0.213   2.866   3.656
 2177SOL    MW4 8740   0.207   2.842   3.740
 2178SOL     OW 8741   0.225   3.110   3.838
 2178SOL    HW2 8742   0.226   3.114   3.934
 2178SOL    HW3 8743   0.201   3.020   3.818
 2178SOL    MW4 8744   0.222   3.099   3.848
 2179SOL     OW 8745   4.484   3.231   3.754
 2179SOL    HW2 8746   4.559   3.178   3.781
 2179SOL    HW3 8747   4.475   3.214   3.661
 2179SOL    MW4 8748   4.493   3.222   3.745
 2180SOL     OW 8749   4.468   3.494   3.811
 2180SOL    HW2 8750   4.551   3.540   3.805
 2180SOL    HW3 8751   4.490   3.402   3.798
 2180SOL    MW4 8752   4.482   3.488   3.808
 2181SOL     OW 8753   0.203   3.629   3.744
 2181SOL    HW2 8754   0.283   3.589   3.776
 2181SOL    HW3 8755   0.199   3.715   3.786
 2181SOL    MW4 8756   0.213   3.635   3.753
 2182SOL     OW 8757   0.173   3.894   3.841
 2182SOL    HW2 8758   0.141   3.911   3.930
 2182SOL    HW3 8759   0.260   3.934   3.838
 2182SOL    MW4 8760   0.180   3.901   3.852
 2183SOL     OW 8761   4.470   4.021   3.710
 2183SOL    HW2 8762   4.388   3.977   3.734
 2183SOL    HW3 8763   4.539   3.968   3.751
 2183SOL    MW4 8764   4.468   4.008   3.718
 2184SOL     OW 8765   4.469   4.271   3.822
 2184SOL    HW2 8766   4.552   4.302   3.787
 2184SOL    HW3 8767   4.462   4.181   3.791
 2184SOL    MW4 8768   4.479   4.263   3.814
 2185SOL     OW 8769   0.222   4.393   3.734
 2185SOL    HW2 8770   0.283   4.350   3.793
 2185SOL    HW3 8771   0.199   4.474   3.778
 2185SOL    MW4 8772   0.227   4.398   3.747
 2186SOL     OW 8773   0.629   0.008   3.878
 2186SOL    HW2 8774   0.623  -0.088   3.882
 2186SOL    HW3 8775   0.552   0.034   3.828
 2186SOL    MW4 8776   0.618  -0.002   3.872
 2187SOL     OW 8777   0.421   0.132   3.731
 2187SOL    HW2 8778   0.422   0.206   3.791
 2187SOL    HW3 8779   0.349   0.077   3.762
 2187SOL    MW4 8780   0.411   0.134   3.743
 2188SOL     OW 8781   0.451   0.393   3.855
 2188SOL    HW2 8782   0.532   0.412   3.807
 2188SOL    HW3 8783   0.387   0.455   3.819
 2188SOL    MW4 8784   0.453   0.404   3.844
 2189SOL     OW 8785   0.662   0.487   3.720
 2189SOL    HW2 8786   0.741   0.461   3.767
 2189SOL    HW3 8787   0.631   0.565   3.767
 2189SOL    MW4 8788   0.668   0.494   3.733
 2190SOL     OW 8789   0.633   0.726   3.845
 2190SOL    HW2 8790   0.713   0.775   3.822
 2190SOL    HW3 8791   0.562   0.778   3.807
 2190SOL    MW4 8792   0.634   0.740   3.837
 2191SOL     OW 8793   0.429   0.941   3.766
 2191SOL    HW2 8794   0.411   1.028   3.801
 2191SOL    HW3 8795   0.352   0.889   3.790
 2191SOL    MW4 8796   0.416   0.946   3.774
 2192SOL     OW 8797   0.426   1.208   3.854
 2192SOL    HW2 8798   0.513   1.223   3.817
 2192SOL    HW3 8799   0.368   1.266   3.804
 2192SOL    MW4 8800   0.430   1.218   3.843
 2193SOL     OW 8801   0.681   1.282   3.762
 2193SOL    HW2 8802   0.764   1.245   3.793
 2193SOL    HW3 8803   0.677   1.257   3.669
 2193SOL    MW4 8804   0.692   1.274   3.754
 2194SOL     OW 8805   0.610   1.544   3.837
 2194SOL    HW2 8806   0.686   1.592   3.804
 2194SOL    HW3 8807   0.623   1.455   3.806
 2194SOL    MW4 8808   0.621   1.539   3.829
 2195SOL     OW 8809   0.398   1.682   3.721
 2195SOL    HW2 8810   0.467   1.624   3.755
 2195SOL    HW3 8811   0.318   1.650   3.762
 2195SOL    MW4 8812   0.396   1.670   3.731
 2196SOL     OW 8813   0.407   1.920   3.843
 2196SOL    HW2 8814   0.404   1.832   3.804
 2196SOL    HW3 8815   0.326   1.962   3.814
 2196SOL    MW4 8816   0.396   1.914   3.834
 2197SOL     OW 8817   0.636   2.012   3.722
 2197SOL    HW2 8818   0.635   2.101   3.757
 2197SOL    HW3 8819   0.562   1.968   3.765
 2197SOL    MW4 8820   0.626   2.018   3.732
 2198SOL     OW 8821   0.674   2.261   3.819
 2198SOL    HW2 8822   0.752   2.310   3.791
 2198SOL    HW3 8823   0.600   2.317   3.795
 2198SOL    MW4 8824   0.675   2.275   3.812
 2199SOL     OW 8825   0.458   2.436   3.742
 2199SOL    HW2 8826   0.379   2.388   3.768
 2199SOL    HW3 8827   0.460   2.429   3.647
 2199SOL    MW4 8828   0.448   2.428   3.733
 2200SOL     OW 8829   0.427   2.711   3.796
 2200SOL    HW2 8830   0.505   2.762   3.772
 2200SOL    HW3 8831   0.455   2.620   3.789
 2200SOL    MW4 8832   0.441   2.706   3.792
 2201SOL     OW 8833   0.681   2.854   3.751
 2201SOL    HW2 8834   0.755   2.803   3.783
 2201SOL    HW3 8835   0.700   2.868   3.658
 2201SOL    MW4 8836   0.693   2.849   3.743
 2202SOL     OW 8837   0.666   3.111   3.836
 2202SOL    HW2 8838   0.670   3.118   3.931
 2202SOL    HW3 8839   0.659   3.017   3.819
 2202SOL    MW4 8840   0.666   3.100   3.846
 2203SOL     OW 8841   0.443   3.267   3.806
 2203SOL    HW2 8842   0.517   3.214   3.838
 2203SOL    HW3 8843   0.366   3.215   3.827
 2203SOL    MW4 8844   0.443   3.253   3.813
 2204SOL     OW 8845   0.416   3.525   3.860
 2204SOL    HW2 8846   0.497   3.565   3.829
 2204SOL    HW3 8847   0.430   3.431   3.851
 2204SOL    MW4 8848   0.428   3.518   3.855
 2205SOL     OW 8849   0.655   3.625   3.798
 2205SOL    HW2 8850   0.641   3.716   3.823
 2205SOL    HW3 8851   0.656   3.626   3.702
 2205SOL    MW4 8852   0.653   3.637   3.789
 2206SOL     OW 8853   0.629   3.891   3.865
 2206SOL    HW2 8854   0.635   3.888   3.960
 2206SOL    HW3 8855   0.708   3.938   3.837
 2206SOL    MW4 8856   0.640   3.897   3.874
 2207SOL     OW 8857   0.418   4.041   3.812
 2207SOL    HW2 8858   0.500   3.993   3.827
 2207SOL    HW3 8859   0.416   4.056   3.718
 2207SOL    MW4 8860   0.428   4.037   3.802
 2208SOL     OW 8861   0.419   4.284   3.931
 2208SOL    HW2 8862   0.492   4.323   3.883
 2208SOL    HW3 8863   0.421   4.191   3.906
 2208SOL    MW4 8864   0.429   4.277   3.921
 2209SOL     OW 8865   0.618   4.398   3.814
 2209SOL    HW2 8866   0.705   4.363   3.833
 2209SOL    HW3 8867   0.616   4.408   3.719
 2209SOL    MW4 8868   0.629   4.395   3.804
 2210SOL     OW 8869   1.084   0.045   3.914
 2210SOL    HW2 8870   1.168   0.082   3.886
 2210SOL    HW3 8871   1.093  -0.049   3.899
 2210SOL    MW4 8872   1.096   0.037   3.908
 2211SOL     OW 8873   0.867   0.095   3.744
 2211SOL    HW2 8874   0.941   0.069   3.799
 2211SOL    HW3 8875   0.791   0.056   3.786
 2211SOL    MW4 8876   0.866   0.087   3.757
 2212SOL     OW 8877   0.890   0.387   3.842
 2212SOL    HW2 8878   0.872   0.383   3.936
 2212SOL    HW3 8879   0.887   0.296   3.813
 2212SOL    MW4 8880   0.887   0.374   3.850
 2213SOL     OW 8881   1.129   0.527   3.777
 2213SOL    HW2 8882   1.205   0.477   3.808
 2213SOL    HW3 8883   1.054   0.473   3.802
 2213SOL    MW4 8884   1.129   0.513   3.785
 2214SOL     OW 8885   1.113   0.797   3.852
 2214SOL    HW2 8886   1.106   0.797   3.947
 2214SOL    HW3 8887   1.116   0.705   3.828
 2214SOL    MW4 8888   1.113   0.785   3.861
 2215SOL     OW 8889   0.869   0.863   3.744
 2215SOL    HW2 8890   0.954   0.842   3.782
 2215SOL    HW3 8891   0.887   0.878   3.651
 2215SOL    MW4 8892   0.883   0.862   3.736
 2216SOL     OW 8893   0.911   1.112   3.838
 2216SOL    HW2 8894   0.894   1.105   3.932
 2216SOL    HW3 8895   0.885   1.028   3.802
 2216SOL    MW4 8896   0.905   1.100   3.845
 2217SOL     OW 8897   1.101   1.270   3.698
 2217SOL    HW2 8898   1.105   1.350   3.749
 2217SOL    HW3 8899   1.027   1.222   3.734
 2217SOL    MW4 8900   1.092   1.274   3.710
 2218SOL     OW 8901   1.075   1.507   3.847
 2218SOL    HW2 8902   1.075   1.520   3.942
 2218SOL    HW3 8903   1.156   1.549   3.817
 2218SOL    MW4 8904   1.086   1.515   3.856
 2219SOL     OW 8905   0.854   1.664   3.745
 2219SOL    HW2 8906   0.921   1.604   3.779
 2219SOL    HW3 8907   0.858   1.654   3.650
 2219SOL    MW4 8908   0.863   1.654   3.737
 2220SOL     OW 8909   0.880   1.930   3.822
 2220SOL    HW2 8910   0.882   1.843   3.783
 2220SOL    HW3 8911   0.801   1.971   3.785
 2220SOL    MW4 8912   0.869   1.924   3.812
 2221SOL     OW 8913   1.122   2.039   3.773
 2221SOL    HW2 8914   1.047   1.999   3.816
 2221SOL    HW3 8915   1.103   2.034   3.680
 2221SOL    MW4 8916   1.110   2.033   3.767
 2222SOL     OW 8917   1.110   2.298   3.830
 2222SOL    HW2 8918   1.104   2.303   3.925
 2222SOL    HW3 8919   1.112   2.205   3.810
 2222SOL    MW4 8920   1.109   2.286   3.840
 2223SOL     OW 8921   0.887   2.412   3.749
 2223SOL    HW2 8922   0.885   2.502   3.779
 2223SOL    HW3 8923   0.969   2.377   3.782
 2223SOL    MW4 8924   0.897   2.419   3.757
 2224SOL     OW 8925   0.879   2.668   3.839
 2224SOL    HW2 8926   0.857   2.639   3.927
 2224SOL    HW3 8927   0.953   2.728   3.850
 2224SOL    MW4 8928   0.886   2.673   3.852
 2225SOL     OW 8929   1.100   2.844   3.750
 2225SOL    HW2 8930   1.172   2.796   3.790
 2225SOL    HW3 8931   1.118   2.936   3.770
 2225SOL    MW4 8932   1.112   2.850   3.758
 2226SOL     OW 8933   1.097   3.126   3.810
 2226SOL    HW2 8934   1.177   3.171   3.787
 2226SOL    HW3 8935   1.030   3.163   3.752
 2226SOL    MW4 8936   1.098   3.136   3.799
 2227SOL     OW 8937   0.866   3.263   3.730
 2227SOL    HW2 8938   0.792   3.210   3.761
 2227SOL    HW3 8939   0.854   3.267   3.635
 2227SOL    MW4 8940   0.854   3.257   3.721
 2228SOL     OW 8941   0.878   3.489   3.884
 2228SOL    HW2 8942   0.882   3.404   3.840
 2228SOL    HW3 8943   0.792   3.524   3.861
 2228SOL    MW4 8944   0.867   3.482   3.875
 2229SOL     OW 8945   1.101   3.636   3.812
 2229SOL    HW2 8946   1.093   3.721   3.854
 2229SOL    HW3 8947   1.020   3.590   3.835
 2229SOL    MW4 8948   1.089   3.641   3.821
 2230SOL     OW 8949   1.086   3.897   3.933
 2230SOL    HW2 8950   1.090   3.889   4.028
 2230SOL    HW3 8951   1.174   3.925   3.908
 2230SOL    MW4 8952   1.098   3.900   3.942
 2231SOL     OW 8953   0.870   4.006   3.786
 2231SOL    HW2 8954   0.941   3.972   3.839
 2231SOL    HW3 8955   0.910   4.027   3.702
 2231SOL    MW4 8956   0.884   4.004   3.782
 2232SOL     OW 8957   0.859   4.309   3.883
 2232SOL    HW2 8958   0.905   4.311   3.967
 2232SOL    HW3 8959   0.859   4.217   3.858
 2232SOL    MW4 8960   0.865   4.297   3.891
 2233SOL     OW 8961   1.102   4.428   3.798
 2233SOL    HW2 8962   1.018   4.391   3.826
 2233SOL    HW3 8963   1.099   4.424   3.702
 2233SOL    MW4 8964   1.091   4.422   3.789
 2234SOL     OW 8965   1.528   4.614   3.859
 2234SOL    HW2 8966   1.502   4.603   3.951
 2234SOL    HW3 8967   1.511   4.528   3.819
 2234SOL    MW4 8968   1.522   4.601   3.866
 2235SOL     OW 8969   1.327   0.113   3.799
 2235SOL    HW2 8970   1.336   0.207   3.815
 2235SOL    HW3 8971   1.409   0.075   3.831
 2235SOL    MW4 8972   1.339   0.120   3.805
 2236SOL     OW 8973   1.336   0.379   3.880
 2236SOL    HW2 8974   1.352   0.377   3.974
 2236SOL    HW3 8975   1.413   0.421   3.843
 2236SOL    MW4 8976   1.348   0.384   3.888
 2237SOL     OW 8977   1.531   0.505   3.744
 2237SOL    HW2 8978   1.604   0.448   3.771
 2237SOL    HW3 8979   1.553   0.591   3.780
 2237SOL    MW4 8980   1.544   0.509   3.752
 2238SOL     OW 8981   1.575   0.736   3.880
 2238SOL    HW2 8982   1.637   0.795   3.838
 2238SOL    HW3 8983   1.490   0.780   3.871
 2238SOL    MW4 8984   1.572   0.749   3.873
 2239SOL     OW 8985   1.345   0.890   3.767
 2239SOL    HW2 8986   1.339   0.985   3.777
 2239SOL    HW3 8987   1.263   0.857   3.803
 2239SOL    MW4 8988   1.333   0.899   3.773
 2240SOL     OW 8989   1.311   1.155   3.860
 2240SOL    HW2 8990   1.390   1.194   3.823
 2240SOL    HW3 8991   1.239   1.201   3.816
 2240SOL    MW4 8992   1.312   1.166   3.849
 2241SOL     OW 8993   1.556   1.262   3.744
 2241SOL    HW2 8994   1.631   1.217   3.784
 2241SOL    HW3 8995   1.565   1.353   3.771
 2241SOL    MW4 8996   1.567   1.268   3.753
 2242SOL     OW 8997   1.574   1.524   3.839
 2242SOL    HW2 8998   1.584   1.516   3.934
 2242SOL    HW3 8999   1.649   1.576   3.811
 2242SOL    MW4 9000   1.585   1.530   3.848
 2243SOL     OW 9001   1.345   1.641   3.759
 2243SOL    HW2 9002   1.341   1.731   3.793
 2243SOL    HW3 9003   1.424   1.604   3.797
 2243SOL    MW4 9004   1.355   1.648   3.769
 2244SOL     OW 9005   1.343   1.903   3.863
 2244SOL    HW2 9006   1.330   1.899   3.957
 2244SOL    HW3 9007   1.265   1.949   3.830
 2244SOL    MW4 9008   1.331   1.909   3.871
 2245SOL     OW 9009   1.544   2.096   3.797
 2245SOL    HW2 9010   1.472   2.039   3.822
 2245SOL    HW3 9011   1.547   2.090   3.701
 2245SOL    MW4 9012   1.535   2.088   3.787
 2246SOL     OW 9013   1.523   2.365   3.884
 2246SOL    HW2 9014   1.606   2.392   3.845
 2246SOL    HW3 9015   1.519   2.270   3.870
 2246SOL    MW4 9016   1.533   2.356   3.877
 2247SOL     OW 9017   1.313   2.471   3.739
 2247SOL    HW2 9018   1.379   2.429   3.795
 2247SOL    HW3 9019   1.233   2.422   3.756
 2247SOL    MW4 9020   1.311   2.459   3.749
 2248SOL     OW 9021   1.318   2.715   3.856
 2248SOL    HW2 9022   1.308   2.708   3.951
 2248SOL    HW3 9023   1.314   2.625   3.825
 2248SOL    MW4 9024   1.316   2.702   3.865
 2249SOL     OW 9025   1.526   2.868   3.765
 2249SOL    HW2 9026   1.453   2.811   3.789
 2249SOL    HW3 9027   1.529   2.865   3.670
 2249SOL    MW4 9028   1.517   2.860   3.756
 2250SOL     OW 9029   1.533   3.113   3.888
 2250SOL    HW2 9030   1.474   3.127   3.962
 2250SOL    HW3 9031   1.524   3.020   3.867
 2250SOL    MW4 9032   1.524   3.103   3.895
 2251SOL     OW 9033   1.329   3.246   3.724
 2251SOL    HW2 9034   1.326   3.335   3.761
 2251SOL    HW3 9035   1.407   3.207   3.763
 2251SOL    MW4 9036   1.339   3.253   3.734
 2252SOL     OW 9037   1.336   3.474   3.878
 2252SOL    HW2 9038   1.415   3.518   3.847
 2252SOL    HW3 9039   1.264   3.531   3.853
 2252SOL    MW4 9040   1.337   3.487   3.871
 2253SOL     OW 9041   1.560   3.618   3.763
 2253SOL    HW2 9042   1.638   3.568   3.787
 2253SOL    HW3 9043   1.571   3.702   3.810
 2253SOL    MW4 9044   1.572   3.623   3.772
 2254SOL     OW 9045   1.574   3.882   3.847
 2254SOL    HW2 9046   1.587   3.867   3.941
 2254SOL    HW3 9047   1.483   3.914   3.841
 2254SOL    MW4 9048   1.564   3.885   3.859
 2255SOL     OW 9049   1.327   3.987   3.830
 2255SOL    HW2 9050   1.300   4.073   3.862
 2255SOL    HW3 9051   1.310   3.990   3.736
 2255SOL    MW4 9052   1.321   3.999   3.822
 2256SOL     OW 9053   1.282   4.256   3.913
 2256SOL    HW2 9054   1.368   4.281   3.880
 2256SOL    HW3 9055   1.221   4.318   3.872
 2256SOL    MW4 9056   1.285   4.268   3.903
 2257SOL     OW 9057   1.523   4.334   3.776
 2257SOL    HW2 9058   1.608   4.296   3.798
 2257SOL    HW3 9059   1.527   4.348   3.681
 2257SOL    MW4 9060   1.535   4.331   3.766
 2258SOL     OW 9061   2.021   4.617   3.864
 2258SOL    HW2 9062   2.093   4.668   3.825
 2258SOL    HW3 9063   2.032   4.529   3.827
 2258SOL    MW4 9064   2.032   4.612   3.854
 2259SOL     OW 9065   1.767   0.060   3.802
 2259SOL    HW2 9066   1.843   0.024   3.848
 2259SOL    HW3 9067   1.697  -0.003   3.821
 2259SOL    MW4 9068   1.768   0.047   3.811
 2260SOL     OW 9069   1.706   0.316   3.847
 2260SOL    HW2 9070   1.742   0.329   3.935
 2260SOL    HW3 9071   1.715   0.222   3.831
 2260SOL    MW4 9072   1.712   0.305   3.857
 2261SOL     OW 9073   1.946   0.470   3.773
 2261SOL    HW2 9074   1.864   0.421   3.786
 2261SOL    HW3 9075   1.953   0.480   3.678
 2261SOL    MW4 9076   1.936   0.465   3.762
 2262SOL     OW 9077   2.006   0.718   3.869
 2262SOL    HW2 9078   2.005   0.724   3.964
 2262SOL    HW3 9079   1.988   0.626   3.849
 2262SOL    MW4 9080   2.004   0.707   3.879
 2263SOL     OW 9081   1.795   0.886   3.761
 2263SOL    HW2 9082   1.871   0.830   3.776
 2263SOL    HW3 9083   1.797   0.905   3.667
 2263SOL    MW4 9084   1.805   0.881   3.750
 2264SOL     OW 9085   1.793   1.144   3.862
 2264SOL    HW2 9086   1.792   1.133   3.957
 2264SOL    HW3 9087   1.813   1.057   3.828
 2264SOL    MW4 9088   1.795   1.131   3.870
 2265SOL     OW 9089   2.015   1.315   3.812
 2265SOL    HW2 9090   2.096   1.264   3.820
 2265SOL    HW3 9091   1.945   1.253   3.830
 2265SOL    MW4 9092   2.017   1.300   3.816
 2266SOL     OW 9093   2.025   1.566   3.934
 2266SOL    HW2 9094   1.951   1.616   3.898
 2266SOL    HW3 9095   2.012   1.478   3.900
 2266SOL    MW4 9096   2.013   1.561   3.925
 2267SOL     OW 9097   1.786   1.691   3.777
 2267SOL    HW2 9098   1.784   1.786   3.792
 2267SOL    HW3 9099   1.780   1.683   3.682
 2267SOL    MW4 9100   1.785   1.703   3.766
 2268SOL     OW 9101   1.782   1.959   3.846
 2268SOL    HW2 9102   1.773   1.964   3.941
 2268SOL    HW3 9103   1.697   1.989   3.813
 2268SOL    MW4 9104   1.770   1.964   3.854
 2269SOL     OW 9105   2.020   2.090   3.787
 2269SOL    HW2 9106   1.932   2.068   3.817
 2269SOL    HW3 9107   2.015   2.084   3.692
 2269SOL    MW4 9108   2.008   2.086   3.778
 2270SOL     OW 9109   2.003   2.380   3.875
 2270SOL    HW2 9110   1.916   2.414   3.855
 2270SOL    HW3 9111   2.002   2.291   3.838
 2270SOL    MW4 9112   1.991   2.373   3.867
 2271SOL     OW 9113   1.760   2.486   3.793
 2271SOL    HW2 9114   1.755   2.576   3.827
 2271SOL    HW3 9115   1.772   2.497   3.699
 2271SOL    MW4 9116   1.761   2.500   3.785
 2272SOL     OW 9117   1.749   2.745   3.882
 2272SOL    HW2 9118   1.759   2.771   3.973
 2272SOL    HW3 9119   1.673   2.793   3.850
 2272SOL    MW4 9120   1.740   2.755   3.889
 2273SOL     OW 9121   2.002   2.811   3.728
 2273SOL    HW2 9122   2.073   2.788   3.788
 2273SOL    HW3 9123   1.924   2.768   3.766
 2273SOL    MW4 9124   2.001   2.802   3.741
 2274SOL     OW 9125   1.952   3.103   3.779
 2274SOL    HW2 9126   1.980   3.013   3.761
 2274SOL    HW3 9127   2.030   3.156   3.765
 2274SOL    MW4 9128   1.966   3.098   3.775
 2275SOL     OW 9129   1.710   3.225   3.712
 2275SOL    HW2 9130   1.797   3.184   3.716
 2275SOL    HW3 9131   1.659   3.177   3.777
 2275SOL    MW4 9132   1.715   3.214   3.721
 2276SOL     OW 9133   1.759   3.443   3.882
 2276SOL    HW2 9134   1.846   3.468   3.853
 2276SOL    HW3 9135   1.740   3.362   3.835
 2276SOL    MW4 9136   1.768   3.436   3.872
 2277SOL     OW 9137   2.002   3.584   3.786
 2277SOL    HW2 9138   2.092   3.560   3.807
 2277SOL    HW3 9139   1.999   3.587   3.690
 2277SOL    MW4 9140   2.013   3.581   3.776
 2278SOL     OW 9141   1.985   3.868   3.824
 2278SOL    HW2 9142   2.077   3.885   3.802
 2278SOL    HW3 9143   1.974   3.774   3.806
 2278SOL    MW4 9144   1.996   3.858   3.819
 2279SOL     OW 9145   1.782   4.022   3.733
 2279SOL    HW2 9146   1.850   3.963   3.764
 2279SOL    HW3 9147   1.700   3.983   3.764
 2279SOL    MW4 9148   1.780   4.009   3.741
 2280SOL     OW 9149   1.795   4.261   3.854
 2280SOL    HW2 9150   1.863   4.298   3.798
 2280SOL    HW3 9151   1.787   4.170   3.827
 2280SOL    MW4 9152   1.803   4.254   3.843
 2281SOL     OW 9153   2.027   4.362   3.733
 2281SOL    HW2 9154   2.082   4.291   3.766
 2281SOL    HW3 9155   2.041   4.361   3.638
 2281SOL    MW4 9156   2.036   4.353   3.725
 2282SOL     OW 9157   2.457   4.606   3.870
 2282SOL    HW2 9158   2.446   4.615   3.964
 2282SOL    HW3 9159   2.539   4.652   3.850
 2282SOL    MW4 9160   2.466   4.613   3.879
 2283SOL     OW 9161   2.237   0.109   3.761
 2283SOL    HW2 9162   2.315   0.059   3.784
 2283SOL    HW3 9163   2.227   0.096   3.667
 2283SOL    MW4 9164   2.246   0.101   3.752
 2284SOL     OW 9165   2.203   0.377   3.859
 2284SOL    HW2 9166   2.206   0.290   3.819
 2284SOL    HW3 9167   2.121   0.415   3.827
 2284SOL    MW4 9168   2.193   0.371   3.849
 2285SOL     OW 9169   2.441   0.506   3.825
 2285SOL    HW2 9170   2.368   0.447   3.839
 2285SOL    HW3 9171   2.450   0.512   3.730
 2285SOL    MW4 9172   2.433   0.499   3.814
 2286SOL     OW 9173   2.430   0.780   3.886
 2286SOL    HW2 9174   2.345   0.818   3.862
 2286SOL    HW3 9175   2.421   0.687   3.865
 2286SOL    MW4 9176   2.417   0.773   3.880
 2287SOL     OW 9177   2.197   0.911   3.816
 2287SOL    HW2 9178   2.135   0.843   3.840
 2287SOL    HW3 9179   2.197   0.912   3.721
 2287SOL    MW4 9180   2.189   0.902   3.807
 2288SOL     OW 9181   2.252   1.179   3.885
 2288SOL    HW2 9182   2.247   1.191   3.980
 2288SOL    HW3 9183   2.232   1.087   3.871
 2288SOL    MW4 9184   2.249   1.169   3.896
 2289SOL     OW 9185   2.487   1.299   3.787
 2289SOL    HW2 9186   2.483   1.388   3.822
 2289SOL    HW3 9187   2.408   1.257   3.820
 2289SOL    MW4 9188   2.476   1.305   3.796
 2290SOL     OW 9189   2.450   1.575   3.895
 2290SOL    HW2 9190   2.526   1.616   3.853
 2290SOL    HW3 9191   2.375   1.623   3.862
 2290SOL    MW4 9192   2.450   1.587   3.885
 2291SOL     OW 9193   2.222   1.661   3.771
 2291SOL    HW2 9194   2.221   1.754   3.796
 2291SOL    HW3 9195   2.153   1.621   3.824
 2291SOL    MW4 9196   2.213   1.668   3.781
 2292SOL     OW 9197   2.251   1.930   3.870
 2292SOL    HW2 9198   2.276   1.937   3.962
 2292SOL    HW3 9199   2.188   2.001   3.857
 2292SOL    MW4 9200   2.246   1.940   3.880
 2293SOL     OW 9201   2.461   2.078   3.738
 2293SOL    HW2 9202   2.464   2.164   3.780
 2293SOL    HW3 9203   2.397   2.029   3.790
 2293SOL    MW4 9204   2.453   2.083   3.750
 2294SOL     OW 9205   2.487   2.320   3.875
 2294SOL    HW2 9206   2.560   2.372   3.841
 2294SOL    HW3 9207   2.411   2.377   3.865
 2294SOL    MW4 9208   2.487   2.335   3.869
 2295SOL     OW 9209   2.260   2.476   3.799
 2295SOL    HW2 9210   2.173   2.447   3.824
 2295SOL    HW3 9211   2.262   2.468   3.704
 2295SOL    MW4 9212   2.249   2.471   3.790
 2296SOL     OW 9213   2.207   2.762   3.920
 2296SOL    HW2 9214   2.185   2.821   3.993
 2296SOL    HW3 9215   2.231   2.680   3.962
 2296SOL    MW4 9216   2.207   2.759   3.935
 2297SOL     OW 9217   2.458   2.795   3.792
 2297SOL    HW2 9218   2.367   2.791   3.821
 2297SOL    HW3 9219   2.454   2.785   3.697
 2297SOL    MW4 9220   2.445   2.793   3.784
 2298SOL     OW 9221   2.403   3.068   3.816
 2298SOL    HW2 9222   2.403   3.083   3.911
 2298SOL    HW3 9223   2.420   2.974   3.807
 2298SOL    MW4 9224   2.405   3.057   3.827
 2299SOL     OW 9225   2.193   3.234   3.714
 2299SOL    HW2 9226   2.200   3.315   3.766
 2299SOL    HW3 9227   2.268   3.181   3.742
 2299SOL    MW4 9228   2.204   3.238   3.725
 2300SOL     OW 9229   2.245   3.463   3.855
 2300SOL    HW2 9230   2.262   3.452   3.949
 2300SOL    HW3 9231   2.315   3.521   3.825
 2300SOL    MW4 9232   2.257   3.469   3.864
 2301SOL     OW 9233   2.448   3.642   3.812
 2301SOL    HW2 9234   2.507   3.576   3.848
 2301SOL    HW3 9235   2.447   3.624   3.718
 2301SOL    MW4 9236   2.456   3.631   3.804
 2302SOL     OW 9237   2.467   3.895   3.917
 2302SOL    HW2 9238   2.532   3.929   3.856
 2302SOL    HW3 9239   2.456   3.803   3.892
 2302SOL    MW4 9240   2.474   3.887   3.906
 2303SOL     OW 9241   2.246   3.913   3.754
 2303SOL    HW2 9242   2.312   3.902   3.823
 2303SOL    HW3 9243   2.297   3.917   3.673
 2303SOL    MW4 9244   2.262   3.912   3.753
 2304SOL     OW 9245   2.216   4.187   3.835
 2304SOL    HW2 9246   2.216   4.192   3.930
 2304SOL    HW3 9247   2.239   4.096   3.815
 2304SOL    MW4 9248   2.219   4.176   3.845
 2305SOL     OW 9249   2.432   4.366   3.730
 2305SOL    HW2 9250   2.369   4.310   3.776
 2305SOL    HW3 9251   2.431   4.448   3.780
 2305SOL    MW4 9252   2.423   4.370   3.742
 2306SOL     OW 9253   2.893   4.619   3.829
 2306SOL    HW2 9254   2.878   4.616   3.924
 2306SOL    HW3 9255   2.973   4.670   3.819
 2306SOL    MW4 9256   2.901   4.625   3.840
 2307SOL     OW 9257   2.678   0.127   3.763
 2307SOL    HW2 9258   2.748   0.074   3.800
 2307SOL    HW3 9259   2.690   0.119   3.668
 2307SOL    MW4 9260   2.689   0.119   3.756
 2308SOL     OW 9261   2.679   0.371   3.902
 2308SOL    HW2 9262   2.676   0.292   3.847
 2308SOL    HW3 9263   2.596   0.415   3.885
 2308SOL    MW4 9264   2.668   0.366   3.892
 2309SOL     OW 9265   2.923   0.508   3.793
 2309SOL    HW2 9266   3.006   0.468   3.819
 2309SOL    HW3 9267   2.856   0.449   3.828
 2309SOL    MW4 9268   2.925   0.495   3.801
 2310SOL     OW 9269   2.890   0.769   3.884
 2310SOL    HW2 9270   2.970   0.806   3.847
 2310SOL    HW3 9271   2.891   0.677   3.856
 2310SOL    MW4 9272   2.901   0.762   3.876
 2311SOL     OW 9273   2.650   0.905   3.774
 2311SOL    HW2 9274   2.727   0.858   3.807
 2311SOL    HW3 9275   2.575   0.852   3.802
 2311SOL    MW4 9276   2.650   0.892   3.782
 2312SOL     OW 9277   2.698   1.150   3.859
 2312SOL    HW2 9278   2.682   1.057   3.843
 2312SOL    HW3 9279   2.621   1.194   3.820
 2312SOL    MW4 9280   2.685   1.144   3.852
 2313SOL     OW 9281   2.914   1.288   3.748
 2313SOL    HW2 9282   2.909   1.377   3.782
 2313SOL    HW3 9283   2.842   1.242   3.792
 2313SOL    MW4 9284   2.904   1.294   3.759
 2314SOL     OW 9285   2.906   1.540   3.860
 2314SOL    HW2 9286   2.904   1.532   3.955
 2314SOL    HW3 9287   2.983   1.593   3.842
 2314SOL    MW4 9288   2.916   1.546   3.870
 2315SOL     OW 9289   2.681   1.671   3.764
 2315SOL    HW2 9290   2.754   1.616   3.793
 2315SOL    HW3 9291   2.680   1.661   3.669
 2315SOL    MW4 9292   2.691   1.663   3.755
 2316SOL     OW 9293   2.689   1.944   3.848
 2316SOL    HW2 9294   2.689   1.853   3.818
 2316SOL    HW3 9295   2.624   1.987   3.793
 2316SOL    MW4 9296   2.681   1.937   3.836
 2317SOL     OW 9297   2.897   2.093   3.776
 2317SOL    HW2 9298   2.900   2.181   3.815
 2317SOL    HW3 9299   2.815   2.056   3.806
 2317SOL    MW4 9300   2.887   2.100   3.785
 2318SOL     OW 9301   2.867   2.359   3.851
 2318SOL    HW2 9302   2.850   2.367   3.945
 2318SOL    HW3 9303   2.955   2.394   3.840
 2318SOL    MW4 9304   2.877   2.365   3.862
 2319SOL     OW 9305   2.677   2.466   3.707
 2319SOL    HW2 9306   2.672   2.551   3.751
 2319SOL    HW3 9307   2.756   2.426   3.743
 2319SOL    MW4 9308   2.687   2.472   3.718
 2320SOL     OW 9309   2.690   2.677   3.865
 2320SOL    HW2 9310   2.688   2.681   3.960
 2320SOL    HW3 9311   2.617   2.734   3.837
 2320SOL    MW4 9312   2.680   2.685   3.874
 2321SOL     OW 9313   2.906   2.812   3.757
 2321SOL    HW2 9314   2.894   2.904   3.778
 2321SOL    HW3 9315   2.829   2.768   3.793
 2321SOL    MW4 9316   2.894   2.818   3.765
 2322SOL     OW 9317   2.846   3.057   3.883
 2322SOL    HW2 9318   2.924   3.108   3.862
 2322SOL    HW3 9319   2.774   3.104   3.841
 2322SOL    MW4 9320   2.847   3.070   3.874
 2323SOL     OW 9321   2.623   3.193   3.731
 2323SOL    HW2 9322   2.628   3.275   3.781
 2323SOL    HW3 9323   2.554   3.142   3.775
 2323SOL    MW4 9324   2.615   3.197   3.744
 2324SOL     OW 9325   2.627   3.433   3.871
 2324SOL    HW2 9326   2.652   3.417   3.962
 2324SOL    HW3 9327   2.700   3.481   3.833
 2324SOL    MW4 9328   2.640   3.437   3.878
 2325SOL     OW 9329   2.846   3.585   3.778
 2325SOL    HW2 9330   2.926   3.546   3.813
 2325SOL    HW3 9331   2.858   3.584   3.683
 2325SOL    MW4 9332   2.858   3.580   3.770
 2326SOL     OW 9333   2.861   3.859   3.836
 2326SOL    HW2 9334   2.871   3.872   3.930
 2326SOL    HW3 9335   2.854   3.765   3.825
 2326SOL    MW4 9336   2.862   3.849   3.847
 2327SOL     OW 9337   2.645   3.976   3.715
 2327SOL    HW2 9338   2.644   4.060   3.761
 2327SOL    HW3 9339   2.720   3.930   3.753
 2327SOL    MW4 9340   2.655   3.981   3.726
 2328SOL     OW 9341   2.670   4.214   3.845
 2328SOL    HW2 9342   2.756   4.245   3.817
 2328SOL    HW3 9343   2.607   4.262   3.791
 2328SOL    MW4 9344   2.673   4.224   3.835
 2329SOL     OW 9345   2.896   4.347   3.761
 2329SOL    HW2 9346   2.977   4.309   3.793
 2329SOL    HW3 9347   2.894   4.435   3.800
 2329SOL    MW4 9348   2.906   4.353   3.771
 2330SOL     OW 9349   3.338   4.636   3.825
 2330SOL    HW2 9350   3.347   4.635   3.920
 2330SOL    HW3 9351   3.404   4.700   3.796
 2330SOL    MW4 9352   3.348   4.645   3.834
 2331SOL     OW 9353   3.108   0.104   3.752
 2331SOL    HW2 9354   3.191   0.063   3.775
 2331SOL    HW3 9355   3.105   0.103   3.657
 2331SOL    MW4 9356   3.118   0.099   3.743
 2332SOL     OW 9357   3.168   0.364   3.820
 2332SOL    HW2 9358   3.188   0.358   3.913
 2332SOL    HW3 9359   3.135   0.277   3.797
 2332SOL    MW4 9360   3.166   0.351   3.829
 2333SOL     OW 9361   3.376   0.513   3.748
 2333SOL    HW2 9362   3.449   0.479   3.799
 2333SOL    HW3 9363   3.302   0.456   3.770
 2333SOL    MW4 9364   3.376   0.501   3.757
 2334SOL     OW 9365   3.361   0.788   3.885
 2334SOL    HW2 9366   3.327   0.752   3.967
 2334SOL    HW3 9367   3.385   0.710   3.834
 2334SOL    MW4 9368   3.360   0.773   3.889
 2335SOL     OW 9369   3.126   0.887   3.794
 2335SOL    HW2 9370   3.212   0.857   3.822
 2335SOL    HW3 9371   3.132   0.894   3.699
 2335SOL    MW4 9372   3.138   0.884   3.786
 2336SOL     OW 9373   3.137   1.156   3.876
 2336SOL    HW2 9374   3.131   1.066   3.843
 2336SOL    HW3 9375   3.073   1.205   3.824
 2336SOL    MW4 9376   3.128   1.151   3.865
 2337SOL     OW 9377   3.348   1.329   3.789
 2337SOL    HW2 9378   3.293   1.259   3.824
 2337SOL    HW3 9379   3.355   1.310   3.695
 2337SOL    MW4 9380   3.342   1.317   3.781
 2338SOL     OW 9381   3.351   1.600   3.888
 2338SOL    HW2 9382   3.266   1.641   3.873
 2338SOL    HW3 9383   3.345   1.515   3.846
 2338SOL    MW4 9384   3.339   1.594   3.881
 2339SOL     OW 9385   3.116   1.723   3.810
 2339SOL    HW2 9386   3.125   1.817   3.829
 2339SOL    HW3 9387   3.118   1.719   3.714
 2339SOL    MW4 9388   3.118   1.735   3.800
 2340SOL     OW 9389   3.129   1.992   3.906
 2340SOL    HW2 9390   3.114   1.996   4.001
 2340SOL    HW3 9391   3.049   2.026   3.867
 2340SOL    MW4 9392   3.117   1.997   3.914
 2341SOL     OW 9393   3.369   2.102   3.796
 2341SOL    HW2 9394   3.286   2.066   3.826
 2341SOL    HW3 9395   3.366   2.093   3.700
 2341SOL    MW4 9396   3.358   2.096   3.787
 2342SOL     OW 9397   3.337   2.340   3.936
 2342SOL    HW2 9398   3.270   2.377   3.878
 2342SOL    HW3 9399   3.357   2.255   3.898
 2342SOL    MW4 9400   3.331   2.334   3.923
 2343SOL     OW 9401   3.104   2.469   3.773
 2343SOL    HW2 9402   3.121   2.557   3.807
 2343SOL    HW3 9403   3.124   2.475   3.680
 2343SOL    MW4 9404   3.109   2.481   3.765
 2344SOL     OW 9405   3.138   2.716   3.877
 2344SOL    HW2 9406   3.123   2.712   3.971
 2344SOL    HW3 9407   3.058   2.755   3.841
 2344SOL    MW4 9408   3.126   2.720   3.885
 2345SOL     OW 9409   3.369   2.830   3.774
 2345SOL    HW2 9410   3.299   2.786   3.822
 2345SOL    HW3 9411   3.339   2.831   3.683
 2345SOL    MW4 9412   3.356   2.824   3.768
 2346SOL     OW 9413   3.340   3.068   3.901
 2346SOL    HW2 9414   3.426   3.101   3.877
 2346SOL    HW3 9415   3.339   2.978   3.869
 2346SOL    MW4 9416   3.351   3.061   3.894
 2347SOL     OW 9417   3.101   3.179   3.787
 2347SOL    HW2 9418   3.181   3.143   3.824
 2347SOL    HW3 9419   3.112   3.172   3.692
 2347SOL    MW4 9420   3.113   3.174   3.779
 2348SOL     OW 9421   3.074   3.452   3.848
 2348SOL    HW2 9422   3.162   3.472   3.816
 2348SOL    HW3 9423   3.070   3.356   3.847
 2348SOL    MW4 9424   3.085   3.442   3.843
 2349SOL     OW 9425   3.304   3.567   3.785
 2349SOL    HW2 9426   3.313   3.659   3.809
 2349SOL    HW3 9427   3.329   3.563   3.693
 2349SOL    MW4 9428   3.308   3.579   3.776
 2350SOL     OW 9429   3.339   3.847   3.890
 2350SOL    HW2 9430   3.419   3.879   3.847
 2350SOL    HW3 9431   3.268   3.882   3.836
 2350SOL    MW4 9432   3.341   3.856   3.877
 2351SOL     OW 9433   3.113   3.935   3.751
 2351SOL    HW2 9434   3.111   4.027   3.776
 2351SOL    HW3 9435   3.028   3.901   3.778
 2351SOL    MW4 9436   3.102   3.942   3.758
 2352SOL     OW 9437   3.120   4.196   3.835
 2352SOL    HW2 9438   3.135   4.200   3.929
 2352SOL    HW3 9439   3.193   4.243   3.796
 2352SOL    MW4 9440   3.131   4.202   3.842
 2353SOL     OW 9441   3.338   4.360   3.748
 2353SOL    HW2 9442   3.403   4.312   3.800
 2353SOL    HW3 9443   3.349   4.451   3.773
 2353SOL    MW4 9444   3.348   4.365   3.758
 2354SOL     OW 9445   3.783   0.002   3.867
 2354SOL    HW2 9446   3.848   0.055   3.822
 2354SOL    HW3 9447   3.789  -0.084   3.826
 2354SOL    MW4 9448   3.792  -0.002   3.856
 2355SOL     OW 9449   3.568   0.140   3.745
 2355SOL    HW2 9450   3.634   0.083   3.785
 2355SOL    HW3 9451   3.569   0.118   3.652
 2355SOL    MW4 9452   3.577   0.130   3.738
 2356SOL     OW 9453   3.583   0.395   3.894
 2356SOL    HW2 9454   3.654   0.445   3.854
 2356SOL    HW3 9455   3.588   0.309   3.854
 2356SOL    MW4 9456   3.593   0.391   3.884
 2357SOL     OW 9457   3.798   0.510   3.788
 2357SOL    HW2 9458   3.888   0.484   3.810
 2357SOL    HW3 9459   3.797   0.605   3.801
 2357SOL    MW4 9460   3.810   0.519   3.793
 2358SOL     OW 9461   3.782   0.772   3.841
 2358SOL    HW2 9462   3.864   0.813   3.812
 2358SOL    HW3 9463   3.713   0.830   3.806
 2358SOL    MW4 9464   3.784   0.785   3.832
 2359SOL     OW 9465   3.571   0.923   3.755
 2359SOL    HW2 9466   3.567   1.014   3.785
 2359SOL    HW3 9467   3.500   0.879   3.802
 2359SOL    MW4 9468   3.561   0.929   3.765
 2360SOL     OW 9469   3.597   1.186   3.826
 2360SOL    HW2 9470   3.673   1.228   3.785
 2360SOL    HW3 9471   3.525   1.246   3.811
 2360SOL    MW4 9472   3.598   1.200   3.819
 2361SOL     OW 9473   3.819   1.318   3.723
 2361SOL    HW2 9474   3.882   1.258   3.763
 2361SOL    HW3 9475   3.831   1.400   3.770
 2361SOL    MW4 9476   3.829   1.321   3.735
 2362SOL     OW 9477   3.819   1.537   3.870
 2362SOL    HW2 9478   3.827   1.534   3.965
 2362SOL    HW3 9479   3.737   1.583   3.854
 2362SOL    MW4 9480   3.810   1.543   3.880
 2363SOL     OW 9481   3.608   1.710   3.815
 2363SOL    HW2 9482   3.518   1.684   3.836
 2363SOL    HW3 9483   3.611   1.712   3.720
 2363SOL    MW4 9484   3.596   1.707   3.805
 2364SOL     OW 9485   3.602   1.968   3.930
 2364SOL    HW2 9486   3.604   1.876   3.903
 2364SOL    HW3 9487   3.516   2.000   3.902
 2364SOL    MW4 9488   3.591   1.960   3.923
 2365SOL     OW 9489   3.834   2.086   3.806
 2365SOL    HW2 9490   3.892   2.020   3.843
 2365SOL    HW3 9491   3.747   2.062   3.837
 2365SOL    MW4 9492   3.830   2.074   3.815
 2366SOL     OW 9493   3.801   2.347   3.939
 2366SOL    HW2 9494   3.714   2.371   3.908
 2366SOL    HW3 9495   3.825   2.271   3.886
 2366SOL    MW4 9496   3.793   2.340   3.928
 2367SOL     OW 9497   3.571   2.428   3.818
 2367SOL    HW2 9498   3.487   2.398   3.850
 2367SOL    HW3 9499   3.560   2.436   3.723
 2367SOL    MW4 9500   3.559   2.425   3.810
 2368SOL     OW 9501   3.612   2.702   3.871
 2368SOL    HW2 9502   3.608   2.607   3.865
 2368SOL    HW3 9503   3.525   2.731   3.841
 2368SOL    MW4 9504   3.600   2.693   3.866
 2369SOL     OW 9505   3.807   2.862   3.758
 2369SOL    HW2 9506   3.888   2.816   3.780
 2369SOL    HW3 9507   3.741   2.827   3.818
 2369SOL    MW4 9508   3.809   2.852   3.769
 2370SOL     OW 9509   3.819   3.097   3.889
 2370SOL    HW2 9510   3.728   3.125   3.877
 2370SOL    HW3 9511   3.823   3.011   3.847
 2370SOL    MW4 9512   3.808   3.089   3.882
 2371SOL     OW 9513   3.563   3.186   3.799
 2371SOL    HW2 9514   3.544   3.280   3.805
 2371SOL    HW3 9515   3.584   3.171   3.707
 2371SOL    MW4 9516   3.563   3.197   3.788
 2372SOL     OW 9517   3.542   3.460   3.869
 2372SOL    HW2 9518   3.552   3.469   3.963
 2372SOL    HW3 9519   3.456   3.497   3.850
 2372SOL    MW4 9520   3.532   3.466   3.879
 2373SOL     OW 9521   3.783   3.566   3.748
 2373SOL    HW2 9522   3.773   3.653   3.786
 2373SOL    HW3 9523   3.704   3.518   3.774
 2373SOL    MW4 9524   3.771   3.571   3.756
 2374SOL     OW 9525   3.804   3.835   3.826
 2374SOL    HW2 9526   3.809   3.863   3.917
 2374SOL    HW3 9527   3.878   3.878   3.783
 2374SOL    MW4 9528   3.814   3.844   3.832
 2375SOL     OW 9529   3.565   3.951   3.753
 2375SOL    HW2 9530   3.574   4.038   3.792
 2375SOL    HW3 9531   3.650   3.909   3.767
 2375SOL    MW4 9532   3.577   3.957   3.760
 2376SOL     OW 9533   3.570   4.216   3.851
 2376SOL    HW2 9534   3.563   4.215   3.946
 2376SOL    HW3 9535   3.642   4.277   3.832
 2376SOL    MW4 9536   3.578   4.224   3.861
 2377SOL     OW 9537   3.769   4.403   3.798
 2377SOL    HW2 9538   3.846   4.351   3.821
 2377SOL    HW3 9539   3.771   4.409   3.703
 2377SOL    MW4 9540   3.779   4.397   3.789
 2378SOL     OW 9541   4.210   4.629   3.849
 2378SOL    HW2 9542   4.235   4.611   3.940
 2378SOL    HW3 9543   4.288   4.667   3.809
 2378SOL    MW4 9544   4.224   4.631   3.856
 2379SOL     OW 9545   4.006   0.139   3.722
 2379SOL    HW2 9546   4.068   0.085   3.770
 2379SOL    HW3 9547   4.035   0.134   3.631
 2379SOL    MW4 9548   4.018   0.131   3.716
 2380SOL     OW 9549   4.050   0.393   3.848
 2380SOL    HW2 9550   4.021   0.379   3.938
 2380SOL    HW3 9551   4.052   0.305   3.809
 2380SOL    MW4 9552   4.047   0.380   3.854
 2381SOL     OW 9553   4.278   0.525   3.780
 2381SOL    HW2 9554   4.206   0.472   3.816
 2381SOL    HW3 9555   4.270   0.515   3.685
 2381SOL    MW4 9556   4.267   0.516   3.773
 2382SOL     OW 9557   4.262   0.802   3.867
 2382SOL    HW2 9558   4.171   0.828   3.852
 2382SOL    HW3 9559   4.270   0.716   3.827
 2382SOL    MW4 9560   4.251   0.794   3.860
 2383SOL     OW 9561   4.034   0.897   3.751
 2383SOL    HW2 9562   4.043   0.989   3.776
 2383SOL    HW3 9563   4.028   0.898   3.656
 2383SOL    MW4 9564   4.035   0.909   3.742
 2384SOL     OW 9565   4.042   1.162   3.822
 2384SOL    HW2 9566   4.028   1.166   3.916
 2384SOL    HW3 9567   4.126   1.205   3.808
 2384SOL    MW4 9568   4.051   1.168   3.832
 2385SOL     OW 9569   4.274   1.309   3.813
 2385SOL    HW2 9570   4.244   1.395   3.842
 2385SOL    HW3 9571   4.277   1.315   3.718
 2385SOL    MW4 9572   4.270   1.321   3.804
 2386SOL     OW 9573   4.240   1.566   3.888
 2386SOL    HW2 9574   4.157   1.598   3.852
 2386SOL    HW3 9575   4.306   1.627   3.855
 2386SOL    MW4 9576   4.237   1.578   3.879
 2387SOL     OW 9577   4.030   1.688   3.769
 2387SOL    HW2 9578   4.019   1.764   3.826
 2387SOL    HW3 9579   3.961   1.627   3.796
 2387SOL    MW4 9580   4.020   1.690   3.780
 2388SOL     OW 9581   4.024   1.905   3.935
 2388SOL    HW2 9582   4.040   1.898   4.029
 2388SOL    HW3 9583   4.097   1.957   3.901
 2388SOL    MW4 9584   4.036   1.911   3.943
 2389SOL     OW 9585   4.229   2.082   3.803
 2389SOL    HW2 9586   4.217   2.176   3.815
 2389SOL    HW3 9587   4.236   2.070   3.708
 2389SOL    MW4 9588   4.228   2.093   3.792
 2390SOL     OW 9589   4.268   2.348   3.816
 2390SOL    HW2 9590   4.275   2.367   3.909
 2390SOL    HW3 9591   4.184   2.385   3.790
 2390SOL    MW4 9592   4.258   2.355   3.825
 2391SOL     OW 9593   3.993   2.444   3.755
 2391SOL    HW2 9594   4.014   2.538   3.760
 2391SOL    HW3 9595   3.930   2.431   3.825
 2391SOL    MW4 9596   3.988   2.455   3.765
 2392SOL     OW 9597   4.041   2.712   3.798
 2392SOL    HW2 9598   4.045   2.701   3.893
 2392SOL    HW3 9599   4.121   2.761   3.777
 2392SOL    MW4 9600   4.052   2.717   3.808
 2393SOL     OW 9601   4.266   2.838   3.715
 2393SOL    HW2 9602   4.281   2.928   3.746
 2393SOL    HW3 9603   4.331   2.786   3.761
 2393SOL    MW4 9604   4.276   2.843   3.725
 2394SOL     OW 9605   4.275   3.089   3.840
 2394SOL    HW2 9606   4.197   3.140   3.817
 2394SOL    HW3 9607   4.347   3.151   3.830
 2394SOL    MW4 9608   4.274   3.104   3.835
 2395SOL     OW 9609   4.044   3.205   3.763
 2395SOL    HW2 9610   3.968   3.168   3.808
 2395SOL    HW3 9611   4.021   3.202   3.670
 2395SOL    MW4 9612   4.031   3.200   3.757
 2396SOL     OW 9613   4.006   3.448   3.868
 2396SOL    HW2 9614   4.017   3.354   3.853
 2396SOL    HW3 9615   3.926   3.470   3.822
 2396SOL    MW4 9616   3.997   3.438   3.860
 2397SOL     OW 9617   4.204   3.614   3.759
 2397SOL    HW2 9618   4.131   3.562   3.794
 2397SOL    HW3 9619   4.281   3.560   3.776
 2397SOL    MW4 9620   4.204   3.600   3.766
 2398SOL     OW 9621   4.251   3.876   3.825
 2398SOL    HW2 9622   4.167   3.919   3.809
 2398SOL    HW3 9623   4.238   3.785   3.798
 2398SOL    MW4 9624   4.238   3.870   3.819
 2399SOL     OW 9625   4.017   4.003   3.742
 2399SOL    HW2 9626   3.981   4.083   3.780
 2399SOL    HW3 9627   3.991   4.007   3.650
 2399SOL    MW4 9628   4.009   4.014   3.735
 2400SOL     OW 9629   3.979   4.234   3.876
 2400SOL    HW2 9630   3.980   4.249   3.971
 2400SOL    HW3 9631   4.051   4.288   3.843
 2400SOL    MW4 9632   3.989   4.243   3.884
 2401SOL     OW 9633   4.205   4.364   3.782
 2401SOL    HW2 9634   4.211   4.458   3.799
 2401SOL    HW3 9635   4.290   4.329   3.809
 2401SOL    MW4 9636   4.217   4.372   3.788
 2402SOL     OW 9637   0.190   4.582   4.129
 2402SOL    HW2 9638   0.254   4.642   4.167
 2402SOL    HW3 9639   0.188   4.508   4.190
 2402SOL    MW4 9640   0.198   4.580   4.142
 2403SOL     OW 9641   4.479   0.101   4.194
 2403SOL    HW2 9642   4.465   0.092   4.288
 2403SOL    HW3 9643   4.548   0.038   4.174
 2403SOL    MW4 9644   4.487   0.092   4.204
 2404SOL     OW 9645   4.384   0.356   4.131
 2404SOL    HW2 9646   4.409   0.269   4.162
 2404SOL    HW3 9647   4.422   0.362   4.043
 2404SOL    MW4 9648   4.392   0.346   4.123
 2405SOL     OW 9649   0.134   0.484   4.215
 2405SOL    HW2 9650   0.203   0.443   4.163
 2405SOL    HW3 9651   0.057   0.428   4.201
 2405SOL    MW4 9652   0.133   0.471   4.206
 2406SOL     OW 9653   0.175   0.736   4.095
 2406SOL    HW2 9654   0.116   0.794   4.143
 2406SOL    HW3 9655   0.149   0.648   4.122
 2406SOL    MW4 9656   0.164   0.732   4.105
 2407SOL     OW 9657   4.468   0.881   4.224
 2407SOL    HW2 9658   4.392   0.836   4.185
 2407SOL    HW3 9659   4.461   0.971   4.192
 2407SOL    MW4 9660   4.457   0.887   4.215
 2408SOL     OW 9661   0.008   1.139   4.112
 2408SOL    HW2 9662   0.090   1.173   4.147
 2408SOL    HW3 9663   0.019   1.144   4.017
 2408SOL    MW4 9664   0.020   1.144   4.104
 2409SOL     OW 9665   0.235   1.255   4.244
 2409SOL    HW2 9666   0.232   1.226   4.334
 2409SOL    HW3 9667   0.310   1.208   4.206
 2409SOL    MW4 9668   0.245   1.245   4.251
 2410SOL     OW 9669   0.535   1.724   4.660
 2410SOL    HW2 9670   0.480   1.772   4.722
 2410SOL    HW3 9671   0.478   1.706   4.585
 2410SOL    MW4 9672   0.520   1.728   4.659
 2411SOL     OW 9673   4.417   1.747   4.316
 2411SOL    HW2 9674   4.386   1.668   4.271
 2411SOL    HW3 9675   4.406   1.817   4.252
 2411SOL    MW4 9676   4.411   1.746   4.302
 2412SOL     OW 9677   0.178   2.069   4.229
 2412SOL    HW2 9678   0.186   2.055   4.324
 2412SOL    HW3 9679   0.243   2.009   4.191
 2412SOL    MW4 9680   0.188   2.059   4.237
 2413SOL     OW 9681   0.488   1.378   4.569
 2413SOL    HW2 9682   0.438   1.440   4.516
 2413SOL    HW3 9683   0.499   1.423   4.653
 2413SOL    MW4 9684   0.483   1.392   4.573
 2414SOL     OW 9685   0.214   2.310   4.099
 2414SOL    HW2 9686   0.302   2.337   4.126
 2414SOL    HW3 9687   0.197   2.230   4.148
 2414SOL    MW4 9688   0.224   2.303   4.109
 2415SOL     OW 9689   0.007   2.439   4.214
 2415SOL    HW2 9690  -0.079   2.409   4.183
 2415SOL    HW3 9691   0.070   2.388   4.164
 2415SOL    MW4 9692   0.004   2.428   4.203
 2416SOL     OW 9693   4.470   2.699   4.103
 2416SOL    HW2 9694   4.542   2.751   4.138
 2416SOL    HW3 9695   4.480   2.613   4.144
 2416SOL    MW4 9696   4.481   2.694   4.113
 2417SOL     OW 9697   0.197   2.828   4.208
 2417SOL    HW2 9698   0.271   2.792   4.159
 2417SOL    HW3 9699   0.211   2.922   4.207
 2417SOL    MW4 9700   0.209   2.835   4.202
 2418SOL     OW 9701   0.251   3.117   4.115
 2418SOL    HW2 9702   0.316   3.180   4.148
 2418SOL    HW3 9703   0.167   3.153   4.143
 2418SOL    MW4 9704   0.248   3.130   4.123
 2419SOL     OW 9705   0.015   3.244   4.220
 2419SOL    HW2 9706  -0.057   3.183   4.204
 2419SOL    HW3 9707  -0.007   3.320   4.166
 2419SOL    MW4 9708   0.003   3.246   4.211
 2420SOL     OW 9709   4.478   3.502   4.093
 2420SOL    HW2 9710   4.397   3.529   4.137
 2420SOL    HW3 9711   4.460   3.513   4.000
 2420SOL    MW4 9712   4.465   3.507   4.087
 2421SOL     OW 9713   0.235   3.661   4.134
 2421SOL    HW2 9714   0.313   3.604   4.141
 2421SOL    HW3 9715   0.172   3.608   4.085
 2421SOL    MW4 9716   0.237   3.646   4.129
 2422SOL     OW 9717   0.077   3.945   4.080
 2422SOL    HW2 9718  -0.002   3.912   4.124
 2422SOL    HW3 9719   0.145   3.942   4.147
 2422SOL    MW4 9720   0.076   3.941   4.095
 2423SOL     OW 9721   4.398   4.039   4.401
 2423SOL    HW2 9722   4.441   3.969   4.450
 2423SOL    HW3 9723   4.306   4.012   4.396
 2423SOL    MW4 9724   4.392   4.026   4.407
 2424SOL     OW 9725   0.036   4.224   4.088
 2424SOL    HW2 9726   0.055   4.130   4.083
 2424SOL    HW3 9727   0.029   4.253   3.997
 2424SOL    MW4 9728   0.038   4.215   4.076
 2425SOL     OW 9729   0.149   4.368   4.289
 2425SOL    HW2 9730   0.101   4.343   4.368
 2425SOL    HW3 9731   0.103   4.322   4.218
 2425SOL    MW4 9732   0.136   4.358   4.290
 2426SOL     OW 9733   0.624   0.030   4.162
 2426SOL    HW2 9734   0.541   0.071   4.186
 2426SOL    HW3 9735   0.626   0.033   4.066
 2426SOL    MW4 9736   0.614   0.036   4.152
 2427SOL     OW 9737   0.369   0.115   4.238
 2427SOL    HW2 9738   0.359   0.119   4.333
 2427SOL    HW3 9739   0.358   0.206   4.209
 2427SOL    MW4 9740   0.367   0.128   4.247
 2428SOL     OW 9741   0.369   0.368   4.124
 2428SOL    HW2 9742   0.432   0.427   4.166
 2428SOL    HW3 9743   0.385   0.378   4.031
 2428SOL    MW4 9744   0.379   0.377   4.118
 2429SOL     OW 9745   0.622   0.477   4.231
 2429SOL    HW2 9746   0.693   0.421   4.198
 2429SOL    HW3 9747   0.643   0.564   4.197
 2429SOL    MW4 9748   0.634   0.481   4.222
 2430SOL     OW 9749   0.656   0.739   4.133
 2430SOL    HW2 9750   0.575   0.786   4.150
 2430SOL    HW3 9751   0.655   0.722   4.039
 2430SOL    MW4 9752   0.645   0.743   4.123
 2431SOL     OW 9753   0.398   0.852   4.204
 2431SOL    HW2 9754   0.417   0.939   4.170
 2431SOL    HW3 9755   0.324   0.821   4.152
 2431SOL    MW4 9756   0.391   0.859   4.193
 2432SOL     OW 9757   0.451   1.092   4.090
 2432SOL    HW2 9758   0.518   1.134   4.144
 2432SOL    HW3 9759   0.446   1.146   4.012
 2432SOL    MW4 9760   0.459   1.104   4.087
 2433SOL     OW 9761   0.633   1.261   4.213
 2433SOL    HW2 9762   0.687   1.260   4.292
 2433SOL    HW3 9763   0.623   1.354   4.192
 2433SOL    MW4 9764   0.639   1.273   4.220
 2434SOL     OW 9765   0.598   1.533   4.112
 2434SOL    HW2 9766   0.677   1.582   4.131
 2434SOL    HW3 9767   0.606   1.510   4.019
 2434SOL    MW4 9768   0.609   1.536   4.102
 2435SOL     OW 9769   0.144   1.504   4.117
 2435SOL    HW2 9770   0.179   1.424   4.157
 2435SOL    HW3 9771   0.050   1.500   4.133
 2435SOL    MW4 9772   0.136   1.493   4.125
 2436SOL     OW 9773   0.385   1.928   4.125
 2436SOL    HW2 9774   0.384   1.835   4.148
 2436SOL    HW3 9775   0.393   1.930   4.030
 2436SOL    MW4 9776   0.386   1.916   4.116
 2437SOL     OW 9777   0.631   2.059   4.171
 2437SOL    HW2 9778   0.641   2.073   4.265
 2437SOL    HW3 9779   0.549   2.010   4.162
 2437SOL    MW4 9780   0.622   2.054   4.182
 2438SOL     OW 9781   0.630   2.323   4.074
 2438SOL    HW2 9782   0.621   2.235   4.108
 2438SOL    HW3 9783   0.643   2.311   3.980
 2438SOL    MW4 9784   0.631   2.310   4.066
 2439SOL     OW 9785   0.439   2.445   4.219
 2439SOL    HW2 9786   0.428   2.536   4.190
 2439SOL    HW3 9787   0.508   2.410   4.163
 2439SOL    MW4 9788   0.447   2.452   4.208
 2440SOL     OW 9789   0.410   2.708   4.085
 2440SOL    HW2 9790   0.492   2.745   4.116
 2440SOL    HW3 9791   0.422   2.696   3.991
 2440SOL    MW4 9792   0.422   2.711   4.077
 2441SOL     OW 9793   0.636   2.820   4.205
 2441SOL    HW2 9794   0.650   2.799   4.297
 2441SOL    HW3 9795   0.650   2.914   4.199
 2441SOL    MW4 9796   0.639   2.829   4.216
 2442SOL     OW 9797   0.646   3.085   4.108
 2442SOL    HW2 9798   0.722   3.134   4.139
 2442SOL    HW3 9799   0.571   3.129   4.148
 2442SOL    MW4 9800   0.646   3.097   4.118
 2443SOL     OW 9801   0.473   3.259   4.254
 2443SOL    HW2 9802   0.507   3.281   4.341
 2443SOL    HW3 9803   0.473   3.342   4.207
 2443SOL    MW4 9804   0.477   3.273   4.259
 2444SOL     OW 9805   0.481   3.493   4.123
 2444SOL    HW2 9806   0.555   3.548   4.152
 2444SOL    HW3 9807   0.464   3.522   4.033
 2444SOL    MW4 9808   0.489   3.504   4.115
 2445SOL     OW 9809   0.719   3.642   4.219
 2445SOL    HW2 9810   0.705   3.637   4.313
 2445SOL    HW3 9811   0.799   3.592   4.203
 2445SOL    MW4 9812   0.728   3.635   4.229
 2446SOL     OW 9813   0.727   3.906   4.141
 2446SOL    HW2 9814   0.651   3.953   4.176
 2446SOL    HW3 9815   0.710   3.814   4.163
 2446SOL    MW4 9816   0.714   3.900   4.148
 2447SOL     OW 9817   0.492   4.055   4.251
 2447SOL    HW2 9818   0.459   4.143   4.232
 2447SOL    HW3 9819   0.414   4.000   4.251
 2447SOL    MW4 9820   0.477   4.060   4.248
 2448SOL     OW 9821   0.421   4.312   4.207
 2448SOL    HW2 9822   0.331   4.329   4.235
 2448SOL    HW3 9823   0.419   4.326   4.112
 2448SOL    MW4 9824   0.409   4.316   4.198
 2449SOL     OW 9825   0.662   4.447   4.255
 2449SOL    HW2 9826   0.580   4.398   4.250
 2449SOL    HW3 9827   0.644   4.529   4.209
 2449SOL    MW4 9828   0.649   4.451   4.248
 2450SOL     OW 9829   1.086   0.060   4.195
 2450SOL    HW2 9830   1.100  -0.033   4.216
 2450SOL    HW3 9831   1.080   0.063   4.100
 2450SOL    MW4 9832   1.087   0.048   4.185
 2451SOL     OW 9833   0.834   0.188   4.294
 2451SOL    HW2 9834   0.914   0.143   4.267
 2451SOL    HW3 9835   0.764   0.142   4.248
 2451SOL    MW4 9836   0.836   0.176   4.285
 2452SOL     OW 9837   0.879   0.393   4.127
 2452SOL    HW2 9838   0.950   0.449   4.157
 2452SOL    HW3 9839   0.882   0.316   4.183
 2452SOL    MW4 9840   0.889   0.391   4.138
 2453SOL     OW 9841   1.087   0.540   4.242
 2453SOL    HW2 9842   1.068   0.529   4.336
 2453SOL    HW3 9843   1.173   0.500   4.230
 2453SOL    MW4 9844   1.096   0.534   4.253
 2454SOL     OW 9845   1.103   0.790   4.123
 2454SOL    HW2 9846   1.179   0.836   4.159
 2454SOL    HW3 9847   1.106   0.703   4.163
 2454SOL    MW4 9848   1.113   0.784   4.133
 2455SOL     OW 9849   0.857   0.879   4.259
 2455SOL    HW2 9850   0.941   0.854   4.220
 2455SOL    HW3 9851   0.793   0.821   4.217
 2455SOL    MW4 9852   0.859   0.868   4.248
 2456SOL     OW 9853   0.843   1.103   4.104
 2456SOL    HW2 9854   0.851   1.024   4.157
 2456SOL    HW3 9855   0.764   1.146   4.136
 2456SOL    MW4 9856   0.834   1.099   4.115
 2457SOL     OW 9857   1.047   1.231   4.228
 2457SOL    HW2 9858   1.030   1.227   4.322
 2457SOL    HW3 9859   0.967   1.196   4.188
 2457SOL    MW4 9860   1.034   1.226   4.235
 2458SOL     OW 9861   1.074   1.494   4.108
 2458SOL    HW2 9862   0.994   1.539   4.135
 2458SOL    HW3 9863   1.067   1.407   4.148
 2458SOL    MW4 9864   1.062   1.488   4.117
 2459SOL     OW 9865   0.855   1.646   4.206
 2459SOL    HW2 9866   0.861   1.654   4.302
 2459SOL    HW3 9867   0.850   1.736   4.175
 2459SOL    MW4 9868   0.855   1.659   4.215
 2460SOL     OW 9869   0.867   1.892   4.099
 2460SOL    HW2 9870   0.792   1.945   4.127
 2460SOL    HW3 9871   0.870   1.904   4.004
 2460SOL    MW4 9872   0.858   1.901   4.090
 2461SOL     OW 9873   1.080   2.051   4.208
 2461SOL    HW2 9874   1.111   2.032   4.297
 2461SOL    HW3 9875   1.012   1.986   4.192
 2461SOL    MW4 9876   1.075   2.040   4.218
 2462SOL     OW 9877   1.088   2.295   4.101
 2462SOL    HW2 9878   1.164   2.335   4.143
 2462SOL    HW3 9879   1.083   2.207   4.140
 2462SOL    MW4 9880   1.097   2.289   4.112
 2463SOL     OW 9881   0.880   2.386   4.231
 2463SOL    HW2 9882   0.958   2.346   4.192
 2463SOL    HW3 9883   0.808   2.354   4.177
 2463SOL    MW4 9884   0.881   2.376   4.219
 2464SOL     OW 9885   0.825   2.646   4.111
 2464SOL    HW2 9886   0.824   2.564   4.159
 2464SOL    HW3 9887   0.753   2.697   4.149
 2464SOL    MW4 9888   0.815   2.642   4.122
 2465SOL     OW 9889   1.056   2.790   4.210
 2465SOL    HW2 9890   1.050   2.876   4.168
 2465SOL    HW3 9891   0.979   2.743   4.178
 2465SOL    MW4 9892   1.045   2.795   4.200
 2466SOL     OW 9893   1.074   3.029   4.090
 2466SOL    HW2 9894   1.166   3.040   4.116
 2466SOL    HW3 9895   1.069   3.067   4.002
 2466SOL    MW4 9896   1.086   3.035   4.082
 2467SOL     OW 9897   0.886   3.199   4.217
 2467SOL    HW2 9898   0.911   3.206   4.310
 2467SOL    HW3 9899   0.949   3.138   4.180
 2467SOL    MW4 9900   0.898   3.192   4.225
 2468SOL     OW 9901   0.934   3.455   4.156
 2468SOL    HW2 9902   0.921   3.362   4.173
 2468SOL    HW3 9903   0.928   3.463   4.060
 2468SOL    MW4 9904   0.931   3.444   4.145
 2469SOL     OW 9905   1.117   3.593   4.302
 2469SOL    HW2 9906   1.120   3.678   4.257
 2469SOL    HW3 9907   1.065   3.538   4.245
 2469SOL    MW4 9908   1.111   3.597   4.289
 2470SOL     OW 9909   1.161   3.864   4.210
 2470SOL    HW2 9910   1.242   3.913   4.226
 2470SOL    HW3 9911   1.093   3.930   4.211
 2470SOL    MW4 9912   1.163   3.879   4.213
 2471SOL     OW 9913   0.952   4.032   4.203
 2471SOL    HW2 9914   0.932   4.126   4.211
 2471SOL    HW3 9915   0.871   3.993   4.172
 2471SOL    MW4 9916   0.939   4.039   4.200
 2472SOL     OW 9917   0.900   4.307   4.191
 2472SOL    HW2 9918   0.970   4.362   4.226
 2472SOL    HW3 9919   0.819   4.349   4.223
 2472SOL    MW4 9920   0.898   4.320   4.200
 2473SOL     OW 9921   1.135   4.471   4.258
 2473SOL    HW2 9922   1.155   4.503   4.346
 2473SOL    HW3 9923   1.194   4.398   4.244
 2473SOL    MW4 9924   1.145   4.466   4.268
 2474SOL     OW 9925   1.503   4.661   4.121
 2474SOL    HW2 9926   1.585   4.703   4.148
 2474SOL    HW3 9927   1.435   4.709   4.167
 2474SOL    MW4 9928   1.505   4.673   4.131
 2475SOL     OW 9929   1.332   0.137   4.286
 2475SOL    HW2 9930   1.336   0.172   4.374
 2475SOL    HW3 9931   1.241   0.110   4.274
 2475SOL    MW4 9932   1.321   0.138   4.296
 2476SOL     OW 9933   1.321   0.387   4.170
 2476SOL    HW2 9934   1.395   0.433   4.210
 2476SOL    HW3 9935   1.319   0.302   4.214
 2476SOL    MW4 9936   1.331   0.382   4.181
 2477SOL     OW 9937   1.535   0.530   4.231
 2477SOL    HW2 9938   1.530   0.546   4.325
 2477SOL    HW3 9939   1.542   0.618   4.193
 2477SOL    MW4 9940   1.535   0.544   4.238
 2478SOL     OW 9941   1.559   0.795   4.156
 2478SOL    HW2 9942   1.633   0.843   4.194
 2478SOL    HW3 9943   1.589   0.770   4.069
 2478SOL    MW4 9944   1.573   0.798   4.150
 2479SOL     OW 9945   1.322   0.892   4.251
 2479SOL    HW2 9946   1.308   0.984   4.227
 2479SOL    HW3 9947   1.409   0.872   4.215
 2479SOL    MW4 9948   1.332   0.902   4.243
 2480SOL     OW 9949   1.306   1.135   4.143
 2480SOL    HW2 9950   1.223   1.165   4.180
 2480SOL    HW3 9951   1.291   1.132   4.049
 2480SOL    MW4 9952   1.293   1.139   4.135
 2481SOL     OW 9953   1.588   1.272   4.205
 2481SOL    HW2 9954   1.591   1.270   4.301
 2481SOL    HW3 9955   1.504   1.231   4.183
 2481SOL    MW4 9956   1.577   1.266   4.215
 2482SOL     OW 9957   1.545   1.530   4.115
 2482SOL    HW2 9958   1.451   1.545   4.121
 2482SOL    HW3 9959   1.556   1.438   4.140
 2482SOL    MW4 9960   1.534   1.520   4.119
 2483SOL     OW 9961   1.293   1.614   4.216
 2483SOL    HW2 9962   1.296   1.709   4.203
 2483SOL    HW3 9963   1.209   1.587   4.181
 2483SOL    MW4 9964   1.282   1.623   4.210
 2484SOL     OW 9965   1.329   1.913   4.183
 2484SOL    HW2 9966   1.402   1.975   4.178
 2484SOL    HW3 9967   1.251   1.968   4.181
 2484SOL    MW4 9968   1.328   1.929   4.182
 2485SOL     OW 9969   1.543   2.094   4.200
 2485SOL    HW2 9970   1.625   2.051   4.177
 2485SOL    HW3 9971   1.563   2.188   4.196
 2485SOL    MW4 9972   1.557   2.101   4.196
 2486SOL     OW 9973   1.604   2.376   4.165
 2486SOL    HW2 9974   1.665   2.426   4.219
 2486SOL    HW3 9975   1.612   2.415   4.078
 2486SOL    MW4 9976   1.613   2.388   4.161
 2487SOL     OW 9977   1.514   2.826   4.183
 2487SOL    HW2 9978   1.525   2.780   4.266
 2487SOL    HW3 9979   1.603   2.843   4.153
 2487SOL    MW4 9980   1.527   2.822   4.190
 2488SOL     OW 9981   1.286   2.663   4.128
 2488SOL    HW2 9982   1.360   2.721   4.147
 2488SOL    HW3 9983   1.213   2.702   4.176
 2488SOL    MW4 9984   1.286   2.676   4.137
 2489SOL     OW 9985   1.550   2.323   4.588
 2489SOL    HW2 9986   1.571   2.383   4.660
 2489SOL    HW3 9987   1.633   2.281   4.567
 2489SOL    MW4 9988   1.564   2.326   4.595
 2490SOL     OW 9989   1.347   3.071   4.112
 2490SOL    HW2 9990   1.344   3.132   4.185
 2490SOL    HW3 9991   1.400   2.997   4.143
 2490SOL    MW4 9992   1.354   3.069   4.125
 2491SOL     OW 9993   1.375   3.240   4.333
 2491SOL    HW2 9994   1.471   3.238   4.331
 2491SOL    HW3 9995   1.352   3.321   4.288
 2491SOL    MW4 9996   1.385   3.250   4.327
 2492SOL     OW 9997   1.337   3.472   4.200
 2492SOL    HW2 9998   1.262   3.515   4.241
 2492SOL    HW3 9999   1.311   3.460   4.109
 2492SOL    MW410000   1.324   3.476   4.193
 2493SOL     OW10001   1.576   3.626   4.218
 2493SOL    HW210002   1.563   3.668   4.303
 2493SOL    HW310003   1.500   3.569   4.208
 2493SOL    MW410004   1.564   3.624   4.228
 2494SOL     OW10005   1.622   3.869   4.133
 2494SOL    HW210006   1.546   3.920   4.161
 2494SOL    HW310007   1.606   3.781   4.167
 2494SOL    MW410008   1.609   3.864   4.141
 2495SOL     OW10009   1.397   4.015   4.236
 2495SOL    HW210010   1.454   4.006   4.312
 2495SOL    HW310011   1.370   4.107   4.237
 2495SOL    MW410012   1.401   4.026   4.246
 2496SOL     OW10013   1.313   4.264   4.185
 2496SOL    HW210014   1.376   4.336   4.187
 2496SOL    HW310015   1.290   4.255   4.092
 2496SOL    MW410016   1.318   4.272   4.173
 2497SOL     OW10017   1.543   4.416   4.232
 2497SOL    HW210018   1.534   4.505   4.199
 2497SOL    HW310019   1.619   4.380   4.186
 2497SOL    MW410020   1.552   4.423   4.221
 2498SOL     OW10021   1.983   4.649   4.136
 2498SOL    HW210022   1.903   4.699   4.150
 2498SOL    HW310023   1.989   4.640   4.041
 2498SOL    MW410024   1.973   4.654   4.125
 2499SOL     OW10025   1.728   0.118   4.195
 2499SOL    HW210026   1.743   0.129   4.289
 2499SOL    HW310027   1.740   0.205   4.158
 2499SOL    MW410028   1.731   0.131   4.203
 2500SOL     OW10029   1.755   0.376   4.126
 2500SOL    HW210030   1.824   0.422   4.173
 2500SOL    HW310031   1.674   0.417   4.156
 2500SOL    MW410032   1.753   0.387   4.136
 2501SOL     OW10033   1.973   0.485   4.265
 2501SOL    HW210034   1.975   0.452   4.355
 2501SOL    HW310035   2.054   0.451   4.226
 2501SOL    MW410036   1.984   0.476   4.272
 2502SOL     OW10037   2.014   0.740   4.148
 2502SOL    HW210038   2.088   0.796   4.173
 2502SOL    HW310039   2.020   0.665   4.207
 2502SOL    MW410040   2.025   0.738   4.159
 2503SOL     OW10041   1.797   0.895   4.253
 2503SOL    HW210042   1.828   0.983   4.230
 2503SOL    HW310043   1.869   0.837   4.231
 2503SOL    MW410044   1.810   0.899   4.247
 2504SOL     OW10045   1.833   1.166   4.154
 2504SOL    HW210046   1.894   1.199   4.220
 2504SOL    HW310047   1.751   1.212   4.172
 2504SOL    MW410048   1.830   1.176   4.165
 2505SOL     OW10049   2.023   1.289   4.329
 2505SOL    HW210050   2.096   1.273   4.269
 2505SOL    HW310051   2.001   1.381   4.316
 2505SOL    MW410052   2.030   1.299   4.319
 2506SOL     OW10053   2.000   1.566   4.208
 2506SOL    HW210054   2.046   1.632   4.259
 2506SOL    HW310055   2.038   1.571   4.121
 2506SOL    MW410056   2.011   1.575   4.204
 2507SOL     OW10057   1.786   1.708   4.160
 2507SOL    HW210058   1.865   1.655   4.174
 2507SOL    HW310059   1.721   1.647   4.128
 2507SOL    MW410060   1.788   1.693   4.158
 2508SOL     OW10061   1.782   1.976   4.122
 2508SOL    HW210062   1.772   1.883   4.140
 2508SOL    HW310063   1.865   2.000   4.162
 2508SOL    MW410064   1.791   1.967   4.130
 2509SOL     OW10065   1.742   2.544   4.331
 2509SOL    HW210066   1.779   2.556   4.419
 2509SOL    HW310067   1.806   2.585   4.273
 2509SOL    MW410068   1.756   2.551   4.335
 2510SOL     OW10069   2.488   2.384   4.140
 2510SOL    HW210070   2.411   2.336   4.172
 2510SOL    HW310071   2.503   2.348   4.052
 2510SOL    MW410072   2.480   2.373   4.133
 2511SOL     OW10073   1.779   2.996   4.363
 2511SOL    HW210074   1.775   2.944   4.283
 2511SOL    HW310075   1.872   2.995   4.388
 2511SOL    MW410076   1.791   2.989   4.356
 2512SOL     OW10077   1.783   2.876   4.123
 2512SOL    HW210078   1.845   2.804   4.129
 2512SOL    HW310079   1.835   2.951   4.096
 2512SOL    MW410080   1.798   2.876   4.120
 2513SOL     OW10081   2.016   3.238   4.317
 2513SOL    HW210082   2.033   3.150   4.349
 2513SOL    HW310083   1.976   3.225   4.231
 2513SOL    MW410084   2.013   3.225   4.310
 2514SOL     OW10085   2.163   2.939   4.133
 2514SOL    HW210086   2.257   2.955   4.142
 2514SOL    HW310087   2.137   2.898   4.215
 2514SOL    MW410088   2.172   2.936   4.145
 2515SOL     OW10089   1.638   3.262   4.328
 2515SOL    HW210090   1.690   3.328   4.283
 2515SOL    HW310091   1.701   3.194   4.352
 2515SOL    MW410092   1.653   3.262   4.325
 2516SOL     OW10093   1.795   3.451   4.182
 2516SOL    HW210094   1.729   3.518   4.202
 2516SOL    HW310095   1.781   3.431   4.090
 2516SOL    MW410096   1.784   3.458   4.173
 2517SOL     OW10097   2.016   3.616   4.255
 2517SOL    HW210098   2.015   3.697   4.204
 2517SOL    HW310099   1.944   3.564   4.219
 2517SOL    MW410100   2.007   3.620   4.244
 2518SOL     OW10101   2.029   3.860   4.139
 2518SOL    HW210102   1.963   3.919   4.176
 2518SOL    HW310103   1.999   3.844   4.049
 2518SOL    MW410104   2.016   3.866   4.132
 2519SOL     OW10105   1.826   4.020   4.242
 2519SOL    HW210106   1.800   4.101   4.198
 2519SOL    HW310107   1.761   3.956   4.216
 2519SOL    MW410108   1.814   4.022   4.233
 2520SOL     OW10109   1.746   4.263   4.121
 2520SOL    HW210110   1.827   4.308   4.142
 2520SOL    HW310111   1.752   4.244   4.027
 2520SOL    MW410112   1.757   4.266   4.111
 2521SOL     OW10113   1.996   4.369   4.182
 2521SOL    HW210114   2.004   4.352   4.276
 2521SOL    HW310115   1.981   4.464   4.177
 2521SOL    MW410116   1.995   4.380   4.194
 2522SOL     OW10117   2.434   4.646   4.143
 2522SOL    HW210118   2.511   4.667   4.195
 2522SOL    HW310119   2.421   4.552   4.155
 2522SOL    MW410120   2.442   4.637   4.151
 2523SOL     OW10121   2.205   0.124   4.233
 2523SOL    HW210122   2.287   0.085   4.202
 2523SOL    HW310123   2.138   0.062   4.207
 2523SOL    MW410124   2.207   0.111   4.226
 2524SOL     OW10125   2.179   0.383   4.139
 2524SOL    HW210126   2.187   0.296   4.177
 2524SOL    HW310127   2.171   0.367   4.045
 2524SOL    MW410128   2.179   0.370   4.131
 2525SOL     OW10129   2.430   0.460   4.220
 2525SOL    HW210130   2.410   0.474   4.313
 2525SOL    HW310131   2.347   0.432   4.182
 2525SOL    MW410132   2.416   0.458   4.227
 2526SOL     OW10133   2.454   0.742   4.178
 2526SOL    HW210134   2.448   0.649   4.199
 2526SOL    HW310135   2.456   0.745   4.082
 2526SOL    MW410136   2.454   0.730   4.168
 2527SOL     OW10137   2.221   0.905   4.215
 2527SOL    HW210138   2.202   0.902   4.308
 2527SOL    HW310139   2.307   0.864   4.206
 2527SOL    MW410140   2.230   0.899   4.226
 2528SOL     OW10141   2.201   1.183   4.152
 2528SOL    HW210142   2.284   1.225   4.176
 2528SOL    HW310143   2.209   1.094   4.187
 2528SOL    MW410144   2.213   1.177   4.160
 2529SOL     OW10145   2.426   1.318   4.247
 2529SOL    HW210146   2.465   1.342   4.331
 2529SOL    HW310147   2.494   1.270   4.202
 2529SOL    MW410148   2.440   1.315   4.252
 2530SOL     OW10149   2.448   1.578   4.172
 2530SOL    HW210150   2.427   1.493   4.210
 2530SOL    HW310151   2.447   1.563   4.078
 2530SOL    MW410152   2.445   1.565   4.165
 2531SOL     OW10153   2.256   1.757   4.265
 2531SOL    HW210154   2.319   1.701   4.220
 2531SOL    HW310155   2.268   1.843   4.227
 2531SOL    MW410156   2.266   1.761   4.254
 2532SOL     OW10157   2.347   1.987   4.130
 2532SOL    HW210158   2.442   1.985   4.125
 2532SOL    HW310159   2.328   2.060   4.190
 2532SOL    MW410160   2.357   1.997   4.138
 2533SOL     OW10161   2.300   2.193   4.299
 2533SOL    HW210162   2.214   2.233   4.313
 2533SOL    HW310163   2.311   2.133   4.373
 2533SOL    MW410164   2.290   2.190   4.311
 2534SOL     OW10165   2.685   2.603   4.142
 2534SOL    HW210166   2.606   2.550   4.143
 2534SOL    HW310167   2.699   2.628   4.233
 2534SOL    MW410168   2.676   2.599   4.154
 2535SOL     OW10169   2.340   2.447   4.528
 2535SOL    HW210170   2.316   2.477   4.440
 2535SOL    HW310171   2.338   2.527   4.582
 2535SOL    MW410172   2.337   2.462   4.524
 2536SOL     OW10173   1.935   2.664   4.163
 2536SOL    HW210174   1.981   2.711   4.233
 2536SOL    HW310175   1.994   2.593   4.139
 2536SOL    MW410176   1.949   2.661   4.169
 2537SOL     OW10177   2.465   2.815   4.398
 2537SOL    HW210178   2.428   2.758   4.331
 2537SOL    HW310179   2.390   2.854   4.442
 2537SOL    MW410180   2.450   2.813   4.395
 2538SOL     OW10181   2.301   3.219   4.258
 2538SOL    HW210182   2.206   3.220   4.270
 2538SOL    HW310183   2.336   3.206   4.346
 2538SOL    MW410184   2.293   3.217   4.271
 2539SOL     OW10185   1.950   3.102   4.061
 2539SOL    HW210186   1.965   3.096   3.967
 2539SOL    HW310187   2.020   3.050   4.100
 2539SOL    MW410188   1.961   3.095   4.054
 2540SOL     OW10189   2.260   3.465   4.133
 2540SOL    HW210190   2.289   3.395   4.191
 2540SOL    HW310191   2.177   3.494   4.169
 2540SOL    MW410192   2.253   3.460   4.145
 2541SOL     OW10193   2.481   3.588   4.251
 2541SOL    HW210194   2.408   3.570   4.192
 2541SOL    HW310195   2.496   3.682   4.244
 2541SOL    MW410196   2.474   3.598   4.242
 2542SOL     OW10197   2.494   3.852   4.196
 2542SOL    HW210198   2.570   3.901   4.225
 2542SOL    HW310199   2.479   3.879   4.106
 2542SOL    MW410200   2.502   3.862   4.188
 2543SOL     OW10201   2.254   3.985   4.232
 2543SOL    HW210202   2.331   3.929   4.224
 2543SOL    HW310203   2.183   3.933   4.193
 2543SOL    MW410204   2.255   3.970   4.226
 2544SOL     OW10205   2.226   4.226   4.113
 2544SOL    HW210206   2.235   4.150   4.171
 2544SOL    HW310207   2.140   4.262   4.133
 2544SOL    MW410208   2.216   4.221   4.123
 2545SOL     OW10209   2.428   4.383   4.230
 2545SOL    HW210210   2.499   4.338   4.184
 2545SOL    HW310211   2.350   4.334   4.205
 2545SOL    MW410212   2.427   4.370   4.220
 2546SOL     OW10213   2.853   4.633   4.111
 2546SOL    HW210214   2.942   4.665   4.126
 2546SOL    HW310215   2.859   4.538   4.124
 2546SOL    MW410216   2.866   4.624   4.115
 2547SOL     OW10217   2.662   0.077   4.276
 2547SOL    HW210218   2.662   0.168   4.248
 2547SOL    HW310219   2.722   0.033   4.215
 2547SOL    MW410220   2.670   0.083   4.264
 2548SOL     OW10221   2.671   0.342   4.169
 2548SOL    HW210222   2.584   0.378   4.190
 2548SOL    HW310223   2.677   0.349   4.074
 2548SOL    MW410224   2.660   0.348   4.160
 2549SOL     OW10225   3.276   0.680   4.126
 2549SOL    HW210226   3.326   0.726   4.195
 2549SOL    HW310227   3.187   0.713   4.136
 2549SOL    MW410228   3.271   0.690   4.137
 2550SOL     OW10229   3.027   0.810   4.125
 2550SOL    HW210230   3.028   0.906   4.125
 2550SOL    HW310231   2.965   0.788   4.055
 2550SOL    MW410232   3.019   0.820   4.116
 2551SOL     OW10233   2.670   0.932   4.235
 2551SOL    HW210234   2.742   0.879   4.268
 2551SOL    HW310235   2.609   0.869   4.197
 2551SOL    MW410236   2.671   0.917   4.235
 2552SOL     OW10237   2.635   1.184   4.125
 2552SOL    HW210238   2.647   1.092   4.150
 2552SOL    HW310239   2.671   1.190   4.036
 2552SOL    MW410240   2.641   1.173   4.116
 2553SOL     OW10241   2.846   1.305   4.253
 2553SOL    HW210242   2.910   1.244   4.216
 2553SOL    HW310243   2.762   1.278   4.215
 2553SOL    MW410244   2.843   1.293   4.243
 2554SOL     OW10245   2.877   1.545   4.142
 2554SOL    HW210246   2.958   1.582   4.176
 2554SOL    HW310247   2.882   1.452   4.164
 2554SOL    MW410248   2.888   1.538   4.150
 2555SOL     OW10249   2.678   1.709   4.249
 2555SOL    HW210250   2.744   1.655   4.205
 2555SOL    HW310251   2.595   1.666   4.228
 2555SOL    MW410252   2.676   1.696   4.240
 2556SOL     OW10253   2.636   1.963   4.136
 2556SOL    HW210254   2.665   1.880   4.173
 2556SOL    HW310255   2.650   1.954   4.042
 2556SOL    MW410256   2.642   1.951   4.128
 2557SOL     OW10257   2.824   2.125   4.250
 2557SOL    HW210258   2.820   2.209   4.204
 2557SOL    HW310259   2.744   2.080   4.224
 2557SOL    MW410260   2.813   2.130   4.240
 2558SOL     OW10261   2.858   2.395   4.139
 2558SOL    HW210262   2.940   2.416   4.185
 2558SOL    HW310263   2.807   2.476   4.142
 2558SOL    MW410264   2.862   2.409   4.145
 2559SOL     OW10265   2.639   2.962   4.255
 2559SOL    HW210266   2.653   3.045   4.302
 2559SOL    HW310267   2.579   2.913   4.311
 2559SOL    MW410268   2.633   2.967   4.269
 2560SOL     OW10269   2.433   3.040   4.101
 2560SOL    HW210270   2.509   3.001   4.144
 2560SOL    HW310271   2.402   3.106   4.162
 2560SOL    MW410272   2.439   3.044   4.115
 2561SOL     OW10273   2.885   2.906   4.118
 2561SOL    HW210274   2.799   2.916   4.157
 2561SOL    HW310275   2.879   2.950   4.033
 2561SOL    MW410276   2.873   2.913   4.112
 2562SOL     OW10277   2.979   3.070   4.336
 2562SOL    HW210278   3.029   3.021   4.402
 2562SOL    HW310279   2.947   3.003   4.276
 2562SOL    MW410280   2.981   3.055   4.337
 2563SOL     OW10281   2.723   3.217   4.356
 2563SOL    HW210282   2.700   3.249   4.443
 2563SOL    HW310283   2.805   3.169   4.368
 2563SOL    MW410284   2.731   3.215   4.369
 2564SOL     OW10285   2.689   3.419   4.155
 2564SOL    HW210286   2.698   3.355   4.226
 2564SOL    HW310287   2.619   3.477   4.184
 2564SOL    MW410288   2.681   3.418   4.168
 2565SOL     OW10289   2.871   3.622   4.217
 2565SOL    HW210290   2.888   3.603   4.309
 2565SOL    HW310291   2.806   3.558   4.190
 2565SOL    MW410292   2.865   3.611   4.225
 2566SOL     OW10293   2.886   3.878   4.109
 2566SOL    HW210294   2.950   3.915   4.169
 2566SOL    HW310295   2.875   3.787   4.138
 2566SOL    MW410296   2.893   3.871   4.120
 2567SOL     OW10297   2.714   4.011   4.280
 2567SOL    HW210298   2.684   4.090   4.236
 2567SOL    HW310299   2.768   3.967   4.215
 2567SOL    MW410300   2.717   4.016   4.266
 2568SOL     OW10301   2.642   4.231   4.123
 2568SOL    HW210302   2.714   4.292   4.138
 2568SOL    HW310303   2.641   4.218   4.029
 2568SOL    MW410304   2.651   4.237   4.113
 2569SOL     OW10305   2.888   4.369   4.170
 2569SOL    HW210306   2.891   4.347   4.263
 2569SOL    HW310307   2.961   4.321   4.131
 2569SOL    MW410308   2.898   4.360   4.177
 2570SOL     OW10309   3.361   4.604   4.094
 2570SOL    HW210310   3.437   4.631   4.147
 2570SOL    HW310311   3.333   4.521   4.134
 2570SOL    MW410312   3.368   4.597   4.106
 2571SOL     OW10313   3.096   0.076   4.161
 2571SOL    HW210314   3.114   0.068   4.255
 2571SOL    HW310315   3.165   0.025   4.119
 2571SOL    MW410316   3.107   0.068   4.168
 2572SOL     OW10317   3.174   0.340   4.093
 2572SOL    HW210318   3.221   0.377   4.167
 2572SOL    HW310319   3.129   0.263   4.129
 2572SOL    MW410320   3.174   0.335   4.107
 2573SOL     OW10321   3.334   0.459   4.280
 2573SOL    HW210322   3.413   0.428   4.234
 2573SOL    HW310323   3.310   0.539   4.234
 2573SOL    MW410324   3.341   0.466   4.268
 2574SOL     OW10325   3.407   0.772   4.340
 2574SOL    HW210326   3.411   0.867   4.329
 2574SOL    HW310327   3.364   0.759   4.424
 2574SOL    MW410328   3.402   0.783   4.349
 2575SOL     OW10329   3.123   1.075   4.592
 2575SOL    HW210330   3.191   1.030   4.642
 2575SOL    HW310331   3.041   1.045   4.632
 2575SOL    MW410332   3.121   1.065   4.603
 2576SOL     OW10333   3.021   1.108   4.117
 2576SOL    HW210334   3.089   1.110   4.184
 2576SOL    HW310335   3.065   1.133   4.037
 2576SOL    MW410336   3.036   1.111   4.116
 2577SOL     OW10337   3.456   1.034   4.312
 2577SOL    HW210338   3.495   1.052   4.397
 2577SOL    HW310339   3.373   1.082   4.313
 2577SOL    MW410340   3.450   1.043   4.323
 2578SOL     OW10341   3.261   1.405   4.355
 2578SOL    HW210342   3.286   1.475   4.295
 2578SOL    HW310343   3.331   1.402   4.420
 2578SOL    MW410344   3.274   1.414   4.356
 2579SOL     OW10345   3.072   1.706   4.269
 2579SOL    HW210346   3.061   1.705   4.364
 2579SOL    HW310347   3.057   1.797   4.244
 2579SOL    MW410348   3.068   1.718   4.278
 2580SOL     OW10349   3.059   1.985   4.166
 2580SOL    HW210350   3.140   2.026   4.196
 2580SOL    HW310351   2.989   2.040   4.202
 2580SOL    MW410352   3.060   1.998   4.175
 2581SOL     OW10353   3.319   2.080   4.219
 2581SOL    HW210354   3.405   2.043   4.237
 2581SOL    HW310355   3.337   2.170   4.190
 2581SOL    MW410356   3.333   2.087   4.217
 2582SOL     OW10357   3.367   2.373   4.211
 2582SOL    HW210358   3.446   2.421   4.238
 2582SOL    HW310359   3.375   2.368   4.115
 2582SOL    MW410360   3.379   2.379   4.202
 2583SOL     OW10361   3.107   2.465   4.251
 2583SOL    HW210362   3.095   2.557   4.231
 2583SOL    HW310363   3.198   2.447   4.228
 2583SOL    MW410364   3.118   2.474   4.246
 2584SOL     OW10365   3.082   2.724   4.167
 2584SOL    HW210366   3.162   2.774   4.185
 2584SOL    HW310367   3.015   2.790   4.152
 2584SOL    MW410368   3.084   2.739   4.167
 2585SOL     OW10369   3.346   2.820   4.205
 2585SOL    HW210370   3.440   2.806   4.197
 2585SOL    HW310371   3.335   2.915   4.196
 2585SOL    MW410372   3.357   2.831   4.203
 2586SOL     OW10373   3.379   3.123   4.162
 2586SOL    HW210374   3.307   3.174   4.200
 2586SOL    HW310375   3.349   3.103   4.073
 2586SOL    MW410376   3.366   3.127   4.155
 2587SOL     OW10377   3.188   3.263   4.282
 2587SOL    HW210378   3.156   3.348   4.251
 2587SOL    HW310379   3.112   3.205   4.273
 2587SOL    MW410380   3.174   3.267   4.277
 2588SOL     OW10381   3.121   3.490   4.131
 2588SOL    HW210382   3.042   3.541   4.149
 2588SOL    HW310383   3.112   3.462   4.040
 2588SOL    MW410384   3.110   3.493   4.121
 2589SOL     OW10385   3.332   3.585   4.273
 2589SOL    HW210386   3.291   3.595   4.359
 2589SOL    HW310387   3.265   3.545   4.218
 2589SOL    MW410388   3.318   3.581   4.277
 2590SOL     OW10389   3.331   3.846   4.170
 2590SOL    HW210390   3.329   3.759   4.211
 2590SOL    HW310391   3.339   3.827   4.076
 2590SOL    MW410392   3.332   3.832   4.163
 2591SOL     OW10393   3.084   3.962   4.273
 2591SOL    HW210394   3.061   3.986   4.363
 2591SOL    HW310395   3.175   3.933   4.279
 2591SOL    MW410396   3.093   3.962   4.286
 2592SOL     OW10397   3.116   4.221   4.123
 2592SOL    HW210398   3.194   4.269   4.148
 2592SOL    HW310399   3.120   4.139   4.173
 2592SOL    MW410400   3.127   4.216   4.133
 2593SOL     OW10401   3.310   4.374   4.229
 2593SOL    HW210402   3.330   4.386   4.322
 2593SOL    HW310403   3.387   4.329   4.194
 2593SOL    MW410404   3.323   4.370   4.237
 2594SOL     OW10405   3.795   4.615   4.145
 2594SOL    HW210406   3.874   4.665   4.162
 2594SOL    HW310407   3.779   4.624   4.051
 2594SOL    MW410408   3.803   4.623   4.135
 2595SOL     OW10409   3.569   0.037   4.280
 2595SOL    HW210410   3.564   0.130   4.255
 2595SOL    HW310411   3.649   0.006   4.236
 2595SOL    MW410412   3.579   0.045   4.271
 2596SOL     OW10413   3.550   0.322   4.173
 2596SOL    HW210414   3.635   0.349   4.207
 2596SOL    HW310415   3.554   0.343   4.080
 2596SOL    MW410416   3.562   0.329   4.165
 2597SOL     OW10417   3.777   0.423   4.292
 2597SOL    HW210418   3.834   0.410   4.368
 2597SOL    HW310419   3.744   0.512   4.302
 2597SOL    MW410420   3.780   0.433   4.304
 2598SOL     OW10421   3.799   0.844   4.106
 2598SOL    HW210422   3.746   0.922   4.088
 2598SOL    HW310423   3.811   0.803   4.020
 2598SOL    MW410424   3.793   0.848   4.092
 2599SOL     OW10425   3.706   0.683   4.336
 2599SOL    HW210426   3.615   0.712   4.337
 2599SOL    HW310427   3.743   0.724   4.258
 2599SOL    MW410428   3.699   0.692   4.326
 2600SOL     OW10429   3.680   1.092   4.109
 2600SOL    HW210430   3.600   1.054   4.144
 2600SOL    HW310431   3.658   1.118   4.020
 2600SOL    MW410432   3.667   1.090   4.102
 2601SOL     OW10433   3.788   1.327   4.224
 2601SOL    HW210434   3.749   1.248   4.187
 2601SOL    HW310435   3.756   1.330   4.314
 2601SOL    MW410436   3.778   1.317   4.231
 2602SOL     OW10437   3.806   1.593   4.146
 2602SOL    HW210438   3.794   1.501   4.168
 2602SOL    HW310439   3.874   1.624   4.205
 2602SOL    MW410440   3.813   1.585   4.157
 2603SOL     OW10441   3.563   1.977   4.229
 2603SOL    HW210442   3.569   1.972   4.134
 2603SOL    HW310443   3.576   1.887   4.259
 2603SOL    MW410444   3.565   1.964   4.221
 2604SOL     OW10445   3.335   1.618   4.185
 2604SOL    HW210446   3.343   1.641   4.093
 2604SOL    HW310447   3.260   1.670   4.216
 2604SOL    MW410448   3.326   1.628   4.177
 2605SOL     OW10449   3.814   2.081   4.291
 2605SOL    HW210450   3.825   2.075   4.385
 2605SOL    HW310451   3.723   2.056   4.275
 2605SOL    MW410452   3.803   2.076   4.301
 2606SOL     OW10453   3.828   2.342   4.210
 2606SOL    HW210454   3.820   2.251   4.241
 2606SOL    HW310455   3.820   2.336   4.115
 2606SOL    MW410456   3.826   2.329   4.202
 2607SOL     OW10457   3.608   2.501   4.250
 2607SOL    HW210458   3.602   2.529   4.341
 2607SOL    HW310459   3.691   2.453   4.245
 2607SOL    MW410460   3.618   2.498   4.261
 2608SOL     OW10461   3.618   2.754   4.143
 2608SOL    HW210462   3.608   2.667   4.182
 2608SOL    HW310463   3.643   2.737   4.052
 2608SOL    MW410464   3.620   2.740   4.137
 2609SOL     OW10465   3.857   2.832   4.223
 2609SOL    HW210466   3.881   2.804   4.311
 2609SOL    HW310467   3.764   2.813   4.216
 2609SOL    MW410468   3.848   2.826   4.233
 2610SOL     OW10469   3.820   3.101   4.190
 2610SOL    HW210470   3.833   3.008   4.212
 2610SOL    HW310471   3.837   3.106   4.096
 2610SOL    MW410472   3.824   3.089   4.180
 2611SOL     OW10473   3.590   3.250   4.270
 2611SOL    HW210474   3.671   3.208   4.243
 2611SOL    HW310475   3.521   3.189   4.244
 2611SOL    MW410476   3.591   3.237   4.263
 2612SOL     OW10477   3.561   3.500   4.141
 2612SOL    HW210478   3.578   3.421   4.191
 2612SOL    HW310479   3.488   3.543   4.187
 2612SOL    MW410480   3.554   3.495   4.153
 2613SOL     OW10481   3.775   3.664   4.242
 2613SOL    HW210482   3.844   3.601   4.220
 2613SOL    HW310483   3.694   3.617   4.223
 2613SOL    MW410484   3.773   3.649   4.236
 2614SOL     OW10485   3.787   3.899   4.098
 2614SOL    HW210486   3.719   3.953   4.138
 2614SOL    HW310487   3.776   3.812   4.138
 2614SOL    MW410488   3.777   3.894   4.109
 2615SOL     OW10489   3.550   4.005   4.260
 2615SOL    HW210490   3.560   3.996   4.355
 2615SOL    HW310491   3.476   3.948   4.238
 2615SOL    MW410492   3.541   3.996   4.270
 2616SOL     OW10493   3.564   4.252   4.143
 2616SOL    HW210494   3.648   4.281   4.178
 2616SOL    HW310495   3.545   4.172   4.191
 2616SOL    MW410496   3.573   4.245   4.154
 2617SOL     OW10497   3.774   4.370   4.268
 2617SOL    HW210498   3.841   4.317   4.226
 2617SOL    HW310499   3.785   4.457   4.229
 2617SOL    MW410500   3.784   4.375   4.257
 2618SOL     OW10501   4.248   4.626   4.112
 2618SOL    HW210502   4.254   4.536   4.144
 2618SOL    HW310503   4.325   4.669   4.149
 2618SOL    MW410504   4.259   4.620   4.121
 2619SOL     OW10505   4.015   0.096   4.200
 2619SOL    HW210506   4.019   0.189   4.176
 2619SOL    HW310507   4.094   0.058   4.163
 2619SOL    MW410508   4.026   0.103   4.192
 2620SOL     OW10509   3.998   0.366   4.127
 2620SOL    HW210510   4.070   0.419   4.161
 2620SOL    HW310511   3.923   0.391   4.181
 2620SOL    MW410512   3.998   0.376   4.139
 2621SOL     OW10513   4.188   0.516   4.257
 2621SOL    HW210514   4.206   0.603   4.220
 2621SOL    HW310515   4.260   0.461   4.226
 2621SOL    MW410516   4.200   0.520   4.248
 2622SOL     OW10517   4.242   0.761   4.142
 2622SOL    HW210518   4.169   0.819   4.164
 2622SOL    HW310519   4.265   0.784   4.052
 2622SOL    MW410520   4.236   0.772   4.133
 2623SOL     OW10521   4.048   0.932   4.187
 2623SOL    HW210522   4.041   1.021   4.153
 2623SOL    HW310523   3.963   0.892   4.168
 2623SOL    MW410524   4.036   0.938   4.180
 2624SOL     OW10525   4.009   1.187   4.094
 2624SOL    HW210526   4.088   1.214   4.141
 2624SOL    HW310527   3.938   1.232   4.140
 2624SOL    MW410528   4.010   1.197   4.106
 2625SOL     OW10529   4.247   1.258   4.199
 2625SOL    HW210530   4.242   1.259   4.295
 2625SOL    HW310531   4.332   1.218   4.180
 2625SOL    MW410532   4.257   1.253   4.210
 2626SOL     OW10533   4.364   1.498   4.140
 2626SOL    HW210534   4.306   1.430   4.174
 2626SOL    HW310535   4.320   1.531   4.062
 2626SOL    MW410536   4.351   1.494   4.135
 2627SOL     OW10537   4.196   1.783   4.501
 2627SOL    HW210538   4.220   1.753   4.588
 2627SOL    HW310539   4.264   1.748   4.443
 2627SOL    MW410540   4.208   1.774   4.505
 2628SOL     OW10541   4.010   1.904   4.214
 2628SOL    HW210542   4.015   1.829   4.273
 2628SOL    HW310543   3.934   1.954   4.243
 2628SOL    MW410544   4.001   1.901   4.226
 2629SOL     OW10545   4.426   1.962   4.145
 2629SOL    HW210546   4.505   2.000   4.183
 2629SOL    HW310547   4.354   2.008   4.189
 2629SOL    MW410548   4.427   1.973   4.156
 2630SOL     OW10549   4.261   2.331   4.097
 2630SOL    HW210550   4.189   2.383   4.131
 2630SOL    HW310551   4.244   2.242   4.128
 2630SOL    MW410552   4.250   2.326   4.106
 2631SOL     OW10553   4.054   2.475   4.232
 2631SOL    HW210554   4.045   2.485   4.327
 2631SOL    HW310555   3.981   2.417   4.207
 2631SOL    MW410556   4.043   2.469   4.241
 2632SOL     OW10557   4.039   2.697   4.074
 2632SOL    HW210558   4.065   2.619   4.124
 2632SOL    HW310559   3.967   2.735   4.125
 2632SOL    MW410560   4.033   2.692   4.087
 2633SOL     OW10561   4.234   2.832   4.204
 2633SOL    HW210562   4.163   2.805   4.145
 2633SOL    HW310563   4.309   2.779   4.177
 2633SOL    MW410564   4.234   2.822   4.192
 2634SOL     OW10565   4.275   3.106   4.130
 2634SOL    HW210566   4.263   3.015   4.158
 2634SOL    HW310567   4.269   3.102   4.035
 2634SOL    MW410568   4.273   3.093   4.121
 2635SOL     OW10569   4.061   3.222   4.286
 2635SOL    HW210570   4.130   3.183   4.232
 2635SOL    HW310571   3.980   3.184   4.252
 2635SOL    MW410572   4.059   3.212   4.274
 2636SOL     OW10573   3.957   3.469   4.153
 2636SOL    HW210574   3.995   3.385   4.178
 2636SOL    HW310575   3.952   3.466   4.057
 2636SOL    MW410576   3.961   3.458   4.144
 2637SOL     OW10577   4.226   3.584   4.179
 2637SOL    HW210578   4.241   3.675   4.150
 2637SOL    HW310579   4.134   3.568   4.161
 2637SOL    MW410580   4.216   3.594   4.173
 2638SOL     OW10581   4.301   3.836   4.096
 2638SOL    HW210582   4.246   3.914   4.108
 2638SOL    HW310583   4.318   3.834   4.002
 2638SOL    MW410584   4.296   3.846   4.085
 2639SOL     OW10585   4.063   3.984   4.173
 2639SOL    HW210586   4.072   3.967   4.267
 2639SOL    HW310587   3.981   3.941   4.149
 2639SOL    MW410588   4.053   3.976   4.182
 2640SOL     OW10589   3.977   4.242   4.161
 2640SOL    HW210590   4.058   4.291   4.174
 2640SOL    HW310591   4.006   4.151   4.154
 2640SOL    MW410592   3.992   4.237   4.162
 2641SOL     OW10593   4.008   4.207   4.584
 2641SOL    HW210594   4.001   4.164   4.669
 2641SOL    HW310595   3.928   4.259   4.577
 2641SOL    MW410596   3.997   4.208   4.595
 2642SOL     OW10597   3.959   4.062   4.834
 2642SOL    HW210598   3.868   4.032   4.836
 2642SOL    HW310599   4.011   3.983   4.848
 2642SOL    MW410600   3.954   4.048   4.836
 2643SOL     OW10601   4.204   4.385   4.482
 2643SOL    HW210602   4.150   4.464   4.487
 2643SOL    HW310603   4.170   4.328   4.550
 2643SOL    MW410604   4.193   4.388   4.492
 2644SOL     OW10605   4.040   4.637   4.471
 2644SOL    HW210606   3.950   4.650   4.500
 2644SOL    HW310607   4.043   4.677   4.384
 2644SOL    MW410608   4.028   4.644   4.464
 2645SOL     OW10609   4.223   1.588   4.721
 2645SOL    HW210610   4.278   1.595   4.799
 2645SOL    HW310611   4.271   1.528   4.663
 2645SOL    MW410612   4.237   1.581   4.724
 2646SOL     OW10613   0.336   0.076   4.509
 2646SOL    HW210614   0.270   0.008   4.519
 2646SOL    HW310615   0.420   0.029   4.510
 2646SOL    MW410616   0.339   0.061   4.510
 2647SOL     OW10617   0.184   0.810   4.613
 2647SOL    HW210618   0.141   0.794   4.696
 2647SOL    HW310619   0.179   0.726   4.567
 2647SOL    MW410620   0.178   0.797   4.618
 2648SOL     OW10621   4.215   0.806   4.639
 2648SOL    HW210622   4.201   0.721   4.597
 2648SOL    HW310623   4.281   0.849   4.585
 2648SOL    MW410624   4.221   0.800   4.626
 2649SOL     OW10625   0.755   1.386   4.468
 2649SOL    HW210626   0.780   1.478   4.480
 2649SOL    HW310627   0.682   1.374   4.529
 2649SOL    MW410628   0.748   1.397   4.478
 2650SOL     OW10629   1.177   1.953   4.446
 2650SOL    HW210630   1.273   1.954   4.437
 2650SOL    HW310631   1.159   2.014   4.517
 2650SOL    MW410632   1.187   1.961   4.454
 2651SOL     OW10633   4.144   1.251   4.470
 2651SOL    HW210634   4.130   1.160   4.496
 2651SOL    HW310635   4.214   1.281   4.528
 2651SOL    MW410636   4.152   1.243   4.481
 2652SOL     OW10637   0.068   1.651   4.554
 2652SOL    HW210638   0.028   1.690   4.476
 2652SOL    HW310639   0.082   1.725   4.613
 2652SOL    MW410640   0.065   1.666   4.551
 2653SOL     OW10641   0.367   1.664   4.196
 2653SOL    HW210642   0.286   1.615   4.179
 2653SOL    HW310643   0.436   1.611   4.156
 2653SOL    MW410644   0.365   1.651   4.189
 2654SOL     OW10645   0.111   1.886   4.712
 2654SOL    HW210646   0.122   1.958   4.650
 2654SOL    HW310647   0.193   1.883   4.761
 2654SOL    MW410648   0.123   1.895   4.710
 2655SOL     OW10649   4.307   2.223   4.495
 2655SOL    HW210650   4.396   2.258   4.486
 2655SOL    HW310651   4.253   2.299   4.516
 2655SOL    MW410652   4.312   2.237   4.496
 2656SOL     OW10653   0.610   2.908   4.697
 2656SOL    HW210654   0.644   2.843   4.635
 2656SOL    HW310655   0.681   2.918   4.761
 2656SOL    MW410656   0.624   2.901   4.697
 2657SOL     OW10657   0.336   2.922   4.610
 2657SOL    HW210658   0.426   2.898   4.630
 2657SOL    HW310659   0.326   3.010   4.646
 2657SOL    MW410660   0.347   2.931   4.617
 2658SOL     OW10661   0.078   2.382   4.475
 2658SOL    HW210662   0.039   2.410   4.393
 2658SOL    HW310663   0.155   2.438   4.485
 2658SOL    MW410664   0.083   2.393   4.466
 2659SOL     OW10665   4.005   3.455   4.791
 2659SOL    HW210666   3.998   3.369   4.831
 2659SOL    HW310667   3.918   3.472   4.754
 2659SOL    MW410668   3.993   3.446   4.791
 2660SOL     OW10669   0.619   3.343   4.496
 2660SOL    HW210670   0.675   3.420   4.496
 2660SOL    HW310671   0.570   3.348   4.579
 2660SOL    MW410672   0.620   3.354   4.507
 2661SOL     OW10673   4.245   3.800   4.624
 2661SOL    HW210674   4.192   3.724   4.600
 2661SOL    HW310675   4.204   3.873   4.578
 2661SOL    MW410676   4.233   3.799   4.615
 2662SOL     OW10677   4.360   0.069   4.463
 2662SOL    HW210678   4.272   0.038   4.487
 2662SOL    HW310679   4.357   0.163   4.478
 2662SOL    MW410680   4.348   0.077   4.468
 2663SOL     OW10681   3.295   0.452   4.559
 2663SOL    HW210682   3.311   0.450   4.464
 2663SOL    HW310683   3.207   0.416   4.569
 2663SOL    MW410684   3.285   0.447   4.548
 2664SOL     OW10685   4.083   3.793   4.873
 2664SOL    HW210686   4.074   3.700   4.892
 2664SOL    HW310687   4.160   3.798   4.816
 2664SOL    MW410688   4.092   3.782   4.868
 2665SOL     OW10689   3.701   3.774   4.648
 2665SOL    HW210690   3.774   3.782   4.586
 2665SOL    HW310691   3.726   3.827   4.723
 2665SOL    MW410692   3.714   3.782   4.649
 2666SOL     OW10693   0.593   4.604   4.476
 2666SOL    HW210694   0.614   4.567   4.391
 2666SOL    HW310695   0.607   4.532   4.538
 2666SOL    MW410696   0.597   4.590   4.473
 2667SOL     OW10697   3.914   0.703   4.681
 2667SOL    HW210698   3.870   0.774   4.634
 2667SOL    HW310699   4.001   0.737   4.701
 2667SOL    MW410700   3.920   0.717   4.678
 2668SOL     OW10701   1.095   0.777   4.633
 2668SOL    HW210702   1.009   0.817   4.628
 2668SOL    HW310703   1.083   0.690   4.596
 2668SOL    MW410704   1.082   0.771   4.628
 2669SOL     OW10705   0.591   0.400   4.616
 2669SOL    HW210706   0.655   0.330   4.616
 2669SOL    HW310707   0.635   0.473   4.574
 2669SOL    MW410708   0.605   0.400   4.610
 2670SOL     OW10709   0.873   0.926   4.541
 2670SOL    HW210710   0.881   0.922   4.446
 2670SOL    HW310711   0.789   0.884   4.560
 2670SOL    MW410712   0.863   0.920   4.531
 2671SOL     OW10713   0.381   0.939   4.470
 2671SOL    HW210714   0.376   0.914   4.378
 2671SOL    HW310715   0.319   0.882   4.514
 2671SOL    MW410716   0.372   0.928   4.463
 2672SOL     OW10717   2.131   1.147   4.542
 2672SOL    HW210718   2.107   1.201   4.467
 2672SOL    HW310719   2.218   1.179   4.568
 2672SOL    MW410720   2.139   1.159   4.536
 2673SOL     OW10721   0.341   1.601   4.471
 2673SOL    HW210722   0.257   1.620   4.512
 2673SOL    HW310723   0.326   1.613   4.378
 2673SOL    MW410724   0.328   1.606   4.464
 2674SOL     OW10725   1.452   1.047   4.635
 2674SOL    HW210726   1.420   0.960   4.609
 2674SOL    HW310727   1.379   1.106   4.617
 2674SOL    MW410728   1.438   1.043   4.629
 2675SOL     OW10729   0.885   1.633   4.481
 2675SOL    HW210730   0.828   1.698   4.522
 2675SOL    HW310731   0.971   1.649   4.520
 2675SOL    MW410732   0.889   1.644   4.492
 2676SOL     OW10733   0.680   2.079   4.448
 2676SOL    HW210734   0.729   2.154   4.481
 2676SOL    HW310735   0.715   2.004   4.496
 2676SOL    MW410736   0.691   2.079   4.459
 2677SOL     OW10737   1.127   1.690   4.599
 2677SOL    HW210738   1.188   1.617   4.588
 2677SOL    HW310739   1.160   1.759   4.541
 2677SOL    MW410740   1.139   1.690   4.590
 2678SOL     OW10741   0.428   2.096   4.596
 2678SOL    HW210742   0.493   2.100   4.526
 2678SOL    HW310743   0.436   2.179   4.642
 2678SOL    MW410744   0.437   2.107   4.593
 2679SOL     OW10745   0.977   2.619   4.734
 2679SOL    HW210746   0.979   2.672   4.654
 2679SOL    HW310747   0.886   2.588   4.739
 2679SOL    MW410748   0.965   2.622   4.724
 2680SOL     OW10749   0.721   2.516   4.656
 2680SOL    HW210750   0.649   2.466   4.695
 2680SOL    HW310751   0.773   2.450   4.609
 2680SOL    MW410752   0.718   2.501   4.655
 2681SOL     OW10753   0.916   3.234   4.483
 2681SOL    HW210754   0.953   3.311   4.527
 2681SOL    HW310755   0.822   3.243   4.493
 2681SOL    MW410756   0.909   3.245   4.490
 2682SOL     OW10757   0.725   3.604   4.505
 2682SOL    HW210758   0.700   3.694   4.527
 2682SOL    HW310759   0.818   3.600   4.524
 2682SOL    MW410760   0.734   3.615   4.510
 2683SOL     OW10761   1.418   4.602   4.582
 2683SOL    HW210762   1.484   4.536   4.563
 2683SOL    HW310763   1.468   4.681   4.604
 2683SOL    MW410764   1.433   4.604   4.583
 2684SOL     OW10765   0.388   2.459   4.475
 2684SOL    HW210766   0.417   2.429   4.389
 2684SOL    HW310767   0.356   2.548   4.460
 2684SOL    MW410768   0.387   2.467   4.462
 2685SOL     OW10769   0.002   3.292   4.489
 2685SOL    HW210770  -0.081   3.339   4.483
 2685SOL    HW310771   0.029   3.280   4.398
 2685SOL    MW410772  -0.006   3.297   4.476
 2686SOL     OW10773   1.226   3.400   4.696
 2686SOL    HW210774   1.280   3.410   4.775
 2686SOL    HW310775   1.249   3.313   4.663
 2686SOL    MW410776   1.237   3.390   4.702
 2687SOL     OW10777   4.485   4.302   4.490
 2687SOL    HW210778   4.396   4.336   4.502
 2687SOL    HW310779   4.472   4.211   4.462
 2687SOL    MW410780   4.471   4.294   4.488
 2688SOL     OW10781   0.272   3.895   4.272
 2688SOL    HW210782   0.257   3.806   4.239
 2688SOL    HW310783   0.266   3.887   4.367
 2688SOL    MW410784   0.269   3.882   4.280
 2689SOL     OW10785   0.110   4.580   4.547
 2689SOL    HW210786   0.029   4.630   4.542
 2689SOL    HW310787   0.081   4.488   4.549
 2689SOL    MW410788   0.095   4.574   4.547
 2690SOL     OW10789   0.320   0.357   4.577
 2690SOL    HW210790   0.410   0.387   4.591
 2690SOL    HW310791   0.326   0.262   4.579
 2690SOL    MW410792   0.333   0.349   4.579
 2691SOL     OW10793   1.158   4.552   4.511
 2691SOL    HW210794   1.141   4.507   4.593
 2691SOL    HW310795   1.249   4.582   4.518
 2691SOL    MW410796   1.168   4.550   4.523
 2692SOL     OW10797   0.576   0.644   4.810
 2692SOL    HW210798   0.590   0.597   4.892
 2692SOL    HW310799   0.524   0.585   4.756
 2692SOL    MW410800   0.571   0.630   4.814
 2693SOL     OW10801   1.357   0.805   4.532
 2693SOL    HW210802   1.346   0.846   4.446
 2693SOL    HW310803   1.267   0.793   4.564
 2693SOL    MW410804   1.343   0.809   4.525
 2694SOL     OW10805   1.720   0.945   4.688
 2694SOL    HW210806   1.634   0.987   4.690
 2694SOL    HW310807   1.725   0.897   4.771
 2694SOL    MW410808   1.710   0.944   4.699
 2695SOL     OW10809   0.266   1.186   4.503
 2695SOL    HW210810   0.307   1.100   4.497
 2695SOL    HW310811   0.338   1.244   4.530
 2695SOL    MW410812   0.281   1.182   4.506
 2696SOL     OW10813   0.981   1.891   4.748
 2696SOL    HW210814   1.028   1.810   4.729
 2696SOL    HW310815   1.044   1.960   4.731
 2696SOL    MW410816   0.995   1.889   4.743
 2697SOL     OW10817   0.960   1.202   4.478
 2697SOL    HW210818   0.880   1.255   4.476
 2697SOL    HW310819   0.939   1.127   4.533
 2697SOL    MW410820   0.947   1.199   4.485
 2698SOL     OW10821   1.857   1.177   4.609
 2698SOL    HW210822   1.825   1.101   4.659
 2698SOL    HW310823   1.951   1.161   4.600
 2698SOL    MW410824   1.865   1.165   4.615
 2699SOL     OW10825   1.234   1.229   4.546
 2699SOL    HW210826   1.145   1.221   4.511
 2699SOL    HW310827   1.258   1.320   4.529
 2699SOL    MW410828   1.225   1.240   4.540
 2700SOL     OW10829   1.115   2.397   4.632
 2700SOL    HW210830   1.086   2.473   4.683
 2700SOL    HW310831   1.194   2.427   4.588
 2700SOL    MW410832   1.121   2.411   4.633
 2701SOL     OW10833   1.570   2.514   4.787
 2701SOL    HW210834   1.640   2.560   4.834
 2701SOL    HW310835   1.495   2.574   4.790
 2701SOL    MW410836   1.569   2.528   4.794
 2702SOL     OW10837   1.474   2.910   4.595
 2702SOL    HW210838   1.545   2.974   4.601
 2702SOL    HW310839   1.503   2.848   4.528
 2702SOL    MW410840   1.487   2.911   4.587
 2703SOL     OW10841   1.550   3.352   4.580
 2703SOL    HW210842   1.552   3.263   4.615
 2703SOL    HW310843   1.583   3.343   4.491
 2703SOL    MW410844   1.554   3.339   4.573
 2704SOL     OW10845   0.704   2.731   4.471
 2704SOL    HW210846   0.800   2.723   4.466
 2704SOL    HW310847   0.676   2.657   4.524
 2704SOL    MW410848   0.713   2.720   4.477
 2705SOL     OW10849   0.617   4.368   4.637
 2705SOL    HW210850   0.625   4.288   4.583
 2705SOL    HW310851   0.551   4.346   4.702
 2705SOL    MW410852   0.610   4.354   4.638
 2706SOL     OW10853   1.007   2.792   4.496
 2706SOL    HW210854   1.045   2.802   4.408
 2706SOL    HW310855   1.016   2.878   4.536
 2706SOL    MW410856   1.013   2.804   4.490
 2707SOL     OW10857   0.878   2.884   4.802
 2707SOL    HW210858   0.915   2.800   4.830
 2707SOL    HW310859   0.944   2.921   4.744
 2707SOL    MW410860   0.892   2.877   4.798
 2708SOL     OW10861   1.767   3.533   4.645
 2708SOL    HW210862   1.845   3.485   4.617
 2708SOL    HW310863   1.695   3.471   4.635
 2708SOL    MW410864   1.768   3.519   4.640
 2709SOL     OW10865   0.280   3.929   4.544
 2709SOL    HW210866   0.192   3.894   4.558
 2709SOL    HW310867   0.272   4.023   4.561
 2709SOL    MW410868   0.268   3.937   4.548
 2710SOL     OW10869   0.014   3.819   4.545
 2710SOL    HW210870   0.039   3.744   4.491
 2710SOL    HW310871  -0.065   3.789   4.592
 2710SOL    MW410872   0.007   3.805   4.544
 2711SOL     OW10873   0.759   0.163   4.551
 2711SOL    HW210874   0.798   0.170   4.464
 2711SOL    HW310875   0.699   0.089   4.546
 2711SOL    MW410876   0.756   0.154   4.539
 2712SOL     OW10877   0.667   4.156   4.450
 2712SOL    HW210878   0.750   4.155   4.403
 2712SOL    HW310879   0.602   4.128   4.385
 2712SOL    MW410880   0.669   4.152   4.435
 2713SOL     OW10881   2.275   3.937   4.497
 2713SOL    HW210882   2.269   3.976   4.410
 2713SOL    HW310883   2.214   3.863   4.495
 2713SOL    MW410884   2.266   3.932   4.485
 2714SOL     OW10885   1.864   4.538   4.549
 2714SOL    HW210886   1.929   4.480   4.507
 2714SOL    HW310887   1.784   4.486   4.552
 2714SOL    MW410888   1.862   4.523   4.544
 2715SOL     OW10889   1.614   4.402   4.494
 2715SOL    HW210890   1.585   4.320   4.534
 2715SOL    HW310891   1.573   4.403   4.408
 2715SOL    MW410892   1.604   4.392   4.488
 2716SOL     OW10893   0.739   0.578   4.477
 2716SOL    HW210894   0.693   0.657   4.507
 2716SOL    HW310895   0.703   0.561   4.390
 2716SOL    MW410896   0.728   0.586   4.470
 2717SOL     OW10897   1.817   0.141   4.454
 2717SOL    HW210898   1.853   0.059   4.489
 2717SOL    HW310899   1.735   0.154   4.503
 2717SOL    MW410900   1.811   0.132   4.465
 2718SOL     OW10901   1.023   0.501   4.503
 2718SOL    HW210902   0.929   0.518   4.496
 2718SOL    HW310903   1.030   0.406   4.510
 2718SOL    MW410904   1.012   0.491   4.503
 2719SOL     OW10905   1.671   1.747   4.427
 2719SOL    HW210906   1.650   1.657   4.449
 2719SOL    HW310907   1.698   1.744   4.335
 2719SOL    MW410908   1.672   1.735   4.418
 2720SOL     OW10909   0.628   0.812   4.591
 2720SOL    HW210910   0.552   0.869   4.576
 2720SOL    HW310911   0.607   0.766   4.673
 2720SOL    MW410912   0.615   0.813   4.600
 2721SOL     OW10913   1.566   0.165   4.633
 2721SOL    HW210914   1.582   0.172   4.727
 2721SOL    HW310915   1.506   0.238   4.614
 2721SOL    MW410916   1.560   0.176   4.643
 2722SOL     OW10917   1.612   1.213   4.479
 2722SOL    HW210918   1.553   1.156   4.528
 2722SOL    HW310919   1.699   1.196   4.516
 2722SOL    MW410920   1.616   1.204   4.490
 2723SOL     OW10921   1.318   1.515   4.501
 2723SOL    HW210922   1.414   1.516   4.504
 2723SOL    HW310923   1.297   1.536   4.410
 2723SOL    MW410924   1.328   1.518   4.490
 2724SOL     OW10925   1.339   2.697   4.785
 2724SOL    HW210926   1.398   2.767   4.755
 2724SOL    HW310927   1.253   2.722   4.751
 2724SOL    MW410928   1.336   2.710   4.776
 2725SOL     OW10929   2.285   2.612   4.306
 2725SOL    HW210930   2.240   2.566   4.235
 2725SOL    HW310931   2.226   2.683   4.330
 2725SOL    MW410932   2.272   2.616   4.300
 2726SOL     OW10933   0.879   2.304   4.506
 2726SOL    HW210934   0.970   2.319   4.529
 2726SOL    HW310935   0.868   2.348   4.422
 2726SOL    MW410936   0.890   2.312   4.498
 2727SOL     OW10937   1.586   3.699   4.479
 2727SOL    HW210938   1.646   3.645   4.530
 2727SOL    HW310939   1.499   3.677   4.512
 2727SOL    MW410940   1.582   3.689   4.490
 2728SOL     OW10941   1.318   2.407   4.230
 2728SOL    HW210942   1.309   2.496   4.196
 2728SOL    HW310943   1.401   2.375   4.194
 2728SOL    MW410944   1.328   2.414   4.221
 2729SOL     OW10945   1.338   2.478   4.509
 2729SOL    HW210946   1.333   2.445   4.419
 2729SOL    HW310947   1.406   2.425   4.550
 2729SOL    MW410948   1.346   2.467   4.503
 2730SOL     OW10949   1.301   3.140   4.587
 2730SOL    HW210950   1.328   3.048   4.587
 2730SOL    HW310951   1.328   3.172   4.501
 2730SOL    MW410952   1.308   3.132   4.576
 2731SOL     OW10953   1.047   3.023   4.623
 2731SOL    HW210954   1.131   3.069   4.620
 2731SOL    HW310955   0.988   3.077   4.571
 2731SOL    MW410956   1.051   3.036   4.616
 2732SOL     OW10957   0.622   3.873   4.536
 2732SOL    HW210958   0.527   3.886   4.538
 2732SOL    HW310959   0.658   3.961   4.532
 2732SOL    MW410960   0.614   3.886   4.535
 2733SOL     OW10961   2.287   3.348   4.619
 2733SOL    HW210962   2.311   3.261   4.586
 2733SOL    HW310963   2.192   3.345   4.630
 2733SOL    MW410964   2.278   3.336   4.616
 2734SOL     OW10965   1.992   3.398   4.548
 2734SOL    HW210966   1.985   3.323   4.607
 2734SOL    HW310967   1.997   3.359   4.461
 2734SOL    MW410968   1.992   3.383   4.544
 2735SOL     OW10969   2.389   3.122   4.516
 2735SOL    HW210970   2.334   3.043   4.518
 2735SOL    HW310971   2.444   3.114   4.594
 2735SOL    MW410972   2.389   3.110   4.527
 2736SOL     OW10973   1.005   3.484   4.536
 2736SOL    HW210974   1.047   3.522   4.459
 2736SOL    HW310975   1.076   3.472   4.599
 2736SOL    MW410976   1.020   3.488   4.534
 2737SOL     OW10977   1.831   4.066   4.525
 2737SOL    HW210978   1.838   4.049   4.431
 2737SOL    HW310979   1.830   3.980   4.565
 2737SOL    MW410980   1.832   4.053   4.517
 2738SOL     OW10981   1.958   0.368   4.519
 2738SOL    HW210982   1.915   0.287   4.491
 2738SOL    HW310983   2.046   0.340   4.544
 2738SOL    MW410984   1.964   0.353   4.519
 2739SOL     OW10985   1.070   0.165   4.517
 2739SOL    HW210986   0.988   0.162   4.565
 2739SOL    HW310987   1.107   0.077   4.526
 2739SOL    MW410988   1.064   0.153   4.524
 2740SOL     OW10989   1.325   0.294   4.511
 2740SOL    HW210990   1.323   0.388   4.527
 2740SOL    HW310991   1.235   0.265   4.528
 2740SOL    MW410992   1.313   0.303   4.516
 2741SOL     OW10993   2.341   0.112   4.773
 2741SOL    HW210994   2.346   0.184   4.836
 2741SOL    HW310995   2.283   0.145   4.704
 2741SOL    MW410996   2.334   0.126   4.772
 2742SOL     OW10997   1.855   0.792   4.500
 2742SOL    HW210998   1.803   0.840   4.564
 2742SOL    HW310999   1.827   0.827   4.415
 2742SOL    MW411000   1.845   0.803   4.497
 2743SOL     OW11001   1.466   0.553   4.504
 2743SOL    HW211002   1.438   0.637   4.540
 2743SOL    HW311003   1.559   0.548   4.523
 2743SOL    MW411004   1.474   0.563   4.511
 2744SOL     OW11005   1.986   1.722   4.496
 2744SOL    HW211006   2.073   1.756   4.517
 2744SOL    HW311007   1.972   1.650   4.558
 2744SOL    MW411008   1.996   1.717   4.507
 2745SOL     OW11009   0.761   1.846   4.584
 2745SOL    HW211010   0.807   1.869   4.665
 2745SOL    HW311011   0.679   1.806   4.614
 2745SOL    MW411012   0.756   1.843   4.599
 2746SOL     OW11013   1.627   1.488   4.513
 2746SOL    HW211014   1.627   1.393   4.516
 2746SOL    HW311015   1.705   1.514   4.562
 2746SOL    MW411016   1.637   1.479   4.520
 2747SOL     OW11017   1.163   2.124   4.668
 2747SOL    HW211018   1.252   2.119   4.701
 2747SOL    HW311019   1.139   2.217   4.677
 2747SOL    MW411020   1.171   2.136   4.674
 2748SOL     OW11021   1.494   1.966   4.444
 2748SOL    HW211022   1.508   2.005   4.357
 2748SOL    HW311023   1.558   1.895   4.448
 2748SOL    MW411024   1.505   1.962   4.433
 2749SOL     OW11025   2.126   2.458   4.127
 2749SOL    HW211026   2.101   2.411   4.047
 2749SOL    HW311027   2.097   2.402   4.199
 2749SOL    MW411028   2.119   2.444   4.126
 2750SOL     OW11029   1.461   2.095   4.702
 2750SOL    HW211030   1.481   2.036   4.629
 2750SOL    HW311031   1.473   2.183   4.666
 2750SOL    MW411032   1.465   2.099   4.688
 2751SOL     OW11033   3.052   3.175   4.732
 2751SOL    HW211034   3.134   3.167   4.781
 2751SOL    HW311035   3.042   3.091   4.687
 2751SOL    MW411036   3.061   3.163   4.732
 2752SOL     OW11037   1.686   3.094   4.594
 2752SOL    HW211038   1.710   3.061   4.507
 2752SOL    HW311039   1.764   3.140   4.624
 2752SOL    MW411040   1.699   3.096   4.586
 2753SOL     OW11041   1.870   3.800   4.614
 2753SOL    HW211042   1.826   3.720   4.644
 2753SOL    HW311043   1.952   3.768   4.575
 2753SOL    MW411044   1.875   3.785   4.613
 2754SOL     OW11045   2.593   2.791   4.705
 2754SOL    HW211046   2.510   2.743   4.698
 2754SOL    HW311047   2.660   2.723   4.705
 2754SOL    MW411048   2.591   2.776   4.704
 2755SOL     OW11049   2.261   2.718   4.930
 2755SOL    HW211050   2.211   2.713   5.012
 2755SOL    HW311051   2.271   2.811   4.913
 2755SOL    MW411052   2.256   2.729   4.939
 2756SOL     OW11053   2.761   3.921   4.541
 2756SOL    HW211054   2.749   3.955   4.452
 2756SOL    HW311055   2.676   3.884   4.565
 2756SOL    MW411056   2.748   3.920   4.532
 2757SOL     OW11057   2.504   3.822   4.626
 2757SOL    HW211058   2.486   3.732   4.601
 2757SOL    HW311059   2.433   3.873   4.587
 2757SOL    MW411060   2.492   3.817   4.618
 2758SOL     OW11061   2.483   3.533   4.547
 2758SOL    HW211062   2.413   3.471   4.566
 2758SOL    HW311063   2.475   3.550   4.453
 2758SOL    MW411064   2.473   3.527   4.537
 2759SOL     OW11065   2.112   3.700   4.494
 2759SOL    HW211066   2.146   3.627   4.546
 2759SOL    HW311067   2.072   3.659   4.418
 2759SOL    MW411068   2.112   3.685   4.491
 2760SOL     OW11069   2.009   4.317   4.467
 2760SOL    HW211070   1.952   4.253   4.509
 2760SOL    HW311071   2.094   4.307   4.510
 2760SOL    MW411072   2.013   4.308   4.478
 2761SOL     OW11073   1.319   3.611   4.534
 2761SOL    HW211074   1.293   3.537   4.589
 2761SOL    HW311075   1.279   3.592   4.448
 2761SOL    MW411076   1.310   3.599   4.530
 2762SOL     OW11077   2.200   0.234   4.556
 2762SOL    HW211078   2.202   0.177   4.479
 2762SOL    HW311079   2.276   0.292   4.545
 2762SOL    MW411080   2.210   0.234   4.545
 2763SOL     OW11081   2.379   0.761   4.563
 2763SOL    HW211082   2.394   0.794   4.652
 2763SOL    HW311083   2.288   0.785   4.544
 2763SOL    MW411084   2.369   0.768   4.572
 2764SOL     OW11085   1.918   1.455   4.678
 2764SOL    HW211086   1.948   1.445   4.768
 2764SOL    HW311087   1.898   1.366   4.649
 2764SOL    MW411088   1.919   1.442   4.686
 2765SOL     OW11089   2.651   4.597   4.502
 2765SOL    HW211090   2.598   4.519   4.489
 2765SOL    HW311091   2.635   4.650   4.424
 2765SOL    MW411092   2.642   4.594   4.490
 2766SOL     OW11093   2.868   0.738   4.340
 2766SOL    HW211094   2.912   0.738   4.426
 2766SOL    HW311095   2.934   0.772   4.280
 2766SOL    MW411096   2.883   0.742   4.344
 2767SOL     OW11097   3.199   1.136   4.316
 2767SOL    HW211098   3.174   1.133   4.408
 2767SOL    HW311099   3.229   1.226   4.303
 2767SOL    MW411100   3.200   1.148   4.326
 2768SOL     OW11101   2.144   0.879   4.468
 2768SOL    HW211102   2.153   0.971   4.491
 2768SOL    HW311103   2.051   0.860   4.479
 2768SOL    MW411104   2.133   0.889   4.472
 2769SOL     OW11105   2.561   1.381   4.500
 2769SOL    HW211106   2.564   1.472   4.530
 2769SOL    HW311107   2.647   1.346   4.524
 2769SOL    MW411108   2.573   1.388   4.507
 2770SOL     OW11109   2.517   1.651   4.602
 2770SOL    HW211110   2.593   1.690   4.559
 2770SOL    HW311111   2.535   1.661   4.696
 2770SOL    MW411112   2.529   1.658   4.609
 2771SOL     OW11113   2.268   1.790   4.548
 2771SOL    HW211114   2.342   1.744   4.586
 2771SOL    HW311115   2.266   1.760   4.457
 2771SOL    MW411116   2.277   1.780   4.541
 2772SOL     OW11117   2.241   2.268   4.704
 2772SOL    HW211118   2.276   2.340   4.651
 2772SOL    HW311119   2.292   2.272   4.785
 2772SOL    MW411120   2.252   2.278   4.708
 2773SOL     OW11121   2.358   2.054   4.552
 2773SOL    HW211122   2.323   1.968   4.528
 2773SOL    HW311123   2.293   2.090   4.612
 2773SOL    MW411124   2.345   2.047   4.557
 2774SOL     OW11125   2.613   2.422   4.436
 2774SOL    HW211126   2.526   2.419   4.475
 2774SOL    HW311127   2.599   2.397   4.344
 2774SOL    MW411128   2.600   2.418   4.429
 2775SOL     OW11129   1.533   2.695   4.427
 2775SOL    HW211130   1.603   2.637   4.397
 2775SOL    HW311131   1.470   2.636   4.470
 2775SOL    MW411132   1.534   2.679   4.429
 2776SOL     OW11133   2.262   2.975   4.789
 2776SOL    HW211134   2.346   3.020   4.793
 2776SOL    HW311135   2.256   2.943   4.699
 2776SOL    MW411136   2.272   2.977   4.778
 2777SOL     OW11137   2.720   3.403   4.583
 2777SOL    HW211138   2.730   3.344   4.658
 2777SOL    HW311139   2.640   3.452   4.602
 2777SOL    MW411140   2.711   3.402   4.595
 2778SOL     OW11141   2.534   3.075   4.729
 2778SOL    HW211142   2.607   3.136   4.746
 2778SOL    HW311143   2.575   2.989   4.725
 2778SOL    MW411144   2.549   3.072   4.731
 2779SOL     OW11145   1.559   3.993   4.502
 2779SOL    HW211146   1.578   3.899   4.503
 2779SOL    HW311147   1.645   4.034   4.493
 2779SOL    MW411148   1.573   3.986   4.501
 2780SOL     OW11149   2.895   4.350   4.450
 2780SOL    HW211150   2.829   4.298   4.496
 2780SOL    HW311151   2.890   4.437   4.491
 2780SOL    MW411152   2.886   4.355   4.462
 2781SOL     OW11153   2.018   3.147   4.675
 2781SOL    HW211154   2.042   3.103   4.594
 2781SOL    HW311155   2.059   3.095   4.744
 2781SOL    MW411156   2.027   3.135   4.674
 2782SOL     OW11157   3.291   3.859   4.504
 2782SOL    HW211158   3.211   3.907   4.528
 2782SOL    HW311159   3.270   3.767   4.523
 2782SOL    MW411160   3.277   3.853   4.510
 2783SOL     OW11161   3.051   3.992   4.555
 2783SOL    HW211162   2.958   3.980   4.573
 2783SOL    HW311163   3.074   4.072   4.602
 2783SOL    MW411164   3.042   4.001   4.564
 2784SOL     OW11165   2.263   4.201   4.610
 2784SOL    HW211166   2.272   4.108   4.591
 2784SOL    HW311167   2.263   4.207   4.705
 2784SOL    MW411168   2.264   4.190   4.620
 2785SOL     OW11169   2.500   4.332   4.487
 2785SOL    HW211170   2.421   4.296   4.527
 2785SOL    HW311171   2.474   4.354   4.397
 2785SOL    MW411172   2.486   4.331   4.480
 2786SOL     OW11173   2.868   0.436   4.358
 2786SOL    HW211174   2.827   0.410   4.275
 2786SOL    HW311175   2.874   0.532   4.353
 2786SOL    MW411176   2.863   0.445   4.346
 2787SOL     OW11177   2.977   4.605   4.931
 2787SOL    HW211178   2.966   4.511   4.916
 2787SOL    HW311179   2.999   4.612   5.024
 2787SOL    MW411180   2.979   4.593   4.941
 2788SOL     OW11181   2.729   4.193   4.597
 2788SOL    HW211182   2.647   4.218   4.554
 2788SOL    HW311183   2.732   4.097   4.590
 2788SOL    MW411184   2.718   4.183   4.591
 2789SOL     OW11185   2.822   1.004   4.646
 2789SOL    HW211186   2.874   0.923   4.641
 2789SOL    HW311187   2.734   0.977   4.621
 2789SOL    MW411188   2.817   0.990   4.642
 2790SOL     OW11189   2.927   0.258   4.772
 2790SOL    HW211190   2.870   0.183   4.755
 2790SOL    HW311191   2.959   0.283   4.685
 2790SOL    MW411192   2.924   0.251   4.758
 2791SOL     OW11193   1.731   0.553   4.552
 2791SOL    HW211194   1.808   0.496   4.557
 2791SOL    HW311195   1.766   0.640   4.533
 2791SOL    MW411196   1.746   0.557   4.550
 2792SOL     OW11197   2.581   0.939   4.499
 2792SOL    HW211198   2.523   0.865   4.516
 2792SOL    HW311199   2.591   0.941   4.404
 2792SOL    MW411200   2.574   0.930   4.489
 2793SOL     OW11201   3.026   1.464   4.523
 2793SOL    HW211202   2.941   1.421   4.511
 2793SOL    HW311203   3.078   1.435   4.448
 2793SOL    MW411204   3.022   1.454   4.511
 2794SOL     OW11205   3.053   1.742   4.546
 2794SOL    HW211206   2.963   1.771   4.554
 2794SOL    HW311207   3.049   1.646   4.553
 2794SOL    MW411208   3.041   1.733   4.548
 2795SOL     OW11209   2.750   1.766   4.508
 2795SOL    HW211210   2.722   1.856   4.522
 2795SOL    HW311211   2.727   1.747   4.417
 2795SOL    MW411212   2.743   1.775   4.498
 2796SOL     OW11213   2.635   2.015   4.566
 2796SOL    HW211214   2.689   2.094   4.556
 2796SOL    HW311215   2.546   2.048   4.581
 2796SOL    MW411216   2.630   2.030   4.567
 2797SOL     OW11217   2.805   2.232   4.509
 2797SOL    HW211218   2.742   2.301   4.489
 2797SOL    HW311219   2.812   2.182   4.428
 2797SOL    MW411220   2.798   2.235   4.496
 2798SOL     OW11221   3.076   2.327   4.498
 2798SOL    HW211222   2.982   2.309   4.503
 2798SOL    HW311223   3.088   2.368   4.412
 2798SOL    MW411224   3.065   2.330   4.487
 2799SOL     OW11225   2.340   2.677   4.672
 2799SOL    HW211226   2.300   2.698   4.756
 2799SOL    HW311227   2.302   2.738   4.610
 2799SOL    MW411228   2.330   2.688   4.675
 2800SOL     OW11229   3.554   3.318   4.544
 2800SOL    HW211230   3.462   3.330   4.568
 2800SOL    HW311231   3.553   3.305   4.449
 2800SOL    MW411232   3.542   3.318   4.535
 2801SOL     OW11233   2.726   2.682   4.420
 2801SOL    HW211234   2.692   2.593   4.434
 2801SOL    HW311235   2.651   2.738   4.438
 2801SOL    MW411236   2.712   2.677   4.425
 2802SOL     OW11237   2.788   3.190   4.790
 2802SOL    HW211238   2.883   3.193   4.782
 2802SOL    HW311239   2.771   3.186   4.884
 2802SOL    MW411240   2.798   3.190   4.801
 2803SOL     OW11241   3.082   2.934   4.572
 2803SOL    HW211242   3.172   2.910   4.597
 2803SOL    HW311243   3.034   2.852   4.571
 2803SOL    MW411244   3.088   2.920   4.575
 2804SOL     OW11245   2.636   0.441   4.564
 2804SOL    HW211246   2.710   0.439   4.503
 2804SOL    HW311247   2.619   0.348   4.583
 2804SOL    MW411248   2.644   0.428   4.558
 2805SOL     OW11249   3.693   4.001   4.834
 2805SOL    HW211250   3.638   3.970   4.906
 2805SOL    HW311251   3.658   4.086   4.811
 2805SOL    MW411252   3.681   4.008   4.841
 2806SOL     OW11253   3.911   3.776   4.488
 2806SOL    HW211254   3.963   3.700   4.515
 2806SOL    HW311255   3.866   3.748   4.409
 2806SOL    MW411256   3.912   3.763   4.481
 2807SOL     OW11257   2.887   3.627   4.496
 2807SOL    HW211258   2.821   3.565   4.526
 2807SOL    HW311259   2.876   3.704   4.551
 2807SOL    MW411260   2.877   3.629   4.507
 2808SOL     OW11261   3.111   4.247   4.644
 2808SOL    HW211262   3.059   4.270   4.567
 2808SOL    HW311263   3.199   4.277   4.624
 2808SOL    MW411264   3.116   4.254   4.631
 2809SOL     OW11265   3.059   0.304   4.528
 2809SOL    HW211266   3.013   0.358   4.464
 2809SOL    HW311267   3.074   0.221   4.483
 2809SOL    MW411268   3.055   0.300   4.514
 2810SOL     OW11269   2.967   0.775   4.619
 2810SOL    HW211270   3.062   0.774   4.631
 2810SOL    HW311271   2.934   0.707   4.677
 2810SOL    MW411272   2.975   0.766   4.628
 2811SOL     OW11273   2.365   0.483   4.508
 2811SOL    HW211274   2.456   0.468   4.533
 2811SOL    HW311275   2.353   0.577   4.515
 2811SOL    MW411276   2.375   0.493   4.512
 2812SOL     OW11277   2.402   1.161   4.568
 2812SOL    HW211278   2.453   1.086   4.536
 2812SOL    HW311279   2.463   1.235   4.561
 2812SOL    MW411280   2.417   1.161   4.563
 2813SOL     OW11281   2.917   4.367   4.798
 2813SOL    HW211282   2.848   4.313   4.759
 2813SOL    HW311283   2.999   4.327   4.768
 2813SOL    MW411284   2.919   4.355   4.789
 2814SOL     OW11285   2.930   4.593   4.608
 2814SOL    HW211286   2.835   4.596   4.592
 2814SOL    HW311287   2.938   4.557   4.696
 2814SOL    MW411288   2.918   4.588   4.617
 2815SOL     OW11289   3.202   1.332   4.691
 2815SOL    HW211290   3.181   1.247   4.654
 2815SOL    HW311291   3.136   1.391   4.655
 2815SOL    MW411292   3.191   1.329   4.681
 2816SOL     OW11293   2.816   1.263   4.542
 2816SOL    HW211294   2.825   1.179   4.587
 2816SOL    HW311295   2.832   1.242   4.450
 2816SOL    MW411296   2.820   1.249   4.536
 2817SOL     OW11297   4.061   0.966   4.490
 2817SOL    HW211298   4.088   0.939   4.403
 2817SOL    HW311299   4.101   0.902   4.549
 2817SOL    MW411300   4.070   0.954   4.486
 2818SOL     OW11301   3.433   1.402   4.572
 2818SOL    HW211302   3.460   1.492   4.587
 2818SOL    HW311303   3.357   1.389   4.629
 2818SOL    MW411304   3.427   1.412   4.581
 2819SOL     OW11305   3.353   1.849   4.564
 2819SOL    HW211306   3.354   1.937   4.600
 2819SOL    HW311307   3.260   1.828   4.554
 2819SOL    MW411308   3.341   1.858   4.568
 2820SOL     OW11309   3.306   2.162   4.502
 2820SOL    HW211310   3.223   2.207   4.492
 2820SOL    HW311311   3.330   2.134   4.414
 2820SOL    MW411312   3.299   2.164   4.489
 2821SOL     OW11313   3.534   1.663   4.542
 2821SOL    HW211314   3.471   1.732   4.563
 2821SOL    HW311315   3.551   1.673   4.448
 2821SOL    MW411316   3.528   1.673   4.532
 2822SOL     OW11317   2.930   2.715   4.606
 2822SOL    HW211318   2.863   2.704   4.538
 2822SOL    HW311319   2.991   2.644   4.592
 2822SOL    MW411320   2.929   2.704   4.595
 2823SOL     OW11321   3.380   2.674   4.496
 2823SOL    HW211322   3.303   2.624   4.525
 2823SOL    HW311323   3.355   2.709   4.411
 2823SOL    MW411324   3.366   2.672   4.489
 2824SOL     OW11325   3.165   2.558   4.609
 2824SOL    HW211326   3.150   2.470   4.574
 2824SOL    HW311327   3.195   2.543   4.699
 2824SOL    MW411328   3.167   2.544   4.616
 2825SOL     OW11329   3.812   2.981   4.606
 2825SOL    HW211330   3.886   3.041   4.602
 2825SOL    HW311331   3.844   2.899   4.567
 2825SOL    MW411332   3.826   2.978   4.600
 2826SOL     OW11333   3.284   3.149   4.862
 2826SOL    HW211334   3.349   3.218   4.872
 2826SOL    HW311335   3.328   3.081   4.811
 2826SOL    MW411336   3.298   3.149   4.857
 2827SOL     OW11337   3.546   3.050   4.632
 2827SOL    HW211338   3.531   3.133   4.587
 2827SOL    HW311339   3.641   3.038   4.631
 2827SOL    MW411340   3.556   3.059   4.626
 2828SOL     OW11341   3.919   2.749   4.478
 2828SOL    HW211342   3.915   2.668   4.528
 2828SOL    HW311343   4.012   2.772   4.477
 2828SOL    MW411344   3.931   2.741   4.484
 2829SOL     OW11345   3.748   3.491   4.712
 2829SOL    HW211346   3.699   3.436   4.651
 2829SOL    HW311347   3.733   3.581   4.682
 2829SOL    MW411348   3.740   3.496   4.700
 2830SOL     OW11349   3.565   4.234   4.681
 2830SOL    HW211350   3.637   4.287   4.646
 2830SOL    HW311351   3.566   4.154   4.628
 2830SOL    MW411352   3.575   4.231   4.670
 2831SOL     OW11353   3.109   0.045   4.443
 2831SOL    HW211354   3.031   0.012   4.487
 2831SOL    HW311355   3.182   0.014   4.497
 2831SOL    MW411356   3.108   0.037   4.456
 2832SOL     OW11357   3.184   0.079   4.820
 2832SOL    HW211358   3.129   0.015   4.867
 2832SOL    HW311359   3.136   0.161   4.828
 2832SOL    MW411360   3.170   0.081   4.828
 2833SOL     OW11361   3.350   4.342   4.525
 2833SOL    HW211362   3.415   4.307   4.586
 2833SOL    HW311363   3.362   4.437   4.530
 2833SOL    MW411364   3.360   4.350   4.534
 2834SOL     OW11365   3.544   3.989   4.540
 2834SOL    HW211366   3.596   3.913   4.567
 2834SOL    HW311367   3.453   3.959   4.546
 2834SOL    MW411368   3.539   3.975   4.545
 2835SOL     OW11369   3.389   4.637   4.496
 2835SOL    HW211370   3.413   4.722   4.533
 2835SOL    HW311371   3.445   4.628   4.419
 2835SOL    MW411372   3.400   4.647   4.491
 2836SOL     OW11373   3.352   0.977   4.725
 2836SOL    HW211374   3.437   1.000   4.686
 2836SOL    HW311375   3.368   0.982   4.820
 2836SOL    MW411376   3.366   0.981   4.733
 2837SOL     OW11377   2.566   0.176   4.619
 2837SOL    HW211378   2.608   0.094   4.596
 2837SOL    HW311379   2.492   0.151   4.674
 2837SOL    MW411380   2.561   0.162   4.623
 2838SOL     OW11381   3.933   1.616   4.763
 2838SOL    HW211382   4.028   1.616   4.752
 2838SOL    HW311383   3.903   1.536   4.720
 2838SOL    MW411384   3.941   1.606   4.756
 2839SOL     OW11385   3.802   0.891   4.496
 2839SOL    HW211386   3.781   0.814   4.443
 2839SOL    HW311387   3.891   0.915   4.470
 2839SOL    MW411388   3.811   0.884   4.485
 2840SOL     OW11389   4.439   0.933   4.506
 2840SOL    HW211390   4.447   0.916   4.412
 2840SOL    HW311391   4.525   0.910   4.542
 2840SOL    MW411392   4.452   0.928   4.499
 2841SOL     OW11393   4.187   0.547   4.539
 2841SOL    HW211394   4.224   0.537   4.452
 2841SOL    HW311395   4.107   0.494   4.537
 2841SOL    MW411396   4.181   0.539   4.528
 2842SOL     OW11397   3.590   1.697   4.284
 2842SOL    HW211398   3.649   1.651   4.223
 2842SOL    HW311399   3.503   1.684   4.247
 2842SOL    MW411400   3.586   1.689   4.271
 2843SOL     OW11401   3.967   1.678   4.397
 2843SOL    HW211402   4.052   1.695   4.438
 2843SOL    HW311403   3.904   1.725   4.453
 2843SOL    MW411404   3.970   1.687   4.410
 2844SOL     OW11405   3.565   2.268   4.571
 2844SOL    HW211406   3.482   2.221   4.578
 2844SOL    HW311407   3.632   2.201   4.587
 2844SOL    MW411408   3.563   2.253   4.574
 2845SOL     OW11409   3.785   1.785   4.592
 2845SOL    HW211410   3.699   1.744   4.591
 2845SOL    HW311411   3.832   1.740   4.662
 2845SOL    MW411412   3.780   1.774   4.601
 2846SOL     OW11413   0.366   1.922   4.818
 2846SOL    HW211414   0.356   1.988   4.886
 2846SOL    HW311415   0.392   1.970   4.740
 2846SOL    MW411416   0.368   1.937   4.817
 2847SOL     OW11417   3.822   2.072   4.568
 2847SOL    HW211418   3.917   2.080   4.571
 2847SOL    HW311419   3.804   1.980   4.587
 2847SOL    MW411420   3.832   2.061   4.571
 2848SOL     OW11421   3.882   2.452   4.551
 2848SOL    HW211422   3.870   2.365   4.589
 2848SOL    HW311423   3.793   2.485   4.539
 2848SOL    MW411424   3.869   2.445   4.555
 2849SOL     OW11425   4.159   2.457   4.491
 2849SOL    HW211426   4.073   2.465   4.532
 2849SOL    HW311427   4.196   2.545   4.494
 2849SOL    MW411428   4.153   2.470   4.497
 2850SOL     OW11429   4.326   3.072   4.568
 2850SOL    HW211430   4.371   2.988   4.556
 2850SOL    HW311431   4.396   3.137   4.568
 2850SOL    MW411432   4.341   3.070   4.566
 2851SOL     OW11433   3.247   3.310   4.570
 2851SOL    HW211434   3.223   3.293   4.479
 2851SOL    HW311435   3.185   3.259   4.621
 2851SOL    MW411436   3.236   3.301   4.565
 2852SOL     OW11437   4.042   3.129   4.548
 2852SOL    HW211438   4.119   3.079   4.523
 2852SOL    HW311439   4.017   3.177   4.469
 2852SOL    MW411440   4.048   3.129   4.534
 2853SOL     OW11441   3.170   3.599   4.510
 2853SOL    HW211442   3.075   3.593   4.498
 2853SOL    HW311443   3.194   3.517   4.554
 2853SOL    MW411444   3.160   3.587   4.514
 2854SOL     OW11445   4.244   3.405   4.413
 2854SOL    HW211446   4.272   3.450   4.333
 2854SOL    HW311447   4.177   3.344   4.384
 2854SOL    MW411448   4.239   3.403   4.399
 2855SOL     OW11449   0.227   2.709   4.451
 2855SOL    HW211450   0.222   2.770   4.378
 2855SOL    HW311451   0.257   2.763   4.525
 2855SOL    MW411452   0.231   2.724   4.451
 2856SOL     OW11453   4.108   3.987   4.452
 2856SOL    HW211454   4.090   4.079   4.472
 2856SOL    HW311455   4.026   3.942   4.472
 2856SOL    MW411456   4.095   3.993   4.457
 2857SOL     OW11457   3.771   4.362   4.546
 2857SOL    HW211458   3.757   4.362   4.451
 2857SOL    HW311459   3.764   4.455   4.571
 2857SOL    MW411460   3.768   4.375   4.537
 2858SOL     OW11461   3.410   0.215   4.668
 2858SOL    HW211462   3.344   0.174   4.724
 2858SOL    HW311463   3.379   0.305   4.656
 2858SOL    MW411464   3.397   0.221   4.674
 2859SOL     OW11465   3.599   1.057   4.553
 2859SOL    HW211466   3.641   1.141   4.536
 2859SOL    HW311467   3.663   0.992   4.526
 2859SOL    MW411468   3.613   1.060   4.547
 2860SOL     OW11469   3.272   0.732   4.598
 2860SOL    HW211470   3.296   0.641   4.613
 2860SOL    HW311471   3.327   0.782   4.659
 2860SOL    MW411472   3.282   0.727   4.608
 2861SOL     OW11473   4.407   0.348   4.489
 2861SOL    HW211474   4.476   0.413   4.476
 2861SOL    HW311475   4.335   0.397   4.530
 2861SOL    MW411476   4.406   0.363   4.492
 2862SOL     OW11477   0.115   0.536   4.484
 2862SOL    HW211478   0.172   0.479   4.535
 2862SOL    HW311479   0.141   0.522   4.393
 2862SOL    MW411480   0.126   0.527   4.478
 2863SOL     OW11481   3.908   0.463   4.556
 2863SOL    HW211482   3.914   0.547   4.603
 2863SOL    HW311483   3.871   0.402   4.620
 2863SOL    MW411484   3.904   0.466   4.571
 2864SOL     OW11485   3.700   1.316   4.505
 2864SOL    HW211486   3.639   1.346   4.572
 2864SOL    HW311487   3.784   1.355   4.530
 2864SOL    MW411488   3.703   1.325   4.517
 2865SOL     OW11489   4.489   1.196   4.556
 2865SOL    HW211490   4.584   1.198   4.571
 2865SOL    HW311491   4.468   1.104   4.541
 2865SOL    MW411492   4.499   1.184   4.556
 2866SOL     OW11493   4.366   1.453   4.541
 2866SOL    HW211494   4.435   1.516   4.561
 2866SOL    HW311495   4.410   1.368   4.538
 2866SOL    MW411496   4.381   1.450   4.544
 2867SOL     OW11497   3.940   1.431   4.544
 2867SOL    HW211498   4.005   1.373   4.504
 2867SOL    HW311499   3.944   1.511   4.492
 2867SOL    MW411500   3.949   1.434   4.532
 2868SOL     OW11501   3.328   2.885   4.681
 2868SOL    HW211502   3.338   2.802   4.635
 2868SOL    HW311503   3.406   2.936   4.656
 2868SOL    MW411504   3.340   2.881   4.672
 2869SOL     OW11505   4.235   2.103   4.252
 2869SOL    HW211506   4.152   2.055   4.257
 2869SOL    HW311507   4.247   2.138   4.340
 2869SOL    MW411508   4.226   2.101   4.264
 2870SOL     OW11509   0.166   2.094   4.508
 2870SOL    HW211510   0.258   2.090   4.536
 2870SOL    HW311511   0.148   2.187   4.496
 2870SOL    MW411512   0.176   2.105   4.510
 2871SOL     OW11513   4.092   2.033   4.545
 2871SOL    HW211514   4.126   1.945   4.529
 2871SOL    HW311515   4.169   2.090   4.541
 2871SOL    MW411516   4.107   2.029   4.542
 2872SOL     OW11517   3.615   2.527   4.511
 2872SOL    HW211518   3.539   2.580   4.536
 2872SOL    HW311519   3.594   2.439   4.541
 2872SOL    MW411520   3.603   2.523   4.518
 2873SOL     OW11521   0.444   2.369   4.722
 2873SOL    HW211522   0.406   2.410   4.644
 2873SOL    HW311523   0.401   2.415   4.795
 2873SOL    MW411524   0.433   2.381   4.721
 2874SOL     OW11525   4.193   2.738   4.462
 2874SOL    HW211526   4.276   2.757   4.505
 2874SOL    HW311527   4.197   2.785   4.379
 2874SOL    MW411528   4.205   2.746   4.457
 2875SOL     OW11529   4.440   2.767   4.596
 2875SOL    HW211530   4.514   2.747   4.539
 2875SOL    HW311531   4.472   2.747   4.684
 2875SOL    MW411532   4.454   2.762   4.600
 2876SOL     OW11533   0.075   3.596   4.382
 2876SOL    HW211534   0.121   3.604   4.298
 2876SOL    HW311535   0.107   3.513   4.419
 2876SOL    MW411536   0.086   3.586   4.376
 2877SOL     OW11537   3.766   4.636   4.529
 2877SOL    HW211538   3.713   4.620   4.450
 2877SOL    HW311539   3.744   4.725   4.555
 2877SOL    MW411540   3.756   4.646   4.522
 2878SOL     OW11541   3.700   0.234   4.563
 2878SOL    HW211542   3.623   0.245   4.618
 2878SOL    HW311543   3.700   0.312   4.507
 2878SOL    MW411544   3.690   0.246   4.563
 2879SOL     OW11545   4.085   3.579   4.566
 2879SOL    HW211546   4.072   3.535   4.650
 2879SOL    HW311547   4.139   3.518   4.515
 2879SOL    MW411548   4.090   3.565   4.570
 2880SOL     OW11549   2.833   0.544   4.715
 2880SOL    HW211550   2.754   0.527   4.664
 2880SOL    HW311551   2.858   0.458   4.749
 2880SOL    MW411552   2.825   0.530   4.713
 2881SOL     OW11553   4.215   4.368   4.202
 2881SOL    HW211554   4.271   4.292   4.185
 2881SOL    HW311555   4.224   4.384   4.296
 2881SOL    MW411556   4.224   4.360   4.212
 2882NA      NA11557   2.729   4.248   0.690
 2883NA      NA11558   0.775   2.087   0.285
   4.49070   4.66690  10.00000
