Gromacs Runs On Most of All Computer Systems in water t= 660.00000 step= 660000
11558
    1RG35     P    1   2.091   2.902   4.474
    1RG35   O1P    2   2.106   2.823   4.350
    1RG35   O2P    3   2.012   3.024   4.468
    1RG35   O5'    4   2.013   2.800   4.566
    1RG35   C5'    5   1.874   2.818   4.592
    1RG35  H5'1    6   1.824   2.838   4.498
    1RG35  H5'2    7   1.863   2.903   4.660
    1RG35   C4'    8   1.808   2.692   4.658
    1RG35   H4'    9   1.708   2.714   4.696
    1RG35   O4'   10   1.799   2.580   4.571
    1RG35   C1'   11   1.859   2.469   4.630
    1RG35   H1'   12   1.776   2.420   4.681
    1RG35    N9   13   1.915   2.376   4.536
    1RG35    C8   14   1.999   2.410   4.436
    1RG35    H8   15   2.048   2.504   4.421
    1RG35    N7   16   2.027   2.311   4.351
    1RG35    C5   17   1.957   2.205   4.410
    1RG35    C6   18   1.955   2.069   4.366
    1RG35    O6   19   2.015   2.010   4.276
    1RG35    N1   20   1.882   1.995   4.449
    1RG35    H1   21   1.898   1.895   4.442
    1RG35    C2   22   1.806   2.047   4.553
    1RG35    N2   23   1.754   1.964   4.636
    1RG35   H21   24   1.742   1.865   4.617
    1RG35   H22   25   1.718   2.006   4.720
    1RG35    N3   26   1.802   2.172   4.593
    1RG35    C4   27   1.883   2.244   4.516
    1RG35   C3'   28   1.882   2.641   4.783
    1RG35   H3'   29   1.946   2.723   4.816
    1RG35   C2'   30   1.952   2.515   4.735
    1RG35  H2'1   31   2.046   2.541   4.687
    1RG35   O2'   32   1.977   2.419   4.836
    1RG35  HO'2   33   2.042   2.359   4.798
    1RG35   O3'   34   1.787   2.595   4.878
    1RG35   H3T   35   1.841   2.530   4.924
    1RG35   O3P   36   2.221   2.914   4.546
    2SOL     OW   37   0.492   0.056   0.413
    2SOL    HW2   38   0.512  -0.023   0.363
    2SOL    HW3   39   0.577   0.099   0.426
    2SOL    MW4   40   0.506   0.052   0.408
    3SOL     OW   41   4.053   0.106   0.466
    3SOL    HW2   42   4.146   0.093   0.447
    3SOL    HW3   43   4.038   0.200   0.452
    3SOL    MW4   44   4.063   0.117   0.462
    4SOL     OW   45   3.639   0.492   0.519
    4SOL    HW2   46   3.571   0.559   0.526
    4SOL    HW3   47   3.685   0.495   0.603
    4SOL    MW4   48   3.636   0.501   0.531
    5SOL     OW   49   0.487   1.674   0.348
    5SOL    HW2   50   0.565   1.638   0.390
    5SOL    HW3   51   0.420   1.606   0.358
    5SOL    MW4   52   0.488   1.660   0.355
    6SOL     OW   53   1.435   0.782   0.469
    6SOL    HW2   54   1.378   0.837   0.524
    6SOL    HW3   55   1.519   0.827   0.470
    6SOL    MW4   56   1.438   0.795   0.476
    7SOL     OW   57   0.208   0.512   0.418
    7SOL    HW2   58   0.200   0.504   0.513
    7SOL    HW3   59   0.243   0.428   0.389
    7SOL    MW4   60   0.211   0.500   0.426
    8SOL     OW   61   0.448   0.953   0.544
    8SOL    HW2   62   0.444   0.957   0.639
    8SOL    HW3   63   0.433   0.861   0.523
    8SOL    MW4   64   0.446   0.941   0.554
    9SOL     OW   65   0.879   0.871   0.497
    9SOL    HW2   66   0.880   0.883   0.592
    9SOL    HW3   67   0.806   0.925   0.466
    9SOL    MW4   68   0.870   0.880   0.505
   10SOL     OW   69   0.685   1.031   0.410
   10SOL    HW2   70   0.673   1.004   0.319
   10SOL    HW3   71   0.600   1.015   0.450
   10SOL    MW4   72   0.672   1.025   0.403
   11SOL     OW   73   4.285   1.499   0.353
   11SOL    HW2   74   4.225   1.564   0.390
   11SOL    HW3   75   4.283   1.516   0.259
   11SOL    MW4   76   4.277   1.510   0.345
   12SOL     OW   77   4.110   2.367   0.535
   12SOL    HW2   78   4.053   2.317   0.592
   12SOL    HW3   79   4.080   2.457   0.543
   12SOL    MW4   80   4.099   2.372   0.543
   13SOL     OW   81   0.011   1.640   0.445
   13SOL    HW2   82  -0.016   1.648   0.536
   13SOL    HW3   83  -0.060   1.591   0.403
   13SOL    MW4   84  -0.002   1.635   0.451
   14SOL     OW   85   0.646   2.303   0.403
   14SOL    HW2   86   0.679   2.312   0.492
   14SOL    HW3   87   0.710   2.350   0.349
   14SOL    MW4   88   0.659   2.311   0.408
   15SOL     OW   89   0.171   2.795   0.410
   15SOL    HW2   90   0.207   2.880   0.387
   15SOL    HW3   91   0.239   2.732   0.387
   15SOL    MW4   92   0.185   2.798   0.404
   16SOL     OW   93   4.092   3.359   0.443
   16SOL    HW2   94   4.100   3.273   0.402
   16SOL    HW3   95   4.080   3.341   0.536
   16SOL    MW4   96   4.092   3.345   0.450
   17SOL     OW   97   0.252   3.067   0.332
   17SOL    HW2   98   0.332   3.083   0.381
   17SOL    HW3   99   0.185   3.117   0.378
   17SOL    MW4  100   0.254   3.076   0.344
   18SOL     OW  101   0.652   3.268   0.398
   18SOL    HW2  102   0.747   3.273   0.407
   18SOL    HW3  103   0.621   3.358   0.415
   18SOL    MW4  104   0.660   3.281   0.402
   19SOL     OW  105   0.706   3.717   0.360
   19SOL    HW2  106   0.773   3.743   0.297
   19SOL    HW3  107   0.659   3.797   0.380
   19SOL    MW4  108   0.709   3.731   0.354
   20SOL     OW  109   4.221   3.841   0.437
   20SOL    HW2  110   4.235   3.866   0.528
   20SOL    HW3  111   4.251   3.751   0.432
   20SOL    MW4  112   4.227   3.833   0.448
   21SOL     OW  113   0.057   3.790   0.178
   21SOL    HW2  114   0.107   3.792   0.096
   21SOL    HW3  115   0.123   3.795   0.246
   21SOL    MW4  116   0.072   3.791   0.176
   22SOL     OW  117   4.464   4.486   0.434
   22SOL    HW2  118   4.418   4.412   0.393
   22SOL    HW3  119   4.428   4.490   0.522
   22SOL    MW4  120   4.453   4.477   0.440
   23SOL     OW  121   4.345   4.277   0.305
   23SOL    HW2  122   4.363   4.190   0.268
   23SOL    HW3  123   4.257   4.269   0.342
   23SOL    MW4  124   4.336   4.264   0.305
   24SOL     OW  125   4.402   4.019   0.293
   24SOL    HW2  126   4.354   3.975   0.363
   24SOL    HW3  127   4.430   3.948   0.235
   24SOL    MW4  128   4.399   4.004   0.294
   25SOL     OW  129   0.489   3.080   0.487
   25SOL    HW2  130   0.469   3.120   0.572
   25SOL    HW3  131   0.552   3.141   0.447
   25SOL    MW4  132   0.495   3.094   0.493
   26SOL     OW  133   0.518   4.426   0.365
   26SOL    HW2  134   0.553   4.437   0.453
   26SOL    HW3  135   0.428   4.395   0.379
   26SOL    MW4  136   0.511   4.423   0.378
   27SOL     OW  137   0.290   0.247   0.366
   27SOL    HW2  138   0.220   0.208   0.418
   27SOL    HW3  139   0.364   0.188   0.377
   27SOL    MW4  140   0.291   0.234   0.374
   28SOL     OW  141   4.455   0.611   0.304
   28SOL    HW2  142   4.440   0.619   0.210
   28SOL    HW3  143   4.548   0.587   0.311
   28SOL    MW4  144   4.465   0.609   0.292
   29SOL     OW  145   1.141   4.571   0.346
   29SOL    HW2  146   1.128   4.500   0.409
   29SOL    HW3  147   1.195   4.531   0.277
   29SOL    MW4  148   1.147   4.556   0.345
   30SOL     OW  149   1.146   1.000   0.468
   30SOL    HW2  150   1.057   0.970   0.484
   30SOL    HW3  151   1.187   1.002   0.555
   30SOL    MW4  152   1.140   0.996   0.482
   31SOL     OW  153   0.665   0.475   0.513
   31SOL    HW2  154   0.743   0.518   0.478
   31SOL    HW3  155   0.664   0.390   0.470
   31SOL    MW4  156   0.675   0.470   0.503
   32SOL     OW  157   0.265   1.225   0.502
   32SOL    HW2  158   0.320   1.156   0.463
   32SOL    HW3  159   0.177   1.189   0.498
   32SOL    MW4  160   0.261   1.211   0.496
   33SOL     OW  161   0.067   2.165   0.450
   33SOL    HW2  162  -0.002   2.224   0.421
   33SOL    HW3  163   0.033   2.077   0.430
   33SOL    MW4  164   0.054   2.161   0.443
   34SOL     OW  165   0.537   1.977   0.367
   34SOL    HW2  166   0.457   2.027   0.350
   34SOL    HW3  167   0.516   1.887   0.343
   34SOL    MW4  168   0.524   1.972   0.362
   35SOL     OW  169   0.717   3.040   0.217
   35SOL    HW2  170   0.782   2.993   0.270
   35SOL    HW3  171   0.708   3.125   0.260
   35SOL    MW4  172   0.725   3.045   0.230
   36SOL     OW  173   0.477   2.908   0.168
   36SOL    HW2  174   0.557   2.960   0.177
   36SOL    HW3  175   0.417   2.944   0.234
   36SOL    MW4  176   0.479   2.920   0.178
   37SOL     OW  177   3.801   2.206   0.267
   37SOL    HW2  178   3.787   2.242   0.179
   37SOL    HW3  179   3.896   2.192   0.272
   37SOL    MW4  180   3.812   2.209   0.256
   38SOL     OW  181   1.115   2.312   0.362
   38SOL    HW2  182   1.167   2.232   0.373
   38SOL    HW3  183   1.174   2.383   0.387
   38SOL    MW4  184   1.129   2.311   0.367
   39SOL     OW  185   0.381   2.385   0.448
   39SOL    HW2  186   0.377   2.464   0.395
   39SOL    HW3  187   0.467   2.346   0.428
   39SOL    MW4  188   0.392   2.390   0.439
   40SOL     OW  189   4.414   3.001   0.388
   40SOL    HW2  190   4.380   2.921   0.428
   40SOL    HW3  191   4.472   2.971   0.318
   40SOL    MW4  192   4.417   2.987   0.384
   41SOL     OW  193   0.407   2.651   0.331
   41SOL    HW2  194   0.464   2.640   0.254
   41SOL    HW3  195   0.462   2.697   0.394
   41SOL    MW4  196   0.422   2.655   0.329
   42SOL     OW  197   0.863   0.437   0.205
   42SOL    HW2  198   0.839   0.469   0.118
   42SOL    HW3  199   0.856   0.514   0.262
   42SOL    MW4  200   0.859   0.451   0.201
   43SOL     OW  201   0.282   3.611   0.479
   43SOL    HW2  202   0.286   3.700   0.444
   43SOL    HW3  203   0.371   3.578   0.472
   43SOL    MW4  204   0.294   3.618   0.473
   44SOL     OW  205   0.550   3.526   0.477
   44SOL    HW2  206   0.586   3.595   0.421
   44SOL    HW3  207   0.576   3.552   0.566
   44SOL    MW4  208   0.558   3.538   0.481
   45SOL     OW  209   1.149   3.683   0.495
   45SOL    HW2  210   1.068   3.634   0.502
   45SOL    HW3  211   1.211   3.623   0.455
   45SOL    MW4  212   1.146   3.669   0.491
   46SOL     OW  213   0.237   4.353   0.452
   46SOL    HW2  214   0.158   4.401   0.429
   46SOL    HW3  215   0.210   4.261   0.450
   46SOL    MW4  216   0.223   4.347   0.449
   47SOL     OW  217   0.890   3.576   0.511
   47SOL    HW2  218   0.840   3.632   0.453
   47SOL    HW3  219   0.839   3.573   0.592
   47SOL    MW4  220   0.877   3.583   0.514
   48SOL     OW  221   0.692   4.178   0.433
   48SOL    HW2  222   0.686   4.244   0.365
   48SOL    HW3  223   0.688   4.227   0.515
   48SOL    MW4  224   0.691   4.193   0.435
   49SOL     OW  225   0.713   0.215   0.395
   49SOL    HW2  226   0.796   0.180   0.427
   49SOL    HW3  227   0.732   0.246   0.307
   49SOL    MW4  228   0.726   0.215   0.388
   50SOL     OW  229   0.884   0.615   0.434
   50SOL    HW2  230   0.886   0.706   0.462
   50SOL    HW3  231   0.974   0.584   0.442
   50SOL    MW4  232   0.896   0.623   0.439
   51SOL     OW  233   0.440   0.671   0.481
   51SOL    HW2  234   0.360   0.623   0.461
   51SOL    HW3  235   0.508   0.604   0.488
   51SOL    MW4  236   0.439   0.656   0.479
   52SOL     OW  237   1.465   0.528   0.371
   52SOL    HW2  238   1.554   0.515   0.402
   52SOL    HW3  239   1.442   0.616   0.400
   52SOL    MW4  240   1.473   0.538   0.379
   53SOL     OW  241   1.904   0.777   0.345
   53SOL    HW2  242   1.820   0.802   0.384
   53SOL    HW3  243   1.891   0.788   0.251
   53SOL    MW4  244   1.891   0.781   0.338
   54SOL     OW  245   1.518   0.006   0.156
   54SOL    HW2  246   1.514   0.101   0.157
   54SOL    HW3  247   1.609  -0.015   0.177
   54SOL    MW4  248   1.529   0.015   0.159
   55SOL     OW  249   0.690   1.585   0.485
   55SOL    HW2  250   0.725   1.496   0.490
   55SOL    HW3  251   0.636   1.594   0.564
   55SOL    MW4  252   0.688   1.575   0.496
   56SOL     OW  253   0.766   1.312   0.504
   56SOL    HW2  254   0.737   1.224   0.481
   56SOL    HW3  255   0.862   1.308   0.497
   56SOL    MW4  256   0.775   1.300   0.500
   57SOL     OW  257   1.430   1.325   0.282
   57SOL    HW2  258   1.400   1.238   0.255
   57SOL    HW3  259   1.349   1.375   0.294
   57SOL    MW4  260   1.415   1.320   0.280
   58SOL     OW  261   1.067   1.284   0.488
   58SOL    HW2  262   1.100   1.202   0.452
   58SOL    HW3  263   1.107   1.352   0.434
   58SOL    MW4  264   1.077   1.282   0.476
   59SOL     OW  265   1.215   1.488   0.320
   59SOL    HW2  266   1.247   1.571   0.357
   59SOL    HW3  267   1.137   1.513   0.271
   59SOL    MW4  268   1.209   1.503   0.319
   60SOL     OW  269   4.365   2.347   0.378
   60SOL    HW2  270   4.282   2.358   0.425
   60SOL    HW3  271   4.409   2.431   0.386
   60SOL    MW4  272   4.360   2.359   0.385
   61SOL     OW  273   0.002   1.914   0.359
   61SOL    HW2  274   0.011   1.822   0.383
   61SOL    HW3  275   0.046   1.922   0.274
   61SOL    MW4  276   0.009   1.903   0.351
   62SOL     OW  277   0.874   2.135   0.554
   62SOL    HW2  278   0.968   2.145   0.573
   62SOL    HW3  279   0.830   2.171   0.631
   62SOL    MW4  280   0.881   2.141   0.567
   63SOL     OW  281   0.816   1.830   0.363
   63SOL    HW2  282   0.800   1.736   0.363
   63SOL    HW3  283   0.896   1.841   0.414
   63SOL    MW4  284   0.825   1.819   0.369
   64SOL     OW  285   0.880   2.162   0.225
   64SOL    HW2  286   0.947   2.224   0.251
   64SOL    HW3  287   0.881   2.164   0.130
   64SOL    MW4  288   0.889   2.171   0.216
   65SOL     OW  289   0.554   2.663   0.105
   65SOL    HW2  290   0.528   2.755   0.117
   65SOL    HW3  291   0.545   2.647   0.011
   65SOL    MW4  292   0.550   2.673   0.094
   66SOL     OW  293   0.593   2.803   0.464
   66SOL    HW2  294   0.556   2.891   0.473
   66SOL    HW3  295   0.639   2.788   0.546
   66SOL    MW4  296   0.594   2.813   0.476
   67SOL     OW  297   0.928   3.298   0.456
   67SOL    HW2  298   0.944   3.272   0.547
   67SOL    HW3  299   0.927   3.393   0.458
   67SOL    MW4  300   0.930   3.307   0.468
   68SOL     OW  301   2.219   3.171   0.306
   68SOL    HW2  302   2.300   3.121   0.296
   68SOL    HW3  303   2.240   3.239   0.370
   68SOL    MW4  304   2.232   3.173   0.313
   69SOL     OW  305   0.960   4.101   0.444
   69SOL    HW2  306   0.872   4.136   0.429
   69SOL    HW3  307   0.959   4.071   0.535
   69SOL    MW4  308   0.949   4.102   0.454
   70SOL     OW  309   0.538   3.936   0.441
   70SOL    HW2  310   0.489   3.950   0.522
   70SOL    HW3  311   0.588   4.017   0.429
   70SOL    MW4  312   0.538   3.949   0.450
   71SOL     OW  313   1.118   4.323   0.455
   71SOL    HW2  314   1.063   4.247   0.442
   71SOL    HW3  315   1.110   4.344   0.548
   71SOL    MW4  316   1.110   4.316   0.465
   72SOL     OW  317   1.160   0.520   0.444
   72SOL    HW2  318   1.158   0.439   0.393
   72SOL    HW3  319   1.252   0.547   0.441
   72SOL    MW4  320   1.172   0.513   0.437
   73SOL     OW  321   0.960   0.118   0.439
   73SOL    HW2  322   1.026   0.051   0.418
   73SOL    HW3  323   0.951   0.113   0.534
   73SOL    MW4  324   0.968   0.108   0.449
   74SOL     OW  325   1.397   0.288   0.240
   74SOL    HW2  326   1.304   0.285   0.221
   74SOL    HW3  327   1.414   0.379   0.265
   74SOL    MW4  328   1.387   0.300   0.241
   75SOL     OW  329   1.963   4.557   0.464
   75SOL    HW2  330   1.971   4.462   0.471
   75SOL    HW3  331   1.906   4.571   0.388
   75SOL    MW4  332   1.957   4.546   0.455
   76SOL     OW  333   1.109   0.296   0.280
   76SOL    HW2  334   1.062   0.225   0.325
   76SOL    HW3  335   1.041   0.356   0.252
   76SOL    MW4  336   1.094   0.294   0.283
   77SOL     OW  337   2.176   0.334   0.383
   77SOL    HW2  338   2.135   0.401   0.438
   77SOL    HW3  339   2.159   0.364   0.294
   77SOL    MW4  340   2.169   0.347   0.379
   78SOL     OW  341   2.380   1.217   0.280
   78SOL    HW2  342   2.343   1.283   0.338
   78SOL    HW3  343   2.312   1.201   0.214
   78SOL    MW4  344   2.367   1.224   0.279
   79SOL     OW  345   1.645   1.174   0.423
   79SOL    HW2  346   1.566   1.198   0.374
   79SOL    HW3  347   1.709   1.242   0.399
   79SOL    MW4  348   1.643   1.186   0.413
   80SOL     OW  349   1.686   0.899   0.478
   80SOL    HW2  350   1.714   0.905   0.570
   80SOL    HW3  351   1.676   0.990   0.450
   80SOL    MW4  352   1.688   0.912   0.487
   81SOL     OW  353   1.331   1.057   0.236
   81SOL    HW2  354   1.264   1.021   0.294
   81SOL    HW3  355   1.359   0.983   0.183
   81SOL    MW4  356   1.326   1.043   0.237
   82SOL     OW  357   1.868   1.870   0.505
   82SOL    HW2  358   1.871   1.884   0.599
   82SOL    HW3  359   1.926   1.937   0.468
   82SOL    MW4  360   1.876   1.881   0.512
   83SOL     OW  361   0.920   2.477   0.494
   83SOL    HW2  362   0.977   2.407   0.464
   83SOL    HW3  363   0.976   2.555   0.496
   83SOL    MW4  364   0.935   2.478   0.490
   84SOL     OW  365   1.338   2.457   0.448
   84SOL    HW2  366   1.354   2.550   0.436
   84SOL    HW3  367   1.408   2.414   0.400
   84SOL    MW4  368   1.349   2.463   0.440
   85SOL     OW  369   2.249   1.682   0.416
   85SOL    HW2  370   2.253   1.720   0.328
   85SOL    HW3  371   2.325   1.719   0.461
   85SOL    MW4  372   2.259   1.692   0.410
   86SOL     OW  373   1.593   2.337   0.338
   86SOL    HW2  374   1.677   2.349   0.383
   86SOL    HW3  375   1.608   2.371   0.250
   86SOL    MW4  376   1.606   2.343   0.332
   87SOL     OW  377   1.040   1.847   0.515
   87SOL    HW2  378   0.991   1.790   0.573
   87SOL    HW3  379   1.044   1.931   0.561
   87SOL    MW4  380   1.034   1.850   0.529
   88SOL     OW  381   0.860   2.875   0.408
   88SOL    HW2  382   0.885   2.918   0.489
   88SOL    HW3  383   0.769   2.847   0.422
   88SOL    MW4  384   0.851   2.877   0.420
   89SOL     OW  385   2.037   2.142   0.468
   89SOL    HW2  386   2.036   2.113   0.559
   89SOL    HW3  387   2.130   2.145   0.445
   89SOL    MW4  388   2.050   2.138   0.477
   90SOL     OW  389   1.978   0.520   0.476
   90SOL    HW2  390   1.945   0.601   0.436
   90SOL    HW3  391   1.900   0.466   0.488
   90SOL    MW4  392   1.963   0.524   0.472
   91SOL     OW  393   1.097   3.903   0.301
   91SOL    HW2  394   1.115   3.833   0.363
   91SOL    HW3  395   1.051   3.970   0.352
   91SOL    MW4  396   1.093   3.903   0.316
   92SOL     OW  397   2.037   2.594   0.517
   92SOL    HW2  398   2.015   2.685   0.497
   92SOL    HW3  399   2.112   2.600   0.577
   92SOL    MW4  400   2.044   2.607   0.523
   93SOL     OW  401   1.381   3.996   0.419
   93SOL    HW2  402   1.315   3.962   0.359
   93SOL    HW3  403   1.393   4.087   0.392
   93SOL    MW4  404   1.374   4.004   0.408
   94SOL     OW  405   1.636   2.877   0.492
   94SOL    HW2  406   1.726   2.857   0.468
   94SOL    HW3  407   1.638   2.885   0.588
   94SOL    MW4  408   1.648   2.875   0.502
   95SOL     OW  409   2.172   3.969   0.505
   95SOL    HW2  410   2.142   3.881   0.528
   95SOL    HW3  411   2.248   3.954   0.449
   95SOL    MW4  412   2.178   3.955   0.501
   96SOL     OW  413   0.883   3.802   0.150
   96SOL    HW2  414   0.964   3.839   0.183
   96SOL    HW3  415   0.894   3.798   0.055
   96SOL    MW4  416   0.895   3.806   0.142
   97SOL     OW  417   1.756   4.626   0.302
   97SOL    HW2  418   1.719   4.695   0.357
   97SOL    HW3  419   1.718   4.545   0.335
   97SOL    MW4  420   1.747   4.624   0.313
   98SOL     OW  421   2.023   4.651   0.800
   98SOL    HW2  422   2.044   4.567   0.759
   98SOL    HW3  423   2.045   4.717   0.734
   98SOL    MW4  424   2.029   4.648   0.786
   99SOL     OW  425   2.594   4.397   0.316
   99SOL    HW2  426   2.617   4.396   0.408
   99SOL    HW3  427   2.611   4.487   0.288
   99SOL    MW4  428   2.599   4.409   0.324
  100SOL     OW  429   1.378   4.269   0.348
  100SOL    HW2  430   1.290   4.272   0.384
  100SOL    HW3  431   1.376   4.329   0.274
  100SOL    MW4  432   1.366   4.277   0.343
  101SOL     OW  433   2.435   0.364   0.482
  101SOL    HW2  434   2.347   0.356   0.445
  101SOL    HW3  435   2.482   0.419   0.420
  101SOL    MW4  436   2.430   0.370   0.469
  102SOL     OW  437   1.602   1.795   0.398
  102SOL    HW2  438   1.677   1.788   0.457
  102SOL    HW3  439   1.583   1.705   0.371
  102SOL    MW4  440   1.609   1.783   0.403
  103SOL     OW  441   2.048   1.196   0.439
  103SOL    HW2  442   1.972   1.246   0.410
  103SOL    HW3  443   2.120   1.260   0.440
  103SOL    MW4  444   2.048   1.211   0.435
  104SOL     OW  445   2.569   1.122   0.489
  104SOL    HW2  446   2.657   1.158   0.475
  104SOL    HW3  447   2.523   1.142   0.408
  104SOL    MW4  448   2.575   1.130   0.476
  105SOL     OW  449   2.479   1.780   0.519
  105SOL    HW2  450   2.551   1.754   0.576
  105SOL    HW3  451   2.507   1.863   0.481
  105SOL    MW4  452   2.492   1.787   0.521
  106SOL     OW  453   1.607   1.520   0.394
  106SOL    HW2  454   1.541   1.470   0.345
  106SOL    HW3  455   1.576   1.517   0.484
  106SOL    MW4  456   1.594   1.513   0.399
  107SOL     OW  457   1.317   1.744   0.430
  107SOL    HW2  458   1.409   1.768   0.422
  107SOL    HW3  459   1.306   1.723   0.523
  107SOL    MW4  460   1.328   1.745   0.441
  108SOL     OW  461   2.308   2.150   0.464
  108SOL    HW2  462   2.336   2.241   0.459
  108SOL    HW3  463   2.379   2.101   0.423
  108SOL    MW4  464   2.321   2.156   0.458
  109SOL     OW  465   1.696   3.147   0.480
  109SOL    HW2  466   1.654   3.061   0.477
  109SOL    HW3  467   1.781   3.133   0.437
  109SOL    MW4  468   1.702   3.133   0.474
  110SOL     OW  469   1.063   2.718   0.502
  110SOL    HW2  470   1.137   2.718   0.441
  110SOL    HW3  471   0.998   2.774   0.460
  110SOL    MW4  472   1.064   2.725   0.488
  111SOL     OW  473   1.424   3.240   0.520
  111SOL    HW2  474   1.516   3.222   0.499
  111SOL    HW3  475   1.407   3.325   0.481
  111SOL    MW4  476   1.434   3.249   0.512
  112SOL     OW  477   1.254   2.057   0.440
  112SOL    HW2  478   1.230   1.965   0.427
  112SOL    HW3  479   1.350   2.055   0.448
  112SOL    MW4  480   1.264   2.044   0.439
  113SOL     OW  481   3.567   1.577   0.445
  113SOL    HW2  482   3.479   1.541   0.441
  113SOL    HW3  483   3.587   1.584   0.538
  113SOL    MW4  484   3.558   1.573   0.456
  114SOL     OW  485   1.865   2.377   0.467
  114SOL    HW2  486   1.928   2.306   0.451
  114SOL    HW3  487   1.920   2.454   0.482
  114SOL    MW4  488   1.881   2.378   0.467
  115SOL     OW  489   1.532   2.074   0.449
  115SOL    HW2  490   1.565   2.140   0.387
  115SOL    HW3  491   1.550   1.990   0.408
  115SOL    MW4  492   1.538   2.072   0.435
  116SOL     OW  493   1.359   3.510   0.441
  116SOL    HW2  494   1.380   3.511   0.347
  116SOL    HW3  495   1.424   3.567   0.481
  116SOL    MW4  496   1.370   3.517   0.434
  117SOL     OW  497   2.515   3.511   0.507
  117SOL    HW2  498   2.438   3.456   0.493
  117SOL    HW3  499   2.495   3.561   0.586
  117SOL    MW4  500   2.502   3.511   0.516
  118SOL     OW  501   1.643   4.380   0.422
  118SOL    HW2  502   1.625   4.385   0.516
  118SOL    HW3  503   1.563   4.344   0.384
  118SOL    MW4  504   1.630   4.376   0.430
  119SOL     OW  505   1.566   3.770   0.453
  119SOL    HW2  506   1.513   3.849   0.445
  119SOL    HW3  507   1.655   3.802   0.465
  119SOL    MW4  508   1.571   3.785   0.454
  120SOL     OW  509   1.320   4.463   0.151
  120SOL    HW2  510   1.391   4.527   0.144
  120SOL    HW3  511   1.273   4.470   0.069
  120SOL    MW4  512   1.324   4.472   0.140
  121SOL     OW  513   1.397   0.101   0.447
  121SOL    HW2  514   1.412   0.168   0.380
  121SOL    HW3  515   1.353   0.029   0.400
  121SOL    MW4  516   1.394   0.100   0.432
  122SOL     OW  517   2.316   4.610   0.612
  122SOL    HW2  518   2.400   4.653   0.594
  122SOL    HW3  519   2.251   4.664   0.567
  122SOL    MW4  520   2.319   4.623   0.604
  123SOL     OW  521   2.105   0.112   0.538
  123SOL    HW2  522   2.122   0.169   0.463
  123SOL    HW3  523   2.048   0.044   0.503
  123SOL    MW4  524   2.100   0.111   0.524
  124SOL     OW  525   2.732   1.421   0.305
  124SOL    HW2  526   2.641   1.395   0.294
  124SOL    HW3  527   2.774   1.345   0.346
  124SOL    MW4  528   2.726   1.408   0.309
  125SOL     OW  529   2.786   0.406   0.387
  125SOL    HW2  530   2.785   0.344   0.315
  125SOL    HW3  531   2.875   0.441   0.387
  125SOL    MW4  532   2.798   0.403   0.377
  126SOL     OW  533   2.053   0.920   0.503
  126SOL    HW2  534   2.054   1.010   0.470
  126SOL    HW3  535   2.011   0.870   0.433
  126SOL    MW4  536   2.048   0.925   0.490
  127SOL     OW  537   2.820   1.201   0.459
  127SOL    HW2  538   2.892   1.145   0.429
  127SOL    HW3  539   2.837   1.214   0.552
  127SOL    MW4  540   2.832   1.195   0.467
  128SOL     OW  541   2.855   1.686   0.455
  128SOL    HW2  542   2.835   1.607   0.405
  128SOL    HW3  543   2.791   1.686   0.526
  128SOL    MW4  544   2.844   1.676   0.458
  129SOL     OW  545   3.227   1.898   0.416
  129SOL    HW2  546   3.211   1.963   0.485
  129SOL    HW3  547   3.320   1.880   0.421
  129SOL    MW4  548   3.237   1.905   0.426
  130SOL     OW  549   2.895   4.599   0.431
  130SOL    HW2  550   2.935   4.686   0.432
  130SOL    HW3  551   2.969   4.538   0.422
  130SOL    MW4  552   2.910   4.602   0.430
  131SOL     OW  553   1.988   1.608   0.483
  131SOL    HW2  554   1.948   1.695   0.477
  131SOL    HW3  555   2.077   1.620   0.450
  131SOL    MW4  556   1.994   1.621   0.478
  132SOL     OW  557   1.520   1.503   0.652
  132SOL    HW2  558   1.588   1.546   0.704
  132SOL    HW3  559   1.439   1.549   0.675
  132SOL    MW4  560   1.518   1.514   0.662
  133SOL     OW  561   2.538   2.019   0.389
  133SOL    HW2  562   2.567   1.977   0.308
  133SOL    HW3  563   2.612   2.074   0.414
  133SOL    MW4  564   2.551   2.021   0.381
  134SOL     OW  565   2.765   2.159   0.427
  134SOL    HW2  566   2.828   2.096   0.391
  134SOL    HW3  567   2.791   2.170   0.518
  134SOL    MW4  568   2.777   2.152   0.434
  135SOL     OW  569   2.504   2.606   0.416
  135SOL    HW2  570   2.574   2.554   0.377
  135SOL    HW3  571   2.424   2.561   0.389
  135SOL    MW4  572   2.502   2.594   0.407
  136SOL     OW  573   1.369   2.754   0.444
  136SOL    HW2  574   1.457   2.786   0.464
  136SOL    HW3  575   1.316   2.834   0.438
  136SOL    MW4  576   1.374   2.769   0.446
  137SOL     OW  577   1.238   3.018   0.450
  137SOL    HW2  578   1.164   3.065   0.410
  137SOL    HW3  579   1.297   3.087   0.479
  137SOL    MW4  580   1.236   3.033   0.449
  138SOL     OW  581   2.084   3.696   0.512
  138SOL    HW2  582   2.089   3.625   0.448
  138SOL    HW3  583   2.070   3.652   0.596
  138SOL    MW4  584   2.083   3.681   0.515
  139SOL     OW  585   2.424   3.950   0.379
  139SOL    HW2  586   2.470   3.868   0.362
  139SOL    HW3  587   2.470   4.015   0.326
  139SOL    MW4  588   2.436   3.948   0.370
  140SOL     OW  589   1.814   3.900   0.506
  140SOL    HW2  590   1.833   3.971   0.445
  140SOL    HW3  591   1.888   3.840   0.496
  140SOL    MW4  592   1.826   3.902   0.497
  141SOL     OW  593   2.342   3.308   0.497
  141SOL    HW2  594   2.299   3.269   0.573
  141SOL    HW3  595   2.388   3.235   0.456
  141SOL    MW4  596   2.342   3.293   0.501
  142SOL     OW  597   2.338   4.386   0.435
  142SOL    HW2  598   2.414   4.403   0.380
  142SOL    HW3  599   2.326   4.467   0.485
  142SOL    MW4  600   2.346   4.399   0.434
  143SOL     OW  601   2.103   4.241   0.496
  143SOL    HW2  602   2.131   4.150   0.508
  143SOL    HW3  603   2.183   4.288   0.473
  143SOL    MW4  604   2.117   4.235   0.495
  144SOL     OW  605   3.019   0.177   0.504
  144SOL    HW2  606   2.931   0.208   0.529
  144SOL    HW3  607   3.046   0.119   0.575
  144SOL    MW4  608   3.011   0.174   0.517
  145SOL     OW  609   2.581   3.696   0.309
  145SOL    HW2  610   2.583   3.655   0.222
  145SOL    HW3  611   2.556   3.625   0.368
  145SOL    MW4  612   2.578   3.681   0.305
  146SOL     OW  613   2.496   4.198   0.568
  146SOL    HW2  614   2.433   4.259   0.530
  146SOL    HW3  615   2.480   4.115   0.523
  146SOL    MW4  616   2.486   4.195   0.557
  147SOL     OW  617   2.528   0.070   0.497
  147SOL    HW2  618   2.472   0.147   0.487
  147SOL    HW3  619   2.594   0.098   0.561
  147SOL    MW4  620   2.529   0.084   0.504
  148SOL     OW  621   1.704   0.436   0.487
  148SOL    HW2  622   1.673   0.348   0.465
  148SOL    HW3  623   1.680   0.448   0.579
  148SOL    MW4  624   1.697   0.426   0.496
  149SOL     OW  625   3.038   0.536   0.500
  149SOL    HW2  626   3.021   0.630   0.508
  149SOL    HW3  627   3.119   0.530   0.449
  149SOL    MW4  628   3.046   0.548   0.494
  150SOL     OW  629   2.269   1.395   0.478
  150SOL    HW2  630   2.282   1.490   0.473
  150SOL    HW3  631   2.345   1.364   0.528
  150SOL    MW4  632   2.281   1.404   0.484
  151SOL     OW  633   2.583   0.595   0.379
  151SOL    HW2  634   2.597   0.683   0.413
  151SOL    HW3  635   2.670   0.555   0.379
  151SOL    MW4  636   2.597   0.601   0.383
  152SOL     OW  637   3.112   1.631   0.472
  152SOL    HW2  638   3.022   1.660   0.460
  152SOL    HW3  639   3.165   1.704   0.439
  152SOL    MW4  640   3.107   1.645   0.466
  153SOL     OW  641   3.621   0.923   0.505
  153SOL    HW2  642   3.714   0.925   0.481
  153SOL    HW3  643   3.621   0.904   0.599
  153SOL    MW4  644   3.633   0.920   0.514
  154SOL     OW  645   3.758   1.973   0.435
  154SOL    HW2  646   3.762   2.046   0.373
  154SOL    HW3  647   3.783   2.012   0.519
  154SOL    MW4  648   3.762   1.988   0.438
  155SOL     OW  649   2.745   0.228   0.625
  155SOL    HW2  650   2.732   0.306   0.571
  155SOL    HW3  651   2.728   0.258   0.714
  155SOL    MW4  652   2.741   0.242   0.629
  156SOL     OW  653   3.139   2.078   0.624
  156SOL    HW2  654   3.046   2.099   0.632
  156SOL    HW3  655   3.151   1.999   0.677
  156SOL    MW4  656   3.128   2.070   0.632
  157SOL     OW  657   2.740   2.468   0.370
  157SOL    HW2  658   2.823   2.514   0.384
  157SOL    HW3  659   2.765   2.376   0.359
  157SOL    MW4  660   2.754   2.462   0.370
  158SOL     OW  661   2.921   1.946   0.344
  158SOL    HW2  662   3.016   1.937   0.344
  158SOL    HW3  663   2.889   1.859   0.368
  158SOL    MW4  664   2.929   1.933   0.347
  159SOL     OW  665   2.286   2.431   0.362
  159SOL    HW2  666   2.194   2.444   0.382
  159SOL    HW3  667   2.289   2.417   0.268
  159SOL    MW4  668   2.275   2.431   0.352
  160SOL     OW  669   2.586   2.867   0.474
  160SOL    HW2  670   2.551   2.787   0.436
  160SOL    HW3  671   2.543   2.873   0.560
  160SOL    MW4  672   2.576   2.857   0.481
  161SOL     OW  673   3.171   3.253   0.589
  161SOL    HW2  674   3.152   3.164   0.560
  161SOL    HW3  675   3.174   3.247   0.685
  161SOL    MW4  676   3.169   3.240   0.598
  162SOL     OW  677   3.436   3.274   0.623
  162SOL    HW2  678   3.444   3.209   0.692
  162SOL    HW3  679   3.342   3.286   0.611
  162SOL    MW4  680   3.425   3.267   0.631
  163SOL     OW  681   1.951   3.089   0.330
  163SOL    HW2  682   2.042   3.107   0.311
  163SOL    HW3  683   1.909   3.079   0.245
  163SOL    MW4  684   1.957   3.090   0.317
  164SOL     OW  685   1.809   4.133   0.374
  164SOL    HW2  686   1.736   4.192   0.394
  164SOL    HW3  687   1.888   4.185   0.392
  164SOL    MW4  688   1.810   4.147   0.379
  165SOL     OW  689   3.398   4.082   0.410
  165SOL    HW2  690   3.314   4.072   0.364
  165SOL    HW3  691   3.391   4.023   0.485
  165SOL    MW4  692   3.386   4.073   0.414
  166SOL     OW  693   2.979   3.428   0.479
  166SOL    HW2  694   2.898   3.379   0.469
  166SOL    HW3  695   3.039   3.367   0.522
  166SOL    MW4  696   2.977   3.414   0.483
  167SOL     OW  697   2.711   3.296   0.464
  167SOL    HW2  698   2.716   3.257   0.552
  167SOL    HW3  699   2.670   3.382   0.479
  167SOL    MW4  700   2.706   3.302   0.478
  168SOL     OW  701   3.665   4.232   0.638
  168SOL    HW2  702   3.719   4.154   0.639
  168SOL    HW3  703   3.651   4.252   0.545
  168SOL    MW4  704   3.670   4.225   0.626
  169SOL     OW  705   3.157   4.118   0.274
  169SOL    HW2  706   3.134   4.210   0.283
  169SOL    HW3  707   3.094   4.083   0.210
  169SOL    MW4  708   3.146   4.125   0.266
  170SOL     OW  709   3.269   0.331   0.473
  170SOL    HW2  710   3.185   0.285   0.470
  170SOL    HW3  711   3.332   0.265   0.502
  170SOL    MW4  712   3.267   0.316   0.476
  171SOL     OW  713   2.654   0.006   0.271
  171SOL    HW2  714   2.598   0.037   0.342
  171SOL    HW3  715   2.734  -0.024   0.315
  171SOL    MW4  716   2.657   0.006   0.286
  172SOL     OW  717   2.843   4.055   0.317
  172SOL    HW2  718   2.813   3.978   0.366
  172SOL    HW3  719   2.774   4.072   0.253
  172SOL    MW4  720   2.830   4.047   0.315
  173SOL     OW  721   2.804   0.225   0.191
  173SOL    HW2  722   2.894   0.198   0.174
  173SOL    HW3  723   2.754   0.143   0.191
  173SOL    MW4  724   2.809   0.210   0.189
  174SOL     OW  725   2.964   0.804   0.526
  174SOL    HW2  726   3.010   0.832   0.605
  174SOL    HW3  727   2.999   0.860   0.457
  174SOL    MW4  728   2.974   0.815   0.527
  175SOL     OW  729   3.500   1.107   0.355
  175SOL    HW2  730   3.457   1.049   0.293
  175SOL    HW3  731   3.531   1.049   0.425
  175SOL    MW4  732   3.499   1.092   0.356
  176SOL     OW  733   3.443   0.696   0.504
  176SOL    HW2  734   3.406   0.716   0.590
  176SOL    HW3  735   3.492   0.774   0.480
  176SOL    MW4  736   3.445   0.709   0.512
  177SOL     OW  737   3.250   0.905   0.189
  177SOL    HW2  738   3.217   0.819   0.214
  177SOL    HW3  739   3.222   0.916   0.098
  177SOL    MW4  740   3.242   0.895   0.180
  178SOL     OW  741   3.482   1.853   0.734
  178SOL    HW2  742   3.494   1.880   0.643
  178SOL    HW3  743   3.388   1.839   0.743
  178SOL    MW4  744   3.471   1.855   0.723
  179SOL     OW  745   3.497   1.872   0.444
  179SOL    HW2  746   3.512   1.779   0.428
  179SOL    HW3  747   3.581   1.914   0.423
  179SOL    MW4  748   3.510   1.866   0.439
  180SOL     OW  749   3.263   1.180   0.492
  180SOL    HW2  750   3.342   1.154   0.444
  180SOL    HW3  751   3.292   1.186   0.583
  180SOL    MW4  752   3.277   1.177   0.498
  181SOL     OW  753   3.837   1.680   0.371
  181SOL    HW2  754   3.751   1.638   0.372
  181SOL    HW3  755   3.819   1.771   0.396
  181SOL    MW4  756   3.823   1.687   0.375
  182SOL     OW  757   3.223   2.348   0.653
  182SOL    HW2  758   3.196   2.259   0.630
  182SOL    HW3  759   3.277   2.337   0.731
  182SOL    MW4  760   3.227   2.335   0.660
  183SOL     OW  761   3.506   2.716   0.564
  183SOL    HW2  762   3.539   2.702   0.653
  183SOL    HW3  763   3.487   2.628   0.531
  183SOL    MW4  764   3.508   2.702   0.571
  184SOL     OW  765   1.925   2.849   0.477
  184SOL    HW2  766   1.943   2.855   0.571
  184SOL    HW3  767   1.948   2.936   0.443
  184SOL    MW4  768   1.930   2.862   0.485
  185SOL     OW  769   3.248   2.590   0.303
  185SOL    HW2  770   3.304   2.562   0.376
  185SOL    HW3  771   3.279   2.540   0.228
  185SOL    MW4  772   3.259   2.580   0.303
  186SOL     OW  773   2.914   2.846   0.780
  186SOL    HW2  774   2.909   2.826   0.687
  186SOL    HW3  775   2.994   2.802   0.810
  186SOL    MW4  776   2.924   2.837   0.772
  187SOL     OW  777   2.671   0.843   0.523
  187SOL    HW2  778   2.767   0.838   0.524
  187SOL    HW3  779   2.651   0.936   0.526
  187SOL    MW4  780   2.681   0.854   0.523
  188SOL     OW  781   2.894   4.191   0.561
  188SOL    HW2  782   2.883   4.143   0.479
  188SOL    HW3  783   2.962   4.143   0.608
  188SOL    MW4  784   2.901   4.178   0.556
  189SOL     OW  785   3.311   3.652   0.505
  189SOL    HW2  786   3.348   3.611   0.427
  189SOL    HW3  787   3.349   3.603   0.578
  189SOL    MW4  788   3.321   3.640   0.505
  190SOL     OW  789   3.808   3.401   0.480
  190SOL    HW2  790   3.901   3.390   0.462
  190SOL    HW3  791   3.799   3.493   0.505
  190SOL    MW4  792   3.819   3.412   0.481
  191SOL     OW  793   3.813   3.314   0.738
  191SOL    HW2  794   3.908   3.331   0.742
  191SOL    HW3  795   3.792   3.321   0.645
  191SOL    MW4  796   3.823   3.317   0.726
  192SOL     OW  797   2.752   3.853   0.505
  192SOL    HW2  798   2.834   3.805   0.520
  192SOL    HW3  799   2.706   3.802   0.439
  192SOL    MW4  800   2.757   3.840   0.498
  193SOL     OW  801   2.497   3.105   0.372
  193SOL    HW2  802   2.527   3.023   0.410
  193SOL    HW3  803   2.569   3.166   0.386
  193SOL    MW4  804   2.510   3.102   0.379
  194SOL     OW  805   4.310   0.032   0.377
  194SOL    HW2  806   4.304   0.047   0.283
  194SOL    HW3  807   4.360  -0.050   0.384
  194SOL    MW4  808   4.316   0.023   0.365
  195SOL     OW  809   3.617   0.321   0.305
  195SOL    HW2  810   3.702   0.283   0.286
  195SOL    HW3  811   3.635   0.388   0.371
  195SOL    MW4  812   3.630   0.325   0.311
  196SOL     OW  813   3.376   0.422   0.210
  196SOL    HW2  814   3.332   0.386   0.287
  196SOL    HW3  815   3.469   0.405   0.225
  196SOL    MW4  816   3.383   0.415   0.222
  197SOL     OW  817   3.244   0.631   0.327
  197SOL    HW2  818   3.309   0.661   0.391
  197SOL    HW3  819   3.291   0.569   0.271
  197SOL    MW4  820   3.259   0.627   0.328
  198SOL     OW  821   4.077   0.398   0.447
  198SOL    HW2  822   4.170   0.392   0.468
  198SOL    HW3  823   4.074   0.461   0.375
  198SOL    MW4  824   4.089   0.406   0.441
  199SOL     OW  825   4.400   0.836   0.449
  199SOL    HW2  826   4.306   0.836   0.431
  199SOL    HW3  827   4.436   0.767   0.393
  199SOL    MW4  828   4.392   0.827   0.440
  200SOL     OW  829   3.913   0.682   0.467
  200SOL    HW2  830   3.878   0.598   0.495
  200SOL    HW3  831   3.841   0.724   0.420
  200SOL    MW4  832   3.899   0.677   0.465
  201SOL     OW  833   3.978   1.131   0.439
  201SOL    HW2  834   4.061   1.178   0.448
  201SOL    HW3  835   3.911   1.198   0.451
  201SOL    MW4  836   3.980   1.146   0.442
  202SOL     OW  837   3.746   1.280   0.445
  202SOL    HW2  838   3.685   1.228   0.393
  202SOL    HW3  839   3.748   1.366   0.402
  202SOL    MW4  840   3.738   1.285   0.433
  203SOL     OW  841   3.318   1.462   0.400
  203SOL    HW2  842   3.234   1.500   0.426
  203SOL    HW3  843   3.308   1.368   0.415
  203SOL    MW4  844   3.305   1.455   0.406
  204SOL     OW  845   3.062   1.033   0.369
  204SOL    HW2  846   3.106   1.003   0.290
  204SOL    HW3  847   3.129   1.081   0.417
  204SOL    MW4  848   3.076   1.035   0.365
  205SOL     OW  849   3.706   2.384   0.483
  205SOL    HW2  850   3.737   2.329   0.410
  205SOL    HW3  851   3.758   2.355   0.558
  205SOL    MW4  852   3.717   2.373   0.483
  206SOL     OW  853   4.081   3.084   0.381
  206SOL    HW2  854   4.165   3.038   0.378
  206SOL    HW3  855   4.019   3.020   0.417
  206SOL    MW4  856   4.084   3.069   0.385
  207SOL     OW  857   2.977   2.601   0.422
  207SOL    HW2  858   3.009   2.593   0.512
  207SOL    HW3  859   3.056   2.614   0.370
  207SOL    MW4  860   2.992   2.602   0.427
  208SOL     OW  861   3.001   3.736   0.497
  208SOL    HW2  862   3.086   3.773   0.474
  208SOL    HW3  863   3.012   3.641   0.487
  208SOL    MW4  864   3.013   3.728   0.493
  209SOL     OW  865   3.120   2.986   0.477
  209SOL    HW2  866   3.125   2.979   0.382
  209SOL    HW3  867   3.038   2.944   0.501
  209SOL    MW4  868   3.110   2.980   0.468
  210SOL     OW  869   3.842   2.927   0.493
  210SOL    HW2  870   3.819   2.865   0.424
  210SOL    HW3  871   3.780   2.999   0.482
  210SOL    MW4  872   3.830   2.928   0.482
  211SOL     OW  873   3.764   2.653   0.426
  211SOL    HW2  874   3.765   2.561   0.455
  211SOL    HW3  875   3.677   2.684   0.450
  211SOL    MW4  876   3.753   2.645   0.433
  212SOL     OW  877   3.896   4.080   0.298
  212SOL    HW2  878   3.913   4.007   0.357
  212SOL    HW3  879   3.877   4.039   0.213
  212SOL    MW4  880   3.896   4.065   0.294
  213SOL     OW  881   3.430   2.463   0.510
  213SOL    HW2  882   3.370   2.410   0.562
  213SOL    HW3  883   3.514   2.418   0.518
  213SOL    MW4  884   3.433   2.450   0.518
  214SOL     OW  885   3.331   3.912   0.608
  214SOL    HW2  886   3.404   3.909   0.670
  214SOL    HW3  887   3.325   3.823   0.574
  214SOL    MW4  888   3.340   3.900   0.612
  215SOL     OW  889   4.274   3.950   0.674
  215SOL    HW2  890   4.222   3.910   0.743
  215SOL    HW3  891   4.242   4.040   0.669
  215SOL    MW4  892   4.263   3.957   0.682
  216SOL     OW  893   3.639   4.233   0.380
  216SOL    HW2  894   3.720   4.190   0.351
  216SOL    HW3  895   3.573   4.163   0.378
  216SOL    MW4  896   3.641   4.218   0.376
  217SOL     OW  897   3.511   4.508   0.433
  217SOL    HW2  898   3.547   4.447   0.369
  217SOL    HW3  899   3.582   4.522   0.496
  217SOL    MW4  900   3.525   4.502   0.433
  218SOL     OW  901   0.038   0.185   0.500
  218SOL    HW2  902  -0.034   0.133   0.465
  218SOL    HW3  903   0.042   0.162   0.593
  218SOL    MW4  904   0.029   0.175   0.508
  219SOL     OW  905   4.124   0.875   0.440
  219SOL    HW2  906   4.069   0.798   0.453
  219SOL    HW3  907   4.063   0.946   0.418
  219SOL    MW4  908   4.109   0.875   0.439
  220SOL     OW  909   0.304   2.143   0.305
  220SOL    HW2  910   0.325   2.235   0.320
  220SOL    HW3  911   0.229   2.126   0.362
  220SOL    MW4  912   0.297   2.153   0.314
  221SOL     OW  913   4.342   0.426   0.492
  221SOL    HW2  914   4.405   0.355   0.487
  221SOL    HW3  915   4.380   0.496   0.439
  221SOL    MW4  916   4.355   0.426   0.484
  222SOL     OW  917   4.222   1.246   0.449
  222SOL    HW2  918   4.243   1.336   0.427
  222SOL    HW3  919   4.243   1.239   0.542
  222SOL    MW4  920   4.228   1.257   0.459
  223SOL     OW  921   3.481   0.139   0.472
  223SOL    HW2  922   3.494   0.051   0.435
  223SOL    HW3  923   3.535   0.196   0.417
  223SOL    MW4  924   3.490   0.135   0.459
  224SOL     OW  925   3.836   0.937   0.312
  224SOL    HW2  926   3.879   1.022   0.326
  224SOL    HW3  927   3.757   0.958   0.262
  224SOL    MW4  928   3.832   0.951   0.307
  225SOL     OW  929   0.004   1.108   0.448
  225SOL    HW2  930  -0.080   1.155   0.452
  225SOL    HW3  931  -0.020   1.015   0.451
  225SOL    MW4  932  -0.010   1.102   0.449
  226SOL     OW  933   4.088   2.177   0.324
  226SOL    HW2  934   4.084   2.241   0.396
  226SOL    HW3  935   4.164   2.204   0.273
  226SOL    MW4  936   4.098   2.189   0.327
  227SOL     OW  937   0.271   1.509   0.457
  227SOL    HW2  938   0.254   1.415   0.470
  227SOL    HW3  939   0.184   1.550   0.463
  227SOL    MW4  940   0.257   1.502   0.460
  228SOL     OW  941   0.781   2.467   0.224
  228SOL    HW2  942   0.820   2.506   0.302
  228SOL    HW3  943   0.719   2.532   0.193
  228SOL    MW4  944   0.778   2.481   0.230
  229SOL     OW  945   4.214   1.951   0.447
  229SOL    HW2  946   4.301   1.937   0.411
  229SOL    HW3  947   4.183   2.032   0.406
  229SOL    MW4  948   4.221   1.960   0.437
  230SOL     OW  949   4.447   2.608   0.482
  230SOL    HW2  950   4.516   2.674   0.479
  230SOL    HW3  951   4.459   2.564   0.566
  230SOL    MW4  952   4.457   2.611   0.492
  231SOL     OW  953   4.290   3.568   0.442
  231SOL    HW2  954   4.378   3.546   0.413
  231SOL    HW3  955   4.235   3.496   0.410
  231SOL    MW4  956   4.294   3.556   0.434
  232SOL     OW  957   4.229   2.784   0.501
  232SOL    HW2  958   4.142   2.743   0.503
  232SOL    HW3  959   4.287   2.716   0.467
  232SOL    MW4  960   4.225   2.770   0.497
  233SOL     OW  961   0.281   3.887   0.361
  233SOL    HW2  962   0.227   3.956   0.400
  233SOL    HW3  963   0.371   3.918   0.370
  233SOL    MW4  964   0.285   3.900   0.367
  234SOL     OW  965   0.045   3.513   0.356
  234SOL    HW2  966   0.054   3.573   0.281
  234SOL    HW3  967   0.124   3.529   0.408
  234SOL    MW4  968   0.057   3.523   0.353
  235SOL     OW  969   0.034   3.234   0.481
  235SOL    HW2  970  -0.016   3.160   0.446
  235SOL    HW3  971   0.006   3.309   0.428
  235SOL    MW4  972   0.024   3.234   0.469
  236SOL     OW  973   3.936   3.877   0.467
  236SOL    HW2  974   3.890   3.795   0.486
  236SOL    HW3  975   4.026   3.849   0.447
  236SOL    MW4  976   3.942   3.862   0.467
  237SOL     OW  977   3.669   3.151   0.492
  237SOL    HW2  978   3.710   3.229   0.457
  237SOL    HW3  979   3.575   3.171   0.494
  237SOL    MW4  980   3.662   3.164   0.488
  238SOL     OW  981   0.133   4.094   0.446
  238SOL    HW2  982   0.096   4.079   0.533
  238SOL    HW3  983   0.063   4.071   0.385
  238SOL    MW4  984   0.119   4.089   0.449
  239SOL     OW  985   4.104   4.280   0.414
  239SOL    HW2  986   4.032   4.235   0.370
  239SOL    HW3  987   4.077   4.371   0.419
  239SOL    MW4  988   4.091   4.286   0.409
  240SOL     OW  989   4.157   4.222   0.680
  240SOL    HW2  990   4.205   4.304   0.691
  240SOL    HW3  991   4.131   4.222   0.588
  240SOL    MW4  992   4.160   4.233   0.670
  241SOL     OW  993   3.951   4.509   0.420
  241SOL    HW2  994   3.990   4.595   0.437
  241SOL    HW3  995   3.874   4.506   0.477
  241SOL    MW4  996   3.946   4.520   0.430
  242SOL     OW  997   0.300   4.666   0.841
  242SOL    HW2  998   0.283   4.582   0.797
  242SOL    HW3  999   0.232   4.724   0.808
  242SOL    MW4 1000   0.289   4.662   0.831
  243SOL     OW 1001   0.059   0.106   0.784
  243SOL    HW2 1002  -0.018   0.054   0.807
  243SOL    HW3 1003   0.038   0.194   0.813
  243SOL    MW4 1004   0.046   0.110   0.791
  244SOL     OW 1005   0.021   0.376   0.860
  244SOL    HW2 1006   0.026   0.378   0.955
  244SOL    HW3 1007   0.101   0.419   0.830
  244SOL    MW4 1008   0.032   0.382   0.868
  245SOL     OW 1009   0.221   0.519   0.711
  245SOL    HW2 1010   0.305   0.482   0.736
  245SOL    HW3 1011   0.222   0.607   0.748
  245SOL    MW4 1012   0.232   0.526   0.719
  246SOL     OW 1013   0.222   0.768   0.867
  246SOL    HW2 1014   0.205   0.758   0.961
  246SOL    HW3 1015   0.144   0.812   0.833
  246SOL    MW4 1016   0.210   0.773   0.875
  247SOL     OW 1017   4.475   0.869   0.747
  247SOL    HW2 1018   4.417   0.808   0.794
  247SOL    HW3 1019   4.453   0.857   0.655
  247SOL    MW4 1020   4.464   0.859   0.741
  248SOL     OW 1021   4.477   1.140   0.838
  248SOL    HW2 1022   4.460   1.136   0.932
  248SOL    HW3 1023   4.473   1.048   0.810
  248SOL    MW4 1024   4.474   1.127   0.847
  249SOL     OW 1025   0.207   1.289   0.783
  249SOL    HW2 1026   0.138   1.226   0.808
  249SOL    HW3 1027   0.236   1.258   0.697
  249SOL    MW4 1028   0.201   1.276   0.775
  250SOL     OW 1029   0.202   1.573   0.859
  250SOL    HW2 1030   0.281   1.602   0.813
  250SOL    HW3 1031   0.197   1.479   0.841
  250SOL    MW4 1032   0.212   1.564   0.850
  251SOL     OW 1033   4.455   1.660   0.719
  251SOL    HW2 1034   4.379   1.621   0.763
  251SOL    HW3 1035   4.530   1.610   0.751
  251SOL    MW4 1036   4.455   1.648   0.729
  252SOL     OW 1037   4.455   1.955   0.785
  252SOL    HW2 1038   4.526   1.989   0.730
  252SOL    HW3 1039   4.461   1.860   0.776
  252SOL    MW4 1040   4.465   1.947   0.776
  253SOL     OW 1041   0.177   2.095   0.684
  253SOL    HW2 1042   0.198   2.166   0.744
  253SOL    HW3 1043   0.136   2.138   0.609
  253SOL    MW4 1044   0.174   2.110   0.682
  254SOL     OW 1045   0.225   2.328   0.831
  254SOL    HW2 1046   0.240   2.309   0.924
  254SOL    HW3 1047   0.309   2.359   0.799
  254SOL    MW4 1048   0.238   2.330   0.839
  255SOL     OW 1049   4.484   2.465   0.712
  255SOL    HW2 1050   4.409   2.412   0.737
  255SOL    HW3 1051   4.560   2.416   0.743
  255SOL    MW4 1052   4.484   2.452   0.719
  256SOL     OW 1053   0.020   2.707   0.857
  256SOL    HW2 1054   0.025   2.685   0.950
  256SOL    HW3 1055   0.009   2.623   0.812
  256SOL    MW4 1056   0.019   2.693   0.863
  257SOL     OW 1057   0.230   2.835   0.719
  257SOL    HW2 1058   0.173   2.781   0.774
  257SOL    HW3 1059   0.203   2.816   0.629
  257SOL    MW4 1060   0.219   2.825   0.714
  258SOL     OW 1061   0.258   3.074   0.875
  258SOL    HW2 1062   0.231   3.073   0.967
  258SOL    HW3 1063   0.232   2.988   0.841
  258SOL    MW4 1064   0.251   3.063   0.882
  259SOL     OW 1065   0.016   3.181   0.756
  259SOL    HW2 1066   0.099   3.141   0.781
  259SOL    HW3 1067   0.011   3.172   0.661
  259SOL    MW4 1068   0.026   3.175   0.747
  260SOL     OW 1069   0.018   3.460   0.836
  260SOL    HW2 1070  -0.061   3.490   0.792
  260SOL    HW3 1071   0.021   3.366   0.820
  260SOL    MW4 1072   0.008   3.451   0.828
  261SOL     OW 1073   0.271   3.564   0.748
  261SOL    HW2 1074   0.180   3.548   0.769
  261SOL    HW3 1075   0.274   3.564   0.652
  261SOL    MW4 1076   0.260   3.562   0.738
  262SOL     OW 1077   0.260   3.827   0.832
  262SOL    HW2 1078   0.247   3.826   0.926
  262SOL    HW3 1079   0.267   3.734   0.808
  262SOL    MW4 1080   0.259   3.814   0.841
  263SOL     OW 1081   0.059   4.008   0.719
  263SOL    HW2 1082  -0.032   3.981   0.730
  263SOL    HW3 1083   0.110   3.932   0.747
  263SOL    MW4 1084   0.054   3.995   0.724
  264SOL     OW 1085   0.033   4.279   0.810
  264SOL    HW2 1086  -0.013   4.272   0.895
  264SOL    HW3 1087   0.043   4.188   0.782
  264SOL    MW4 1088   0.028   4.266   0.818
  265SOL     OW 1089   0.251   4.404   0.724
  265SOL    HW2 1090   0.168   4.368   0.756
  265SOL    HW3 1091   0.240   4.407   0.629
  265SOL    MW4 1092   0.239   4.400   0.715
  266SOL     OW 1093   0.715   4.636   0.791
  266SOL    HW2 1094   0.693   4.613   0.882
  266SOL    HW3 1095   0.645   4.696   0.765
  266SOL    MW4 1096   0.703   4.641   0.800
  267SOL     OW 1097   0.490   0.123   0.717
  267SOL    HW2 1098   0.423   0.067   0.756
  267SOL    HW3 1099   0.480   0.110   0.623
  267SOL    MW4 1100   0.480   0.114   0.710
  268SOL     OW 1101   0.438   0.384   0.810
  268SOL    HW2 1102   0.520   0.433   0.818
  268SOL    HW3 1103   0.464   0.299   0.776
  268SOL    MW4 1104   0.452   0.379   0.807
  269SOL     OW 1105   0.667   0.515   0.786
  269SOL    HW2 1106   0.747   0.468   0.812
  269SOL    HW3 1107   0.661   0.501   0.692
  269SOL    MW4 1108   0.677   0.507   0.777
  270SOL     OW 1109   0.674   0.783   0.905
  270SOL    HW2 1110   0.606   0.836   0.864
  270SOL    HW3 1111   0.667   0.697   0.863
  270SOL    MW4 1112   0.664   0.779   0.894
  271SOL     OW 1113   0.465   0.922   0.814
  271SOL    HW2 1114   0.445   1.004   0.859
  271SOL    HW3 1115   0.391   0.865   0.835
  271SOL    MW4 1116   0.453   0.925   0.823
  272SOL     OW 1117   0.459   1.184   0.909
  272SOL    HW2 1118   0.544   1.223   0.886
  272SOL    HW3 1119   0.395   1.245   0.873
  272SOL    MW4 1120   0.462   1.197   0.901
  273SOL     OW 1121   0.680   1.297   0.778
  273SOL    HW2 1122   0.681   1.390   0.797
  273SOL    HW3 1123   0.706   1.290   0.686
  273SOL    MW4 1124   0.683   1.308   0.768
  274SOL     OW 1125   0.672   1.576   0.791
  274SOL    HW2 1126   0.667   1.582   0.886
  274SOL    HW3 1127   0.590   1.615   0.759
  274SOL    MW4 1128   0.661   1.582   0.799
  275SOL     OW 1129   0.424   1.650   0.686
  275SOL    HW2 1130   0.423   1.742   0.661
  275SOL    HW3 1131   0.381   1.605   0.614
  275SOL    MW4 1132   0.418   1.656   0.673
  276SOL     OW 1133   0.425   1.941   0.626
  276SOL    HW2 1134   0.341   1.982   0.647
  276SOL    HW3 1135   0.451   1.980   0.543
  276SOL    MW4 1136   0.417   1.952   0.618
  277SOL     OW 1137   0.592   1.994   0.850
  277SOL    HW2 1138   0.546   1.973   0.931
  277SOL    HW3 1139   0.533   1.964   0.780
  277SOL    MW4 1140   0.578   1.988   0.851
  278SOL     OW 1141   0.642   2.237   0.732
  278SOL    HW2 1142   0.712   2.290   0.771
  278SOL    HW3 1143   0.634   2.162   0.792
  278SOL    MW4 1144   0.650   2.234   0.745
  279SOL     OW 1145   0.444   2.427   0.702
  279SOL    HW2 1146   0.518   2.368   0.716
  279SOL    HW3 1147   0.412   2.403   0.615
  279SOL    MW4 1148   0.449   2.416   0.692
  280SOL     OW 1149   0.451   2.689   0.772
  280SOL    HW2 1150   0.447   2.594   0.760
  280SOL    HW3 1151   0.364   2.720   0.747
  280SOL    MW4 1152   0.439   2.681   0.767
  281SOL     OW 1153   0.706   2.797   0.731
  281SOL    HW2 1154   0.769   2.755   0.789
  281SOL    HW3 1155   0.621   2.773   0.768
  281SOL    MW4 1156   0.703   2.788   0.744
  282SOL     OW 1157   0.722   3.076   0.765
  282SOL    HW2 1158   0.651   3.098   0.705
  282SOL    HW3 1159   0.714   2.982   0.779
  282SOL    MW4 1160   0.712   3.067   0.759
  283SOL     OW 1161   0.455   3.205   0.732
  283SOL    HW2 1162   0.455   3.293   0.769
  283SOL    HW3 1163   0.391   3.156   0.785
  283SOL    MW4 1164   0.447   3.210   0.744
  284SOL     OW 1165   0.506   3.480   0.843
  284SOL    HW2 1166   0.485   3.456   0.933
  284SOL    HW3 1167   0.421   3.498   0.802
  284SOL    MW4 1168   0.492   3.480   0.849
  285SOL     OW 1169   0.706   3.608   0.715
  285SOL    HW2 1170   0.645   3.572   0.779
  285SOL    HW3 1171   0.707   3.702   0.732
  285SOL    MW4 1172   0.698   3.616   0.726
  286SOL     OW 1173   0.690   3.874   0.794
  286SOL    HW2 1174   0.769   3.924   0.775
  286SOL    HW3 1175   0.618   3.930   0.765
  286SOL    MW4 1176   0.691   3.888   0.788
  287SOL     OW 1177   0.454   3.984   0.723
  287SOL    HW2 1178   0.444   4.073   0.756
  287SOL    HW3 1179   0.381   3.936   0.761
  287SOL    MW4 1180   0.443   3.990   0.732
  288SOL     OW 1181   0.470   4.250   0.824
  288SOL    HW2 1182   0.451   4.241   0.918
  288SOL    HW3 1183   0.403   4.310   0.792
  288SOL    MW4 1184   0.459   4.257   0.832
  289SOL     OW 1185   0.671   4.368   0.658
  289SOL    HW2 1186   0.606   4.336   0.721
  289SOL    HW3 1187   0.693   4.456   0.689
  289SOL    MW4 1188   0.665   4.376   0.670
  290SOL     OW 1189   1.120   4.643   0.820
  290SOL    HW2 1190   1.200   4.688   0.794
  290SOL    HW3 1191   1.049   4.697   0.783
  290SOL    MW4 1192   1.121   4.656   0.812
  291SOL     OW 1193   0.922   0.129   0.718
  291SOL    HW2 1194   0.921   0.219   0.750
  291SOL    HW3 1195   0.847   0.087   0.761
  291SOL    MW4 1196   0.912   0.135   0.728
  292SOL     OW 1197   0.914   0.377   0.825
  292SOL    HW2 1198   0.909   0.391   0.920
  292SOL    HW3 1199   0.993   0.423   0.798
  292SOL    MW4 1200   0.923   0.385   0.834
  293SOL     OW 1201   1.121   0.527   0.730
  293SOL    HW2 1202   1.205   0.491   0.757
  293SOL    HW3 1203   1.116   0.509   0.636
  293SOL    MW4 1204   1.131   0.520   0.721
  294SOL     OW 1205   1.131   0.768   0.850
  294SOL    HW2 1206   1.129   0.779   0.945
  294SOL    HW3 1207   1.117   0.675   0.837
  294SOL    MW4 1208   1.129   0.757   0.861
  295SOL     OW 1209   0.899   0.901   0.779
  295SOL    HW2 1210   0.984   0.864   0.800
  295SOL    HW3 1211   0.836   0.838   0.814
  295SOL    MW4 1212   0.902   0.888   0.786
  296SOL     OW 1213   0.901   1.163   0.858
  296SOL    HW2 1214   0.886   1.073   0.830
  296SOL    HW3 1215   0.816   1.206   0.849
  296SOL    MW4 1216   0.888   1.157   0.853
  297SOL     OW 1217   1.141   1.267   0.761
  297SOL    HW2 1218   1.057   1.254   0.805
  297SOL    HW3 1219   1.123   1.249   0.668
  297SOL    MW4 1220   1.128   1.263   0.754
  298SOL     OW 1221   1.102   1.549   0.826
  298SOL    HW2 1222   1.030   1.602   0.791
  298SOL    HW3 1223   1.089   1.463   0.786
  298SOL    MW4 1224   1.091   1.545   0.816
  299SOL     OW 1225   0.908   1.726   0.751
  299SOL    HW2 1226   0.902   1.801   0.809
  299SOL    HW3 1227   0.819   1.689   0.750
  299SOL    MW4 1228   0.896   1.731   0.758
  300SOL     OW 1229   0.872   1.985   0.876
  300SOL    HW2 1230   0.872   1.959   0.968
  300SOL    HW3 1231   0.780   1.981   0.850
  300SOL    MW4 1232   0.860   1.981   0.885
  301SOL     OW 1233   1.097   2.079   0.765
  301SOL    HW2 1234   1.099   2.171   0.793
  301SOL    HW3 1235   1.017   2.044   0.805
  301SOL    MW4 1236   1.087   2.086   0.774
  302SOL     OW 1237   1.090   2.342   0.845
  302SOL    HW2 1238   1.114   2.342   0.937
  302SOL    HW3 1239   1.157   2.395   0.802
  302SOL    MW4 1240   1.102   2.349   0.851
  303SOL     OW 1241   0.815   2.393   0.870
  303SOL    HW2 1242   0.907   2.369   0.861
  303SOL    HW3 1243   0.792   2.367   0.959
  303SOL    MW4 1244   0.824   2.386   0.881
  304SOL     OW 1245   0.906   2.661   0.890
  304SOL    HW2 1246   0.915   2.671   0.984
  304SOL    HW3 1247   0.888   2.568   0.877
  304SOL    MW4 1248   0.905   2.650   0.900
  305SOL     OW 1249   1.086   2.823   0.763
  305SOL    HW2 1250   1.029   2.753   0.794
  305SOL    HW3 1251   1.100   2.804   0.670
  305SOL    MW4 1252   1.081   2.811   0.755
  306SOL     OW 1253   1.146   3.075   0.865
  306SOL    HW2 1254   1.079   3.131   0.826
  306SOL    HW3 1255   1.130   2.989   0.826
  306SOL    MW4 1256   1.135   3.071   0.855
  307SOL     OW 1257   0.947   3.230   0.730
  307SOL    HW2 1258   0.931   3.313   0.776
  307SOL    HW3 1259   0.869   3.178   0.747
  307SOL    MW4 1260   0.935   3.234   0.738
  308SOL     OW 1261   0.933   3.485   0.829
  308SOL    HW2 1262   1.000   3.549   0.805
  308SOL    HW3 1263   0.850   3.530   0.817
  308SOL    MW4 1264   0.931   3.499   0.824
  309SOL     OW 1265   1.153   3.632   0.771
  309SOL    HW2 1266   1.227   3.586   0.810
  309SOL    HW3 1267   1.179   3.649   0.681
  309SOL    MW4 1268   1.166   3.628   0.764
  310SOL     OW 1269   1.119   3.915   0.825
  310SOL    HW2 1270   1.084   3.914   0.915
  310SOL    HW3 1271   1.124   3.823   0.800
  310SOL    MW4 1272   1.115   3.903   0.834
  311SOL     OW 1273   0.911   4.031   0.708
  311SOL    HW2 1274   0.903   4.118   0.747
  311SOL    HW3 1275   0.990   3.994   0.746
  311SOL    MW4 1276   0.920   4.038   0.718
  312SOL     OW 1277   0.889   4.270   0.808
  312SOL    HW2 1278   0.971   4.316   0.792
  312SOL    HW3 1279   0.830   4.303   0.741
  312SOL    MW4 1280   0.892   4.281   0.797
  313SOL     OW 1281   1.123   4.390   0.721
  313SOL    HW2 1282   1.196   4.339   0.755
  313SOL    HW3 1283   1.128   4.473   0.768
  313SOL    MW4 1284   1.133   4.394   0.732
  314SOL     OW 1285   1.527   4.648   0.839
  314SOL    HW2 1286   1.537   4.657   0.934
  314SOL    HW3 1287   1.457   4.708   0.816
  314SOL    MW4 1288   1.519   4.657   0.849
  315SOL     OW 1289   1.322   0.132   0.727
  315SOL    HW2 1290   1.338   0.225   0.742
  315SOL    HW3 1291   1.340   0.120   0.633
  315SOL    MW4 1292   1.326   0.143   0.716
  316SOL     OW 1293   1.353   0.397   0.817
  316SOL    HW2 1294   1.359   0.418   0.910
  316SOL    HW3 1295   1.425   0.446   0.778
  316SOL    MW4 1296   1.364   0.406   0.824
  317SOL     OW 1297   1.595   0.518   0.733
  317SOL    HW2 1298   1.612   0.608   0.762
  317SOL    HW3 1299   1.656   0.465   0.785
  317SOL    MW4 1300   1.606   0.523   0.744
  318SOL     OW 1301   1.534   0.793   0.820
  318SOL    HW2 1302   1.607   0.842   0.783
  318SOL    HW3 1303   1.456   0.836   0.786
  318SOL    MW4 1304   1.534   0.805   0.811
  319SOL     OW 1305   1.304   0.927   0.703
  319SOL    HW2 1306   1.320   0.993   0.769
  319SOL    HW3 1307   1.238   0.870   0.742
  319SOL    MW4 1308   1.297   0.928   0.717
  320SOL     OW 1309   1.385   1.138   0.858
  320SOL    HW2 1310   1.459   1.167   0.804
  320SOL    HW3 1311   1.314   1.199   0.837
  320SOL    MW4 1312   1.385   1.150   0.848
  321SOL     OW 1313   1.584   1.214   0.677
  321SOL    HW2 1314   1.562   1.307   0.671
  321SOL    HW3 1315   1.612   1.190   0.589
  321SOL    MW4 1316   1.585   1.223   0.665
  322SOL     OW 1317   1.696   1.658   0.818
  322SOL    HW2 1318   1.663   1.639   0.906
  322SOL    HW3 1319   1.777   1.607   0.812
  322SOL    MW4 1320   1.702   1.648   0.829
  323SOL     OW 1321   1.309   1.672   0.681
  323SOL    HW2 1322   1.327   1.762   0.707
  323SOL    HW3 1323   1.248   1.639   0.747
  323SOL    MW4 1324   1.303   1.680   0.693
  324SOL     OW 1325   1.340   1.929   0.786
  324SOL    HW2 1326   1.342   1.925   0.882
  324SOL    HW3 1327   1.256   1.969   0.765
  324SOL    MW4 1328   1.330   1.934   0.796
  325SOL     OW 1329   1.554   2.075   0.722
  325SOL    HW2 1330   1.476   2.021   0.738
  325SOL    HW3 1331   1.555   2.088   0.627
  325SOL    MW4 1332   1.544   2.070   0.712
  326SOL     OW 1333   1.530   2.308   0.838
  326SOL    HW2 1334   1.453   2.356   0.807
  326SOL    HW3 1335   1.530   2.228   0.785
  326SOL    MW4 1336   1.520   2.304   0.827
  327SOL     OW 1337   1.321   2.443   0.736
  327SOL    HW2 1338   1.343   2.533   0.759
  327SOL    HW3 1339   1.330   2.440   0.640
  327SOL    MW4 1340   1.325   2.454   0.726
  328SOL     OW 1341   1.338   2.702   0.816
  328SOL    HW2 1342   1.333   2.702   0.912
  328SOL    HW3 1343   1.253   2.737   0.788
  328SOL    MW4 1344   1.326   2.707   0.825
  329SOL     OW 1345   1.582   2.849   0.772
  329SOL    HW2 1346   1.575   2.915   0.841
  329SOL    HW3 1347   1.498   2.803   0.775
  329SOL    MW4 1348   1.570   2.852   0.782
  330SOL     OW 1349   1.569   3.086   0.893
  330SOL    HW2 1350   1.563   3.090   0.988
  330SOL    HW3 1351   1.492   3.134   0.862
  330SOL    MW4 1352   1.558   3.093   0.901
  331SOL     OW 1353   1.359   3.242   0.785
  331SOL    HW2 1354   1.289   3.182   0.811
  331SOL    HW3 1355   1.370   3.228   0.691
  331SOL    MW4 1356   1.351   3.233   0.776
  332SOL     OW 1357   1.354   3.511   0.894
  332SOL    HW2 1358   1.426   3.560   0.855
  332SOL    HW3 1359   1.359   3.425   0.854
  332SOL    MW4 1360   1.364   3.506   0.883
  333SOL     OW 1361   1.558   3.648   0.729
  333SOL    HW2 1362   1.637   3.604   0.758
  333SOL    HW3 1363   1.576   3.671   0.638
  333SOL    MW4 1364   1.571   3.646   0.721
  334SOL     OW 1365   1.550   3.903   0.850
  334SOL    HW2 1366   1.479   3.935   0.794
  334SOL    HW3 1367   1.573   3.818   0.813
  334SOL    MW4 1368   1.543   3.896   0.837
  335SOL     OW 1369   1.348   4.015   0.705
  335SOL    HW2 1370   1.264   4.002   0.750
  335SOL    HW3 1371   1.327   4.003   0.612
  335SOL    MW4 1372   1.334   4.012   0.698
  336SOL     OW 1373   1.365   4.256   0.809
  336SOL    HW2 1374   1.439   4.308   0.777
  336SOL    HW3 1375   1.381   4.168   0.776
  336SOL    MW4 1376   1.377   4.252   0.800
  337SOL     OW 1377   1.596   4.401   0.698
  337SOL    HW2 1378   1.678   4.370   0.737
  337SOL    HW3 1379   1.584   4.488   0.736
  337SOL    MW4 1380   1.605   4.408   0.708
  338SOL     OW 1381   1.763   0.101   0.739
  338SOL    HW2 1382   1.832   0.041   0.768
  338SOL    HW3 1383   1.682   0.061   0.771
  338SOL    MW4 1384   1.761   0.088   0.747
  339SOL     OW 1385   1.677   0.148   0.476
  339SOL    HW2 1386   1.590   0.109   0.478
  339SOL    HW3 1387   1.715   0.125   0.561
  339SOL    MW4 1388   1.671   0.140   0.487
  340SOL     OW 1389   1.783   0.359   0.853
  340SOL    HW2 1390   1.780   0.269   0.821
  340SOL    HW3 1391   1.871   0.389   0.831
  340SOL    MW4 1392   1.794   0.351   0.846
  341SOL     OW 1393   2.031   0.452   0.744
  341SOL    HW2 1394   2.029   0.469   0.650
  341SOL    HW3 1395   2.107   0.397   0.758
  341SOL    MW4 1396   2.041   0.447   0.733
  342SOL     OW 1397   1.989   0.738   0.824
  342SOL    HW2 1398   2.072   0.782   0.805
  342SOL    HW3 1399   2.001   0.648   0.793
  342SOL    MW4 1400   2.002   0.732   0.818
  343SOL     OW 1401   1.774   0.901   0.750
  343SOL    HW2 1402   1.808   0.972   0.804
  343SOL    HW3 1403   1.841   0.833   0.754
  343SOL    MW4 1404   1.787   0.901   0.757
  344SOL     OW 1405   1.802   1.157   0.893
  344SOL    HW2 1406   1.869   1.198   0.838
  344SOL    HW3 1407   1.720   1.168   0.845
  344SOL    MW4 1408   1.800   1.164   0.879
  345SOL     OW 1409   2.032   1.238   0.735
  345SOL    HW2 1410   2.116   1.210   0.770
  345SOL    HW3 1411   2.038   1.222   0.641
  345SOL    MW4 1412   2.044   1.232   0.727
  346SOL     OW 1413   1.931   1.505   0.734
  346SOL    HW2 1414   1.953   1.535   0.646
  346SOL    HW3 1415   1.974   1.419   0.742
  346SOL    MW4 1416   1.940   1.497   0.724
  347SOL     OW 1417   1.848   1.389   0.394
  347SOL    HW2 1418   1.912   1.454   0.422
  347SOL    HW3 1419   1.766   1.438   0.386
  347SOL    MW4 1420   1.846   1.404   0.396
  348SOL     OW 1421   1.757   1.945   0.806
  348SOL    HW2 1422   1.723   1.858   0.789
  348SOL    HW3 1423   1.681   2.003   0.800
  348SOL    MW4 1424   1.743   1.941   0.803
  349SOL     OW 1425   1.990   2.067   0.731
  349SOL    HW2 1426   2.009   2.150   0.774
  349SOL    HW3 1427   1.900   2.046   0.758
  349SOL    MW4 1428   1.980   2.075   0.740
  350SOL     OW 1429   2.061   2.308   0.818
  350SOL    HW2 1430   2.063   2.324   0.912
  350SOL    HW3 1431   1.985   2.357   0.787
  350SOL    MW4 1432   2.052   2.317   0.826
  351SOL     OW 1433   1.787   2.393   0.736
  351SOL    HW2 1434   1.708   2.345   0.762
  351SOL    HW3 1435   1.794   2.379   0.642
  351SOL    MW4 1436   1.778   2.385   0.727
  352SOL     OW 1437   1.784   2.656   0.809
  352SOL    HW2 1438   1.760   2.572   0.771
  352SOL    HW3 1439   1.708   2.712   0.793
  352SOL    MW4 1440   1.771   2.653   0.802
  353SOL     OW 1441   1.987   2.834   0.751
  353SOL    HW2 1442   2.065   2.804   0.797
  353SOL    HW3 1443   1.919   2.772   0.778
  353SOL    MW4 1444   1.988   2.822   0.761
  354SOL     OW 1445   1.989   3.103   0.847
  354SOL    HW2 1446   1.905   3.147   0.833
  354SOL    HW3 1447   1.970   3.011   0.832
  354SOL    MW4 1448   1.975   3.097   0.843
  355SOL     OW 1449   1.752   3.232   0.752
  355SOL    HW2 1450   1.686   3.176   0.792
  355SOL    HW3 1451   1.737   3.224   0.658
  355SOL    MW4 1452   1.742   3.223   0.745
  356SOL     OW 1453   1.774   3.499   0.840
  356SOL    HW2 1454   1.771   3.498   0.936
  356SOL    HW3 1455   1.751   3.410   0.814
  356SOL    MW4 1456   1.771   3.487   0.849
  357SOL     OW 1457   2.008   3.599   0.767
  357SOL    HW2 1458   2.014   3.673   0.827
  357SOL    HW3 1459   1.926   3.555   0.790
  357SOL    MW4 1460   1.998   3.603   0.778
  358SOL     OW 1461   2.022   3.845   0.901
  358SOL    HW2 1462   2.046   3.868   0.990
  358SOL    HW3 1463   1.938   3.889   0.886
  358SOL    MW4 1464   2.014   3.854   0.910
  359SOL     OW 1465   1.820   4.002   0.760
  359SOL    HW2 1466   1.732   3.974   0.785
  359SOL    HW3 1467   1.827   3.982   0.667
  359SOL    MW4 1468   1.810   3.995   0.751
  360SOL     OW 1469   1.822   4.289   0.823
  360SOL    HW2 1470   1.797   4.280   0.915
  360SOL    HW3 1471   1.817   4.200   0.788
  360SOL    MW4 1472   1.818   4.276   0.831
  361SOL     OW 1473   2.068   4.388   0.724
  361SOL    HW2 1474   1.984   4.349   0.749
  361SOL    HW3 1475   2.094   4.340   0.646
  361SOL    MW4 1476   2.060   4.377   0.717
  362SOL     OW 1477   2.604   4.590   0.772
  362SOL    HW2 1478   2.570   4.510   0.813
  362SOL    HW3 1479   2.541   4.658   0.798
  362SOL    MW4 1480   2.591   4.588   0.781
  363SOL     OW 1481   2.371   0.082   0.849
  363SOL    HW2 1482   2.378   0.046   0.937
  363SOL    HW3 1483   2.331   0.012   0.797
  363SOL    MW4 1484   2.367   0.068   0.854
  364SOL     OW 1485   2.247   0.324   0.839
  364SOL    HW2 1486   2.317   0.371   0.792
  364SOL    HW3 1487   2.282   0.236   0.853
  364SOL    MW4 1488   2.261   0.319   0.835
  365SOL     OW 1489   2.456   0.490   0.716
  365SOL    HW2 1490   2.459   0.445   0.631
  365SOL    HW3 1491   2.538   0.464   0.759
  365SOL    MW4 1492   2.467   0.481   0.710
  366SOL     OW 1493   2.438   0.766   0.653
  366SOL    HW2 1494   2.518   0.789   0.607
  366SOL    HW3 1495   2.431   0.671   0.643
  366SOL    MW4 1496   2.447   0.756   0.646
  367SOL     OW 1497   2.209   0.896   0.729
  367SOL    HW2 1498   2.277   0.840   0.692
  367SOL    HW3 1499   2.150   0.914   0.657
  367SOL    MW4 1500   2.210   0.891   0.715
  368SOL     OW 1501   2.287   1.151   0.812
  368SOL    HW2 1502   2.276   1.165   0.906
  368SOL    HW3 1503   2.275   1.057   0.800
  368SOL    MW4 1504   2.284   1.140   0.823
  369SOL     OW 1505   2.449   1.319   0.664
  369SOL    HW2 1506   2.386   1.260   0.705
  369SOL    HW3 1507   2.508   1.262   0.615
  369SOL    MW4 1508   2.448   1.304   0.663
  370SOL     OW 1509   2.435   1.549   0.846
  370SOL    HW2 1510   2.460   1.621   0.787
  370SOL    HW3 1511   2.446   1.470   0.794
  370SOL    MW4 1512   2.440   1.548   0.832
  371SOL     OW 1513   2.176   1.638   0.843
  371SOL    HW2 1514   2.253   1.583   0.859
  371SOL    HW3 1515   2.111   1.578   0.807
  371SOL    MW4 1516   2.178   1.623   0.840
  372SOL     OW 1517   2.201   1.923   0.843
  372SOL    HW2 1518   2.189   1.828   0.845
  372SOL    HW3 1519   2.120   1.957   0.804
  372SOL    MW4 1520   2.189   1.915   0.838
  373SOL     OW 1521   2.399   2.087   0.751
  373SOL    HW2 1522   2.328   2.033   0.785
  373SOL    HW3 1523   2.370   2.113   0.664
  373SOL    MW4 1524   2.386   2.083   0.744
  374SOL     OW 1525   2.426   2.317   0.902
  374SOL    HW2 1526   2.459   2.369   0.828
  374SOL    HW3 1527   2.405   2.232   0.863
  374SOL    MW4 1528   2.428   2.313   0.887
  375SOL     OW 1529   2.239   2.528   0.717
  375SOL    HW2 1530   2.332   2.507   0.709
  375SOL    HW3 1531   2.201   2.452   0.760
  375SOL    MW4 1532   2.246   2.515   0.721
  376SOL     OW 1533   2.223   2.763   0.855
  376SOL    HW2 1534   2.217   2.741   0.947
  376SOL    HW3 1535   2.212   2.680   0.808
  376SOL    MW4 1536   2.221   2.749   0.861
  377SOL     OW 1537   2.468   2.841   0.743
  377SOL    HW2 1538   2.544   2.806   0.790
  377SOL    HW3 1539   2.393   2.801   0.786
  377SOL    MW4 1540   2.468   2.831   0.755
  378SOL     OW 1541   2.472   3.103   0.814
  378SOL    HW2 1542   2.481   3.092   0.909
  378SOL    HW3 1543   2.453   3.015   0.781
  378SOL    MW4 1544   2.471   3.090   0.822
  379SOL     OW 1545   2.212   3.217   0.715
  379SOL    HW2 1546   2.137   3.169   0.749
  379SOL    HW3 1547   2.289   3.172   0.752
  379SOL    MW4 1548   2.213   3.205   0.725
  380SOL     OW 1549   2.228   3.466   0.849
  380SOL    HW2 1550   2.209   3.380   0.812
  380SOL    HW3 1551   2.153   3.520   0.822
  380SOL    MW4 1552   2.215   3.462   0.841
  381SOL     OW 1553   2.491   3.609   0.791
  381SOL    HW2 1554   2.570   3.563   0.821
  381SOL    HW3 1555   2.419   3.554   0.821
  381SOL    MW4 1556   2.492   3.596   0.799
  382SOL     OW 1557   2.503   3.878   0.866
  382SOL    HW2 1558   2.408   3.882   0.861
  382SOL    HW3 1559   2.524   3.788   0.842
  382SOL    MW4 1560   2.493   3.866   0.862
  383SOL     OW 1561   2.238   3.973   0.786
  383SOL    HW2 1562   2.167   3.926   0.828
  383SOL    HW3 1563   2.216   3.974   0.693
  383SOL    MW4 1564   2.226   3.967   0.779
  384SOL     OW 1565   2.271   4.246   0.839
  384SOL    HW2 1566   2.266   4.152   0.819
  384SOL    HW3 1567   2.196   4.284   0.794
  384SOL    MW4 1568   2.260   4.239   0.830
  385SOL     OW 1569   2.541   4.337   0.845
  385SOL    HW2 1570   2.574   4.307   0.930
  385SOL    HW3 1571   2.456   4.293   0.836
  385SOL    MW4 1572   2.534   4.327   0.855
  386SOL     OW 1573   2.866   4.630   0.859
  386SOL    HW2 1574   2.885   4.537   0.847
  386SOL    HW3 1575   2.772   4.637   0.846
  386SOL    MW4 1576   2.856   4.618   0.856
  387SOL     OW 1577   2.701   4.436   0.565
  387SOL    HW2 1578   2.774   4.478   0.518
  387SOL    HW3 1579   2.669   4.504   0.624
  387SOL    MW4 1580   2.707   4.451   0.567
  388SOL     OW 1581   2.671   0.376   0.844
  388SOL    HW2 1582   2.658   0.354   0.936
  388SOL    HW3 1583   2.756   0.420   0.842
  388SOL    MW4 1584   2.680   0.379   0.856
  389SOL     OW 1585   2.927   0.508   0.766
  389SOL    HW2 1586   2.989   0.447   0.806
  389SOL    HW3 1587   2.953   0.512   0.674
  389SOL    MW4 1588   2.939   0.501   0.759
  390SOL     OW 1589   2.878   0.782   0.843
  390SOL    HW2 1590   2.896   0.781   0.937
  390SOL    HW3 1591   2.894   0.692   0.815
  390SOL    MW4 1592   2.882   0.770   0.852
  391SOL     OW 1593   2.574   0.840   0.886
  391SOL    HW2 1594   2.667   0.826   0.872
  391SOL    HW3 1595   2.533   0.816   0.802
  391SOL    MW4 1596   2.581   0.835   0.873
  392SOL     OW 1597   2.590   1.116   0.881
  392SOL    HW2 1598   2.584   1.021   0.888
  392SOL    HW3 1599   2.501   1.144   0.859
  392SOL    MW4 1600   2.577   1.107   0.879
  393SOL     OW 1601   2.823   1.233   0.749
  393SOL    HW2 1602   2.904   1.197   0.784
  393SOL    HW3 1603   2.754   1.183   0.793
  393SOL    MW4 1604   2.824   1.221   0.759
  394SOL     OW 1605   2.848   1.512   0.814
  394SOL    HW2 1606   2.939   1.528   0.789
  394SOL    HW3 1607   2.830   1.423   0.783
  394SOL    MW4 1608   2.858   1.502   0.807
  395SOL     OW 1609   2.698   1.725   0.686
  395SOL    HW2 1610   2.716   1.807   0.732
  395SOL    HW3 1611   2.732   1.657   0.745
  395SOL    MW4 1612   2.705   1.727   0.700
  396SOL     OW 1613   2.683   1.979   0.788
  396SOL    HW2 1614   2.675   1.958   0.881
  396SOL    HW3 1615   2.594   1.999   0.761
  396SOL    MW4 1616   2.670   1.979   0.797
  397SOL     OW 1617   2.866   2.169   0.681
  397SOL    HW2 1618   2.865   2.251   0.729
  397SOL    HW3 1619   2.802   2.113   0.727
  397SOL    MW4 1620   2.857   2.172   0.693
  398SOL     OW 1621   2.846   2.418   0.835
  398SOL    HW2 1622   2.858   2.401   0.929
  398SOL    HW3 1623   2.774   2.481   0.831
  398SOL    MW4 1624   2.838   2.424   0.847
  399SOL     OW 1625   2.495   2.506   0.696
  399SOL    HW2 1626   2.497   2.525   0.602
  399SOL    HW3 1627   2.552   2.573   0.735
  399SOL    MW4 1628   2.503   2.517   0.689
  400SOL     OW 1629   2.678   2.671   0.834
  400SOL    HW2 1630   2.686   2.674   0.929
  400SOL    HW3 1631   2.751   2.724   0.802
  400SOL    MW4 1632   2.689   2.678   0.842
  401SOL     OW 1633   2.876   2.855   0.479
  401SOL    HW2 1634   2.891   2.763   0.455
  401SOL    HW3 1635   2.781   2.867   0.470
  401SOL    MW4 1636   2.865   2.844   0.475
  402SOL     OW 1637   2.946   3.093   0.852
  402SOL    HW2 1638   2.881   3.139   0.799
  402SOL    HW3 1639   2.939   3.001   0.824
  402SOL    MW4 1640   2.936   3.087   0.841
  403SOL     OW 1641   2.711   3.220   0.733
  403SOL    HW2 1642   2.709   3.307   0.773
  403SOL    HW3 1643   2.636   3.175   0.771
  403SOL    MW4 1644   2.701   3.226   0.744
  404SOL     OW 1645   2.711   3.465   0.874
  404SOL    HW2 1646   2.706   3.483   0.968
  404SOL    HW3 1647   2.798   3.495   0.848
  404SOL    MW4 1648   2.721   3.471   0.883
  405SOL     OW 1649   2.947   3.576   0.780
  405SOL    HW2 1650   2.963   3.670   0.791
  405SOL    HW3 1651   2.963   3.560   0.687
  405SOL    MW4 1652   2.951   3.587   0.769
  406SOL     OW 1653   2.958   3.835   0.873
  406SOL    HW2 1654   2.942   3.839   0.967
  406SOL    HW3 1655   2.878   3.871   0.834
  406SOL    MW4 1656   2.945   3.840   0.880
  407SOL     OW 1657   2.718   3.993   0.733
  407SOL    HW2 1658   2.639   3.969   0.780
  407SOL    HW3 1659   2.710   3.950   0.648
  407SOL    MW4 1660   2.707   3.984   0.728
  408SOL     OW 1661   2.832   4.349   0.858
  408SOL    HW2 1662   2.807   4.370   0.948
  408SOL    HW3 1663   2.912   4.297   0.866
  408SOL    MW4 1664   2.839   4.345   0.871
  409SOL     OW 1665   3.066   4.367   0.410
  409SOL    HW2 1666   3.148   4.367   0.460
  409SOL    HW3 1667   3.009   4.306   0.458
  409SOL    MW4 1668   3.069   4.359   0.423
  410SOL     OW 1669   3.358   4.653   0.836
  410SOL    HW2 1670   3.350   4.658   0.931
  410SOL    HW3 1671   3.270   4.671   0.803
  410SOL    MW4 1672   3.345   4.656   0.844
  411SOL     OW 1673   3.106   0.062   0.743
  411SOL    HW2 1674   3.106   0.156   0.759
  411SOL    HW3 1675   3.037   0.028   0.801
  411SOL    MW4 1676   3.097   0.070   0.753
  412SOL     OW 1677   3.120   0.322   0.864
  412SOL    HW2 1678   3.110   0.349   0.955
  412SOL    HW3 1679   3.187   0.381   0.829
  412SOL    MW4 1680   3.127   0.334   0.871
  413SOL     OW 1681   3.292   0.466   0.716
  413SOL    HW2 1682   3.384   0.447   0.736
  413SOL    HW3 1683   3.273   0.414   0.638
  413SOL    MW4 1684   3.301   0.457   0.708
  414SOL     OW 1685   3.347   0.736   0.774
  414SOL    HW2 1686   3.272   0.796   0.767
  414SOL    HW3 1687   3.309   0.649   0.764
  414SOL    MW4 1688   3.332   0.733   0.771
  415SOL     OW 1689   3.107   0.902   0.743
  415SOL    HW2 1690   3.104   0.998   0.741
  415SOL    HW3 1691   3.031   0.877   0.796
  415SOL    MW4 1692   3.097   0.912   0.750
  416SOL     OW 1693   3.088   1.171   0.837
  416SOL    HW2 1694   3.101   1.143   0.928
  416SOL    HW3 1695   3.174   1.201   0.808
  416SOL    MW4 1696   3.101   1.171   0.845
  417SOL     OW 1697   3.362   1.232   0.742
  417SOL    HW2 1698   3.449   1.206   0.770
  417SOL    HW3 1699   3.350   1.320   0.778
  417SOL    MW4 1700   3.372   1.240   0.750
  418SOL     OW 1701   3.341   1.503   0.829
  418SOL    HW2 1702   3.351   1.513   0.923
  418SOL    HW3 1703   3.430   1.516   0.794
  418SOL    MW4 1704   3.354   1.506   0.836
  419SOL     OW 1705   3.092   1.606   0.747
  419SOL    HW2 1706   3.174   1.558   0.760
  419SOL    HW3 1707   3.084   1.614   0.652
  419SOL    MW4 1708   3.102   1.601   0.736
  420SOL     OW 1709   3.204   1.848   0.775
  420SOL    HW2 1710   3.201   1.869   0.869
  420SOL    HW3 1711   3.161   1.763   0.768
  420SOL    MW4 1712   3.198   1.840   0.787
  421SOL     OW 1713   3.567   2.082   0.876
  421SOL    HW2 1714   3.505   2.154   0.869
  421SOL    HW3 1715   3.531   2.014   0.819
  421SOL    MW4 1716   3.554   2.082   0.868
  422SOL     OW 1717   3.406   2.303   0.858
  422SOL    HW2 1718   3.391   2.316   0.952
  422SOL    HW3 1719   3.487   2.350   0.840
  422SOL    MW4 1720   3.414   2.311   0.868
  423SOL     OW 1721   3.048   2.550   0.686
  423SOL    HW2 1722   3.106   2.478   0.663
  423SOL    HW3 1723   2.981   2.511   0.742
  423SOL    MW4 1724   3.047   2.536   0.690
  424SOL     OW 1725   3.169   2.733   0.829
  424SOL    HW2 1726   3.138   2.657   0.781
  424SOL    HW3 1727   3.219   2.783   0.764
  424SOL    MW4 1728   3.172   2.730   0.814
  425SOL     OW 1729   3.319   2.897   0.651
  425SOL    HW2 1730   3.257   2.933   0.588
  425SOL    HW3 1731   3.376   2.840   0.600
  425SOL    MW4 1732   3.318   2.894   0.636
  426SOL     OW 1733   3.481   3.052   0.827
  426SOL    HW2 1734   3.429   3.041   0.906
  426SOL    HW3 1735   3.434   3.002   0.760
  426SOL    MW4 1736   3.468   3.044   0.829
  427SOL     OW 1737   3.192   3.231   0.868
  427SOL    HW2 1738   3.245   3.199   0.941
  427SOL    HW3 1739   3.112   3.178   0.871
  427SOL    MW4 1740   3.189   3.220   0.878
  428SOL     OW 1741   3.190   3.504   0.909
  428SOL    HW2 1742   3.178   3.409   0.911
  428SOL    HW3 1743   3.110   3.538   0.868
  428SOL    MW4 1744   3.177   3.496   0.904
  429SOL     OW 1745   3.316   4.352   0.527
  429SOL    HW2 1746   3.337   4.264   0.495
  429SOL    HW3 1747   3.381   4.409   0.486
  429SOL    MW4 1748   3.327   4.348   0.518
  430SOL     OW 1749   3.471   3.936   0.845
  430SOL    HW2 1750   3.494   4.026   0.867
  430SOL    HW3 1751   3.416   3.906   0.917
  430SOL    MW4 1752   3.467   3.944   0.857
  431SOL     OW 1753   3.095   4.012   0.723
  431SOL    HW2 1754   3.176   3.975   0.689
  431SOL    HW3 1755   3.059   3.944   0.780
  431SOL    MW4 1756   3.101   3.998   0.726
  432SOL     OW 1757   3.077   4.252   0.869
  432SOL    HW2 1758   3.157   4.305   0.870
  432SOL    HW3 1759   3.105   4.168   0.833
  432SOL    MW4 1760   3.092   4.248   0.864
  433SOL     OW 1761   3.312   4.384   0.813
  433SOL    HW2 1762   3.340   4.474   0.828
  433SOL    HW3 1763   3.308   4.376   0.718
  433SOL    MW4 1764   3.315   4.395   0.802
  434SOL     OW 1765   3.771   0.010   0.830
  434SOL    HW2 1766   3.861   0.033   0.807
  434SOL    HW3 1767   3.719   0.085   0.801
  434SOL    MW4 1768   3.776   0.023   0.823
  435SOL     OW 1769   3.546   0.149   0.728
  435SOL    HW2 1770   3.484   0.100   0.782
  435SOL    HW3 1771   3.524   0.123   0.638
  435SOL    MW4 1772   3.535   0.139   0.723
  436SOL     OW 1773   3.539   0.406   0.860
  436SOL    HW2 1774   3.541   0.397   0.955
  436SOL    HW3 1775   3.537   0.316   0.827
  436SOL    MW4 1776   3.539   0.392   0.868
  437SOL     OW 1777   3.794   0.465   0.757
  437SOL    HW2 1778   3.802   0.558   0.779
  437SOL    HW3 1779   3.712   0.438   0.799
  437SOL    MW4 1780   3.784   0.474   0.765
  438SOL     OW 1781   3.834   0.733   0.834
  438SOL    HW2 1782   3.838   0.750   0.928
  438SOL    HW3 1783   3.908   0.783   0.798
  438SOL    MW4 1784   3.844   0.742   0.842
  439SOL     OW 1785   3.603   0.874   0.775
  439SOL    HW2 1786   3.680   0.823   0.801
  439SOL    HW3 1787   3.529   0.815   0.791
  439SOL    MW4 1788   3.603   0.859   0.781
  440SOL     OW 1789   3.612   1.148   0.824
  440SOL    HW2 1790   3.579   1.152   0.914
  440SOL    HW3 1791   3.621   1.054   0.806
  440SOL    MW4 1792   3.609   1.136   0.833
  441SOL     OW 1793   3.847   1.281   0.740
  441SOL    HW2 1794   3.768   1.241   0.776
  441SOL    HW3 1795   3.828   1.290   0.646
  441SOL    MW4 1796   3.834   1.277   0.732
  442SOL     OW 1797   3.828   1.521   0.867
  442SOL    HW2 1798   3.892   1.565   0.811
  442SOL    HW3 1799   3.834   1.429   0.842
  442SOL    MW4 1800   3.837   1.515   0.856
  443SOL     OW 1801   3.568   1.592   0.723
  443SOL    HW2 1802   3.546   1.684   0.737
  443SOL    HW3 1803   3.645   1.577   0.778
  443SOL    MW4 1804   3.575   1.602   0.732
  444SOL     OW 1805   3.766   2.033   0.701
  444SOL    HW2 1806   3.824   1.973   0.748
  444SOL    HW3 1807   3.704   2.063   0.766
  444SOL    MW4 1808   3.766   2.029   0.715
  445SOL     OW 1809   3.895   2.281   0.677
  445SOL    HW2 1810   3.843   2.340   0.732
  445SOL    HW3 1811   3.844   2.200   0.675
  445SOL    MW4 1812   3.881   2.278   0.684
  446SOL     OW 1813   4.094   1.688   0.432
  446SOL    HW2 1814   4.004   1.683   0.401
  446SOL    HW3 1815   4.114   1.782   0.434
  446SOL    MW4 1816   4.085   1.700   0.428
  447SOL     OW 1817   3.678   2.405   0.831
  447SOL    HW2 1818   3.658   2.498   0.822
  447SOL    HW3 1819   3.712   2.396   0.920
  447SOL    MW4 1820   3.680   2.416   0.842
  448SOL     OW 1821   3.613   2.672   0.810
  448SOL    HW2 1822   3.587   2.701   0.897
  448SOL    HW3 1823   3.694   2.719   0.792
  448SOL    MW4 1824   3.620   2.682   0.819
  449SOL     OW 1825   3.828   2.824   0.752
  449SOL    HW2 1826   3.788   2.903   0.787
  449SOL    HW3 1827   3.842   2.843   0.660
  449SOL    MW4 1828   3.825   2.837   0.745
  450SOL     OW 1829   3.763   3.071   0.871
  450SOL    HW2 1830   3.792   3.150   0.825
  450SOL    HW3 1831   3.668   3.071   0.861
  450SOL    MW4 1832   3.754   3.082   0.864
  451SOL     OW 1833   3.416   3.526   0.720
  451SOL    HW2 1834   3.425   3.434   0.696
  451SOL    HW3 1835   3.356   3.526   0.794
  451SOL    MW4 1836   3.409   3.514   0.727
  452SOL     OW 1837   3.645   3.498   0.858
  452SOL    HW2 1838   3.696   3.428   0.818
  452SOL    HW3 1839   3.568   3.507   0.802
  452SOL    MW4 1840   3.642   3.490   0.846
  453SOL     OW 1841   3.793   3.673   0.579
  453SOL    HW2 1842   3.702   3.691   0.603
  453SOL    HW3 1843   3.833   3.641   0.659
  453SOL    MW4 1844   3.786   3.671   0.592
  454SOL     OW 1845   3.730   3.807   0.859
  454SOL    HW2 1846   3.640   3.839   0.866
  454SOL    HW3 1847   3.724   3.713   0.880
  454SOL    MW4 1848   3.717   3.798   0.863
  455SOL     OW 1849   2.582   4.133   0.222
  455SOL    HW2 1850   2.531   4.147   0.143
  455SOL    HW3 1851   2.600   4.222   0.254
  455SOL    MW4 1852   2.578   4.147   0.216
  456SOL     OW 1853   3.512   4.212   0.880
  456SOL    HW2 1854   3.566   4.220   0.802
  456SOL    HW3 1855   3.426   4.245   0.854
  456SOL    MW4 1856   3.508   4.218   0.867
  457SOL     OW 1857   3.730   4.501   0.601
  457SOL    HW2 1858   3.728   4.409   0.628
  457SOL    HW3 1859   3.735   4.550   0.683
  457SOL    MW4 1860   3.730   4.495   0.615
  458SOL     OW 1861   4.302   4.664   0.849
  458SOL    HW2 1862   4.295   4.667   0.945
  458SOL    HW3 1863   4.217   4.696   0.818
  458SOL    MW4 1864   4.290   4.669   0.858
  459SOL     OW 1865   4.035   0.077   0.756
  459SOL    HW2 1866   4.033   0.172   0.771
  459SOL    HW3 1867   4.048   0.068   0.661
  459SOL    MW4 1868   4.036   0.089   0.745
  460SOL     OW 1869   4.022   0.339   0.837
  460SOL    HW2 1870   4.095   0.384   0.794
  460SOL    HW3 1871   3.944   0.380   0.800
  460SOL    MW4 1872   4.021   0.351   0.826
  461SOL     OW 1873   4.267   0.453   0.775
  461SOL    HW2 1874   4.353   0.426   0.807
  461SOL    HW3 1875   4.280   0.471   0.682
  461SOL    MW4 1876   4.280   0.452   0.767
  462SOL     OW 1877   4.253   0.729   0.862
  462SOL    HW2 1878   4.184   0.777   0.817
  462SOL    HW3 1879   4.244   0.639   0.831
  462SOL    MW4 1880   4.242   0.723   0.852
  463SOL     OW 1881   4.059   0.869   0.721
  463SOL    HW2 1882   4.056   0.961   0.746
  463SOL    HW3 1883   4.084   0.871   0.629
  463SOL    MW4 1884   4.062   0.882   0.712
  464SOL     OW 1885   4.028   1.124   0.830
  464SOL    HW2 1886   4.019   1.119   0.925
  464SOL    HW3 1887   3.965   1.191   0.803
  464SOL    MW4 1888   4.018   1.132   0.839
  465SOL     OW 1889   4.246   1.258   0.725
  465SOL    HW2 1890   4.177   1.217   0.777
  465SOL    HW3 1891   4.326   1.212   0.752
  465SOL    MW4 1892   4.248   1.246   0.736
  466SOL     OW 1893   4.238   1.516   0.822
  466SOL    HW2 1894   4.238   1.521   0.918
  466SOL    HW3 1895   4.238   1.422   0.803
  466SOL    MW4 1896   4.238   1.504   0.832
  467SOL     OW 1897   4.022   1.643   0.695
  467SOL    HW2 1898   4.100   1.602   0.732
  467SOL    HW3 1899   4.043   1.654   0.602
  467SOL    MW4 1900   4.035   1.639   0.687
  468SOL     OW 1901   3.985   1.903   0.828
  468SOL    HW2 1902   3.991   1.813   0.796
  468SOL    HW3 1903   4.055   1.950   0.783
  468SOL    MW4 1904   3.995   1.897   0.818
  469SOL     OW 1905   4.188   2.061   0.701
  469SOL    HW2 1906   4.277   2.042   0.732
  469SOL    HW3 1907   4.192   2.042   0.607
  469SOL    MW4 1908   4.201   2.056   0.693
  470SOL     OW 1909   4.241   2.348   0.799
  470SOL    HW2 1910   4.181   2.410   0.758
  470SOL    HW3 1911   4.212   2.262   0.769
  470SOL    MW4 1912   4.230   2.345   0.790
  471SOL     OW 1913   4.014   2.623   0.551
  471SOL    HW2 1914   4.009   2.633   0.646
  471SOL    HW3 1915   3.926   2.643   0.520
  471SOL    MW4 1916   4.002   2.627   0.560
  472SOL     OW 1917   4.046   2.655   0.824
  472SOL    HW2 1918   4.125   2.708   0.815
  472SOL    HW3 1919   3.974   2.716   0.811
  472SOL    MW4 1920   4.047   2.670   0.821
  473SOL     OW 1921   4.282   2.818   0.784
  473SOL    HW2 1922   4.367   2.777   0.801
  473SOL    HW3 1923   4.269   2.808   0.690
  473SOL    MW4 1924   4.291   2.812   0.774
  474SOL     OW 1925   4.251   3.105   0.855
  474SOL    HW2 1926   4.242   3.015   0.822
  474SOL    HW3 1927   4.333   3.135   0.817
  474SOL    MW4 1928   4.261   3.097   0.845
  475SOL     OW 1929   4.103   3.303   0.738
  475SOL    HW2 1930   4.166   3.373   0.756
  475SOL    HW3 1931   4.138   3.227   0.783
  475SOL    MW4 1932   4.116   3.302   0.747
  476SOL     OW 1933   3.970   3.610   0.795
  476SOL    HW2 1934   3.986   3.568   0.879
  476SOL    HW3 1935   4.001   3.700   0.807
  476SOL    MW4 1936   3.976   3.616   0.807
  477SOL     OW 1937   4.269   3.534   0.722
  477SOL    HW2 1938   4.201   3.597   0.746
  477SOL    HW3 1939   4.287   3.553   0.629
  477SOL    MW4 1940   4.263   3.545   0.713
  478SOL     OW 1941   4.106   3.855   0.875
  478SOL    HW2 1942   4.161   3.851   0.953
  478SOL    HW3 1943   4.065   3.941   0.879
  478SOL    MW4 1944   4.108   3.866   0.886
  479SOL     OW 1945   3.824   4.002   0.685
  479SOL    HW2 1946   3.801   3.931   0.745
  479SOL    HW3 1947   3.863   3.958   0.609
  479SOL    MW4 1948   3.826   3.986   0.683
  480SOL     OW 1949   3.983   4.119   0.859
  480SOL    HW2 1950   4.044   4.177   0.813
  480SOL    HW3 1951   3.937   4.072   0.789
  480SOL    MW4 1952   3.985   4.120   0.843
  481SOL     OW 1953   4.344   4.440   0.700
  481SOL    HW2 1954   4.322   4.505   0.767
  481SOL    HW3 1955   4.392   4.373   0.747
  481SOL    MW4 1956   4.347   4.440   0.715
  482SOL     OW 1957   0.258   4.636   1.112
  482SOL    HW2 1958   0.330   4.689   1.145
  482SOL    HW3 1959   0.262   4.647   1.017
  482SOL    MW4 1960   0.268   4.644   1.103
  483SOL     OW 1961   0.009   0.072   1.210
  483SOL    HW2 1962  -0.072   0.029   1.184
  483SOL    HW3 1963   0.079   0.012   1.182
  483SOL    MW4 1964   0.008   0.058   1.203
  484SOL     OW 1965   0.008   0.356   1.127
  484SOL    HW2 1966  -0.082   0.389   1.135
  484SOL    HW3 1967  -0.001   0.261   1.139
  484SOL    MW4 1968  -0.005   0.348   1.130
  485SOL     OW 1969   0.231   0.514   1.239
  485SOL    HW2 1970   0.225   0.602   1.203
  485SOL    HW3 1971   0.158   0.466   1.198
  485SOL    MW4 1972   0.220   0.519   1.229
  486SOL     OW 1973   0.211   0.770   1.145
  486SOL    HW2 1974   0.282   0.816   1.188
  486SOL    HW3 1975   0.132   0.814   1.175
  486SOL    MW4 1976   0.210   0.782   1.154
  487SOL     OW 1977   4.459   0.908   1.227
  487SOL    HW2 1978   4.466   0.905   1.323
  487SOL    HW3 1979   4.393   0.842   1.206
  487SOL    MW4 1980   4.451   0.899   1.237
  488SOL     OW 1981   4.473   1.177   1.115
  488SOL    HW2 1982   4.391   1.215   1.145
  488SOL    HW3 1983   4.467   1.085   1.137
  488SOL    MW4 1984   4.462   1.170   1.122
  489SOL     OW 1985   0.219   1.254   1.241
  489SOL    HW2 1986   0.293   1.206   1.203
  489SOL    HW3 1987   0.144   1.232   1.186
  489SOL    MW4 1988   0.219   1.245   1.229
  490SOL     OW 1989   0.233   1.538   1.139
  490SOL    HW2 1990   0.223   1.445   1.158
  490SOL    HW3 1991   0.213   1.546   1.046
  490SOL    MW4 1992   0.229   1.527   1.129
  491SOL     OW 1993   4.488   1.701   1.207
  491SOL    HW2 1994   4.485   1.786   1.163
  491SOL    HW3 1995   4.570   1.661   1.177
  491SOL    MW4 1996   4.499   1.707   1.197
  492SOL     OW 1997   0.012   1.956   1.085
  492SOL    HW2 1998  -0.071   1.979   1.127
  492SOL    HW3 1999  -0.006   1.960   0.992
  492SOL    MW4 2000  -0.002   1.960   1.079
  493SOL     OW 2001   0.252   2.057   1.194
  493SOL    HW2 2002   0.246   2.145   1.157
  493SOL    HW3 2003   0.177   2.010   1.158
  493SOL    MW4 2004   0.241   2.062   1.184
  494SOL     OW 2005   0.249   2.317   1.105
  494SOL    HW2 2006   0.322   2.370   1.138
  494SOL    HW3 2007   0.171   2.360   1.139
  494SOL    MW4 2008   0.249   2.330   1.114
  495SOL     OW 2009   0.010   2.462   1.194
  495SOL    HW2 2010   0.003   2.443   1.287
  495SOL    HW3 2011  -0.074   2.433   1.158
  495SOL    MW4 2012  -0.002   2.455   1.201
  496SOL     OW 2013   0.039   2.717   1.127
  496SOL    HW2 2014  -0.045   2.745   1.163
  496SOL    HW3 2015   0.049   2.626   1.158
  496SOL    MW4 2016   0.030   2.708   1.136
  497SOL     OW 2017   0.275   2.803   1.234
  497SOL    HW2 2018   0.252   2.802   1.327
  497SOL    HW3 2019   0.196   2.774   1.189
  497SOL    MW4 2020   0.262   2.799   1.240
  498SOL     OW 2021   0.213   3.075   1.158
  498SOL    HW2 2022   0.287   3.124   1.193
  498SOL    HW3 2023   0.220   2.988   1.197
  498SOL    MW4 2024   0.223   3.070   1.168
  499SOL     OW 2025   4.482   3.206   1.258
  499SOL    HW2 2026   4.413   3.166   1.205
  499SOL    HW3 2027   4.563   3.161   1.231
  499SOL    MW4 2028   4.484   3.195   1.247
  500SOL     OW 2029   4.476   3.456   1.127
  500SOL    HW2 2030   4.473   3.367   1.163
  500SOL    HW3 2031   4.502   3.444   1.036
  500SOL    MW4 2032   4.479   3.442   1.120
  501SOL     OW 2033   0.219   3.573   1.207
  501SOL    HW2 2034   0.224   3.573   1.302
  501SOL    HW3 2035   0.137   3.526   1.188
  501SOL    MW4 2036   0.209   3.567   1.217
  502SOL     OW 2037   0.231   3.839   1.108
  502SOL    HW2 2038   0.166   3.892   1.153
  502SOL    HW3 2039   0.218   3.751   1.142
  502SOL    MW4 2040   0.221   3.835   1.118
  503SOL     OW 2041   0.011   3.991   1.178
  503SOL    HW2 2042   0.005   3.991   1.274
  503SOL    HW3 2043  -0.069   3.947   1.150
  503SOL    MW4 2044  -0.001   3.985   1.187
  504SOL     OW 2045   4.461   4.258   1.100
  504SOL    HW2 2046   4.528   4.317   1.135
  504SOL    HW3 2047   4.486   4.171   1.131
  504SOL    MW4 2048   4.473   4.254   1.109
  505SOL     OW 2049   0.191   4.386   1.217
  505SOL    HW2 2050   0.204   4.380   1.312
  505SOL    HW3 2051   0.210   4.477   1.196
  505SOL    MW4 2052   0.195   4.397   1.227
  506SOL     OW 2053   0.668   4.650   1.086
  506SOL    HW2 2054   0.747   4.685   1.128
  506SOL    HW3 2055   0.652   4.566   1.131
  506SOL    MW4 2056   0.676   4.643   1.098
  507SOL     OW 2057   0.468   0.133   1.215
  507SOL    HW2 2058   0.472   0.221   1.178
  507SOL    HW3 2059   0.543   0.087   1.177
  507SOL    MW4 2060   0.478   0.139   1.205
  508SOL     OW 2061   0.445   0.395   1.117
  508SOL    HW2 2062   0.383   0.451   1.163
  508SOL    HW3 2063   0.409   0.388   1.028
  508SOL    MW4 2064   0.432   0.401   1.111
  509SOL     OW 2065   0.679   0.512   1.223
  509SOL    HW2 2066   0.672   0.606   1.206
  509SOL    HW3 2067   0.604   0.474   1.178
  509SOL    MW4 2068   0.668   0.519   1.215
  510SOL     OW 2069   0.699   0.792   1.175
  510SOL    HW2 2070   0.610   0.813   1.205
  510SOL    HW3 2071   0.694   0.797   1.080
  510SOL    MW4 2072   0.687   0.795   1.166
  511SOL     OW 2073   0.444   0.897   1.237
  511SOL    HW2 2074   0.408   0.890   1.326
  511SOL    HW3 2075   0.464   0.990   1.227
  511SOL    MW4 2076   0.441   0.908   1.248
  512SOL     OW 2077   0.473   1.172   1.185
  512SOL    HW2 2078   0.539   1.237   1.207
  512SOL    HW3 2079   0.472   1.170   1.089
  512SOL    MW4 2080   0.481   1.180   1.175
  513SOL     OW 2081   0.683   1.330   1.226
  513SOL    HW2 2082   0.763   1.283   1.205
  513SOL    HW3 2083   0.693   1.415   1.182
  513SOL    MW4 2084   0.695   1.335   1.218
  514SOL     OW 2085   0.701   1.559   1.068
  514SOL    HW2 2086   0.785   1.579   1.110
  514SOL    HW3 2087   0.639   1.620   1.108
  514SOL    MW4 2088   0.704   1.569   1.079
  515SOL     OW 2089   0.466   1.659   1.209
  515SOL    HW2 2090   0.478   1.641   1.302
  515SOL    HW3 2091   0.380   1.623   1.188
  515SOL    MW4 2092   0.456   1.652   1.219
  516SOL     OW 2093   0.476   1.906   1.089
  516SOL    HW2 2094   0.471   1.817   1.123
  516SOL    HW3 2095   0.396   1.948   1.121
  516SOL    MW4 2096   0.465   1.900   1.098
  517SOL     OW 2097   0.677   2.056   1.221
  517SOL    HW2 2098   0.686   2.027   1.312
  517SOL    HW3 2099   0.617   1.993   1.182
  517SOL    MW4 2100   0.670   2.044   1.228
  518SOL     OW 2101   0.713   2.324   1.110
  518SOL    HW2 2102   0.626   2.361   1.125
  518SOL    HW3 2103   0.705   2.232   1.136
  518SOL    MW4 2104   0.701   2.316   1.116
  519SOL     OW 2105   0.481   2.445   1.187
  519SOL    HW2 2106   0.496   2.444   1.281
  519SOL    HW3 2107   0.492   2.537   1.162
  519SOL    MW4 2108   0.485   2.457   1.196
  520SOL     OW 2109   0.515   2.714   1.095
  520SOL    HW2 2110   0.437   2.758   1.128
  520SOL    HW3 2111   0.499   2.705   1.000
  520SOL    MW4 2112   0.502   2.719   1.086
  521SOL     OW 2113   0.709   2.881   1.208
  521SOL    HW2 2114   0.708   2.957   1.149
  521SOL    HW3 2115   0.648   2.819   1.167
  521SOL    MW4 2116   0.701   2.883   1.195
  522SOL     OW 2117   0.674   3.091   1.048
  522SOL    HW2 2118   0.749   3.137   1.086
  522SOL    HW3 2119   0.688   3.095   0.954
  522SOL    MW4 2120   0.686   3.098   1.041
  523SOL     OW 2121   0.465   3.200   1.209
  523SOL    HW2 2122   0.448   3.284   1.166
  523SOL    HW3 2123   0.532   3.158   1.154
  523SOL    MW4 2124   0.472   3.205   1.196
  524SOL     OW 2125   0.449   3.461   1.120
  524SOL    HW2 2126   0.524   3.514   1.146
  524SOL    HW3 2127   0.372   3.511   1.148
  524SOL    MW4 2128   0.449   3.474   1.127
  525SOL     OW 2129   0.678   3.597   1.185
  525SOL    HW2 2130   0.654   3.609   1.277
  525SOL    HW3 2131   0.671   3.685   1.147
  525SOL    MW4 2132   0.674   3.610   1.192
  526SOL     OW 2133   0.690   3.852   1.064
  526SOL    HW2 2134   0.611   3.899   1.091
  526SOL    HW3 2135   0.691   3.859   0.969
  526SOL    MW4 2136   0.680   3.859   1.055
  527SOL     OW 2137   0.479   3.969   1.184
  527SOL    HW2 2138   0.472   4.061   1.157
  527SOL    HW3 2139   0.403   3.927   1.143
  527SOL    MW4 2140   0.468   3.976   1.175
  528SOL     OW 2141   0.423   4.241   1.106
  528SOL    HW2 2142   0.506   4.281   1.132
  528SOL    HW3 2143   0.357   4.290   1.156
  528SOL    MW4 2144   0.425   4.253   1.116
  529SOL     OW 2145   0.619   4.412   1.204
  529SOL    HW2 2146   0.599   4.390   1.295
  529SOL    HW3 2147   0.694   4.357   1.181
  529SOL    MW4 2148   0.627   4.402   1.213
  530SOL     OW 2149   1.125   4.636   1.103
  530SOL    HW2 2150   1.121   4.541   1.117
  530SOL    HW3 2151   1.122   4.646   1.008
  530SOL    MW4 2152   1.124   4.625   1.092
  531SOL     OW 2153   0.886   0.108   1.206
  531SOL    HW2 2154   0.889   0.091   1.300
  531SOL    HW3 2155   0.971   0.077   1.174
  531SOL    MW4 2156   0.898   0.102   1.214
  532SOL     OW 2157   0.890   0.378   1.128
  532SOL    HW2 2158   0.883   0.288   1.157
  532SOL    HW3 2159   0.812   0.421   1.162
  532SOL    MW4 2160   0.879   0.372   1.136
  533SOL     OW 2161   1.111   0.502   1.245
  533SOL    HW2 2162   1.095   0.498   1.340
  533SOL    HW3 2163   1.039   0.451   1.207
  533SOL    MW4 2164   1.099   0.495   1.253
  534SOL     OW 2165   1.127   0.757   1.122
  534SOL    HW2 2166   1.062   0.814   1.164
  534SOL    HW3 2167   1.125   0.676   1.174
  534SOL    MW4 2168   1.118   0.754   1.134
  535SOL     OW 2169   0.934   0.930   1.256
  535SOL    HW2 2170   0.927   1.023   1.235
  535SOL    HW3 2171   0.853   0.892   1.222
  535SOL    MW4 2172   0.922   0.937   1.249
  536SOL     OW 2173   0.919   1.190   1.145
  536SOL    HW2 2174   1.009   1.214   1.169
  536SOL    HW3 2175   0.921   1.183   1.050
  536SOL    MW4 2176   0.931   1.192   1.136
  537SOL     OW 2177   1.174   1.275   1.221
  537SOL    HW2 2178   1.155   1.278   1.314
  537SOL    HW3 2179   1.260   1.234   1.215
  537SOL    MW4 2180   1.183   1.270   1.232
  538SOL     OW 2181   1.174   1.542   1.100
  538SOL    HW2 2182   1.184   1.449   1.123
  538SOL    HW3 2183   1.143   1.542   1.010
  538SOL    MW4 2184   1.171   1.530   1.091
  539SOL     OW 2185   0.925   1.644   1.196
  539SOL    HW2 2186   0.919   1.739   1.187
  539SOL    HW3 2187   1.018   1.625   1.183
  539SOL    MW4 2188   0.936   1.654   1.193
  540SOL     OW 2189   0.902   1.917   1.154
  540SOL    HW2 2190   0.986   1.960   1.173
  540SOL    HW3 2191   0.837   1.971   1.200
  540SOL    MW4 2192   0.905   1.930   1.163
  541SOL     OW 2193   1.132   2.058   1.225
  541SOL    HW2 2194   1.114   2.072   1.318
  541SOL    HW3 2195   1.122   2.144   1.185
  541SOL    MW4 2196   1.128   2.071   1.232
  542SOL     OW 2197   1.125   2.306   1.127
  542SOL    HW2 2198   1.203   2.346   1.166
  542SOL    HW3 2199   1.052   2.360   1.158
  542SOL    MW4 2200   1.126   2.318   1.136
  543SOL     OW 2201   0.927   2.455   1.231
  543SOL    HW2 2202   0.937   2.435   1.324
  543SOL    HW3 2203   0.853   2.403   1.203
  543SOL    MW4 2204   0.919   2.446   1.240
  544SOL     OW 2205   0.930   2.725   1.148
  544SOL    HW2 2206   0.915   2.645   1.198
  544SOL    HW3 2207   0.852   2.779   1.165
  544SOL    MW4 2208   0.918   2.722   1.157
  545SOL     OW 2209   1.140   2.853   1.242
  545SOL    HW2 2210   1.140   2.839   1.337
  545SOL    HW3 2211   1.060   2.809   1.211
  545SOL    MW4 2212   1.129   2.845   1.250
  546SOL     OW 2213   1.110   3.113   1.143
  546SOL    HW2 2214   1.120   3.030   1.189
  546SOL    HW3 2215   1.125   3.092   1.051
  546SOL    MW4 2216   1.113   3.099   1.137
  547SOL     OW 2217   0.876   3.254   1.190
  547SOL    HW2 2218   0.898   3.347   1.181
  547SOL    HW3 2219   0.959   3.208   1.173
  547SOL    MW4 2220   0.890   3.260   1.186
  548SOL     OW 2221   0.933   3.513   1.118
  548SOL    HW2 2222   0.846   3.550   1.129
  548SOL    HW3 2223   0.941   3.495   1.024
  548SOL    MW4 2224   0.923   3.515   1.107
  549SOL     OW 2225   1.143   3.653   1.241
  549SOL    HW2 2226   1.220   3.599   1.226
  549SOL    HW3 2227   1.070   3.600   1.207
  549SOL    MW4 2228   1.143   3.639   1.234
  550SOL     OW 2229   1.099   3.899   1.097
  550SOL    HW2 2230   1.023   3.927   1.149
  550SOL    HW3 2231   1.122   3.813   1.132
  550SOL    MW4 2232   1.092   3.891   1.109
  551SOL     OW 2233   0.855   4.005   1.226
  551SOL    HW2 2234   0.883   3.983   1.315
  551SOL    HW3 2235   0.791   3.938   1.204
  551SOL    MW4 2236   0.850   3.994   1.235
  552SOL     OW 2237   0.818   4.249   1.090
  552SOL    HW2 2238   0.842   4.160   1.117
  552SOL    HW3 2239   0.817   4.245   0.994
  552SOL    MW4 2240   0.821   4.237   1.081
  553SOL     OW 2241   1.092   4.367   1.160
  553SOL    HW2 2242   1.090   4.350   1.254
  553SOL    HW3 2243   1.006   4.342   1.129
  553SOL    MW4 2244   1.081   4.361   1.168
  554SOL     OW 2245   1.553   4.654   1.137
  554SOL    HW2 2246   1.630   4.688   1.184
  554SOL    HW3 2247   1.557   4.560   1.149
  554SOL    MW4 2248   1.564   4.646   1.144
  555SOL     OW 2249   1.314   0.130   1.198
  555SOL    HW2 2250   1.395   0.085   1.173
  555SOL    HW3 2251   1.245   0.073   1.165
  555SOL    MW4 2252   1.316   0.116   1.190
  556SOL     OW 2253   1.331   0.414   1.101
  556SOL    HW2 2254   1.327   0.323   1.129
  556SOL    HW3 2255   1.264   0.458   1.153
  556SOL    MW4 2256   1.322   0.408   1.112
  557SOL     OW 2257   1.576   0.519   1.201
  557SOL    HW2 2258   1.584   0.608   1.166
  557SOL    HW3 2259   1.493   0.487   1.165
  557SOL    MW4 2260   1.566   0.526   1.191
  558SOL     OW 2261   1.592   0.784   1.102
  558SOL    HW2 2262   1.647   0.859   1.126
  558SOL    HW3 2263   1.578   0.793   1.008
  558SOL    MW4 2264   1.597   0.795   1.093
  559SOL     OW 2265   1.355   0.897   1.221
  559SOL    HW2 2266   1.430   0.850   1.185
  559SOL    HW3 2267   1.281   0.867   1.169
  559SOL    MW4 2268   1.355   0.887   1.209
  560SOL     OW 2269   1.416   1.152   1.135
  560SOL    HW2 2270   1.402   1.070   1.183
  560SOL    HW3 2271   1.407   1.128   1.043
  560SOL    MW4 2272   1.413   1.138   1.129
  561SOL     OW 2273   1.605   1.331   1.248
  561SOL    HW2 2274   1.691   1.292   1.230
  561SOL    HW3 2275   1.544   1.276   1.200
  561SOL    MW4 2276   1.609   1.318   1.239
  562SOL     OW 2277   1.646   1.579   1.100
  562SOL    HW2 2278   1.709   1.623   1.157
  562SOL    HW3 2279   1.629   1.495   1.142
  562SOL    MW4 2280   1.652   1.574   1.113
  563SOL     OW 2281   1.410   1.694   1.190
  563SOL    HW2 2282   1.488   1.656   1.150
  563SOL    HW3 2283   1.337   1.644   1.153
  563SOL    MW4 2284   1.411   1.682   1.180
  564SOL     OW 2285   1.318   1.922   1.070
  564SOL    HW2 2286   1.335   1.844   1.123
  564SOL    HW3 2287   1.248   1.968   1.117
  564SOL    MW4 2288   1.311   1.918   1.083
  565SOL     OW 2289   1.560   2.057   1.203
  565SOL    HW2 2290   1.560   2.147   1.170
  565SOL    HW3 2291   1.490   2.014   1.154
  565SOL    MW4 2292   1.550   2.063   1.192
  566SOL     OW 2293   1.573   2.330   1.125
  566SOL    HW2 2294   1.495   2.368   1.165
  566SOL    HW3 2295   1.556   2.333   1.031
  566SOL    MW4 2296   1.561   2.336   1.118
  567SOL     OW 2297   1.328   2.446   1.257
  567SOL    HW2 2298   1.317   2.454   1.351
  567SOL    HW3 2299   1.317   2.535   1.224
  567SOL    MW4 2300   1.325   2.459   1.265
  568SOL     OW 2301   1.351   2.683   1.110
  568SOL    HW2 2302   1.427   2.722   1.152
  568SOL    HW3 2303   1.277   2.738   1.138
  568SOL    MW4 2304   1.351   2.695   1.119
  569SOL     OW 2305   1.582   2.794   1.212
  569SOL    HW2 2306   1.658   2.756   1.167
  569SOL    HW3 2307   1.585   2.887   1.191
  569SOL    MW4 2308   1.592   2.801   1.203
  570SOL     OW 2309   1.588   3.078   1.173
  570SOL    HW2 2310   1.656   3.144   1.188
  570SOL    HW3 2311   1.507   3.122   1.197
  570SOL    MW4 2312   1.586   3.093   1.178
  571SOL     OW 2313   1.347   3.219   1.240
  571SOL    HW2 2314   1.351   3.210   1.335
  571SOL    HW3 2315   1.267   3.174   1.215
  571SOL    MW4 2316   1.337   3.212   1.249
  572SOL     OW 2317   1.385   3.486   1.193
  572SOL    HW2 2318   1.378   3.391   1.203
  572SOL    HW3 2319   1.355   3.504   1.104
  572SOL    MW4 2320   1.380   3.476   1.183
  573SOL     OW 2321   1.585   3.671   1.309
  573SOL    HW2 2322   1.593   3.748   1.252
  573SOL    HW3 2323   1.524   3.613   1.264
  573SOL    MW4 2324   1.578   3.673   1.296
  574SOL     OW 2325   1.584   3.911   1.130
  574SOL    HW2 2326   1.501   3.939   1.170
  574SOL    HW3 2327   1.567   3.909   1.036
  574SOL    MW4 2328   1.571   3.915   1.123
  575SOL     OW 2329   1.337   4.000   1.247
  575SOL    HW2 2330   1.335   4.090   1.213
  575SOL    HW3 2331   1.261   3.958   1.205
  575SOL    MW4 2332   1.326   4.007   1.237
  576SOL     OW 2333   1.342   4.251   1.102
  576SOL    HW2 2334   1.261   4.292   1.134
  576SOL    HW3 2335   1.346   4.276   1.010
  576SOL    MW4 2336   1.332   4.260   1.094
  577SOL     OW 2337   1.557   4.391   1.178
  577SOL    HW2 2338   1.545   4.390   1.273
  577SOL    HW3 2339   1.488   4.334   1.145
  577SOL    MW4 2340   1.546   4.384   1.187
  578SOL     OW 2341   1.984   4.636   1.093
  578SOL    HW2 2342   1.982   4.541   1.107
  578SOL    HW3 2343   1.994   4.646   0.999
  578SOL    MW4 2344   1.985   4.624   1.083
  579SOL     OW 2345   1.808   0.096   1.244
  579SOL    HW2 2346   1.819   0.182   1.202
  579SOL    HW3 2347   1.862   0.037   1.191
  579SOL    MW4 2348   1.817   0.100   1.232
  580SOL     OW 2349   1.795   0.365   1.139
  580SOL    HW2 2350   1.721   0.420   1.162
  580SOL    HW3 2351   1.799   0.369   1.043
  580SOL    MW4 2352   1.786   0.373   1.129
  581SOL     OW 2353   2.027   0.523   1.225
  581SOL    HW2 2354   2.032   0.512   1.320
  581SOL    HW3 2355   1.947   0.478   1.200
  581SOL    MW4 2356   2.017   0.516   1.235
  582SOL     OW 2357   1.990   0.764   1.108
  582SOL    HW2 2358   1.995   0.677   1.147
  582SOL    HW3 2359   1.980   0.747   1.014
  582SOL    MW4 2360   1.989   0.750   1.101
  583SOL     OW 2361   1.800   0.927   1.238
  583SOL    HW2 2362   1.794   0.907   1.331
  583SOL    HW3 2363   1.865   0.865   1.204
  583SOL    MW4 2364   1.808   0.916   1.246
  584SOL     OW 2365   1.838   1.187   1.162
  584SOL    HW2 2366   1.831   1.103   1.206
  584SOL    HW3 2367   1.823   1.167   1.070
  584SOL    MW4 2368   1.835   1.173   1.156
  585SOL     OW 2369   2.070   1.351   1.211
  585SOL    HW2 2370   2.139   1.298   1.172
  585SOL    HW3 2371   1.990   1.302   1.197
  585SOL    MW4 2372   2.069   1.338   1.204
  586SOL     OW 2373   2.054   1.632   1.120
  586SOL    HW2 2374   2.051   1.539   1.143
  586SOL    HW3 2375   2.078   1.634   1.028
  586SOL    MW4 2376   2.057   1.620   1.111
  587SOL     OW 2377   1.821   1.725   1.248
  587SOL    HW2 2378   1.809   1.813   1.212
  587SOL    HW3 2379   1.902   1.693   1.207
  587SOL    MW4 2380   1.830   1.733   1.237
  588SOL     OW 2381   1.801   1.968   1.098
  588SOL    HW2 2382   1.718   2.004   1.131
  588SOL    HW3 2383   1.785   1.953   1.005
  588SOL    MW4 2384   1.788   1.971   1.091
  589SOL     OW 2385   2.039   2.062   1.215
  589SOL    HW2 2386   2.014   2.069   1.307
  589SOL    HW3 2387   1.960   2.031   1.171
  589SOL    MW4 2388   2.025   2.059   1.221
  590SOL     OW 2389   2.042   2.330   1.108
  590SOL    HW2 2390   2.099   2.377   1.169
  590SOL    HW3 2391   2.060   2.237   1.126
  590SOL    MW4 2392   2.052   2.324   1.119
  591SOL     OW 2393   1.802   2.455   1.207
  591SOL    HW2 2394   1.875   2.411   1.164
  591SOL    HW3 2395   1.725   2.404   1.182
  591SOL    MW4 2396   1.802   2.443   1.198
  592SOL     OW 2397   1.806   2.694   1.084
  592SOL    HW2 2398   1.795   2.607   1.121
  592SOL    HW3 2399   1.796   2.683   0.990
  592SOL    MW4 2400   1.804   2.681   1.077
  593SOL     OW 2401   2.018   2.849   1.193
  593SOL    HW2 2402   1.998   2.940   1.170
  593SOL    HW3 2403   1.946   2.798   1.155
  593SOL    MW4 2404   2.006   2.855   1.185
  594SOL     OW 2405   2.010   3.112   1.125
  594SOL    HW2 2406   1.942   3.174   1.151
  594SOL    HW3 2407   1.997   3.100   1.031
  594SOL    MW4 2408   1.999   3.119   1.116
  595SOL     OW 2409   1.790   3.259   1.204
  595SOL    HW2 2410   1.794   3.261   1.300
  595SOL    HW3 2411   1.779   3.351   1.179
  595SOL    MW4 2412   1.789   3.272   1.213
  596SOL     OW 2413   1.777   3.525   1.120
  596SOL    HW2 2414   1.861   3.563   1.145
  596SOL    HW3 2415   1.715   3.562   1.183
  596SOL    MW4 2416   1.780   3.535   1.132
  597SOL     OW 2417   2.016   3.599   1.227
  597SOL    HW2 2418   2.027   3.594   1.322
  597SOL    HW3 2419   2.085   3.541   1.193
  597SOL    MW4 2420   2.027   3.590   1.235
  598SOL     OW 2421   2.048   3.872   1.168
  598SOL    HW2 2422   1.975   3.916   1.211
  598SOL    HW3 2423   2.035   3.779   1.187
  598SOL    MW4 2424   2.037   3.866   1.176
  599SOL     OW 2425   1.824   4.021   1.257
  599SOL    HW2 2426   1.835   4.007   1.351
  599SOL    HW3 2427   1.743   3.975   1.234
  599SOL    MW4 2428   1.815   4.013   1.266
  600SOL     OW 2429   1.758   4.235   1.091
  600SOL    HW2 2430   1.757   4.159   1.149
  600SOL    HW3 2431   1.682   4.287   1.118
  600SOL    MW4 2432   1.748   4.231   1.102
  601SOL     OW 2433   2.001   4.358   1.190
  601SOL    HW2 2434   1.993   4.382   1.282
  601SOL    HW3 2435   1.939   4.286   1.179
  601SOL    MW4 2436   1.992   4.352   1.201
  602SOL     OW 2437   2.425   4.653   1.108
  602SOL    HW2 2438   2.504   4.694   1.143
  602SOL    HW3 2439   2.354   4.694   1.157
  602SOL    MW4 2440   2.426   4.664   1.119
  603SOL     OW 2441   2.204   0.103   1.237
  603SOL    HW2 2442   2.200   0.191   1.201
  603SOL    HW3 2443   2.128   0.058   1.201
  603SOL    MW4 2444   2.194   0.109   1.228
  604SOL     OW 2445   2.198   0.349   1.125
  604SOL    HW2 2446   2.129   0.408   1.155
  604SOL    HW3 2447   2.211   0.372   1.033
  604SOL    MW4 2448   2.191   0.360   1.117
  605SOL     OW 2449   2.423   0.503   1.187
  605SOL    HW2 2450   2.427   0.511   1.283
  605SOL    HW3 2451   2.357   0.436   1.172
  605SOL    MW4 2452   2.415   0.495   1.198
  606SOL     OW 2453   2.471   0.762   1.143
  606SOL    HW2 2454   2.447   0.670   1.153
  606SOL    HW3 2455   2.464   0.778   1.049
  606SOL    MW4 2456   2.467   0.752   1.132
  607SOL     OW 2457   2.228   0.893   1.179
  607SOL    HW2 2458   2.308   0.842   1.168
  607SOL    HW3 2459   2.159   0.837   1.145
  607SOL    MW4 2460   2.230   0.879   1.173
  608SOL     OW 2461   2.245   1.166   1.087
  608SOL    HW2 2462   2.313   1.202   1.144
  608SOL    HW3 2463   2.229   1.078   1.122
  608SOL    MW4 2464   2.252   1.159   1.099
  609SOL     OW 2465   2.431   1.279   1.243
  609SOL    HW2 2466   2.501   1.225   1.206
  609SOL    HW3 2467   2.443   1.365   1.202
  609SOL    MW4 2468   2.441   1.283   1.233
  610SOL     OW 2469   2.475   1.519   1.121
  610SOL    HW2 2470   2.406   1.576   1.155
  610SOL    HW3 2471   2.476   1.537   1.027
  610SOL    MW4 2472   2.466   1.529   1.113
  611SOL     OW 2473   2.306   1.732   1.222
  611SOL    HW2 2474   2.308   1.823   1.192
  611SOL    HW3 2475   2.222   1.698   1.191
  611SOL    MW4 2476   2.295   1.740   1.214
  612SOL     OW 2477   2.282   2.004   1.120
  612SOL    HW2 2478   2.199   2.032   1.159
  612SOL    HW3 2479   2.259   1.976   1.031
  612SOL    MW4 2480   2.268   2.004   1.113
  613SOL     OW 2481   2.516   2.084   1.246
  613SOL    HW2 2482   2.591   2.055   1.193
  613SOL    HW3 2483   2.441   2.040   1.207
  613SOL    MW4 2484   2.516   2.074   1.234
  614SOL     OW 2485   2.489   2.342   1.164
  614SOL    HW2 2486   2.492   2.252   1.195
  614SOL    HW3 2487   2.476   2.334   1.069
  614SOL    MW4 2488   2.488   2.329   1.155
  615SOL     OW 2489   2.226   2.446   1.256
  615SOL    HW2 2490   2.235   2.448   1.352
  615SOL    HW3 2491   2.304   2.401   1.225
  615SOL    MW4 2492   2.237   2.441   1.265
  616SOL     OW 2493   2.254   2.704   1.139
  616SOL    HW2 2494   2.246   2.627   1.195
  616SOL    HW3 2495   2.169   2.746   1.144
  616SOL    MW4 2496   2.242   2.700   1.147
  617SOL     OW 2497   2.482   2.833   1.208
  617SOL    HW2 2498   2.466   2.833   1.302
  617SOL    HW3 2499   2.409   2.785   1.170
  617SOL    MW4 2500   2.470   2.827   1.215
  618SOL     OW 2501   2.458   3.098   1.084
  618SOL    HW2 2502   2.395   3.155   1.129
  618SOL    HW3 2503   2.457   3.017   1.135
  618SOL    MW4 2504   2.449   3.095   1.097
  619SOL     OW 2505   2.254   3.234   1.206
  619SOL    HW2 2506   2.255   3.330   1.197
  619SOL    HW3 2507   2.169   3.208   1.172
  619SOL    MW4 2508   2.243   3.243   1.201
  620SOL     OW 2509   2.247   3.501   1.136
  620SOL    HW2 2510   2.331   3.543   1.155
  620SOL    HW3 2511   2.245   3.492   1.041
  620SOL    MW4 2512   2.258   3.505   1.126
  621SOL     OW 2513   2.468   3.631   1.232
  621SOL    HW2 2514   2.475   3.636   1.327
  621SOL    HW3 2515   2.494   3.718   1.201
  621SOL    MW4 2516   2.473   3.643   1.240
  622SOL     OW 2517   2.520   3.904   1.144
  622SOL    HW2 2518   2.442   3.953   1.170
  622SOL    HW3 2519   2.518   3.905   1.048
  622SOL    MW4 2520   2.510   3.911   1.135
  623SOL     OW 2521   2.277   4.010   1.251
  623SOL    HW2 2522   2.243   4.097   1.230
  623SOL    HW3 2523   2.204   3.951   1.231
  623SOL    MW4 2524   2.263   4.014   1.245
  624SOL     OW 2525   2.247   4.254   1.119
  624SOL    HW2 2526   2.167   4.303   1.139
  624SOL    HW3 2527   2.248   4.247   1.023
  624SOL    MW4 2528   2.237   4.259   1.109
  625SOL     OW 2529   2.431   4.415   1.237
  625SOL    HW2 2530   2.358   4.364   1.204
  625SOL    HW3 2531   2.418   4.502   1.201
  625SOL    MW4 2532   2.420   4.420   1.228
  626SOL     OW 2533   2.903   0.043   1.137
  626SOL    HW2 2534   2.919  -0.049   1.155
  626SOL    HW3 2535   2.886   0.047   1.043
  626SOL    MW4 2536   2.903   0.032   1.127
  627SOL     OW 2537   2.644   0.115   1.224
  627SOL    HW2 2538   2.648   0.138   1.317
  627SOL    HW3 2539   2.732   0.086   1.202
  627SOL    MW4 2540   2.656   0.114   1.233
  628SOL     OW 2541   2.648   0.359   1.111
  628SOL    HW2 2542   2.636   0.274   1.153
  628SOL    HW3 2543   2.569   0.408   1.132
  628SOL    MW4 2544   2.636   0.354   1.119
  629SOL     OW 2545   2.877   0.495   1.238
  629SOL    HW2 2546   2.900   0.584   1.212
  629SOL    HW3 2547   2.810   0.468   1.176
  629SOL    MW4 2548   2.871   0.503   1.227
  630SOL     OW 2549   2.930   0.746   1.110
  630SOL    HW2 2550   3.011   0.792   1.132
  630SOL    HW3 2551   2.860   0.801   1.148
  630SOL    MW4 2552   2.931   0.759   1.118
  631SOL     OW 2553   2.721   0.890   1.205
  631SOL    HW2 2554   2.706   0.984   1.193
  631SOL    HW3 2555   2.635   0.850   1.189
  631SOL    MW4 2556   2.707   0.897   1.201
  632SOL     OW 2557   2.659   1.157   1.138
  632SOL    HW2 2558   2.740   1.206   1.133
  632SOL    HW3 2559   2.640   1.132   1.048
  632SOL    MW4 2560   2.667   1.160   1.126
  633SOL     OW 2561   2.918   1.275   1.173
  633SOL    HW2 2562   2.905   1.276   1.268
  633SOL    HW3 2563   2.917   1.367   1.147
  633SOL    MW4 2564   2.916   1.287   1.182
  634SOL     OW 2565   2.895   1.565   1.087
  634SOL    HW2 2566   2.977   1.611   1.105
  634SOL    HW3 2567   2.891   1.560   0.992
  634SOL    MW4 2568   2.905   1.570   1.077
  635SOL     OW 2569   2.683   1.683   1.212
  635SOL    HW2 2570   2.756   1.628   1.183
  635SOL    HW3 2571   2.605   1.636   1.183
  635SOL    MW4 2572   2.683   1.670   1.204
  636SOL     OW 2573   2.675   1.913   1.063
  636SOL    HW2 2574   2.757   1.958   1.083
  636SOL    HW3 2575   2.682   1.828   1.107
  636SOL    MW4 2576   2.687   1.907   1.071
  637SOL     OW 2577   2.909   2.045   1.134
  637SOL    HW2 2578   2.919   2.032   1.229
  637SOL    HW3 2579   2.915   2.140   1.123
  637SOL    MW4 2580   2.911   2.056   1.145
  638SOL     OW 2581   2.904   2.334   1.098
  638SOL    HW2 2582   2.985   2.374   1.130
  638SOL    HW3 2583   2.834   2.381   1.144
  638SOL    MW4 2584   2.905   2.346   1.108
  639SOL     OW 2585   2.708   2.472   1.236
  639SOL    HW2 2586   2.705   2.476   1.332
  639SOL    HW3 2587   2.631   2.421   1.212
  639SOL    MW4 2588   2.698   2.465   1.246
  640SOL     OW 2589   2.711   2.719   1.093
  640SOL    HW2 2590   2.727   2.642   1.147
  640SOL    HW3 2591   2.635   2.761   1.133
  640SOL    MW4 2592   2.703   2.715   1.106
  641SOL     OW 2593   2.933   2.865   1.173
  641SOL    HW2 2594   2.926   2.853   1.268
  641SOL    HW3 2595   2.859   2.818   1.137
  641SOL    MW4 2596   2.923   2.858   1.181
  642SOL     OW 2597   2.951   3.117   1.123
  642SOL    HW2 2598   2.952   3.027   1.155
  642SOL    HW3 2599   2.936   3.109   1.029
  642SOL    MW4 2600   2.949   3.104   1.115
  643SOL     OW 2601   2.700   3.229   1.199
  643SOL    HW2 2602   2.781   3.191   1.165
  643SOL    HW3 2603   2.630   3.174   1.163
  643SOL    MW4 2604   2.701   3.217   1.190
  644SOL     OW 2605   2.685   3.497   1.164
  644SOL    HW2 2606   2.686   3.403   1.184
  644SOL    HW3 2607   2.600   3.527   1.196
  644SOL    MW4 2608   2.674   3.489   1.171
  645SOL     OW 2609   2.897   3.655   1.269
  645SOL    HW2 2610   2.977   3.605   1.251
  645SOL    HW3 2611   2.827   3.601   1.233
  645SOL    MW4 2612   2.899   3.641   1.262
  646SOL     OW 2613   2.920   3.891   1.145
  646SOL    HW2 2614   3.003   3.919   1.185
  646SOL    HW3 2615   2.899   3.809   1.190
  646SOL    MW4 2616   2.928   3.884   1.156
  647SOL     OW 2617   2.708   4.072   1.225
  647SOL    HW2 2618   2.792   4.029   1.206
  647SOL    HW3 2619   2.642   4.007   1.200
  647SOL    MW4 2620   2.710   4.058   1.219
  648SOL     OW 2621   2.655   4.312   1.109
  648SOL    HW2 2622   2.681   4.230   1.152
  648SOL    HW3 2623   2.571   4.334   1.149
  648SOL    MW4 2624   2.647   4.304   1.120
  649SOL     OW 2625   2.874   4.436   1.188
  649SOL    HW2 2626   2.936   4.363   1.178
  649SOL    HW3 2627   2.790   4.400   1.162
  649SOL    MW4 2628   2.871   4.422   1.183
  650SOL     OW 2629   3.336   4.638   1.116
  650SOL    HW2 2630   3.427   4.663   1.130
  650SOL    HW3 2631   3.287   4.689   1.181
  650SOL    MW4 2632   3.342   4.648   1.127
  651SOL     OW 2633   3.149   0.143   1.232
  651SOL    HW2 2634   3.140   0.118   1.324
  651SOL    HW3 2635   3.069   0.112   1.190
  651SOL    MW4 2636   3.137   0.136   1.239
  652SOL     OW 2637   3.111   0.387   1.123
  652SOL    HW2 2638   3.122   0.297   1.154
  652SOL    HW3 2639   3.027   0.414   1.160
  652SOL    MW4 2640   3.102   0.379   1.132
  653SOL     OW 2641   3.369   0.475   1.214
  653SOL    HW2 2642   3.377   0.547   1.151
  653SOL    HW3 2643   3.280   0.443   1.201
  653SOL    MW4 2644   3.358   0.481   1.204
  654SOL     OW 2645   3.412   0.708   1.049
  654SOL    HW2 2646   3.347   0.758   1.099
  654SOL    HW3 2647   3.382   0.715   0.958
  654SOL    MW4 2648   3.400   0.716   1.044
  655SOL     OW 2649   3.204   0.831   1.153
  655SOL    HW2 2650   3.200   0.820   1.248
  655SOL    HW3 2651   3.189   0.924   1.138
  655SOL    MW4 2652   3.202   0.842   1.163
  656SOL     OW 2653   3.146   1.121   1.101
  656SOL    HW2 2654   3.216   1.182   1.123
  656SOL    HW3 2655   3.066   1.165   1.130
  656SOL    MW4 2656   3.144   1.135   1.107
  657SOL     OW 2657   3.351   1.276   1.186
  657SOL    HW2 2658   3.343   1.295   1.279
  657SOL    HW3 2659   3.361   1.362   1.145
  657SOL    MW4 2660   3.351   1.290   1.193
  658SOL     OW 2661   3.354   1.542   1.106
  658SOL    HW2 2662   3.437   1.580   1.137
  658SOL    HW3 2663   3.287   1.603   1.138
  658SOL    MW4 2664   3.356   1.555   1.115
  659SOL     OW 2665   3.143   1.691   1.178
  659SOL    HW2 2666   3.152   1.692   1.273
  659SOL    HW3 2667   3.151   1.783   1.152
  659SOL    MW4 2668   3.145   1.703   1.187
  660SOL     OW 2669   3.161   1.948   1.068
  660SOL    HW2 2670   3.223   2.004   1.115
  660SOL    HW3 2671   3.075   1.988   1.085
  660SOL    MW4 2672   3.158   1.961   1.076
  661SOL     OW 2673   3.368   2.055   1.237
  661SOL    HW2 2674   3.450   2.012   1.211
  661SOL    HW3 2675   3.382   2.148   1.219
  661SOL    MW4 2676   3.381   2.061   1.231
  662SOL     OW 2677   3.364   2.310   1.110
  662SOL    HW2 2678   3.431   2.368   1.146
  662SOL    HW3 2679   3.281   2.353   1.132
  662SOL    MW4 2680   3.362   2.323   1.117
  663SOL     OW 2681   3.124   2.438   1.200
  663SOL    HW2 2682   3.130   2.435   1.296
  663SOL    HW3 2683   3.120   2.531   1.180
  663SOL    MW4 2684   3.125   2.450   1.210
  664SOL     OW 2685   3.158   2.701   1.107
  664SOL    HW2 2686   3.088   2.759   1.137
  664SOL    HW3 2687   3.170   2.724   1.015
  664SOL    MW4 2688   3.150   2.711   1.099
  665SOL     OW 2689   3.362   2.898   1.235
  665SOL    HW2 2690   3.347   2.985   1.199
  665SOL    HW3 2691   3.284   2.848   1.210
  665SOL    MW4 2692   3.350   2.903   1.227
  666SOL     OW 2693   3.373   3.136   1.076
  666SOL    HW2 2694   3.462   3.141   1.113
  666SOL    HW3 2695   3.318   3.182   1.139
  666SOL    MW4 2696   3.378   3.143   1.090
  667SOL     OW 2697   3.165   3.222   1.249
  667SOL    HW2 2698   3.146   3.316   1.250
  667SOL    HW3 2699   3.093   3.185   1.198
  667SOL    MW4 2700   3.153   3.230   1.242
  668SOL     OW 2701   3.120   3.493   1.189
  668SOL    HW2 2702   3.199   3.513   1.239
  668SOL    HW3 2703   3.145   3.508   1.097
  668SOL    MW4 2704   3.134   3.497   1.183
  669SOL     OW 2705   3.368   3.600   1.246
  669SOL    HW2 2706   3.380   3.569   1.336
  669SOL    HW3 2707   3.439   3.559   1.197
  669SOL    MW4 2708   3.379   3.590   1.252
  670SOL     OW 2709   3.360   3.839   1.116
  670SOL    HW2 2710   3.297   3.896   1.160
  670SOL    HW3 2711   3.349   3.754   1.158
  670SOL    MW4 2712   3.350   3.835   1.127
  671SOL     OW 2713   3.167   3.987   1.259
  671SOL    HW2 2714   3.181   3.990   1.354
  671SOL    HW3 2715   3.132   4.073   1.237
  671SOL    MW4 2716   3.164   3.998   1.269
  672SOL     OW 2717   3.090   4.245   1.164
  672SOL    HW2 2718   3.161   4.305   1.185
  672SOL    HW3 2719   3.089   4.242   1.068
  672SOL    MW4 2720   3.099   4.252   1.154
  673SOL     OW 2721   3.304   4.396   1.235
  673SOL    HW2 2722   3.381   4.351   1.200
  673SOL    HW3 2723   3.301   4.479   1.186
  673SOL    MW4 2724   3.314   4.401   1.224
  674SOL     OW 2725   3.852   4.595   1.100
  674SOL    HW2 2726   3.850   4.502   1.123
  674SOL    HW3 2727   3.819   4.598   1.010
  674SOL    MW4 2728   3.847   4.583   1.091
  675SOL     OW 2729   3.607   0.046   1.199
  675SOL    HW2 2730   3.600   0.137   1.171
  675SOL    HW3 2731   3.691   0.017   1.165
  675SOL    MW4 2732   3.617   0.054   1.191
  676SOL     OW 2733   3.586   0.310   1.126
  676SOL    HW2 2734   3.648   0.383   1.136
  676SOL    HW3 2735   3.506   0.341   1.168
  676SOL    MW4 2736   3.583   0.324   1.133
  677SOL     OW 2737   3.793   0.507   1.219
  677SOL    HW2 2738   3.860   0.450   1.183
  677SOL    HW3 2739   3.805   0.591   1.174
  677SOL    MW4 2740   3.803   0.511   1.208
  678SOL     OW 2741   3.831   0.778   1.100
  678SOL    HW2 2742   3.905   0.812   1.151
  678SOL    HW3 2743   3.754   0.815   1.143
  678SOL    MW4 2744   3.831   0.787   1.113
  679SOL     OW 2745   3.587   0.888   1.200
  679SOL    HW2 2746   3.573   0.974   1.161
  679SOL    HW3 2747   3.529   0.830   1.151
  679SOL    MW4 2748   3.578   0.892   1.188
  680SOL     OW 2749   3.569   1.147   1.085
  680SOL    HW2 2750   3.645   1.194   1.120
  680SOL    HW3 2751   3.494   1.188   1.128
  680SOL    MW4 2752   3.569   1.159   1.095
  681SOL     OW 2753   3.786   1.281   1.207
  681SOL    HW2 2754   3.805   1.277   1.301
  681SOL    HW3 2755   3.789   1.374   1.186
  681SOL    MW4 2756   3.789   1.293   1.217
  682SOL     OW 2757   3.837   1.564   1.137
  682SOL    HW2 2758   3.911   1.621   1.156
  682SOL    HW3 2759   3.845   1.543   1.044
  682SOL    MW4 2760   3.848   1.568   1.127
  683SOL     OW 2761   3.583   1.684   1.190
  683SOL    HW2 2762   3.593   1.770   1.150
  683SOL    HW3 2763   3.669   1.642   1.178
  683SOL    MW4 2764   3.596   1.690   1.183
  684SOL     OW 2765   3.595   1.950   1.121
  684SOL    HW2 2766   3.676   1.987   1.156
  684SOL    HW3 2767   3.584   1.992   1.035
  684SOL    MW4 2768   3.604   1.960   1.114
  685SOL     OW 2769   3.830   2.082   1.232
  685SOL    HW2 2770   3.854   2.064   1.323
  685SOL    HW3 2771   3.909   2.061   1.182
  685SOL    MW4 2772   3.844   2.077   1.238
  686SOL     OW 2773   3.787   2.324   1.084
  686SOL    HW2 2774   3.865   2.366   1.121
  686SOL    HW3 2775   3.781   2.240   1.129
  686SOL    MW4 2776   3.796   2.319   1.095
  687SOL     OW 2777   3.579   2.497   1.174
  687SOL    HW2 2778   3.592   2.476   1.266
  687SOL    HW3 2779   3.650   2.451   1.128
  687SOL    MW4 2780   3.591   2.488   1.180
  688SOL     OW 2781   3.552   2.754   1.079
  688SOL    HW2 2782   3.545   2.664   1.111
  688SOL    HW3 2783   3.496   2.805   1.137
  688SOL    MW4 2784   3.544   2.749   1.091
  689SOL     OW 2785   3.820   2.762   1.169
  689SOL    HW2 2786   3.818   2.761   1.265
  689SOL    HW3 2787   3.728   2.760   1.143
  689SOL    MW4 2788   3.808   2.761   1.178
  690SOL     OW 2789   3.838   3.070   1.142
  690SOL    HW2 2790   3.844   2.977   1.163
  690SOL    HW3 2791   3.829   3.073   1.046
  690SOL    MW4 2792   3.837   3.058   1.132
  691SOL     OW 2793   3.596   3.194   1.243
  691SOL    HW2 2794   3.603   3.285   1.215
  691SOL    HW3 2795   3.675   3.152   1.209
  691SOL    MW4 2796   3.608   3.201   1.235
  692SOL     OW 2797   3.579   3.469   1.119
  692SOL    HW2 2798   3.647   3.519   1.164
  692SOL    HW3 2799   3.601   3.477   1.026
  692SOL    MW4 2800   3.591   3.477   1.113
  693SOL     OW 2801   3.799   3.593   1.226
  693SOL    HW2 2802   3.840   3.588   1.312
  693SOL    HW3 2803   3.811   3.683   1.198
  693SOL    MW4 2804   3.806   3.604   1.233
  694SOL     OW 2805   3.817   3.856   1.145
  694SOL    HW2 2806   3.742   3.905   1.179
  694SOL    HW3 2807   3.794   3.836   1.054
  694SOL    MW4 2808   3.804   3.860   1.138
  695SOL     OW 2809   3.579   3.988   1.230
  695SOL    HW2 2810   3.566   3.989   1.325
  695SOL    HW3 2811   3.520   3.919   1.199
  695SOL    MW4 2812   3.569   3.979   1.238
  696SOL     OW 2813   3.518   4.255   1.148
  696SOL    HW2 2814   3.520   4.164   1.176
  696SOL    HW3 2815   3.523   4.252   1.052
  696SOL    MW4 2816   3.519   4.243   1.139
  697SOL     OW 2817   3.792   4.347   1.206
  697SOL    HW2 2818   3.809   4.355   1.300
  697SOL    HW3 2819   3.704   4.308   1.200
  697SOL    MW4 2820   3.783   4.343   1.217
  698SOL     OW 2821   4.292   4.612   1.119
  698SOL    HW2 2822   4.278   4.536   1.175
  698SOL    HW3 2823   4.209   4.660   1.121
  698SOL    MW4 2824   4.279   4.608   1.126
  699SOL     OW 2825   4.075   0.092   1.182
  699SOL    HW2 2826   4.070   0.091   1.277
  699SOL    HW3 2827   3.998   0.043   1.153
  699SOL    MW4 2828   4.064   0.086   1.190
  700SOL     OW 2829   4.009   0.355   1.115
  700SOL    HW2 2830   4.043   0.269   1.139
  700SOL    HW3 2831   4.016   0.358   1.020
  700SOL    MW4 2832   4.014   0.344   1.106
  701SOL     OW 2833   4.254   0.455   1.187
  701SOL    HW2 2834   4.264   0.443   1.282
  701SOL    HW3 2835   4.165   0.425   1.168
  701SOL    MW4 2836   4.244   0.450   1.197
  702SOL     OW 2837   4.269   0.719   1.128
  702SOL    HW2 2838   4.294   0.628   1.141
  702SOL    HW3 2839   4.258   0.728   1.033
  702SOL    MW4 2840   4.271   0.708   1.117
  703SOL     OW 2841   4.075   0.895   1.237
  703SOL    HW2 2842   4.070   0.891   1.333
  703SOL    HW3 2843   4.140   0.829   1.213
  703SOL    MW4 2844   4.083   0.886   1.247
  704SOL     OW 2845   4.017   1.143   1.109
  704SOL    HW2 2846   4.036   1.061   1.154
  704SOL    HW3 2847   3.938   1.177   1.152
  704SOL    MW4 2848   4.009   1.137   1.120
  705SOL     OW 2849   4.232   1.314   1.197
  705SOL    HW2 2850   4.244   1.300   1.291
  705SOL    HW3 2851   4.157   1.259   1.174
  705SOL    MW4 2852   4.223   1.305   1.207
  706SOL     OW 2853   4.268   1.552   1.095
  706SOL    HW2 2854   4.249   1.473   1.147
  706SOL    HW3 2855   4.344   1.592   1.138
  706SOL    MW4 2856   4.275   1.547   1.108
  707SOL     OW 2857   4.056   1.711   1.191
  707SOL    HW2 2858   4.055   1.686   1.284
  707SOL    HW3 2859   4.118   1.650   1.151
  707SOL    MW4 2860   4.064   1.700   1.198
  708SOL     OW 2861   4.030   1.968   1.098
  708SOL    HW2 2862   4.031   1.881   1.137
  708SOL    HW3 2863   4.015   1.953   1.005
  708SOL    MW4 2864   4.028   1.955   1.091
  709SOL     OW 2865   4.269   2.078   1.196
  709SOL    HW2 2866   4.275   2.166   1.158
  709SOL    HW3 2867   4.182   2.047   1.172
  709SOL    MW4 2868   4.259   2.086   1.188
  710SOL     OW 2869   4.280   2.340   1.075
  710SOL    HW2 2870   4.205   2.388   1.110
  710SOL    HW3 2871   4.275   2.353   0.981
  710SOL    MW4 2872   4.270   2.348   1.067
  711SOL     OW 2873   4.026   2.418   1.185
  711SOL    HW2 2874   4.026   2.402   1.279
  711SOL    HW3 2875   4.036   2.513   1.177
  711SOL    MW4 2876   4.028   2.428   1.196
  712SOL     OW 2877   4.071   2.679   1.106
  712SOL    HW2 2878   3.989   2.723   1.129
  712SOL    HW3 2879   4.070   2.677   1.010
  712SOL    MW4 2880   4.060   2.685   1.096
  713SOL     OW 2881   4.268   2.824   1.237
  713SOL    HW2 2882   4.270   2.912   1.201
  713SOL    HW3 2883   4.197   2.780   1.191
  713SOL    MW4 2884   4.259   2.830   1.226
  714SOL     OW 2885   4.272   3.081   1.126
  714SOL    HW2 2886   4.192   3.123   1.156
  714SOL    HW3 2887   4.270   3.091   1.031
  714SOL    MW4 2888   4.261   3.087   1.117
  715SOL     OW 2889   4.044   3.251   1.195
  715SOL    HW2 2890   4.054   3.249   1.290
  715SOL    HW3 2891   3.971   3.193   1.177
  715SOL    MW4 2892   4.036   3.243   1.205
  716SOL     OW 2893   4.032   3.505   1.055
  716SOL    HW2 2894   4.057   3.416   1.079
  716SOL    HW3 2895   3.961   3.526   1.114
  716SOL    MW4 2896   4.026   3.496   1.066
  717SOL     OW 2897   4.242   3.605   1.189
  717SOL    HW2 2898   4.175   3.548   1.150
  717SOL    HW3 2899   4.324   3.558   1.173
  717SOL    MW4 2900   4.244   3.591   1.182
  718SOL     OW 2901   4.252   3.881   1.106
  718SOL    HW2 2902   4.178   3.918   1.154
  718SOL    HW3 2903   4.251   3.788   1.128
  718SOL    MW4 2904   4.242   3.874   1.115
  719SOL     OW 2905   4.035   3.991   1.236
  719SOL    HW2 2906   4.014   4.079   1.204
  719SOL    HW3 2907   3.966   3.935   1.202
  719SOL    MW4 2908   4.023   3.995   1.227
  720SOL     OW 2909   4.038   4.248   1.108
  720SOL    HW2 2910   3.955   4.289   1.134
  720SOL    HW3 2911   4.016   4.200   1.028
  720SOL    MW4 2912   4.024   4.247   1.101
  721SOL     OW 2913   4.249   4.359   1.245
  721SOL    HW2 2914   4.178   4.311   1.203
  721SOL    HW3 2915   4.327   4.333   1.196
  721SOL    MW4 2916   4.250   4.349   1.233
  722SOL     OW 2917   0.262   4.636   1.558
  722SOL    HW2 2918   0.336   4.683   1.519
  722SOL    HW3 2919   0.184   4.681   1.524
  722SOL    MW4 2920   0.261   4.648   1.548
  723SOL     OW 2921   0.020   0.102   1.482
  723SOL    HW2 2922  -0.043   0.040   1.520
  723SOL    HW3 2923   0.001   0.102   1.388
  723SOL    MW4 2924   0.009   0.094   1.475
  724SOL     OW 2925   0.018   0.352   1.606
  724SOL    HW2 2926  -0.002   0.333   1.698
  724SOL    HW3 2927   0.015   0.267   1.562
  724SOL    MW4 2928   0.015   0.338   1.612
  725SOL     OW 2929   0.240   0.485   1.512
  725SOL    HW2 2930   0.160   0.446   1.545
  725SOL    HW3 2931   0.232   0.481   1.417
  725SOL    MW4 2932   0.229   0.480   1.504
  726SOL     OW 2933   0.198   0.735   1.629
  726SOL    HW2 2934   0.266   0.789   1.587
  726SOL    HW3 2935   0.209   0.648   1.591
  726SOL    MW4 2936   0.208   0.731   1.618
  727SOL     OW 2937   4.470   0.874   1.495
  727SOL    HW2 2938   4.491   0.962   1.527
  727SOL    HW3 2939   4.527   0.816   1.545
  727SOL    MW4 2940   4.480   0.878   1.506
  728SOL     OW 2941   4.479   1.130   1.583
  728SOL    HW2 2942   4.489   1.127   1.678
  728SOL    HW3 2943   4.564   1.161   1.551
  728SOL    MW4 2944   4.492   1.134   1.591
  729SOL     OW 2945   0.209   1.284   1.518
  729SOL    HW2 2946   0.201   1.378   1.533
  729SOL    HW3 2947   0.216   1.275   1.423
  729SOL    MW4 2948   0.209   1.295   1.507
  730SOL     OW 2949   0.225   1.559   1.601
  730SOL    HW2 2950   0.213   1.551   1.696
  730SOL    HW3 2951   0.156   1.618   1.573
  730SOL    MW4 2952   0.214   1.565   1.610
  731SOL     OW 2953   4.475   1.688   1.485
  731SOL    HW2 2954   4.508   1.772   1.519
  731SOL    HW3 2955   4.493   1.693   1.391
  731SOL    MW4 2956   4.482   1.700   1.477
  732SOL     OW 2957   0.061   1.926   1.600
  732SOL    HW2 2958   0.048   1.933   1.694
  732SOL    HW3 2959  -0.015   1.971   1.562
  732SOL    MW4 2960   0.049   1.932   1.607
  733SOL     OW 2961   0.285   2.063   1.460
  733SOL    HW2 2962   0.206   2.019   1.491
  733SOL    HW3 2963   0.271   2.077   1.367
  733SOL    MW4 2964   0.273   2.059   1.452
  734SOL     OW 2965   0.257   2.324   1.560
  734SOL    HW2 2966   0.256   2.309   1.655
  734SOL    HW3 2967   0.251   2.237   1.521
  734SOL    MW4 2968   0.256   2.311   1.568
  735SOL     OW 2969   0.022   2.430   1.457
  735SOL    HW2 2970  -0.060   2.392   1.488
  735SOL    HW3 2971   0.091   2.377   1.499
  735SOL    MW4 2972   0.021   2.418   1.467
  736SOL     OW 2973   0.004   2.683   1.621
  736SOL    HW2 2974  -0.082   2.718   1.598
  736SOL    HW3 2975   0.002   2.592   1.592
  736SOL    MW4 2976  -0.008   2.675   1.614
  737SOL     OW 2977   0.216   2.831   1.502
  737SOL    HW2 2978   0.297   2.790   1.532
  737SOL    HW3 2979   0.146   2.785   1.547
  737SOL    MW4 2980   0.218   2.820   1.512
  738SOL     OW 2981   0.222   3.080   1.625
  738SOL    HW2 2982   0.138   3.119   1.599
  738SOL    HW3 2983   0.214   2.988   1.599
  738SOL    MW4 2984   0.210   3.073   1.618
  739SOL     OW 2985   4.484   3.206   1.519
  739SOL    HW2 2986   4.478   3.299   1.542
  739SOL    HW3 2987   4.479   3.204   1.424
  739SOL    MW4 2988   4.482   3.218   1.510
  740SOL     OW 2989   4.491   3.468   1.631
  740SOL    HW2 2990   4.480   3.471   1.726
  740SOL    HW3 2991   4.403   3.486   1.596
  740SOL    MW4 2992   4.478   3.471   1.639
  741SOL     OW 2993   0.199   3.593   1.480
  741SOL    HW2 2994   0.210   3.684   1.509
  741SOL    HW3 2995   0.131   3.557   1.537
  741SOL    MW4 2996   0.192   3.600   1.491
  742SOL     OW 2997   0.221   3.837   1.587
  742SOL    HW2 2998   0.222   3.849   1.682
  742SOL    HW3 2999   0.300   3.881   1.557
  742SOL    MW4 3000   0.231   3.844   1.596
  743SOL     OW 3001   0.002   3.984   1.457
  743SOL    HW2 3002  -0.011   4.069   1.499
  743SOL    HW3 3003   0.073   3.943   1.506
  743SOL    MW4 3004   0.010   3.990   1.469
  744SOL     OW 3005   4.473   4.248   1.568
  744SOL    HW2 3006   4.457   4.245   1.662
  744SOL    HW3 3007   4.395   4.290   1.532
  744SOL    MW4 3008   4.461   4.253   1.576
  745SOL     OW 3009   0.218   4.372   1.499
  745SOL    HW2 3010   0.141   4.348   1.550
  745SOL    HW3 3011   0.245   4.457   1.535
  745SOL    MW4 3012   0.212   4.380   1.511
  746SOL     OW 3013   0.676   4.597   1.609
  746SOL    HW2 3014   0.753   4.641   1.574
  746SOL    HW3 3015   0.602   4.651   1.581
  746SOL    MW4 3016   0.676   4.610   1.601
  747SOL     OW 3017   0.496   0.119   1.488
  747SOL    HW2 3018   0.492   0.209   1.522
  747SOL    HW3 3019   0.499   0.130   1.393
  747SOL    MW4 3020   0.496   0.133   1.480
  748SOL     OW 3021   0.481   0.387   1.584
  748SOL    HW2 3022   0.557   0.439   1.556
  748SOL    HW3 3023   0.407   0.429   1.540
  748SOL    MW4 3024   0.482   0.399   1.574
  749SOL     OW 3025   0.724   0.509   1.508
  749SOL    HW2 3026   0.716   0.603   1.520
  749SOL    HW3 3027   0.736   0.498   1.414
  749SOL    MW4 3028   0.725   0.520   1.497
  750SOL     OW 3029   0.643   0.777   1.579
  750SOL    HW2 3030   0.638   0.764   1.674
  750SOL    HW3 3031   0.729   0.816   1.565
  750SOL    MW4 3032   0.653   0.780   1.590
  751SOL     OW 3033   0.399   0.899   1.521
  751SOL    HW2 3034   0.401   0.981   1.571
  751SOL    HW3 3035   0.484   0.859   1.540
  751SOL    MW4 3036   0.411   0.905   1.530
  752SOL     OW 3037   0.442   1.163   1.614
  752SOL    HW2 3038   0.515   1.207   1.570
  752SOL    HW3 3039   0.365   1.215   1.590
  752SOL    MW4 3040   0.441   1.176   1.605
  753SOL     OW 3041   0.668   1.297   1.499
  753SOL    HW2 3042   0.683   1.383   1.538
  753SOL    HW3 3043   0.660   1.314   1.405
  753SOL    MW4 3044   0.669   1.310   1.492
  754SOL     OW 3045   0.700   1.547   1.644
  754SOL    HW2 3046   0.763   1.603   1.598
  754SOL    HW3 3047   0.615   1.574   1.610
  754SOL    MW4 3048   0.697   1.558   1.634
  755SOL     OW 3049   0.467   1.638   1.508
  755SOL    HW2 3050   0.454   1.731   1.526
  755SOL    HW3 3051   0.385   1.597   1.535
  755SOL    MW4 3052   0.454   1.645   1.514
  756SOL     OW 3053   0.471   1.918   1.597
  756SOL    HW2 3054   0.436   1.925   1.686
  756SOL    HW3 3055   0.406   1.963   1.543
  756SOL    MW4 3056   0.458   1.925   1.602
  757SOL     OW 3057   0.714   2.012   1.501
  757SOL    HW2 3058   0.782   1.972   1.554
  757SOL    HW3 3059   0.632   1.978   1.537
  757SOL    MW4 3060   0.712   2.003   1.513
  758SOL     OW 3061   0.711   2.284   1.620
  758SOL    HW2 3062   0.648   2.338   1.573
  758SOL    HW3 3063   0.701   2.196   1.582
  758SOL    MW4 3064   0.701   2.279   1.609
  759SOL     OW 3065   0.507   2.426   1.487
  759SOL    HW2 3066   0.499   2.517   1.515
  759SOL    HW3 3067   0.435   2.381   1.532
  759SOL    MW4 3068   0.496   2.432   1.497
  760SOL     OW 3069   0.466   2.699   1.583
  760SOL    HW2 3070   0.456   2.705   1.678
  760SOL    HW3 3071   0.538   2.758   1.562
  760SOL    MW4 3072   0.474   2.707   1.593
  761SOL     OW 3073   0.684   2.858   1.489
  761SOL    HW2 3074   0.700   2.948   1.519
  761SOL    HW3 3075   0.677   2.866   1.394
  761SOL    MW4 3076   0.686   2.871   1.480
  762SOL     OW 3077   0.699   3.113   1.612
  762SOL    HW2 3078   0.758   3.167   1.559
  762SOL    HW3 3079   0.611   3.136   1.580
  762SOL    MW4 3080   0.695   3.123   1.601
  763SOL     OW 3081   0.466   3.181   1.503
  763SOL    HW2 3082   0.387   3.148   1.547
  763SOL    HW3 3083   0.449   3.170   1.410
  763SOL    MW4 3084   0.454   3.175   1.497
  764SOL     OW 3085   0.437   3.474   1.597
  764SOL    HW2 3086   0.457   3.395   1.546
  764SOL    HW3 3087   0.364   3.515   1.550
  764SOL    MW4 3088   0.430   3.469   1.584
  765SOL     OW 3089   0.642   3.611   1.471
  765SOL    HW2 3090   0.710   3.574   1.529
  765SOL    HW3 3091   0.560   3.574   1.505
  765SOL    MW4 3092   0.640   3.601   1.483
  766SOL     OW 3093   0.682   3.858   1.551
  766SOL    HW2 3094   0.770   3.892   1.535
  766SOL    HW3 3095   0.685   3.767   1.519
  766SOL    MW4 3096   0.694   3.850   1.544
  767SOL     OW 3097   0.437   3.965   1.466
  767SOL    HW2 3098   0.528   3.940   1.481
  767SOL    HW3 3099   0.432   3.979   1.371
  767SOL    MW4 3100   0.448   3.964   1.455
  768SOL     OW 3101   0.415   4.207   1.593
  768SOL    HW2 3102   0.411   4.117   1.558
  768SOL    HW3 3103   0.341   4.251   1.551
  768SOL    MW4 3104   0.405   4.201   1.583
  769SOL     OW 3105   0.643   4.348   1.481
  769SOL    HW2 3106   0.561   4.309   1.508
  769SOL    HW3 3107   0.648   4.431   1.529
  769SOL    MW4 3108   0.633   4.354   1.491
  770SOL     OW 3109   1.136   4.572   1.555
  770SOL    HW2 3110   1.124   4.588   1.649
  770SOL    HW3 3111   1.203   4.635   1.528
  770SOL    MW4 3112   1.143   4.583   1.564
  771SOL     OW 3113   0.910   0.047   1.495
  771SOL    HW2 3114   0.919   0.119   1.557
  771SOL    HW3 3115   0.993  -0.001   1.502
  771SOL    MW4 3116   0.922   0.050   1.504
  772SOL     OW 3117   0.916   0.331   1.610
  772SOL    HW2 3118   0.921   0.345   1.704
  772SOL    HW3 3119   0.846   0.388   1.580
  772SOL    MW4 3120   0.908   0.340   1.618
  773SOL     OW 3121   1.124   0.504   1.531
  773SOL    HW2 3122   1.093   0.594   1.544
  773SOL    HW3 3123   1.050   0.449   1.559
  773SOL    MW4 3124   1.110   0.509   1.537
  774SOL     OW 3125   1.102   0.766   1.642
  774SOL    HW2 3126   1.126   0.731   1.728
  774SOL    HW3 3127   1.185   0.798   1.606
  774SOL    MW4 3128   1.116   0.765   1.648
  775SOL     OW 3129   0.880   0.879   1.505
  775SOL    HW2 3130   0.956   0.844   1.551
  775SOL    HW3 3131   0.908   0.886   1.414
  775SOL    MW4 3132   0.894   0.875   1.499
  776SOL     OW 3133   0.867   1.125   1.623
  776SOL    HW2 3134   0.871   1.039   1.581
  776SOL    HW3 3135   0.806   1.175   1.570
  776SOL    MW4 3136   0.860   1.120   1.611
  777SOL     OW 3137   1.107   1.271   1.488
  777SOL    HW2 3138   1.180   1.227   1.532
  777SOL    HW3 3139   1.029   1.232   1.527
  777SOL    MW4 3140   1.106   1.260   1.499
  778SOL     OW 3141   1.138   1.524   1.569
  778SOL    HW2 3142   1.224   1.538   1.529
  778SOL    HW3 3143   1.117   1.432   1.549
  778SOL    MW4 3144   1.146   1.513   1.561
  779SOL     OW 3145   0.904   1.649   1.481
  779SOL    HW2 3146   0.983   1.607   1.515
  779SOL    HW3 3147   0.905   1.629   1.388
  779SOL    MW4 3148   0.915   1.641   1.473
  780SOL     OW 3149   0.923   1.877   1.631
  780SOL    HW2 3150   0.991   1.934   1.595
  780SOL    HW3 3151   0.912   1.809   1.565
  780SOL    MW4 3152   0.930   1.876   1.618
  781SOL     OW 3153   1.103   2.051   1.514
  781SOL    HW2 3154   1.175   1.993   1.536
  781SOL    HW3 3155   1.118   2.130   1.567
  781SOL    MW4 3156   1.114   2.054   1.524
  782SOL     OW 3157   1.139   2.292   1.640
  782SOL    HW2 3158   1.220   2.329   1.603
  782SOL    HW3 3159   1.069   2.339   1.595
  782SOL    MW4 3160   1.141   2.303   1.629
  783SOL     OW 3161   0.926   2.417   1.508
  783SOL    HW2 3162   0.902   2.506   1.534
  783SOL    HW3 3163   0.860   2.361   1.550
  783SOL    MW4 3164   0.914   2.421   1.517
  784SOL     OW 3165   0.874   2.681   1.590
  784SOL    HW2 3166   0.891   2.695   1.683
  784SOL    HW3 3167   0.800   2.739   1.571
  784SOL    MW4 3168   0.866   2.691   1.600
  785SOL     OW 3169   1.098   2.834   1.516
  785SOL    HW2 3170   1.075   2.927   1.514
  785SOL    HW3 3171   1.016   2.789   1.530
  785SOL    MW4 3172   1.084   2.840   1.517
  786SOL     OW 3173   1.094   3.103   1.566
  786SOL    HW2 3174   1.098   3.104   1.661
  786SOL    HW3 3175   1.165   3.162   1.538
  786SOL    MW4 3176   1.104   3.111   1.575
  787SOL     OW 3177   0.886   3.270   1.470
  787SOL    HW2 3178   0.947   3.204   1.502
  787SOL    HW3 3179   0.879   3.254   1.376
  787SOL    MW4 3180   0.893   3.259   1.462
  788SOL     OW 3181   0.839   3.484   1.622
  788SOL    HW2 3182   0.925   3.524   1.610
  788SOL    HW3 3183   0.842   3.404   1.569
  788SOL    MW4 3184   0.851   3.479   1.613
  789SOL     OW 3185   1.113   3.596   1.531
  789SOL    HW2 3186   1.184   3.539   1.559
  789SOL    HW3 3187   1.138   3.624   1.443
  789SOL    MW4 3188   1.126   3.592   1.523
  790SOL     OW 3189   1.138   3.844   1.632
  790SOL    HW2 3190   1.221   3.888   1.616
  790SOL    HW3 3191   1.153   3.753   1.604
  790SOL    MW4 3192   1.151   3.838   1.626
  791SOL     OW 3193   0.924   3.978   1.503
  791SOL    HW2 3194   0.916   4.065   1.542
  791SOL    HW3 3195   0.998   3.938   1.549
  791SOL    MW4 3196   0.933   3.984   1.514
  792SOL     OW 3197   0.885   4.270   1.575
  792SOL    HW2 3198   0.874   4.277   1.670
  792SOL    HW3 3199   0.801   4.297   1.539
  792SOL    MW4 3200   0.873   4.274   1.583
  793SOL     OW 3201   1.131   4.316   1.428
  793SOL    HW2 3202   1.050   4.290   1.473
  793SOL    HW3 3203   1.149   4.405   1.460
  793SOL    MW4 3204   1.122   4.325   1.438
  794SOL     OW 3205   1.579   4.634   1.549
  794SOL    HW2 3206   1.573   4.647   1.644
  794SOL    HW3 3207   1.493   4.660   1.516
  794SOL    MW4 3208   1.567   4.639   1.557
  795SOL     OW 3209   1.327   0.083   1.483
  795SOL    HW2 3210   1.352   0.164   1.527
  795SOL    HW3 3211   1.315   0.109   1.391
  795SOL    MW4 3212   1.329   0.097   1.477
  796SOL     OW 3213   1.349   0.343   1.568
  796SOL    HW2 3214   1.423   0.400   1.548
  796SOL    HW3 3215   1.272   0.396   1.549
  796SOL    MW4 3216   1.349   0.357   1.563
  797SOL     OW 3217   1.552   0.511   1.472
  797SOL    HW2 3218   1.630   0.468   1.507
  797SOL    HW3 3219   1.572   0.523   1.379
  797SOL    MW4 3220   1.565   0.507   1.465
  798SOL     OW 3221   1.552   0.774   1.588
  798SOL    HW2 3222   1.549   0.764   1.683
  798SOL    HW3 3223   1.536   0.686   1.553
  798SOL    MW4 3224   1.550   0.761   1.596
  799SOL     OW 3225   1.332   0.890   1.506
  799SOL    HW2 3226   1.415   0.851   1.536
  799SOL    HW3 3227   1.327   0.867   1.414
  799SOL    MW4 3228   1.343   0.882   1.498
  800SOL     OW 3229   1.329   1.149   1.609
  800SOL    HW2 3230   1.339   1.144   1.704
  800SOL    HW3 3231   1.328   1.058   1.580
  800SOL    MW4 3232   1.330   1.137   1.618
  801SOL     OW 3233   1.573   1.238   1.516
  801SOL    HW2 3234   1.492   1.195   1.542
  801SOL    HW3 3235   1.568   1.244   1.421
  801SOL    MW4 3236   1.562   1.233   1.507
  802SOL     OW 3237   1.586   1.512   1.574
  802SOL    HW2 3238   1.588   1.516   1.670
  802SOL    HW3 3239   1.582   1.418   1.554
  802SOL    MW4 3240   1.586   1.500   1.584
  803SOL     OW 3241   1.364   1.606   1.451
  803SOL    HW2 3242   1.437   1.579   1.507
  803SOL    HW3 3243   1.407   1.639   1.372
  803SOL    MW4 3244   1.380   1.607   1.448
  804SOL     OW 3245   1.310   1.887   1.577
  804SOL    HW2 3246   1.329   1.859   1.667
  804SOL    HW3 3247   1.305   1.805   1.527
  804SOL    MW4 3248   1.312   1.872   1.582
  805SOL     OW 3249   1.543   2.065   1.472
  805SOL    HW2 3250   1.470   2.005   1.489
  805SOL    HW3 3251   1.545   2.073   1.376
  805SOL    MW4 3252   1.534   2.058   1.461
  806SOL     OW 3253   1.531   2.317   1.605
  806SOL    HW2 3254   1.616   2.346   1.572
  806SOL    HW3 3255   1.523   2.226   1.574
  806SOL    MW4 3256   1.541   2.308   1.597
  807SOL     OW 3257   1.325   2.474   1.531
  807SOL    HW2 3258   1.346   2.560   1.569
  807SOL    HW3 3259   1.404   2.422   1.546
  807SOL    MW4 3260   1.338   2.479   1.538
  808SOL     OW 3261   1.341   2.726   1.627
  808SOL    HW2 3262   1.408   2.778   1.583
  808SOL    HW3 3263   1.259   2.756   1.589
  808SOL    MW4 3264   1.339   2.736   1.616
  809SOL     OW 3265   1.563   2.823   1.490
  809SOL    HW2 3266   1.629   2.761   1.523
  809SOL    HW3 3267   1.570   2.817   1.395
  809SOL    MW4 3268   1.573   2.814   1.482
  810SOL     OW 3269   1.590   3.078   1.621
  810SOL    HW2 3270   1.641   3.125   1.555
  810SOL    HW3 3271   1.574   2.991   1.583
  810SOL    MW4 3272   1.594   3.073   1.607
  811SOL     OW 3273   1.364   3.207   1.518
  811SOL    HW2 3274   1.357   3.291   1.563
  811SOL    HW3 3275   1.436   3.162   1.561
  811SOL    MW4 3276   1.372   3.212   1.530
  812SOL     OW 3277   1.338   3.454   1.623
  812SOL    HW2 3278   1.335   3.452   1.718
  812SOL    HW3 3279   1.421   3.497   1.603
  812SOL    MW4 3280   1.349   3.459   1.633
  813SOL     OW 3281   1.556   3.600   1.574
  813SOL    HW2 3282   1.560   3.681   1.625
  813SOL    HW3 3283   1.576   3.627   1.484
  813SOL    MW4 3284   1.559   3.614   1.569
  814SOL     OW 3285   1.602   3.855   1.660
  814SOL    HW2 3286   1.588   3.855   1.754
  814SOL    HW3 3287   1.521   3.890   1.623
  814SOL    MW4 3288   1.590   3.859   1.667
  815SOL     OW 3289   1.389   3.958   1.538
  815SOL    HW2 3290   1.378   4.050   1.561
  815SOL    HW3 3291   1.374   3.954   1.443
  815SOL    MW4 3292   1.386   3.969   1.528
  816SOL     OW 3293   1.353   4.230   1.585
  816SOL    HW2 3294   1.426   4.279   1.548
  816SOL    HW3 3295   1.279   4.250   1.529
  816SOL    MW4 3296   1.353   4.239   1.573
  817SOL     OW 3297   1.561   4.371   1.457
  817SOL    HW2 3298   1.627   4.319   1.503
  817SOL    HW3 3299   1.575   4.460   1.487
  817SOL    MW4 3300   1.571   4.376   1.467
  818SOL     OW 3301   2.004   4.656   1.634
  818SOL    HW2 3302   1.978   4.651   1.726
  818SOL    HW3 3303   1.939   4.714   1.594
  818SOL    MW4 3304   1.992   4.663   1.641
  819SOL     OW 3305   1.796   0.127   1.524
  819SOL    HW2 3306   1.724   0.069   1.546
  819SOL    HW3 3307   1.800   0.125   1.428
  819SOL    MW4 3308   1.787   0.119   1.514
  820SOL     OW 3309   1.775   0.388   1.608
  820SOL    HW2 3310   1.853   0.434   1.578
  820SOL    HW3 3311   1.788   0.297   1.581
  820SOL    MW4 3312   1.787   0.382   1.601
  821SOL     OW 3313   2.009   0.489   1.493
  821SOL    HW2 3314   2.087   0.446   1.528
  821SOL    HW3 3315   2.012   0.577   1.530
  821SOL    MW4 3316   2.020   0.495   1.502
  822SOL     OW 3317   2.029   0.756   1.595
  822SOL    HW2 3318   2.102   0.784   1.539
  822SOL    HW3 3319   1.952   0.798   1.556
  822SOL    MW4 3320   2.028   0.765   1.582
  823SOL     OW 3321   1.803   0.866   1.494
  823SOL    HW2 3322   1.821   0.955   1.525
  823SOL    HW3 3323   1.717   0.846   1.530
  823SOL    MW4 3324   1.794   0.875   1.503
  824SOL     OW 3325   1.826   1.123   1.566
  824SOL    HW2 3326   1.900   1.170   1.529
  824SOL    HW3 3327   1.750   1.176   1.543
  824SOL    MW4 3328   1.826   1.136   1.558
  825SOL     OW 3329   2.018   1.291   1.471
  825SOL    HW2 3330   2.020   1.366   1.529
  825SOL    HW3 3331   2.034   1.327   1.384
  825SOL    MW4 3332   2.020   1.305   1.467
  826SOL     OW 3333   2.015   1.533   1.598
  826SOL    HW2 3334   2.088   1.554   1.540
  826SOL    HW3 3335   1.948   1.598   1.578
  826SOL    MW4 3336   2.016   1.544   1.588
  827SOL     OW 3337   1.786   1.710   1.528
  827SOL    HW2 3338   1.710   1.653   1.536
  827SOL    HW3 3339   1.803   1.714   1.434
  827SOL    MW4 3340   1.779   1.703   1.517
  828SOL     OW 3341   1.792   1.969   1.590
  828SOL    HW2 3342   1.783   1.878   1.561
  828SOL    HW3 3343   1.722   2.016   1.544
  828SOL    MW4 3344   1.782   1.963   1.580
  829SOL     OW 3345   2.036   2.084   1.497
  829SOL    HW2 3346   2.111   2.032   1.526
  829SOL    HW3 3347   1.959   2.038   1.531
  829SOL    MW4 3348   2.036   2.071   1.505
  830SOL     OW 3349   1.999   2.333   1.601
  830SOL    HW2 3350   2.010   2.325   1.696
  830SOL    HW3 3351   2.018   2.246   1.567
  830SOL    MW4 3352   2.003   2.320   1.609
  831SOL     OW 3353   1.757   2.403   1.478
  831SOL    HW2 3354   1.843   2.392   1.520
  831SOL    HW3 3355   1.776   2.403   1.384
  831SOL    MW4 3356   1.771   2.402   1.471
  832SOL     OW 3357   1.768   2.649   1.580
  832SOL    HW2 3358   1.839   2.694   1.535
  832SOL    HW3 3359   1.768   2.561   1.542
  832SOL    MW4 3360   1.777   2.643   1.569
  833SOL     OW 3361   1.984   2.796   1.464
  833SOL    HW2 3362   2.006   2.872   1.517
  833SOL    HW3 3363   1.994   2.825   1.374
  833SOL    MW4 3364   1.988   2.810   1.459
  834SOL     OW 3365   1.982   3.067   1.590
  834SOL    HW2 3366   1.986   3.071   1.685
  834SOL    HW3 3367   2.051   3.126   1.560
  834SOL    MW4 3368   1.991   3.075   1.598
  835SOL     OW 3369   1.793   3.238   1.490
  835SOL    HW2 3370   1.800   3.322   1.536
  835SOL    HW3 3371   1.861   3.184   1.529
  835SOL    MW4 3372   1.803   3.242   1.501
  836SOL     OW 3373   1.812   3.482   1.616
  836SOL    HW2 3374   1.809   3.464   1.710
  836SOL    HW3 3375   1.732   3.532   1.599
  836SOL    MW4 3376   1.801   3.486   1.627
  837SOL     OW 3377   2.040   3.609   1.498
  837SOL    HW2 3378   2.114   3.563   1.538
  837SOL    HW3 3379   1.965   3.554   1.519
  837SOL    MW4 3380   2.040   3.595   1.506
  838SOL     OW 3381   2.068   3.863   1.629
  838SOL    HW2 3382   2.146   3.902   1.591
  838SOL    HW3 3383   2.062   3.776   1.590
  838SOL    MW4 3384   2.077   3.857   1.619
  839SOL     OW 3385   1.841   3.988   1.529
  839SOL    HW2 3386   1.921   3.946   1.561
  839SOL    HW3 3387   1.770   3.944   1.576
  839SOL    MW4 3388   1.842   3.976   1.539
  840SOL     OW 3389   1.796   4.267   1.572
  840SOL    HW2 3390   1.872   4.323   1.557
  840SOL    HW3 3391   1.831   4.178   1.565
  840SOL    MW4 3392   1.811   4.263   1.569
  841SOL     OW 3393   2.011   4.393   1.464
  841SOL    HW2 3394   2.093   4.348   1.485
  841SOL    HW3 3395   2.008   4.466   1.527
  841SOL    MW4 3396   2.022   4.396   1.475
  842SOL     OW 3397   2.498   0.004   1.599
  842SOL    HW2 3398   2.482  -0.013   1.692
  842SOL    HW3 3399   2.412   0.025   1.563
  842SOL    MW4 3400   2.485   0.005   1.607
  843SOL     OW 3401   2.243   0.071   1.522
  843SOL    HW2 3402   2.166   0.031   1.565
  843SOL    HW3 3403   2.217   0.080   1.431
  843SOL    MW4 3404   2.229   0.067   1.516
  844SOL     OW 3405   2.262   0.353   1.590
  844SOL    HW2 3406   2.274   0.358   1.685
  844SOL    HW3 3407   2.251   0.260   1.572
  844SOL    MW4 3408   2.262   0.342   1.600
  845SOL     OW 3409   2.448   0.518   1.474
  845SOL    HW2 3410   2.530   0.472   1.492
  845SOL    HW3 3411   2.381   0.460   1.511
  845SOL    MW4 3412   2.450   0.504   1.481
  846SOL     OW 3413   2.455   0.767   1.586
  846SOL    HW2 3414   2.381   0.811   1.543
  846SOL    HW3 3415   2.449   0.676   1.558
  846SOL    MW4 3416   2.444   0.761   1.577
  847SOL     OW 3417   2.239   0.911   1.474
  847SOL    HW2 3418   2.250   1.000   1.506
  847SOL    HW3 3419   2.222   0.921   1.380
  847SOL    MW4 3420   2.238   0.924   1.466
  848SOL     OW 3421   2.240   1.157   1.587
  848SOL    HW2 3422   2.228   1.146   1.682
  848SOL    HW3 3423   2.169   1.215   1.561
  848SOL    MW4 3424   2.229   1.163   1.596
  849SOL     OW 3425   2.477   1.248   1.511
  849SOL    HW2 3426   2.391   1.222   1.545
  849SOL    HW3 3427   2.462   1.265   1.418
  849SOL    MW4 3428   2.463   1.247   1.503
  850SOL     OW 3429   2.478   1.511   1.635
  850SOL    HW2 3430   2.550   1.553   1.589
  850SOL    HW3 3431   2.471   1.424   1.596
  850SOL    MW4 3432   2.486   1.505   1.624
  851SOL     OW 3433   2.262   1.659   1.488
  851SOL    HW2 3434   2.344   1.630   1.527
  851SOL    HW3 3435   2.284   1.676   1.396
  851SOL    MW4 3436   2.276   1.657   1.481
  852SOL     OW 3437   2.263   1.916   1.602
  852SOL    HW2 3438   2.242   1.894   1.693
  852SOL    HW3 3439   2.265   1.831   1.558
  852SOL    MW4 3440   2.261   1.902   1.608
  853SOL     OW 3441   2.516   2.036   1.519
  853SOL    HW2 3442   2.437   1.991   1.550
  853SOL    HW3 3443   2.502   2.047   1.425
  853SOL    MW4 3444   2.504   2.032   1.510
  854SOL     OW 3445   2.470   2.311   1.635
  854SOL    HW2 3446   2.481   2.313   1.730
  854SOL    HW3 3447   2.469   2.217   1.613
  854SOL    MW4 3448   2.472   2.299   1.645
  855SOL     OW 3449   2.249   2.420   1.530
  855SOL    HW2 3450   2.318   2.366   1.569
  855SOL    HW3 3451   2.168   2.390   1.572
  855SOL    MW4 3452   2.247   2.409   1.541
  856SOL     OW 3453   2.223   2.689   1.559
  856SOL    HW2 3454   2.222   2.594   1.546
  856SOL    HW3 3455   2.140   2.720   1.522
  856SOL    MW4 3456   2.212   2.681   1.552
  857SOL     OW 3457   2.422   2.861   1.473
  857SOL    HW2 3458   2.408   2.938   1.528
  857SOL    HW3 3459   2.351   2.802   1.497
  857SOL    MW4 3460   2.411   2.863   1.483
  858SOL     OW 3461   2.406   3.090   1.611
  858SOL    HW2 3462   2.481   3.121   1.560
  858SOL    HW3 3463   2.330   3.135   1.571
  858SOL    MW4 3464   2.406   3.100   1.599
  859SOL     OW 3465   2.195   3.233   1.491
  859SOL    HW2 3466   2.209   3.322   1.523
  859SOL    HW3 3467   2.224   3.235   1.400
  859SOL    MW4 3468   2.201   3.245   1.483
  860SOL     OW 3469   2.244   3.485   1.622
  860SOL    HW2 3470   2.245   3.499   1.716
  860SOL    HW3 3471   2.327   3.522   1.591
  860SOL    MW4 3472   2.255   3.492   1.630
  861SOL     OW 3473   2.467   3.602   1.510
  861SOL    HW2 3474   2.543   3.547   1.528
  861SOL    HW3 3475   2.490   3.687   1.548
  861SOL    MW4 3476   2.480   3.606   1.518
  862SOL     OW 3477   2.518   3.867   1.602
  862SOL    HW2 3478   2.515   3.878   1.697
  862SOL    HW3 3479   2.593   3.920   1.575
  862SOL    MW4 3480   2.528   3.876   1.611
  863SOL     OW 3481   2.287   3.978   1.519
  863SOL    HW2 3482   2.370   3.935   1.540
  863SOL    HW3 3483   2.287   3.985   1.423
  863SOL    MW4 3484   2.298   3.973   1.509
  864SOL     OW 3485   2.248   4.254   1.531
  864SOL    HW2 3486   2.330   4.302   1.521
  864SOL    HW3 3487   2.274   4.162   1.527
  864SOL    MW4 3488   2.262   4.248   1.529
  865SOL     OW 3489   2.481   4.409   1.505
  865SOL    HW2 3490   2.474   4.503   1.522
  865SOL    HW3 3491   2.474   4.401   1.410
  865SOL    MW4 3492   2.479   4.420   1.495
  866SOL     OW 3493   2.911   0.012   1.626
  866SOL    HW2 3494   2.885   0.015   1.718
  866SOL    HW3 3495   2.841   0.059   1.580
  866SOL    MW4 3496   2.898   0.019   1.632
  867SOL     OW 3497   2.706   0.144   1.487
  867SOL    HW2 3498   2.694   0.232   1.523
  867SOL    HW3 3499   2.637   0.091   1.527
  867SOL    MW4 3500   2.695   0.149   1.497
  868SOL     OW 3501   2.685   0.415   1.592
  868SOL    HW2 3502   2.685   0.407   1.687
  868SOL    HW3 3503   2.777   0.433   1.570
  868SOL    MW4 3504   2.697   0.417   1.602
  869SOL     OW 3505   2.924   0.505   1.519
  869SOL    HW2 3506   2.940   0.594   1.552
  869SOL    HW3 3507   2.911   0.516   1.425
  869SOL    MW4 3508   2.924   0.518   1.511
  870SOL     OW 3509   2.959   0.771   1.580
  870SOL    HW2 3510   2.964   0.756   1.675
  870SOL    HW3 3511   2.866   0.788   1.564
  870SOL    MW4 3512   2.947   0.771   1.591
  871SOL     OW 3513   2.710   0.849   1.479
  871SOL    HW2 3514   2.619   0.837   1.508
  871SOL    HW3 3515   2.702   0.868   1.385
  871SOL    MW4 3516   2.697   0.850   1.470
  872SOL     OW 3517   2.722   1.119   1.551
  872SOL    HW2 3518   2.724   1.025   1.536
  872SOL    HW3 3519   2.635   1.147   1.521
  872SOL    MW4 3520   2.711   1.111   1.545
  873SOL     OW 3521   2.921   1.268   1.461
  873SOL    HW2 3522   3.001   1.217   1.473
  873SOL    HW3 3523   2.851   1.209   1.488
  873SOL    MW4 3524   2.922   1.253   1.466
  874SOL     OW 3525   2.910   1.519   1.552
  874SOL    HW2 3526   2.820   1.547   1.536
  874SOL    HW3 3527   2.912   1.429   1.519
  874SOL    MW4 3528   2.898   1.511   1.546
  875SOL     OW 3529   2.642   1.651   1.473
  875SOL    HW2 3530   2.672   1.732   1.513
  875SOL    HW3 3531   2.667   1.659   1.381
  875SOL    MW4 3532   2.650   1.662   1.466
  876SOL     OW 3533   2.725   1.901   1.620
  876SOL    HW2 3534   2.700   1.903   1.712
  876SOL    HW3 3535   2.663   1.959   1.577
  876SOL    MW4 3536   2.713   1.909   1.626
  877SOL     OW 3537   2.928   2.020   1.475
  877SOL    HW2 3538   2.954   2.102   1.516
  877SOL    HW3 3539   2.864   1.982   1.534
  877SOL    MW4 3540   2.923   2.026   1.488
  878SOL     OW 3541   2.928   2.315   1.583
  878SOL    HW2 3542   2.917   2.289   1.674
  878SOL    HW3 3543   2.845   2.358   1.560
  878SOL    MW4 3544   2.915   2.317   1.592
  879SOL     OW 3545   2.671   2.458   1.508
  879SOL    HW2 3546   2.651   2.545   1.543
  879SOL    HW3 3547   2.598   2.403   1.537
  879SOL    MW4 3548   2.659   2.462   1.516
  880SOL     OW 3549   2.643   2.720   1.568
  880SOL    HW2 3550   2.724   2.752   1.528
  880SOL    HW3 3551   2.574   2.768   1.523
  880SOL    MW4 3552   2.645   2.731   1.557
  881SOL     OW 3553   2.889   2.827   1.448
  881SOL    HW2 3554   2.946   2.775   1.503
  881SOL    HW3 3555   2.881   2.911   1.494
  881SOL    MW4 3556   2.895   2.831   1.461
  882SOL     OW 3557   2.891   3.076   1.595
  882SOL    HW2 3558   2.887   3.089   1.690
  882SOL    HW3 3559   2.972   3.118   1.568
  882SOL    MW4 3560   2.901   3.083   1.604
  883SOL     OW 3561   2.658   3.165   1.476
  883SOL    HW2 3562   2.742   3.140   1.515
  883SOL    HW3 3563   2.678   3.183   1.384
  883SOL    MW4 3564   2.671   3.164   1.469
  884SOL     OW 3565   2.663   3.433   1.572
  884SOL    HW2 3566   2.664   3.436   1.668
  884SOL    HW3 3567   2.651   3.340   1.551
  884SOL    MW4 3568   2.661   3.421   1.582
  885SOL     OW 3569   2.893   3.595   1.553
  885SOL    HW2 3570   2.810   3.550   1.568
  885SOL    HW3 3571   2.897   3.607   1.458
  885SOL    MW4 3572   2.883   3.591   1.543
  886SOL     OW 3573   2.919   3.862   1.629
  886SOL    HW2 3574   2.850   3.897   1.573
  886SOL    HW3 3575   2.914   3.768   1.617
  886SOL    MW4 3576   2.910   3.855   1.620
  887SOL     OW 3577   2.704   4.020   1.499
  887SOL    HW2 3578   2.696   4.107   1.538
  887SOL    HW3 3579   2.704   4.035   1.404
  887SOL    MW4 3580   2.703   4.033   1.492
  888SOL     OW 3581   2.711   4.282   1.603
  888SOL    HW2 3582   2.774   4.331   1.551
  888SOL    HW3 3583   2.626   4.319   1.577
  888SOL    MW4 3584   2.708   4.293   1.592
  889SOL     OW 3585   2.899   4.422   1.471
  889SOL    HW2 3586   2.893   4.503   1.522
  889SOL    HW3 3587   2.893   4.450   1.380
  889SOL    MW4 3588   2.897   4.436   1.466
  890SOL     OW 3589   3.346   4.655   1.620
  890SOL    HW2 3590   3.420   4.695   1.574
  890SOL    HW3 3591   3.351   4.562   1.598
  890SOL    MW4 3592   3.356   4.648   1.611
  891SOL     OW 3593   3.139   0.097   1.498
  891SOL    HW2 3594   3.210   0.065   1.553
  891SOL    HW3 3595   3.059   0.073   1.546
  891SOL    MW4 3596   3.138   0.089   1.511
  892SOL     OW 3597   3.167   0.363   1.576
  892SOL    HW2 3598   3.156   0.272   1.549
  892SOL    HW3 3599   3.078   0.399   1.578
  892SOL    MW4 3600   3.154   0.356   1.573
  893SOL     OW 3601   3.367   0.501   1.474
  893SOL    HW2 3602   3.291   0.452   1.504
  893SOL    HW3 3603   3.364   0.495   1.379
  893SOL    MW4 3604   3.357   0.494   1.466
  894SOL     OW 3605   3.376   0.755   1.580
  894SOL    HW2 3606   3.395   0.755   1.674
  894SOL    HW3 3607   3.370   0.662   1.557
  894SOL    MW4 3608   3.378   0.743   1.589
  895SOL     OW 3609   3.176   0.861   1.437
  895SOL    HW2 3610   3.249   0.834   1.492
  895SOL    HW3 3611   3.097   0.841   1.488
  895SOL    MW4 3612   3.175   0.855   1.451
  896SOL     OW 3613   3.160   1.117   1.563
  896SOL    HW2 3614   3.163   1.096   1.657
  896SOL    HW3 3615   3.189   1.038   1.519
  896SOL    MW4 3616   3.164   1.104   1.570
  897SOL     OW 3617   3.356   1.284   1.473
  897SOL    HW2 3618   3.436   1.241   1.504
  897SOL    HW3 3619   3.286   1.225   1.499
  897SOL    MW4 3620   3.357   1.270   1.481
  898SOL     OW 3621   3.382   1.547   1.578
  898SOL    HW2 3622   3.388   1.545   1.674
  898SOL    HW3 3623   3.377   1.455   1.552
  898SOL    MW4 3624   3.382   1.535   1.587
  899SOL     OW 3625   3.148   1.661   1.457
  899SOL    HW2 3626   3.237   1.636   1.481
  899SOL    HW3 3627   3.092   1.600   1.504
  899SOL    MW4 3628   3.153   1.650   1.466
  900SOL     OW 3629   3.145   1.897   1.602
  900SOL    HW2 3630   3.125   1.812   1.563
  900SOL    HW3 3631   3.080   1.957   1.565
  900SOL    MW4 3632   3.134   1.894   1.592
  901SOL     OW 3633   3.363   2.047   1.517
  901SOL    HW2 3634   3.292   1.997   1.557
  901SOL    HW3 3635   3.351   2.034   1.423
  901SOL    MW4 3636   3.352   2.039   1.510
  902SOL     OW 3637   3.353   2.315   1.553
  902SOL    HW2 3638   3.428   2.331   1.496
  902SOL    HW3 3639   3.344   2.219   1.555
  902SOL    MW4 3640   3.362   2.304   1.546
  903SOL     OW 3641   3.137   2.482   1.476
  903SOL    HW2 3642   3.212   2.426   1.495
  903SOL    HW3 3643   3.064   2.440   1.522
  903SOL    MW4 3644   3.137   2.469   1.485
  904SOL     OW 3645   3.113   2.734   1.603
  904SOL    HW2 3646   3.191   2.779   1.572
  904SOL    HW3 3647   3.125   2.643   1.573
  904SOL    MW4 3648   3.125   2.728   1.595
  905SOL     OW 3649   3.339   2.866   1.513
  905SOL    HW2 3650   3.350   2.950   1.559
  905SOL    HW3 3651   3.359   2.886   1.421
  905SOL    MW4 3652   3.343   2.880   1.507
  906SOL     OW 3653   3.358   3.116   1.644
  906SOL    HW2 3654   3.377   3.106   1.737
  906SOL    HW3 3655   3.442   3.143   1.606
  906SOL    MW4 3656   3.372   3.118   1.651
  907SOL     OW 3657   3.125   3.219   1.530
  907SOL    HW2 3658   3.200   3.184   1.578
  907SOL    HW3 3659   3.153   3.218   1.439
  907SOL    MW4 3660   3.138   3.214   1.524
  908SOL     OW 3661   3.129   3.478   1.636
  908SOL    HW2 3662   3.114   3.391   1.598
  908SOL    HW3 3663   3.046   3.523   1.624
  908SOL    MW4 3664   3.116   3.472   1.629
  909SOL     OW 3665   3.370   3.548   1.518
  909SOL    HW2 3666   3.450   3.541   1.569
  909SOL    HW3 3667   3.300   3.521   1.578
  909SOL    MW4 3668   3.371   3.543   1.532
  910SOL     OW 3669   3.358   3.842   1.622
  910SOL    HW2 3670   3.293   3.908   1.596
  910SOL    HW3 3671   3.340   3.767   1.567
  910SOL    MW4 3672   3.347   3.841   1.612
  911SOL     OW 3673   3.155   4.002   1.535
  911SOL    HW2 3674   3.147   4.085   1.582
  911SOL    HW3 3675   3.087   3.946   1.573
  911SOL    MW4 3676   3.145   4.006   1.546
  912SOL     OW 3677   3.121   4.273   1.589
  912SOL    HW2 3678   3.116   4.281   1.684
  912SOL    HW3 3679   3.040   4.314   1.558
  912SOL    MW4 3680   3.110   4.280   1.598
  913SOL     OW 3681   3.371   4.397   1.523
  913SOL    HW2 3682   3.288   4.353   1.541
  913SOL    HW3 3683   3.364   4.425   1.432
  913SOL    MW4 3684   3.359   4.395   1.514
  914SOL     OW 3685   3.842   4.619   1.557
  914SOL    HW2 3686   3.847   4.621   1.653
  914SOL    HW3 3687   3.909   4.681   1.528
  914SOL    MW4 3688   3.851   4.627   1.566
  915SOL     OW 3689   3.603   0.091   1.480
  915SOL    HW2 3690   3.675   0.036   1.509
  915SOL    HW3 3691   3.612   0.096   1.385
  915SOL    MW4 3692   3.614   0.084   1.471
  916SOL     OW 3693   3.592   0.356   1.587
  916SOL    HW2 3694   3.598   0.263   1.564
  916SOL    HW3 3695   3.520   0.389   1.534
  916SOL    MW4 3696   3.583   0.348   1.577
  917SOL     OW 3697   3.797   0.514   1.491
  917SOL    HW2 3698   3.732   0.451   1.520
  917SOL    HW3 3699   3.788   0.515   1.395
  917SOL    MW4 3700   3.787   0.506   1.482
  918SOL     OW 3701   3.829   0.764   1.590
  918SOL    HW2 3702   3.748   0.803   1.557
  918SOL    HW3 3703   3.832   0.678   1.549
  918SOL    MW4 3704   3.819   0.758   1.580
  919SOL     OW 3705   3.580   0.893   1.483
  919SOL    HW2 3706   3.502   0.846   1.512
  919SOL    HW3 3707   3.581   0.882   1.388
  919SOL    MW4 3708   3.570   0.886   1.474
  920SOL     OW 3709   3.576   1.160   1.556
  920SOL    HW2 3710   3.650   1.212   1.527
  920SOL    HW3 3711   3.589   1.074   1.516
  920SOL    MW4 3712   3.587   1.155   1.547
  921SOL     OW 3713   3.819   1.269   1.474
  921SOL    HW2 3714   3.890   1.217   1.511
  921SOL    HW3 3715   3.823   1.352   1.521
  921SOL    MW4 3716   3.829   1.273   1.485
  922SOL     OW 3717   3.824   1.558   1.574
  922SOL    HW2 3718   3.839   1.568   1.668
  922SOL    HW3 3719   3.745   1.609   1.557
  922SOL    MW4 3720   3.815   1.566   1.584
  923SOL     OW 3721   3.591   1.699   1.475
  923SOL    HW2 3722   3.515   1.648   1.504
  923SOL    HW3 3723   3.590   1.690   1.379
  923SOL    MW4 3724   3.581   1.691   1.466
  924SOL     OW 3725   3.620   1.928   1.618
  924SOL    HW2 3726   3.618   1.837   1.588
  924SOL    HW3 3727   3.538   1.965   1.586
  924SOL    MW4 3728   3.609   1.921   1.610
  925SOL     OW 3729   3.874   2.061   1.510
  925SOL    HW2 3730   3.880   2.156   1.516
  925SOL    HW3 3731   3.790   2.039   1.551
  925SOL    MW4 3732   3.863   2.071   1.517
  926SOL     OW 3733   3.800   2.332   1.570
  926SOL    HW2 3734   3.808   2.305   1.662
  926SOL    HW3 3735   3.888   2.360   1.545
  926SOL    MW4 3736   3.813   2.332   1.579
  927SOL     OW 3737   3.579   2.441   1.447
  927SOL    HW2 3738   3.554   2.525   1.484
  927SOL    HW3 3739   3.658   2.415   1.495
  927SOL    MW4 3740   3.586   2.449   1.458
  928SOL     OW 3741   3.544   2.707   1.542
  928SOL    HW2 3742   3.552   2.698   1.637
  928SOL    HW3 3743   3.474   2.771   1.529
  928SOL    MW4 3744   3.536   2.714   1.553
  929SOL     OW 3745   3.777   2.798   1.438
  929SOL    HW2 3746   3.842   2.749   1.489
  929SOL    HW3 3747   3.693   2.761   1.465
  929SOL    MW4 3748   3.774   2.786   1.448
  930SOL     OW 3749   3.791   3.041   1.589
  930SOL    HW2 3750   3.872   3.077   1.552
  930SOL    HW3 3751   3.785   2.953   1.550
  930SOL    MW4 3752   3.801   3.034   1.579
  931SOL     OW 3753   3.596   3.212   1.518
  931SOL    HW2 3754   3.661   3.151   1.552
  931SOL    HW3 3755   3.605   3.206   1.423
  931SOL    MW4 3756   3.606   3.203   1.510
  932SOL     OW 3757   3.611   3.464   1.635
  932SOL    HW2 3758   3.687   3.508   1.597
  932SOL    HW3 3759   3.613   3.375   1.598
  932SOL    MW4 3760   3.621   3.458   1.625
  933SOL     OW 3761   3.838   3.566   1.497
  933SOL    HW2 3762   3.920   3.529   1.529
  933SOL    HW3 3763   3.840   3.657   1.527
  933SOL    MW4 3764   3.849   3.573   1.505
  934SOL     OW 3765   3.811   3.835   1.578
  934SOL    HW2 3766   3.887   3.890   1.558
  934SOL    HW3 3767   3.736   3.885   1.547
  934SOL    MW4 3768   3.811   3.849   1.572
  935SOL     OW 3769   3.581   3.985   1.505
  935SOL    HW2 3770   3.576   4.070   1.549
  935SOL    HW3 3771   3.505   3.937   1.539
  935SOL    MW4 3772   3.570   3.990   1.516
  936SOL     OW 3773   3.608   4.258   1.585
  936SOL    HW2 3774   3.602   4.262   1.680
  936SOL    HW3 3775   3.531   4.306   1.554
  936SOL    MW4 3776   3.597   4.265   1.593
  937SOL     OW 3777   3.830   4.362   1.473
  937SOL    HW2 3778   3.744   4.339   1.508
  937SOL    HW3 3779   3.847   4.450   1.507
  937SOL    MW4 3780   3.821   4.371   1.482
  938SOL     OW 3781   4.275   4.657   1.579
  938SOL    HW2 3782   4.274   4.660   1.675
  938SOL    HW3 3783   4.260   4.565   1.557
  938SOL    MW4 3784   4.273   4.645   1.589
  939SOL     OW 3785   4.036   0.134   1.465
  939SOL    HW2 3786   4.038   0.224   1.496
  939SOL    HW3 3787   4.104   0.089   1.517
  939SOL    MW4 3788   4.046   0.140   1.476
  940SOL     OW 3789   4.024   0.385   1.607
  940SOL    HW2 3790   4.027   0.381   1.702
  940SOL    HW3 3791   3.938   0.420   1.586
  940SOL    MW4 3792   4.013   0.389   1.617
  941SOL     OW 3793   4.259   0.460   1.477
  941SOL    HW2 3794   4.184   0.422   1.524
  941SOL    HW3 3795   4.336   0.429   1.525
  941SOL    MW4 3796   4.259   0.451   1.489
  942SOL     OW 3797   4.254   0.713   1.601
  942SOL    HW2 3798   4.251   0.636   1.545
  942SOL    HW3 3799   4.328   0.764   1.569
  942SOL    MW4 3800   4.263   0.709   1.590
  943SOL     OW 3801   4.058   0.898   1.509
  943SOL    HW2 3802   4.127   0.847   1.551
  943SOL    HW3 3803   3.977   0.866   1.548
  943SOL    MW4 3804   4.056   0.887   1.519
  944SOL     OW 3805   4.044   1.164   1.583
  944SOL    HW2 3806   4.047   1.172   1.679
  944SOL    HW3 3807   4.057   1.070   1.567
  944SOL    MW4 3808   4.046   1.153   1.594
  945SOL     OW 3809   4.266   1.287   1.480
  945SOL    HW2 3810   4.188   1.236   1.500
  945SOL    HW3 3811   4.339   1.233   1.511
  945SOL    MW4 3812   4.265   1.273   1.487
  946SOL     OW 3813   4.276   1.539   1.595
  946SOL    HW2 3814   4.291   1.447   1.574
  946SOL    HW3 3815   4.350   1.585   1.556
  946SOL    MW4 3816   4.287   1.533   1.587
  947SOL     OW 3817   4.054   1.652   1.455
  947SOL    HW2 3818   4.112   1.606   1.514
  947SOL    HW3 3819   3.968   1.613   1.470
  947SOL    MW4 3820   4.050   1.641   1.464
  948SOL     OW 3821   4.091   1.901   1.546
  948SOL    HW2 3822   4.068   1.816   1.508
  948SOL    HW3 3823   4.017   1.958   1.527
  948SOL    MW4 3824   4.078   1.897   1.538
  949SOL     OW 3825   4.320   2.045   1.483
  949SOL    HW2 3826   4.243   1.990   1.499
  949SOL    HW3 3827   4.315   2.066   1.390
  949SOL    MW4 3828   4.309   2.040   1.473
  950SOL     OW 3829   4.298   2.329   1.570
  950SOL    HW2 3830   4.286   2.315   1.664
  950SOL    HW3 3831   4.299   2.241   1.532
  950SOL    MW4 3832   4.297   2.316   1.578
  951SOL     OW 3833   4.042   2.420   1.466
  951SOL    HW2 3834   4.034   2.512   1.493
  951SOL    HW3 3835   4.110   2.384   1.523
  951SOL    MW4 3836   4.050   2.427   1.477
  952SOL     OW 3837   4.001   2.676   1.567
  952SOL    HW2 3838   4.005   2.676   1.663
  952SOL    HW3 3839   4.081   2.721   1.540
  952SOL    MW4 3840   4.012   2.682   1.576
  953SOL     OW 3841   4.254   2.786   1.509
  953SOL    HW2 3842   4.258   2.869   1.556
  953SOL    HW3 3843   4.269   2.808   1.418
  953SOL    MW4 3844   4.256   2.800   1.503
  954SOL     OW 3845   4.278   3.048   1.596
  954SOL    HW2 3846   4.289   3.062   1.690
  954SOL    HW3 3847   4.342   3.107   1.555
  954SOL    MW4 3848   4.288   3.057   1.603
  955SOL     OW 3849   4.039   3.167   1.482
  955SOL    HW2 3850   4.041   3.256   1.516
  955SOL    HW3 3851   4.107   3.120   1.530
  955SOL    MW4 3852   4.048   3.172   1.493
  956SOL     OW 3853   4.059   3.421   1.564
  956SOL    HW2 3854   4.050   3.438   1.658
  956SOL    HW3 3855   4.141   3.463   1.539
  956SOL    MW4 3856   4.068   3.428   1.574
  957SOL     OW 3857   4.275   3.571   1.490
  957SOL    HW2 3858   4.281   3.649   1.545
  957SOL    HW3 3859   4.236   3.601   1.408
  957SOL    MW4 3860   4.271   3.585   1.486
  958SOL     OW 3861   4.289   3.824   1.574
  958SOL    HW2 3862   4.214   3.873   1.540
  958SOL    HW3 3863   4.366   3.867   1.535
  958SOL    MW4 3864   4.289   3.836   1.565
  959SOL     OW 3865   4.042   3.962   1.509
  959SOL    HW2 3866   4.020   4.047   1.547
  959SOL    HW3 3867   4.021   3.971   1.416
  959SOL    MW4 3868   4.037   3.974   1.502
  960SOL     OW 3869   4.012   4.220   1.613
  960SOL    HW2 3870   4.004   4.240   1.706
  960SOL    HW3 3871   3.944   4.273   1.571
  960SOL    MW4 3872   4.002   4.229   1.620
  961SOL     OW 3873   4.223   4.392   1.519
  961SOL    HW2 3874   4.170   4.322   1.558
  961SOL    HW3 3875   4.223   4.373   1.425
  961SOL    MW4 3876   4.216   4.381   1.511
  962SOL     OW 3877   0.251   4.642   1.832
  962SOL    HW2 3878   0.331   4.688   1.855
  962SOL    HW3 3879   0.250   4.642   1.736
  962SOL    MW4 3880   0.261   4.648   1.822
  963SOL     OW 3881   0.027   0.072   1.947
  963SOL    HW2 3882   0.024   0.163   1.918
  963SOL    HW3 3883   0.105   0.036   1.904
  963SOL    MW4 3884   0.037   0.079   1.937
  964SOL     OW 3885   4.473   0.348   1.880
  964SOL    HW2 3886   4.407   0.404   1.921
  964SOL    HW3 3887   4.557   0.384   1.911
  964SOL    MW4 3888   4.476   0.360   1.890
  965SOL     OW 3889   0.229   0.465   1.992
  965SOL    HW2 3890   0.307   0.432   1.948
  965SOL    HW3 3891   0.223   0.556   1.965
  965SOL    MW4 3892   0.238   0.472   1.983
  966SOL     OW 3893   0.226   0.726   1.897
  966SOL    HW2 3894   0.309   0.768   1.919
  966SOL    HW3 3895   0.223   0.727   1.801
  966SOL    MW4 3896   0.237   0.732   1.887
  967SOL     OW 3897   0.004   0.876   1.983
  967SOL    HW2 3898  -0.071   0.819   1.966
  967SOL    HW3 3899   0.078   0.832   1.941
  967SOL    MW4 3900   0.004   0.863   1.975
  968SOL     OW 3901   0.025   1.128   1.861
  968SOL    HW2 3902  -0.049   1.182   1.891
  968SOL    HW3 3903   0.011   1.044   1.904
  968SOL    MW4 3904   0.013   1.124   1.871
  969SOL     OW 3905   0.234   1.274   1.972
  969SOL    HW2 3906   0.224   1.359   1.930
  969SOL    HW3 3907   0.172   1.217   1.927
  969SOL    MW4 3908   0.224   1.278   1.961
  970SOL     OW 3909   0.245   1.558   1.879
  970SOL    HW2 3910   0.312   1.608   1.925
  970SOL    HW3 3911   0.163   1.602   1.901
  970SOL    MW4 3912   0.243   1.570   1.888
  971SOL     OW 3913   0.018   1.697   1.967
  971SOL    HW2 3914  -0.003   1.687   2.060
  971SOL    HW3 3915  -0.055   1.654   1.922
  971SOL    MW4 3916   0.006   1.690   1.973
  972SOL     OW 3917   0.030   1.956   1.876
  972SOL    HW2 3918  -0.054   1.986   1.912
  972SOL    HW3 3919   0.041   1.868   1.914
  972SOL    MW4 3920   0.020   1.948   1.886
  973SOL     OW 3921   0.241   2.098   1.975
  973SOL    HW2 3922   0.254   2.176   1.921
  973SOL    HW3 3923   0.166   2.054   1.936
  973SOL    MW4 3924   0.233   2.102   1.963
  974SOL     OW 3925   0.218   2.339   1.843
  974SOL    HW2 3926   0.276   2.398   1.892
  974SOL    HW3 3927   0.134   2.345   1.889
  974SOL    MW4 3928   0.215   2.348   1.856
  975SOL     OW 3929   4.482   2.420   1.986
  975SOL    HW2 3930   4.490   2.429   2.081
  975SOL    HW3 3931   4.502   2.508   1.953
  975SOL    MW4 3932   4.486   2.433   1.994
  976SOL     OW 3933   0.067   2.669   1.906
  976SOL    HW2 3934  -0.017   2.708   1.930
  976SOL    HW3 3935   0.065   2.662   1.810
  976SOL    MW4 3936   0.056   2.673   1.896
  977SOL     OW 3937   0.270   2.837   1.978
  977SOL    HW2 3938   0.246   2.925   1.950
  977SOL    HW3 3939   0.194   2.783   1.953
  977SOL    MW4 3940   0.257   2.841   1.971
  978SOL     OW 3941   0.224   3.093   1.893
  978SOL    HW2 3942   0.303   3.140   1.919
  978SOL    HW3 3943   0.226   3.094   1.797
  978SOL    MW4 3944   0.235   3.099   1.884
  979SOL     OW 3945   0.019   3.209   2.027
  979SOL    HW2 3946  -0.053   3.157   1.990
  979SOL    HW3 3947   0.098   3.174   1.986
  979SOL    MW4 3948   0.020   3.198   2.017
  980SOL     OW 3949   0.003   3.453   1.918
  980SOL    HW2 3950   0.081   3.503   1.944
  980SOL    HW3 3951   0.020   3.365   1.952
  980SOL    MW4 3952   0.016   3.448   1.926
  981SOL     OW 3953   0.230   3.631   1.982
  981SOL    HW2 3954   0.245   3.623   2.076
  981SOL    HW3 3955   0.292   3.570   1.942
  981SOL    MW4 3956   0.240   3.622   1.989
  982SOL     OW 3957   0.222   3.895   1.866
  982SOL    HW2 3958   0.302   3.942   1.892
  982SOL    HW3 3959   0.228   3.811   1.911
  982SOL    MW4 3960   0.233   3.890   1.875
  983SOL     OW 3961   0.003   4.012   1.941
  983SOL    HW2 3962   0.014   4.100   1.906
  983SOL    HW3 3963   0.075   3.962   1.904
  983SOL    MW4 3964   0.014   4.017   1.932
  984SOL     OW 3965   0.013   4.269   1.837
  984SOL    HW2 3966  -0.067   4.310   1.872
  984SOL    HW3 3967   0.084   4.308   1.889
  984SOL    MW4 3968   0.012   4.280   1.849
  985SOL     OW 3969   0.218   4.377   1.963
  985SOL    HW2 3970   0.199   4.368   2.056
  985SOL    HW3 3971   0.250   4.467   1.953
  985SOL    MW4 3972   0.220   4.388   1.974
  986SOL     OW 3973   0.662   4.640   1.880
  986SOL    HW2 3974   0.670   4.557   1.926
  986SOL    HW3 3975   0.670   4.617   1.787
  986SOL    MW4 3976   0.664   4.626   1.874
  987SOL     OW 3977   0.446   0.115   1.968
  987SOL    HW2 3978   0.459   0.203   1.931
  987SOL    HW3 3979   0.524   0.066   1.940
  987SOL    MW4 3980   0.458   0.120   1.959
  988SOL     OW 3981   0.460   0.370   1.868
  988SOL    HW2 3982   0.534   0.421   1.901
  988SOL    HW3 3983   0.468   0.372   1.773
  988SOL    MW4 3984   0.471   0.377   1.860
  989SOL     OW 3985   0.689   0.502   1.952
  989SOL    HW2 3986   0.690   0.502   2.047
  989SOL    HW3 3987   0.771   0.460   1.927
  989SOL    MW4 3988   0.700   0.497   1.961
  990SOL     OW 3989   0.683   0.783   1.874
  990SOL    HW2 3990   0.750   0.826   1.928
  990SOL    HW3 3991   0.683   0.693   1.904
  990SOL    MW4 3992   0.692   0.777   1.885
  991SOL     OW 3993   0.455   0.882   1.983
  991SOL    HW2 3994   0.450   0.974   1.956
  991SOL    HW3 3995   0.537   0.850   1.945
  991SOL    MW4 3996   0.465   0.890   1.974
  992SOL     OW 3997   0.471   1.147   1.917
  992SOL    HW2 3998   0.390   1.189   1.947
  992SOL    HW3 3999   0.464   1.147   1.821
  992SOL    MW4 4000   0.459   1.153   1.908
  993SOL     OW 4001   0.690   1.292   2.024
  993SOL    HW2 4002   0.686   1.289   2.119
  993SOL    HW3 4003   0.631   1.223   1.995
  993SOL    MW4 4004   0.682   1.282   2.032
  994SOL     OW 4005   0.704   1.537   1.910
  994SOL    HW2 4006   0.693   1.450   1.947
  994SOL    HW3 4007   0.706   1.523   1.816
  994SOL    MW4 4008   0.703   1.524   1.903
  995SOL     OW 4009   0.459   1.691   2.000
  995SOL    HW2 4010   0.452   1.690   2.095
  995SOL    HW3 4011   0.539   1.642   1.982
  995SOL    MW4 4012   0.469   1.684   2.010
  996SOL     OW 4013   0.447   1.929   1.880
  996SOL    HW2 4014   0.440   1.842   1.919
  996SOL    HW3 4015   0.374   1.978   1.918
  996SOL    MW4 4016   0.436   1.924   1.890
  997SOL     OW 4017   0.677   2.064   2.009
  997SOL    HW2 4018   0.671   2.052   2.104
  997SOL    HW3 4019   0.613   2.004   1.972
  997SOL    MW4 4020   0.668   2.055   2.017
  998SOL     OW 4021   0.696   2.316   1.905
  998SOL    HW2 4022   0.704   2.223   1.929
  998SOL    HW3 4023   0.698   2.316   1.809
  998SOL    MW4 4024   0.697   2.304   1.895
  999SOL     OW 4025   0.471   2.445   1.966
  999SOL    HW2 4026   0.460   2.441   2.061
  999SOL    HW3 4027   0.550   2.395   1.948
  999SOL    MW4 4028   0.480   2.438   1.976
 1000SOL     OW 4029   0.484   2.697   1.854
 1000SOL    HW2 4030   0.490   2.610   1.894
 1000SOL    HW3 4031   0.417   2.743   1.905
 1000SOL    MW4 4032   0.476   2.692   1.866
 1001SOL     OW 4033   0.709   2.847   1.962
 1001SOL    HW2 4034   0.700   2.860   2.057
 1001SOL    HW3 4035   0.625   2.811   1.935
 1001SOL    MW4 4036   0.696   2.844   1.971
 1002SOL     OW 4037   0.624   3.116   1.868
 1002SOL    HW2 4038   0.647   3.025   1.885
 1002SOL    HW3 4039   0.633   3.125   1.773
 1002SOL    MW4 4040   0.628   3.105   1.858
 1003SOL     OW 4041   0.435   3.249   2.026
 1003SOL    HW2 4042   0.410   3.320   1.967
 1003SOL    HW3 4043   0.503   3.201   1.978
 1003SOL    MW4 4044   0.441   3.252   2.011
 1004SOL     OW 4045   0.407   3.467   1.868
 1004SOL    HW2 4046   0.485   3.511   1.904
 1004SOL    HW3 4047   0.414   3.481   1.774
 1004SOL    MW4 4048   0.418   3.475   1.860
 1005SOL     OW 4049   0.619   3.608   1.965
 1005SOL    HW2 4050   0.691   3.552   1.936
 1005SOL    HW3 4051   0.648   3.697   1.946
 1005SOL    MW4 4052   0.632   3.613   1.959
 1006SOL     OW 4053   0.671   3.849   1.840
 1006SOL    HW2 4054   0.755   3.881   1.873
 1006SOL    HW3 4055   0.679   3.855   1.745
 1006SOL    MW4 4056   0.683   3.854   1.832
 1007SOL     OW 4057   0.474   4.024   1.944
 1007SOL    HW2 4058   0.459   4.111   1.905
 1007SOL    HW3 4059   0.545   3.986   1.892
 1007SOL    MW4 4060   0.481   4.031   1.932
 1008SOL     OW 4061   0.457   4.297   1.836
 1008SOL    HW2 4062   0.368   4.314   1.867
 1008SOL    HW3 4063   0.446   4.272   1.744
 1008SOL    MW4 4064   0.444   4.296   1.828
 1009SOL     OW 4065   0.667   4.393   1.988
 1009SOL    HW2 4066   0.745   4.355   1.949
 1009SOL    HW3 4067   0.596   4.367   1.929
 1009SOL    MW4 4068   0.668   4.384   1.975
 1010SOL     OW 4069   1.089   4.613   1.823
 1010SOL    HW2 4070   1.162   4.669   1.848
 1010SOL    HW3 4071   1.093   4.539   1.884
 1010SOL    MW4 4072   1.099   4.610   1.835
 1011SOL     OW 4073   0.904   0.106   1.938
 1011SOL    HW2 4074   0.972   0.053   1.896
 1011SOL    HW3 4075   0.822   0.066   1.911
 1011SOL    MW4 4076   0.902   0.094   1.929
 1012SOL     OW 4077   0.913   0.363   1.882
 1012SOL    HW2 4078   0.988   0.404   1.925
 1012SOL    HW3 4079   0.915   0.272   1.912
 1012SOL    MW4 4080   0.924   0.356   1.891
 1013SOL     OW 4081   1.138   0.479   2.014
 1013SOL    HW2 4082   1.204   0.426   1.969
 1013SOL    HW3 4083   1.152   0.568   1.981
 1013SOL    MW4 4084   1.148   0.484   2.003
 1014SOL     OW 4085   1.128   0.743   1.913
 1014SOL    HW2 4086   1.204   0.797   1.935
 1014SOL    HW3 4087   1.054   0.787   1.956
 1014SOL    MW4 4088   1.128   0.756   1.922
 1015SOL     OW 4089   0.889   0.910   1.990
 1015SOL    HW2 4090   0.900   0.915   2.085
 1015SOL    HW3 4091   0.905   0.999   1.959
 1015SOL    MW4 4092   0.893   0.922   1.998
 1016SOL     OW 4093   0.915   1.159   1.889
 1016SOL    HW2 4094   0.836   1.196   1.927
 1016SOL    HW3 4095   0.888   1.127   1.803
 1016SOL    MW4 4096   0.901   1.159   1.883
 1017SOL     OW 4097   1.139   1.287   1.997
 1017SOL    HW2 4098   1.117   1.376   1.967
 1017SOL    HW3 4099   1.072   1.232   1.957
 1017SOL    MW4 4100   1.127   1.292   1.988
 1018SOL     OW 4101   1.123   1.531   1.841
 1018SOL    HW2 4102   1.050   1.585   1.871
 1018SOL    HW3 4103   1.112   1.526   1.746
 1018SOL    MW4 4104   1.112   1.537   1.833
 1019SOL     OW 4105   0.917   1.649   2.010
 1019SOL    HW2 4106   0.921   1.741   1.985
 1019SOL    HW3 4107   0.833   1.618   1.976
 1019SOL    MW4 4108   0.906   1.657   2.003
 1020SOL     OW 4109   0.908   1.919   1.911
 1020SOL    HW2 4110   0.834   1.975   1.938
 1020SOL    HW3 4111   0.901   1.915   1.816
 1020SOL    MW4 4112   0.897   1.926   1.902
 1021SOL     OW 4113   1.134   2.050   1.995
 1021SOL    HW2 4114   1.127   2.143   1.974
 1021SOL    HW3 4115   1.046   2.016   1.981
 1021SOL    MW4 4116   1.122   2.058   1.990
 1022SOL     OW 4117   1.127   2.318   1.918
 1022SOL    HW2 4118   1.199   2.372   1.951
 1022SOL    HW3 4119   1.150   2.300   1.827
 1022SOL    MW4 4120   1.139   2.323   1.910
 1023SOL     OW 4121   0.916   2.457   2.014
 1023SOL    HW2 4122   0.989   2.410   1.975
 1023SOL    HW3 4123   0.838   2.409   1.986
 1023SOL    MW4 4124   0.915   2.445   2.005
 1024SOL     OW 4125   0.921   2.691   1.870
 1024SOL    HW2 4126   0.927   2.612   1.924
 1024SOL    HW3 4127   0.852   2.743   1.910
 1024SOL    MW4 4128   0.913   2.688   1.882
 1025SOL     OW 4129   1.125   2.859   1.967
 1025SOL    HW2 4130   1.113   2.852   2.061
 1025SOL    HW3 4131   1.067   2.792   1.930
 1025SOL    MW4 4132   1.116   2.849   1.974
 1026SOL     OW 4133   1.078   3.116   1.853
 1026SOL    HW2 4134   0.986   3.133   1.873
 1026SOL    HW3 4135   1.098   3.034   1.897
 1026SOL    MW4 4136   1.068   3.107   1.862
 1027SOL     OW 4137   0.842   3.239   1.978
 1027SOL    HW2 4138   0.825   3.232   2.072
 1027SOL    HW3 4139   0.765   3.201   1.937
 1027SOL    MW4 4140   0.830   3.233   1.985
 1028SOL     OW 4141   0.853   3.490   1.893
 1028SOL    HW2 4142   0.870   3.399   1.917
 1028SOL    HW3 4143   0.847   3.489   1.797
 1028SOL    MW4 4144   0.854   3.478   1.883
 1029SOL     OW 4145   1.108   3.563   1.949
 1029SOL    HW2 4146   1.112   3.568   2.045
 1029SOL    HW3 4147   1.017   3.541   1.930
 1029SOL    MW4 4148   1.097   3.561   1.959
 1030SOL     OW 4149   1.126   3.826   1.913
 1030SOL    HW2 4150   1.123   3.733   1.935
 1030SOL    HW3 4151   1.111   3.829   1.819
 1030SOL    MW4 4152   1.124   3.814   1.904
 1031SOL     OW 4153   0.888   3.981   1.946
 1031SOL    HW2 4154   0.878   3.983   2.042
 1031SOL    HW3 4155   0.966   3.928   1.931
 1031SOL    MW4 4156   0.897   3.974   1.957
 1032SOL     OW 4157   0.884   4.250   1.848
 1032SOL    HW2 4158   0.963   4.282   1.892
 1032SOL    HW3 4159   0.875   4.160   1.878
 1032SOL    MW4 4160   0.893   4.242   1.858
 1033SOL     OW 4161   1.089   4.373   1.972
 1033SOL    HW2 4162   1.101   4.365   2.067
 1033SOL    HW3 4163   1.158   4.320   1.934
 1033SOL    MW4 4164   1.099   4.365   1.980
 1034SOL     OW 4165   1.548   4.641   1.830
 1034SOL    HW2 4166   1.618   4.688   1.876
 1034SOL    HW3 4167   1.534   4.562   1.883
 1034SOL    MW4 4168   1.555   4.637   1.843
 1035SOL     OW 4169   1.318   0.095   1.928
 1035SOL    HW2 4170   1.314   0.073   2.021
 1035SOL    HW3 4171   1.393   0.046   1.894
 1035SOL    MW4 4172   1.327   0.086   1.935
 1036SOL     OW 4173   1.365   0.355   1.855
 1036SOL    HW2 4174   1.365   0.259   1.859
 1036SOL    HW3 4175   1.380   0.375   1.763
 1036SOL    MW4 4176   1.367   0.345   1.843
 1037SOL     OW 4177   1.558   0.503   1.992
 1037SOL    HW2 4178   1.638   0.464   1.957
 1037SOL    HW3 4179   1.487   0.454   1.952
 1037SOL    MW4 4180   1.559   0.492   1.982
 1038SOL     OW 4181   1.558   0.741   1.877
 1038SOL    HW2 4182   1.637   0.790   1.901
 1038SOL    HW3 4183   1.567   0.657   1.922
 1038SOL    MW4 4184   1.570   0.736   1.886
 1039SOL     OW 4185   1.351   0.887   1.986
 1039SOL    HW2 4186   1.342   0.876   2.081
 1039SOL    HW3 4187   1.422   0.828   1.961
 1039SOL    MW4 4188   1.359   0.878   1.995
 1040SOL     OW 4189   1.363   1.157   1.899
 1040SOL    HW2 4190   1.368   1.073   1.945
 1040SOL    HW3 4191   1.296   1.207   1.945
 1040SOL    MW4 4192   1.355   1.152   1.911
 1041SOL     OW 4193   1.613   1.276   1.973
 1041SOL    HW2 4194   1.592   1.366   1.947
 1041SOL    HW3 4195   1.532   1.228   1.959
 1041SOL    MW4 4196   1.599   1.282   1.967
 1042SOL     OW 4197   1.581   1.536   1.860
 1042SOL    HW2 4198   1.638   1.595   1.909
 1042SOL    HW3 4199   1.492   1.562   1.885
 1042SOL    MW4 4200   1.577   1.548   1.870
 1043SOL     OW 4201   1.347   1.637   1.962
 1043SOL    HW2 4202   1.349   1.624   2.057
 1043SOL    HW3 4203   1.271   1.586   1.934
 1043SOL    MW4 4204   1.337   1.628   1.971
 1044SOL     OW 4205   1.350   1.898   1.877
 1044SOL    HW2 4206   1.337   1.808   1.906
 1044SOL    HW3 4207   1.269   1.943   1.902
 1044SOL    MW4 4208   1.337   1.892   1.884
 1045SOL     OW 4209   1.543   2.055   2.013
 1045SOL    HW2 4210   1.518   2.138   1.972
 1045SOL    HW3 4211   1.478   1.992   1.981
 1045SOL    MW4 4212   1.531   2.057   2.004
 1046SOL     OW 4213   1.571   2.303   1.889
 1046SOL    HW2 4214   1.659   2.339   1.904
 1046SOL    HW3 4215   1.565   2.293   1.794
 1046SOL    MW4 4216   1.582   2.307   1.878
 1047SOL     OW 4217   1.374   2.458   2.014
 1047SOL    HW2 4218   1.364   2.545   1.976
 1047SOL    HW3 4219   1.432   2.412   1.953
 1047SOL    MW4 4220   1.381   2.463   2.001
 1048SOL     OW 4221   1.359   2.718   1.914
 1048SOL    HW2 4222   1.286   2.776   1.934
 1048SOL    HW3 4223   1.371   2.725   1.820
 1048SOL    MW4 4224   1.351   2.726   1.904
 1049SOL     OW 4225   1.603   2.810   1.984
 1049SOL    HW2 4226   1.666   2.747   1.949
 1049SOL    HW3 4227   1.518   2.768   1.973
 1049SOL    MW4 4228   1.601   2.796   1.978
 1050SOL     OW 4229   1.541   3.047   1.887
 1050SOL    HW2 4230   1.566   2.957   1.907
 1050SOL    HW3 4231   1.563   3.058   1.794
 1050SOL    MW4 4232   1.547   3.037   1.877
 1051SOL     OW 4233   1.308   3.199   1.968
 1051SOL    HW2 4234   1.367   3.126   1.951
 1051SOL    HW3 4235   1.224   3.170   1.933
 1051SOL    MW4 4236   1.305   3.186   1.961
 1052SOL     OW 4237   1.361   3.451   1.893
 1052SOL    HW2 4238   1.366   3.359   1.920
 1052SOL    HW3 4239   1.271   3.477   1.912
 1052SOL    MW4 4240   1.350   3.442   1.899
 1053SOL     OW 4241   1.581   3.588   2.028
 1053SOL    HW2 4242   1.573   3.600   2.122
 1053SOL    HW3 4243   1.506   3.533   2.004
 1053SOL    MW4 4244   1.570   3.582   2.037
 1054SOL     OW 4245   1.549   3.835   1.924
 1054SOL    HW2 4246   1.620   3.883   1.968
 1054SOL    HW3 4247   1.555   3.746   1.960
 1054SOL    MW4 4248   1.559   3.829   1.935
 1055SOL     OW 4249   1.316   3.998   1.997
 1055SOL    HW2 4250   1.392   3.955   1.958
 1055SOL    HW3 4251   1.241   3.947   1.965
 1055SOL    MW4 4252   1.316   3.986   1.987
 1056SOL     OW 4253   1.306   4.239   1.865
 1056SOL    HW2 4254   1.321   4.155   1.908
 1056SOL    HW3 4255   1.328   4.224   1.773
 1056SOL    MW4 4256   1.311   4.226   1.859
 1057SOL     OW 4257   1.513   4.399   1.975
 1057SOL    HW2 4258   1.513   4.379   2.069
 1057SOL    HW3 4259   1.437   4.352   1.941
 1057SOL    MW4 4260   1.503   4.390   1.983
 1058SOL     OW 4261   1.976   0.027   1.920
 1058SOL    HW2 4262   2.052   0.080   1.946
 1058SOL    HW3 4263   1.997  -0.061   1.951
 1058SOL    MW4 4264   1.989   0.022   1.928
 1059SOL     OW 4265   1.718   0.130   1.976
 1059SOL    HW2 4266   1.722   0.149   2.070
 1059SOL    HW3 4267   1.802   0.090   1.956
 1059SOL    MW4 4268   1.729   0.127   1.986
 1060SOL     OW 4269   1.797   0.391   1.888
 1060SOL    HW2 4270   1.776   0.304   1.921
 1060SOL    HW3 4271   1.780   0.386   1.794
 1060SOL    MW4 4272   1.792   0.379   1.880
 1061SOL     OW 4273   2.029   0.531   1.990
 1061SOL    HW2 4274   2.037   0.620   1.955
 1061SOL    HW3 4275   1.945   0.500   1.957
 1061SOL    MW4 4276   2.019   0.539   1.981
 1062SOL     OW 4277   2.039   0.779   1.889
 1062SOL    HW2 4278   2.110   0.839   1.910
 1062SOL    HW3 4279   2.035   0.778   1.793
 1062SOL    MW4 4280   2.048   0.787   1.879
 1063SOL     OW 4281   1.794   0.865   1.965
 1063SOL    HW2 4282   1.809   0.952   1.929
 1063SOL    HW3 4283   1.877   0.820   1.954
 1063SOL    MW4 4284   1.807   0.871   1.959
 1064SOL     OW 4285   1.826   1.137   1.866
 1064SOL    HW2 4286   1.748   1.186   1.892
 1064SOL    HW3 4287   1.822   1.134   1.771
 1064SOL    MW4 4288   1.815   1.143   1.857
 1065SOL     OW 4289   2.020   1.292   1.971
 1065SOL    HW2 4290   2.096   1.248   1.931
 1065SOL    HW3 4291   1.945   1.252   1.928
 1065SOL    MW4 4292   2.020   1.281   1.960
 1066SOL     OW 4293   1.981   1.555   1.894
 1066SOL    HW2 4294   2.001   1.472   1.935
 1066SOL    HW3 4295   2.003   1.543   1.802
 1066SOL    MW4 4296   1.986   1.543   1.887
 1067SOL     OW 4297   1.757   1.712   1.985
 1067SOL    HW2 4298   1.758   1.801   1.950
 1067SOL    HW3 4299   1.835   1.671   1.947
 1067SOL    MW4 4300   1.768   1.719   1.975
 1068SOL     OW 4301   1.748   1.971   1.872
 1068SOL    HW2 4302   1.667   2.005   1.911
 1068SOL    HW3 4303   1.730   1.969   1.778
 1068SOL    MW4 4304   1.735   1.976   1.865
 1069SOL     OW 4305   2.009   2.074   1.971
 1069SOL    HW2 4306   2.070   2.008   1.937
 1069SOL    HW3 4307   1.928   2.059   1.923
 1069SOL    MW4 4308   2.006   2.063   1.961
 1070SOL     OW 4309   2.050   2.329   1.875
 1070SOL    HW2 4310   2.131   2.373   1.901
 1070SOL    HW3 4311   2.047   2.250   1.928
 1070SOL    MW4 4312   2.060   2.325   1.885
 1071SOL     OW 4313   1.810   2.443   1.961
 1071SOL    HW2 4314   1.809   2.458   2.056
 1071SOL    HW3 4315   1.898   2.411   1.942
 1071SOL    MW4 4316   1.821   2.441   1.971
 1072SOL     OW 4317   1.791   2.684   1.845
 1072SOL    HW2 4318   1.804   2.592   1.869
 1072SOL    HW3 4319   1.784   2.683   1.749
 1072SOL    MW4 4320   1.791   2.672   1.836
 1073SOL     OW 4321   2.019   2.820   1.929
 1073SOL    HW2 4322   2.019   2.807   2.024
 1073SOL    HW3 4323   1.941   2.773   1.899
 1073SOL    MW4 4324   2.009   2.812   1.938
 1074SOL     OW 4325   2.011   3.095   1.871
 1074SOL    HW2 4326   1.937   3.129   1.921
 1074SOL    HW3 4327   2.019   3.004   1.899
 1074SOL    MW4 4328   2.002   3.087   1.881
 1075SOL     OW 4329   1.769   3.199   1.977
 1075SOL    HW2 4330   1.755   3.207   2.072
 1075SOL    HW3 4331   1.697   3.144   1.947
 1075SOL    MW4 4332   1.758   3.193   1.986
 1076SOL     OW 4333   1.799   3.476   1.900
 1076SOL    HW2 4334   1.790   3.387   1.932
 1076SOL    HW3 4335   1.728   3.524   1.943
 1076SOL    MW4 4336   1.788   3.471   1.910
 1077SOL     OW 4337   2.034   3.616   1.997
 1077SOL    HW2 4338   2.013   3.701   1.960
 1077SOL    HW3 4339   1.959   3.561   1.974
 1077SOL    MW4 4340   2.021   3.620   1.989
 1078SOL     OW 4341   1.975   3.874   1.891
 1078SOL    HW2 4342   2.065   3.901   1.909
 1078SOL    HW3 4343   1.972   3.860   1.797
 1078SOL    MW4 4344   1.987   3.875   1.881
 1079SOL     OW 4345   1.760   3.983   2.017
 1079SOL    HW2 4346   1.771   4.072   1.984
 1079SOL    HW3 4347   1.837   3.936   1.986
 1079SOL    MW4 4348   1.772   3.988   2.008
 1080SOL     OW 4349   1.764   4.259   1.871
 1080SOL    HW2 4350   1.687   4.305   1.905
 1080SOL    HW3 4351   1.756   4.266   1.776
 1080SOL    MW4 4352   1.753   4.266   1.863
 1081SOL     OW 4353   2.019   4.392   1.930
 1081SOL    HW2 4354   2.092   4.347   1.888
 1081SOL    HW3 4355   1.942   4.342   1.903
 1081SOL    MW4 4356   2.018   4.379   1.921
 1082SOL     OW 4357   2.441   4.650   1.890
 1082SOL    HW2 4358   2.520   4.690   1.927
 1082SOL    HW3 4359   2.436   4.564   1.931
 1082SOL    MW4 4360   2.451   4.644   1.900
 1083SOL     OW 4361   2.218   0.144   1.980
 1083SOL    HW2 4362   2.253   0.146   2.069
 1083SOL    HW3 4363   2.274   0.082   1.933
 1083SOL    MW4 4364   2.230   0.136   1.985
 1084SOL     OW 4365   2.263   0.406   1.877
 1084SOL    HW2 4366   2.258   0.317   1.913
 1084SOL    HW3 4367   2.187   0.451   1.913
 1084SOL    MW4 4368   2.252   0.400   1.886
 1085SOL     OW 4369   2.497   0.515   1.998
 1085SOL    HW2 4370   2.560   0.461   1.951
 1085SOL    HW3 4371   2.413   0.471   1.986
 1085SOL    MW4 4372   2.494   0.502   1.990
 1086SOL     OW 4373   2.455   0.752   1.863
 1086SOL    HW2 4374   2.444   0.669   1.909
 1086SOL    HW3 4375   2.430   0.734   1.773
 1086SOL    MW4 4376   2.450   0.739   1.857
 1087SOL     OW 4377   2.258   0.915   1.990
 1087SOL    HW2 4378   2.234   0.918   2.082
 1087SOL    HW3 4379   2.343   0.870   1.989
 1087SOL    MW4 4380   2.266   0.909   2.002
 1088SOL     OW 4381   2.223   1.151   1.853
 1088SOL    HW2 4382   2.309   1.191   1.861
 1088SOL    HW3 4383   2.229   1.069   1.902
 1088SOL    MW4 4384   2.235   1.145   1.860
 1089SOL     OW 4385   2.490   1.253   1.936
 1089SOL    HW2 4386   2.478   1.249   2.031
 1089SOL    HW3 4387   2.498   1.346   1.916
 1089SOL    MW4 4388   2.490   1.265   1.946
 1090SOL     OW 4389   2.481   1.538   1.922
 1090SOL    HW2 4390   2.396   1.558   1.961
 1090SOL    HW3 4391   2.464   1.529   1.828
 1090SOL    MW4 4392   2.467   1.540   1.915
 1091SOL     OW 4393   2.227   1.651   2.004
 1091SOL    HW2 4394   2.248   1.648   2.097
 1091SOL    HW3 4395   2.132   1.651   2.001
 1091SOL    MW4 4396   2.217   1.650   2.016
 1092SOL     OW 4397   2.210   1.903   1.886
 1092SOL    HW2 4398   2.283   1.959   1.913
 1092SOL    HW3 4399   2.231   1.817   1.922
 1092SOL    MW4 4400   2.222   1.899   1.894
 1093SOL     OW 4401   2.442   2.060   1.980
 1093SOL    HW2 4402   2.512   2.000   1.954
 1093SOL    HW3 4403   2.474   2.147   1.956
 1093SOL    MW4 4404   2.455   2.064   1.973
 1094SOL     OW 4405   2.517   2.319   1.906
 1094SOL    HW2 4406   2.589   2.376   1.933
 1094SOL    HW3 4407   2.439   2.361   1.941
 1094SOL    MW4 4408   2.517   2.332   1.914
 1095SOL     OW 4409   2.289   2.465   1.990
 1095SOL    HW2 4410   2.271   2.490   2.080
 1095SOL    HW3 4411   2.264   2.541   1.938
 1095SOL    MW4 4412   2.283   2.478   1.995
 1096SOL     OW 4413   2.252   2.697   1.841
 1096SOL    HW2 4414   2.170   2.736   1.870
 1096SOL    HW3 4415   2.238   2.679   1.748
 1096SOL    MW4 4416   2.239   2.700   1.833
 1097SOL     OW 4417   2.457   2.813   1.991
 1097SOL    HW2 4418   2.456   2.902   1.956
 1097SOL    HW3 4419   2.397   2.764   1.935
 1097SOL    MW4 4420   2.449   2.818   1.979
 1098SOL     OW 4421   2.463   3.087   1.887
 1098SOL    HW2 4422   2.397   3.138   1.933
 1098SOL    HW3 4423   2.438   3.090   1.795
 1098SOL    MW4 4424   2.451   3.094   1.881
 1099SOL     OW 4425   2.220   3.249   1.972
 1099SOL    HW2 4426   2.219   3.235   2.067
 1099SOL    HW3 4427   2.142   3.204   1.941
 1099SOL    MW4 4428   2.210   3.241   1.981
 1100SOL     OW 4429   2.258   3.509   1.887
 1100SOL    HW2 4430   2.248   3.419   1.918
 1100SOL    HW3 4431   2.175   3.551   1.909
 1100SOL    MW4 4432   2.245   3.503   1.894
 1101SOL     OW 4433   2.487   3.627   1.986
 1101SOL    HW2 4434   2.495   3.630   2.081
 1101SOL    HW3 4435   2.405   3.579   1.970
 1101SOL    MW4 4436   2.477   3.621   1.996
 1102SOL     OW 4437   2.487   3.880   1.881
 1102SOL    HW2 4438   2.404   3.921   1.907
 1102SOL    HW3 4439   2.483   3.792   1.916
 1102SOL    MW4 4440   2.476   3.874   1.889
 1103SOL     OW 4441   2.234   3.970   1.930
 1103SOL    HW2 4442   2.243   3.973   2.026
 1103SOL    HW3 4443   2.218   4.060   1.904
 1103SOL    MW4 4444   2.233   3.982   1.939
 1104SOL     OW 4445   2.210   4.229   1.826
 1104SOL    HW2 4446   2.289   4.262   1.869
 1104SOL    HW3 4447   2.233   4.227   1.733
 1104SOL    MW4 4448   2.223   4.233   1.819
 1105SOL     OW 4449   2.429   4.364   1.961
 1105SOL    HW2 4450   2.426   4.357   2.056
 1105SOL    HW3 4451   2.518   4.340   1.937
 1105SOL    MW4 4452   2.440   4.360   1.970
 1106SOL     OW 4453   2.963   0.032   1.940
 1106SOL    HW2 4454   3.053   0.053   1.964
 1106SOL    HW3 4455   2.955  -0.062   1.957
 1106SOL    MW4 4456   2.974   0.022   1.945
 1107SOL     OW 4457   2.679   0.095   1.999
 1107SOL    HW2 4458   2.678   0.109   2.094
 1107SOL    HW3 4459   2.769   0.068   1.980
 1107SOL    MW4 4460   2.691   0.094   2.009
 1108SOL     OW 4461   2.679   0.348   1.886
 1108SOL    HW2 4462   2.755   0.376   1.936
 1108SOL    HW3 4463   2.666   0.256   1.911
 1108SOL    MW4 4464   2.687   0.339   1.896
 1109SOL     OW 4465   2.925   0.473   1.985
 1109SOL    HW2 4466   3.011   0.435   1.964
 1109SOL    HW3 4467   2.919   0.551   1.930
 1109SOL    MW4 4468   2.936   0.478   1.975
 1110SOL     OW 4469   2.960   0.718   1.861
 1110SOL    HW2 4470   3.035   0.755   1.909
 1110SOL    HW3 4471   2.885   0.770   1.890
 1110SOL    MW4 4472   2.960   0.730   1.871
 1111SOL     OW 4473   2.717   0.842   1.934
 1111SOL    HW2 4474   2.714   0.934   1.910
 1111SOL    HW3 4475   2.633   0.807   1.903
 1111SOL    MW4 4476   2.705   0.849   1.927
 1112SOL     OW 4477   2.720   1.113   1.847
 1112SOL    HW2 4478   2.646   1.160   1.886
 1112SOL    HW3 4479   2.710   1.126   1.753
 1112SOL    MW4 4480   2.709   1.121   1.840
 1113SOL     OW 4481   2.923   1.256   1.952
 1113SOL    HW2 4482   2.919   1.344   1.916
 1113SOL    HW3 4483   2.848   1.211   1.914
 1113SOL    MW4 4484   2.913   1.261   1.942
 1114SOL     OW 4485   2.913   1.521   1.848
 1114SOL    HW2 4486   3.001   1.543   1.878
 1114SOL    HW3 4487   2.919   1.522   1.753
 1114SOL    MW4 4488   2.926   1.524   1.840
 1115SOL     OW 4489   2.722   1.663   1.987
 1115SOL    HW2 4490   2.791   1.617   1.939
 1115SOL    HW3 4491   2.642   1.613   1.966
 1115SOL    MW4 4492   2.720   1.650   1.978
 1116SOL     OW 4493   2.677   1.917   1.887
 1116SOL    HW2 4494   2.752   1.961   1.929
 1116SOL    HW3 4495   2.687   1.825   1.913
 1116SOL    MW4 4496   2.689   1.911   1.896
 1117SOL     OW 4497   2.916   2.041   1.962
 1117SOL    HW2 4498   2.918   2.049   2.057
 1117SOL    HW3 4499   2.977   1.970   1.943
 1117SOL    MW4 4500   2.924   2.033   1.972
 1118SOL     OW 4501   2.890   2.297   1.860
 1118SOL    HW2 4502   2.965   2.357   1.872
 1118SOL    HW3 4503   2.918   2.216   1.903
 1118SOL    MW4 4504   2.904   2.294   1.867
 1119SOL     OW 4505   2.720   2.478   1.984
 1119SOL    HW2 4506   2.713   2.562   1.939
 1119SOL    HW3 4507   2.776   2.425   1.928
 1119SOL    MW4 4508   2.726   2.482   1.971
 1120SOL     OW 4509   2.695   2.721   1.855
 1120SOL    HW2 4510   2.618   2.745   1.907
 1120SOL    HW3 4511   2.664   2.725   1.764
 1120SOL    MW4 4512   2.680   2.725   1.850
 1121SOL     OW 4513   2.889   2.881   1.991
 1121SOL    HW2 4514   2.895   2.969   1.955
 1121SOL    HW3 4515   2.813   2.842   1.948
 1121SOL    MW4 4516   2.880   2.888   1.981
 1122SOL     OW 4517   2.907   3.125   1.859
 1122SOL    HW2 4518   2.988   3.156   1.899
 1122SOL    HW3 4519   2.838   3.174   1.904
 1122SOL    MW4 4520   2.908   3.136   1.871
 1123SOL     OW 4521   2.696   3.260   1.955
 1123SOL    HW2 4522   2.689   3.342   1.906
 1123SOL    HW3 4523   2.617   3.211   1.931
 1123SOL    MW4 4524   2.685   3.264   1.945
 1124SOL     OW 4525   2.693   3.501   1.844
 1124SOL    HW2 4526   2.771   3.549   1.872
 1124SOL    HW3 4527   2.620   3.548   1.884
 1124SOL    MW4 4528   2.694   3.514   1.853
 1125SOL     OW 4529   2.904   3.634   1.939
 1125SOL    HW2 4530   2.883   3.663   2.028
 1125SOL    HW3 4531   2.979   3.575   1.950
 1125SOL    MW4 4532   2.911   3.630   1.952
 1126SOL     OW 4533   2.937   3.912   1.895
 1126SOL    HW2 4534   2.933   3.817   1.907
 1126SOL    HW3 4535   2.948   3.923   1.800
 1126SOL    MW4 4536   2.938   3.901   1.884
 1127SOL     OW 4537   2.689   4.032   1.995
 1127SOL    HW2 4538   2.770   3.997   1.958
 1127SOL    HW3 4539   2.620   3.972   1.965
 1127SOL    MW4 4540   2.691   4.019   1.986
 1128SOL     OW 4541   2.690   4.289   1.888
 1128SOL    HW2 4542   2.679   4.198   1.916
 1128SOL    HW3 4543   2.688   4.285   1.792
 1128SOL    MW4 4544   2.688   4.276   1.879
 1129SOL     OW 4545   2.929   4.411   1.982
 1129SOL    HW2 4546   2.918   4.420   2.077
 1129SOL    HW3 4547   2.847   4.372   1.952
 1129SOL    MW4 4548   2.917   4.407   1.991
 1130SOL     OW 4549   3.393   4.612   1.924
 1130SOL    HW2 4550   3.405   4.524   1.958
 1130SOL    HW3 4551   3.403   4.602   1.829
 1130SOL    MW4 4552   3.396   4.599   1.916
 1131SOL     OW 4553   3.218   0.128   1.999
 1131SOL    HW2 4554   3.209   0.118   2.094
 1131SOL    HW3 4555   3.278   0.057   1.973
 1131SOL    MW4 4556   3.225   0.117   2.008
 1132SOL     OW 4557   3.155   0.370   1.854
 1132SOL    HW2 4558   3.175   0.281   1.882
 1132SOL    HW3 4559   3.165   0.369   1.759
 1132SOL    MW4 4560   3.159   0.358   1.845
 1133SOL     OW 4561   3.367   0.509   1.979
 1133SOL    HW2 4562   3.443   0.463   1.944
 1133SOL    HW3 4563   3.291   0.466   1.940
 1133SOL    MW4 4564   3.367   0.498   1.969
 1134SOL     OW 4565   3.379   0.760   1.862
 1134SOL    HW2 4566   3.302   0.797   1.904
 1134SOL    HW3 4567   3.383   0.670   1.896
 1134SOL    MW4 4568   3.370   0.753   1.872
 1135SOL     OW 4569   3.147   0.861   1.984
 1135SOL    HW2 4570   3.128   0.875   2.077
 1135SOL    HW3 4571   3.140   0.948   1.944
 1135SOL    MW4 4572   3.143   0.874   1.991
 1136SOL     OW 4573   3.126   1.112   1.858
 1136SOL    HW2 4574   3.193   1.178   1.875
 1136SOL    HW3 4575   3.043   1.155   1.879
 1136SOL    MW4 4576   3.124   1.127   1.863
 1137SOL     OW 4577   3.356   1.242   1.943
 1137SOL    HW2 4578   3.346   1.259   2.036
 1137SOL    HW3 4579   3.383   1.326   1.906
 1137SOL    MW4 4580   3.358   1.256   1.950
 1138SOL     OW 4581   3.410   1.504   1.859
 1138SOL    HW2 4582   3.475   1.558   1.903
 1138SOL    HW3 4583   3.329   1.516   1.909
 1138SOL    MW4 4584   3.408   1.512   1.871
 1139SOL     OW 4585   3.161   1.599   1.960
 1139SOL    HW2 4586   3.150   1.612   2.054
 1139SOL    HW3 4587   3.172   1.687   1.924
 1139SOL    MW4 4588   3.161   1.612   1.968
 1140SOL     OW 4589   3.122   1.861   1.884
 1140SOL    HW2 4590   3.185   1.925   1.916
 1140SOL    HW3 4591   3.120   1.873   1.789
 1140SOL    MW4 4592   3.130   1.871   1.876
 1141SOL     OW 4593   3.327   2.033   1.959
 1141SOL    HW2 4594   3.413   1.995   1.943
 1141SOL    HW3 4595   3.328   2.116   1.912
 1141SOL    MW4 4596   3.339   2.039   1.951
 1142SOL     OW 4597   3.365   2.306   1.820
 1142SOL    HW2 4598   3.294   2.354   1.862
 1142SOL    HW3 4599   3.352   2.320   1.726
 1142SOL    MW4 4600   3.354   2.314   1.813
 1143SOL     OW 4601   3.129   2.450   1.930
 1143SOL    HW2 4602   3.137   2.453   2.025
 1143SOL    HW3 4603   3.116   2.542   1.904
 1143SOL    MW4 4604   3.128   2.463   1.939
 1144SOL     OW 4605   3.108   2.739   1.874
 1144SOL    HW2 4606   3.030   2.781   1.910
 1144SOL    HW3 4607   3.100   2.749   1.779
 1144SOL    MW4 4608   3.097   2.746   1.866
 1145SOL     OW 4609   3.367   2.824   1.969
 1145SOL    HW2 4610   3.352   2.805   2.062
 1145SOL    HW3 4611   3.281   2.811   1.928
 1145SOL    MW4 4612   3.354   2.820   1.976
 1146SOL     OW 4613   3.353   3.107   1.915
 1146SOL    HW2 4614   3.437   3.140   1.950
 1146SOL    HW3 4615   3.353   3.015   1.939
 1146SOL    MW4 4616   3.364   3.099   1.923
 1147SOL     OW 4617   3.115   3.233   2.006
 1147SOL    HW2 4618   3.113   3.325   1.982
 1147SOL    HW3 4619   3.207   3.207   1.994
 1147SOL    MW4 4620   3.127   3.242   2.001
 1148SOL     OW 4621   3.134   3.475   1.913
 1148SOL    HW2 4622   3.207   3.510   1.965
 1148SOL    HW3 4623   3.159   3.493   1.822
 1148SOL    MW4 4624   3.147   3.482   1.908
 1149SOL     OW 4625   3.367   3.583   2.008
 1149SOL    HW2 4626   3.439   3.525   1.985
 1149SOL    HW3 4627   3.394   3.669   1.975
 1149SOL    MW4 4628   3.380   3.587   2.001
 1150SOL     OW 4629   3.387   3.847   1.906
 1150SOL    HW2 4630   3.310   3.898   1.933
 1150SOL    HW3 4631   3.374   3.833   1.812
 1150SOL    MW4 4632   3.375   3.852   1.897
 1151SOL     OW 4633   3.188   4.014   1.990
 1151SOL    HW2 4634   3.204   4.005   2.084
 1151SOL    HW3 4635   3.095   3.996   1.980
 1151SOL    MW4 4636   3.178   4.010   2.001
 1152SOL     OW 4637   3.136   4.248   1.861
 1152SOL    HW2 4638   3.163   4.172   1.911
 1152SOL    HW3 4639   3.066   4.287   1.912
 1152SOL    MW4 4640   3.130   4.243   1.874
 1153SOL     OW 4641   3.376   4.347   2.005
 1153SOL    HW2 4642   3.441   4.290   1.964
 1153SOL    HW3 4643   3.293   4.317   1.970
 1153SOL    MW4 4644   3.374   4.336   1.995
 1154SOL     OW 4645   3.817   4.622   1.837
 1154SOL    HW2 4646   3.801   4.542   1.886
 1154SOL    HW3 4647   3.742   4.678   1.859
 1154SOL    MW4 4648   3.805   4.619   1.846
 1155SOL     OW 4649   3.606   0.110   1.941
 1155SOL    HW2 4650   3.616   0.129   2.034
 1155SOL    HW3 4651   3.528   0.056   1.935
 1155SOL    MW4 4652   3.597   0.106   1.952
 1156SOL     OW 4653   3.580   0.384   1.851
 1156SOL    HW2 4654   3.585   0.293   1.879
 1156SOL    HW3 4655   3.583   0.380   1.756
 1156SOL    MW4 4656   3.581   0.372   1.842
 1157SOL     OW 4657   3.791   0.522   1.987
 1157SOL    HW2 4658   3.793   0.608   1.946
 1157SOL    HW3 4659   3.707   0.485   1.961
 1157SOL    MW4 4660   3.780   0.528   1.978
 1158SOL     OW 4661   3.817   0.768   1.868
 1158SOL    HW2 4662   3.740   0.820   1.891
 1158SOL    HW3 4663   3.818   0.766   1.773
 1158SOL    MW4 4664   3.807   0.774   1.859
 1159SOL     OW 4665   3.581   0.887   1.981
 1159SOL    HW2 4666   3.576   0.973   1.937
 1159SOL    HW3 4667   3.505   0.839   1.948
 1159SOL    MW4 4668   3.570   0.892   1.971
 1160SOL     OW 4669   3.575   1.124   1.853
 1160SOL    HW2 4670   3.497   1.166   1.891
 1160SOL    HW3 4671   3.565   1.136   1.759
 1160SOL    MW4 4672   3.563   1.131   1.846
 1161SOL     OW 4673   3.795   1.277   1.940
 1161SOL    HW2 4674   3.802   1.268   2.035
 1161SOL    HW3 4675   3.709   1.239   1.919
 1161SOL    MW4 4676   3.784   1.271   1.950
 1162SOL     OW 4677   3.847   1.547   1.861
 1162SOL    HW2 4678   3.925   1.578   1.906
 1162SOL    HW3 4679   3.835   1.457   1.894
 1162SOL    MW4 4680   3.855   1.539   1.872
 1163SOL     OW 4681   3.609   1.666   1.959
 1163SOL    HW2 4682   3.605   1.760   1.940
 1163SOL    HW3 4683   3.700   1.642   1.943
 1163SOL    MW4 4684   3.620   1.675   1.954
 1164SOL     OW 4685   3.592   1.919   1.883
 1164SOL    HW2 4686   3.664   1.973   1.915
 1164SOL    HW3 4687   3.596   1.928   1.787
 1164SOL    MW4 4688   3.602   1.927   1.874
 1165SOL     OW 4689   3.841   2.012   1.950
 1165SOL    HW2 4690   3.910   1.974   1.896
 1165SOL    HW3 4691   3.839   2.104   1.926
 1165SOL    MW4 4692   3.850   2.019   1.940
 1166SOL     OW 4693   3.799   2.280   1.837
 1166SOL    HW2 4694   3.878   2.317   1.877
 1166SOL    HW3 4695   3.730   2.342   1.859
 1166SOL    MW4 4696   3.801   2.293   1.845
 1167SOL     OW 4697   3.581   2.439   1.933
 1167SOL    HW2 4698   3.575   2.526   1.893
 1167SOL    HW3 4699   3.504   2.392   1.899
 1167SOL    MW4 4700   3.570   2.444   1.923
 1168SOL     OW 4701   3.578   2.711   1.846
 1168SOL    HW2 4702   3.660   2.741   1.885
 1168SOL    HW3 4703   3.510   2.759   1.894
 1168SOL    MW4 4704   3.580   2.722   1.857
 1169SOL     OW 4705   3.826   2.799   1.959
 1169SOL    HW2 4706   3.823   2.801   2.055
 1169SOL    HW3 4707   3.858   2.886   1.934
 1169SOL    MW4 4708   3.829   2.811   1.968
 1170SOL     OW 4709   3.832   3.073   1.872
 1170SOL    HW2 4710   3.754   3.114   1.908
 1170SOL    HW3 4711   3.808   3.049   1.782
 1170SOL    MW4 4712   3.819   3.076   1.865
 1171SOL     OW 4713   3.613   3.191   1.994
 1171SOL    HW2 4714   3.612   3.194   2.089
 1171SOL    HW3 4715   3.603   3.282   1.966
 1171SOL    MW4 4716   3.612   3.203   2.003
 1172SOL     OW 4717   3.588   3.445   1.926
 1172SOL    HW2 4718   3.663   3.491   1.965
 1172SOL    HW3 4719   3.601   3.454   1.831
 1172SOL    MW4 4720   3.600   3.452   1.918
 1173SOL     OW 4721   3.844   3.577   1.975
 1173SOL    HW2 4722   3.923   3.539   1.935
 1173SOL    HW3 4723   3.847   3.669   1.951
 1173SOL    MW4 4724   3.855   3.584   1.967
 1174SOL     OW 4725   3.837   3.840   1.858
 1174SOL    HW2 4726   3.760   3.891   1.882
 1174SOL    HW3 4727   3.832   3.833   1.762
 1174SOL    MW4 4728   3.826   3.846   1.848
 1175SOL     OW 4729   3.623   3.967   1.965
 1175SOL    HW2 4730   3.631   3.980   2.060
 1175SOL    HW3 4731   3.538   3.923   1.954
 1175SOL    MW4 4732   3.613   3.963   1.976
 1176SOL     OW 4733   3.584   4.234   1.862
 1176SOL    HW2 4734   3.656   4.287   1.896
 1176SOL    HW3 4735   3.599   4.147   1.900
 1176SOL    MW4 4736   3.596   4.229   1.871
 1177SOL     OW 4737   3.791   4.393   1.984
 1177SOL    HW2 4738   3.785   4.375   2.078
 1177SOL    HW3 4739   3.874   4.352   1.958
 1177SOL    MW4 4740   3.801   4.385   1.993
 1178SOL     OW 4741   4.271   4.640   1.862
 1178SOL    HW2 4742   4.194   4.691   1.887
 1178SOL    HW3 4743   4.343   4.678   1.913
 1178SOL    MW4 4744   4.270   4.651   1.872
 1179SOL     OW 4745   4.028   0.098   1.932
 1179SOL    HW2 4746   4.026   0.070   2.024
 1179SOL    HW3 4747   3.970   0.036   1.888
 1179SOL    MW4 4748   4.020   0.086   1.938
 1180SOL     OW 4749   4.009   0.371   1.865
 1180SOL    HW2 4750   4.008   0.276   1.882
 1180SOL    HW3 4751   3.933   0.404   1.914
 1180SOL    MW4 4752   3.999   0.363   1.874
 1181SOL     OW 4753   4.254   0.477   1.998
 1181SOL    HW2 4754   4.246   0.460   2.092
 1181SOL    HW3 4755   4.178   0.433   1.959
 1181SOL    MW4 4756   4.243   0.469   2.006
 1182SOL     OW 4757   4.280   0.725   1.880
 1182SOL    HW2 4758   4.271   0.634   1.908
 1182SOL    HW3 4759   4.277   0.721   1.784
 1182SOL    MW4 4760   4.278   0.713   1.871
 1183SOL     OW 4761   4.053   0.901   1.955
 1183SOL    HW2 4762   4.117   0.832   1.934
 1183SOL    HW3 4763   3.969   0.861   1.933
 1183SOL    MW4 4764   4.050   0.886   1.949
 1184SOL     OW 4765   4.048   1.166   1.861
 1184SOL    HW2 4766   4.054   1.077   1.896
 1184SOL    HW3 4767   3.969   1.203   1.900
 1184SOL    MW4 4768   4.039   1.159   1.871
 1185SOL     OW 4769   4.303   1.273   1.944
 1185SOL    HW2 4770   4.311   1.267   2.039
 1185SOL    HW3 4771   4.216   1.238   1.925
 1185SOL    MW4 4772   4.292   1.267   1.954
 1186SOL     OW 4773   4.296   1.531   1.883
 1186SOL    HW2 4774   4.301   1.437   1.899
 1186SOL    HW3 4775   4.296   1.539   1.788
 1186SOL    MW4 4776   4.296   1.520   1.873
 1187SOL     OW 4777   4.073   1.657   1.964
 1187SOL    HW2 4778   4.067   1.661   2.059
 1187SOL    HW3 4779   4.158   1.617   1.947
 1187SOL    MW4 4780   4.083   1.653   1.974
 1188SOL     OW 4781   4.062   1.911   1.824
 1188SOL    HW2 4782   4.060   1.821   1.858
 1188SOL    HW3 4783   4.069   1.900   1.729
 1188SOL    MW4 4784   4.063   1.898   1.816
 1189SOL     OW 4785   4.276   2.042   1.952
 1189SOL    HW2 4786   4.265   2.036   2.047
 1189SOL    HW3 4787   4.193   2.011   1.916
 1189SOL    MW4 4788   4.264   2.037   1.960
 1190SOL     OW 4789   4.276   2.285   1.832
 1190SOL    HW2 4790   4.280   2.197   1.870
 1190SOL    HW3 4791   4.350   2.331   1.871
 1190SOL    MW4 4792   4.286   2.280   1.842
 1191SOL     OW 4793   4.024   2.386   1.920
 1191SOL    HW2 4794   4.039   2.410   2.012
 1191SOL    HW3 4795   4.106   2.347   1.891
 1191SOL    MW4 4796   4.037   2.384   1.929
 1192SOL     OW 4797   4.027   2.654   1.843
 1192SOL    HW2 4798   4.021   2.560   1.861
 1192SOL    HW3 4799   3.956   2.693   1.894
 1192SOL    MW4 4800   4.017   2.647   1.852
 1193SOL     OW 4801   4.274   2.751   1.951
 1193SOL    HW2 4802   4.255   2.749   2.045
 1193SOL    HW3 4803   4.195   2.717   1.910
 1193SOL    MW4 4804   4.261   2.746   1.958
 1194SOL     OW 4805   4.275   3.045   1.872
 1194SOL    HW2 4806   4.203   3.096   1.911
 1194SOL    HW3 4807   4.267   2.958   1.911
 1194SOL    MW4 4808   4.264   3.040   1.883
 1195SOL     OW 4809   4.054   3.191   1.971
 1195SOL    HW2 4810   4.043   3.212   2.064
 1195SOL    HW3 4811   3.970   3.153   1.945
 1195SOL    MW4 4812   4.042   3.189   1.980
 1196SOL     OW 4813   4.048   3.444   1.845
 1196SOL    HW2 4814   4.123   3.492   1.879
 1196SOL    HW3 4815   4.056   3.357   1.883
 1196SOL    MW4 4816   4.059   3.439   1.855
 1197SOL     OW 4817   4.255   3.595   1.944
 1197SOL    HW2 4818   4.251   3.687   1.920
 1197SOL    HW3 4819   4.348   3.572   1.936
 1197SOL    MW4 4820   4.267   3.604   1.940
 1198SOL     OW 4821   4.278   3.865   1.856
 1198SOL    HW2 4822   4.348   3.926   1.882
 1198SOL    HW3 4823   4.275   3.871   1.761
 1198SOL    MW4 4824   4.287   3.874   1.847
 1199SOL     OW 4825   4.047   4.006   1.955
 1199SOL    HW2 4826   4.120   3.960   1.914
 1199SOL    HW3 4827   3.968   3.966   1.917
 1199SOL    MW4 4828   4.046   3.995   1.944
 1200SOL     OW 4829   4.027   4.276   1.896
 1200SOL    HW2 4830   4.116   4.309   1.903
 1200SOL    HW3 4831   4.033   4.183   1.919
 1200SOL    MW4 4832   4.039   4.268   1.900
 1201SOL     OW 4833   4.277   4.370   1.952
 1201SOL    HW2 4834   4.254   4.357   2.044
 1201SOL    HW3 4835   4.280   4.465   1.942
 1201SOL    MW4 4836   4.274   4.381   1.963
 1202SOL     OW 4837   0.216   4.604   2.313
 1202SOL    HW2 4838   0.220   4.607   2.408
 1202SOL    HW3 4839   0.291   4.655   2.284
 1202SOL    MW4 4840   0.226   4.611   2.322
 1203SOL     OW 4841   4.465   0.073   2.218
 1203SOL    HW2 4842   4.548   0.045   2.257
 1203SOL    HW3 4843   4.482   0.077   2.124
 1203SOL    MW4 4844   4.478   0.070   2.211
 1204SOL     OW 4845   4.468   0.328   2.355
 1204SOL    HW2 4846   4.554   0.367   2.337
 1204SOL    HW3 4847   4.471   0.243   2.312
 1204SOL    MW4 4848   4.480   0.322   2.347
 1205SOL     OW 4849   0.221   0.475   2.264
 1205SOL    HW2 4850   0.309   0.454   2.296
 1205SOL    HW3 4851   0.228   0.465   2.169
 1205SOL    MW4 4852   0.234   0.471   2.255
 1206SOL     OW 4853   0.241   0.755   2.342
 1206SOL    HW2 4854   0.244   0.763   2.438
 1206SOL    HW3 4855   0.221   0.663   2.326
 1206SOL    MW4 4856   0.239   0.744   2.353
 1207SOL     OW 4857   0.006   0.884   2.259
 1207SOL    HW2 4858   0.091   0.843   2.274
 1207SOL    HW3 4859   0.005   0.903   2.165
 1207SOL    MW4 4860   0.017   0.881   2.248
 1208SOL     OW 4861   0.019   1.148   2.335
 1208SOL    HW2 4862   0.004   1.146   2.429
 1208SOL    HW3 4863   0.021   1.057   2.308
 1208SOL    MW4 4864   0.017   1.136   2.344
 1209SOL     OW 4865   0.253   1.296   2.252
 1209SOL    HW2 4866   0.174   1.253   2.283
 1209SOL    HW3 4867   0.251   1.284   2.157
 1209SOL    MW4 4868   0.242   1.289   2.243
 1210SOL     OW 4869   0.205   1.550   2.363
 1210SOL    HW2 4870   0.227   1.533   2.454
 1210SOL    HW3 4871   0.221   1.467   2.318
 1210SOL    MW4 4872   0.210   1.537   2.369
 1211SOL     OW 4873   4.478   1.670   2.245
 1211SOL    HW2 4874   4.479   1.759   2.280
 1211SOL    HW3 4875   4.545   1.624   2.295
 1211SOL    MW4 4876   4.487   1.676   2.256
 1212SOL     OW 4877   0.010   1.902   2.404
 1212SOL    HW2 4878  -0.048   1.945   2.339
 1212SOL    HW3 4879   0.097   1.938   2.386
 1212SOL    MW4 4880   0.013   1.913   2.393
 1213SOL     OW 4881   0.221   2.072   2.258
 1213SOL    HW2 4882   0.299   2.040   2.304
 1213SOL    HW3 4883   0.252   2.089   2.169
 1213SOL    MW4 4884   0.236   2.070   2.252
 1214SOL     OW 4885   0.216   2.320   2.378
 1214SOL    HW2 4886   0.217   2.314   2.473
 1214SOL    HW3 4887   0.203   2.230   2.348
 1214SOL    MW4 4888   0.214   2.307   2.386
 1215SOL     OW 4889   4.481   2.442   2.268
 1215SOL    HW2 4890   4.472   2.534   2.296
 1215SOL    HW3 4891   4.557   2.410   2.318
 1215SOL    MW4 4892   4.490   2.450   2.278
 1216SOL     OW 4893   4.488   2.708   2.328
 1216SOL    HW2 4894   4.480   2.715   2.423
 1216SOL    HW3 4895   4.573   2.749   2.308
 1216SOL    MW4 4896   4.499   2.714   2.338
 1217SOL     OW 4897   0.221   2.845   2.251
 1217SOL    HW2 4898   0.292   2.787   2.278
 1217SOL    HW3 4899   0.216   2.835   2.156
 1217SOL    MW4 4900   0.230   2.836   2.242
 1218SOL     OW 4901   0.226   3.082   2.387
 1218SOL    HW2 4902   0.147   3.128   2.359
 1218SOL    HW3 4903   0.225   3.001   2.337
 1218SOL    MW4 4904   0.216   3.078   2.376
 1219SOL     OW 4905   4.478   3.169   2.290
 1219SOL    HW2 4906   4.458   3.251   2.335
 1219SOL    HW3 4907   4.484   3.194   2.198
 1219SOL    MW4 4908   4.476   3.183   2.284
 1220SOL     OW 4909   4.450   3.445   2.357
 1220SOL    HW2 4910   4.443   3.461   2.451
 1220SOL    HW3 4911   4.389   3.507   2.317
 1220SOL    MW4 4912   4.441   3.455   2.364
 1221SOL     OW 4913   0.204   3.579   2.273
 1221SOL    HW2 4914   0.279   3.541   2.319
 1221SOL    HW3 4915   0.132   3.517   2.288
 1221SOL    MW4 4916   0.204   3.566   2.281
 1222SOL     OW 4917   0.210   3.833   2.332
 1222SOL    HW2 4918   0.132   3.883   2.306
 1222SOL    HW3 4919   0.193   3.744   2.302
 1222SOL    MW4 4920   0.197   3.828   2.325
 1223SOL     OW 4921   4.478   3.976   2.220
 1223SOL    HW2 4922   4.473   4.066   2.254
 1223SOL    HW3 4923   4.497   3.987   2.127
 1223SOL    MW4 4924   4.480   3.989   2.212
 1224SOL     OW 4925   4.452   4.221   2.348
 1224SOL    HW2 4926   4.461   4.224   2.443
 1224SOL    HW3 4927   4.513   4.287   2.316
 1224SOL    MW4 4928   4.461   4.230   2.356
 1225SOL     OW 4929   0.166   4.356   2.247
 1225SOL    HW2 4930   0.251   4.321   2.276
 1225SOL    HW3 4931   0.171   4.450   2.264
 1225SOL    MW4 4932   0.178   4.364   2.253
 1226SOL     OW 4933   0.669   4.650   2.297
 1226SOL    HW2 4934   0.670   4.656   2.392
 1226SOL    HW3 4935   0.762   4.656   2.272
 1226SOL    MW4 4936   0.682   4.651   2.306
 1227SOL     OW 4937   0.418   0.118   2.237
 1227SOL    HW2 4938   0.505   0.089   2.266
 1227SOL    HW3 4939   0.427   0.130   2.142
 1227SOL    MW4 4940   0.431   0.116   2.228
 1228SOL     OW 4941   0.470   0.368   2.338
 1228SOL    HW2 4942   0.465   0.359   2.433
 1228SOL    HW3 4943   0.461   0.278   2.305
 1228SOL    MW4 4944   0.469   0.355   2.346
 1229SOL     OW 4945   0.695   0.492   2.227
 1229SOL    HW2 4946   0.685   0.577   2.270
 1229SOL    HW3 4947   0.621   0.440   2.259
 1229SOL    MW4 4948   0.684   0.496   2.237
 1230SOL     OW 4949   0.689   0.754   2.340
 1230SOL    HW2 4950   0.681   0.750   2.435
 1230SOL    HW3 4951   0.607   0.793   2.310
 1230SOL    MW4 4952   0.677   0.758   2.349
 1231SOL     OW 4953   0.460   0.892   2.257
 1231SOL    HW2 4954   0.398   0.823   2.280
 1231SOL    HW3 4955   0.457   0.896   2.161
 1231SOL    MW4 4956   0.451   0.883   2.247
 1232SOL     OW 4957   0.476   1.158   2.364
 1232SOL    HW2 4958   0.450   1.071   2.334
 1232SOL    HW3 4959   0.410   1.217   2.328
 1232SOL    MW4 4960   0.464   1.154   2.356
 1233SOL     OW 4961   0.702   1.306   2.303
 1233SOL    HW2 4962   0.666   1.394   2.317
 1233SOL    HW3 4963   0.634   1.248   2.337
 1233SOL    MW4 4964   0.688   1.310   2.309
 1234SOL     OW 4965   0.631   1.580   2.348
 1234SOL    HW2 4966   0.632   1.566   2.443
 1234SOL    HW3 4967   0.714   1.625   2.330
 1234SOL    MW4 4968   0.642   1.584   2.358
 1235SOL     OW 4969   0.419   1.717   2.285
 1235SOL    HW2 4970   0.503   1.680   2.314
 1235SOL    HW3 4971   0.353   1.660   2.325
 1235SOL    MW4 4972   0.422   1.704   2.294
 1236SOL     OW 4973   0.445   1.978   2.376
 1236SOL    HW2 4974   0.528   2.002   2.336
 1236SOL    HW3 4975   0.429   1.888   2.346
 1236SOL    MW4 4976   0.454   1.969   2.367
 1237SOL     OW 4977   0.699   2.019   2.280
 1237SOL    HW2 4978   0.776   1.975   2.316
 1237SOL    HW3 4979   0.706   2.109   2.310
 1237SOL    MW4 4980   0.710   2.025   2.289
 1238SOL     OW 4981   0.652   2.311   2.356
 1238SOL    HW2 4982   0.644   2.329   2.450
 1238SOL    HW3 4983   0.735   2.350   2.331
 1238SOL    MW4 4984   0.662   2.319   2.365
 1239SOL     OW 4985   0.431   2.423   2.232
 1239SOL    HW2 4986   0.509   2.377   2.263
 1239SOL    HW3 4987   0.359   2.380   2.278
 1239SOL    MW4 4988   0.432   2.411   2.242
 1240SOL     OW 4989   0.464   2.698   2.318
 1240SOL    HW2 4990   0.469   2.700   2.414
 1240SOL    HW3 4991   0.463   2.605   2.296
 1240SOL    MW4 4992   0.465   2.686   2.328
 1241SOL     OW 4993   0.694   2.842   2.251
 1241SOL    HW2 4994   0.758   2.782   2.288
 1241SOL    HW3 4995   0.610   2.796   2.258
 1241SOL    MW4 4996   0.691   2.828   2.257
 1242SOL     OW 4997   0.691   3.082   2.390
 1242SOL    HW2 4998   0.618   3.132   2.353
 1242SOL    HW3 4999   0.688   2.998   2.345
 1242SOL    MW4 5000   0.681   3.078   2.379
 1243SOL     OW 5001   0.459   3.175   2.287
 1243SOL    HW2 5002   0.380   3.137   2.326
 1243SOL    HW3 5003   0.434   3.194   2.197
 1243SOL    MW4 5004   0.445   3.172   2.280
 1244SOL     OW 5005   0.430   3.462   2.381
 1244SOL    HW2 5006   0.503   3.498   2.330
 1244SOL    HW3 5007   0.418   3.374   2.346
 1244SOL    MW4 5008   0.438   3.455   2.369
 1245SOL     OW 5009   0.651   3.585   2.241
 1245SOL    HW2 5010   0.645   3.679   2.262
 1245SOL    HW3 5011   0.658   3.583   2.145
 1245SOL    MW4 5012   0.651   3.597   2.231
 1246SOL     OW 5013   0.634   3.853   2.339
 1246SOL    HW2 5014   0.643   3.862   2.434
 1246SOL    HW3 5015   0.560   3.910   2.317
 1246SOL    MW4 5016   0.625   3.862   2.349
 1247SOL     OW 5017   0.413   3.992   2.231
 1247SOL    HW2 5018   0.343   3.934   2.264
 1247SOL    HW3 5019   0.414   3.976   2.136
 1247SOL    MW4 5020   0.404   3.982   2.223
 1248SOL     OW 5021   0.412   4.251   2.320
 1248SOL    HW2 5022   0.496   4.290   2.298
 1248SOL    HW3 5023   0.418   4.160   2.292
 1248SOL    MW4 5024   0.424   4.244   2.314
 1249SOL     OW 5025   0.658   4.376   2.268
 1249SOL    HW2 5026   0.649   4.468   2.290
 1249SOL    HW3 5027   0.670   4.375   2.173
 1249SOL    MW4 5028   0.658   4.388   2.258
 1250SOL     OW 5029   1.143   4.602   2.378
 1250SOL    HW2 5030   1.132   4.612   2.472
 1250SOL    HW3 5031   1.067   4.645   2.340
 1250SOL    MW4 5032   1.132   4.609   2.385
 1251SOL     OW 5033   0.919   0.060   2.212
 1251SOL    HW2 5034   0.900   0.142   2.258
 1251SOL    HW3 5035   0.885   0.073   2.124
 1251SOL    MW4 5036   0.912   0.073   2.206
 1252SOL     OW 5037   0.860   0.306   2.338
 1252SOL    HW2 5038   0.948   0.333   2.313
 1252SOL    HW3 5039   0.802   0.370   2.297
 1252SOL    MW4 5040   0.864   0.318   2.329
 1253SOL     OW 5041   1.079   0.474   2.292
 1253SOL    HW2 5042   1.149   0.420   2.327
 1253SOL    HW3 5043   1.090   0.469   2.197
 1253SOL    MW4 5044   1.089   0.466   2.284
 1254SOL     OW 5045   1.119   0.756   2.312
 1254SOL    HW2 5046   1.048   0.815   2.288
 1254SOL    HW3 5047   1.078   0.669   2.312
 1254SOL    MW4 5048   1.104   0.752   2.309
 1255SOL     OW 5049   0.899   0.925   2.261
 1255SOL    HW2 5050   0.879   1.006   2.307
 1255SOL    HW3 5051   0.832   0.863   2.290
 1255SOL    MW4 5052   0.887   0.927   2.271
 1256SOL     OW 5053   0.902   1.164   2.398
 1256SOL    HW2 5054   0.977   1.206   2.356
 1256SOL    HW3 5055   0.828   1.221   2.379
 1256SOL    MW4 5056   0.902   1.177   2.390
 1257SOL     OW 5057   1.109   1.269   2.263
 1257SOL    HW2 5058   1.195   1.232   2.280
 1257SOL    HW3 5059   1.102   1.272   2.168
 1257SOL    MW4 5060   1.119   1.264   2.253
 1258SOL     OW 5061   1.151   1.547   2.347
 1258SOL    HW2 5062   1.068   1.591   2.329
 1258SOL    HW3 5063   1.137   1.457   2.317
 1258SOL    MW4 5064   1.138   1.541   2.341
 1259SOL     OW 5065   0.894   1.659   2.292
 1259SOL    HW2 5066   0.906   1.750   2.320
 1259SOL    HW3 5067   0.904   1.662   2.197
 1259SOL    MW4 5068   0.897   1.671   2.283
 1260SOL     OW 5069   0.946   1.922   2.365
 1260SOL    HW2 5070   0.940   1.920   2.460
 1260SOL    HW3 5071   1.020   1.979   2.346
 1260SOL    MW4 5072   0.955   1.929   2.375
 1261SOL     OW 5073   1.152   2.082   2.274
 1261SOL    HW2 5074   1.217   2.018   2.303
 1261SOL    HW3 5075   1.147   2.069   2.179
 1261SOL    MW4 5076   1.160   2.072   2.265
 1262SOL     OW 5077   1.145   2.348   2.381
 1262SOL    HW2 5078   1.222   2.398   2.357
 1262SOL    HW3 5079   1.162   2.259   2.349
 1262SOL    MW4 5080   1.157   2.343   2.374
 1263SOL     OW 5081   0.908   2.404   2.289
 1263SOL    HW2 5082   0.995   2.390   2.327
 1263SOL    HW3 5083   0.925   2.417   2.195
 1263SOL    MW4 5084   0.922   2.404   2.282
 1264SOL     OW 5085   0.881   2.675   2.350
 1264SOL    HW2 5086   0.882   2.666   2.445
 1264SOL    HW3 5087   0.891   2.585   2.318
 1264SOL    MW4 5088   0.883   2.662   2.358
 1265SOL     OW 5089   1.078   2.852   2.242
 1265SOL    HW2 5090   1.160   2.813   2.271
 1265SOL    HW3 5091   1.010   2.806   2.291
 1265SOL    MW4 5092   1.080   2.841   2.252
 1266SOL     OW 5093   1.092   3.106   2.368
 1266SOL    HW2 5094   1.012   3.149   2.339
 1266SOL    HW3 5095   1.089   3.019   2.328
 1266SOL    MW4 5096   1.081   3.100   2.359
 1267SOL     OW 5097   0.867   3.225   2.249
 1267SOL    HW2 5098   0.862   3.316   2.278
 1267SOL    HW3 5099   0.804   3.179   2.304
 1267SOL    MW4 5100   0.858   3.231   2.260
 1268SOL     OW 5101   0.886   3.496   2.352
 1268SOL    HW2 5102   0.875   3.473   2.445
 1268SOL    HW3 5103   0.802   3.533   2.326
 1268SOL    MW4 5104   0.873   3.498   2.361
 1269SOL     OW 5105   1.112   3.616   2.236
 1269SOL    HW2 5106   1.190   3.585   2.282
 1269SOL    HW3 5107   1.040   3.567   2.275
 1269SOL    MW4 5108   1.113   3.605   2.247
 1270SOL     OW 5109   1.099   3.871   2.338
 1270SOL    HW2 5110   1.184   3.909   2.313
 1270SOL    HW3 5111   1.102   3.781   2.305
 1270SOL    MW4 5112   1.111   3.864   2.330
 1271SOL     OW 5113   0.874   3.996   2.227
 1271SOL    HW2 5114   0.947   3.942   2.259
 1271SOL    HW3 5115   0.796   3.955   2.263
 1271SOL    MW4 5116   0.873   3.984   2.236
 1272SOL     OW 5117   0.875   4.236   2.362
 1272SOL    HW2 5118   0.874   4.151   2.318
 1272SOL    HW3 5119   0.808   4.286   2.317
 1272SOL    MW4 5120   0.866   4.231   2.350
 1273SOL     OW 5121   1.116   4.352   2.259
 1273SOL    HW2 5122   1.037   4.307   2.288
 1273SOL    HW3 5123   1.114   4.436   2.304
 1273SOL    MW4 5124   1.105   4.357   2.269
 1274SOL     OW 5125   1.542   4.638   2.314
 1274SOL    HW2 5126   1.624   4.684   2.293
 1274SOL    HW3 5127   1.473   4.697   2.285
 1274SOL    MW4 5128   1.544   4.652   2.308
 1275SOL     OW 5129   1.321   0.113   2.235
 1275SOL    HW2 5130   1.321   0.199   2.277
 1275SOL    HW3 5131   1.279   0.055   2.298
 1275SOL    MW4 5132   1.316   0.117   2.248
 1276SOL     OW 5133   1.318   0.347   2.379
 1276SOL    HW2 5134   1.344   0.346   2.472
 1276SOL    HW3 5135   1.390   0.394   2.336
 1276SOL    MW4 5136   1.331   0.353   2.386
 1277SOL     OW 5137   1.542   0.487   2.277
 1277SOL    HW2 5138   1.622   0.436   2.286
 1277SOL    HW3 5139   1.536   0.506   2.183
 1277SOL    MW4 5140   1.552   0.483   2.266
 1278SOL     OW 5141   1.569   0.735   2.382
 1278SOL    HW2 5142   1.644   0.770   2.333
 1278SOL    HW3 5143   1.557   0.647   2.348
 1278SOL    MW4 5144   1.577   0.728   2.371
 1279SOL     OW 5145   1.368   0.870   2.257
 1279SOL    HW2 5146   1.425   0.826   2.320
 1279SOL    HW3 5147   1.282   0.832   2.273
 1279SOL    MW4 5148   1.364   0.859   2.268
 1280SOL     OW 5149   1.370   1.165   2.313
 1280SOL    HW2 5150   1.369   1.164   2.409
 1280SOL    HW3 5151   1.378   1.073   2.289
 1280SOL    MW4 5152   1.371   1.152   2.323
 1281SOL     OW 5153   1.597   1.332   2.250
 1281SOL    HW2 5154   1.527   1.270   2.268
 1281SOL    HW3 5155   1.607   1.331   2.155
 1281SOL    MW4 5156   1.589   1.323   2.240
 1282SOL     OW 5157   1.590   1.578   2.365
 1282SOL    HW2 5158   1.663   1.633   2.340
 1282SOL    HW3 5159   1.610   1.492   2.328
 1282SOL    MW4 5160   1.602   1.574   2.357
 1283SOL     OW 5161   1.358   1.661   2.227
 1283SOL    HW2 5162   1.436   1.628   2.271
 1283SOL    HW3 5163   1.285   1.620   2.274
 1283SOL    MW4 5164   1.359   1.651   2.239
 1284SOL     OW 5165   1.349   1.905   2.368
 1284SOL    HW2 5166   1.410   1.973   2.341
 1284SOL    HW3 5167   1.375   1.828   2.316
 1284SOL    MW4 5168   1.360   1.904   2.358
 1285SOL     OW 5169   1.537   2.091   2.290
 1285SOL    HW2 5170   1.621   2.050   2.312
 1285SOL    HW3 5171   1.533   2.090   2.194
 1285SOL    MW4 5172   1.547   2.086   2.280
 1286SOL     OW 5173   1.609   2.339   2.372
 1286SOL    HW2 5174   1.619   2.324   2.466
 1286SOL    HW3 5175   1.587   2.253   2.336
 1286SOL    MW4 5176   1.607   2.325   2.380
 1287SOL     OW 5177   1.381   2.472   2.287
 1287SOL    HW2 5178   1.446   2.412   2.325
 1287SOL    HW3 5179   1.382   2.451   2.194
 1287SOL    MW4 5180   1.390   2.461   2.280
 1288SOL     OW 5181   1.328   2.729   2.324
 1288SOL    HW2 5182   1.411   2.775   2.311
 1288SOL    HW3 5183   1.348   2.637   2.307
 1288SOL    MW4 5184   1.342   2.723   2.320
 1289SOL     OW 5185   1.587   2.856   2.253
 1289SOL    HW2 5186   1.572   2.947   2.281
 1289SOL    HW3 5187   1.599   2.861   2.159
 1289SOL    MW4 5188   1.586   2.869   2.244
 1290SOL     OW 5189   1.552   3.108   2.365
 1290SOL    HW2 5190   1.550   3.139   2.456
 1290SOL    HW3 5191   1.466   3.132   2.330
 1290SOL    MW4 5192   1.540   3.115   2.373
 1291SOL     OW 5193   1.314   3.240   2.260
 1291SOL    HW2 5194   1.235   3.192   2.285
 1291SOL    HW3 5195   1.308   3.250   2.165
 1291SOL    MW4 5196   1.303   3.235   2.251
 1292SOL     OW 5197   1.330   3.519   2.351
 1292SOL    HW2 5198   1.314   3.506   2.445
 1292SOL    HW3 5199   1.333   3.431   2.315
 1292SOL    MW4 5200   1.328   3.506   2.359
 1293SOL     OW 5201   1.575   3.614   2.293
 1293SOL    HW2 5202   1.589   3.693   2.344
 1293SOL    HW3 5203   1.494   3.577   2.328
 1293SOL    MW4 5204   1.566   3.619   2.304
 1294SOL     OW 5205   1.589   3.875   2.402
 1294SOL    HW2 5206   1.589   3.874   2.498
 1294SOL    HW3 5207   1.666   3.927   2.379
 1294SOL    MW4 5208   1.599   3.881   2.411
 1295SOL     OW 5209   1.348   3.981   2.280
 1295SOL    HW2 5210   1.428   3.946   2.319
 1295SOL    HW3 5211   1.355   3.960   2.187
 1295SOL    MW4 5212   1.360   3.974   2.273
 1296SOL     OW 5213   1.341   4.236   2.383
 1296SOL    HW2 5214   1.340   4.145   2.351
 1296SOL    HW3 5215   1.258   4.273   2.352
 1296SOL    MW4 5216   1.330   4.229   2.374
 1297SOL     OW 5217   1.551   4.376   2.242
 1297SOL    HW2 5218   1.487   4.326   2.292
 1297SOL    HW3 5219   1.551   4.463   2.283
 1297SOL    MW4 5220   1.543   4.381   2.254
 1298SOL     OW 5221   2.012   4.652   2.357
 1298SOL    HW2 5222   2.094   4.694   2.330
 1298SOL    HW3 5223   2.010   4.569   2.311
 1298SOL    MW4 5224   2.022   4.647   2.347
 1299SOL     OW 5225   1.775   0.110   2.255
 1299SOL    HW2 5226   1.788   0.201   2.282
 1299SOL    HW3 5227   1.849   0.063   2.294
 1299SOL    MW4 5228   1.787   0.116   2.264
 1300SOL     OW 5229   1.799   0.375   2.336
 1300SOL    HW2 5230   1.793   0.384   2.431
 1300SOL    HW3 5231   1.888   0.401   2.314
 1300SOL    MW4 5232   1.810   0.380   2.345
 1301SOL     OW 5233   2.036   0.512   2.279
 1301SOL    HW2 5234   2.028   0.601   2.312
 1301SOL    HW3 5235   2.029   0.520   2.184
 1301SOL    MW4 5236   2.034   0.525   2.271
 1302SOL     OW 5237   2.004   0.768   2.361
 1302SOL    HW2 5238   2.072   0.829   2.331
 1302SOL    HW3 5239   1.925   0.796   2.315
 1302SOL    MW4 5240   2.003   0.780   2.351
 1303SOL     OW 5241   1.777   0.875   2.239
 1303SOL    HW2 5242   1.796   0.966   2.261
 1303SOL    HW3 5243   1.778   0.873   2.143
 1303SOL    MW4 5244   1.779   0.887   2.229
 1304SOL     OW 5245   1.827   1.165   2.339
 1304SOL    HW2 5246   1.905   1.198   2.296
 1304SOL    HW3 5247   1.756   1.221   2.306
 1304SOL    MW4 5248   1.828   1.177   2.329
 1305SOL     OW 5249   2.040   1.283   2.242
 1305SOL    HW2 5250   2.026   1.376   2.259
 1305SOL    HW3 5251   2.041   1.276   2.147
 1305SOL    MW4 5252   2.038   1.294   2.232
 1306SOL     OW 5253   2.032   1.583   2.310
 1306SOL    HW2 5254   2.025   1.566   2.404
 1306SOL    HW3 5255   1.952   1.631   2.288
 1306SOL    MW4 5256   2.021   1.587   2.319
 1307SOL     OW 5257   1.798   1.708   2.249
 1307SOL    HW2 5258   1.797   1.797   2.284
 1307SOL    HW3 5259   1.784   1.719   2.155
 1307SOL    MW4 5260   1.796   1.721   2.241
 1308SOL     OW 5261   1.790   1.988   2.354
 1308SOL    HW2 5262   1.807   1.996   2.448
 1308SOL    HW3 5263   1.869   2.021   2.312
 1308SOL    MW4 5264   1.803   1.993   2.361
 1309SOL     OW 5265   2.024   2.099   2.255
 1309SOL    HW2 5266   2.103   2.048   2.273
 1309SOL    HW3 5267   2.011   2.092   2.161
 1309SOL    MW4 5268   2.033   2.091   2.245
 1310SOL     OW 5269   2.029   2.350   2.368
 1310SOL    HW2 5270   2.105   2.395   2.332
 1310SOL    HW3 5271   2.030   2.264   2.327
 1310SOL    MW4 5272   2.039   2.345   2.358
 1311SOL     OW 5273   1.801   2.467   2.237
 1311SOL    HW2 5274   1.874   2.418   2.274
 1311SOL    HW3 5275   1.724   2.432   2.281
 1311SOL    MW4 5276   1.801   2.456   2.248
 1312SOL     OW 5277   1.821   2.724   2.366
 1312SOL    HW2 5278   1.822   2.642   2.317
 1312SOL    HW3 5279   1.752   2.776   2.324
 1312SOL    MW4 5280   1.812   2.720   2.354
 1313SOL     OW 5281   2.027   2.815   2.209
 1313SOL    HW2 5282   2.105   2.781   2.254
 1313SOL    HW3 5283   1.953   2.784   2.261
 1313SOL    MW4 5284   2.028   2.807   2.222
 1314SOL     OW 5285   1.999   3.066   2.324
 1314SOL    HW2 5286   2.077   3.118   2.303
 1314SOL    HW3 5287   2.018   2.980   2.286
 1314SOL    MW4 5288   2.012   3.061   2.316
 1315SOL     OW 5289   1.775   3.229   2.265
 1315SOL    HW2 5290   1.845   3.170   2.292
 1315SOL    HW3 5291   1.699   3.201   2.315
 1315SOL    MW4 5292   1.774   3.217   2.275
 1316SOL     OW 5293   1.808   3.486   2.346
 1316SOL    HW2 5294   1.784   3.401   2.310
 1316SOL    HW3 5295   1.725   3.534   2.352
 1316SOL    MW4 5296   1.794   3.481   2.342
 1317SOL     OW 5297   2.033   3.638   2.280
 1317SOL    HW2 5298   1.957   3.583   2.303
 1317SOL    HW3 5299   2.035   3.636   2.184
 1317SOL    MW4 5300   2.023   3.630   2.270
 1318SOL     OW 5301   2.048   3.908   2.385
 1318SOL    HW2 5302   2.043   3.906   2.480
 1318SOL    HW3 5303   2.036   3.817   2.358
 1318SOL    MW4 5304   2.046   3.896   2.394
 1319SOL     OW 5305   1.799   4.015   2.304
 1319SOL    HW2 5306   1.885   3.993   2.339
 1319SOL    HW3 5307   1.806   3.997   2.210
 1319SOL    MW4 5308   1.811   4.010   2.296
 1320SOL     OW 5309   1.790   4.288   2.341
 1320SOL    HW2 5310   1.780   4.194   2.325
 1320SOL    HW3 5311   1.712   4.327   2.302
 1320SOL    MW4 5312   1.778   4.280   2.334
 1321SOL     OW 5313   2.015   4.404   2.217
 1321SOL    HW2 5314   1.933   4.371   2.253
 1321SOL    HW3 5315   2.002   4.404   2.122
 1321SOL    MW4 5316   2.003   4.400   2.209
 1322SOL     OW 5317   2.486   4.638   2.361
 1322SOL    HW2 5318   2.565   4.670   2.316
 1322SOL    HW3 5319   2.463   4.558   2.316
 1322SOL    MW4 5320   2.494   4.632   2.349
 1323SOL     OW 5321   2.252   0.115   2.268
 1323SOL    HW2 5322   2.249   0.198   2.316
 1323SOL    HW3 5323   2.322   0.066   2.311
 1323SOL    MW4 5324   2.261   0.120   2.280
 1324SOL     OW 5325   2.242   0.354   2.406
 1324SOL    HW2 5326   2.328   0.384   2.376
 1324SOL    HW3 5327   2.179   0.400   2.350
 1324SOL    MW4 5328   2.245   0.364   2.395
 1325SOL     OW 5329   2.456   0.473   2.273
 1325SOL    HW2 5330   2.537   0.459   2.321
 1325SOL    HW3 5331   2.483   0.492   2.183
 1325SOL    MW4 5332   2.470   0.474   2.267
 1326SOL     OW 5333   2.417   0.736   2.361
 1326SOL    HW2 5334   2.482   0.774   2.302
 1326SOL    HW3 5335   2.405   0.646   2.330
 1326SOL    MW4 5336   2.424   0.729   2.349
 1327SOL     OW 5337   2.221   0.912   2.256
 1327SOL    HW2 5338   2.231   0.996   2.301
 1327SOL    HW3 5339   2.281   0.853   2.300
 1327SOL    MW4 5340   2.230   0.915   2.268
 1328SOL     OW 5341   2.266   1.151   2.351
 1328SOL    HW2 5342   2.351   1.170   2.310
 1328SOL    HW3 5343   2.205   1.209   2.307
 1328SOL    MW4 5344   2.269   1.161   2.340
 1329SOL     OW 5345   2.494   1.242   2.211
 1329SOL    HW2 5346   2.581   1.209   2.235
 1329SOL    HW3 5347   2.485   1.323   2.261
 1329SOL    MW4 5348   2.504   1.248   2.220
 1330SOL     OW 5349   2.489   1.492   2.334
 1330SOL    HW2 5350   2.492   1.506   2.429
 1330SOL    HW3 5351   2.556   1.551   2.300
 1330SOL    MW4 5352   2.498   1.502   2.342
 1331SOL     OW 5353   2.292   1.670   2.289
 1331SOL    HW2 5354   2.354   1.598   2.307
 1331SOL    HW3 5355   2.206   1.632   2.305
 1331SOL    MW4 5356   2.289   1.655   2.294
 1332SOL     OW 5357   2.256   1.937   2.331
 1332SOL    HW2 5358   2.336   1.985   2.309
 1332SOL    HW3 5359   2.277   1.846   2.311
 1332SOL    MW4 5360   2.270   1.932   2.326
 1333SOL     OW 5361   2.486   2.072   2.263
 1333SOL    HW2 5362   2.557   2.017   2.295
 1333SOL    HW3 5363   2.493   2.068   2.167
 1333SOL    MW4 5364   2.496   2.064   2.254
 1334SOL     OW 5365   2.473   2.319   2.388
 1334SOL    HW2 5366   2.561   2.346   2.362
 1334SOL    HW3 5367   2.465   2.229   2.356
 1334SOL    MW4 5368   2.483   2.311   2.380
 1335SOL     OW 5369   2.246   2.487   2.271
 1335SOL    HW2 5370   2.260   2.578   2.295
 1335SOL    HW3 5371   2.321   2.440   2.307
 1335SOL    MW4 5372   2.257   2.493   2.279
 1336SOL     OW 5373   2.250   2.743   2.372
 1336SOL    HW2 5374   2.254   2.735   2.468
 1336SOL    HW3 5375   2.323   2.800   2.350
 1336SOL    MW4 5376   2.260   2.749   2.382
 1337SOL     OW 5377   2.480   2.866   2.285
 1337SOL    HW2 5378   2.552   2.814   2.321
 1337SOL    HW3 5379   2.487   2.855   2.191
 1337SOL    MW4 5380   2.490   2.858   2.278
 1338SOL     OW 5381   2.462   3.131   2.341
 1338SOL    HW2 5382   2.545   3.165   2.306
 1338SOL    HW3 5383   2.466   3.037   2.323
 1338SOL    MW4 5384   2.474   3.123   2.334
 1339SOL     OW 5385   2.219   3.198   2.246
 1339SOL    HW2 5386   2.208   3.290   2.272
 1339SOL    HW3 5387   2.305   3.174   2.280
 1339SOL    MW4 5388   2.229   3.207   2.254
 1340SOL     OW 5389   2.230   3.449   2.340
 1340SOL    HW2 5390   2.230   3.457   2.436
 1340SOL    HW3 5391   2.163   3.511   2.311
 1340SOL    MW4 5392   2.221   3.458   2.349
 1341SOL     OW 5393   2.451   3.617   2.271
 1341SOL    HW2 5394   2.447   3.710   2.293
 1341SOL    HW3 5395   2.362   3.585   2.283
 1341SOL    MW4 5396   2.439   3.625   2.275
 1342SOL     OW 5397   2.451   3.887   2.351
 1342SOL    HW2 5398   2.441   3.883   2.446
 1342SOL    HW3 5399   2.388   3.954   2.323
 1342SOL    MW4 5400   2.441   3.895   2.360
 1343SOL     OW 5401   2.254   4.002   2.216
 1343SOL    HW2 5402   2.251   4.093   2.245
 1343SOL    HW3 5403   2.180   3.960   2.260
 1343SOL    MW4 5404   2.244   4.008   2.226
 1344SOL     OW 5405   2.244   4.262   2.328
 1344SOL    HW2 5406   2.245   4.260   2.423
 1344SOL    HW3 5407   2.155   4.289   2.305
 1344SOL    MW4 5408   2.232   4.265   2.337
 1345SOL     OW 5409   2.473   4.392   2.246
 1345SOL    HW2 5410   2.550   4.360   2.291
 1345SOL    HW3 5411   2.402   4.333   2.274
 1345SOL    MW4 5412   2.474   4.380   2.255
 1346SOL     OW 5413   2.922   0.009   2.387
 1346SOL    HW2 5414   3.009   0.036   2.357
 1346SOL    HW3 5415   2.910  -0.078   2.349
 1346SOL    MW4 5416   2.932   0.001   2.378
 1347SOL     OW 5417   2.711   0.128   2.276
 1347SOL    HW2 5418   2.706   0.215   2.316
 1347SOL    HW3 5419   2.789   0.088   2.316
 1347SOL    MW4 5420   2.721   0.134   2.287
 1348SOL     OW 5421   2.687   0.384   2.380
 1348SOL    HW2 5422   2.692   0.373   2.475
 1348SOL    HW3 5423   2.773   0.417   2.356
 1348SOL    MW4 5424   2.699   0.387   2.390
 1349SOL     OW 5425   2.947   0.476   2.274
 1349SOL    HW2 5426   2.920   0.558   2.316
 1349SOL    HW3 5427   2.948   0.496   2.181
 1349SOL    MW4 5428   2.944   0.489   2.268
 1350SOL     OW 5429   2.874   0.731   2.340
 1350SOL    HW2 5430   2.875   0.747   2.434
 1350SOL    HW3 5431   2.793   0.771   2.310
 1350SOL    MW4 5432   2.863   0.738   2.349
 1351SOL     OW 5433   2.653   0.840   2.211
 1351SOL    HW2 5434   2.679   0.930   2.231
 1351SOL    HW3 5435   2.678   0.827   2.120
 1351SOL    MW4 5436   2.659   0.850   2.202
 1352SOL     OW 5437   2.719   1.099   2.309
 1352SOL    HW2 5438   2.698   1.103   2.403
 1352SOL    HW3 5439   2.787   1.165   2.298
 1352SOL    MW4 5440   2.725   1.108   2.320
 1353SOL     OW 5441   2.925   1.288   2.257
 1353SOL    HW2 5442   3.001   1.236   2.282
 1353SOL    HW3 5443   2.923   1.283   2.161
 1353SOL    MW4 5444   2.935   1.280   2.247
 1354SOL     OW 5445   2.898   1.530   2.357
 1354SOL    HW2 5446   2.911   1.530   2.452
 1354SOL    HW3 5447   2.911   1.439   2.331
 1354SOL    MW4 5448   2.902   1.518   2.366
 1355SOL     OW 5449   2.687   1.664   2.252
 1355SOL    HW2 5450   2.761   1.613   2.284
 1355SOL    HW3 5451   2.698   1.665   2.156
 1355SOL    MW4 5452   2.698   1.657   2.243
 1356SOL     OW 5453   2.735   1.919   2.344
 1356SOL    HW2 5454   2.723   1.930   2.439
 1356SOL    HW3 5455   2.710   1.829   2.327
 1356SOL    MW4 5456   2.730   1.909   2.354
 1357SOL     OW 5457   2.940   2.064   2.243
 1357SOL    HW2 5458   3.009   2.010   2.282
 1357SOL    HW3 5459   2.859   2.016   2.264
 1357SOL    MW4 5460   2.938   2.050   2.251
 1358SOL     OW 5461   2.928   2.323   2.343
 1358SOL    HW2 5462   2.944   2.324   2.438
 1358SOL    HW3 5463   2.919   2.230   2.322
 1358SOL    MW4 5464   2.929   2.311   2.353
 1359SOL     OW 5465   2.699   2.446   2.263
 1359SOL    HW2 5466   2.782   2.406   2.289
 1359SOL    HW3 5467   2.706   2.457   2.169
 1359SOL    MW4 5468   2.711   2.442   2.254
 1360SOL     OW 5469   2.686   2.699   2.368
 1360SOL    HW2 5470   2.765   2.748   2.345
 1360SOL    HW3 5471   2.702   2.611   2.334
 1360SOL    MW4 5472   2.699   2.694   2.361
 1361SOL     OW 5473   2.900   2.867   2.284
 1361SOL    HW2 5474   2.916   2.949   2.330
 1361SOL    HW3 5475   2.896   2.892   2.191
 1361SOL    MW4 5476   2.902   2.881   2.277
 1362SOL     OW 5477   2.909   3.137   2.404
 1362SOL    HW2 5478   2.984   3.172   2.356
 1362SOL    HW3 5479   2.833   3.171   2.356
 1362SOL    MW4 5480   2.909   3.146   2.391
 1363SOL     OW 5481   2.702   3.237   2.238
 1363SOL    HW2 5482   2.695   3.325   2.274
 1363SOL    HW3 5483   2.710   3.250   2.143
 1363SOL    MW4 5484   2.702   3.250   2.230
 1364SOL     OW 5485   2.694   3.487   2.329
 1364SOL    HW2 5486   2.756   3.548   2.289
 1364SOL    HW3 5487   2.609   3.528   2.316
 1364SOL    MW4 5488   2.691   3.500   2.322
 1365SOL     OW 5489   2.923   3.646   2.218
 1365SOL    HW2 5490   2.998   3.599   2.255
 1365SOL    HW3 5491   2.913   3.722   2.275
 1365SOL    MW4 5492   2.932   3.650   2.231
 1366SOL     OW 5493   2.912   3.881   2.373
 1366SOL    HW2 5494   2.903   3.874   2.468
 1366SOL    HW3 5495   2.827   3.913   2.344
 1366SOL    MW4 5496   2.900   3.884   2.382
 1367SOL     OW 5497   2.688   4.010   2.274
 1367SOL    HW2 5498   2.607   3.969   2.302
 1367SOL    HW3 5499   2.678   4.023   2.180
 1367SOL    MW4 5500   2.676   4.006   2.265
 1368SOL     OW 5501   2.707   4.281   2.344
 1368SOL    HW2 5502   2.701   4.297   2.438
 1368SOL    HW3 5503   2.699   4.186   2.336
 1368SOL    MW4 5504   2.705   4.270   2.355
 1369SOL     OW 5505   2.927   4.422   2.250
 1369SOL    HW2 5506   2.994   4.370   2.294
 1369SOL    HW3 5507   2.845   4.378   2.270
 1369SOL    MW4 5508   2.925   4.409   2.259
 1370SOL     OW 5509   3.394   4.658   2.356
 1370SOL    HW2 5510   3.415   4.663   2.449
 1370SOL    HW3 5511   3.465   4.707   2.314
 1370SOL    MW4 5512   3.406   4.665   2.363
 1371SOL     OW 5513   3.158   0.102   2.271
 1371SOL    HW2 5514   3.180   0.181   2.321
 1371SOL    HW3 5515   3.232   0.043   2.284
 1371SOL    MW4 5516   3.170   0.105   2.280
 1372SOL     OW 5517   3.167   0.350   2.401
 1372SOL    HW2 5518   3.245   0.396   2.371
 1372SOL    HW3 5519   3.096   0.384   2.348
 1372SOL    MW4 5520   3.168   0.360   2.390
 1373SOL     OW 5521   3.340   0.513   2.278
 1373SOL    HW2 5522   3.418   0.464   2.303
 1373SOL    HW3 5523   3.340   0.512   2.182
 1373SOL    MW4 5524   3.350   0.507   2.269
 1374SOL     OW 5525   3.320   0.773   2.394
 1374SOL    HW2 5526   3.400   0.804   2.351
 1374SOL    HW3 5527   3.307   0.685   2.358
 1374SOL    MW4 5528   3.329   0.766   2.383
 1375SOL     OW 5529   3.104   0.890   2.249
 1375SOL    HW2 5530   3.169   0.849   2.307
 1375SOL    HW3 5531   3.020   0.853   2.278
 1375SOL    MW4 5532   3.102   0.880   2.261
 1376SOL     OW 5533   3.140   1.147   2.339
 1376SOL    HW2 5534   3.222   1.185   2.307
 1376SOL    HW3 5535   3.145   1.055   2.314
 1376SOL    MW4 5536   3.152   1.140   2.332
 1377SOL     OW 5537   3.342   1.280   2.225
 1377SOL    HW2 5538   3.420   1.234   2.255
 1377SOL    HW3 5539   3.347   1.366   2.268
 1377SOL    MW4 5540   3.353   1.286   2.235
 1378SOL     OW 5541   3.380   1.518   2.352
 1378SOL    HW2 5542   3.377   1.538   2.445
 1378SOL    HW3 5543   3.307   1.567   2.314
 1378SOL    MW4 5544   3.370   1.527   2.359
 1379SOL     OW 5545   3.145   1.630   2.246
 1379SOL    HW2 5546   3.135   1.724   2.263
 1379SOL    HW3 5547   3.065   1.590   2.281
 1379SOL    MW4 5548   3.133   1.637   2.252
 1380SOL     OW 5549   3.127   1.893   2.347
 1380SOL    HW2 5550   3.140   1.897   2.442
 1380SOL    HW3 5551   3.201   1.942   2.311
 1380SOL    MW4 5552   3.139   1.900   2.355
 1381SOL     OW 5553   3.344   2.048   2.254
 1381SOL    HW2 5554   3.421   1.995   2.276
 1381SOL    HW3 5555   3.341   2.048   2.158
 1381SOL    MW4 5556   3.354   2.041   2.244
 1382SOL     OW 5557   3.364   2.321   2.319
 1382SOL    HW2 5558   3.286   2.357   2.276
 1382SOL    HW3 5559   3.357   2.226   2.306
 1382SOL    MW4 5560   3.352   2.313   2.311
 1383SOL     OW 5561   3.134   2.435   2.201
 1383SOL    HW2 5562   3.133   2.524   2.237
 1383SOL    HW3 5563   3.060   2.392   2.242
 1383SOL    MW4 5564   3.124   2.441   2.211
 1384SOL     OW 5565   3.121   2.682   2.329
 1384SOL    HW2 5566   3.130   2.674   2.424
 1384SOL    HW3 5567   3.054   2.749   2.316
 1384SOL    MW4 5568   3.114   2.689   2.340
 1385SOL     OW 5569   3.352   2.791   2.242
 1385SOL    HW2 5570   3.340   2.878   2.281
 1385SOL    HW3 5571   3.282   2.738   2.280
 1385SOL    MW4 5572   3.341   2.795   2.252
 1386SOL     OW 5573   3.353   3.065   2.336
 1386SOL    HW2 5574   3.433   3.108   2.308
 1386SOL    HW3 5575   3.286   3.133   2.331
 1386SOL    MW4 5576   3.354   3.079   2.332
 1387SOL     OW 5577   3.138   3.232   2.286
 1387SOL    HW2 5578   3.131   3.325   2.306
 1387SOL    HW3 5579   3.123   3.226   2.192
 1387SOL    MW4 5580   3.135   3.243   2.276
 1388SOL     OW 5581   3.117   3.497   2.336
 1388SOL    HW2 5582   3.113   3.508   2.431
 1388SOL    HW3 5583   3.208   3.516   2.313
 1388SOL    MW4 5584   3.128   3.501   2.345
 1389SOL     OW 5585   3.370   3.579   2.279
 1389SOL    HW2 5586   3.443   3.526   2.312
 1389SOL    HW3 5587   3.372   3.565   2.184
 1389SOL    MW4 5588   3.380   3.570   2.271
 1390SOL     OW 5589   3.373   3.832   2.369
 1390SOL    HW2 5590   3.453   3.868   2.329
 1390SOL    HW3 5591   3.357   3.751   2.321
 1390SOL    MW4 5592   3.381   3.826   2.357
 1391SOL     OW 5593   3.164   3.967   2.267
 1391SOL    HW2 5594   3.229   3.903   2.296
 1391SOL    HW3 5595   3.084   3.941   2.314
 1391SOL    MW4 5596   3.162   3.955   2.277
 1392SOL     OW 5597   3.148   4.238   2.368
 1392SOL    HW2 5598   3.227   4.287   2.347
 1392SOL    HW3 5599   3.160   4.152   2.326
 1392SOL    MW4 5600   3.160   4.233   2.359
 1393SOL     OW 5601   3.352   4.395   2.296
 1393SOL    HW2 5602   3.370   4.482   2.331
 1393SOL    HW3 5603   3.364   4.404   2.202
 1393SOL    MW4 5604   3.356   4.407   2.288
 1394SOL     OW 5605   3.802   4.619   2.333
 1394SOL    HW2 5606   3.808   4.630   2.427
 1394SOL    HW3 5607   3.886   4.651   2.300
 1394SOL    MW4 5608   3.814   4.625   2.341
 1395SOL     OW 5609   3.608   0.128   2.238
 1395SOL    HW2 5610   3.605   0.212   2.284
 1395SOL    HW3 5611   3.684   0.083   2.275
 1395SOL    MW4 5612   3.618   0.133   2.249
 1396SOL     OW 5613   3.573   0.370   2.330
 1396SOL    HW2 5614   3.582   0.364   2.425
 1396SOL    HW3 5615   3.651   0.419   2.302
 1396SOL    MW4 5616   3.585   0.375   2.339
 1397SOL     OW 5617   3.804   0.500   2.256
 1397SOL    HW2 5618   3.804   0.588   2.294
 1397SOL    HW3 5619   3.803   0.514   2.161
 1397SOL    MW4 5620   3.804   0.513   2.249
 1398SOL     OW 5621   3.846   0.787   2.313
 1398SOL    HW2 5622   3.856   0.786   2.408
 1398SOL    HW3 5623   3.927   0.828   2.280
 1398SOL    MW4 5624   3.858   0.792   2.321
 1399SOL     OW 5625   3.588   0.897   2.272
 1399SOL    HW2 5626   3.669   0.850   2.291
 1399SOL    HW3 5627   3.583   0.896   2.176
 1399SOL    MW4 5628   3.598   0.890   2.262
 1400SOL     OW 5629   3.565   1.168   2.319
 1400SOL    HW2 5630   3.564   1.183   2.413
 1400SOL    HW3 5631   3.557   1.072   2.310
 1400SOL    MW4 5632   3.564   1.157   2.330
 1401SOL     OW 5633   3.825   1.264   2.235
 1401SOL    HW2 5634   3.831   1.353   2.270
 1401SOL    HW3 5635   3.737   1.235   2.260
 1401SOL    MW4 5636   3.814   1.272   2.243
 1402SOL     OW 5637   3.851   1.516   2.329
 1402SOL    HW2 5638   3.849   1.515   2.425
 1402SOL    HW3 5639   3.771   1.560   2.303
 1402SOL    MW4 5640   3.840   1.521   2.338
 1403SOL     OW 5641   3.611   1.648   2.245
 1403SOL    HW2 5642   3.533   1.601   2.276
 1403SOL    HW3 5643   3.598   1.655   2.150
 1403SOL    MW4 5644   3.599   1.643   2.236
 1404SOL     OW 5645   3.591   1.911   2.310
 1404SOL    HW2 5646   3.673   1.940   2.271
 1404SOL    HW3 5647   3.594   1.815   2.305
 1404SOL    MW4 5648   3.602   1.902   2.304
 1405SOL     OW 5649   3.858   2.017   2.230
 1405SOL    HW2 5650   3.943   1.981   2.254
 1405SOL    HW3 5651   3.859   2.021   2.134
 1405SOL    MW4 5652   3.869   2.013   2.221
 1406SOL     OW 5653   3.833   2.282   2.319
 1406SOL    HW2 5654   3.752   2.315   2.281
 1406SOL    HW3 5655   3.830   2.188   2.302
 1406SOL    MW4 5656   3.822   2.274   2.312
 1407SOL     OW 5657   3.602   2.424   2.215
 1407SOL    HW2 5658   3.525   2.372   2.240
 1407SOL    HW3 5659   3.600   2.425   2.120
 1407SOL    MW4 5660   3.591   2.417   2.206
 1408SOL     OW 5661   3.613   2.681   2.343
 1408SOL    HW2 5662   3.599   2.591   2.314
 1408SOL    HW3 5663   3.540   2.731   2.306
 1408SOL    MW4 5664   3.601   2.676   2.334
 1409SOL     OW 5665   3.850   2.781   2.235
 1409SOL    HW2 5666   3.863   2.869   2.270
 1409SOL    HW3 5667   3.769   2.751   2.275
 1409SOL    MW4 5668   3.841   2.789   2.245
 1410SOL     OW 5669   3.814   3.031   2.357
 1410SOL    HW2 5670   3.818   3.030   2.453
 1410SOL    HW3 5671   3.876   3.099   2.331
 1410SOL    MW4 5672   3.822   3.040   2.366
 1411SOL     OW 5673   3.592   3.166   2.264
 1411SOL    HW2 5674   3.591   3.249   2.313
 1411SOL    HW3 5675   3.656   3.112   2.310
 1411SOL    MW4 5676   3.600   3.170   2.277
 1412SOL     OW 5677   3.581   3.428   2.369
 1412SOL    HW2 5678   3.584   3.445   2.463
 1412SOL    HW3 5679   3.661   3.469   2.335
 1412SOL    MW4 5680   3.592   3.436   2.377
 1413SOL     OW 5681   3.807   3.557   2.252
 1413SOL    HW2 5682   3.784   3.644   2.283
 1413SOL    HW3 5683   3.807   3.565   2.156
 1413SOL    MW4 5684   3.804   3.569   2.243
 1414SOL     OW 5685   3.804   3.805   2.362
 1414SOL    HW2 5686   3.808   3.832   2.453
 1414SOL    HW3 5687   3.883   3.842   2.322
 1414SOL    MW4 5688   3.815   3.813   2.368
 1415SOL     OW 5689   3.588   3.975   2.252
 1415SOL    HW2 5690   3.566   4.061   2.290
 1415SOL    HW3 5691   3.663   3.945   2.303
 1415SOL    MW4 5692   3.595   3.983   2.264
 1416SOL     OW 5693   3.555   4.222   2.382
 1416SOL    HW2 5694   3.633   4.272   2.358
 1416SOL    HW3 5695   3.483   4.266   2.338
 1416SOL    MW4 5696   3.556   4.234   2.373
 1417SOL     OW 5697   3.771   4.352   2.258
 1417SOL    HW2 5698   3.847   4.306   2.294
 1417SOL    HW3 5699   3.788   4.445   2.277
 1417SOL    MW4 5700   3.783   4.359   2.265
 1418SOL     OW 5701   4.272   4.595   2.347
 1418SOL    HW2 5702   4.302   4.601   2.438
 1418SOL    HW3 5703   4.341   4.638   2.296
 1418SOL    MW4 5704   4.285   4.602   2.353
 1419SOL     OW 5705   4.040   0.056   2.208
 1419SOL    HW2 5706   4.023   0.139   2.253
 1419SOL    HW3 5707   4.123   0.025   2.244
 1419SOL    MW4 5708   4.048   0.063   2.219
 1420SOL     OW 5709   4.006   0.310   2.349
 1420SOL    HW2 5710   4.073   0.368   2.312
 1420SOL    HW3 5711   3.923   0.350   2.323
 1420SOL    MW4 5712   4.004   0.323   2.341
 1421SOL     OW 5713   4.220   0.477   2.277
 1421SOL    HW2 5714   4.232   0.562   2.320
 1421SOL    HW3 5715   4.291   0.423   2.311
 1421SOL    MW4 5716   4.231   0.481   2.287
 1422SOL     OW 5717   4.268   0.745   2.369
 1422SOL    HW2 5718   4.198   0.801   2.334
 1422SOL    HW3 5719   4.349   0.784   2.335
 1422SOL    MW4 5720   4.269   0.758   2.360
 1423SOL     OW 5721   4.089   0.892   2.223
 1423SOL    HW2 5722   4.081   0.984   2.249
 1423SOL    HW3 5723   4.098   0.894   2.128
 1423SOL    MW4 5724   4.089   0.904   2.214
 1424SOL     OW 5725   4.057   1.140   2.323
 1424SOL    HW2 5726   4.056   1.156   2.417
 1424SOL    HW3 5727   3.986   1.194   2.288
 1424SOL    MW4 5728   4.047   1.149   2.331
 1425SOL     OW 5729   4.281   1.258   2.228
 1425SOL    HW2 5730   4.199   1.215   2.253
 1425SOL    HW3 5731   4.349   1.210   2.276
 1425SOL    MW4 5732   4.279   1.246   2.237
 1426SOL     OW 5733   4.271   1.525   2.361
 1426SOL    HW2 5734   4.250   1.437   2.330
 1426SOL    HW3 5735   4.332   1.559   2.295
 1426SOL    MW4 5736   4.277   1.518   2.348
 1427SOL     OW 5737   4.074   1.671   2.249
 1427SOL    HW2 5738   4.145   1.611   2.274
 1427SOL    HW3 5739   3.994   1.629   2.280
 1427SOL    MW4 5740   4.073   1.657   2.256
 1428SOL     OW 5741   4.088   1.928   2.337
 1428SOL    HW2 5742   4.070   1.930   2.431
 1428SOL    HW3 5743   4.081   1.835   2.314
 1428SOL    MW4 5744   4.084   1.916   2.346
 1429SOL     OW 5745   4.308   2.035   2.220
 1429SOL    HW2 5746   4.323   2.123   2.254
 1429SOL    HW3 5747   4.231   2.003   2.268
 1429SOL    MW4 5748   4.300   2.042   2.231
 1430SOL     OW 5749   4.267   2.290   2.333
 1430SOL    HW2 5750   4.197   2.333   2.285
 1430SOL    HW3 5751   4.344   2.345   2.316
 1430SOL    MW4 5752   4.268   2.303   2.324
 1431SOL     OW 5753   4.059   2.416   2.197
 1431SOL    HW2 5754   4.060   2.497   2.248
 1431SOL    HW3 5755   3.993   2.361   2.240
 1431SOL    MW4 5756   4.050   2.419   2.210
 1432SOL     OW 5757   4.078   2.657   2.347
 1432SOL    HW2 5758   4.070   2.680   2.439
 1432SOL    HW3 5759   4.004   2.701   2.305
 1432SOL    MW4 5760   4.067   2.666   2.353
 1433SOL     OW 5761   4.256   2.811   2.230
 1433SOL    HW2 5762   4.199   2.754   2.282
 1433SOL    HW3 5763   4.343   2.774   2.243
 1433SOL    MW4 5764   4.260   2.798   2.239
 1434SOL     OW 5765   4.234   3.059   2.326
 1434SOL    HW2 5766   4.242   2.972   2.287
 1434SOL    HW3 5767   4.316   3.103   2.304
 1434SOL    MW4 5768   4.246   3.053   2.318
 1435SOL     OW 5769   4.005   3.188   2.248
 1435SOL    HW2 5770   4.010   3.273   2.292
 1435SOL    HW3 5771   4.087   3.145   2.272
 1435SOL    MW4 5772   4.017   3.194   2.257
 1436SOL     OW 5773   4.034   3.439   2.350
 1436SOL    HW2 5774   4.107   3.492   2.319
 1436SOL    HW3 5775   3.957   3.477   2.308
 1436SOL    MW4 5776   4.034   3.451   2.341
 1437SOL     OW 5777   4.247   3.578   2.227
 1437SOL    HW2 5778   4.231   3.666   2.261
 1437SOL    HW3 5779   4.252   3.590   2.132
 1437SOL    MW4 5780   4.246   3.591   2.219
 1438SOL     OW 5781   4.257   3.847   2.299
 1438SOL    HW2 5782   4.252   3.873   2.391
 1438SOL    HW3 5783   4.343   3.879   2.270
 1438SOL    MW4 5784   4.268   3.855   2.307
 1439SOL     OW 5785   4.021   3.924   2.212
 1439SOL    HW2 5786   4.105   3.886   2.239
 1439SOL    HW3 5787   4.035   3.946   2.120
 1439SOL    MW4 5788   4.034   3.922   2.203
 1440SOL     OW 5789   3.991   4.194   2.302
 1440SOL    HW2 5790   4.067   4.246   2.275
 1440SOL    HW3 5791   4.008   4.106   2.268
 1440SOL    MW4 5792   4.004   4.189   2.294
 1441SOL     OW 5793   4.205   4.346   2.225
 1441SOL    HW2 5794   4.227   4.431   2.263
 1441SOL    HW3 5795   4.277   4.289   2.251
 1441SOL    MW4 5796   4.217   4.350   2.234
 1442SOL     OW 5797   0.259   4.614   2.590
 1442SOL    HW2 5798   0.253   4.521   2.610
 1442SOL    HW3 5799   0.185   4.653   2.637
 1442SOL    MW4 5800   0.248   4.607   2.599
 1443SOL     OW 5801   0.041   0.060   2.720
 1443SOL    HW2 5802   0.037   0.045   2.815
 1443SOL    HW3 5803   0.047   0.155   2.711
 1443SOL    MW4 5804   0.041   0.070   2.731
 1444SOL     OW 5805   0.011   0.315   2.638
 1444SOL    HW2 5806   0.084   0.375   2.650
 1444SOL    HW3 5807  -0.004   0.313   2.543
 1444SOL    MW4 5808   0.019   0.322   2.627
 1445SOL     OW 5809   0.220   0.469   2.703
 1445SOL    HW2 5810   0.217   0.463   2.799
 1445SOL    HW3 5811   0.305   0.431   2.680
 1445SOL    MW4 5812   0.231   0.463   2.713
 1446SOL     OW 5813   0.225   0.732   2.615
 1446SOL    HW2 5814   0.295   0.764   2.674
 1446SOL    HW3 5815   0.208   0.643   2.646
 1446SOL    MW4 5816   0.232   0.725   2.627
 1447SOL     OW 5817   0.012   0.869   2.743
 1447SOL    HW2 5818  -0.065   0.822   2.711
 1447SOL    HW3 5819   0.086   0.828   2.698
 1447SOL    MW4 5820   0.011   0.857   2.733
 1448SOL     OW 5821   4.483   1.119   2.609
 1448SOL    HW2 5822   4.553   1.166   2.656
 1448SOL    HW3 5823   4.488   1.030   2.642
 1448SOL    MW4 5824   4.493   1.114   2.620
 1449SOL     OW 5825   0.211   1.270   2.717
 1449SOL    HW2 5826   0.293   1.238   2.679
 1449SOL    HW3 5827   0.216   1.365   2.709
 1449SOL    MW4 5828   0.222   1.278   2.711
 1450SOL     OW 5829   0.254   1.532   2.664
 1450SOL    HW2 5830   0.324   1.588   2.698
 1450SOL    HW3 5831   0.174   1.568   2.702
 1450SOL    MW4 5832   0.253   1.544   2.673
 1451SOL     OW 5833   0.020   1.659   2.736
 1451SOL    HW2 5834  -0.001   1.651   2.829
 1451SOL    HW3 5835  -0.017   1.744   2.710
 1451SOL    MW4 5836   0.012   1.669   2.745
 1452SOL     OW 5837   4.464   1.923   2.680
 1452SOL    HW2 5838   4.539   1.973   2.712
 1452SOL    HW3 5839   4.480   1.914   2.586
 1452SOL    MW4 5840   4.476   1.929   2.672
 1453SOL     OW 5841   0.191   2.069   2.763
 1453SOL    HW2 5842   0.255   2.010   2.723
 1453SOL    HW3 5843   0.220   2.157   2.737
 1453SOL    MW4 5844   0.203   2.073   2.754
 1454SOL     OW 5845   0.226   2.322   2.663
 1454SOL    HW2 5846   0.297   2.384   2.681
 1454SOL    HW3 5847   0.147   2.367   2.692
 1454SOL    MW4 5848   0.225   2.336   2.669
 1455SOL     OW 5849   4.487   2.458   2.706
 1455SOL    HW2 5850   4.478   2.459   2.802
 1455SOL    HW3 5851   4.417   2.400   2.676
 1455SOL    MW4 5852   4.477   2.451   2.715
 1456SOL     OW 5853   4.489   2.717   2.607
 1456SOL    HW2 5854   4.422   2.763   2.659
 1456SOL    HW3 5855   4.486   2.627   2.639
 1456SOL    MW4 5856   4.480   2.711   2.618
 1457SOL     OW 5857   0.215   2.839   2.738
 1457SOL    HW2 5858   0.208   2.934   2.734
 1457SOL    HW3 5859   0.138   2.806   2.692
 1457SOL    MW4 5860   0.204   2.847   2.732
 1458SOL     OW 5861   0.173   3.105   2.675
 1458SOL    HW2 5862   0.255   3.144   2.706
 1458SOL    HW3 5863   0.189   3.084   2.583
 1458SOL    MW4 5864   0.186   3.107   2.667
 1459SOL     OW 5865   4.440   3.226   2.771
 1459SOL    HW2 5866   4.372   3.168   2.736
 1459SOL    HW3 5867   4.522   3.190   2.736
 1459SOL    MW4 5868   4.442   3.214   2.761
 1460SOL     OW 5869   4.447   3.470   2.620
 1460SOL    HW2 5870   4.519   3.519   2.659
 1460SOL    HW3 5871   4.450   3.385   2.664
 1460SOL    MW4 5872   4.457   3.465   2.631
 1461SOL     OW 5873   0.193   3.583   2.726
 1461SOL    HW2 5874   0.207   3.567   2.819
 1461SOL    HW3 5875   0.270   3.547   2.683
 1461SOL    MW4 5876   0.205   3.576   2.732
 1462SOL     OW 5877   0.219   3.833   2.630
 1462SOL    HW2 5878   0.196   3.748   2.668
 1462SOL    HW3 5879   0.223   3.817   2.536
 1462SOL    MW4 5880   0.216   3.820   2.623
 1463SOL     OW 5881   4.472   3.970   2.709
 1463SOL    HW2 5882   4.483   4.057   2.672
 1463SOL    HW3 5883   4.559   3.929   2.699
 1463SOL    MW4 5884   4.485   3.976   2.703
 1464SOL     OW 5885   4.487   4.234   2.620
 1464SOL    HW2 5886   4.411   4.271   2.664
 1464SOL    HW3 5887   4.561   4.286   2.651
 1464SOL    MW4 5888   4.487   4.245   2.630
 1465SOL     OW 5889   0.241   4.347   2.694
 1465SOL    HW2 5890   0.225   4.344   2.789
 1465SOL    HW3 5891   0.313   4.286   2.680
 1465SOL    MW4 5892   0.248   4.338   2.705
 1466SOL     OW 5893   0.689   4.646   2.567
 1466SOL    HW2 5894   0.768   4.683   2.609
 1466SOL    HW3 5895   0.617   4.688   2.613
 1466SOL    MW4 5896   0.690   4.656   2.579
 1467SOL     OW 5897   0.464   0.082   2.688
 1467SOL    HW2 5898   0.451   0.073   2.783
 1467SOL    HW3 5899   0.394   0.029   2.650
 1467SOL    MW4 5900   0.453   0.074   2.696
 1468SOL     OW 5901   0.447   0.351   2.603
 1468SOL    HW2 5902   0.519   0.394   2.649
 1468SOL    HW3 5903   0.440   0.265   2.644
 1468SOL    MW4 5904   0.456   0.346   2.615
 1469SOL     OW 5905   0.669   0.476   2.734
 1469SOL    HW2 5906   0.663   0.481   2.830
 1469SOL    HW3 5907   0.743   0.417   2.718
 1469SOL    MW4 5908   0.678   0.469   2.745
 1470SOL     OW 5909   0.670   0.728   2.611
 1470SOL    HW2 5910   0.746   0.775   2.645
 1470SOL    HW3 5911   0.678   0.640   2.649
 1470SOL    MW4 5912   0.681   0.723   2.621
 1471SOL     OW 5913   0.450   0.842   2.745
 1471SOL    HW2 5914   0.438   0.923   2.695
 1471SOL    HW3 5915   0.529   0.803   2.708
 1471SOL    MW4 5916   0.459   0.848   2.733
 1472SOL     OW 5917   0.454   1.123   2.638
 1472SOL    HW2 5918   0.537   1.161   2.666
 1472SOL    HW3 5919   0.457   1.126   2.543
 1472SOL    MW4 5920   0.465   1.129   2.629
 1473SOL     OW 5921   0.672   1.270   2.752
 1473SOL    HW2 5922   0.682   1.275   2.847
 1473SOL    HW3 5923   0.747   1.219   2.722
 1473SOL    MW4 5924   0.683   1.264   2.760
 1474SOL     OW 5925   0.661   1.524   2.624
 1474SOL    HW2 5926   0.590   1.560   2.678
 1474SOL    HW3 5927   0.674   1.436   2.658
 1474SOL    MW4 5928   0.653   1.517   2.636
 1475SOL     OW 5929   0.466   1.668   2.769
 1475SOL    HW2 5930   0.467   1.683   2.864
 1475SOL    HW3 5931   0.454   1.755   2.731
 1475SOL    MW4 5932   0.465   1.681   2.777
 1476SOL     OW 5933   0.410   1.903   2.644
 1476SOL    HW2 5934   0.496   1.940   2.664
 1476SOL    HW3 5935   0.395   1.928   2.553
 1476SOL    MW4 5936   0.420   1.911   2.634
 1477SOL     OW 5937   0.646   2.073   2.687
 1477SOL    HW2 5938   0.660   2.082   2.781
 1477SOL    HW3 5939   0.710   2.008   2.659
 1477SOL    MW4 5940   0.656   2.065   2.695
 1478SOL     OW 5941   0.679   2.354   2.620
 1478SOL    HW2 5942   0.751   2.386   2.674
 1478SOL    HW3 5943   0.679   2.259   2.634
 1478SOL    MW4 5944   0.689   2.345   2.629
 1479SOL     OW 5945   0.452   2.480   2.714
 1479SOL    HW2 5946   0.459   2.574   2.699
 1479SOL    HW3 5947   0.530   2.443   2.673
 1479SOL    MW4 5948   0.463   2.487   2.707
 1480SOL     OW 5949   0.454   2.745   2.598
 1480SOL    HW2 5950   0.530   2.787   2.639
 1480SOL    HW3 5951   0.378   2.785   2.641
 1480SOL    MW4 5952   0.454   2.756   2.609
 1481SOL     OW 5953   0.653   2.855   2.742
 1481SOL    HW2 5954   0.638   2.857   2.837
 1481SOL    HW3 5955   0.641   2.945   2.714
 1481SOL    MW4 5956   0.649   2.867   2.751
 1482SOL     OW 5957   0.674   3.121   2.657
 1482SOL    HW2 5958   0.762   3.140   2.688
 1482SOL    HW3 5959   0.684   3.103   2.564
 1482SOL    MW4 5960   0.687   3.121   2.649
 1483SOL     OW 5961   0.422   3.217   2.749
 1483SOL    HW2 5962   0.436   3.229   2.843
 1483SOL    HW3 5963   0.504   3.179   2.717
 1483SOL    MW4 5964   0.434   3.213   2.757
 1484SOL     OW 5965   0.429   3.471   2.647
 1484SOL    HW2 5966   0.419   3.381   2.678
 1484SOL    HW3 5967   0.431   3.464   2.552
 1484SOL    MW4 5968   0.428   3.458   2.639
 1485SOL     OW 5969   0.669   3.593   2.715
 1485SOL    HW2 5970   0.673   3.620   2.806
 1485SOL    HW3 5971   0.582   3.552   2.706
 1485SOL    MW4 5972   0.658   3.591   2.726
 1486SOL     OW 5973   0.684   3.846   2.617
 1486SOL    HW2 5974   0.602   3.883   2.649
 1486SOL    HW3 5975   0.679   3.753   2.637
 1486SOL    MW4 5976   0.673   3.839   2.624
 1487SOL     OW 5977   0.457   3.943   2.719
 1487SOL    HW2 5978   0.449   4.027   2.674
 1487SOL    HW3 5979   0.382   3.893   2.688
 1487SOL    MW4 5980   0.446   3.948   2.709
 1488SOL     OW 5981   0.463   4.209   2.601
 1488SOL    HW2 5982   0.536   4.265   2.629
 1488SOL    HW3 5983   0.458   4.221   2.506
 1488SOL    MW4 5984   0.472   4.218   2.592
 1489SOL     OW 5985   0.667   4.390   2.717
 1489SOL    HW2 5986   0.740   4.331   2.697
 1489SOL    HW3 5987   0.689   4.472   2.672
 1489SOL    MW4 5988   0.680   4.393   2.709
 1490SOL     OW 5989   1.123   4.611   2.651
 1490SOL    HW2 5990   1.202   4.649   2.690
 1490SOL    HW3 5991   1.128   4.518   2.672
 1490SOL    MW4 5992   1.134   4.604   2.659
 1491SOL     OW 5993   0.892   0.075   2.724
 1491SOL    HW2 5994   0.871   0.067   2.817
 1491SOL    HW3 5995   0.981   0.039   2.717
 1491SOL    MW4 5996   0.901   0.069   2.736
 1492SOL     OW 5997   0.900   0.337   2.635
 1492SOL    HW2 5998   0.911   0.246   2.660
 1492SOL    HW3 5999   0.857   0.334   2.549
 1492SOL    MW4 6000   0.896   0.325   2.627
 1493SOL     OW 6001   1.101   0.491   2.762
 1493SOL    HW2 6002   1.125   0.574   2.719
 1493SOL    HW3 6003   1.018   0.466   2.721
 1493SOL    MW4 6004   1.093   0.499   2.751
 1494SOL     OW 6005   1.169   0.713   2.610
 1494SOL    HW2 6006   1.232   0.783   2.628
 1494SOL    HW3 6007   1.160   0.712   2.515
 1494SOL    MW4 6008   1.176   0.722   2.600
 1495SOL     OW 6009   0.922   0.844   2.713
 1495SOL    HW2 6010   0.940   0.862   2.805
 1495SOL    HW3 6011   1.005   0.814   2.678
 1495SOL    MW4 6012   0.935   0.843   2.721
 1496SOL     OW 6013   0.899   1.126   2.675
 1496SOL    HW2 6014   0.923   1.034   2.685
 1496SOL    HW3 6015   0.909   1.143   2.582
 1496SOL    MW4 6016   0.904   1.116   2.664
 1497SOL     OW 6017   1.134   1.243   2.753
 1497SOL    HW2 6018   1.144   1.330   2.715
 1497SOL    HW3 6019   1.044   1.218   2.733
 1497SOL    MW4 6020   1.123   1.251   2.745
 1498SOL     OW 6021   1.128   1.508   2.624
 1498SOL    HW2 6022   1.049   1.557   2.646
 1498SOL    HW3 6023   1.138   1.519   2.529
 1498SOL    MW4 6024   1.119   1.516   2.614
 1499SOL     OW 6025   0.897   1.661   2.704
 1499SOL    HW2 6026   0.913   1.665   2.798
 1499SOL    HW3 6027   0.822   1.603   2.695
 1499SOL    MW4 6028   0.889   1.654   2.715
 1500SOL     OW 6029   0.854   1.912   2.626
 1500SOL    HW2 6030   0.921   1.967   2.669
 1500SOL    HW3 6031   0.875   1.823   2.653
 1500SOL    MW4 6032   0.866   1.908   2.636
 1501SOL     OW 6033   1.080   2.037   2.737
 1501SOL    HW2 6034   1.165   2.002   2.711
 1501SOL    HW3 6035   1.087   2.131   2.721
 1501SOL    MW4 6036   1.092   2.045   2.732
 1502SOL     OW 6037   1.105   2.321   2.677
 1502SOL    HW2 6038   1.196   2.350   2.682
 1502SOL    HW3 6039   1.091   2.300   2.585
 1502SOL    MW4 6040   1.115   2.322   2.666
 1503SOL     OW 6041   0.897   2.462   2.778
 1503SOL    HW2 6042   0.891   2.552   2.747
 1503SOL    HW3 6043   0.982   2.431   2.748
 1503SOL    MW4 6044   0.907   2.470   2.770
 1504SOL     OW 6045   0.863   2.692   2.619
 1504SOL    HW2 6046   0.943   2.742   2.638
 1504SOL    HW3 6047   0.792   2.748   2.652
 1504SOL    MW4 6048   0.864   2.706   2.626
 1505SOL     OW 6049   1.083   2.832   2.692
 1505SOL    HW2 6050   1.106   2.825   2.785
 1505SOL    HW3 6051   1.159   2.795   2.646
 1505SOL    MW4 6052   1.096   2.826   2.699
 1506SOL     OW 6053   1.148   3.096   2.644
 1506SOL    HW2 6054   1.122   3.007   2.667
 1506SOL    HW3 6055   1.136   3.101   2.550
 1506SOL    MW4 6056   1.143   3.085   2.635
 1507SOL     OW 6057   0.919   3.208   2.752
 1507SOL    HW2 6058   0.903   3.286   2.700
 1507SOL    HW3 6059   1.006   3.179   2.724
 1507SOL    MW4 6060   0.928   3.215   2.741
 1508SOL     OW 6061   0.887   3.462   2.631
 1508SOL    HW2 6062   0.961   3.508   2.672
 1508SOL    HW3 6063   0.810   3.512   2.660
 1508SOL    MW4 6064   0.887   3.475   2.640
 1509SOL     OW 6065   1.102   3.599   2.752
 1509SOL    HW2 6066   1.101   3.626   2.844
 1509SOL    HW3 6067   1.100   3.681   2.703
 1509SOL    MW4 6068   1.102   3.613   2.758
 1510SOL     OW 6069   1.098   3.851   2.622
 1510SOL    HW2 6070   1.178   3.889   2.660
 1510SOL    HW3 6071   1.110   3.859   2.528
 1510SOL    MW4 6072   1.110   3.857   2.615
 1511SOL     OW 6073   0.893   4.008   2.725
 1511SOL    HW2 6074   0.958   3.963   2.670
 1511SOL    HW3 6075   0.809   3.970   2.698
 1511SOL    MW4 6076   0.890   3.997   2.714
 1512SOL     OW 6077   0.888   4.266   2.648
 1512SOL    HW2 6078   0.892   4.174   2.673
 1512SOL    HW3 6079   0.884   4.265   2.552
 1512SOL    MW4 6080   0.888   4.254   2.638
 1513SOL     OW 6081   1.144   4.351   2.727
 1513SOL    HW2 6082   1.137   4.378   2.819
 1513SOL    HW3 6083   1.055   4.327   2.702
 1513SOL    MW4 6084   1.131   4.351   2.736
 1514SOL     OW 6085   1.570   4.632   2.612
 1514SOL    HW2 6086   1.564   4.540   2.638
 1514SOL    HW3 6087   1.541   4.633   2.521
 1514SOL    MW4 6088   1.566   4.620   2.603
 1515SOL     OW 6089   1.338   0.103   2.722
 1515SOL    HW2 6090   1.349   0.194   2.695
 1515SOL    HW3 6091   1.421   0.060   2.701
 1515SOL    MW4 6092   1.350   0.109   2.716
 1516SOL     OW 6093   1.347   0.360   2.645
 1516SOL    HW2 6094   1.425   0.406   2.675
 1516SOL    HW3 6095   1.274   0.411   2.681
 1516SOL    MW4 6096   1.347   0.373   2.654
 1517SOL     OW 6097   1.583   0.492   2.735
 1517SOL    HW2 6098   1.658   0.470   2.680
 1517SOL    HW3 6099   1.564   0.583   2.715
 1517SOL    MW4 6100   1.590   0.501   2.725
 1518SOL     OW 6101   1.578   0.770   2.654
 1518SOL    HW2 6102   1.498   0.813   2.685
 1518SOL    HW3 6103   1.562   0.755   2.561
 1518SOL    MW4 6104   1.565   0.774   2.646
 1519SOL     OW 6105   1.364   0.910   2.701
 1519SOL    HW2 6106   1.352   0.916   2.796
 1519SOL    HW3 6107   1.355   1.001   2.671
 1519SOL    MW4 6108   1.361   0.923   2.710
 1520SOL     OW 6109   1.324   1.157   2.581
 1520SOL    HW2 6110   1.400   1.184   2.631
 1520SOL    HW3 6111   1.249   1.191   2.630
 1520SOL    MW4 6112   1.324   1.165   2.594
 1521SOL     OW 6113   1.568   1.210   2.715
 1521SOL    HW2 6114   1.571   1.227   2.809
 1521SOL    HW3 6115   1.652   1.168   2.696
 1521SOL    MW4 6116   1.579   1.207   2.725
 1522SOL     OW 6117   1.602   1.520   2.649
 1522SOL    HW2 6118   1.614   1.427   2.666
 1522SOL    HW3 6119   1.581   1.526   2.556
 1522SOL    MW4 6120   1.601   1.509   2.639
 1523SOL     OW 6121   1.360   1.637   2.707
 1523SOL    HW2 6122   1.436   1.585   2.682
 1523SOL    HW3 6123   1.285   1.579   2.692
 1523SOL    MW4 6124   1.360   1.623   2.702
 1524SOL     OW 6125   1.361   1.914   2.652
 1524SOL    HW2 6126   1.351   1.820   2.665
 1524SOL    HW3 6127   1.360   1.925   2.556
 1524SOL    MW4 6128   1.360   1.903   2.641
 1525SOL     OW 6129   1.587   2.057   2.729
 1525SOL    HW2 6130   1.663   2.022   2.683
 1525SOL    HW3 6131   1.513   2.006   2.695
 1525SOL    MW4 6132   1.588   2.045   2.719
 1526SOL     OW 6133   1.608   2.326   2.650
 1526SOL    HW2 6134   1.682   2.379   2.682
 1526SOL    HW3 6135   1.613   2.245   2.702
 1526SOL    MW4 6136   1.619   2.322   2.661
 1527SOL     OW 6137   1.350   2.440   2.702
 1527SOL    HW2 6138   1.324   2.518   2.653
 1527SOL    HW3 6139   1.436   2.416   2.666
 1527SOL    MW4 6140   1.358   2.447   2.691
 1528SOL     OW 6141   1.309   2.720   2.596
 1528SOL    HW2 6142   1.382   2.776   2.624
 1528SOL    HW3 6143   1.311   2.725   2.500
 1528SOL    MW4 6144   1.319   2.728   2.587
 1529SOL     OW 6145   1.516   2.859   2.704
 1529SOL    HW2 6146   1.514   2.852   2.800
 1529SOL    HW3 6147   1.603   2.828   2.680
 1529SOL    MW4 6148   1.527   2.854   2.714
 1530SOL     OW 6149   1.564   3.127   2.662
 1530SOL    HW2 6150   1.644   3.151   2.708
 1530SOL    HW3 6151   1.551   3.035   2.683
 1530SOL    MW4 6152   1.573   3.118   2.671
 1531SOL     OW 6153   1.339   3.260   2.778
 1531SOL    HW2 6154   1.420   3.217   2.750
 1531SOL    HW3 6155   1.270   3.198   2.755
 1531SOL    MW4 6156   1.341   3.246   2.771
 1532SOL     OW 6157   1.316   3.478   2.621
 1532SOL    HW2 6158   1.339   3.399   2.670
 1532SOL    HW3 6159   1.238   3.512   2.665
 1532SOL    MW4 6160   1.309   3.472   2.633
 1533SOL     OW 6161   1.565   3.567   2.741
 1533SOL    HW2 6162   1.638   3.525   2.696
 1533SOL    HW3 6163   1.487   3.529   2.698
 1533SOL    MW4 6164   1.564   3.556   2.729
 1534SOL     OW 6165   1.569   3.834   2.675
 1534SOL    HW2 6166   1.494   3.884   2.708
 1534SOL    HW3 6167   1.555   3.745   2.708
 1534SOL    MW4 6168   1.557   3.829   2.684
 1535SOL     OW 6169   1.328   3.950   2.767
 1535SOL    HW2 6170   1.315   3.963   2.861
 1535SOL    HW3 6171   1.341   4.038   2.732
 1535SOL    MW4 6172   1.328   3.963   2.775
 1536SOL     OW 6173   1.352   4.207   2.652
 1536SOL    HW2 6174   1.276   4.257   2.684
 1536SOL    HW3 6175   1.343   4.208   2.557
 1536SOL    MW4 6176   1.341   4.214   2.644
 1537SOL     OW 6177   1.566   4.376   2.724
 1537SOL    HW2 6178   1.549   4.385   2.817
 1537SOL    HW3 6179   1.490   4.331   2.689
 1537SOL    MW4 6180   1.554   4.371   2.731
 1538SOL     OW 6181   1.998   4.652   2.633
 1538SOL    HW2 6182   2.078   4.690   2.668
 1538SOL    HW3 6183   2.012   4.648   2.539
 1538SOL    MW4 6184   2.011   4.656   2.625
 1539SOL     OW 6185   1.782   0.125   2.717
 1539SOL    HW2 6186   1.854   0.078   2.675
 1539SOL    HW3 6187   1.704   0.073   2.695
 1539SOL    MW4 6188   1.781   0.112   2.709
 1540SOL     OW 6189   1.809   0.386   2.615
 1540SOL    HW2 6190   1.891   0.416   2.654
 1540SOL    HW3 6191   1.795   0.298   2.652
 1540SOL    MW4 6192   1.818   0.378   2.625
 1541SOL     OW 6193   2.024   0.505   2.734
 1541SOL    HW2 6194   2.114   0.472   2.740
 1541SOL    HW3 6195   2.033   0.592   2.695
 1541SOL    MW4 6196   2.037   0.512   2.730
 1542SOL     OW 6197   2.065   0.756   2.634
 1542SOL    HW2 6198   1.981   0.781   2.674
 1542SOL    HW3 6199   2.047   0.754   2.540
 1542SOL    MW4 6200   2.051   0.759   2.627
 1543SOL     OW 6201   1.822   0.846   2.726
 1543SOL    HW2 6202   1.829   0.936   2.694
 1543SOL    HW3 6203   1.730   0.823   2.714
 1543SOL    MW4 6204   1.811   0.855   2.720
 1544SOL     OW 6205   1.831   1.115   2.634
 1544SOL    HW2 6206   1.904   1.170   2.662
 1544SOL    HW3 6207   1.833   1.118   2.539
 1544SOL    MW4 6208   1.841   1.123   2.625
 1545SOL     OW 6209   2.014   1.305   2.729
 1545SOL    HW2 6210   2.012   1.316   2.824
 1545SOL    HW3 6211   2.096   1.259   2.712
 1545SOL    MW4 6212   2.025   1.301   2.739
 1546SOL     OW 6213   2.020   1.552   2.587
 1546SOL    HW2 6214   1.938   1.596   2.613
 1546SOL    HW3 6215   2.019   1.469   2.635
 1546SOL    MW4 6216   2.009   1.547   2.597
 1547SOL     OW 6217   1.810   1.694   2.719
 1547SOL    HW2 6218   1.805   1.708   2.813
 1547SOL    HW3 6219   1.738   1.634   2.700
 1547SOL    MW4 6220   1.800   1.688   2.729
 1548SOL     OW 6221   1.816   1.959   2.623
 1548SOL    HW2 6222   1.891   1.995   2.671
 1548SOL    HW3 6223   1.809   1.868   2.653
 1548SOL    MW4 6224   1.825   1.952   2.633
 1549SOL     OW 6225   2.079   2.100   2.710
 1549SOL    HW2 6226   2.077   2.110   2.806
 1549SOL    HW3 6227   2.027   2.173   2.678
 1549SOL    MW4 6228   2.072   2.111   2.719
 1550SOL     OW 6229   2.007   2.351   2.642
 1550SOL    HW2 6230   2.088   2.384   2.678
 1550SOL    HW3 6231   2.018   2.358   2.547
 1550SOL    MW4 6232   2.019   2.356   2.634
 1551SOL     OW 6233   1.807   2.502   2.744
 1551SOL    HW2 6234   1.812   2.497   2.840
 1551SOL    HW3 6235   1.884   2.453   2.714
 1551SOL    MW4 6236   1.818   2.495   2.753
 1552SOL     OW 6237   1.795   2.769   2.648
 1552SOL    HW2 6238   1.797   2.679   2.682
 1552SOL    HW3 6239   1.827   2.761   2.558
 1552SOL    MW4 6240   1.799   2.756   2.640
 1553SOL     OW 6241   2.028   2.901   2.748
 1553SOL    HW2 6242   2.088   2.838   2.707
 1553SOL    HW3 6243   1.941   2.869   2.724
 1553SOL    MW4 6244   2.025   2.888   2.739
 1554SOL     OW 6245   2.028   3.131   2.597
 1554SOL    HW2 6246   2.021   3.050   2.647
 1554SOL    HW3 6247   2.032   3.104   2.506
 1554SOL    MW4 6248   2.027   3.117   2.592
 1555SOL     OW 6249   1.815   3.235   2.750
 1555SOL    HW2 6250   1.808   3.323   2.713
 1555SOL    HW3 6251   1.884   3.193   2.698
 1555SOL    MW4 6252   1.823   3.241   2.738
 1556SOL     OW 6253   1.792   3.480   2.621
 1556SOL    HW2 6254   1.864   3.536   2.650
 1556SOL    HW3 6255   1.794   3.487   2.526
 1556SOL    MW4 6256   1.802   3.488   2.612
 1557SOL     OW 6257   2.027   3.599   2.728
 1557SOL    HW2 6258   2.020   3.580   2.821
 1557SOL    HW3 6259   2.103   3.549   2.699
 1557SOL    MW4 6260   2.036   3.590   2.736
 1558SOL     OW 6261   2.046   3.884   2.665
 1558SOL    HW2 6262   1.966   3.922   2.702
 1558SOL    HW3 6263   2.044   3.792   2.691
 1558SOL    MW4 6264   2.035   3.877   2.673
 1559SOL     OW 6265   1.807   3.963   2.752
 1559SOL    HW2 6266   1.799   4.045   2.704
 1559SOL    HW3 6267   1.726   3.916   2.733
 1559SOL    MW4 6268   1.795   3.968   2.743
 1560SOL     OW 6269   1.794   4.242   2.617
 1560SOL    HW2 6270   1.713   4.275   2.654
 1560SOL    HW3 6271   1.794   4.272   2.527
 1560SOL    MW4 6272   1.784   4.250   2.610
 1561SOL     OW 6273   2.009   4.382   2.728
 1561SOL    HW2 6274   1.935   4.332   2.693
 1561SOL    HW3 6275   1.995   4.471   2.695
 1561SOL    MW4 6276   1.997   4.387   2.719
 1562SOL     OW 6277   2.450   0.046   2.629
 1562SOL    HW2 6278   2.536   0.061   2.669
 1562SOL    HW3 6279   2.468   0.051   2.535
 1562SOL    MW4 6280   2.464   0.049   2.622
 1563SOL     OW 6281   2.205   0.124   2.760
 1563SOL    HW2 6282   2.195   0.123   2.855
 1563SOL    HW3 6283   2.293   0.090   2.744
 1563SOL    MW4 6284   2.215   0.119   2.770
 1564SOL     OW 6285   2.249   0.388   2.676
 1564SOL    HW2 6286   2.230   0.298   2.702
 1564SOL    HW3 6287   2.241   0.387   2.580
 1564SOL    MW4 6288   2.246   0.376   2.666
 1565SOL     OW 6289   2.499   0.492   2.758
 1565SOL    HW2 6290   2.492   0.572   2.706
 1565SOL    HW3 6291   2.414   0.449   2.749
 1565SOL    MW4 6292   2.487   0.496   2.750
 1566SOL     OW 6293   2.491   0.713   2.610
 1566SOL    HW2 6294   2.430   0.771   2.656
 1566SOL    HW3 6295   2.460   0.713   2.519
 1566SOL    MW4 6296   2.479   0.721   2.604
 1567SOL     OW 6297   2.292   0.881   2.715
 1567SOL    HW2 6298   2.285   0.880   2.810
 1567SOL    HW3 6299   2.215   0.834   2.684
 1567SOL    MW4 6300   2.281   0.875   2.723
 1568SOL     OW 6301   2.237   1.137   2.658
 1568SOL    HW2 6302   2.251   1.047   2.686
 1568SOL    HW3 6303   2.233   1.133   2.563
 1568SOL    MW4 6304   2.238   1.125   2.649
 1569SOL     OW 6305   2.460   1.291   2.681
 1569SOL    HW2 6306   2.521   1.225   2.648
 1569SOL    HW3 6307   2.376   1.245   2.689
 1569SOL    MW4 6308   2.457   1.276   2.678
 1570SOL     OW 6309   2.442   1.544   2.608
 1570SOL    HW2 6310   2.385   1.590   2.670
 1570SOL    HW3 6311   2.439   1.453   2.636
 1570SOL    MW4 6312   2.434   1.538   2.620
 1571SOL     OW 6313   2.233   1.693   2.709
 1571SOL    HW2 6314   2.227   1.776   2.662
 1571SOL    HW3 6315   2.165   1.638   2.670
 1571SOL    MW4 6316   2.223   1.696   2.697
 1572SOL     OW 6317   2.295   1.942   2.607
 1572SOL    HW2 6318   2.234   2.012   2.628
 1572SOL    HW3 6319   2.287   1.929   2.513
 1572SOL    MW4 6320   2.286   1.949   2.597
 1573SOL     OW 6321   2.497   2.048   2.770
 1573SOL    HW2 6322   2.489   2.142   2.751
 1573SOL    HW3 6323   2.416   2.010   2.737
 1573SOL    MW4 6324   2.485   2.056   2.763
 1574SOL     OW 6325   2.473   2.317   2.665
 1574SOL    HW2 6326   2.555   2.356   2.696
 1574SOL    HW3 6327   2.478   2.324   2.570
 1574SOL    MW4 6328   2.485   2.323   2.657
 1575SOL     OW 6329   2.236   2.439   2.757
 1575SOL    HW2 6330   2.230   2.455   2.851
 1575SOL    HW3 6331   2.304   2.372   2.747
 1575SOL    MW4 6332   2.244   2.432   2.768
 1576SOL     OW 6333   2.234   2.690   2.647
 1576SOL    HW2 6334   2.317   2.731   2.669
 1576SOL    HW3 6335   2.243   2.600   2.677
 1576SOL    MW4 6336   2.246   2.684   2.654
 1577SOL     OW 6337   2.459   2.813   2.723
 1577SOL    HW2 6338   2.543   2.772   2.701
 1577SOL    HW3 6339   2.470   2.904   2.695
 1577SOL    MW4 6340   2.471   2.820   2.716
 1578SOL     OW 6341   2.459   3.083   2.618
 1578SOL    HW2 6342   2.386   3.126   2.663
 1578SOL    HW3 6343   2.455   3.116   2.529
 1578SOL    MW4 6344   2.449   3.093   2.612
 1579SOL     OW 6345   2.239   3.208   2.753
 1579SOL    HW2 6346   2.222   3.202   2.847
 1579SOL    HW3 6347   2.156   3.183   2.712
 1579SOL    MW4 6348   2.226   3.204   2.760
 1580SOL     OW 6349   2.261   3.446   2.628
 1580SOL    HW2 6350   2.327   3.493   2.679
 1580SOL    HW3 6351   2.251   3.363   2.674
 1580SOL    MW4 6352   2.268   3.441   2.641
 1581SOL     OW 6353   2.484   3.619   2.715
 1581SOL    HW2 6354   2.489   3.616   2.810
 1581SOL    HW3 6355   2.494   3.712   2.693
 1581SOL    MW4 6356   2.486   3.631   2.724
 1582SOL     OW 6357   2.458   3.881   2.618
 1582SOL    HW2 6358   2.533   3.935   2.645
 1582SOL    HW3 6359   2.387   3.909   2.677
 1582SOL    MW4 6360   2.459   3.892   2.630
 1583SOL     OW 6361   2.256   4.026   2.757
 1583SOL    HW2 6362   2.258   4.016   2.853
 1583SOL    HW3 6363   2.182   3.970   2.730
 1583SOL    MW4 6364   2.246   4.017   2.766
 1584SOL     OW 6365   2.234   4.274   2.608
 1584SOL    HW2 6366   2.246   4.187   2.644
 1584SOL    HW3 6367   2.156   4.308   2.651
 1584SOL    MW4 6368   2.225   4.267   2.618
 1585SOL     OW 6369   2.475   4.444   2.667
 1585SOL    HW2 6370   2.394   4.399   2.644
 1585SOL    HW3 6371   2.456   4.537   2.651
 1585SOL    MW4 6372   2.462   4.450   2.661
 1586SOL     OW 6373   2.910   4.631   2.663
 1586SOL    HW2 6374   2.998   4.658   2.688
 1586SOL    HW3 6375   2.905   4.645   2.569
 1586SOL    MW4 6376   2.921   4.636   2.654
 1587SOL     OW 6377   2.701   0.105   2.740
 1587SOL    HW2 6378   2.706   0.119   2.835
 1587SOL    HW3 6379   2.781   0.058   2.719
 1587SOL    MW4 6380   2.712   0.101   2.750
 1588SOL     OW 6381   2.702   0.355   2.647
 1588SOL    HW2 6382   2.698   0.263   2.673
 1588SOL    HW3 6383   2.618   0.391   2.674
 1588SOL    MW4 6384   2.691   0.348   2.654
 1589SOL     OW 6385   2.911   0.525   2.750
 1589SOL    HW2 6386   2.894   0.605   2.701
 1589SOL    HW3 6387   2.852   0.460   2.712
 1589SOL    MW4 6388   2.901   0.527   2.738
 1590SOL     OW 6389   2.918   0.771   2.612
 1590SOL    HW2 6390   2.995   0.819   2.643
 1590SOL    HW3 6391   2.844   0.817   2.650
 1590SOL    MW4 6392   2.919   0.784   2.621
 1591SOL     OW 6393   2.682   0.892   2.700
 1591SOL    HW2 6394   2.681   0.887   2.795
 1591SOL    HW3 6395   2.627   0.819   2.671
 1591SOL    MW4 6396   2.674   0.882   2.709
 1592SOL     OW 6397   2.666   1.129   2.566
 1592SOL    HW2 6398   2.728   1.176   2.623
 1592SOL    HW3 6399   2.659   1.042   2.605
 1592SOL    MW4 6400   2.673   1.124   2.578
 1593SOL     OW 6401   2.891   1.277   2.717
 1593SOL    HW2 6402   2.897   1.279   2.812
 1593SOL    HW3 6403   2.969   1.230   2.689
 1593SOL    MW4 6404   2.902   1.271   2.725
 1594SOL     OW 6405   2.918   1.547   2.633
 1594SOL    HW2 6406   2.843   1.594   2.668
 1594SOL    HW3 6407   2.908   1.457   2.666
 1594SOL    MW4 6408   2.907   1.541   2.642
 1595SOL     OW 6409   2.679   1.658   2.717
 1595SOL    HW2 6410   2.670   1.661   2.812
 1595SOL    HW3 6411   2.607   1.601   2.688
 1595SOL    MW4 6412   2.668   1.651   2.726
 1596SOL     OW 6413   2.710   1.921   2.619
 1596SOL    HW2 6414   2.687   1.830   2.639
 1596SOL    HW3 6415   2.644   1.973   2.665
 1596SOL    MW4 6416   2.698   1.916   2.627
 1597SOL     OW 6417   2.929   2.034   2.729
 1597SOL    HW2 6418   2.914   2.120   2.692
 1597SOL    HW3 6419   2.853   1.982   2.703
 1597SOL    MW4 6420   2.917   2.038   2.721
 1598SOL     OW 6421   2.921   2.294   2.621
 1598SOL    HW2 6422   2.999   2.345   2.644
 1598SOL    HW3 6423   2.848   2.344   2.658
 1598SOL    MW4 6424   2.921   2.307   2.629
 1599SOL     OW 6425   2.720   2.433   2.736
 1599SOL    HW2 6426   2.721   2.438   2.831
 1599SOL    HW3 6427   2.726   2.524   2.707
 1599SOL    MW4 6428   2.721   2.446   2.745
 1600SOL     OW 6429   2.689   2.687   2.646
 1600SOL    HW2 6430   2.777   2.721   2.660
 1600SOL    HW3 6431   2.681   2.680   2.551
 1600SOL    MW4 6432   2.699   2.691   2.635
 1601SOL     OW 6433   2.917   2.797   2.712
 1601SOL    HW2 6434   2.910   2.804   2.807
 1601SOL    HW3 6435   2.935   2.887   2.683
 1601SOL    MW4 6436   2.918   2.810   2.721
 1602SOL     OW 6437   2.931   3.069   2.660
 1602SOL    HW2 6438   2.843   3.094   2.685
 1602SOL    HW3 6439   2.937   3.090   2.567
 1602SOL    MW4 6440   2.920   3.075   2.651
 1603SOL     OW 6441   2.691   3.201   2.730
 1603SOL    HW2 6442   2.704   3.287   2.689
 1603SOL    HW3 6443   2.610   3.168   2.693
 1603SOL    MW4 6444   2.682   3.208   2.720
 1604SOL     OW 6445   2.709   3.460   2.610
 1604SOL    HW2 6446   2.630   3.512   2.626
 1604SOL    HW3 6447   2.729   3.475   2.518
 1604SOL    MW4 6448   2.701   3.469   2.600
 1605SOL     OW 6449   2.922   3.605   2.728
 1605SOL    HW2 6450   2.921   3.610   2.824
 1605SOL    HW3 6451   2.847   3.550   2.706
 1605SOL    MW4 6452   2.912   3.598   2.738
 1606SOL     OW 6453   2.913   3.877   2.654
 1606SOL    HW2 6454   2.995   3.910   2.690
 1606SOL    HW3 6455   2.914   3.783   2.676
 1606SOL    MW4 6456   2.924   3.869   2.662
 1607SOL     OW 6457   2.687   4.010   2.723
 1607SOL    HW2 6458   2.699   4.104   2.706
 1607SOL    HW3 6459   2.770   3.970   2.699
 1607SOL    MW4 6460   2.700   4.017   2.718
 1608SOL     OW 6461   2.687   4.269   2.627
 1608SOL    HW2 6462   2.754   4.313   2.679
 1608SOL    HW3 6463   2.607   4.318   2.647
 1608SOL    MW4 6464   2.685   4.281   2.637
 1609SOL     OW 6465   2.908   4.382   2.764
 1609SOL    HW2 6466   2.908   4.387   2.860
 1609SOL    HW3 6467   2.918   4.473   2.736
 1609SOL    MW4 6468   2.910   4.395   2.773
 1610SOL     OW 6469   3.373   4.667   2.628
 1610SOL    HW2 6470   3.387   4.576   2.656
 1610SOL    HW3 6471   3.301   4.698   2.682
 1610SOL    MW4 6472   3.366   4.659   2.639
 1611SOL     OW 6473   3.147   0.083   2.753
 1611SOL    HW2 6474   3.146   0.097   2.848
 1611SOL    HW3 6475   3.150   0.172   2.717
 1611SOL    MW4 6476   3.148   0.097   2.761
 1612SOL     OW 6477   3.151   0.359   2.677
 1612SOL    HW2 6478   3.072   0.408   2.701
 1612SOL    HW3 6479   3.153   0.363   2.581
 1612SOL    MW4 6480   3.141   0.366   2.667
 1613SOL     OW 6481   3.394   0.509   2.691
 1613SOL    HW2 6482   3.380   0.603   2.680
 1613SOL    HW3 6483   3.306   0.471   2.690
 1613SOL    MW4 6484   3.381   0.516   2.689
 1614SOL     OW 6485   3.363   0.777   2.657
 1614SOL    HW2 6486   3.439   0.832   2.677
 1614SOL    HW3 6487   3.356   0.778   2.561
 1614SOL    MW4 6488   3.372   0.785   2.647
 1615SOL     OW 6489   3.141   0.905   2.728
 1615SOL    HW2 6490   3.140   0.917   2.823
 1615SOL    HW3 6491   3.220   0.854   2.711
 1615SOL    MW4 6492   3.151   0.900   2.738
 1616SOL     OW 6493   3.127   1.162   2.613
 1616SOL    HW2 6494   3.135   1.076   2.654
 1616SOL    HW3 6495   3.138   1.145   2.519
 1616SOL    MW4 6496   3.129   1.149   2.606
 1617SOL     OW 6497   3.361   1.283   2.685
 1617SOL    HW2 6498   3.362   1.256   2.776
 1617SOL    HW3 6499   3.273   1.259   2.654
 1617SOL    MW4 6500   3.349   1.276   2.693
 1618SOL     OW 6501   3.379   1.555   2.628
 1618SOL    HW2 6502   3.305   1.595   2.674
 1618SOL    HW3 6503   3.375   1.463   2.654
 1618SOL    MW4 6504   3.369   1.548   2.638
 1619SOL     OW 6505   3.148   1.651   2.731
 1619SOL    HW2 6506   3.150   1.745   2.713
 1619SOL    HW3 6507   3.063   1.622   2.699
 1619SOL    MW4 6508   3.137   1.659   2.725
 1620SOL     OW 6509   3.164   1.928   2.618
 1620SOL    HW2 6510   3.238   1.970   2.662
 1620SOL    HW3 6511   3.087   1.970   2.656
 1620SOL    MW4 6512   3.164   1.939   2.629
 1621SOL     OW 6513   3.418   2.023   2.734
 1621SOL    HW2 6514   3.376   2.023   2.820
 1621SOL    HW3 6515   3.409   2.113   2.703
 1621SOL    MW4 6516   3.411   2.035   2.741
 1622SOL     OW 6517   3.348   2.285   2.607
 1622SOL    HW2 6518   3.426   2.330   2.638
 1622SOL    HW3 6519   3.342   2.309   2.514
 1622SOL    MW4 6520   3.358   2.294   2.599
 1623SOL     OW 6521   3.145   2.421   2.720
 1623SOL    HW2 6522   3.156   2.510   2.689
 1623SOL    HW3 6523   3.219   2.373   2.683
 1623SOL    MW4 6524   3.156   2.426   2.711
 1624SOL     OW 6525   3.146   2.678   2.597
 1624SOL    HW2 6526   3.227   2.715   2.633
 1624SOL    HW3 6527   3.076   2.717   2.649
 1624SOL    MW4 6528   3.147   2.688   2.608
 1625SOL     OW 6529   3.404   2.815   2.738
 1625SOL    HW2 6530   3.406   2.817   2.834
 1625SOL    HW3 6531   3.490   2.784   2.712
 1625SOL    MW4 6532   3.415   2.811   2.747
 1626SOL     OW 6533   3.352   3.061   2.619
 1626SOL    HW2 6534   3.381   2.972   2.640
 1626SOL    HW3 6535   3.345   3.062   2.523
 1626SOL    MW4 6536   3.355   3.050   2.609
 1627SOL     OW 6537   3.158   3.204   2.767
 1627SOL    HW2 6538   3.237   3.165   2.729
 1627SOL    HW3 6539   3.087   3.150   2.735
 1627SOL    MW4 6540   3.159   3.192   2.758
 1628SOL     OW 6541   3.125   3.453   2.620
 1628SOL    HW2 6542   3.118   3.378   2.679
 1628SOL    HW3 6543   3.052   3.509   2.645
 1628SOL    MW4 6544   3.115   3.450   2.631
 1629SOL     OW 6545   3.375   3.561   2.711
 1629SOL    HW2 6546   3.359   3.582   2.803
 1629SOL    HW3 6547   3.299   3.509   2.685
 1629SOL    MW4 6548   3.362   3.557   2.720
 1630SOL     OW 6549   3.371   3.846   2.641
 1630SOL    HW2 6550   3.384   3.756   2.671
 1630SOL    HW3 6551   3.371   3.840   2.545
 1630SOL    MW4 6552   3.372   3.834   2.632
 1631SOL     OW 6553   3.155   4.002   2.759
 1631SOL    HW2 6554   3.160   4.091   2.725
 1631SOL    HW3 6555   3.241   3.964   2.739
 1631SOL    MW4 6556   3.167   4.009   2.752
 1632SOL     OW 6557   3.131   4.259   2.649
 1632SOL    HW2 6558   3.069   4.313   2.698
 1632SOL    HW3 6559   3.090   4.244   2.564
 1632SOL    MW4 6560   3.118   4.264   2.644
 1633SOL     OW 6561   3.350   4.411   2.725
 1633SOL    HW2 6562   3.342   4.406   2.820
 1633SOL    HW3 6563   3.273   4.365   2.692
 1633SOL    MW4 6564   3.339   4.404   2.733
 1634SOL     OW 6565   3.817   0.002   2.601
 1634SOL    HW2 6566   3.821  -0.090   2.629
 1634SOL    HW3 6567   3.743   0.038   2.650
 1634SOL    MW4 6568   3.807  -0.006   2.611
 1635SOL     OW 6569   3.594   0.116   2.743
 1635SOL    HW2 6570   3.584   0.205   2.708
 1635SOL    HW3 6571   3.519   0.068   2.709
 1635SOL    MW4 6572   3.583   0.122   2.734
 1636SOL     OW 6573   3.613   0.365   2.603
 1636SOL    HW2 6574   3.689   0.415   2.631
 1636SOL    HW3 6575   3.538   0.412   2.639
 1636SOL    MW4 6576   3.613   0.378   2.611
 1637SOL     OW 6577   3.836   0.503   2.679
 1637SOL    HW2 6578   3.840   0.522   2.772
 1637SOL    HW3 6579   3.905   0.437   2.665
 1637SOL    MW4 6580   3.846   0.497   2.689
 1638SOL     OW 6581   3.883   0.781   2.577
 1638SOL    HW2 6582   3.799   0.826   2.583
 1638SOL    HW3 6583   3.862   0.689   2.593
 1638SOL    MW4 6584   3.869   0.774   2.580
 1639SOL     OW 6585   3.623   0.890   2.667
 1639SOL    HW2 6586   3.645   0.889   2.760
 1639SOL    HW3 6587   3.608   0.982   2.646
 1639SOL    MW4 6588   3.624   0.902   2.676
 1640SOL     OW 6589   3.601   1.162   2.605
 1640SOL    HW2 6590   3.676   1.205   2.646
 1640SOL    HW3 6591   3.525   1.208   2.639
 1640SOL    MW4 6592   3.601   1.173   2.615
 1641SOL     OW 6593   3.840   1.316   2.709
 1641SOL    HW2 6594   3.906   1.265   2.663
 1641SOL    HW3 6595   3.843   1.402   2.667
 1641SOL    MW4 6596   3.849   1.321   2.697
 1642SOL     OW 6597   3.844   1.569   2.600
 1642SOL    HW2 6598   3.917   1.616   2.641
 1642SOL    HW3 6599   3.766   1.611   2.637
 1642SOL    MW4 6600   3.843   1.581   2.610
 1643SOL     OW 6601   3.612   1.687   2.701
 1643SOL    HW2 6602   3.603   1.766   2.648
 1643SOL    HW3 6603   3.534   1.636   2.680
 1643SOL    MW4 6604   3.600   1.691   2.691
 1644SOL     OW 6605   3.618   1.921   2.588
 1644SOL    HW2 6606   3.537   1.956   2.624
 1644SOL    HW3 6607   3.611   1.935   2.493
 1644SOL    MW4 6608   3.607   1.928   2.580
 1645SOL     OW 6609   3.825   2.078   2.674
 1645SOL    HW2 6610   3.903   2.029   2.648
 1645SOL    HW3 6611   3.753   2.036   2.628
 1645SOL    MW4 6612   3.826   2.066   2.665
 1646SOL     OW 6613   3.818   2.348   2.585
 1646SOL    HW2 6614   3.822   2.263   2.629
 1646SOL    HW3 6615   3.810   2.328   2.492
 1646SOL    MW4 6616   3.817   2.334   2.579
 1647SOL     OW 6617   3.570   2.434   2.687
 1647SOL    HW2 6618   3.574   2.415   2.781
 1647SOL    HW3 6619   3.656   2.411   2.653
 1647SOL    MW4 6620   3.582   2.429   2.695
 1648SOL     OW 6621   3.616   2.695   2.618
 1648SOL    HW2 6622   3.604   2.608   2.656
 1648SOL    HW3 6623   3.615   2.681   2.524
 1648SOL    MW4 6624   3.614   2.682   2.611
 1649SOL     OW 6625   3.832   2.828   2.738
 1649SOL    HW2 6626   3.911   2.803   2.692
 1649SOL    HW3 6627   3.760   2.795   2.683
 1649SOL    MW4 6628   3.833   2.820   2.725
 1650SOL     OW 6629   3.825   3.072   2.625
 1650SOL    HW2 6630   3.741   3.109   2.650
 1650SOL    HW3 6631   3.825   2.984   2.664
 1650SOL    MW4 6632   3.814   3.065   2.633
 1651SOL     OW 6633   3.590   3.190   2.719
 1651SOL    HW2 6634   3.591   3.285   2.705
 1651SOL    HW3 6635   3.510   3.161   2.675
 1651SOL    MW4 6636   3.579   3.199   2.711
 1652SOL     OW 6637   3.613   3.453   2.639
 1652SOL    HW2 6638   3.688   3.499   2.676
 1652SOL    HW3 6639   3.537   3.500   2.672
 1652SOL    MW4 6640   3.613   3.465   2.648
 1653SOL     OW 6641   3.838   3.583   2.776
 1653SOL    HW2 6642   3.908   3.541   2.726
 1653SOL    HW3 6643   3.834   3.672   2.741
 1653SOL    MW4 6644   3.847   3.589   2.765
 1654SOL     OW 6645   3.802   3.843   2.640
 1654SOL    HW2 6646   3.875   3.894   2.673
 1654SOL    HW3 6647   3.724   3.888   2.672
 1654SOL    MW4 6648   3.801   3.856   2.649
 1655SOL     OW 6649   3.593   3.980   2.746
 1655SOL    HW2 6650   3.589   4.068   2.710
 1655SOL    HW3 6651   3.506   3.944   2.730
 1655SOL    MW4 6652   3.581   3.987   2.739
 1656SOL     OW 6653   3.562   4.241   2.653
 1656SOL    HW2 6654   3.494   4.302   2.679
 1656SOL    HW3 6655   3.538   4.213   2.565
 1656SOL    MW4 6656   3.550   4.245   2.645
 1657SOL     OW 6657   3.793   4.414   2.673
 1657SOL    HW2 6658   3.867   4.358   2.651
 1657SOL    HW3 6659   3.716   4.362   2.650
 1657SOL    MW4 6660   3.792   4.400   2.667
 1658SOL     OW 6661   4.304   4.603   2.623
 1658SOL    HW2 6662   4.223   4.642   2.656
 1658SOL    HW3 6663   4.373   4.659   2.658
 1658SOL    MW4 6664   4.302   4.616   2.632
 1659SOL     OW 6665   4.064   0.054   2.733
 1659SOL    HW2 6666   4.042   0.040   2.825
 1659SOL    HW3 6667   3.980   0.047   2.687
 1659SOL    MW4 6668   4.050   0.051   2.739
 1660SOL     OW 6669   4.039   0.313   2.619
 1660SOL    HW2 6670   4.073   0.227   2.646
 1660SOL    HW3 6671   4.029   0.306   2.524
 1660SOL    MW4 6672   4.043   0.301   2.610
 1661SOL     OW 6673   4.268   0.464   2.713
 1661SOL    HW2 6674   4.200   0.404   2.681
 1661SOL    HW3 6675   4.349   0.414   2.703
 1661SOL    MW4 6676   4.270   0.450   2.707
 1662SOL     OW 6677   4.293   0.736   2.654
 1662SOL    HW2 6678   4.300   0.643   2.679
 1662SOL    HW3 6679   4.270   0.734   2.562
 1662SOL    MW4 6680   4.291   0.723   2.645
 1663SOL     OW 6681   4.083   0.894   2.715
 1663SOL    HW2 6682   4.165   0.847   2.702
 1663SOL    HW3 6683   4.017   0.840   2.671
 1663SOL    MW4 6684   4.085   0.881   2.707
 1664SOL     OW 6685   4.054   1.145   2.603
 1664SOL    HW2 6686   4.125   1.194   2.644
 1664SOL    HW3 6687   4.059   1.058   2.642
 1664SOL    MW4 6688   4.064   1.140   2.614
 1665SOL     OW 6689   4.266   1.264   2.725
 1665SOL    HW2 6690   4.265   1.353   2.690
 1665SOL    HW3 6691   4.347   1.225   2.690
 1665SOL    MW4 6692   4.277   1.271   2.716
 1666SOL     OW 6693   4.296   1.523   2.651
 1666SOL    HW2 6694   4.379   1.563   2.675
 1666SOL    HW3 6695   4.293   1.529   2.556
 1666SOL    MW4 6696   4.306   1.529   2.642
 1667SOL     OW 6697   4.073   1.684   2.731
 1667SOL    HW2 6698   4.070   1.677   2.826
 1667SOL    HW3 6699   4.144   1.625   2.705
 1667SOL    MW4 6700   4.082   1.675   2.740
 1668SOL     OW 6701   4.076   1.951   2.615
 1668SOL    HW2 6702   4.127   2.011   2.669
 1668SOL    HW3 6703   4.086   1.866   2.658
 1668SOL    MW4 6704   4.084   1.948   2.628
 1669SOL     OW 6705   4.250   2.087   2.771
 1669SOL    HW2 6706   4.274   2.173   2.738
 1669SOL    HW3 6707   4.306   2.026   2.724
 1669SOL    MW4 6708   4.260   2.090   2.760
 1670SOL     OW 6709   4.277   2.313   2.612
 1670SOL    HW2 6710   4.202   2.368   2.635
 1670SOL    HW3 6711   4.271   2.301   2.517
 1670SOL    MW4 6712   4.267   2.319   2.603
 1671SOL     OW 6713   4.066   2.468   2.690
 1671SOL    HW2 6714   4.061   2.452   2.784
 1671SOL    HW3 6715   3.995   2.416   2.653
 1671SOL    MW4 6716   4.056   2.459   2.698
 1672SOL     OW 6717   4.042   2.733   2.612
 1672SOL    HW2 6718   4.123   2.765   2.652
 1672SOL    HW3 6719   4.037   2.641   2.637
 1672SOL    MW4 6720   4.052   2.725   2.620
 1673SOL     OW 6721   4.258   2.839   2.750
 1673SOL    HW2 6722   4.250   2.853   2.844
 1673SOL    HW3 6723   4.270   2.927   2.714
 1673SOL    MW4 6724   4.258   2.853   2.758
 1674SOL     OW 6725   4.247   3.080   2.610
 1674SOL    HW2 6726   4.167   3.121   2.643
 1674SOL    HW3 6727   4.232   3.071   2.516
 1674SOL    MW4 6728   4.234   3.084   2.602
 1675SOL     OW 6729   4.018   3.224   2.732
 1675SOL    HW2 6730   4.016   3.308   2.684
 1675SOL    HW3 6731   3.940   3.178   2.702
 1675SOL    MW4 6732   4.007   3.229   2.722
 1676SOL     OW 6733   4.025   3.478   2.616
 1676SOL    HW2 6734   4.095   3.533   2.651
 1676SOL    HW3 6735   4.038   3.480   2.521
 1676SOL    MW4 6736   4.036   3.485   2.608
 1677SOL     OW 6737   4.226   3.637   2.685
 1677SOL    HW2 6738   4.223   3.643   2.781
 1677SOL    HW3 6739   4.304   3.584   2.668
 1677SOL    MW4 6740   4.236   3.631   2.696
 1678SOL     OW 6741   4.244   3.888   2.574
 1678SOL    HW2 6742   4.233   3.797   2.601
 1678SOL    HW3 6743   4.326   3.916   2.616
 1678SOL    MW4 6744   4.254   3.880   2.583
 1679SOL     OW 6745   4.015   4.000   2.692
 1679SOL    HW2 6746   4.028   4.005   2.787
 1679SOL    HW3 6747   4.100   3.975   2.657
 1679SOL    MW4 6748   4.028   3.997   2.700
 1680SOL     OW 6749   3.995   4.252   2.585
 1680SOL    HW2 6750   3.987   4.163   2.620
 1680SOL    HW3 6751   4.003   4.239   2.491
 1680SOL    MW4 6752   3.995   4.238   2.577
 1681SOL     OW 6753   4.232   4.337   2.691
 1681SOL    HW2 6754   4.151   4.304   2.653
 1681SOL    HW3 6755   4.254   4.414   2.639
 1681SOL    MW4 6756   4.225   4.343   2.679
 1682SOL     OW 6757   0.245   4.607   3.099
 1682SOL    HW2 6758   0.238   4.623   3.193
 1682SOL    HW3 6759   0.158   4.630   3.065
 1682SOL    MW4 6760   0.233   4.612   3.107
 1683SOL     OW 6761   0.015   0.064   2.983
 1683SOL    HW2 6762  -0.068   0.036   3.021
 1683SOL    HW3 6763   0.033   0.149   3.024
 1683SOL    MW4 6764   0.007   0.072   2.993
 1684SOL     OW 6765   0.009   0.337   3.110
 1684SOL    HW2 6766   0.004   0.319   3.204
 1684SOL    HW3 6767  -0.073   0.382   3.089
 1684SOL    MW4 6768  -0.002   0.340   3.119
 1685SOL     OW 6769   0.214   0.455   2.980
 1685SOL    HW2 6770   0.294   0.432   3.027
 1685SOL    HW3 6771   0.147   0.399   3.019
 1685SOL    MW4 6772   0.216   0.445   2.991
 1686SOL     OW 6773   0.249   0.720   3.091
 1686SOL    HW2 6774   0.239   0.719   3.187
 1686SOL    HW3 6775   0.246   0.628   3.065
 1686SOL    MW4 6776   0.247   0.708   3.100
 1687SOL     OW 6777   0.037   0.886   3.033
 1687SOL    HW2 6778   0.104   0.826   3.065
 1687SOL    HW3 6779   0.035   0.871   2.938
 1687SOL    MW4 6780   0.046   0.876   3.025
 1688SOL     OW 6781   0.053   1.149   3.112
 1688SOL    HW2 6782  -0.021   1.180   3.058
 1688SOL    HW3 6783   0.063   1.057   3.088
 1688SOL    MW4 6784   0.045   1.141   3.101
 1689SOL     OW 6785   0.272   1.296   3.002
 1689SOL    HW2 6786   0.196   1.249   3.038
 1689SOL    HW3 6787   0.263   1.286   2.908
 1689SOL    MW4 6788   0.261   1.288   2.995
 1690SOL     OW 6789   0.254   1.553   3.107
 1690SOL    HW2 6790   0.166   1.586   3.089
 1690SOL    HW3 6791   0.256   1.467   3.065
 1690SOL    MW4 6792   0.243   1.546   3.099
 1691SOL     OW 6793   4.490   1.655   3.032
 1691SOL    HW2 6794   4.417   1.613   3.077
 1691SOL    HW3 6795   4.485   1.747   3.059
 1691SOL    MW4 6796   4.480   1.661   3.042
 1692SOL     OW 6797   0.022   1.931   3.089
 1692SOL    HW2 6798  -0.057   1.985   3.079
 1692SOL    HW3 6799   0.094   1.988   3.063
 1692SOL    MW4 6800   0.021   1.945   3.084
 1693SOL     OW 6801   0.237   2.098   3.045
 1693SOL    HW2 6802   0.232   2.191   3.066
 1693SOL    HW3 6803   0.225   2.094   2.950
 1693SOL    MW4 6804   0.235   2.110   3.036
 1694SOL     OW 6805   0.202   2.359   3.096
 1694SOL    HW2 6806   0.210   2.364   3.191
 1694SOL    HW3 6807   0.276   2.410   3.063
 1694SOL    MW4 6808   0.213   2.366   3.104
 1695SOL     OW 6809   4.476   2.469   2.986
 1695SOL    HW2 6810   4.461   2.558   3.017
 1695SOL    HW3 6811   4.564   2.447   3.019
 1695SOL    MW4 6812   4.486   2.478   2.995
 1696SOL     OW 6813   0.005   2.739   3.104
 1696SOL    HW2 6814   0.013   2.727   3.198
 1696SOL    HW3 6815   0.067   2.809   3.083
 1696SOL    MW4 6816   0.014   2.747   3.114
 1697SOL     OW 6817   0.221   2.892   3.001
 1697SOL    HW2 6818   0.282   2.837   3.050
 1697SOL    HW3 6819   0.227   2.859   2.911
 1697SOL    MW4 6820   0.230   2.880   2.996
 1698SOL     OW 6821   0.200   3.143   3.147
 1698SOL    HW2 6822   0.131   3.196   3.106
 1698SOL    HW3 6823   0.209   3.067   3.090
 1698SOL    MW4 6824   0.192   3.140   3.134
 1699SOL     OW 6825   4.467   3.275   3.056
 1699SOL    HW2 6826   4.405   3.209   3.086
 1699SOL    HW3 6827   4.462   3.271   2.960
 1699SOL    MW4 6828   4.458   3.266   3.047
 1700SOL     OW 6829   4.474   3.543   3.090
 1700SOL    HW2 6830   4.394   3.576   3.050
 1700SOL    HW3 6831   4.467   3.448   3.085
 1700SOL    MW4 6832   4.463   3.535   3.084
 1701SOL     OW 6833   0.225   3.646   3.023
 1701SOL    HW2 6834   0.224   3.742   3.022
 1701SOL    HW3 6835   0.134   3.621   3.039
 1701SOL    MW4 6836   0.213   3.656   3.025
 1702SOL     OW 6837   0.207   3.909   3.073
 1702SOL    HW2 6838   0.202   3.895   3.168
 1702SOL    HW3 6839   0.298   3.936   3.059
 1702SOL    MW4 6840   0.218   3.911   3.084
 1703SOL     OW 6841   4.468   4.032   2.981
 1703SOL    HW2 6842   4.532   3.976   3.025
 1703SOL    HW3 6843   4.477   4.010   2.888
 1703SOL    MW4 6844   4.478   4.022   2.974
 1704SOL     OW 6845   4.477   4.281   3.061
 1704SOL    HW2 6846   4.470   4.281   3.157
 1704SOL    HW3 6847   4.468   4.189   3.036
 1704SOL    MW4 6848   4.475   4.269   3.070
 1705SOL     OW 6849   0.239   4.367   2.976
 1705SOL    HW2 6850   0.154   4.334   3.004
 1705SOL    HW3 6851   0.247   4.452   3.018
 1705SOL    MW4 6852   0.229   4.374   2.985
 1706SOL     OW 6853   0.683   4.614   3.110
 1706SOL    HW2 6854   0.704   4.528   3.076
 1706SOL    HW3 6855   0.607   4.643   3.059
 1706SOL    MW4 6856   0.676   4.607   3.099
 1707SOL     OW 6857   0.446   0.090   2.990
 1707SOL    HW2 6858   0.432   0.180   3.020
 1707SOL    HW3 6859   0.379   0.039   3.036
 1707SOL    MW4 6860   0.436   0.095   3.000
 1708SOL     OW 6861   0.440   0.356   3.092
 1708SOL    HW2 6862   0.428   0.357   3.187
 1708SOL    HW3 6863   0.526   0.395   3.078
 1708SOL    MW4 6864   0.450   0.362   3.102
 1709SOL     OW 6865   0.668   0.507   3.023
 1709SOL    HW2 6866   0.730   0.448   3.065
 1709SOL    HW3 6867   0.671   0.587   3.075
 1709SOL    MW4 6868   0.676   0.510   3.036
 1710SOL     OW 6869   0.713   0.780   3.115
 1710SOL    HW2 6870   0.712   0.775   3.210
 1710SOL    HW3 6871   0.627   0.814   3.091
 1710SOL    MW4 6872   0.702   0.784   3.124
 1711SOL     OW 6873   0.477   0.881   3.019
 1711SOL    HW2 6874   0.394   0.839   3.044
 1711SOL    HW3 6875   0.480   0.871   2.924
 1711SOL    MW4 6876   0.466   0.874   3.010
 1712SOL     OW 6877   0.502   1.152   3.097
 1712SOL    HW2 6878   0.511   1.065   3.059
 1712SOL    HW3 6879   0.422   1.187   3.058
 1712SOL    MW4 6880   0.492   1.145   3.087
 1713SOL     OW 6881   0.704   1.311   3.015
 1713SOL    HW2 6882   0.788   1.267   3.026
 1713SOL    HW3 6883   0.640   1.249   3.052
 1713SOL    MW4 6884   0.706   1.297   3.022
 1714SOL     OW 6885   0.688   1.562   3.099
 1714SOL    HW2 6886   0.696   1.548   3.193
 1714SOL    HW3 6887   0.694   1.474   3.061
 1714SOL    MW4 6888   0.690   1.549   3.107
 1715SOL     OW 6889   0.463   1.737   3.059
 1715SOL    HW2 6890   0.546   1.692   3.075
 1715SOL    HW3 6891   0.396   1.672   3.077
 1715SOL    MW4 6892   0.465   1.723   3.064
 1716SOL     OW 6893   0.483   2.021   3.118
 1716SOL    HW2 6894   0.489   1.927   3.102
 1716SOL    HW3 6895   0.395   2.044   3.090
 1716SOL    MW4 6896   0.472   2.012   3.112
 1717SOL     OW 6897   0.685   2.066   2.952
 1717SOL    HW2 6898   0.754   2.016   2.995
 1717SOL    HW3 6899   0.610   2.060   3.010
 1717SOL    MW4 6900   0.684   2.059   2.965
 1718SOL     OW 6901   0.626   2.335   3.116
 1718SOL    HW2 6902   0.634   2.311   3.208
 1718SOL    HW3 6903   0.643   2.254   3.068
 1718SOL    MW4 6904   0.630   2.321   3.122
 1719SOL     OW 6905   0.430   2.478   2.997
 1719SOL    HW2 6906   0.499   2.427   3.039
 1719SOL    HW3 6907   0.453   2.478   2.904
 1719SOL    MW4 6908   0.442   2.471   2.990
 1720SOL     OW 6909   0.387   2.719   3.132
 1720SOL    HW2 6910   0.471   2.762   3.115
 1720SOL    HW3 6911   0.396   2.633   3.091
 1720SOL    MW4 6912   0.399   2.713   3.124
 1721SOL     OW 6913   0.631   2.827   3.028
 1721SOL    HW2 6914   0.719   2.796   3.050
 1721SOL    HW3 6915   0.630   2.918   3.057
 1721SOL    MW4 6916   0.643   2.834   3.035
 1722SOL     OW 6917   0.646   3.099   3.122
 1722SOL    HW2 6918   0.636   3.108   3.217
 1722SOL    HW3 6919   0.584   3.163   3.085
 1722SOL    MW4 6920   0.636   3.109   3.129
 1723SOL     OW 6921   0.455   3.267   3.027
 1723SOL    HW2 6922   0.469   3.359   3.051
 1723SOL    HW3 6923   0.394   3.234   3.093
 1723SOL    MW4 6924   0.449   3.275   3.039
 1724SOL     OW 6925   0.461   3.531   3.129
 1724SOL    HW2 6926   0.460   3.512   3.223
 1724SOL    HW3 6927   0.377   3.573   3.112
 1724SOL    MW4 6928   0.450   3.534   3.139
 1725SOL     OW 6929   0.683   3.649   3.014
 1725SOL    HW2 6930   0.755   3.586   3.026
 1725SOL    HW3 6931   0.610   3.611   3.064
 1725SOL    MW4 6932   0.683   3.636   3.022
 1726SOL     OW 6933   0.710   3.905   3.098
 1726SOL    HW2 6934   0.685   3.896   3.190
 1726SOL    HW3 6935   0.705   3.816   3.062
 1726SOL    MW4 6936   0.706   3.892   3.105
 1727SOL     OW 6937   0.467   3.987   2.992
 1727SOL    HW2 6938   0.554   3.954   3.015
 1727SOL    HW3 6939   0.462   3.976   2.897
 1727SOL    MW4 6940   0.478   3.981   2.983
 1728SOL     OW 6941   0.464   4.227   3.109
 1728SOL    HW2 6942   0.472   4.147   3.058
 1728SOL    HW3 6943   0.391   4.275   3.068
 1728SOL    MW4 6944   0.455   4.223   3.097
 1729SOL     OW 6945   0.689   4.357   2.998
 1729SOL    HW2 6946   0.607   4.319   3.030
 1729SOL    HW3 6947   0.676   4.366   2.904
 1729SOL    MW4 6948   0.676   4.353   2.990
 1730SOL     OW 6949   1.109   4.661   3.125
 1730SOL    HW2 6950   1.189   4.705   3.098
 1730SOL    HW3 6951   1.038   4.713   3.086
 1730SOL    MW4 6952   1.110   4.674   3.117
 1731SOL     OW 6953   0.885   0.098   2.999
 1731SOL    HW2 6954   0.872   0.192   3.014
 1731SOL    HW3 6955   0.829   0.055   3.063
 1731SOL    MW4 6956   0.876   0.105   3.009
 1732SOL     OW 6957   0.872   0.350   3.131
 1732SOL    HW2 6958   0.857   0.365   3.224
 1732SOL    HW3 6959   0.950   0.401   3.110
 1732SOL    MW4 6960   0.880   0.358   3.140
 1733SOL     OW 6961   1.097   0.474   3.029
 1733SOL    HW2 6962   1.171   0.416   3.047
 1733SOL    HW3 6963   1.092   0.478   2.933
 1733SOL    MW4 6964   1.106   0.467   3.019
 1734SOL     OW 6965   1.125   0.756   3.099
 1734SOL    HW2 6966   1.125   0.752   3.194
 1734SOL    HW3 6967   1.133   0.665   3.071
 1734SOL    MW4 6968   1.126   0.744   3.108
 1735SOL     OW 6969   0.931   0.900   2.997
 1735SOL    HW2 6970   1.000   0.849   3.038
 1735SOL    HW3 6971   0.850   0.854   3.018
 1735SOL    MW4 6972   0.929   0.888   3.005
 1736SOL     OW 6973   0.933   1.155   3.063
 1736SOL    HW2 6974   1.018   1.192   3.040
 1736SOL    HW3 6975   0.938   1.064   3.033
 1736SOL    MW4 6976   0.945   1.148   3.056
 1737SOL     OW 6977   1.171   1.290   3.011
 1737SOL    HW2 6978   1.252   1.248   3.041
 1737SOL    HW3 6979   1.167   1.269   2.918
 1737SOL    MW4 6980   1.181   1.282   3.003
 1738SOL     OW 6981   1.128   1.566   3.122
 1738SOL    HW2 6982   1.199   1.620   3.087
 1738SOL    HW3 6983   1.149   1.477   3.094
 1738SOL    MW4 6984   1.140   1.561   3.114
 1739SOL     OW 6985   0.923   1.682   2.981
 1739SOL    HW2 6986   0.992   1.644   3.035
 1739SOL    HW3 6987   0.841   1.649   3.020
 1739SOL    MW4 6988   0.921   1.673   2.993
 1740SOL     OW 6989   0.901   1.936   3.086
 1740SOL    HW2 6990   0.886   1.914   3.178
 1740SOL    HW3 6991   0.913   1.851   3.043
 1740SOL    MW4 6992   0.900   1.922   3.092
 1741SOL     OW 6993   1.117   2.107   3.010
 1741SOL    HW2 6994   1.043   2.055   3.043
 1741SOL    HW3 6995   1.108   2.104   2.915
 1741SOL    MW4 6996   1.106   2.100   3.002
 1742SOL     OW 6997   1.139   2.381   3.140
 1742SOL    HW2 6998   1.047   2.409   3.141
 1742SOL    HW3 6999   1.137   2.291   3.109
 1742SOL    MW4 7000   1.127   2.373   3.136
 1743SOL     OW 7001   0.869   2.455   3.052
 1743SOL    HW2 7002   0.791   2.407   3.079
 1743SOL    HW3 7003   0.868   2.451   2.956
 1743SOL    MW4 7004   0.859   2.448   3.043
 1744SOL     OW 7005   0.895   2.729   3.094
 1744SOL    HW2 7006   0.878   2.712   3.187
 1744SOL    HW3 7007   0.903   2.642   3.055
 1744SOL    MW4 7008   0.894   2.715   3.101
 1745SOL     OW 7009   1.126   2.832   2.970
 1745SOL    HW2 7010   1.110   2.915   3.016
 1745SOL    HW3 7011   1.073   2.768   3.017
 1745SOL    MW4 7012   1.117   2.835   2.983
 1746SOL     OW 7013   1.132   3.074   3.096
 1746SOL    HW2 7014   1.184   3.152   3.078
 1746SOL    HW3 7015   1.042   3.100   3.075
 1746SOL    MW4 7016   1.127   3.088   3.091
 1747SOL     OW 7017   0.900   3.229   3.025
 1747SOL    HW2 7018   0.827   3.172   3.049
 1747SOL    HW3 7019   0.914   3.212   2.932
 1747SOL    MW4 7020   0.892   3.219   3.016
 1748SOL     OW 7021   0.885   3.492   3.123
 1748SOL    HW2 7022   0.972   3.527   3.103
 1748SOL    HW3 7023   0.883   3.406   3.081
 1748SOL    MW4 7024   0.896   3.485   3.115
 1749SOL     OW 7025   1.114   3.619   3.026
 1749SOL    HW2 7026   1.192   3.568   3.050
 1749SOL    HW3 7027   1.116   3.695   3.085
 1749SOL    MW4 7028   1.125   3.622   3.037
 1750SOL     OW 7029   1.134   3.842   3.160
 1750SOL    HW2 7030   1.130   3.874   3.250
 1750SOL    HW3 7031   1.072   3.897   3.113
 1750SOL    MW4 7032   1.125   3.854   3.166
 1751SOL     OW 7033   0.960   3.996   3.009
 1751SOL    HW2 7034   0.880   3.961   3.050
 1751SOL    HW3 7035   0.946   3.984   2.915
 1751SOL    MW4 7036   0.948   3.990   3.002
 1752SOL     OW 7037   0.935   4.264   3.105
 1752SOL    HW2 7038   0.952   4.182   3.060
 1752SOL    HW3 7039   0.850   4.293   3.072
 1752SOL    MW4 7040   0.926   4.257   3.095
 1753SOL     OW 7041   1.142   4.412   2.997
 1753SOL    HW2 7042   1.069   4.355   3.022
 1753SOL    HW3 7043   1.128   4.492   3.048
 1753SOL    MW4 7044   1.131   4.415   3.007
 1754SOL     OW 7045   1.580   4.616   3.115
 1754SOL    HW2 7046   1.569   4.633   3.208
 1754SOL    HW3 7047   1.502   4.653   3.074
 1754SOL    MW4 7048   1.568   4.623   3.122
 1755SOL     OW 7049   1.344   0.090   3.014
 1755SOL    HW2 7050   1.345   0.181   3.044
 1755SOL    HW3 7051   1.333   0.097   2.919
 1755SOL    MW4 7052   1.343   0.103   3.005
 1756SOL     OW 7053   1.329   0.357   3.097
 1756SOL    HW2 7054   1.334   0.369   3.191
 1756SOL    HW3 7055   1.417   0.378   3.066
 1756SOL    MW4 7056   1.342   0.361   3.105
 1757SOL     OW 7057   1.574   0.469   3.015
 1757SOL    HW2 7058   1.561   0.559   3.046
 1757SOL    HW3 7059   1.566   0.476   2.919
 1757SOL    MW4 7060   1.571   0.482   3.006
 1758SOL     OW 7061   1.564   0.740   3.058
 1758SOL    HW2 7062   1.565   0.762   3.151
 1758SOL    HW3 7063   1.493   0.794   3.022
 1758SOL    MW4 7064   1.555   0.750   3.066
 1759SOL     OW 7065   1.352   0.886   2.987
 1759SOL    HW2 7066   1.343   0.978   3.013
 1759SOL    HW3 7067   1.279   0.842   3.029
 1759SOL    MW4 7068   1.341   0.893   2.996
 1760SOL     OW 7069   1.389   1.147   3.087
 1760SOL    HW2 7070   1.409   1.159   3.180
 1760SOL    HW3 7071   1.445   1.210   3.042
 1760SOL    MW4 7072   1.399   1.157   3.093
 1761SOL     OW 7073   1.579   1.302   2.973
 1761SOL    HW2 7074   1.642   1.241   3.010
 1761SOL    HW3 7075   1.607   1.388   3.007
 1761SOL    MW4 7076   1.591   1.305   2.983
 1762SOL     OW 7077   1.569   1.563   3.111
 1762SOL    HW2 7078   1.644   1.617   3.085
 1762SOL    HW3 7079   1.492   1.616   3.090
 1762SOL    MW4 7080   1.569   1.577   3.105
 1763SOL     OW 7081   1.345   1.676   2.997
 1763SOL    HW2 7082   1.367   1.769   3.007
 1763SOL    HW3 7083   1.347   1.661   2.903
 1763SOL    MW4 7084   1.348   1.687   2.986
 1764SOL     OW 7085   1.339   1.950   3.054
 1764SOL    HW2 7086   1.332   1.930   3.148
 1764SOL    HW3 7087   1.261   2.002   3.034
 1764SOL    MW4 7088   1.328   1.954   3.064
 1765SOL     OW 7089   1.564   2.104   2.997
 1765SOL    HW2 7090   1.492   2.045   3.021
 1765SOL    HW3 7091   1.581   2.084   2.905
 1765SOL    MW4 7092   1.556   2.093   2.988
 1766SOL     OW 7093   1.563   2.367   3.099
 1766SOL    HW2 7094   1.489   2.418   3.066
 1766SOL    HW3 7095   1.548   2.278   3.067
 1766SOL    MW4 7096   1.551   2.362   3.090
 1767SOL     OW 7097   1.354   2.492   2.978
 1767SOL    HW2 7098   1.277   2.449   3.014
 1767SOL    HW3 7099   1.363   2.456   2.890
 1767SOL    MW4 7100   1.345   2.482   2.971
 1768SOL     OW 7101   1.340   2.719   3.128
 1768SOL    HW2 7102   1.347   2.631   3.090
 1768SOL    HW3 7103   1.262   2.756   3.089
 1768SOL    MW4 7104   1.331   2.712   3.118
 1769SOL     OW 7105   1.550   2.823   3.001
 1769SOL    HW2 7106   1.632   2.792   3.039
 1769SOL    HW3 7107   1.483   2.766   3.037
 1769SOL    MW4 7108   1.552   2.811   3.011
 1770SOL     OW 7109   1.556   3.109   3.061
 1770SOL    HW2 7110   1.552   3.097   3.156
 1770SOL    HW3 7111   1.549   3.021   3.025
 1770SOL    MW4 7112   1.555   3.096   3.069
 1771SOL     OW 7113   1.333   3.262   3.066
 1771SOL    HW2 7114   1.407   3.202   3.077
 1771SOL    HW3 7115   1.338   3.288   2.974
 1771SOL    MW4 7116   1.344   3.258   3.055
 1772SOL     OW 7117   1.364   3.521   3.131
 1772SOL    HW2 7118   1.361   3.547   3.223
 1772SOL    HW3 7119   1.358   3.426   3.133
 1772SOL    MW4 7120   1.363   3.512   3.143
 1773SOL     OW 7121   1.578   3.630   2.992
 1773SOL    HW2 7122   1.504   3.584   3.032
 1773SOL    HW3 7123   1.580   3.599   2.901
 1773SOL    MW4 7124   1.569   3.620   2.985
 1774SOL     OW 7125   1.563   3.878   3.106
 1774SOL    HW2 7126   1.640   3.929   3.082
 1774SOL    HW3 7127   1.575   3.794   3.062
 1774SOL    MW4 7128   1.575   3.873   3.097
 1775SOL     OW 7129   1.329   3.999   3.032
 1775SOL    HW2 7130   1.413   3.979   3.073
 1775SOL    HW3 7131   1.268   3.935   3.068
 1775SOL    MW4 7132   1.332   3.988   3.042
 1776SOL     OW 7133   1.353   4.256   3.105
 1776SOL    HW2 7134   1.325   4.166   3.089
 1776SOL    HW3 7135   1.281   4.310   3.071
 1776SOL    MW4 7136   1.340   4.251   3.099
 1777SOL     OW 7137   1.577   4.361   2.994
 1777SOL    HW2 7138   1.494   4.317   3.014
 1777SOL    HW3 7139   1.570   4.446   3.037
 1777SOL    MW4 7140   1.565   4.366   3.002
 1778SOL     OW 7141   2.045   4.660   3.090
 1778SOL    HW2 7142   2.049   4.649   3.185
 1778SOL    HW3 7143   1.961   4.701   3.073
 1778SOL    MW4 7144   2.035   4.664   3.100
 1779SOL     OW 7145   1.816   0.105   3.003
 1779SOL    HW2 7146   1.738   0.051   3.013
 1779SOL    HW3 7147   1.819   0.126   2.910
 1779SOL    MW4 7148   1.806   0.101   2.992
 1780SOL     OW 7149   1.797   0.370   3.117
 1780SOL    HW2 7150   1.800   0.280   3.085
 1780SOL    HW3 7151   1.722   0.409   3.072
 1780SOL    MW4 7152   1.787   0.363   3.107
 1781SOL     OW 7153   2.016   0.498   3.012
 1781SOL    HW2 7154   1.939   0.445   3.034
 1781SOL    HW3 7155   2.008   0.513   2.918
 1781SOL    MW4 7156   2.005   0.493   3.003
 1782SOL     OW 7157   2.055   0.756   3.075
 1782SOL    HW2 7158   1.970   0.795   3.060
 1782SOL    HW3 7159   2.045   0.664   3.050
 1782SOL    MW4 7160   2.043   0.749   3.070
 1783SOL     OW 7161   1.796   0.869   3.011
 1783SOL    HW2 7162   1.711   0.829   3.030
 1783SOL    HW3 7163   1.811   0.852   2.918
 1783SOL    MW4 7164   1.787   0.861   3.001
 1784SOL     OW 7165   1.756   1.134   3.085
 1784SOL    HW2 7166   1.753   1.136   3.181
 1784SOL    HW3 7167   1.769   1.041   3.063
 1784SOL    MW4 7168   1.757   1.122   3.095
 1785SOL     OW 7169   1.998   1.280   3.011
 1785SOL    HW2 7170   2.075   1.236   3.045
 1785SOL    HW3 7171   1.924   1.227   3.043
 1785SOL    MW4 7172   1.998   1.267   3.020
 1786SOL     OW 7173   2.016   1.570   3.086
 1786SOL    HW2 7174   2.026   1.556   3.180
 1786SOL    HW3 7175   2.003   1.482   3.050
 1786SOL    MW4 7176   2.015   1.557   3.094
 1787SOL     OW 7177   1.782   1.709   3.015
 1787SOL    HW2 7178   1.792   1.802   3.037
 1787SOL    HW3 7179   1.865   1.669   3.043
 1787SOL    MW4 7180   1.794   1.716   3.022
 1788SOL     OW 7181   1.806   1.966   3.069
 1788SOL    HW2 7182   1.890   2.009   3.051
 1788SOL    HW3 7183   1.740   2.030   3.043
 1788SOL    MW4 7184   1.808   1.980   3.064
 1789SOL     OW 7185   2.047   2.081   2.980
 1789SOL    HW2 7186   2.108   2.031   3.034
 1789SOL    HW3 7187   2.049   2.169   3.018
 1789SOL    MW4 7188   2.056   2.086   2.992
 1790SOL     OW 7189   2.017   2.320   3.105
 1790SOL    HW2 7190   2.089   2.369   3.066
 1790SOL    HW3 7191   1.938   2.359   3.069
 1790SOL    MW4 7192   2.016   2.332   3.095
 1791SOL     OW 7193   1.810   2.478   3.017
 1791SOL    HW2 7194   1.818   2.567   3.050
 1791SOL    HW3 7195   1.720   2.453   3.036
 1791SOL    MW4 7196   1.800   2.486   3.024
 1792SOL     OW 7197   1.803   2.741   3.093
 1792SOL    HW2 7198   1.800   2.744   3.189
 1792SOL    HW3 7199   1.887   2.780   3.070
 1792SOL    MW4 7200   1.814   2.746   3.103
 1793SOL     OW 7201   2.044   2.856   3.026
 1793SOL    HW2 7202   2.043   2.945   3.061
 1793SOL    HW3 7203   2.047   2.867   2.931
 1793SOL    MW4 7204   2.044   2.869   3.018
 1794SOL     OW 7205   1.997   3.116   3.121
 1794SOL    HW2 7206   1.990   3.133   3.215
 1794SOL    HW3 7207   1.912   3.142   3.086
 1794SOL    MW4 7208   1.984   3.121   3.129
 1795SOL     OW 7209   1.783   3.278   3.028
 1795SOL    HW2 7210   1.708   3.231   3.063
 1795SOL    HW3 7211   1.775   3.270   2.933
 1795SOL    MW4 7212   1.772   3.270   3.020
 1796SOL     OW 7213   1.793   3.528   3.124
 1796SOL    HW2 7214   1.794   3.441   3.085
 1796SOL    HW3 7215   1.728   3.576   3.073
 1796SOL    MW4 7216   1.785   3.523   3.112
 1797SOL     OW 7217   2.036   3.586   3.005
 1797SOL    HW2 7218   2.043   3.681   3.020
 1797SOL    HW3 7219   1.959   3.560   3.055
 1797SOL    MW4 7220   2.027   3.595   3.014
 1798SOL     OW 7221   2.032   3.836   3.092
 1798SOL    HW2 7222   2.051   3.856   3.184
 1798SOL    HW3 7223   1.955   3.888   3.071
 1798SOL    MW4 7224   2.024   3.845   3.102
 1799SOL     OW 7225   1.818   3.966   3.028
 1799SOL    HW2 7226   1.809   4.057   3.055
 1799SOL    HW3 7227   1.809   3.968   2.933
 1799SOL    MW4 7228   1.816   3.978   3.019
 1800SOL     OW 7229   1.818   4.233   3.088
 1800SOL    HW2 7230   1.886   4.295   3.062
 1800SOL    HW3 7231   1.736   4.276   3.062
 1800SOL    MW4 7232   1.816   4.247   3.081
 1801SOL     OW 7233   2.014   4.402   3.007
 1801SOL    HW2 7234   2.031   4.496   3.018
 1801SOL    HW3 7235   2.027   4.387   2.913
 1801SOL    MW4 7236   2.018   4.413   2.996
 1802SOL     OW 7237   2.488   4.653   3.145
 1802SOL    HW2 7238   2.498   4.573   3.093
 1802SOL    HW3 7239   2.430   4.708   3.093
 1802SOL    MW4 7240   2.482   4.650   3.131
 1803SOL     OW 7241   2.280   0.124   3.029
 1803SOL    HW2 7242   2.279   0.213   3.063
 1803SOL    HW3 7243   2.198   0.086   3.059
 1803SOL    MW4 7244   2.269   0.131   3.037
 1804SOL     OW 7245   2.259   0.381   3.136
 1804SOL    HW2 7246   2.256   0.380   3.232
 1804SOL    HW3 7247   2.172   0.412   3.110
 1804SOL    MW4 7248   2.247   0.385   3.146
 1805SOL     OW 7249   2.474   0.527   3.037
 1805SOL    HW2 7250   2.405   0.478   3.082
 1805SOL    HW3 7251   2.459   0.510   2.944
 1805SOL    MW4 7252   2.463   0.518   3.031
 1806SOL     OW 7253   2.526   0.786   3.153
 1806SOL    HW2 7254   2.586   0.828   3.092
 1806SOL    HW3 7255   2.519   0.696   3.121
 1806SOL    MW4 7256   2.533   0.779   3.141
 1807SOL     OW 7257   2.289   0.869   2.990
 1807SOL    HW2 7258   2.355   0.828   3.047
 1807SOL    HW3 7259   2.206   0.833   3.020
 1807SOL    MW4 7260   2.287   0.859   3.001
 1808SOL     OW 7261   2.239   1.164   3.073
 1808SOL    HW2 7262   2.257   1.163   3.167
 1808SOL    HW3 7263   2.256   1.075   3.044
 1808SOL    MW4 7264   2.244   1.152   3.082
 1809SOL     OW 7265   2.466   1.293   2.982
 1809SOL    HW2 7266   2.375   1.271   3.001
 1809SOL    HW3 7267   2.470   1.298   2.887
 1809SOL    MW4 7268   2.455   1.290   2.972
 1810SOL     OW 7269   2.465   1.555   3.113
 1810SOL    HW2 7270   2.388   1.587   3.066
 1810SOL    HW3 7271   2.475   1.464   3.084
 1810SOL    MW4 7272   2.456   1.547   3.103
 1811SOL     OW 7273   2.259   1.698   2.989
 1811SOL    HW2 7274   2.189   1.641   3.020
 1811SOL    HW3 7275   2.243   1.707   2.895
 1811SOL    MW4 7276   2.247   1.691   2.981
 1812SOL     OW 7277   2.234   1.943   3.132
 1812SOL    HW2 7278   2.308   1.995   3.101
 1812SOL    HW3 7279   2.249   1.856   3.097
 1812SOL    MW4 7280   2.246   1.938   3.124
 1813SOL     OW 7281   2.474   2.041   3.044
 1813SOL    HW2 7282   2.547   1.992   3.082
 1813SOL    HW3 7283   2.492   2.042   2.950
 1813SOL    MW4 7284   2.486   2.035   3.037
 1814SOL     OW 7285   2.479   2.316   3.079
 1814SOL    HW2 7286   2.482   2.324   3.175
 1814SOL    HW3 7287   2.493   2.223   3.063
 1814SOL    MW4 7288   2.481   2.305   3.090
 1815SOL     OW 7289   2.227   2.476   3.027
 1815SOL    HW2 7290   2.232   2.560   3.072
 1815SOL    HW3 7291   2.315   2.439   3.034
 1815SOL    MW4 7292   2.239   2.482   3.034
 1816SOL     OW 7293   2.248   2.732   3.158
 1816SOL    HW2 7294   2.332   2.750   3.115
 1816SOL    HW3 7295   2.183   2.777   3.104
 1816SOL    MW4 7296   2.251   2.740   3.145
 1817SOL     OW 7297   2.473   2.815   3.013
 1817SOL    HW2 7298   2.451   2.905   3.040
 1817SOL    HW3 7299   2.465   2.817   2.918
 1817SOL    MW4 7300   2.469   2.827   3.004
 1818SOL     OW 7301   2.420   3.063   3.095
 1818SOL    HW2 7302   2.490   3.120   3.064
 1818SOL    HW3 7303   2.339   3.102   3.061
 1818SOL    MW4 7304   2.418   3.075   3.086
 1819SOL     OW 7305   2.218   3.236   3.015
 1819SOL    HW2 7306   2.249   3.322   3.043
 1819SOL    HW3 7307   2.131   3.229   3.054
 1819SOL    MW4 7308   2.211   3.247   3.024
 1820SOL     OW 7309   2.278   3.494   3.088
 1820SOL    HW2 7310   2.344   3.556   3.057
 1820SOL    HW3 7311   2.195   3.537   3.071
 1820SOL    MW4 7312   2.276   3.508   3.082
 1821SOL     OW 7313   2.486   3.647   2.996
 1821SOL    HW2 7314   2.563   3.599   3.026
 1821SOL    HW3 7315   2.474   3.716   3.062
 1821SOL    MW4 7316   2.494   3.650   3.009
 1822SOL     OW 7317   2.440   3.892   3.126
 1822SOL    HW2 7318   2.473   3.888   3.216
 1822SOL    HW3 7319   2.518   3.909   3.073
 1822SOL    MW4 7320   2.455   3.894   3.131
 1823SOL     OW 7321   2.233   4.023   3.036
 1823SOL    HW2 7322   2.312   3.985   3.075
 1823SOL    HW3 7323   2.162   3.966   3.066
 1823SOL    MW4 7324   2.234   4.011   3.045
 1824SOL     OW 7325   2.271   4.282   3.085
 1824SOL    HW2 7326   2.263   4.193   3.053
 1824SOL    HW3 7327   2.184   4.321   3.069
 1824SOL    MW4 7328   2.258   4.276   3.079
 1825SOL     OW 7329   2.504   4.408   2.972
 1825SOL    HW2 7330   2.416   4.378   2.996
 1825SOL    HW3 7331   2.498   4.428   2.879
 1825SOL    MW4 7332   2.492   4.407   2.963
 1826SOL     OW 7333   2.930   4.666   3.152
 1826SOL    HW2 7334   3.011   4.696   3.113
 1826SOL    HW3 7335   2.917   4.577   3.119
 1826SOL    MW4 7336   2.939   4.658   3.143
 1827SOL     OW 7337   2.730   0.139   3.025
 1827SOL    HW2 7338   2.815   0.104   3.050
 1827SOL    HW3 7339   2.666   0.081   3.067
 1827SOL    MW4 7340   2.733   0.127   3.034
 1828SOL     OW 7341   2.709   0.393   3.112
 1828SOL    HW2 7342   2.712   0.306   3.072
 1828SOL    HW3 7343   2.620   0.424   3.094
 1828SOL    MW4 7344   2.697   0.386   3.104
 1829SOL     OW 7345   2.913   0.559   3.019
 1829SOL    HW2 7346   2.846   0.496   3.044
 1829SOL    HW3 7347   2.910   0.561   2.923
 1829SOL    MW4 7348   2.904   0.551   3.010
 1830SOL     OW 7349   2.938   0.816   3.127
 1830SOL    HW2 7350   2.932   0.810   3.222
 1830SOL    HW3 7351   2.918   0.727   3.096
 1830SOL    MW4 7352   2.934   0.803   3.135
 1831SOL     OW 7353   2.703   0.922   2.985
 1831SOL    HW2 7354   2.690   1.011   3.019
 1831SOL    HW3 7355   2.794   0.900   3.009
 1831SOL    MW4 7356   2.714   0.931   2.993
 1832SOL     OW 7357   2.675   1.170   3.102
 1832SOL    HW2 7358   2.756   1.208   3.068
 1832SOL    HW3 7359   2.606   1.217   3.055
 1832SOL    MW4 7360   2.677   1.181   3.091
 1833SOL     OW 7361   2.895   1.286   2.990
 1833SOL    HW2 7362   2.967   1.260   3.048
 1833SOL    HW3 7363   2.870   1.373   3.019
 1833SOL    MW4 7364   2.901   1.294   3.001
 1834SOL     OW 7365   2.873   1.544   3.084
 1834SOL    HW2 7366   2.875   1.518   3.177
 1834SOL    HW3 7367   2.961   1.577   3.066
 1834SOL    MW4 7368   2.884   1.545   3.094
 1835SOL     OW 7369   2.648   1.691   2.990
 1835SOL    HW2 7370   2.724   1.638   3.016
 1835SOL    HW3 7371   2.575   1.656   3.041
 1835SOL    MW4 7372   2.649   1.680   3.000
 1836SOL     OW 7373   2.694   1.906   3.153
 1836SOL    HW2 7374   2.777   1.937   3.117
 1836SOL    HW3 7375   2.669   1.832   3.097
 1836SOL    MW4 7376   2.702   1.900   3.141
 1837SOL     OW 7377   2.923   2.009   3.003
 1837SOL    HW2 7378   2.933   2.099   3.035
 1837SOL    HW3 7379   2.929   2.017   2.908
 1837SOL    MW4 7380   2.925   2.022   2.995
 1838SOL     OW 7381   2.956   2.274   3.119
 1838SOL    HW2 7382   3.029   2.328   3.088
 1838SOL    HW3 7383   2.878   2.312   3.077
 1838SOL    MW4 7384   2.955   2.287   3.109
 1839SOL     OW 7385   2.741   2.431   3.013
 1839SOL    HW2 7386   2.744   2.521   3.044
 1839SOL    HW3 7387   2.655   2.399   3.041
 1839SOL    MW4 7388   2.730   2.439   3.021
 1840SOL     OW 7389   2.703   2.684   3.136
 1840SOL    HW2 7390   2.703   2.659   3.229
 1840SOL    HW3 7391   2.615   2.718   3.121
 1840SOL    MW4 7392   2.691   2.685   3.146
 1841SOL     OW 7393   2.920   2.825   3.005
 1841SOL    HW2 7394   3.008   2.789   3.017
 1841SOL    HW3 7395   2.863   2.768   3.056
 1841SOL    MW4 7396   2.924   2.813   3.013
 1842SOL     OW 7397   2.880   3.086   3.126
 1842SOL    HW2 7398   2.801   3.123   3.087
 1842SOL    HW3 7399   2.884   2.997   3.090
 1842SOL    MW4 7400   2.871   3.079   3.116
 1843SOL     OW 7401   2.654   3.192   3.020
 1843SOL    HW2 7402   2.665   3.286   3.032
 1843SOL    HW3 7403   2.657   3.180   2.925
 1843SOL    MW4 7404   2.656   3.203   3.009
 1844SOL     OW 7405   2.690   3.457   3.081
 1844SOL    HW2 7406   2.690   3.469   3.176
 1844SOL    HW3 7407   2.768   3.505   3.052
 1844SOL    MW4 7408   2.700   3.465   3.090
 1845SOL     OW 7409   2.920   3.606   3.000
 1845SOL    HW2 7410   2.960   3.546   3.062
 1845SOL    HW3 7411   2.921   3.691   3.044
 1845SOL    MW4 7412   2.925   3.610   3.014
 1846SOL     OW 7413   2.907   3.855   3.105
 1846SOL    HW2 7414   2.896   3.874   3.198
 1846SOL    HW3 7415   2.826   3.885   3.065
 1846SOL    MW4 7416   2.895   3.861   3.112
 1847SOL     OW 7417   2.676   3.971   3.008
 1847SOL    HW2 7418   2.682   4.055   3.054
 1847SOL    HW3 7419   2.672   3.994   2.915
 1847SOL    MW4 7420   2.676   3.986   3.002
 1848SOL     OW 7421   2.669   4.212   3.135
 1848SOL    HW2 7422   2.675   4.218   3.230
 1848SOL    HW3 7423   2.594   4.267   3.112
 1848SOL    MW4 7424   2.660   4.220   3.144
 1849SOL     OW 7425   2.891   4.403   3.046
 1849SOL    HW2 7426   2.971   4.361   3.078
 1849SOL    HW3 7427   2.821   4.350   3.084
 1849SOL    MW4 7428   2.892   4.390   3.056
 1850SOL     OW 7429   3.377   4.662   3.114
 1850SOL    HW2 7430   3.464   4.679   3.079
 1850SOL    HW3 7431   3.349   4.581   3.071
 1850SOL    MW4 7432   3.385   4.654   3.104
 1851SOL     OW 7433   3.154   0.122   3.024
 1851SOL    HW2 7434   3.144   0.212   3.056
 1851SOL    HW3 7435   3.243   0.097   3.051
 1851SOL    MW4 7436   3.164   0.131   3.032
 1852SOL     OW 7437   3.128   0.393   3.082
 1852SOL    HW2 7438   3.202   0.444   3.050
 1852SOL    HW3 7439   3.052   0.450   3.068
 1852SOL    MW4 7440   3.128   0.407   3.076
 1853SOL     OW 7441   3.355   0.530   2.986
 1853SOL    HW2 7442   3.433   0.487   3.021
 1853SOL    HW3 7443   3.362   0.519   2.891
 1853SOL    MW4 7444   3.366   0.523   2.978
 1854SOL     OW 7445   3.399   0.785   3.078
 1854SOL    HW2 7446   3.391   0.772   3.173
 1854SOL    HW3 7447   3.367   0.703   3.040
 1854SOL    MW4 7448   3.394   0.772   3.085
 1855SOL     OW 7449   3.168   0.940   3.010
 1855SOL    HW2 7450   3.252   0.902   3.036
 1855SOL    HW3 7451   3.102   0.884   3.051
 1855SOL    MW4 7452   3.171   0.928   3.019
 1856SOL     OW 7453   3.129   1.197   3.100
 1856SOL    HW2 7454   3.217   1.232   3.085
 1856SOL    HW3 7455   3.131   1.110   3.059
 1856SOL    MW4 7456   3.141   1.190   3.093
 1857SOL     OW 7457   3.380   1.272   2.982
 1857SOL    HW2 7458   3.457   1.234   3.025
 1857SOL    HW3 7459   3.377   1.362   3.014
 1857SOL    MW4 7460   3.390   1.278   2.992
 1858SOL     OW 7461   3.382   1.522   3.110
 1858SOL    HW2 7462   3.383   1.546   3.202
 1858SOL    HW3 7463   3.459   1.563   3.073
 1858SOL    MW4 7464   3.392   1.530   3.117
 1859SOL     OW 7465   3.129   1.624   3.006
 1859SOL    HW2 7466   3.211   1.585   3.037
 1859SOL    HW3 7467   3.131   1.613   2.911
 1859SOL    MW4 7468   3.140   1.618   2.998
 1860SOL     OW 7469   3.140   1.882   3.105
 1860SOL    HW2 7470   3.144   1.791   3.076
 1860SOL    HW3 7471   3.066   1.919   3.056
 1860SOL    MW4 7472   3.131   1.875   3.095
 1861SOL     OW 7473   3.344   2.035   2.987
 1861SOL    HW2 7474   3.427   2.007   3.024
 1861SOL    HW3 7475   3.280   1.971   3.018
 1861SOL    MW4 7476   3.346   2.023   2.996
 1862SOL     OW 7477   3.360   2.307   3.110
 1862SOL    HW2 7478   3.378   2.308   3.204
 1862SOL    HW3 7479   3.346   2.215   3.089
 1862SOL    MW4 7480   3.360   2.295   3.120
 1863SOL     OW 7481   3.158   2.424   2.992
 1863SOL    HW2 7482   3.248   2.395   3.010
 1863SOL    HW3 7483   3.144   2.405   2.900
 1863SOL    MW4 7484   3.168   2.417   2.982
 1864SOL     OW 7485   3.151   2.700   3.055
 1864SOL    HW2 7486   3.145   2.728   3.147
 1864SOL    HW3 7487   3.170   2.606   3.060
 1864SOL    MW4 7488   3.152   2.691   3.068
 1865SOL     OW 7489   3.410   2.799   3.020
 1865SOL    HW2 7490   3.408   2.877   3.076
 1865SOL    HW3 7491   3.323   2.761   3.031
 1865SOL    MW4 7492   3.398   2.805   3.029
 1866SOL     OW 7493   3.374   3.059   3.145
 1866SOL    HW2 7494   3.363   3.060   3.240
 1866SOL    HW3 7495   3.295   3.101   3.111
 1866SOL    MW4 7496   3.362   3.064   3.153
 1867SOL     OW 7497   3.125   3.183   3.056
 1867SOL    HW2 7498   3.043   3.156   3.098
 1867SOL    HW3 7499   3.105   3.186   2.963
 1867SOL    MW4 7500   3.111   3.180   3.049
 1868SOL     OW 7501   3.125   3.464   3.146
 1868SOL    HW2 7502   3.185   3.526   3.103
 1868SOL    HW3 7503   3.124   3.388   3.088
 1868SOL    MW4 7504   3.133   3.462   3.133
 1869SOL     OW 7505   3.310   3.610   2.981
 1869SOL    HW2 7506   3.385   3.557   3.009
 1869SOL    HW3 7507   3.333   3.699   3.008
 1869SOL    MW4 7508   3.323   3.615   2.988
 1870SOL     OW 7509   3.347   3.856   3.089
 1870SOL    HW2 7510   3.358   3.835   3.182
 1870SOL    HW3 7511   3.262   3.900   3.084
 1870SOL    MW4 7512   3.337   3.859   3.101
 1871SOL     OW 7513   3.118   4.017   3.029
 1871SOL    HW2 7514   3.051   3.950   3.042
 1871SOL    HW3 7515   3.133   4.018   2.934
 1871SOL    MW4 7516   3.111   4.008   3.018
 1872SOL     OW 7517   3.123   4.267   3.137
 1872SOL    HW2 7518   3.117   4.262   3.233
 1872SOL    HW3 7519   3.096   4.181   3.107
 1872SOL    MW4 7520   3.119   4.255   3.146
 1873SOL     OW 7521   3.322   4.407   3.006
 1873SOL    HW2 7522   3.398   4.358   3.037
 1873SOL    HW3 7523   3.249   4.374   3.058
 1873SOL    MW4 7524   3.323   4.396   3.017
 1874SOL     OW 7525   3.803   4.605   3.109
 1874SOL    HW2 7526   3.788   4.514   3.081
 1874SOL    HW3 7527   3.728   4.653   3.073
 1874SOL    MW4 7528   3.791   4.599   3.100
 1875SOL     OW 7529   3.616   0.119   3.020
 1875SOL    HW2 7530   3.597   0.210   3.044
 1875SOL    HW3 7531   3.611   0.117   2.925
 1875SOL    MW4 7532   3.613   0.131   3.011
 1876SOL     OW 7533   3.589   0.391   3.072
 1876SOL    HW2 7534   3.611   0.381   3.164
 1876SOL    HW3 7535   3.659   0.445   3.036
 1876SOL    MW4 7536   3.601   0.397   3.079
 1877SOL     OW 7537   3.821   0.527   2.967
 1877SOL    HW2 7538   3.893   0.473   3.001
 1877SOL    HW3 7539   3.836   0.614   3.005
 1877SOL    MW4 7540   3.833   0.531   2.976
 1878SOL     OW 7541   3.858   0.779   3.088
 1878SOL    HW2 7542   3.859   0.796   3.182
 1878SOL    HW3 7543   3.932   0.829   3.054
 1878SOL    MW4 7544   3.868   0.788   3.096
 1879SOL     OW 7545   3.626   0.891   2.973
 1879SOL    HW2 7546   3.695   0.857   3.030
 1879SOL    HW3 7547   3.548   0.843   2.999
 1879SOL    MW4 7548   3.625   0.880   2.984
 1880SOL     OW 7549   3.607   1.140   3.101
 1880SOL    HW2 7550   3.678   1.199   3.075
 1880SOL    HW3 7551   3.627   1.057   3.057
 1880SOL    MW4 7552   3.619   1.137   3.091
 1881SOL     OW 7553   3.828   1.310   3.004
 1881SOL    HW2 7554   3.815   1.395   3.046
 1881SOL    HW3 7555   3.833   1.331   2.910
 1881SOL    MW4 7556   3.827   1.324   2.997
 1882SOL     OW 7557   3.805   1.564   3.116
 1882SOL    HW2 7558   3.806   1.556   3.211
 1882SOL    HW3 7559   3.725   1.612   3.096
 1882SOL    MW4 7560   3.795   1.569   3.126
 1883SOL     OW 7561   3.584   1.680   2.991
 1883SOL    HW2 7562   3.590   1.768   3.028
 1883SOL    HW3 7563   3.599   1.692   2.898
 1883SOL    MW4 7564   3.587   1.693   2.984
 1884SOL     OW 7565   3.577   1.947   3.077
 1884SOL    HW2 7566   3.596   1.933   3.170
 1884SOL    HW3 7567   3.660   1.976   3.040
 1884SOL    MW4 7568   3.590   1.949   3.085
 1885SOL     OW 7569   3.804   2.047   2.981
 1885SOL    HW2 7570   3.818   2.139   3.005
 1885SOL    HW3 7571   3.812   2.045   2.886
 1885SOL    MW4 7572   3.807   2.059   2.972
 1886SOL     OW 7573   3.805   2.298   3.091
 1886SOL    HW2 7574   3.778   2.303   3.183
 1886SOL    HW3 7575   3.736   2.347   3.044
 1886SOL    MW4 7576   3.792   2.305   3.097
 1887SOL     OW 7577   3.593   2.414   2.963
 1887SOL    HW2 7578   3.600   2.498   3.008
 1887SOL    HW3 7579   3.532   2.363   3.017
 1887SOL    MW4 7580   3.586   2.419   2.976
 1888SOL     OW 7581   3.632   2.634   3.102
 1888SOL    HW2 7582   3.707   2.675   3.059
 1888SOL    HW3 7583   3.560   2.694   3.086
 1888SOL    MW4 7584   3.632   2.647   3.094
 1889SOL     OW 7585   3.845   2.788   3.015
 1889SOL    HW2 7586   3.845   2.879   3.042
 1889SOL    HW3 7587   3.840   2.791   2.919
 1889SOL    MW4 7588   3.845   2.800   3.006
 1890SOL     OW 7589   3.825   3.056   3.097
 1890SOL    HW2 7590   3.895   3.120   3.091
 1890SOL    HW3 7591   3.747   3.102   3.066
 1890SOL    MW4 7592   3.824   3.070   3.092
 1891SOL     OW 7593   3.591   3.173   3.012
 1891SOL    HW2 7594   3.511   3.143   3.055
 1891SOL    HW3 7595   3.567   3.182   2.920
 1891SOL    MW4 7596   3.577   3.170   3.005
 1892SOL     OW 7597   3.542   3.438   3.065
 1892SOL    HW2 7598   3.627   3.480   3.054
 1892SOL    HW3 7599   3.558   3.345   3.050
 1892SOL    MW4 7600   3.555   3.432   3.062
 1893SOL     OW 7601   3.775   3.600   3.034
 1893SOL    HW2 7602   3.756   3.692   3.052
 1893SOL    HW3 7603   3.799   3.597   2.942
 1893SOL    MW4 7604   3.775   3.612   3.024
 1894SOL     OW 7605   3.760   3.888   3.094
 1894SOL    HW2 7606   3.772   3.895   3.189
 1894SOL    HW3 7607   3.686   3.946   3.075
 1894SOL    MW4 7608   3.751   3.897   3.104
 1895SOL     OW 7609   3.533   4.031   3.018
 1895SOL    HW2 7610   3.467   3.963   3.034
 1895SOL    HW3 7611   3.555   4.022   2.925
 1895SOL    MW4 7612   3.527   4.020   3.008
 1896SOL     OW 7613   3.543   4.287   3.103
 1896SOL    HW2 7614   3.608   4.325   3.044
 1896SOL    HW3 7615   3.542   4.194   3.080
 1896SOL    MW4 7616   3.552   4.280   3.092
 1897SOL     OW 7617   3.765   4.376   2.963
 1897SOL    HW2 7618   3.847   4.343   2.998
 1897SOL    HW3 7619   3.781   4.386   2.869
 1897SOL    MW4 7620   3.778   4.373   2.955
 1898SOL     OW 7621   4.253   4.637   3.079
 1898SOL    HW2 7622   4.260   4.623   3.174
 1898SOL    HW3 7623   4.242   4.549   3.043
 1898SOL    MW4 7624   4.253   4.624   3.087
 1899SOL     OW 7625   4.029   0.100   3.024
 1899SOL    HW2 7626   4.113   0.060   3.047
 1899SOL    HW3 7627   3.964   0.052   3.074
 1899SOL    MW4 7628   4.032   0.088   3.033
 1900SOL     OW 7629   4.012   0.367   3.074
 1900SOL    HW2 7630   4.101   0.401   3.064
 1900SOL    HW3 7631   4.017   0.277   3.042
 1900SOL    MW4 7632   4.024   0.360   3.068
 1901SOL     OW 7633   4.278   0.472   2.994
 1901SOL    HW2 7634   4.272   0.565   3.019
 1901SOL    HW3 7635   4.263   0.471   2.900
 1901SOL    MW4 7636   4.275   0.484   2.985
 1902SOL     OW 7637   4.277   0.739   3.060
 1902SOL    HW2 7638   4.206   0.796   3.032
 1902SOL    HW3 7639   4.354   0.795   3.061
 1902SOL    MW4 7640   4.278   0.754   3.056
 1903SOL     OW 7641   4.080   0.936   3.000
 1903SOL    HW2 7642   4.075   1.026   3.032
 1903SOL    HW3 7643   4.078   0.944   2.905
 1903SOL    MW4 7644   4.079   0.949   2.992
 1904SOL     OW 7645   4.051   1.187   3.121
 1904SOL    HW2 7646   4.020   1.183   3.211
 1904SOL    HW3 7647   3.985   1.240   3.075
 1904SOL    MW4 7648   4.038   1.193   3.127
 1905SOL     OW 7649   4.310   1.265   2.998
 1905SOL    HW2 7650   4.229   1.226   3.031
 1905SOL    HW3 7651   4.288   1.297   2.911
 1905SOL    MW4 7652   4.297   1.264   2.991
 1906SOL     OW 7653   4.286   1.529   3.130
 1906SOL    HW2 7654   4.211   1.579   3.099
 1906SOL    HW3 7655   4.280   1.445   3.084
 1906SOL    MW4 7656   4.275   1.524   3.120
 1907SOL     OW 7657   4.068   1.670   3.006
 1907SOL    HW2 7658   4.049   1.754   3.047
 1907SOL    HW3 7659   3.995   1.614   3.031
 1907SOL    MW4 7660   4.056   1.674   3.014
 1908SOL     OW 7661   4.030   1.910   3.135
 1908SOL    HW2 7662   4.113   1.950   3.110
 1908SOL    HW3 7663   3.963   1.963   3.090
 1908SOL    MW4 7664   4.032   1.922   3.125
 1909SOL     OW 7665   4.262   2.058   3.052
 1909SOL    HW2 7666   4.237   2.148   3.075
 1909SOL    HW3 7667   4.262   2.057   2.956
 1909SOL    MW4 7668   4.259   2.070   3.042
 1910SOL     OW 7669   4.263   2.339   3.077
 1910SOL    HW2 7670   4.197   2.370   3.016
 1910SOL    HW3 7671   4.346   2.369   3.041
 1910SOL    MW4 7672   4.265   2.347   3.065
 1911SOL     OW 7673   4.019   2.426   2.965
 1911SOL    HW2 7674   4.024   2.501   3.024
 1911SOL    HW3 7675   3.955   2.368   3.006
 1911SOL    MW4 7676   4.011   2.428   2.978
 1912SOL     OW 7677   4.055   2.653   3.148
 1912SOL    HW2 7678   4.050   2.664   3.242
 1912SOL    HW3 7679   3.975   2.694   3.115
 1912SOL    MW4 7680   4.043   2.660   3.156
 1913SOL     OW 7681   4.244   2.837   3.040
 1913SOL    HW2 7682   4.181   2.768   3.060
 1913SOL    HW3 7683   4.329   2.798   3.060
 1913SOL    MW4 7684   4.247   2.823   3.045
 1914SOL     OW 7685   4.243   3.096   3.105
 1914SOL    HW2 7686   4.165   3.145   3.080
 1914SOL    HW3 7687   4.226   3.006   3.077
 1914SOL    MW4 7688   4.231   3.091   3.098
 1915SOL     OW 7689   4.036   3.224   3.005
 1915SOL    HW2 7690   4.060   3.313   3.032
 1915SOL    HW3 7691   4.045   3.225   2.910
 1915SOL    MW4 7692   4.040   3.236   2.996
 1916SOL     OW 7693   4.032   3.491   3.116
 1916SOL    HW2 7694   4.039   3.485   3.211
 1916SOL    HW3 7695   3.942   3.519   3.099
 1916SOL    MW4 7696   4.021   3.494   3.126
 1917SOL     OW 7697   4.220   3.635   2.965
 1917SOL    HW2 7698   4.234   3.719   3.009
 1917SOL    HW3 7699   4.153   3.591   3.019
 1917SOL    MW4 7700   4.213   3.640   2.978
 1918SOL     OW 7701   4.229   3.917   3.096
 1918SOL    HW2 7702   4.148   3.957   3.065
 1918SOL    HW3 7703   4.297   3.951   3.038
 1918SOL    MW4 7704   4.228   3.926   3.085
 1919SOL     OW 7705   3.977   4.007   2.972
 1919SOL    HW2 7706   3.970   4.097   3.003
 1919SOL    HW3 7707   3.907   3.960   3.018
 1919SOL    MW4 7708   3.967   4.013   2.983
 1920SOL     OW 7709   3.994   4.256   3.073
 1920SOL    HW2 7710   4.000   4.251   3.168
 1920SOL    HW3 7711   4.073   4.302   3.046
 1920SOL    MW4 7712   4.005   4.262   3.082
 1921SOL     OW 7713   4.226   4.392   2.976
 1921SOL    HW2 7714   4.311   4.358   3.005
 1921SOL    HW3 7715   4.236   4.405   2.882
 1921SOL    MW4 7716   4.239   4.389   2.968
 1922SOL     OW 7717   0.217   4.650   3.385
 1922SOL    HW2 7718   0.285   4.699   3.432
 1922SOL    HW3 7719   0.208   4.569   3.435
 1922SOL    MW4 7720   0.225   4.646   3.398
 1923SOL     OW 7721   4.463   0.064   3.485
 1923SOL    HW2 7722   4.468   0.154   3.452
 1923SOL    HW3 7723   4.549   0.026   3.465
 1923SOL    MW4 7724   4.475   0.071   3.478
 1924SOL     OW 7725   4.451   0.313   3.390
 1924SOL    HW2 7726   4.369   0.356   3.414
 1924SOL    HW3 7727   4.519   0.374   3.420
 1924SOL    MW4 7728   4.449   0.327   3.397
 1925SOL     OW 7729   0.167   0.487   3.454
 1925SOL    HW2 7730   0.240   0.429   3.432
 1925SOL    HW3 7731   0.192   0.572   3.419
 1925SOL    MW4 7732   0.180   0.490   3.447
 1926SOL     OW 7733   0.201   0.756   3.359
 1926SOL    HW2 7734   0.278   0.789   3.405
 1926SOL    HW3 7735   0.127   0.796   3.404
 1926SOL    MW4 7736   0.201   0.766   3.371
 1927SOL     OW 7737   4.437   0.875   3.456
 1927SOL    HW2 7738   4.459   0.864   3.548
 1927SOL    HW3 7739   4.436   0.970   3.442
 1927SOL    MW4 7740   4.440   0.886   3.466
 1928SOL     OW 7741   0.006   1.161   3.398
 1928SOL    HW2 7742   0.087   1.205   3.425
 1928SOL    HW3 7743   0.015   1.152   3.303
 1928SOL    MW4 7744   0.018   1.166   3.389
 1929SOL     OW 7745   0.238   1.267   3.470
 1929SOL    HW2 7746   0.306   1.217   3.424
 1929SOL    HW3 7747   0.247   1.356   3.437
 1929SOL    MW4 7748   0.248   1.272   3.459
 1930SOL     OW 7749   0.262   1.550   3.380
 1930SOL    HW2 7750   0.331   1.614   3.396
 1930SOL    HW3 7751   0.251   1.549   3.285
 1930SOL    MW4 7752   0.270   1.558   3.369
 1931SOL     OW 7753   0.048   1.696   3.497
 1931SOL    HW2 7754  -0.021   1.641   3.461
 1931SOL    HW3 7755   0.130   1.655   3.468
 1931SOL    MW4 7756   0.050   1.683   3.489
 1932SOL     OW 7757   4.430   1.922   3.345
 1932SOL    HW2 7758   4.461   1.833   3.364
 1932SOL    HW3 7759   4.459   1.938   3.255
 1932SOL    MW4 7760   4.438   1.912   3.336
 1933SOL     OW 7761   0.212   2.073   3.477
 1933SOL    HW2 7762   0.199   2.075   3.572
 1933SOL    HW3 7763   0.137   2.022   3.444
 1933SOL    MW4 7764   0.200   2.066   3.485
 1934SOL     OW 7765   0.220   2.329   3.369
 1934SOL    HW2 7766   0.143   2.382   3.389
 1934SOL    HW3 7767   0.204   2.246   3.414
 1934SOL    MW4 7768   0.208   2.325   3.377
 1935SOL     OW 7769   4.473   2.445   3.446
 1935SOL    HW2 7770   4.461   2.467   3.538
 1935SOL    HW3 7771   4.393   2.399   3.421
 1935SOL    MW4 7772   4.461   2.442   3.455
 1936SOL     OW 7773   4.474   2.727   3.381
 1936SOL    HW2 7774   4.543   2.762   3.437
 1936SOL    HW3 7775   4.467   2.635   3.405
 1936SOL    MW4 7776   4.482   2.719   3.392
 1937SOL     OW 7777   0.201   2.816   3.531
 1937SOL    HW2 7778   0.277   2.766   3.500
 1937SOL    HW3 7779   0.211   2.902   3.491
 1937SOL    MW4 7780   0.213   2.821   3.522
 1938SOL     OW 7781   0.181   3.078   3.411
 1938SOL    HW2 7782   0.099   3.122   3.432
 1938SOL    HW3 7783   0.199   3.101   3.320
 1938SOL    MW4 7784   0.173   3.087   3.401
 1939SOL     OW 7785   4.452   3.230   3.495
 1939SOL    HW2 7786   4.376   3.194   3.450
 1939SOL    HW3 7787   4.479   3.305   3.442
 1939SOL    MW4 7788   4.446   3.235   3.482
 1940SOL     OW 7789   4.477   3.483   3.366
 1940SOL    HW2 7790   4.399   3.521   3.406
 1940SOL    HW3 7791   4.467   3.500   3.273
 1940SOL    MW4 7792   4.466   3.491   3.359
 1941SOL     OW 7793   0.233   3.637   3.473
 1941SOL    HW2 7794   0.237   3.640   3.568
 1941SOL    HW3 7795   0.157   3.583   3.454
 1941SOL    MW4 7796   0.223   3.630   3.483
 1942SOL     OW 7797   0.220   3.900   3.381
 1942SOL    HW2 7798   0.142   3.929   3.427
 1942SOL    HW3 7799   0.228   3.807   3.404
 1942SOL    MW4 7800   0.211   3.892   3.390
 1943SOL     OW 7801   4.475   4.008   3.476
 1943SOL    HW2 7802   4.482   4.016   3.572
 1943SOL    HW3 7803   4.486   4.097   3.444
 1943SOL    MW4 7804   4.477   4.021   3.485
 1944SOL     OW 7805   4.481   4.280   3.350
 1944SOL    HW2 7806   4.395   4.293   3.390
 1944SOL    HW3 7807   4.543   4.316   3.413
 1944SOL    MW4 7808   4.478   4.286   3.363
 1945SOL     OW 7809   0.198   4.400   3.498
 1945SOL    HW2 7810   0.222   4.376   3.588
 1945SOL    HW3 7811   0.272   4.370   3.445
 1945SOL    MW4 7812   0.211   4.393   3.503
 1946SOL     OW 7813   0.636   4.643   3.389
 1946SOL    HW2 7814   0.718   4.682   3.418
 1946SOL    HW3 7815   0.647   4.633   3.294
 1946SOL    MW4 7816   0.648   4.647   3.380
 1947SOL     OW 7817   0.420   0.135   3.501
 1947SOL    HW2 7818   0.420   0.138   3.597
 1947SOL    HW3 7819   0.503   0.095   3.478
 1947SOL    MW4 7820   0.431   0.130   3.511
 1948SOL     OW 7821   0.406   0.368   3.367
 1948SOL    HW2 7822   0.477   0.428   3.388
 1948SOL    HW3 7823   0.429   0.286   3.412
 1948SOL    MW4 7824   0.418   0.365   3.375
 1949SOL     OW 7825   0.616   0.520   3.451
 1949SOL    HW2 7826   0.611   0.511   3.546
 1949SOL    HW3 7827   0.701   0.485   3.427
 1949SOL    MW4 7828   0.626   0.514   3.460
 1950SOL     OW 7829   0.678   0.787   3.381
 1950SOL    HW2 7830   0.606   0.845   3.406
 1950SOL    HW3 7831   0.648   0.700   3.405
 1950SOL    MW4 7832   0.665   0.783   3.388
 1951SOL     OW 7833   0.443   0.891   3.461
 1951SOL    HW2 7834   0.442   0.893   3.556
 1951SOL    HW3 7835   0.438   0.982   3.435
 1951SOL    MW4 7836   0.443   0.903   3.470
 1952SOL     OW 7837   0.453   1.138   3.357
 1952SOL    HW2 7838   0.518   1.191   3.404
 1952SOL    HW3 7839   0.478   1.146   3.265
 1952SOL    MW4 7840   0.465   1.146   3.351
 1953SOL     OW 7841   0.663   1.274   3.451
 1953SOL    HW2 7842   0.736   1.238   3.401
 1953SOL    HW3 7843   0.672   1.369   3.443
 1953SOL    MW4 7844   0.674   1.282   3.443
 1954SOL     OW 7845   0.676   1.540   3.392
 1954SOL    HW2 7846   0.747   1.582   3.441
 1954SOL    HW3 7847   0.597   1.587   3.420
 1954SOL    MW4 7848   0.675   1.552   3.402
 1955SOL     OW 7849   0.468   1.694   3.487
 1955SOL    HW2 7850   0.456   1.710   3.580
 1955SOL    HW3 7851   0.462   1.781   3.447
 1955SOL    MW4 7852   0.465   1.708   3.494
 1956SOL     OW 7853   0.441   1.942   3.382
 1956SOL    HW2 7854   0.367   1.992   3.416
 1956SOL    HW3 7855   0.447   1.968   3.289
 1956SOL    MW4 7856   0.432   1.952   3.374
 1957SOL     OW 7857   0.679   2.025   3.496
 1957SOL    HW2 7858   0.667   2.029   3.591
 1957SOL    HW3 7859   0.601   1.982   3.463
 1957SOL    MW4 7860   0.667   2.020   3.505
 1958SOL     OW 7861   0.681   2.280   3.371
 1958SOL    HW2 7862   0.742   2.335   3.421
 1958SOL    HW3 7863   0.669   2.202   3.424
 1958SOL    MW4 7864   0.688   2.277   3.384
 1959SOL     OW 7865   0.485   2.456   3.464
 1959SOL    HW2 7866   0.553   2.404   3.421
 1959SOL    HW3 7867   0.403   2.424   3.428
 1959SOL    MW4 7868   0.483   2.445   3.454
 1960SOL     OW 7869   0.439   2.735   3.418
 1960SOL    HW2 7870   0.468   2.644   3.429
 1960SOL    HW3 7871   0.408   2.739   3.327
 1960SOL    MW4 7872   0.439   2.723   3.407
 1961SOL     OW 7873   0.684   2.828   3.503
 1961SOL    HW2 7874   0.728   2.772   3.439
 1961SOL    HW3 7875   0.591   2.810   3.491
 1961SOL    MW4 7876   0.677   2.819   3.493
 1962SOL     OW 7877   0.661   3.098   3.415
 1962SOL    HW2 7878   0.587   3.128   3.468
 1962SOL    HW3 7879   0.672   3.006   3.440
 1962SOL    MW4 7880   0.653   3.090   3.426
 1963SOL     OW 7881   0.405   3.235   3.476
 1963SOL    HW2 7882   0.397   3.243   3.571
 1963SOL    HW3 7883   0.334   3.176   3.450
 1963SOL    MW4 7884   0.395   3.228   3.485
 1964SOL     OW 7885   0.460   3.491   3.405
 1964SOL    HW2 7886   0.441   3.405   3.443
 1964SOL    HW3 7887   0.384   3.544   3.428
 1964SOL    MW4 7888   0.447   3.486   3.413
 1965SOL     OW 7889   0.676   3.648   3.477
 1965SOL    HW2 7890   0.750   3.588   3.466
 1965SOL    HW3 7891   0.599   3.595   3.456
 1965SOL    MW4 7892   0.676   3.633   3.473
 1966SOL     OW 7893   0.660   3.893   3.358
 1966SOL    HW2 7894   0.588   3.941   3.398
 1966SOL    HW3 7895   0.664   3.810   3.406
 1966SOL    MW4 7896   0.651   3.888   3.369
 1967SOL     OW 7897   0.463   4.008   3.494
 1967SOL    HW2 7898   0.443   4.100   3.480
 1967SOL    HW3 7899   0.383   3.961   3.471
 1967SOL    MW4 7900   0.450   4.014   3.489
 1968SOL     OW 7901   0.413   4.256   3.385
 1968SOL    HW2 7902   0.495   4.304   3.394
 1968SOL    HW3 7903   0.406   4.236   3.291
 1968SOL    MW4 7904   0.423   4.259   3.374
 1969SOL     OW 7905   0.658   4.373   3.473
 1969SOL    HW2 7906   0.741   4.336   3.441
 1969SOL    HW3 7907   0.658   4.463   3.440
 1969SOL    MW4 7908   0.669   4.380   3.465
 1970SOL     OW 7909   1.114   0.011   3.412
 1970SOL    HW2 7910   1.196   0.053   3.438
 1970SOL    HW3 7911   1.118   0.007   3.317
 1970SOL    MW4 7912   1.125   0.016   3.403
 1971SOL     OW 7913   0.869   0.119   3.484
 1971SOL    HW2 7914   0.868   0.124   3.579
 1971SOL    HW3 7915   0.955   0.083   3.463
 1971SOL    MW4 7916   0.880   0.115   3.494
 1972SOL     OW 7917   0.858   0.379   3.390
 1972SOL    HW2 7918   0.943   0.412   3.417
 1972SOL    HW3 7919   0.862   0.285   3.405
 1972SOL    MW4 7920   0.870   0.371   3.395
 1973SOL     OW 7921   1.099   0.492   3.480
 1973SOL    HW2 7922   1.103   0.509   3.575
 1973SOL    HW3 7923   1.097   0.579   3.441
 1973SOL    MW4 7924   1.099   0.506   3.488
 1974SOL     OW 7925   1.125   0.778   3.388
 1974SOL    HW2 7926   1.197   0.832   3.421
 1974SOL    HW3 7927   1.047   0.812   3.431
 1974SOL    MW4 7928   1.124   0.789   3.398
 1975SOL     OW 7929   0.897   0.894   3.478
 1975SOL    HW2 7930   0.909   0.976   3.431
 1975SOL    HW3 7931   0.813   0.861   3.447
 1975SOL    MW4 7932   0.887   0.901   3.468
 1976SOL     OW 7933   0.905   1.142   3.342
 1976SOL    HW2 7934   0.972   1.199   3.380
 1976SOL    HW3 7935   0.929   1.134   3.250
 1976SOL    MW4 7936   0.917   1.148   3.335
 1977SOL     OW 7937   1.115   1.254   3.460
 1977SOL    HW2 7938   1.110   1.254   3.556
 1977SOL    HW3 7939   1.110   1.346   3.436
 1977SOL    MW4 7940   1.114   1.266   3.469
 1978SOL     OW 7941   1.110   1.518   3.409
 1978SOL    HW2 7942   1.171   1.581   3.448
 1978SOL    HW3 7943   1.119   1.532   3.315
 1978SOL    MW4 7944   1.119   1.528   3.402
 1979SOL     OW 7945   0.885   1.644   3.530
 1979SOL    HW2 7946   0.893   1.717   3.469
 1979SOL    HW3 7947   0.956   1.585   3.507
 1979SOL    MW4 7948   0.895   1.646   3.519
 1980SOL     OW 7949   0.880   1.875   3.358
 1980SOL    HW2 7950   0.961   1.924   3.374
 1980SOL    HW3 7951   0.812   1.926   3.403
 1980SOL    MW4 7952   0.881   1.888   3.366
 1981SOL     OW 7953   1.100   2.013   3.445
 1981SOL    HW2 7954   1.182   1.977   3.410
 1981SOL    HW3 7955   1.105   2.106   3.426
 1981SOL    MW4 7956   1.112   2.020   3.438
 1982SOL     OW 7957   1.115   2.297   3.396
 1982SOL    HW2 7958   1.176   2.331   3.462
 1982SOL    HW3 7959   1.144   2.336   3.314
 1982SOL    MW4 7960   1.127   2.307   3.394
 1983SOL     OW 7961   0.893   2.433   3.507
 1983SOL    HW2 7962   0.903   2.434   3.602
 1983SOL    HW3 7963   0.973   2.391   3.476
 1983SOL    MW4 7964   0.905   2.428   3.516
 1984SOL     OW 7965   0.892   2.683   3.360
 1984SOL    HW2 7966   0.970   2.716   3.406
 1984SOL    HW3 7967   0.875   2.598   3.399
 1984SOL    MW4 7968   0.900   2.676   3.371
 1985SOL     OW 7969   1.136   2.802   3.456
 1985SOL    HW2 7970   1.130   2.815   3.550
 1985SOL    HW3 7971   1.217   2.752   3.443
 1985SOL    MW4 7972   1.146   2.797   3.467
 1986SOL     OW 7973   1.136   3.087   3.376
 1986SOL    HW2 7974   1.147   2.999   3.410
 1986SOL    HW3 7975   1.125   3.075   3.281
 1986SOL    MW4 7976   1.136   3.074   3.368
 1987SOL     OW 7977   0.903   3.216   3.492
 1987SOL    HW2 7978   0.976   3.174   3.447
 1987SOL    HW3 7979   0.826   3.165   3.466
 1987SOL    MW4 7980   0.902   3.204   3.482
 1988SOL     OW 7981   0.887   3.485   3.405
 1988SOL    HW2 7982   0.888   3.393   3.431
 1988SOL    HW3 7983   0.890   3.483   3.309
 1988SOL    MW4 7984   0.888   3.473   3.396
 1989SOL     OW 7985   1.098   3.643   3.515
 1989SOL    HW2 7986   1.112   3.630   3.609
 1989SOL    HW3 7987   1.020   3.590   3.495
 1989SOL    MW4 7988   1.090   3.634   3.525
 1990SOL     OW 7989   1.133   3.897   3.430
 1990SOL    HW2 7990   1.211   3.942   3.462
 1990SOL    HW3 7991   1.132   3.814   3.478
 1990SOL    MW4 7992   1.143   3.892   3.441
 1991SOL     OW 7993   0.890   4.014   3.478
 1991SOL    HW2 7994   0.971   3.977   3.444
 1991SOL    HW3 7995   0.820   3.964   3.434
 1991SOL    MW4 7996   0.891   4.003   3.467
 1992SOL     OW 7997   0.924   4.286   3.389
 1992SOL    HW2 7998   0.923   4.193   3.411
 1992SOL    HW3 7999   0.932   4.288   3.294
 1992SOL    MW4 8000   0.925   4.274   3.379
 1993SOL     OW 8001   1.129   4.432   3.514
 1993SOL    HW2 8002   1.045   4.400   3.481
 1993SOL    HW3 8003   1.136   4.521   3.481
 1993SOL    MW4 8004   1.119   4.439   3.506
 1994SOL     OW 8005   1.570   0.015   3.390
 1994SOL    HW2 8006   1.571  -0.073   3.427
 1994SOL    HW3 8007   1.496   0.059   3.432
 1994SOL    MW4 8008   1.561   0.009   3.400
 1995SOL     OW 8009   1.343   0.136   3.485
 1995SOL    HW2 8010   1.351   0.142   3.581
 1995SOL    HW3 8011   1.345   0.226   3.455
 1995SOL    MW4 8012   1.345   0.148   3.494
 1996SOL     OW 8013   1.316   0.392   3.356
 1996SOL    HW2 8014   1.390   0.440   3.392
 1996SOL    HW3 8015   1.240   0.430   3.399
 1996SOL    MW4 8016   1.316   0.404   3.366
 1997SOL     OW 8017   1.575   0.502   3.445
 1997SOL    HW2 8018   1.577   0.517   3.540
 1997SOL    HW3 8019   1.658   0.459   3.426
 1997SOL    MW4 8020   1.586   0.499   3.455
 1998SOL     OW 8021   1.597   0.756   3.348
 1998SOL    HW2 8022   1.522   0.800   3.389
 1998SOL    HW3 8023   1.592   0.666   3.379
 1998SOL    MW4 8024   1.587   0.750   3.358
 1999SOL     OW 8025   1.366   0.882   3.467
 1999SOL    HW2 8026   1.356   0.875   3.562
 1999SOL    HW3 8027   1.358   0.976   3.449
 1999SOL    MW4 8028   1.364   0.893   3.477
 2000SOL     OW 8029   1.353   1.145   3.381
 2000SOL    HW2 8030   1.419   1.196   3.427
 2000SOL    HW3 8031   1.271   1.191   3.398
 2000SOL    MW4 8032   1.351   1.158   3.389
 2001SOL     OW 8033   1.571   1.318   3.458
 2001SOL    HW2 8034   1.575   1.291   3.550
 2001SOL    HW3 8035   1.650   1.281   3.419
 2001SOL    MW4 8036   1.582   1.309   3.465
 2002SOL     OW 8037   1.586   1.578   3.377
 2002SOL    HW2 8038   1.583   1.490   3.413
 2002SOL    HW3 8039   1.585   1.565   3.282
 2002SOL    MW4 8040   1.585   1.565   3.369
 2003SOL     OW 8041   1.332   1.682   3.496
 2003SOL    HW2 8042   1.349   1.672   3.589
 2003SOL    HW3 8043   1.407   1.640   3.453
 2003SOL    MW4 8044   1.344   1.675   3.503
 2004SOL     OW 8045   1.343   1.931   3.339
 2004SOL    HW2 8046   1.418   1.978   3.375
 2004SOL    HW3 8047   1.344   1.847   3.384
 2004SOL    MW4 8048   1.353   1.926   3.350
 2005SOL     OW 8049   1.547   2.075   3.472
 2005SOL    HW2 8050   1.622   2.033   3.430
 2005SOL    HW3 8051   1.551   2.166   3.441
 2005SOL    MW4 8052   1.557   2.082   3.462
 2006SOL     OW 8053   1.559   2.345   3.381
 2006SOL    HW2 8054   1.475   2.373   3.417
 2006SOL    HW3 8055   1.554   2.364   3.287
 2006SOL    MW4 8056   1.548   2.351   3.373
 2007SOL     OW 8057   1.345   2.423   3.532
 2007SOL    HW2 8058   1.350   2.422   3.627
 2007SOL    HW3 8059   1.362   2.514   3.508
 2007SOL    MW4 8060   1.348   2.435   3.541
 2008SOL     OW 8061   1.378   2.688   3.416
 2008SOL    HW2 8062   1.444   2.752   3.442
 2008SOL    HW3 8063   1.386   2.682   3.321
 2008SOL    MW4 8064   1.388   2.695   3.407
 2009SOL     OW 8065   1.580   2.888   3.499
 2009SOL    HW2 8066   1.649   2.836   3.457
 2009SOL    HW3 8067   1.574   2.967   3.446
 2009SOL    MW4 8068   1.588   2.892   3.487
 2010SOL     OW 8069   1.559   3.129   3.343
 2010SOL    HW2 8070   1.630   3.175   3.388
 2010SOL    HW3 8071   1.479   3.165   3.380
 2010SOL    MW4 8072   1.558   3.140   3.354
 2011SOL     OW 8073   1.351   3.251   3.498
 2011SOL    HW2 8074   1.357   3.258   3.593
 2011SOL    HW3 8075   1.268   3.206   3.482
 2011SOL    MW4 8076   1.341   3.246   3.508
 2012SOL     OW 8077   1.343   3.538   3.419
 2012SOL    HW2 8078   1.353   3.446   3.442
 2012SOL    HW3 8079   1.252   3.559   3.443
 2012SOL    MW4 8080   1.332   3.529   3.425
 2013SOL     OW 8081   1.574   3.633   3.540
 2013SOL    HW2 8082   1.564   3.624   3.635
 2013SOL    HW3 8083   1.493   3.599   3.504
 2013SOL    MW4 8084   1.562   3.627   3.548
 2014SOL     OW 8085   1.612   3.870   3.428
 2014SOL    HW2 8086   1.599   3.787   3.474
 2014SOL    HW3 8087   1.597   3.850   3.336
 2014SOL    MW4 8088   1.608   3.857   3.422
 2015SOL     OW 8089   1.353   4.023   3.524
 2015SOL    HW2 8090   1.352   4.108   3.478
 2015SOL    HW3 8091   1.435   3.982   3.495
 2015SOL    MW4 8092   1.364   4.029   3.514
 2016SOL     OW 8093   1.357   4.282   3.400
 2016SOL    HW2 8094   1.276   4.327   3.426
 2016SOL    HW3 8095   1.353   4.278   3.304
 2016SOL    MW4 8096   1.346   4.287   3.391
 2017SOL     OW 8097   1.590   4.416   3.455
 2017SOL    HW2 8098   1.657   4.360   3.416
 2017SOL    HW3 8099   1.509   4.366   3.448
 2017SOL    MW4 8100   1.589   4.402   3.449
 2018SOL     OW 8101   2.029   4.636   3.368
 2018SOL    HW2 8102   2.113   4.672   3.398
 2018SOL    HW3 8103   1.963   4.688   3.413
 2018SOL    MW4 8104   2.032   4.647   3.378
 2019SOL     OW 8105   1.813   0.111   3.463
 2019SOL    HW2 8106   1.810   0.079   3.553
 2019SOL    HW3 8107   1.738   0.069   3.421
 2019SOL    MW4 8108   1.803   0.101   3.470
 2020SOL     OW 8109   1.812   0.367   3.402
 2020SOL    HW2 8110   1.804   0.281   3.442
 2020SOL    HW3 8111   1.803   0.350   3.308
 2020SOL    MW4 8112   1.810   0.353   3.395
 2021SOL     OW 8113   2.051   0.490   3.518
 2021SOL    HW2 8114   2.064   0.574   3.474
 2021SOL    HW3 8115   1.964   0.462   3.492
 2021SOL    MW4 8116   2.041   0.497   3.509
 2022SOL     OW 8117   2.063   0.728   3.364
 2022SOL    HW2 8118   2.126   0.789   3.403
 2022SOL    HW3 8119   2.072   0.743   3.269
 2022SOL    MW4 8120   2.073   0.738   3.356
 2023SOL     OW 8121   1.824   0.888   3.438
 2023SOL    HW2 8122   1.908   0.845   3.420
 2023SOL    HW3 8123   1.758   0.829   3.402
 2023SOL    MW4 8124   1.826   0.875   3.431
 2024SOL     OW 8125   1.789   1.146   3.360
 2024SOL    HW2 8126   1.880   1.170   3.380
 2024SOL    HW3 8127   1.779   1.057   3.394
 2024SOL    MW4 8128   1.800   1.138   3.367
 2025SOL     OW 8129   2.023   1.262   3.441
 2025SOL    HW2 8130   2.004   1.258   3.534
 2025SOL    HW3 8131   2.027   1.355   3.420
 2025SOL    MW4 8132   2.021   1.273   3.450
 2026SOL     OW 8133   2.025   1.528   3.357
 2026SOL    HW2 8134   2.099   1.573   3.399
 2026SOL    HW3 8135   1.948   1.576   3.385
 2026SOL    MW4 8136   2.025   1.540   3.366
 2027SOL     OW 8137   1.823   1.696   3.454
 2027SOL    HW2 8138   1.821   1.783   3.414
 2027SOL    HW3 8139   1.738   1.658   3.432
 2027SOL    MW4 8140   1.811   1.702   3.445
 2028SOL     OW 8141   1.777   1.963   3.361
 2028SOL    HW2 8142   1.833   2.028   3.403
 2028SOL    HW3 8143   1.795   1.971   3.268
 2028SOL    MW4 8144   1.786   1.972   3.354
 2029SOL     OW 8145   1.958   2.121   3.516
 2029SOL    HW2 8146   2.026   2.065   3.477
 2029SOL    HW3 8147   1.970   2.206   3.474
 2029SOL    MW4 8148   1.969   2.125   3.506
 2030SOL     OW 8149   2.014   2.347   3.376
 2030SOL    HW2 8150   2.094   2.383   3.415
 2030SOL    HW3 8151   2.036   2.333   3.284
 2030SOL    MW4 8152   2.027   2.350   3.369
 2031SOL     OW 8153   1.774   2.479   3.475
 2031SOL    HW2 8154   1.839   2.420   3.437
 2031SOL    HW3 8155   1.690   2.445   3.445
 2031SOL    MW4 8156   1.772   2.466   3.466
 2032SOL     OW 8157   1.768   2.731   3.378
 2032SOL    HW2 8158   1.849   2.775   3.404
 2032SOL    HW3 8159   1.776   2.643   3.416
 2032SOL    MW4 8160   1.780   2.725   3.386
 2033SOL     OW 8161   1.992   2.877   3.484
 2033SOL    HW2 8162   1.991   2.882   3.580
 2033SOL    HW3 8163   2.003   2.967   3.455
 2033SOL    MW4 8164   1.993   2.889   3.493
 2034SOL     OW 8165   2.013   3.160   3.409
 2034SOL    HW2 8166   2.097   3.177   3.451
 2034SOL    HW3 8167   1.949   3.198   3.469
 2034SOL    MW4 8168   2.016   3.167   3.423
 2035SOL     OW 8169   1.754   3.249   3.486
 2035SOL    HW2 8170   1.738   3.247   3.580
 2035SOL    HW3 8171   1.762   3.342   3.464
 2035SOL    MW4 8172   1.753   3.261   3.495
 2036SOL     OW 8173   1.796   3.519   3.406
 2036SOL    HW2 8174   1.723   3.572   3.438
 2036SOL    HW3 8175   1.792   3.528   3.311
 2036SOL    MW4 8176   1.786   3.527   3.398
 2037SOL     OW 8177   2.062   3.633   3.521
 2037SOL    HW2 8178   2.135   3.574   3.499
 2037SOL    HW3 8179   1.984   3.582   3.501
 2037SOL    MW4 8180   2.061   3.618   3.516
 2038SOL     OW 8181   2.059   3.860   3.366
 2038SOL    HW2 8182   1.987   3.911   3.403
 2038SOL    HW3 8183   2.069   3.785   3.425
 2038SOL    MW4 8184   2.051   3.857   3.378
 2039SOL     OW 8185   1.846   3.999   3.471
 2039SOL    HW2 8186   1.837   4.006   3.566
 2039SOL    HW3 8187   1.771   3.945   3.444
 2039SOL    MW4 8188   1.835   3.993   3.480
 2040SOL     OW 8189   1.801   4.256   3.366
 2040SOL    HW2 8190   1.805   4.169   3.407
 2040SOL    HW3 8191   1.813   4.239   3.272
 2040SOL    MW4 8192   1.803   4.242   3.359
 2041SOL     OW 8193   2.030   4.386   3.477
 2041SOL    HW2 8194   1.959   4.335   3.438
 2041SOL    HW3 8195   2.029   4.469   3.430
 2041SOL    MW4 8196   2.021   4.390   3.466
 2042SOL     OW 8197   2.508   4.661   3.430
 2042SOL    HW2 8198   2.504   4.568   3.451
 2042SOL    HW3 8199   2.507   4.664   3.334
 2042SOL    MW4 8200   2.507   4.649   3.420
 2043SOL     OW 8201   2.248   0.088   3.489
 2043SOL    HW2 8202   2.252   0.180   3.464
 2043SOL    HW3 8203   2.335   0.054   3.470
 2043SOL    MW4 8204   2.260   0.096   3.483
 2044SOL     OW 8205   2.267   0.361   3.413
 2044SOL    HW2 8206   2.347   0.404   3.445
 2044SOL    HW3 8207   2.196   0.407   3.455
 2044SOL    MW4 8208   2.268   0.373   3.423
 2045SOL     OW 8209   2.481   0.505   3.510
 2045SOL    HW2 8210   2.565   0.479   3.472
 2045SOL    HW3 8211   2.481   0.601   3.504
 2045SOL    MW4 8212   2.492   0.515   3.504
 2046SOL     OW 8213   2.519   0.768   3.422
 2046SOL    HW2 8214   2.590   0.825   3.452
 2046SOL    HW3 8215   2.522   0.774   3.327
 2046SOL    MW4 8216   2.529   0.776   3.413
 2047SOL     OW 8217   2.262   0.895   3.500
 2047SOL    HW2 8218   2.271   0.973   3.446
 2047SOL    HW3 8219   2.342   0.845   3.484
 2047SOL    MW4 8220   2.274   0.898   3.491
 2048SOL     OW 8221   2.270   1.154   3.361
 2048SOL    HW2 8222   2.337   1.191   3.419
 2048SOL    HW3 8223   2.189   1.197   3.388
 2048SOL    MW4 8224   2.268   1.165   3.372
 2049SOL     OW 8225   2.461   1.298   3.492
 2049SOL    HW2 8226   2.468   1.298   3.587
 2049SOL    HW3 8227   2.533   1.242   3.463
 2049SOL    MW4 8228   2.472   1.291   3.501
 2050SOL     OW 8229   2.463   1.572   3.414
 2050SOL    HW2 8230   2.469   1.480   3.440
 2050SOL    HW3 8231   2.476   1.571   3.319
 2050SOL    MW4 8232   2.466   1.560   3.405
 2051SOL     OW 8233   2.219   1.688   3.482
 2051SOL    HW2 8234   2.206   1.682   3.577
 2051SOL    HW3 8235   2.311   1.666   3.469
 2051SOL    MW4 8236   2.229   1.684   3.493
 2052SOL     OW 8237   2.138   1.944   3.401
 2052SOL    HW2 8238   2.150   1.858   3.442
 2052SOL    HW3 8239   2.183   1.936   3.317
 2052SOL    MW4 8240   2.146   1.931   3.396
 2053SOL     OW 8241   2.388   2.062   3.470
 2053SOL    HW2 8242   2.378   2.069   3.565
 2053SOL    HW3 8243   2.303   2.031   3.439
 2053SOL    MW4 8244   2.376   2.059   3.478
 2054SOL     OW 8245   2.444   2.319   3.363
 2054SOL    HW2 8246   2.527   2.338   3.408
 2054SOL    HW3 8247   2.421   2.231   3.395
 2054SOL    MW4 8248   2.452   2.310   3.373
 2055SOL     OW 8249   2.241   2.440   3.520
 2055SOL    HW2 8250   2.250   2.534   3.507
 2055SOL    HW3 8251   2.310   2.401   3.467
 2055SOL    MW4 8252   2.251   2.447   3.511
 2056SOL     OW 8253   2.214   2.710   3.466
 2056SOL    HW2 8254   2.135   2.760   3.487
 2056SOL    HW3 8255   2.221   2.717   3.370
 2056SOL    MW4 8256   2.204   2.717   3.456
 2057SOL     OW 8257   2.469   2.811   3.461
 2057SOL    HW2 8258   2.460   2.900   3.427
 2057SOL    HW3 8259   2.379   2.778   3.467
 2057SOL    MW4 8260   2.456   2.818   3.457
 2058SOL     OW 8261   2.479   3.065   3.364
 2058SOL    HW2 8262   2.566   3.104   3.372
 2058SOL    HW3 8263   2.461   3.065   3.270
 2058SOL    MW4 8264   2.488   3.070   3.352
 2059SOL     OW 8265   2.276   3.212   3.501
 2059SOL    HW2 8266   2.296   3.218   3.595
 2059SOL    HW3 8267   2.346   3.158   3.465
 2059SOL    MW4 8268   2.288   3.206   3.509
 2060SOL     OW 8269   2.266   3.467   3.394
 2060SOL    HW2 8270   2.278   3.379   3.429
 2060SOL    HW3 8271   2.257   3.455   3.300
 2060SOL    MW4 8272   2.266   3.454   3.387
 2061SOL     OW 8273   2.490   3.595   3.486
 2061SOL    HW2 8274   2.488   3.681   3.445
 2061SOL    HW3 8275   2.414   3.550   3.451
 2061SOL    MW4 8276   2.480   3.601   3.476
 2062SOL     OW 8277   2.502   3.862   3.387
 2062SOL    HW2 8278   2.576   3.916   3.417
 2062SOL    HW3 8279   2.428   3.893   3.439
 2062SOL    MW4 8280   2.502   3.873   3.398
 2063SOL     OW 8281   2.266   3.997   3.482
 2063SOL    HW2 8282   2.271   4.080   3.433
 2063SOL    HW3 8283   2.182   3.960   3.457
 2063SOL    MW4 8284   2.256   4.003   3.472
 2064SOL     OW 8285   2.244   4.257   3.360
 2064SOL    HW2 8286   2.163   4.305   3.375
 2064SOL    HW3 8287   2.260   4.265   3.265
 2064SOL    MW4 8288   2.236   4.264   3.349
 2065SOL     OW 8289   2.462   4.393   3.471
 2065SOL    HW2 8290   2.460   4.388   3.566
 2065SOL    HW3 8291   2.384   4.346   3.443
 2065SOL    MW4 8292   2.452   4.386   3.480
 2066SOL     OW 8293   2.920   0.026   3.422
 2066SOL    HW2 8294   2.838   0.067   3.448
 2066SOL    HW3 8295   2.914   0.019   3.326
 2066SOL    MW4 8296   2.909   0.031   3.413
 2067SOL     OW 8297   2.707   0.146   3.520
 2067SOL    HW2 8298   2.689   0.231   3.481
 2067SOL    HW3 8299   2.638   0.089   3.488
 2067SOL    MW4 8300   2.696   0.150   3.511
 2068SOL     OW 8301   2.700   0.387   3.387
 2068SOL    HW2 8302   2.776   0.430   3.425
 2068SOL    HW3 8303   2.721   0.377   3.294
 2068SOL    MW4 8304   2.713   0.391   3.380
 2069SOL     OW 8305   2.930   0.477   3.507
 2069SOL    HW2 8306   2.924   0.479   3.602
 2069SOL    HW3 8307   2.928   0.568   3.480
 2069SOL    MW4 8308   2.929   0.489   3.516
 2070SOL     OW 8309   2.919   0.744   3.387
 2070SOL    HW2 8310   3.004   0.771   3.423
 2070SOL    HW3 8311   2.855   0.794   3.437
 2070SOL    MW4 8312   2.922   0.754   3.398
 2071SOL     OW 8313   2.735   0.906   3.523
 2071SOL    HW2 8314   2.720   0.926   3.616
 2071SOL    HW3 8315   2.711   0.987   3.477
 2071SOL    MW4 8316   2.730   0.920   3.529
 2072SOL     OW 8317   2.679   1.156   3.399
 2072SOL    HW2 8318   2.753   1.216   3.403
 2072SOL    HW3 8319   2.664   1.144   3.305
 2072SOL    MW4 8320   2.687   1.162   3.387
 2073SOL     OW 8321   2.936   1.287   3.471
 2073SOL    HW2 8322   2.955   1.293   3.564
 2073SOL    HW3 8323   3.008   1.235   3.435
 2073SOL    MW4 8324   2.948   1.281   3.478
 2074SOL     OW 8325   2.906   1.546   3.367
 2074SOL    HW2 8326   2.843   1.578   3.431
 2074SOL    HW3 8327   2.921   1.455   3.392
 2074SOL    MW4 8328   2.900   1.539   3.379
 2075SOL     OW 8329   2.714   1.672   3.524
 2075SOL    HW2 8330   2.718   1.759   3.485
 2075SOL    HW3 8331   2.638   1.630   3.484
 2075SOL    MW4 8332   2.705   1.678   3.514
 2076SOL     OW 8333   2.651   1.935   3.408
 2076SOL    HW2 8334   2.568   1.979   3.426
 2076SOL    HW3 8335   2.660   1.937   3.313
 2076SOL    MW4 8336   2.641   1.941   3.398
 2077SOL     OW 8337   2.926   2.038   3.480
 2077SOL    HW2 8338   2.925   2.028   3.575
 2077SOL    HW3 8339   2.834   2.030   3.455
 2077SOL    MW4 8340   2.914   2.035   3.489
 2078SOL     OW 8341   2.935   2.306   3.405
 2078SOL    HW2 8342   2.944   2.217   3.438
 2078SOL    HW3 8343   2.940   2.297   3.310
 2078SOL    MW4 8344   2.937   2.293   3.397
 2079SOL     OW 8345   2.674   2.383   3.473
 2079SOL    HW2 8346   2.666   2.373   3.568
 2079SOL    HW3 8347   2.766   2.364   3.455
 2079SOL    MW4 8348   2.685   2.379   3.483
 2080SOL     OW 8349   2.695   2.649   3.412
 2080SOL    HW2 8350   2.698   2.557   3.440
 2080SOL    HW3 8351   2.611   2.681   3.445
 2080SOL    MW4 8352   2.684   2.641   3.420
 2081SOL     OW 8353   2.925   2.802   3.489
 2081SOL    HW2 8354   2.909   2.811   3.583
 2081SOL    HW3 8355   2.851   2.751   3.456
 2081SOL    MW4 8356   2.913   2.796   3.497
 2082SOL     OW 8357   2.913   3.068   3.408
 2082SOL    HW2 8358   2.923   2.979   3.440
 2082SOL    HW3 8359   2.893   3.059   3.315
 2082SOL    MW4 8360   2.912   3.055   3.400
 2083SOL     OW 8361   2.695   3.211   3.479
 2083SOL    HW2 8362   2.667   3.201   3.570
 2083SOL    HW3 8363   2.771   3.153   3.470
 2083SOL    MW4 8364   2.701   3.202   3.489
 2084SOL     OW 8365   2.690   3.473   3.353
 2084SOL    HW2 8366   2.688   3.388   3.396
 2084SOL    HW3 8367   2.617   3.522   3.392
 2084SOL    MW4 8368   2.680   3.468   3.364
 2085SOL     OW 8369   2.922   3.581   3.485
 2085SOL    HW2 8370   2.907   3.670   3.451
 2085SOL    HW3 8371   2.840   3.535   3.470
 2085SOL    MW4 8372   2.909   3.587   3.479
 2086SOL     OW 8373   2.901   3.845   3.378
 2086SOL    HW2 8374   2.983   3.871   3.421
 2086SOL    HW3 8375   2.834   3.899   3.420
 2086SOL    MW4 8376   2.903   3.856   3.389
 2087SOL     OW 8377   2.696   3.987   3.527
 2087SOL    HW2 8378   2.691   3.982   3.623
 2087SOL    HW3 8379   2.695   4.080   3.507
 2087SOL    MW4 8380   2.696   3.998   3.537
 2088SOL     OW 8381   2.709   4.241   3.446
 2088SOL    HW2 8382   2.782   4.296   3.475
 2088SOL    HW3 8383   2.632   4.296   3.457
 2088SOL    MW4 8384   2.709   4.255   3.451
 2089SOL     OW 8385   2.932   4.430   3.497
 2089SOL    HW2 8386   2.920   4.424   3.592
 2089SOL    HW3 8387   2.937   4.524   3.480
 2089SOL    MW4 8388   2.931   4.442   3.508
 2090SOL     OW 8389   3.414   4.643   3.387
 2090SOL    HW2 8390   3.333   4.665   3.432
 2090SOL    HW3 8391   3.393   4.652   3.294
 2090SOL    MW4 8392   3.401   4.647   3.380
 2091SOL     OW 8393   3.179   0.090   3.479
 2091SOL    HW2 8394   3.167   0.174   3.435
 2091SOL    HW3 8395   3.096   0.043   3.463
 2091SOL    MW4 8396   3.166   0.095   3.471
 2092SOL     OW 8397   3.128   0.354   3.373
 2092SOL    HW2 8398   3.063   0.407   3.421
 2092SOL    HW3 8399   3.123   0.387   3.283
 2092SOL    MW4 8400   3.119   0.366   3.368
 2093SOL     OW 8401   3.361   0.475   3.460
 2093SOL    HW2 8402   3.369   0.462   3.555
 2093SOL    HW3 8403   3.272   0.445   3.440
 2093SOL    MW4 8404   3.350   0.469   3.470
 2094SOL     OW 8405   3.348   0.729   3.359
 2094SOL    HW2 8406   3.416   0.785   3.396
 2094SOL    HW3 8407   3.367   0.642   3.393
 2094SOL    MW4 8408   3.359   0.725   3.369
 2095SOL     OW 8409   3.152   0.862   3.501
 2095SOL    HW2 8410   3.159   0.945   3.453
 2095SOL    HW3 8411   3.207   0.802   3.451
 2095SOL    MW4 8412   3.160   0.865   3.488
 2096SOL     OW 8413   3.159   1.161   3.387
 2096SOL    HW2 8414   3.229   1.212   3.428
 2096SOL    HW3 8415   3.171   1.175   3.293
 2096SOL    MW4 8416   3.170   1.170   3.380
 2097SOL     OW 8417   3.370   1.327   3.517
 2097SOL    HW2 8418   3.441   1.274   3.480
 2097SOL    HW3 8419   3.373   1.409   3.467
 2097SOL    MW4 8420   3.380   1.331   3.505
 2098SOL     OW 8421   3.362   1.581   3.368
 2098SOL    HW2 8422   3.441   1.617   3.409
 2098SOL    HW3 8423   3.290   1.613   3.424
 2098SOL    MW4 8424   3.363   1.590   3.381
 2099SOL     OW 8425   3.131   1.653   3.497
 2099SOL    HW2 8426   3.138   1.745   3.471
 2099SOL    HW3 8427   3.062   1.617   3.441
 2099SOL    MW4 8428   3.123   1.660   3.486
 2100SOL     OW 8429   3.177   1.913   3.393
 2100SOL    HW2 8430   3.095   1.950   3.427
 2100SOL    HW3 8431   3.169   1.921   3.298
 2100SOL    MW4 8432   3.165   1.919   3.385
 2101SOL     OW 8433   3.418   2.029   3.458
 2101SOL    HW2 8434   3.403   2.124   3.464
 2101SOL    HW3 8435   3.335   1.994   3.426
 2101SOL    MW4 8436   3.405   2.037   3.454
 2102SOL     OW 8437   3.413   2.313   3.393
 2102SOL    HW2 8438   3.475   2.372   3.437
 2102SOL    HW3 8439   3.329   2.357   3.399
 2102SOL    MW4 8440   3.410   2.326   3.400
 2103SOL     OW 8441   3.177   2.444   3.428
 2103SOL    HW2 8442   3.181   2.531   3.389
 2103SOL    HW3 8443   3.095   2.406   3.393
 2103SOL    MW4 8444   3.167   2.450   3.418
 2104SOL     OW 8445   3.160   2.707   3.345
 2104SOL    HW2 8446   3.236   2.738   3.394
 2104SOL    HW3 8447   3.086   2.729   3.401
 2104SOL    MW4 8448   3.161   2.714   3.359
 2105SOL     OW 8449   3.363   2.800   3.504
 2105SOL    HW2 8450   3.436   2.767   3.451
 2105SOL    HW3 8451   3.365   2.895   3.491
 2105SOL    MW4 8452   3.373   2.808   3.495
 2106SOL     OW 8453   3.370   3.079   3.415
 2106SOL    HW2 8454   3.446   3.128   3.448
 2106SOL    HW3 8455   3.295   3.126   3.450
 2106SOL    MW4 8456   3.370   3.092   3.424
 2107SOL     OW 8457   3.148   3.189   3.540
 2107SOL    HW2 8458   3.150   3.279   3.508
 2107SOL    HW3 8459   3.075   3.148   3.493
 2107SOL    MW4 8460   3.139   3.195   3.529
 2108SOL     OW 8461   3.159   3.459   3.417
 2108SOL    HW2 8462   3.077   3.501   3.441
 2108SOL    HW3 8463   3.154   3.450   3.322
 2108SOL    MW4 8464   3.148   3.464   3.408
 2109SOL     OW 8465   3.398   3.573   3.487
 2109SOL    HW2 8466   3.385   3.661   3.452
 2109SOL    HW3 8467   3.317   3.527   3.466
 2109SOL    MW4 8468   3.385   3.579   3.480
 2110SOL     OW 8469   3.374   3.818   3.355
 2110SOL    HW2 8470   3.435   3.881   3.393
 2110SOL    HW3 8471   3.288   3.846   3.388
 2110SOL    MW4 8472   3.371   3.830   3.365
 2111SOL     OW 8473   3.143   3.932   3.454
 2111SOL    HW2 8474   3.164   3.926   3.547
 2111SOL    HW3 8475   3.139   4.026   3.436
 2111SOL    MW4 8476   3.145   3.943   3.464
 2112SOL     OW 8477   3.104   4.220   3.425
 2112SOL    HW2 8478   3.193   4.255   3.432
 2112SOL    HW3 8479   3.049   4.285   3.468
 2112SOL    MW4 8480   3.108   4.233   3.431
 2113SOL     OW 8481   3.344   4.382   3.453
 2113SOL    HW2 8482   3.344   4.381   3.548
 2113SOL    HW3 8483   3.364   4.472   3.429
 2113SOL    MW4 8484   3.347   4.394   3.462
 2114SOL     OW 8485   3.810   4.616   3.397
 2114SOL    HW2 8486   3.744   4.679   3.424
 2114SOL    HW3 8487   3.791   4.599   3.304
 2114SOL    MW4 8488   3.799   4.622   3.388
 2115SOL     OW 8489   3.628   0.121   3.498
 2115SOL    HW2 8490   3.635   0.208   3.460
 2115SOL    HW3 8491   3.559   0.078   3.447
 2115SOL    MW4 8492   3.620   0.127   3.486
 2116SOL     OW 8493   3.613   0.370   3.383
 2116SOL    HW2 8494   3.673   0.442   3.403
 2116SOL    HW3 8495   3.527   0.402   3.409
 2116SOL    MW4 8496   3.610   0.383   3.389
 2117SOL     OW 8497   3.823   0.536   3.450
 2117SOL    HW2 8498   3.815   0.517   3.543
 2117SOL    HW3 8499   3.889   0.474   3.418
 2117SOL    MW4 8500   3.831   0.526   3.458
 2118SOL     OW 8501   3.821   0.807   3.376
 2118SOL    HW2 8502   3.882   0.854   3.433
 2118SOL    HW3 8503   3.827   0.716   3.405
 2118SOL    MW4 8504   3.830   0.802   3.387
 2119SOL     OW 8505   3.554   0.890   3.462
 2119SOL    HW2 8506   3.568   0.882   3.557
 2119SOL    HW3 8507   3.636   0.859   3.423
 2119SOL    MW4 8508   3.567   0.885   3.470
 2120SOL     OW 8509   3.553   1.178   3.376
 2120SOL    HW2 8510   3.549   1.087   3.405
 2120SOL    HW3 8511   3.571   1.172   3.282
 2120SOL    MW4 8512   3.555   1.166   3.367
 2121SOL     OW 8513   3.790   1.283   3.470
 2121SOL    HW2 8514   3.806   1.284   3.565
 2121SOL    HW3 8515   3.711   1.230   3.460
 2121SOL    MW4 8516   3.782   1.276   3.482
 2122SOL     OW 8517   3.807   1.560   3.389
 2122SOL    HW2 8518   3.891   1.592   3.420
 2122SOL    HW3 8519   3.799   1.472   3.424
 2122SOL    MW4 8520   3.817   1.553   3.398
 2123SOL     OW 8521   3.594   1.673   3.520
 2123SOL    HW2 8522   3.595   1.756   3.472
 2123SOL    HW3 8523   3.669   1.624   3.486
 2123SOL    MW4 8524   3.604   1.677   3.509
 2124SOL     OW 8525   3.632   1.901   3.352
 2124SOL    HW2 8526   3.709   1.940   3.393
 2124SOL    HW3 8527   3.558   1.949   3.388
 2124SOL    MW4 8528   3.632   1.912   3.362
 2125SOL     OW 8529   3.817   2.060   3.493
 2125SOL    HW2 8530   3.806   2.035   3.585
 2125SOL    HW3 8531   3.899   2.018   3.467
 2125SOL    MW4 8532   3.827   2.051   3.502
 2126SOL     OW 8533   3.778   2.312   3.376
 2126SOL    HW2 8534   3.869   2.336   3.392
 2126SOL    HW3 8535   3.771   2.221   3.405
 2126SOL    MW4 8536   3.789   2.303   3.382
 2127SOL     OW 8537   3.619   2.484   3.529
 2127SOL    HW2 8538   3.627   2.559   3.470
 2127SOL    HW3 8539   3.682   2.420   3.494
 2127SOL    MW4 8540   3.629   2.485   3.516
 2128SOL     OW 8541   3.570   2.689   3.361
 2128SOL    HW2 8542   3.640   2.738   3.404
 2128SOL    HW3 8543   3.604   2.671   3.273
 2128SOL    MW4 8544   3.584   2.693   3.355
 2129SOL     OW 8545   3.785   2.822   3.468
 2129SOL    HW2 8546   3.784   2.833   3.563
 2129SOL    HW3 8547   3.801   2.910   3.434
 2129SOL    MW4 8548   3.787   2.835   3.476
 2130SOL     OW 8549   3.784   3.073   3.360
 2130SOL    HW2 8550   3.869   3.107   3.386
 2130SOL    HW3 8551   3.792   3.056   3.266
 2130SOL    MW4 8552   3.796   3.075   3.351
 2131SOL     OW 8553   3.593   3.217   3.496
 2131SOL    HW2 8554   3.598   3.303   3.454
 2131SOL    HW3 8555   3.651   3.161   3.444
 2131SOL    MW4 8556   3.601   3.221   3.484
 2132SOL     OW 8557   3.582   3.441   3.341
 2132SOL    HW2 8558   3.515   3.496   3.382
 2132SOL    HW3 8559   3.565   3.448   3.247
 2132SOL    MW4 8560   3.571   3.449   3.334
 2133SOL     OW 8561   3.777   3.618   3.469
 2133SOL    HW2 8562   3.776   3.632   3.564
 2133SOL    HW3 8563   3.696   3.570   3.451
 2133SOL    MW4 8564   3.766   3.613   3.479
 2134SOL     OW 8565   3.799   3.875   3.367
 2134SOL    HW2 8566   3.725   3.923   3.405
 2134SOL    HW3 8567   3.783   3.784   3.389
 2134SOL    MW4 8568   3.787   3.870   3.375
 2135SOL     OW 8569   3.573   3.998   3.472
 2135SOL    HW2 8570   3.582   4.015   3.566
 2135SOL    HW3 8571   3.565   4.085   3.432
 2135SOL    MW4 8572   3.573   4.012   3.479
 2136SOL     OW 8573   3.567   4.261   3.359
 2136SOL    HW2 8574   3.491   4.309   3.393
 2136SOL    HW3 8575   3.552   4.257   3.265
 2136SOL    MW4 8576   3.555   4.267   3.351
 2137SOL     OW 8577   3.801   4.356   3.498
 2137SOL    HW2 8578   3.725   4.313   3.458
 2137SOL    HW3 8579   3.794   4.447   3.469
 2137SOL    MW4 8580   3.790   4.362   3.489
 2138SOL     OW 8581   4.242   4.622   3.362
 2138SOL    HW2 8582   4.252   4.530   3.387
 2138SOL    HW3 8583   4.324   4.663   3.387
 2138SOL    MW4 8584   4.254   4.615   3.368
 2139SOL     OW 8585   4.046   0.095   3.495
 2139SOL    HW2 8586   4.118   0.042   3.460
 2139SOL    HW3 8587   3.967   0.053   3.461
 2139SOL    MW4 8588   4.045   0.083   3.486
 2140SOL     OW 8589   3.983   0.339   3.370
 2140SOL    HW2 8590   4.013   0.259   3.413
 2140SOL    HW3 8591   3.984   0.318   3.277
 2140SOL    MW4 8592   3.987   0.326   3.364
 2141SOL     OW 8593   4.207   0.476   3.426
 2141SOL    HW2 8594   4.199   0.568   3.399
 2141SOL    HW3 8595   4.128   0.434   3.392
 2141SOL    MW4 8596   4.195   0.483   3.418
 2142SOL     OW 8597   4.212   0.748   3.360
 2142SOL    HW2 8598   4.292   0.794   3.386
 2142SOL    HW3 8599   4.219   0.738   3.266
 2142SOL    MW4 8600   4.223   0.752   3.351
 2143SOL     OW 8601   4.036   0.920   3.508
 2143SOL    HW2 8602   4.053   1.007   3.471
 2143SOL    HW3 8603   4.085   0.860   3.452
 2143SOL    MW4 8604   4.045   0.924   3.496
 2144SOL     OW 8605   4.026   1.188   3.406
 2144SOL    HW2 8606   4.093   1.249   3.439
 2144SOL    HW3 8607   3.943   1.227   3.433
 2144SOL    MW4 8608   4.024   1.201   3.414
 2145SOL     OW 8609   4.255   1.313   3.500
 2145SOL    HW2 8610   4.282   1.402   3.481
 2145SOL    HW3 8611   4.331   1.259   3.475
 2145SOL    MW4 8612   4.269   1.317   3.494
 2146SOL     OW 8613   4.296   1.563   3.413
 2146SOL    HW2 8614   4.210   1.582   3.450
 2146SOL    HW3 8615   4.278   1.544   3.321
 2146SOL    MW4 8616   4.282   1.563   3.405
 2147SOL     OW 8617   4.039   1.636   3.506
 2147SOL    HW2 8618   4.026   1.640   3.601
 2147SOL    HW3 8619   4.044   1.728   3.479
 2147SOL    MW4 8620   4.038   1.649   3.515
 2148SOL     OW 8621   4.022   1.892   3.414
 2148SOL    HW2 8622   4.096   1.950   3.434
 2148SOL    HW3 8623   4.012   1.897   3.319
 2148SOL    MW4 8624   4.031   1.900   3.404
 2149SOL     OW 8625   4.239   2.044   3.498
 2149SOL    HW2 8626   4.246   2.129   3.454
 2149SOL    HW3 8627   4.302   1.988   3.453
 2149SOL    MW4 8628   4.248   2.048   3.486
 2150SOL     OW 8629   4.263   2.289   3.367
 2150SOL    HW2 8630   4.178   2.313   3.404
 2150SOL    HW3 8631   4.251   2.300   3.272
 2150SOL    MW4 8632   4.250   2.293   3.359
 2151SOL     OW 8633   4.031   2.392   3.460
 2151SOL    HW2 8634   4.021   2.388   3.555
 2151SOL    HW3 8635   4.015   2.484   3.438
 2151SOL    MW4 8636   4.028   2.403   3.469
 2152SOL     OW 8637   4.016   2.661   3.423
 2152SOL    HW2 8638   4.092   2.709   3.457
 2152SOL    HW3 8639   3.941   2.715   3.448
 2152SOL    MW4 8640   4.016   2.675   3.430
 2153SOL     OW 8641   4.239   2.819   3.476
 2153SOL    HW2 8642   4.253   2.833   3.569
 2153SOL    HW3 8643   4.323   2.786   3.444
 2153SOL    MW4 8644   4.252   2.816   3.484
 2154SOL     OW 8645   4.232   3.085   3.379
 2154SOL    HW2 8646   4.234   2.990   3.388
 2154SOL    HW3 8647   4.235   3.101   3.285
 2154SOL    MW4 8648   4.233   3.074   3.368
 2155SOL     OW 8649   3.997   3.186   3.484
 2155SOL    HW2 8650   3.994   3.280   3.465
 2155SOL    HW3 8651   4.084   3.159   3.454
 2155SOL    MW4 8652   4.008   3.195   3.477
 2156SOL     OW 8653   4.006   3.448   3.395
 2156SOL    HW2 8654   4.073   3.513   3.417
 2156SOL    HW3 8655   3.923   3.489   3.422
 2156SOL    MW4 8656   4.004   3.462   3.401
 2157SOL     OW 8657   4.235   3.592   3.441
 2157SOL    HW2 8658   4.245   3.598   3.535
 2157SOL    HW3 8659   4.229   3.683   3.411
 2157SOL    MW4 8660   4.236   3.605   3.449
 2158SOL     OW 8661   4.255   3.877   3.374
 2158SOL    HW2 8662   4.334   3.918   3.410
 2158SOL    HW3 8663   4.254   3.904   3.282
 2158SOL    MW4 8664   4.265   3.886   3.366
 2159SOL     OW 8665   4.011   3.998   3.488
 2159SOL    HW2 8666   4.096   3.966   3.457
 2159SOL    HW3 8667   3.948   3.938   3.448
 2159SOL    MW4 8668   4.014   3.986   3.478
 2160SOL     OW 8669   4.015   4.250   3.374
 2160SOL    HW2 8670   4.020   4.157   3.396
 2160SOL    HW3 8671   3.937   4.281   3.421
 2160SOL    MW4 8672   4.005   4.242   3.383
 2161SOL     OW 8673   4.248   4.367   3.474
 2161SOL    HW2 8674   4.238   4.382   3.568
 2161SOL    HW3 8675   4.172   4.314   3.449
 2161SOL    MW4 8676   4.237   4.362   3.483
 2162SOL     OW 8677   0.217   0.006   3.865
 2162SOL    HW2 8678   0.218   0.005   3.961
 2162SOL    HW3 8679   0.126   0.022   3.841
 2162SOL    MW4 8680   0.205   0.008   3.875
 2163SOL     OW 8681   4.468   0.114   3.766
 2163SOL    HW2 8682   4.461   0.207   3.788
 2163SOL    HW3 8683   4.457   0.111   3.671
 2163SOL    MW4 8684   4.465   0.126   3.756
 2164SOL     OW 8685   4.459   0.372   3.831
 2164SOL    HW2 8686   4.388   0.416   3.785
 2164SOL    HW3 8687   4.538   0.416   3.801
 2164SOL    MW4 8688   4.460   0.383   3.821
 2165SOL     OW 8689   0.220   0.479   3.761
 2165SOL    HW2 8690   0.211   0.569   3.793
 2165SOL    HW3 8691   0.194   0.484   3.669
 2165SOL    MW4 8692   0.215   0.492   3.753
 2166SOL     OW 8693   0.199   0.751   3.827
 2166SOL    HW2 8694   0.198   0.757   3.922
 2166SOL    HW3 8695   0.125   0.805   3.799
 2166SOL    MW4 8696   0.189   0.759   3.835
 2167SOL     OW 8697   4.472   0.881   3.728
 2167SOL    HW2 8698   4.390   0.851   3.766
 2167SOL    HW3 8699   4.486   0.968   3.766
 2167SOL    MW4 8700   4.463   0.888   3.738
 2168SOL     OW 8701   0.000   1.139   3.889
 2168SOL    HW2 8702  -0.085   1.179   3.868
 2168SOL    HW3 8703   0.063   1.185   3.833
 2168SOL    MW4 8704  -0.003   1.150   3.879
 2169SOL     OW 8705   0.184   1.282   3.739
 2169SOL    HW2 8706   0.186   1.377   3.750
 2169SOL    HW3 8707   0.205   1.269   3.646
 2169SOL    MW4 8708   0.187   1.292   3.728
 2170SOL     OW 8709   0.246   1.540   3.828
 2170SOL    HW2 8710   0.231   1.519   3.920
 2170SOL    HW3 8711   0.164   1.579   3.799
 2170SOL    MW4 8712   0.233   1.542   3.837
 2171SOL     OW 8713   0.008   1.674   3.773
 2171SOL    HW2 8714  -0.003   1.765   3.801
 2171SOL    HW3 8715   0.004   1.678   3.677
 2171SOL    MW4 8716   0.006   1.686   3.764
 2172SOL     OW 8717   4.461   1.950   3.845
 2172SOL    HW2 8718   4.448   1.934   3.939
 2172SOL    HW3 8719   4.381   1.995   3.818
 2172SOL    MW4 8720   4.448   1.954   3.854
 2173SOL     OW 8721   0.205   2.084   3.779
 2173SOL    HW2 8722   0.196   2.179   3.785
 2173SOL    HW3 8723   0.127   2.050   3.822
 2173SOL    MW4 8724   0.194   2.092   3.786
 2174SOL     OW 8725   0.192   2.356   3.809
 2174SOL    HW2 8726   0.170   2.360   3.902
 2174SOL    HW3 8727   0.126   2.409   3.766
 2174SOL    MW4 8728   0.181   2.363   3.816
 2175SOL     OW 8729   4.475   2.507   3.702
 2175SOL    HW2 8730   4.409   2.443   3.731
 2175SOL    HW3 8731   4.475   2.574   3.770
 2175SOL    MW4 8732   4.466   2.507   3.715
 2176SOL     OW 8733   4.477   2.731   3.879
 2176SOL    HW2 8734   4.481   2.728   3.975
 2176SOL    HW3 8735   4.549   2.788   3.854
 2176SOL    MW4 8736   4.487   2.738   3.889
 2177SOL     OW 8737   0.211   2.882   3.804
 2177SOL    HW2 8738   0.288   2.830   3.828
 2177SOL    HW3 8739   0.196   2.861   3.712
 2177SOL    MW4 8740   0.219   2.872   3.795
 2178SOL     OW 8741   0.178   3.167   3.864
 2178SOL    HW2 8742   0.181   3.159   3.959
 2178SOL    HW3 8743   0.186   3.077   3.832
 2178SOL    MW4 8744   0.179   3.154   3.872
 2179SOL     OW 8745   4.428   3.262   3.774
 2179SOL    HW2 8746   4.520   3.232   3.776
 2179SOL    HW3 8747   4.402   3.253   3.682
 2179SOL    MW4 8748   4.437   3.257   3.762
 2180SOL     OW 8749   4.473   3.520   3.837
 2180SOL    HW2 8750   4.564   3.535   3.809
 2180SOL    HW3 8751   4.461   3.425   3.826
 2180SOL    MW4 8752   4.484   3.509   3.832
 2181SOL     OW 8753   0.227   3.620   3.754
 2181SOL    HW2 8754   0.298   3.578   3.802
 2181SOL    HW3 8755   0.232   3.713   3.779
 2181SOL    MW4 8756   0.237   3.627   3.763
 2182SOL     OW 8757   0.229   3.863   3.882
 2182SOL    HW2 8758   0.189   3.908   3.957
 2182SOL    HW3 8759   0.299   3.922   3.854
 2182SOL    MW4 8760   0.233   3.877   3.888
 2183SOL     OW 8761   4.490   3.982   3.753
 2183SOL    HW2 8762   4.397   3.969   3.775
 2183SOL    HW3 8763   4.536   3.917   3.807
 2183SOL    MW4 8764   4.484   3.972   3.763
 2184SOL     OW 8765   0.009   4.267   3.837
 2184SOL    HW2 8766   0.098   4.289   3.810
 2184SOL    HW3 8767   0.001   4.173   3.821
 2184SOL    MW4 8768   0.020   4.258   3.831
 2185SOL     OW 8769   0.258   4.402   3.782
 2185SOL    HW2 8770   0.328   4.366   3.836
 2185SOL    HW3 8771   0.249   4.492   3.812
 2185SOL    MW4 8772   0.266   4.409   3.793
 2186SOL     OW 8773   0.647   4.642   3.850
 2186SOL    HW2 8774   0.633   4.553   3.817
 2186SOL    HW3 8775   0.568   4.690   3.825
 2186SOL    MW4 8776   0.635   4.637   3.843
 2187SOL     OW 8777   0.432   0.130   3.772
 2187SOL    HW2 8778   0.444   0.214   3.817
 2187SOL    HW3 8779   0.349   0.096   3.807
 2187SOL    MW4 8780   0.422   0.137   3.783
 2188SOL     OW 8781   0.457   0.387   3.863
 2188SOL    HW2 8782   0.532   0.432   3.825
 2188SOL    HW3 8783   0.381   0.433   3.827
 2188SOL    MW4 8784   0.457   0.399   3.853
 2189SOL     OW 8785   0.665   0.533   3.741
 2189SOL    HW2 8786   0.742   0.493   3.781
 2189SOL    HW3 8787   0.657   0.618   3.785
 2189SOL    MW4 8788   0.675   0.539   3.752
 2190SOL     OW 8789   0.648   0.793   3.878
 2190SOL    HW2 8790   0.718   0.831   3.825
 2190SOL    HW3 8791   0.567   0.823   3.837
 2190SOL    MW4 8792   0.646   0.802   3.866
 2191SOL     OW 8793   0.430   0.899   3.749
 2191SOL    HW2 8794   0.423   0.988   3.784
 2191SOL    HW3 8795   0.346   0.859   3.771
 2191SOL    MW4 8796   0.418   0.906   3.757
 2192SOL     OW 8797   0.422   1.143   3.850
 2192SOL    HW2 8798   0.491   1.195   3.809
 2192SOL    HW3 8799   0.341   1.184   3.819
 2192SOL    MW4 8800   0.420   1.156   3.840
 2193SOL     OW 8801   0.623   1.275   3.739
 2193SOL    HW2 8802   0.702   1.228   3.766
 2193SOL    HW3 8803   0.616   1.259   3.645
 2193SOL    MW4 8804   0.632   1.267   3.730
 2194SOL     OW 8805   0.644   1.547   3.854
 2194SOL    HW2 8806   0.733   1.580   3.862
 2194SOL    HW3 8807   0.654   1.458   3.820
 2194SOL    MW4 8808   0.657   1.540   3.851
 2195SOL     OW 8809   0.451   1.704   3.754
 2195SOL    HW2 8810   0.526   1.662   3.796
 2195SOL    HW3 8811   0.377   1.646   3.774
 2195SOL    MW4 8812   0.451   1.691   3.762
 2196SOL     OW 8813   0.434   1.941   3.889
 2196SOL    HW2 8814   0.435   1.855   3.847
 2196SOL    HW3 8815   0.349   1.979   3.864
 2196SOL    MW4 8816   0.423   1.935   3.881
 2197SOL     OW 8817   0.657   2.042   3.781
 2197SOL    HW2 8818   0.648   2.137   3.790
 2197SOL    HW3 8819   0.574   2.007   3.813
 2197SOL    MW4 8820   0.645   2.050   3.786
 2198SOL     OW 8821   0.630   2.322   3.823
 2198SOL    HW2 8822   0.719   2.354   3.810
 2198SOL    HW3 8823   0.574   2.391   3.789
 2198SOL    MW4 8824   0.635   2.335   3.817
 2199SOL     OW 8825   0.427   2.485   3.730
 2199SOL    HW2 8826   0.342   2.449   3.753
 2199SOL    HW3 8827   0.437   2.465   3.636
 2199SOL    MW4 8828   0.417   2.478   3.720
 2200SOL     OW 8829   0.459   2.737   3.840
 2200SOL    HW2 8830   0.542   2.775   3.811
 2200SOL    HW3 8831   0.454   2.653   3.795
 2200SOL    MW4 8832   0.469   2.731   3.830
 2201SOL     OW 8833   0.702   2.846   3.776
 2201SOL    HW2 8834   0.758   2.781   3.818
 2201SOL    HW3 8835   0.720   2.837   3.682
 2201SOL    MW4 8836   0.712   2.836   3.769
 2202SOL     OW 8837   0.615   3.107   3.849
 2202SOL    HW2 8838   0.604   3.113   3.944
 2202SOL    HW3 8839   0.642   3.017   3.834
 2202SOL    MW4 8840   0.617   3.096   3.859
 2203SOL     OW 8841   0.405   3.244   3.748
 2203SOL    HW2 8842   0.478   3.192   3.782
 2203SOL    HW3 8843   0.327   3.207   3.789
 2203SOL    MW4 8844   0.404   3.232   3.758
 2204SOL     OW 8845   0.428   3.483   3.880
 2204SOL    HW2 8846   0.504   3.523   3.838
 2204SOL    HW3 8847   0.425   3.394   3.845
 2204SOL    MW4 8848   0.438   3.476   3.870
 2205SOL     OW 8849   0.667   3.647   3.755
 2205SOL    HW2 8850   0.681   3.735   3.792
 2205SOL    HW3 8851   0.666   3.661   3.660
 2205SOL    MW4 8852   0.669   3.661   3.748
 2206SOL     OW 8853   0.671   3.888   3.910
 2206SOL    HW2 8854   0.691   3.893   4.004
 2206SOL    HW3 8855   0.730   3.951   3.870
 2206SOL    MW4 8856   0.681   3.897   3.917
 2207SOL     OW 8857   0.445   4.011   3.766
 2207SOL    HW2 8858   0.505   3.945   3.800
 2207SOL    HW3 8859   0.459   4.011   3.671
 2207SOL    MW4 8860   0.454   4.002   3.758
 2208SOL     OW 8861   0.448   4.256   3.905
 2208SOL    HW2 8862   0.521   4.299   3.861
 2208SOL    HW3 8863   0.439   4.172   3.862
 2208SOL    MW4 8864   0.456   4.251   3.893
 2209SOL     OW 8865   0.651   4.378   3.738
 2209SOL    HW2 8866   0.731   4.333   3.764
 2209SOL    HW3 8867   0.652   4.375   3.642
 2209SOL    MW4 8868   0.662   4.372   3.729
 2210SOL     OW 8869   1.125   0.010   3.861
 2210SOL    HW2 8870   1.207   0.050   3.834
 2210SOL    HW3 8871   1.133  -0.082   3.834
 2210SOL    MW4 8872   1.137   0.003   3.854
 2211SOL     OW 8873   0.880   0.110   3.757
 2211SOL    HW2 8874   0.959   0.076   3.800
 2211SOL    HW3 8875   0.812   0.046   3.778
 2211SOL    MW4 8876   0.882   0.097   3.765
 2212SOL     OW 8877   0.884   0.378   3.849
 2212SOL    HW2 8878   0.841   0.378   3.935
 2212SOL    HW3 8879   0.876   0.288   3.818
 2212SOL    MW4 8880   0.877   0.366   3.856
 2213SOL     OW 8881   1.103   0.518   3.757
 2213SOL    HW2 8882   1.181   0.488   3.805
 2213SOL    HW3 8883   1.032   0.465   3.791
 2213SOL    MW4 8884   1.104   0.507   3.768
 2214SOL     OW 8885   1.106   0.781   3.834
 2214SOL    HW2 8886   1.094   0.797   3.927
 2214SOL    HW3 8887   1.109   0.685   3.826
 2214SOL    MW4 8888   1.104   0.770   3.845
 2215SOL     OW 8889   0.868   0.877   3.745
 2215SOL    HW2 8890   0.944   0.827   3.776
 2215SOL    HW3 8891   0.887   0.893   3.652
 2215SOL    MW4 8892   0.881   0.873   3.737
 2216SOL     OW 8893   0.853   1.127   3.839
 2216SOL    HW2 8894   0.852   1.118   3.935
 2216SOL    HW3 8895   0.859   1.037   3.807
 2216SOL    MW4 8896   0.854   1.114   3.848
 2217SOL     OW 8897   1.108   1.256   3.761
 2217SOL    HW2 8898   1.100   1.345   3.795
 2217SOL    HW3 8899   1.032   1.210   3.796
 2217SOL    MW4 8900   1.097   1.262   3.770
 2218SOL     OW 8901   1.125   1.504   3.881
 2218SOL    HW2 8902   1.134   1.508   3.977
 2218SOL    HW3 8903   1.191   1.565   3.848
 2218SOL    MW4 8904   1.135   1.513   3.890
 2219SOL     OW 8905   0.896   1.662   3.824
 2219SOL    HW2 8906   0.977   1.616   3.849
 2219SOL    HW3 8907   0.905   1.675   3.730
 2219SOL    MW4 8908   0.908   1.658   3.815
 2220SOL     OW 8909   0.906   1.940   3.855
 2220SOL    HW2 8910   0.910   1.844   3.859
 2220SOL    HW3 8911   0.817   1.958   3.823
 2220SOL    MW4 8912   0.894   1.930   3.851
 2221SOL     OW 8913   1.147   2.012   3.722
 2221SOL    HW2 8914   1.073   1.966   3.761
 2221SOL    HW3 8915   1.129   2.010   3.628
 2221SOL    MW4 8916   1.135   2.006   3.715
 2222SOL     OW 8917   1.106   2.265   3.846
 2222SOL    HW2 8918   1.085   2.247   3.938
 2222SOL    HW3 8919   1.094   2.180   3.802
 2222SOL    MW4 8920   1.102   2.251   3.852
 2223SOL     OW 8921   0.885   2.413   3.782
 2223SOL    HW2 8922   0.901   2.505   3.806
 2223SOL    HW3 8923   0.967   2.369   3.800
 2223SOL    MW4 8924   0.898   2.420   3.788
 2224SOL     OW 8925   0.908   2.683   3.869
 2224SOL    HW2 8926   0.918   2.704   3.962
 2224SOL    HW3 8927   0.974   2.737   3.826
 2224SOL    MW4 8928   0.918   2.693   3.876
 2225SOL     OW 8929   1.112   2.835   3.740
 2225SOL    HW2 8930   1.194   2.791   3.761
 2225SOL    HW3 8931   1.123   2.924   3.773
 2225SOL    MW4 8932   1.124   2.841   3.747
 2226SOL     OW 8933   1.080   3.116   3.814
 2226SOL    HW2 8934   1.137   3.192   3.828
 2226SOL    HW3 8935   0.993   3.154   3.802
 2226SOL    MW4 8936   1.076   3.131   3.814
 2227SOL     OW 8937   0.850   3.256   3.781
 2227SOL    HW2 8938   0.777   3.200   3.806
 2227SOL    HW3 8939   0.862   3.238   3.687
 2227SOL    MW4 8940   0.842   3.246   3.772
 2228SOL     OW 8941   0.873   3.500   3.902
 2228SOL    HW2 8942   0.857   3.408   3.880
 2228SOL    HW3 8943   0.806   3.548   3.853
 2228SOL    MW4 8944   0.862   3.494   3.893
 2229SOL     OW 8945   1.126   3.616   3.783
 2229SOL    HW2 8946   1.110   3.706   3.812
 2229SOL    HW3 8947   1.050   3.567   3.813
 2229SOL    MW4 8948   1.114   3.622   3.791
 2230SOL     OW 8949   1.076   3.887   3.870
 2230SOL    HW2 8950   1.076   3.873   3.965
 2230SOL    HW3 8951   1.162   3.925   3.852
 2230SOL    MW4 8952   1.088   3.890   3.880
 2231SOL     OW 8953   0.864   4.017   3.760
 2231SOL    HW2 8954   0.934   3.964   3.800
 2231SOL    HW3 8955   0.870   3.999   3.667
 2231SOL    MW4 8956   0.874   4.008   3.753
 2232SOL     OW 8957   0.881   4.277   3.864
 2232SOL    HW2 8958   0.908   4.288   3.955
 2232SOL    HW3 8959   0.891   4.183   3.847
 2232SOL    MW4 8960   0.886   4.266   3.874
 2233SOL     OW 8961   1.110   4.364   3.778
 2233SOL    HW2 8962   1.019   4.345   3.803
 2233SOL    HW3 8963   1.107   4.372   3.683
 2233SOL    MW4 8964   1.097   4.363   3.769
 2234SOL     OW 8965   1.582   4.658   3.861
 2234SOL    HW2 8966   1.577   4.640   3.955
 2234SOL    HW3 8967   1.566   4.573   3.819
 2234SOL    MW4 8968   1.579   4.644   3.868
 2235SOL     OW 8969   1.362   0.128   3.757
 2235SOL    HW2 8970   1.368   0.219   3.787
 2235SOL    HW3 8971   1.445   0.089   3.785
 2235SOL    MW4 8972   1.374   0.135   3.765
 2236SOL     OW 8973   1.341   0.409   3.851
 2236SOL    HW2 8974   1.378   0.402   3.939
 2236SOL    HW3 8975   1.413   0.444   3.798
 2236SOL    MW4 8976   1.355   0.412   3.856
 2237SOL     OW 8977   1.562   0.507   3.724
 2237SOL    HW2 8978   1.628   0.444   3.752
 2237SOL    HW3 8979   1.584   0.588   3.771
 2237SOL    MW4 8980   1.573   0.510   3.734
 2238SOL     OW 8981   1.577   0.761   3.856
 2238SOL    HW2 8982   1.639   0.808   3.800
 2238SOL    HW3 8983   1.493   0.803   3.840
 2238SOL    MW4 8984   1.574   0.773   3.847
 2239SOL     OW 8985   1.356   0.887   3.757
 2239SOL    HW2 8986   1.345   0.980   3.777
 2239SOL    HW3 8987   1.276   0.846   3.791
 2239SOL    MW4 8988   1.344   0.894   3.764
 2240SOL     OW 8989   1.356   1.153   3.835
 2240SOL    HW2 8990   1.428   1.207   3.801
 2240SOL    HW3 8991   1.277   1.194   3.800
 2240SOL    MW4 8992   1.355   1.165   3.826
 2241SOL     OW 8993   1.577   1.266   3.722
 2241SOL    HW2 8994   1.644   1.210   3.762
 2241SOL    HW3 8995   1.587   1.350   3.767
 2241SOL    MW4 8996   1.587   1.269   3.734
 2242SOL     OW 8997   1.564   1.514   3.838
 2242SOL    HW2 8998   1.567   1.528   3.933
 2242SOL    HW3 8999   1.640   1.560   3.805
 2242SOL    MW4 9000   1.575   1.522   3.846
 2243SOL     OW 9001   1.332   1.656   3.774
 2243SOL    HW2 9002   1.362   1.744   3.795
 2243SOL    HW3 9003   1.404   1.599   3.804
 2243SOL    MW4 9004   1.346   1.660   3.781
 2244SOL     OW 9005   1.386   1.916   3.845
 2244SOL    HW2 9006   1.369   1.922   3.940
 2244SOL    HW3 9007   1.308   1.955   3.805
 2244SOL    MW4 9008   1.373   1.922   3.852
 2245SOL     OW 9009   1.601   2.061   3.753
 2245SOL    HW2 9010   1.530   1.999   3.771
 2245SOL    HW3 9011   1.590   2.085   3.662
 2245SOL    MW4 9012   1.590   2.056   3.744
 2246SOL     OW 9013   1.574   2.315   3.893
 2246SOL    HW2 9014   1.630   2.373   3.841
 2246SOL    HW3 9015   1.592   2.227   3.859
 2246SOL    MW4 9016   1.584   2.311   3.881
 2247SOL     OW 9017   1.351   2.439   3.810
 2247SOL    HW2 9018   1.420   2.392   3.858
 2247SOL    HW3 9019   1.270   2.394   3.835
 2247SOL    MW4 9020   1.349   2.427   3.820
 2248SOL     OW 9021   1.350   2.717   3.840
 2248SOL    HW2 9022   1.314   2.736   3.926
 2248SOL    HW3 9023   1.365   2.623   3.839
 2248SOL    MW4 9024   1.347   2.707   3.851
 2249SOL     OW 9025   1.549   2.901   3.776
 2249SOL    HW2 9026   1.479   2.840   3.800
 2249SOL    HW3 9027   1.555   2.895   3.681
 2249SOL    MW4 9028   1.540   2.892   3.767
 2250SOL     OW 9029   1.569   3.119   3.937
 2250SOL    HW2 9030   1.507   3.108   4.009
 2250SOL    HW3 9031   1.567   3.036   3.890
 2250SOL    MW4 9032   1.561   3.107   3.940
 2251SOL     OW 9033   1.343   3.270   3.793
 2251SOL    HW2 9034   1.344   3.350   3.846
 2251SOL    HW3 9035   1.399   3.209   3.840
 2251SOL    MW4 9036   1.350   3.272   3.806
 2252SOL     OW 9037   1.344   3.528   3.932
 2252SOL    HW2 9038   1.425   3.555   3.889
 2252SOL    HW3 9039   1.275   3.564   3.876
 2252SOL    MW4 9040   1.345   3.536   3.919
 2253SOL     OW 9041   1.570   3.623   3.830
 2253SOL    HW2 9042   1.644   3.577   3.869
 2253SOL    HW3 9043   1.589   3.715   3.845
 2253SOL    MW4 9044   1.582   3.629   3.837
 2254SOL     OW 9045   1.571   3.898   3.879
 2254SOL    HW2 9046   1.575   3.902   3.974
 2254SOL    HW3 9047   1.482   3.923   3.857
 2254SOL    MW4 9048   1.560   3.902   3.889
 2255SOL     OW 9049   1.323   4.002   3.798
 2255SOL    HW2 9050   1.329   4.089   3.837
 2255SOL    HW3 9051   1.327   4.017   3.704
 2255SOL    MW4 9052   1.324   4.015   3.791
 2256SOL     OW 9053   1.330   4.256   3.886
 2256SOL    HW2 9054   1.395   4.321   3.859
 2256SOL    HW3 9055   1.247   4.292   3.854
 2256SOL    MW4 9056   1.327   4.270   3.878
 2257SOL     OW 9057   1.559   4.413   3.739
 2257SOL    HW2 9058   1.635   4.365   3.771
 2257SOL    HW3 9059   1.564   4.405   3.644
 2257SOL    MW4 9060   1.570   4.406   3.731
 2258SOL     OW 9061   2.020   4.627   3.911
 2258SOL    HW2 9062   2.097   4.674   3.878
 2258SOL    HW3 9063   2.031   4.537   3.878
 2258SOL    MW4 9064   2.032   4.621   3.902
 2259SOL     OW 9065   1.800   0.070   3.742
 2259SOL    HW2 9066   1.874   0.028   3.786
 2259SOL    HW3 9067   1.723   0.038   3.789
 2259SOL    MW4 9068   1.799   0.060   3.754
 2260SOL     OW 9069   1.755   0.341   3.815
 2260SOL    HW2 9070   1.747   0.353   3.909
 2260SOL    HW3 9071   1.750   0.247   3.802
 2260SOL    MW4 9072   1.754   0.331   3.825
 2261SOL     OW 9073   1.999   0.463   3.784
 2261SOL    HW2 9074   1.918   0.413   3.797
 2261SOL    HW3 9075   2.017   0.456   3.691
 2261SOL    MW4 9076   1.991   0.455   3.774
 2262SOL     OW 9077   2.002   0.724   3.824
 2262SOL    HW2 9078   1.984   0.728   3.918
 2262SOL    HW3 9079   2.005   0.631   3.804
 2262SOL    MW4 9080   2.000   0.712   3.834
 2263SOL     OW 9081   1.798   0.889   3.708
 2263SOL    HW2 9082   1.873   0.836   3.735
 2263SOL    HW3 9083   1.805   0.893   3.612
 2263SOL    MW4 9084   1.809   0.883   3.699
 2264SOL     OW 9085   1.804   1.128   3.829
 2264SOL    HW2 9086   1.796   1.116   3.923
 2264SOL    HW3 9087   1.795   1.039   3.793
 2264SOL    MW4 9088   1.802   1.115   3.837
 2265SOL     OW 9089   2.026   1.267   3.725
 2265SOL    HW2 9090   2.108   1.221   3.743
 2265SOL    HW3 9091   1.960   1.219   3.776
 2265SOL    MW4 9092   2.028   1.254   3.734
 2266SOL     OW 9093   2.012   1.512   3.856
 2266SOL    HW2 9094   1.936   1.547   3.810
 2266SOL    HW3 9095   2.026   1.426   3.819
 2266SOL    MW4 9096   2.004   1.505   3.845
 2267SOL     OW 9097   1.792   1.619   3.727
 2267SOL    HW2 9098   1.789   1.702   3.774
 2267SOL    HW3 9099   1.819   1.642   3.638
 2267SOL    MW4 9100   1.795   1.633   3.722
 2268SOL     OW 9101   1.801   1.871   3.836
 2268SOL    HW2 9102   1.791   1.875   3.931
 2268SOL    HW3 9103   1.742   1.939   3.803
 2268SOL    MW4 9104   1.792   1.881   3.845
 2269SOL     OW 9105   1.995   2.059   3.777
 2269SOL    HW2 9106   1.923   2.002   3.805
 2269SOL    HW3 9107   1.981   2.071   3.683
 2269SOL    MW4 9108   1.983   2.053   3.768
 2270SOL     OW 9109   1.961   2.312   3.903
 2270SOL    HW2 9110   1.895   2.358   3.852
 2270SOL    HW3 9111   1.952   2.220   3.878
 2270SOL    MW4 9112   1.951   2.306   3.893
 2271SOL     OW 9113   1.753   2.459   3.760
 2271SOL    HW2 9114   1.751   2.551   3.786
 2271SOL    HW3 9115   1.759   2.462   3.664
 2271SOL    MW4 9116   1.754   2.472   3.751
 2272SOL     OW 9117   1.777   2.757   3.851
 2272SOL    HW2 9118   1.788   2.801   3.936
 2272SOL    HW3 9119   1.700   2.799   3.812
 2272SOL    MW4 9120   1.768   2.768   3.857
 2273SOL     OW 9121   2.009   2.880   3.761
 2273SOL    HW2 9122   2.089   2.834   3.789
 2273SOL    HW3 9123   1.938   2.822   3.789
 2273SOL    MW4 9124   2.010   2.866   3.769
 2274SOL     OW 9125   1.980   3.160   3.785
 2274SOL    HW2 9126   1.983   3.066   3.769
 2274SOL    HW3 9127   2.067   3.191   3.763
 2274SOL    MW4 9128   1.992   3.152   3.780
 2275SOL     OW 9129   1.752   3.305   3.772
 2275SOL    HW2 9130   1.831   3.252   3.781
 2275SOL    HW3 9131   1.689   3.265   3.833
 2275SOL    MW4 9132   1.754   3.293   3.781
 2276SOL     OW 9133   1.812   3.512   3.943
 2276SOL    HW2 9134   1.894   3.551   3.916
 2276SOL    HW3 9135   1.806   3.431   3.892
 2276SOL    MW4 9136   1.822   3.506   3.933
 2277SOL     OW 9137   2.037   3.581   3.796
 2277SOL    HW2 9138   2.115   3.543   3.837
 2277SOL    HW3 9139   2.061   3.594   3.705
 2277SOL    MW4 9140   2.050   3.577   3.790
 2278SOL     OW 9141   1.959   3.830   3.852
 2278SOL    HW2 9142   2.045   3.862   3.826
 2278SOL    HW3 9143   1.959   3.738   3.826
 2278SOL    MW4 9144   1.971   3.822   3.846
 2279SOL     OW 9145   1.803   4.037   3.767
 2279SOL    HW2 9146   1.859   3.968   3.801
 2279SOL    HW3 9147   1.714   4.006   3.784
 2279SOL    MW4 9148   1.798   4.024   3.774
 2280SOL     OW 9149   1.778   4.298   3.843
 2280SOL    HW2 9150   1.859   4.335   3.809
 2280SOL    HW3 9151   1.782   4.206   3.820
 2280SOL    MW4 9152   1.789   4.291   3.835
 2281SOL     OW 9153   2.034   4.393   3.763
 2281SOL    HW2 9154   2.106   4.331   3.778
 2281SOL    HW3 9155   2.031   4.403   3.668
 2281SOL    MW4 9156   2.043   4.386   3.753
 2282SOL     OW 9157   2.439   4.628   3.906
 2282SOL    HW2 9158   2.432   4.645   4.000
 2282SOL    HW3 9159   2.515   4.678   3.878
 2282SOL    MW4 9160   2.448   4.637   3.915
 2283SOL     OW 9161   2.227   0.093   3.774
 2283SOL    HW2 9162   2.290   0.038   3.819
 2283SOL    HW3 9163   2.258   0.095   3.683
 2283SOL    MW4 9164   2.240   0.086   3.768
 2284SOL     OW 9165   2.233   0.351   3.882
 2284SOL    HW2 9166   2.230   0.263   3.844
 2284SOL    HW3 9167   2.148   0.389   3.861
 2284SOL    MW4 9168   2.222   0.345   3.874
 2285SOL     OW 9169   2.464   0.481   3.800
 2285SOL    HW2 9170   2.381   0.443   3.829
 2285SOL    HW3 9171   2.468   0.461   3.706
 2285SOL    MW4 9172   2.453   0.474   3.791
 2286SOL     OW 9173   2.440   0.737   3.914
 2286SOL    HW2 9174   2.362   0.769   3.869
 2286SOL    HW3 9175   2.458   0.653   3.873
 2286SOL    MW4 9176   2.432   0.730   3.902
 2287SOL     OW 9177   2.245   0.848   3.765
 2287SOL    HW2 9178   2.159   0.808   3.774
 2287SOL    HW3 9179   2.257   0.861   3.671
 2287SOL    MW4 9180   2.235   0.845   3.754
 2288SOL     OW 9181   2.241   1.109   3.818
 2288SOL    HW2 9182   2.232   1.117   3.913
 2288SOL    HW3 9183   2.241   1.015   3.802
 2288SOL    MW4 9184   2.240   1.098   3.828
 2289SOL     OW 9185   2.473   1.256   3.770
 2289SOL    HW2 9186   2.461   1.342   3.809
 2289SOL    HW3 9187   2.395   1.207   3.794
 2289SOL    MW4 9188   2.461   1.261   3.778
 2290SOL     OW 9189   2.424   1.531   3.854
 2290SOL    HW2 9190   2.502   1.571   3.815
 2290SOL    HW3 9191   2.351   1.582   3.818
 2290SOL    MW4 9192   2.425   1.543   3.844
 2291SOL     OW 9193   2.215   1.671   3.755
 2291SOL    HW2 9194   2.218   1.761   3.788
 2291SOL    HW3 9195   2.139   1.632   3.797
 2291SOL    MW4 9196   2.206   1.678   3.765
 2292SOL     OW 9197   2.227   1.928   3.877
 2292SOL    HW2 9198   2.247   1.932   3.970
 2292SOL    HW3 9199   2.151   1.985   3.865
 2292SOL    MW4 9200   2.220   1.936   3.887
 2293SOL     OW 9201   2.390   2.076   3.730
 2293SOL    HW2 9202   2.411   2.153   3.784
 2293SOL    HW3 9203   2.325   2.028   3.780
 2293SOL    MW4 9204   2.384   2.080   3.743
 2294SOL     OW 9205   2.433   2.296   3.920
 2294SOL    HW2 9206   2.500   2.340   3.868
 2294SOL    HW3 9207   2.351   2.340   3.896
 2294SOL    MW4 9208   2.431   2.307   3.910
 2295SOL     OW 9209   2.204   2.402   3.795
 2295SOL    HW2 9210   2.128   2.349   3.818
 2295SOL    HW3 9211   2.210   2.395   3.700
 2295SOL    MW4 9212   2.195   2.394   3.786
 2296SOL     OW 9213   2.215   2.718   3.878
 2296SOL    HW2 9214   2.206   2.753   3.967
 2296SOL    HW3 9215   2.191   2.626   3.886
 2296SOL    MW4 9216   2.210   2.710   3.891
 2297SOL     OW 9217   2.486   2.788   3.733
 2297SOL    HW2 9218   2.401   2.750   3.753
 2297SOL    HW3 9219   2.477   2.820   3.643
 2297SOL    MW4 9220   2.474   2.787   3.724
 2298SOL     OW 9221   2.462   3.049   3.915
 2298SOL    HW2 9222   2.481   3.045   4.009
 2298SOL    HW3 9223   2.483   2.961   3.883
 2298SOL    MW4 9224   2.468   3.037   3.923
 2299SOL     OW 9225   2.253   3.200   3.782
 2299SOL    HW2 9226   2.265   3.290   3.812
 2299SOL    HW3 9227   2.317   3.149   3.832
 2299SOL    MW4 9228   2.263   3.205   3.792
 2300SOL     OW 9229   2.284   3.456   3.867
 2300SOL    HW2 9230   2.298   3.473   3.960
 2300SOL    HW3 9231   2.346   3.513   3.822
 2300SOL    MW4 9232   2.294   3.465   3.874
 2301SOL     OW 9233   2.482   3.625   3.769
 2301SOL    HW2 9234   2.549   3.563   3.796
 2301SOL    HW3 9235   2.484   3.623   3.673
 2301SOL    MW4 9236   2.491   3.617   3.760
 2302SOL     OW 9237   2.421   3.861   3.921
 2302SOL    HW2 9238   2.494   3.911   3.885
 2302SOL    HW3 9239   2.443   3.770   3.904
 2302SOL    MW4 9240   2.433   3.856   3.914
 2303SOL     OW 9241   2.201   3.925   3.762
 2303SOL    HW2 9242   2.284   3.910   3.807
 2303SOL    HW3 9243   2.225   3.931   3.670
 2303SOL    MW4 9244   2.215   3.924   3.756
 2304SOL     OW 9245   2.257   4.213   3.828
 2304SOL    HW2 9246   2.254   4.205   3.923
 2304SOL    HW3 9247   2.249   4.124   3.795
 2304SOL    MW4 9248   2.255   4.200   3.836
 2305SOL     OW 9249   2.472   4.367   3.749
 2305SOL    HW2 9250   2.412   4.309   3.795
 2305SOL    HW3 9251   2.469   4.449   3.798
 2305SOL    MW4 9252   2.464   4.370   3.761
 2306SOL     OW 9253   2.913   4.633   3.846
 2306SOL    HW2 9254   2.913   4.649   3.940
 2306SOL    HW3 9255   2.998   4.668   3.816
 2306SOL    MW4 9256   2.925   4.640   3.854
 2307SOL     OW 9257   2.653   0.117   3.798
 2307SOL    HW2 9258   2.738   0.076   3.811
 2307SOL    HW3 9259   2.658   0.154   3.709
 2307SOL    MW4 9260   2.665   0.117   3.788
 2308SOL     OW 9261   2.715   0.393   3.863
 2308SOL    HW2 9262   2.701   0.299   3.870
 2308SOL    HW3 9263   2.628   0.431   3.858
 2308SOL    MW4 9264   2.702   0.386   3.864
 2309SOL     OW 9265   2.934   0.539   3.768
 2309SOL    HW2 9266   3.010   0.483   3.782
 2309SOL    HW3 9267   2.860   0.486   3.798
 2309SOL    MW4 9268   2.934   0.525   3.774
 2310SOL     OW 9269   2.898   0.804   3.840
 2310SOL    HW2 9270   2.980   0.842   3.810
 2310SOL    HW3 9271   2.907   0.711   3.824
 2310SOL    MW4 9272   2.910   0.797   3.834
 2311SOL     OW 9273   2.646   0.908   3.797
 2311SOL    HW2 9274   2.721   0.854   3.820
 2311SOL    HW3 9275   2.570   0.859   3.831
 2311SOL    MW4 9276   2.646   0.894   3.805
 2312SOL     OW 9277   2.730   1.167   3.823
 2312SOL    HW2 9278   2.705   1.075   3.816
 2312SOL    HW3 9279   2.654   1.216   3.791
 2312SOL    MW4 9280   2.717   1.162   3.818
 2313SOL     OW 9281   2.962   1.319   3.754
 2313SOL    HW2 9282   2.954   1.407   3.791
 2313SOL    HW3 9283   2.879   1.276   3.776
 2313SOL    MW4 9284   2.950   1.325   3.762
 2314SOL     OW 9285   2.873   1.560   3.866
 2314SOL    HW2 9286   2.869   1.572   3.961
 2314SOL    HW3 9287   2.954   1.603   3.840
 2314SOL    MW4 9288   2.883   1.567   3.875
 2315SOL     OW 9289   2.635   1.697   3.786
 2315SOL    HW2 9290   2.710   1.659   3.832
 2315SOL    HW3 9291   2.653   1.681   3.693
 2315SOL    MW4 9292   2.647   1.690   3.780
 2316SOL     OW 9293   2.661   1.969   3.796
 2316SOL    HW2 9294   2.646   1.875   3.804
 2316SOL    HW3 9295   2.582   2.004   3.756
 2316SOL    MW4 9296   2.649   1.961   3.792
 2317SOL     OW 9297   2.931   2.029   3.757
 2317SOL    HW2 9298   2.915   2.109   3.806
 2317SOL    HW3 9299   2.845   1.988   3.748
 2317SOL    MW4 9300   2.917   2.034   3.762
 2318SOL     OW 9301   2.891   2.297   3.828
 2318SOL    HW2 9302   2.910   2.335   3.914
 2318SOL    HW3 9303   2.971   2.311   3.777
 2318SOL    MW4 9304   2.904   2.304   3.833
 2319SOL     OW 9305   2.629   2.385   3.752
 2319SOL    HW2 9306   2.652   2.474   3.779
 2319SOL    HW3 9307   2.706   2.332   3.774
 2319SOL    MW4 9308   2.642   2.389   3.759
 2320SOL     OW 9309   2.687   2.645   3.842
 2320SOL    HW2 9310   2.677   2.648   3.937
 2320SOL    HW3 9311   2.610   2.692   3.808
 2320SOL    MW4 9312   2.675   2.652   3.850
 2321SOL     OW 9313   2.920   2.783   3.770
 2321SOL    HW2 9314   2.909   2.864   3.819
 2321SOL    HW3 9315   2.834   2.741   3.774
 2321SOL    MW4 9316   2.907   2.788   3.777
 2322SOL     OW 9317   2.897   3.065   3.870
 2322SOL    HW2 9318   2.969   3.128   3.863
 2322SOL    HW3 9319   2.818   3.117   3.856
 2322SOL    MW4 9320   2.896   3.080   3.868
 2323SOL     OW 9321   2.670   3.191   3.774
 2323SOL    HW2 9322   2.666   3.282   3.803
 2323SOL    HW3 9323   2.596   3.149   3.817
 2323SOL    MW4 9324   2.660   3.198   3.783
 2324SOL     OW 9325   2.698   3.463   3.867
 2324SOL    HW2 9326   2.708   3.472   3.962
 2324SOL    HW3 9327   2.776   3.506   3.831
 2324SOL    MW4 9328   2.710   3.470   3.875
 2325SOL     OW 9329   2.917   3.611   3.766
 2325SOL    HW2 9330   3.001   3.579   3.798
 2325SOL    HW3 9331   2.918   3.592   3.672
 2325SOL    MW4 9332   2.928   3.604   3.758
 2326SOL     OW 9333   2.874   3.858   3.869
 2326SOL    HW2 9334   2.888   3.852   3.964
 2326SOL    HW3 9335   2.881   3.768   3.839
 2326SOL    MW4 9336   2.877   3.845   3.878
 2327SOL     OW 9337   2.642   3.971   3.797
 2327SOL    HW2 9338   2.654   4.063   3.821
 2327SOL    HW3 9339   2.720   3.927   3.832
 2327SOL    MW4 9340   2.654   3.977   3.805
 2328SOL     OW 9341   2.680   4.235   3.846
 2328SOL    HW2 9342   2.758   4.279   3.815
 2328SOL    HW3 9343   2.607   4.285   3.808
 2328SOL    MW4 9344   2.680   4.247   3.837
 2329SOL     OW 9345   2.913   4.369   3.774
 2329SOL    HW2 9346   2.991   4.321   3.803
 2329SOL    HW3 9347   2.919   4.453   3.820
 2329SOL    MW4 9348   2.924   4.374   3.784
 2330SOL     OW 9349   3.328   4.632   3.808
 2330SOL    HW2 9350   3.340   4.623   3.903
 2330SOL    HW3 9351   3.406   4.680   3.779
 2330SOL    MW4 9352   3.340   4.637   3.817
 2331SOL     OW 9353   3.113   0.120   3.743
 2331SOL    HW2 9354   3.175   0.056   3.779
 2331SOL    HW3 9355   3.138   0.129   3.651
 2331SOL    MW4 9356   3.125   0.113   3.736
 2332SOL     OW 9357   3.149   0.376   3.808
 2332SOL    HW2 9358   3.147   0.371   3.904
 2332SOL    HW3 9359   3.137   0.285   3.779
 2332SOL    MW4 9360   3.147   0.363   3.817
 2333SOL     OW 9361   3.397   0.510   3.737
 2333SOL    HW2 9362   3.469   0.463   3.779
 2333SOL    HW3 9363   3.318   0.471   3.775
 2333SOL    MW4 9364   3.396   0.499   3.747
 2334SOL     OW 9365   3.380   0.750   3.869
 2334SOL    HW2 9366   3.361   0.727   3.959
 2334SOL    HW3 9367   3.385   0.667   3.822
 2334SOL    MW4 9368   3.378   0.736   3.874
 2335SOL     OW 9369   3.155   0.904   3.790
 2335SOL    HW2 9370   3.240   0.879   3.828
 2335SOL    HW3 9371   3.167   0.893   3.696
 2335SOL    MW4 9372   3.168   0.899   3.783
 2336SOL     OW 9373   3.158   1.176   3.896
 2336SOL    HW2 9374   3.145   1.084   3.877
 2336SOL    HW3 9375   3.093   1.221   3.841
 2336SOL    MW4 9376   3.147   1.170   3.886
 2337SOL     OW 9377   3.369   1.315   3.786
 2337SOL    HW2 9378   3.287   1.278   3.817
 2337SOL    HW3 9379   3.358   1.321   3.691
 2337SOL    MW4 9380   3.357   1.311   3.778
 2338SOL     OW 9381   3.358   1.580   3.847
 2338SOL    HW2 9382   3.267   1.599   3.823
 2338SOL    HW3 9383   3.366   1.486   3.835
 2338SOL    MW4 9384   3.347   1.570   3.842
 2339SOL     OW 9385   3.106   1.657   3.779
 2339SOL    HW2 9386   3.129   1.750   3.786
 2339SOL    HW3 9387   3.119   1.637   3.687
 2339SOL    MW4 9388   3.111   1.667   3.768
 2340SOL     OW 9389   3.159   1.934   3.833
 2340SOL    HW2 9390   3.151   1.928   3.928
 2340SOL    HW3 9391   3.072   1.963   3.804
 2340SOL    MW4 9392   3.147   1.937   3.842
 2341SOL     OW 9393   3.391   2.059   3.733
 2341SOL    HW2 9394   3.318   2.006   3.764
 2341SOL    HW3 9395   3.404   2.032   3.642
 2341SOL    MW4 9396   3.383   2.049   3.725
 2342SOL     OW 9397   3.353   2.328   3.842
 2342SOL    HW2 9398   3.271   2.355   3.801
 2342SOL    HW3 9399   3.361   2.235   3.821
 2342SOL    MW4 9400   3.343   2.320   3.834
 2343SOL     OW 9401   3.124   2.422   3.720
 2343SOL    HW2 9402   3.114   2.507   3.763
 2343SOL    HW3 9403   3.133   2.444   3.627
 2343SOL    MW4 9404   3.124   2.436   3.713
 2344SOL     OW 9405   3.139   2.651   3.870
 2344SOL    HW2 9406   3.142   2.657   3.965
 2344SOL    HW3 9407   3.063   2.703   3.844
 2344SOL    MW4 9408   3.129   2.658   3.879
 2345SOL     OW 9409   3.372   2.783   3.805
 2345SOL    HW2 9410   3.285   2.748   3.822
 2345SOL    HW3 9411   3.373   2.798   3.710
 2345SOL    MW4 9412   3.360   2.781   3.795
 2346SOL     OW 9413   3.351   3.060   3.876
 2346SOL    HW2 9414   3.438   3.085   3.844
 2346SOL    HW3 9415   3.346   2.966   3.860
 2346SOL    MW4 9416   3.362   3.051   3.869
 2347SOL     OW 9417   3.117   3.203   3.821
 2347SOL    HW2 9418   3.191   3.147   3.845
 2347SOL    HW3 9419   3.117   3.204   3.726
 2347SOL    MW4 9420   3.127   3.196   3.812
 2348SOL     OW 9421   3.145   3.482   3.831
 2348SOL    HW2 9422   3.234   3.508   3.805
 2348SOL    HW3 9423   3.146   3.387   3.828
 2348SOL    MW4 9424   3.157   3.473   3.827
 2349SOL     OW 9425   3.408   3.553   3.766
 2349SOL    HW2 9426   3.412   3.643   3.799
 2349SOL    HW3 9427   3.407   3.563   3.671
 2349SOL    MW4 9428   3.408   3.566   3.758
 2350SOL     OW 9429   3.400   3.853   3.825
 2350SOL    HW2 9430   3.453   3.918   3.779
 2350SOL    HW3 9431   3.311   3.865   3.791
 2350SOL    MW4 9432   3.395   3.863   3.815
 2351SOL     OW 9433   3.131   3.916   3.743
 2351SOL    HW2 9434   3.138   4.011   3.758
 2351SOL    HW3 9435   3.047   3.892   3.782
 2351SOL    MW4 9436   3.121   3.926   3.750
 2352SOL     OW 9437   3.149   4.183   3.813
 2352SOL    HW2 9438   3.133   4.193   3.907
 2352SOL    HW3 9439   3.215   4.249   3.793
 2352SOL    MW4 9440   3.156   4.193   3.823
 2353SOL     OW 9441   3.346   4.377   3.730
 2353SOL    HW2 9442   3.419   4.337   3.778
 2353SOL    HW3 9443   3.353   4.470   3.749
 2353SOL    MW4 9444   3.357   4.384   3.739
 2354SOL     OW 9445   3.779   4.667   3.864
 2354SOL    HW2 9446   3.866   4.700   3.842
 2354SOL    HW3 9447   3.777   4.579   3.826
 2354SOL    MW4 9448   3.790   4.660   3.856
 2355SOL     OW 9449   3.562   0.113   3.761
 2355SOL    HW2 9450   3.640   0.074   3.799
 2355SOL    HW3 9451   3.587   0.135   3.671
 2355SOL    MW4 9452   3.575   0.111   3.754
 2356SOL     OW 9453   3.573   0.364   3.896
 2356SOL    HW2 9454   3.661   0.395   3.875
 2356SOL    HW3 9455   3.567   0.279   3.853
 2356SOL    MW4 9456   3.584   0.357   3.888
 2357SOL     OW 9457   3.787   0.481   3.713
 2357SOL    HW2 9458   3.862   0.436   3.752
 2357SOL    HW3 9459   3.775   0.559   3.767
 2357SOL    MW4 9460   3.795   0.486   3.725
 2358SOL     OW 9461   3.764   0.721   3.846
 2358SOL    HW2 9462   3.844   0.762   3.816
 2358SOL    HW3 9463   3.694   0.765   3.797
 2358SOL    MW4 9464   3.765   0.733   3.836
 2359SOL     OW 9465   3.584   0.897   3.726
 2359SOL    HW2 9466   3.577   0.980   3.773
 2359SOL    HW3 9467   3.518   0.841   3.766
 2359SOL    MW4 9468   3.574   0.900   3.738
 2360SOL     OW 9469   3.580   1.156   3.851
 2360SOL    HW2 9470   3.650   1.206   3.810
 2360SOL    HW3 9471   3.503   1.213   3.845
 2360SOL    MW4 9472   3.579   1.170   3.845
 2361SOL     OW 9473   3.800   1.291   3.744
 2361SOL    HW2 9474   3.852   1.229   3.796
 2361SOL    HW3 9475   3.783   1.364   3.804
 2361SOL    MW4 9476   3.805   1.293   3.759
 2362SOL     OW 9477   3.790   1.535   3.876
 2362SOL    HW2 9478   3.815   1.552   3.967
 2362SOL    HW3 9479   3.729   1.606   3.854
 2362SOL    MW4 9480   3.785   1.547   3.885
 2363SOL     OW 9481   3.595   1.701   3.793
 2363SOL    HW2 9482   3.514   1.662   3.826
 2363SOL    HW3 9483   3.586   1.698   3.698
 2363SOL    MW4 9484   3.583   1.696   3.785
 2364SOL     OW 9485   3.565   1.960   3.935
 2364SOL    HW2 9486   3.564   1.877   3.888
 2364SOL    HW3 9487   3.500   2.014   3.890
 2364SOL    MW4 9488   3.556   1.956   3.923
 2365SOL     OW 9489   3.797   2.022   3.812
 2365SOL    HW2 9490   3.869   1.978   3.857
 2365SOL    HW3 9491   3.719   1.999   3.864
 2365SOL    MW4 9492   3.796   2.013   3.825
 2366SOL     OW 9493   3.819   2.303   3.868
 2366SOL    HW2 9494   3.738   2.345   3.840
 2366SOL    HW3 9495   3.811   2.213   3.839
 2366SOL    MW4 9496   3.807   2.297   3.861
 2367SOL     OW 9497   3.591   2.452   3.797
 2367SOL    HW2 9498   3.505   2.412   3.809
 2367SOL    HW3 9499   3.597   2.469   3.703
 2367SOL    MW4 9500   3.581   2.449   3.786
 2368SOL     OW 9501   3.596   2.688   3.924
 2368SOL    HW2 9502   3.606   2.603   3.882
 2368SOL    HW3 9503   3.510   2.720   3.895
 2368SOL    MW4 9504   3.586   2.681   3.915
 2369SOL     OW 9505   3.771   2.817   3.749
 2369SOL    HW2 9506   3.855   2.771   3.758
 2369SOL    HW3 9507   3.713   2.773   3.811
 2369SOL    MW4 9508   3.774   2.805   3.758
 2370SOL     OW 9509   3.810   3.080   3.869
 2370SOL    HW2 9510   3.735   3.135   3.846
 2370SOL    HW3 9511   3.795   2.998   3.822
 2370SOL    MW4 9512   3.799   3.077   3.860
 2371SOL     OW 9513   3.580   3.193   3.774
 2371SOL    HW2 9514   3.585   3.284   3.803
 2371SOL    HW3 9515   3.595   3.197   3.679
 2371SOL    MW4 9516   3.582   3.205   3.765
 2372SOL     OW 9517   3.637   3.442   3.847
 2372SOL    HW2 9518   3.633   3.470   3.939
 2372SOL    HW3 9519   3.558   3.481   3.808
 2372SOL    MW4 9520   3.626   3.451   3.854
 2373SOL     OW 9521   3.819   3.619   3.761
 2373SOL    HW2 9522   3.804   3.705   3.801
 2373SOL    HW3 9523   3.758   3.561   3.805
 2373SOL    MW4 9524   3.809   3.623   3.772
 2374SOL     OW 9525   3.794   3.872   3.883
 2374SOL    HW2 9526   3.827   3.861   3.972
 2374SOL    HW3 9527   3.864   3.919   3.837
 2374SOL    MW4 9528   3.808   3.877   3.888
 2375SOL     OW 9529   3.595   4.023   3.753
 2375SOL    HW2 9530   3.595   4.109   3.795
 2375SOL    HW3 9531   3.655   3.971   3.807
 2375SOL    MW4 9532   3.603   4.028   3.766
 2376SOL     OW 9533   3.559   4.267   3.876
 2376SOL    HW2 9534   3.572   4.255   3.970
 2376SOL    HW3 9535   3.632   4.323   3.848
 2376SOL    MW4 9536   3.570   4.273   3.884
 2377SOL     OW 9537   3.778   4.404   3.777
 2377SOL    HW2 9538   3.842   4.350   3.823
 2377SOL    HW3 9539   3.779   4.372   3.687
 2377SOL    MW4 9540   3.786   4.393   3.771
 2378SOL     OW 9541   4.261   4.625   3.861
 2378SOL    HW2 9542   4.265   4.633   3.956
 2378SOL    HW3 9543   4.341   4.668   3.829
 2378SOL    MW4 9544   4.272   4.632   3.869
 2379SOL     OW 9545   4.022   0.092   3.764
 2379SOL    HW2 9546   4.080   0.021   3.793
 2379SOL    HW3 9547   4.026   0.089   3.669
 2379SOL    MW4 9548   4.030   0.082   3.755
 2380SOL     OW 9549   4.009   0.359   3.819
 2380SOL    HW2 9550   4.025   0.372   3.913
 2380SOL    HW3 9551   4.020   0.265   3.806
 2380SOL    MW4 9552   4.012   0.348   3.830
 2381SOL     OW 9553   4.226   0.513   3.736
 2381SOL    HW2 9554   4.161   0.455   3.775
 2381SOL    HW3 9555   4.200   0.519   3.644
 2381SOL    MW4 9556   4.214   0.506   3.729
 2382SOL     OW 9557   4.243   0.777   3.850
 2382SOL    HW2 9558   4.153   0.806   3.833
 2382SOL    HW3 9559   4.246   0.687   3.817
 2382SOL    MW4 9560   4.231   0.769   3.843
 2383SOL     OW 9561   3.986   0.856   3.774
 2383SOL    HW2 9562   3.978   0.944   3.811
 2383SOL    HW3 9563   4.008   0.871   3.682
 2383SOL    MW4 9564   3.988   0.870   3.767
 2384SOL     OW 9565   3.989   1.117   3.848
 2384SOL    HW2 9566   3.997   1.127   3.943
 2384SOL    HW3 9567   4.062   1.169   3.813
 2384SOL    MW4 9568   4.000   1.125   3.856
 2385SOL     OW 9569   4.248   1.252   3.770
 2385SOL    HW2 9570   4.262   1.331   3.821
 2385SOL    HW3 9571   4.262   1.278   3.679
 2385SOL    MW4 9572   4.252   1.266   3.765
 2386SOL     OW 9573   4.281   1.507   3.868
 2386SOL    HW2 9574   4.199   1.556   3.859
 2386SOL    HW3 9575   4.349   1.567   3.838
 2386SOL    MW4 9576   4.279   1.521   3.862
 2387SOL     OW 9577   4.047   1.644   3.790
 2387SOL    HW2 9578   4.061   1.728   3.832
 2387SOL    HW3 9579   3.960   1.616   3.818
 2387SOL    MW4 9580   4.037   1.651   3.799
 2388SOL     OW 9581   4.036   1.919   3.916
 2388SOL    HW2 9582   4.023   1.932   4.010
 2388SOL    HW3 9583   4.089   1.994   3.889
 2388SOL    MW4 9584   4.041   1.930   3.925
 2389SOL     OW 9585   4.209   2.093   3.782
 2389SOL    HW2 9586   4.200   2.184   3.810
 2389SOL    HW3 9587   4.205   2.097   3.687
 2389SOL    MW4 9588   4.207   2.106   3.773
 2390SOL     OW 9589   4.253   2.376   3.831
 2390SOL    HW2 9590   4.236   2.375   3.926
 2390SOL    HW3 9591   4.168   2.394   3.792
 2390SOL    MW4 9592   4.239   2.378   3.839
 2391SOL     OW 9593   4.006   2.435   3.737
 2391SOL    HW2 9594   3.988   2.528   3.754
 2391SOL    HW3 9595   3.941   2.388   3.788
 2391SOL    MW4 9596   3.995   2.441   3.746
 2392SOL     OW 9597   4.016   2.699   3.797
 2392SOL    HW2 9598   4.002   2.722   3.889
 2392SOL    HW3 9599   4.104   2.732   3.777
 2392SOL    MW4 9600   4.026   2.706   3.807
 2393SOL     OW 9601   4.264   2.829   3.747
 2393SOL    HW2 9602   4.245   2.910   3.794
 2393SOL    HW3 9603   4.337   2.789   3.795
 2393SOL    MW4 9604   4.271   2.834   3.760
 2394SOL     OW 9605   4.259   3.063   3.887
 2394SOL    HW2 9606   4.172   3.100   3.873
 2394SOL    HW3 9607   4.319   3.129   3.853
 2394SOL    MW4 9608   4.256   3.077   3.881
 2395SOL     OW 9609   4.028   3.203   3.794
 2395SOL    HW2 9610   3.952   3.161   3.834
 2395SOL    HW3 9611   4.029   3.170   3.704
 2395SOL    MW4 9612   4.018   3.193   3.787
 2396SOL     OW 9613   4.061   3.482   3.819
 2396SOL    HW2 9614   4.039   3.394   3.790
 2396SOL    HW3 9615   3.982   3.533   3.802
 2396SOL    MW4 9616   4.048   3.477   3.813
 2397SOL     OW 9617   4.262   3.654   3.732
 2397SOL    HW2 9618   4.187   3.601   3.760
 2397SOL    HW3 9619   4.338   3.610   3.771
 2397SOL    MW4 9620   4.262   3.641   3.741
 2398SOL     OW 9621   4.226   3.911   3.812
 2398SOL    HW2 9622   4.133   3.929   3.799
 2398SOL    HW3 9623   4.235   3.817   3.791
 2398SOL    MW4 9624   4.215   3.901   3.807
 2399SOL     OW 9625   3.979   4.024   3.754
 2399SOL    HW2 9626   3.990   4.114   3.786
 2399SOL    HW3 9627   3.987   4.032   3.659
 2399SOL    MW4 9628   3.981   4.037   3.745
 2400SOL     OW 9629   4.012   4.265   3.881
 2400SOL    HW2 9630   4.030   4.265   3.975
 2400SOL    HW3 9631   4.080   4.321   3.844
 2400SOL    MW4 9632   4.023   4.272   3.888
 2401SOL     OW 9633   4.235   4.369   3.763
 2401SOL    HW2 9634   4.243   4.457   3.801
 2401SOL    HW3 9635   4.320   4.328   3.782
 2401SOL    MW4 9636   4.247   4.375   3.770
 2402SOL     OW 9637   0.239   0.017   4.146
 2402SOL    HW2 9638   0.324   0.050   4.175
 2402SOL    HW3 9639   0.246  -0.078   4.158
 2402SOL    MW4 9640   0.251   0.009   4.151
 2403SOL     OW 9641   4.478   0.137   4.235
 2403SOL    HW2 9642   4.474   0.118   4.328
 2403SOL    HW3 9643   4.558   0.094   4.205
 2403SOL    MW4 9644   4.488   0.129   4.243
 2404SOL     OW 9645   4.453   0.383   4.110
 2404SOL    HW2 9646   4.457   0.297   4.151
 2404SOL    HW3 9647   4.461   0.365   4.016
 2404SOL    MW4 9648   4.454   0.370   4.103
 2405SOL     OW 9649   0.206   0.537   4.197
 2405SOL    HW2 9650   0.279   0.487   4.160
 2405SOL    HW3 9651   0.128   0.492   4.165
 2405SOL    MW4 9652   0.205   0.524   4.188
 2406SOL     OW 9653   0.187   0.790   4.103
 2406SOL    HW2 9654   0.130   0.831   4.168
 2406SOL    HW3 9655   0.202   0.701   4.136
 2406SOL    MW4 9656   0.181   0.783   4.116
 2407SOL     OW 9657   4.462   0.896   4.287
 2407SOL    HW2 9658   4.386   0.856   4.247
 2407SOL    HW3 9659   4.467   0.983   4.249
 2407SOL    MW4 9660   4.453   0.902   4.277
 2408SOL     OW 9661   4.490   1.165   4.172
 2408SOL    HW2 9662   4.571   1.207   4.203
 2408SOL    HW3 9663   4.509   1.144   4.081
 2408SOL    MW4 9664   4.503   1.168   4.164
 2409SOL     OW 9665   0.221   1.284   4.286
 2409SOL    HW2 9666   0.242   1.250   4.372
 2409SOL    HW3 9667   0.289   1.249   4.228
 2409SOL    MW4 9668   0.233   1.275   4.289
 2410SOL     OW 9669   0.494   1.782   4.634
 2410SOL    HW2 9670   0.436   1.853   4.660
 2410SOL    HW3 9671   0.437   1.721   4.586
 2410SOL    MW4 9672   0.479   1.783   4.631
 2411SOL     OW 9673   4.381   1.736   4.278
 2411SOL    HW2 9674   4.357   1.675   4.208
 2411SOL    HW3 9675   4.412   1.814   4.231
 2411SOL    MW4 9676   4.382   1.738   4.262
 2412SOL     OW 9677   0.180   2.069   4.247
 2412SOL    HW2 9678   0.209   2.096   4.334
 2412SOL    HW3 9679   0.253   2.018   4.212
 2412SOL    MW4 9680   0.194   2.066   4.254
 2413SOL     OW 9681   0.480   1.383   4.610
 2413SOL    HW2 9682   0.429   1.461   4.587
 2413SOL    HW3 9683   0.491   1.390   4.705
 2413SOL    MW4 9684   0.474   1.395   4.619
 2414SOL     OW 9685   0.194   2.327   4.084
 2414SOL    HW2 9686   0.253   2.376   4.141
 2414SOL    HW3 9687   0.180   2.244   4.131
 2414SOL    MW4 9688   0.200   2.322   4.098
 2415SOL     OW 9689   4.456   2.444   4.204
 2415SOL    HW2 9690   4.374   2.421   4.161
 2415SOL    HW3 9691   4.524   2.401   4.152
 2415SOL    MW4 9692   4.454   2.436   4.192
 2416SOL     OW 9693   4.448   2.714   4.148
 2416SOL    HW2 9694   4.528   2.765   4.164
 2416SOL    HW3 9695   4.466   2.629   4.188
 2416SOL    MW4 9696   4.461   2.710   4.155
 2417SOL     OW 9697   0.197   2.845   4.173
 2417SOL    HW2 9698   0.277   2.801   4.144
 2417SOL    HW3 9699   0.211   2.937   4.152
 2417SOL    MW4 9700   0.209   2.851   4.166
 2418SOL     OW 9701   0.224   3.125   4.125
 2418SOL    HW2 9702   0.303   3.162   4.165
 2418SOL    HW3 9703   0.152   3.167   4.170
 2418SOL    MW4 9704   0.225   3.135   4.136
 2419SOL     OW 9705   0.021   3.253   4.264
 2419SOL    HW2 9706  -0.058   3.203   4.243
 2419SOL    HW3 9707   0.009   3.336   4.219
 2419SOL    MW4 9708   0.009   3.257   4.255
 2420SOL     OW 9709   4.475   3.488   4.128
 2420SOL    HW2 9710   4.395   3.523   4.166
 2420SOL    HW3 9711   4.473   3.516   4.037
 2420SOL    MW4 9712   4.464   3.496   4.121
 2421SOL     OW 9713   0.217   3.610   4.269
 2421SOL    HW2 9714   0.290   3.560   4.232
 2421SOL    HW3 9715   0.139   3.573   4.227
 2421SOL    MW4 9716   0.216   3.599   4.258
 2422SOL     OW 9717   0.077   4.006   4.082
 2422SOL    HW2 9718  -0.004   3.955   4.092
 2422SOL    HW3 9719   0.130   3.979   4.157
 2422SOL    MW4 9720   0.073   3.995   4.094
 2423SOL     OW 9721   0.056   4.000   4.469
 2423SOL    HW2 9722   0.118   3.973   4.536
 2423SOL    HW3 9723  -0.019   3.941   4.479
 2423SOL    MW4 9724   0.054   3.989   4.479
 2424SOL     OW 9725   0.004   4.274   4.119
 2424SOL    HW2 9726   0.022   4.180   4.121
 2424SOL    HW3 9727   0.001   4.296   4.025
 2424SOL    MW4 9728   0.006   4.265   4.107
 2425SOL     OW 9729   0.214   4.404   4.235
 2425SOL    HW2 9730   0.184   4.443   4.317
 2425SOL    HW3 9731   0.141   4.350   4.206
 2425SOL    MW4 9732   0.201   4.402   4.242
 2426SOL     OW 9733   0.671   4.616   4.133
 2426SOL    HW2 9734   0.593   4.664   4.162
 2426SOL    HW3 9735   0.681   4.641   4.041
 2426SOL    MW4 9736   0.662   4.626   4.125
 2427SOL     OW 9737   0.495   0.127   4.229
 2427SOL    HW2 9738   0.462   0.136   4.318
 2427SOL    HW3 9739   0.487   0.215   4.191
 2427SOL    MW4 9740   0.490   0.140   4.235
 2428SOL     OW 9741   0.432   0.378   4.139
 2428SOL    HW2 9742   0.504   0.428   4.177
 2428SOL    HW3 9743   0.450   0.377   4.045
 2428SOL    MW4 9744   0.444   0.384   4.132
 2429SOL     OW 9745   0.625   0.529   4.254
 2429SOL    HW2 9746   0.692   0.482   4.205
 2429SOL    HW3 9747   0.629   0.619   4.221
 2429SOL    MW4 9748   0.634   0.535   4.243
 2430SOL     OW 9749   0.645   0.795   4.164
 2430SOL    HW2 9750   0.566   0.847   4.176
 2430SOL    HW3 9751   0.654   0.787   4.068
 2430SOL    MW4 9752   0.636   0.801   4.153
 2431SOL     OW 9753   0.420   0.921   4.216
 2431SOL    HW2 9754   0.414   1.010   4.180
 2431SOL    HW3 9755   0.342   0.876   4.184
 2431SOL    MW4 9756   0.409   0.927   4.207
 2432SOL     OW 9757   0.412   1.188   4.122
 2432SOL    HW2 9758   0.484   1.241   4.155
 2432SOL    HW3 9759   0.427   1.183   4.028
 2432SOL    MW4 9760   0.424   1.194   4.114
 2433SOL     OW 9761   0.654   1.316   4.228
 2433SOL    HW2 9762   0.697   1.308   4.313
 2433SOL    HW3 9763   0.640   1.410   4.216
 2433SOL    MW4 9764   0.658   1.327   4.237
 2434SOL     OW 9765   0.599   1.581   4.125
 2434SOL    HW2 9766   0.692   1.594   4.147
 2434SOL    HW3 9767   0.599   1.565   4.031
 2434SOL    MW4 9768   0.612   1.580   4.115
 2435SOL     OW 9769   0.197   1.536   4.114
 2435SOL    HW2 9770   0.214   1.457   4.165
 2435SOL    HW3 9771   0.105   1.556   4.130
 2435SOL    MW4 9772   0.187   1.528   4.122
 2436SOL     OW 9773   0.428   1.954   4.155
 2436SOL    HW2 9774   0.410   1.863   4.180
 2436SOL    HW3 9775   0.425   1.953   4.059
 2436SOL    MW4 9776   0.425   1.942   4.146
 2437SOL     OW 9777   0.667   2.098   4.184
 2437SOL    HW2 9778   0.668   2.107   4.280
 2437SOL    HW3 9779   0.592   2.041   4.166
 2437SOL    MW4 9780   0.657   2.091   4.194
 2438SOL     OW 9781   0.599   2.351   4.093
 2438SOL    HW2 9782   0.630   2.267   4.126
 2438SOL    HW3 9783   0.606   2.344   3.997
 2438SOL    MW4 9784   0.604   2.339   4.084
 2439SOL     OW 9785   0.399   2.470   4.257
 2439SOL    HW2 9786   0.419   2.554   4.216
 2439SOL    HW3 9787   0.461   2.409   4.217
 2439SOL    MW4 9788   0.409   2.473   4.246
 2440SOL     OW 9789   0.426   2.720   4.123
 2440SOL    HW2 9790   0.499   2.754   4.174
 2440SOL    HW3 9791   0.454   2.725   4.032
 2440SOL    MW4 9792   0.439   2.725   4.118
 2441SOL     OW 9793   0.642   2.833   4.260
 2441SOL    HW2 9794   0.658   2.836   4.354
 2441SOL    HW3 9795   0.655   2.923   4.231
 2441SOL    MW4 9796   0.646   2.845   4.268
 2442SOL     OW 9797   0.647   3.095   4.146
 2442SOL    HW2 9798   0.717   3.143   4.189
 2442SOL    HW3 9799   0.567   3.125   4.190
 2442SOL    MW4 9800   0.646   3.105   4.157
 2443SOL     OW 9801   0.433   3.230   4.272
 2443SOL    HW2 9802   0.416   3.236   4.366
 2443SOL    HW3 9803   0.444   3.320   4.243
 2443SOL    MW4 9804   0.432   3.242   4.281
 2444SOL     OW 9805   0.450   3.491   4.176
 2444SOL    HW2 9806   0.523   3.535   4.219
 2444SOL    HW3 9807   0.467   3.502   4.082
 2444SOL    MW4 9808   0.462   3.498   4.169
 2445SOL     OW 9809   0.672   3.647   4.280
 2445SOL    HW2 9810   0.693   3.652   4.373
 2445SOL    HW3 9811   0.746   3.601   4.241
 2445SOL    MW4 9812   0.684   3.641   4.287
 2446SOL     OW 9813   0.744   3.900   4.222
 2446SOL    HW2 9814   0.672   3.959   4.244
 2446SOL    HW3 9815   0.705   3.813   4.226
 2446SOL    MW4 9816   0.729   3.896   4.225
 2447SOL     OW 9817   0.501   4.005   4.303
 2447SOL    HW2 9818   0.479   4.088   4.261
 2447SOL    HW3 9819   0.423   3.950   4.290
 2447SOL    MW4 9820   0.488   4.008   4.296
 2448SOL     OW 9821   0.439   4.239   4.195
 2448SOL    HW2 9822   0.365   4.295   4.218
 2448SOL    HW3 9823   0.441   4.240   4.099
 2448SOL    MW4 9824   0.429   4.247   4.185
 2449SOL     OW 9825   0.675   4.362   4.229
 2449SOL    HW2 9826   0.589   4.319   4.225
 2449SOL    HW3 9827   0.657   4.453   4.203
 2449SOL    MW4 9828   0.661   4.369   4.225
 2450SOL     OW 9829   1.057   4.615   4.132
 2450SOL    HW2 9830   1.009   4.534   4.146
 2450SOL    HW3 9831   1.062   4.623   4.037
 2450SOL    MW4 9832   1.052   4.605   4.121
 2451SOL     OW 9833   0.864   0.134   4.204
 2451SOL    HW2 9834   0.938   0.080   4.179
 2451SOL    HW3 9835   0.787   0.084   4.177
 2451SOL    MW4 9836   0.863   0.120   4.197
 2452SOL     OW 9837   0.809   0.386   4.121
 2452SOL    HW2 9838   0.894   0.428   4.138
 2452SOL    HW3 9839   0.824   0.294   4.140
 2452SOL    MW4 9840   0.822   0.380   4.126
 2453SOL     OW 9841   1.045   0.527   4.187
 2453SOL    HW2 9842   1.038   0.539   4.282
 2453SOL    HW3 9843   1.119   0.468   4.175
 2453SOL    MW4 9844   1.054   0.521   4.198
 2454SOL     OW 9845   1.073   0.814   4.097
 2454SOL    HW2 9846   1.150   0.853   4.138
 2454SOL    HW3 9847   1.066   0.728   4.138
 2454SOL    MW4 9848   1.082   0.808   4.108
 2455SOL     OW 9849   0.856   0.920   4.270
 2455SOL    HW2 9850   0.932   0.895   4.218
 2455SOL    HW3 9851   0.782   0.876   4.227
 2455SOL    MW4 9852   0.856   0.911   4.258
 2456SOL     OW 9853   0.843   1.154   4.121
 2456SOL    HW2 9854   0.838   1.076   4.175
 2456SOL    HW3 9855   0.761   1.201   4.139
 2456SOL    MW4 9856   0.831   1.150   4.130
 2457SOL     OW 9857   1.086   1.217   4.209
 2457SOL    HW2 9858   1.055   1.215   4.300
 2457SOL    HW3 9859   1.010   1.186   4.158
 2457SOL    MW4 9860   1.072   1.212   4.214
 2458SOL     OW 9861   1.136   1.501   4.159
 2458SOL    HW2 9862   1.058   1.554   4.177
 2458SOL    HW3 9863   1.112   1.413   4.186
 2458SOL    MW4 9864   1.122   1.497   4.165
 2459SOL     OW 9865   0.869   1.636   4.196
 2459SOL    HW2 9866   0.865   1.640   4.291
 2459SOL    HW3 9867   0.864   1.728   4.168
 2459SOL    MW4 9868   0.868   1.649   4.205
 2460SOL     OW 9869   0.867   1.925   4.125
 2460SOL    HW2 9870   0.791   1.979   4.143
 2460SOL    HW3 9871   0.887   1.940   4.032
 2460SOL    MW4 9872   0.860   1.934   4.115
 2461SOL     OW 9873   1.102   2.023   4.241
 2461SOL    HW2 9874   1.113   1.990   4.330
 2461SOL    HW3 9875   1.018   1.986   4.212
 2461SOL    MW4 9876   1.092   2.013   4.249
 2462SOL     OW 9877   1.062   2.278   4.134
 2462SOL    HW2 9878   1.139   2.329   4.159
 2462SOL    HW3 9879   1.081   2.189   4.163
 2462SOL    MW4 9880   1.075   2.273   4.141
 2463SOL     OW 9881   0.845   2.441   4.195
 2463SOL    HW2 9882   0.905   2.374   4.163
 2463SOL    HW3 9883   0.760   2.417   4.157
 2463SOL    MW4 9884   0.841   2.429   4.185
 2464SOL     OW 9885   0.861   2.711   4.142
 2464SOL    HW2 9886   0.853   2.619   4.170
 2464SOL    HW3 9887   0.780   2.751   4.172
 2464SOL    MW4 9888   0.849   2.704   4.150
 2465SOL     OW 9889   1.094   2.826   4.262
 2465SOL    HW2 9890   1.112   2.909   4.218
 2465SOL    HW3 9891   1.018   2.791   4.217
 2465SOL    MW4 9892   1.086   2.832   4.250
 2466SOL     OW 9893   1.105   3.063   4.084
 2466SOL    HW2 9894   1.198   3.082   4.091
 2466SOL    HW3 9895   1.083   3.085   3.993
 2466SOL    MW4 9896   1.114   3.069   4.073
 2467SOL     OW 9897   0.888   3.212   4.228
 2467SOL    HW2 9898   0.920   3.249   4.310
 2467SOL    HW3 9899   0.964   3.165   4.192
 2467SOL    MW4 9900   0.902   3.211   4.234
 2468SOL     OW 9901   0.867   3.493   4.171
 2468SOL    HW2 9902   0.881   3.400   4.185
 2468SOL    HW3 9903   0.876   3.506   4.077
 2468SOL    MW4 9904   0.870   3.483   4.161
 2469SOL     OW 9905   1.079   3.576   4.319
 2469SOL    HW2 9906   1.058   3.668   4.340
 2469SOL    HW3 9907   1.006   3.546   4.265
 2469SOL    MW4 9908   1.067   3.584   4.315
 2470SOL     OW 9909   1.073   3.865   4.139
 2470SOL    HW2 9910   1.151   3.909   4.173
 2470SOL    HW3 9911   1.000   3.907   4.185
 2470SOL    MW4 9912   1.073   3.877   4.149
 2471SOL     OW 9913   0.908   3.821   4.421
 2471SOL    HW2 9914   0.955   3.898   4.453
 2471SOL    HW3 9915   0.852   3.854   4.351
 2471SOL    MW4 9916   0.907   3.836   4.416
 2472SOL     OW 9917   0.936   4.355   4.124
 2472SOL    HW2 9918   0.998   4.309   4.181
 2472SOL    HW3 9919   0.850   4.330   4.158
 2472SOL    MW4 9920   0.933   4.345   4.136
 2473SOL     OW 9921   1.133   4.229   4.278
 2473SOL    HW2 9922   1.176   4.298   4.327
 2473SOL    HW3 9923   1.199   4.199   4.215
 2473SOL    MW4 9924   1.147   4.234   4.276
 2474SOL     OW 9925   1.570   4.601   4.139
 2474SOL    HW2 9926   1.639   4.661   4.169
 2474SOL    HW3 9927   1.489   4.639   4.173
 2474SOL    MW4 9928   1.568   4.614   4.147
 2475SOL     OW 9929   1.305   4.644   4.260
 2475SOL    HW2 9930   1.299   4.732   4.299
 2475SOL    HW3 9931   1.220   4.630   4.218
 2475SOL    MW4 9932   1.293   4.654   4.260
 2476SOL     OW 9933   1.311   0.398   4.164
 2476SOL    HW2 9934   1.399   0.432   4.181
 2476SOL    HW3 9935   1.293   0.340   4.239
 2476SOL    MW4 9936   1.320   0.395   4.176
 2477SOL     OW 9937   1.555   0.512   4.234
 2477SOL    HW2 9938   1.557   0.531   4.328
 2477SOL    HW3 9939   1.558   0.598   4.192
 2477SOL    MW4 9940   1.556   0.526   4.241
 2478SOL     OW 9941   1.553   0.771   4.134
 2478SOL    HW2 9942   1.623   0.829   4.163
 2478SOL    HW3 9943   1.559   0.773   4.038
 2478SOL    MW4 9944   1.563   0.779   4.125
 2479SOL     OW 9945   1.306   0.884   4.233
 2479SOL    HW2 9946   1.326   0.974   4.207
 2479SOL    HW3 9947   1.381   0.833   4.202
 2479SOL    MW4 9948   1.318   0.890   4.226
 2480SOL     OW 9949   1.329   1.127   4.111
 2480SOL    HW2 9950   1.249   1.174   4.133
 2480SOL    HW3 9951   1.333   1.130   4.015
 2480SOL    MW4 9952   1.319   1.133   4.101
 2481SOL     OW 9953   1.559   1.290   4.184
 2481SOL    HW2 9954   1.565   1.281   4.279
 2481SOL    HW3 9955   1.475   1.248   4.162
 2481SOL    MW4 9956   1.548   1.283   4.193
 2482SOL     OW 9957   1.573   1.555   4.104
 2482SOL    HW2 9958   1.501   1.596   4.152
 2482SOL    HW3 9959   1.572   1.463   4.133
 2482SOL    MW4 9960   1.563   1.548   4.115
 2483SOL     OW 9961   1.363   1.664   4.220
 2483SOL    HW2 9962   1.343   1.757   4.209
 2483SOL    HW3 9963   1.282   1.618   4.198
 2483SOL    MW4 9964   1.350   1.670   4.215
 2484SOL     OW 9965   1.323   1.919   4.112
 2484SOL    HW2 9966   1.397   1.969   4.148
 2484SOL    HW3 9967   1.246   1.956   4.155
 2484SOL    MW4 9968   1.323   1.931   4.122
 2485SOL     OW 9969   1.557   2.042   4.227
 2485SOL    HW2 9970   1.637   1.993   4.207
 2485SOL    HW3 9971   1.583   2.133   4.218
 2485SOL    MW4 9972   1.571   2.047   4.223
 2486SOL     OW 9973   1.547   2.329   4.182
 2486SOL    HW2 9974   1.591   2.406   4.219
 2486SOL    HW3 9975   1.561   2.337   4.088
 2486SOL    MW4 9976   1.555   2.340   4.175
 2487SOL     OW 9977   1.521   2.885   4.171
 2487SOL    HW2 9978   1.531   2.848   4.258
 2487SOL    HW3 9979   1.611   2.898   4.140
 2487SOL    MW4 9980   1.534   2.882   4.178
 2488SOL     OW 9981   1.300   2.699   4.113
 2488SOL    HW2 9982   1.370   2.759   4.138
 2488SOL    HW3 9983   1.224   2.728   4.164
 2488SOL    MW4 9984   1.299   2.711   4.123
 2489SOL     OW 9985   1.546   2.343   4.566
 2489SOL    HW2 9986   1.556   2.397   4.644
 2489SOL    HW3 9987   1.623   2.287   4.566
 2489SOL    MW4 9988   1.558   2.343   4.576
 2490SOL     OW 9989   1.378   3.108   4.128
 2490SOL    HW2 9990   1.406   3.183   4.180
 2490SOL    HW3 9991   1.442   3.040   4.148
 2490SOL    MW4 9992   1.390   3.109   4.137
 2491SOL     OW 9993   1.408   3.335   4.296
 2491SOL    HW2 9994   1.503   3.346   4.294
 2491SOL    HW3 9995   1.373   3.423   4.285
 2491SOL    MW4 9996   1.416   3.348   4.294
 2492SOL     OW 9997   1.335   3.594   4.203
 2492SOL    HW2 9998   1.241   3.595   4.220
 2492SOL    HW3 9999   1.343   3.573   4.110
 2492SOL    MW410000   1.324   3.591   4.193
 2493SOL     OW10001   1.630   3.683   4.380
 2493SOL    HW210002   1.673   3.666   4.464
 2493SOL    HW310003   1.536   3.679   4.399
 2493SOL    MW410004   1.623   3.680   4.393
 2494SOL     OW10005   1.592   3.865   4.155
 2494SOL    HW210006   1.504   3.884   4.189
 2494SOL    HW310007   1.625   3.795   4.211
 2494SOL    MW410008   1.585   3.859   4.167
 2495SOL     OW10009   1.327   3.947   4.237
 2495SOL    HW210010   1.311   3.964   4.330
 2495SOL    HW310011   1.351   4.032   4.201
 2495SOL    MW410012   1.328   3.960   4.244
 2496SOL     OW10013   1.417   4.183   4.134
 2496SOL    HW210014   1.482   4.246   4.164
 2496SOL    HW310015   1.386   4.218   4.051
 2496SOL    MW410016   1.421   4.196   4.127
 2497SOL     OW10017   1.620   4.351   4.243
 2497SOL    HW210018   1.609   4.436   4.201
 2497SOL    HW310019   1.708   4.322   4.218
 2497SOL    MW410020   1.630   4.358   4.234
 2498SOL     OW10021   1.994   4.619   4.196
 2498SOL    HW210022   1.917   4.672   4.216
 2498SOL    HW310023   2.000   4.619   4.101
 2498SOL    MW410024   1.985   4.626   4.186
 2499SOL     OW10025   1.761   0.118   4.216
 2499SOL    HW210026   1.759   0.128   4.311
 2499SOL    HW310027   1.770   0.207   4.183
 2499SOL    MW410028   1.762   0.131   4.224
 2500SOL     OW10029   1.758   0.361   4.104
 2500SOL    HW210030   1.828   0.412   4.147
 2500SOL    HW310031   1.678   0.390   4.146
 2500SOL    MW410032   1.757   0.372   4.115
 2501SOL     OW10033   1.969   0.508   4.212
 2501SOL    HW210034   1.964   0.485   4.305
 2501SOL    HW310035   2.042   0.458   4.178
 2501SOL    MW410036   1.978   0.499   4.220
 2502SOL     OW10037   1.976   0.748   4.098
 2502SOL    HW210038   2.061   0.778   4.130
 2502SOL    HW310039   1.961   0.664   4.140
 2502SOL    MW410040   1.985   0.741   4.108
 2503SOL     OW10041   1.770   0.897   4.222
 2503SOL    HW210042   1.748   0.979   4.177
 2503SOL    HW310043   1.840   0.858   4.168
 2503SOL    MW410044   1.777   0.902   4.209
 2504SOL     OW10045   1.785   1.141   4.103
 2504SOL    HW210046   1.860   1.195   4.126
 2504SOL    HW310047   1.710   1.186   4.141
 2504SOL    MW410048   1.785   1.154   4.111
 2505SOL     OW10049   2.022   1.256   4.220
 2505SOL    HW210050   2.097   1.205   4.189
 2505SOL    HW310051   2.046   1.347   4.204
 2505SOL    MW410052   2.035   1.261   4.214
 2506SOL     OW10053   2.023   1.544   4.147
 2506SOL    HW210054   2.089   1.607   4.175
 2506SOL    HW310055   2.012   1.561   4.053
 2506SOL    MW410056   2.030   1.555   4.138
 2507SOL     OW10057   1.785   1.657   4.230
 2507SOL    HW210058   1.863   1.620   4.191
 2507SOL    HW310059   1.713   1.624   4.176
 2507SOL    MW410060   1.786   1.648   4.218
 2508SOL     OW10061   1.809   1.910   4.114
 2508SOL    HW210062   1.813   1.828   4.163
 2508SOL    HW310063   1.874   1.966   4.156
 2508SOL    MW410064   1.818   1.906   4.126
 2509SOL     OW10065   1.666   2.541   4.316
 2509SOL    HW210066   1.675   2.511   4.406
 2509SOL    HW310067   1.743   2.596   4.301
 2509SOL    MW410068   1.677   2.544   4.326
 2510SOL     OW10069   2.521   2.308   4.188
 2510SOL    HW210070   2.518   2.297   4.092
 2510SOL    HW310071   2.432   2.286   4.217
 2510SOL    MW410072   2.509   2.303   4.179
 2511SOL     OW10073   1.772   3.052   4.370
 2511SOL    HW210074   1.784   2.990   4.298
 2511SOL    HW310075   1.857   3.055   4.414
 2511SOL    MW410076   1.784   3.044   4.367
 2512SOL     OW10077   1.817   2.910   4.115
 2512SOL    HW210078   1.847   2.824   4.144
 2512SOL    HW310079   1.898   2.961   4.102
 2512SOL    MW410080   1.832   2.905   4.117
 2513SOL     OW10081   2.039   3.250   4.317
 2513SOL    HW210082   2.023   3.176   4.376
 2513SOL    HW310083   2.028   3.213   4.229
 2513SOL    MW410084   2.036   3.235   4.313
 2514SOL     OW10085   2.215   2.917   4.125
 2514SOL    HW210086   2.309   2.931   4.138
 2514SOL    HW310087   2.183   2.886   4.209
 2514SOL    MW410088   2.223   2.915   4.138
 2515SOL     OW10089   1.691   3.323   4.369
 2515SOL    HW210090   1.746   3.379   4.314
 2515SOL    HW310091   1.728   3.236   4.360
 2515SOL    MW410092   1.703   3.319   4.361
 2516SOL     OW10093   1.817   3.519   4.230
 2516SOL    HW210094   1.751   3.569   4.278
 2516SOL    HW310095   1.801   3.539   4.138
 2516SOL    MW410096   1.806   3.528   4.225
 2517SOL     OW10097   2.068   3.603   4.281
 2517SOL    HW210098   2.046   3.690   4.246
 2517SOL    HW310099   1.988   3.552   4.269
 2517SOL    MW410100   2.054   3.608   4.275
 2518SOL     OW10101   2.032   3.837   4.137
 2518SOL    HW210102   1.958   3.885   4.175
 2518SOL    HW310103   2.016   3.838   4.043
 2518SOL    MW410104   2.020   3.844   4.129
 2519SOL     OW10105   1.816   3.988   4.253
 2519SOL    HW210106   1.824   4.072   4.206
 2519SOL    HW310107   1.730   3.955   4.228
 2519SOL    MW410108   1.806   3.995   4.243
 2520SOL     OW10109   1.853   4.240   4.136
 2520SOL    HW210110   1.918   4.304   4.163
 2520SOL    HW310111   1.840   4.256   4.042
 2520SOL    MW410112   1.860   4.250   4.127
 2521SOL     OW10113   2.065   4.371   4.279
 2521SOL    HW210114   2.019   4.348   4.360
 2521SOL    HW310115   2.051   4.465   4.268
 2521SOL    MW410116   2.057   4.380   4.288
 2522SOL     OW10117   2.401   4.655   4.174
 2522SOL    HW210118   2.484   4.694   4.202
 2522SOL    HW310119   2.408   4.563   4.199
 2522SOL    MW410120   2.413   4.648   4.181
 2523SOL     OW10121   2.174   0.151   4.279
 2523SOL    HW210122   2.248   0.102   4.245
 2523SOL    HW310123   2.098   0.095   4.262
 2523SOL    MW410124   2.174   0.137   4.272
 2524SOL     OW10125   2.218   0.393   4.142
 2524SOL    HW210126   2.223   0.306   4.183
 2524SOL    HW310127   2.223   0.375   4.048
 2524SOL    MW410128   2.219   0.379   4.135
 2525SOL     OW10129   2.430   0.510   4.264
 2525SOL    HW210130   2.402   0.529   4.353
 2525SOL    HW310131   2.351   0.477   4.220
 2525SOL    MW410132   2.416   0.508   4.270
 2526SOL     OW10133   2.486   0.772   4.184
 2526SOL    HW210134   2.468   0.686   4.223
 2526SOL    HW310135   2.466   0.761   4.091
 2526SOL    MW410136   2.481   0.759   4.177
 2527SOL     OW10137   2.221   0.899   4.223
 2527SOL    HW210138   2.192   0.892   4.314
 2527SOL    HW310139   2.306   0.854   4.222
 2527SOL    MW410140   2.228   0.892   4.235
 2528SOL     OW10141   2.230   1.138   4.095
 2528SOL    HW210142   2.307   1.169   4.141
 2528SOL    HW310143   2.210   1.053   4.135
 2528SOL    MW410144   2.237   1.131   4.106
 2529SOL     OW10145   2.447   1.273   4.205
 2529SOL    HW210146   2.446   1.251   4.298
 2529SOL    HW310147   2.527   1.231   4.172
 2529SOL    MW410148   2.458   1.264   4.213
 2530SOL     OW10149   2.428   1.583   4.132
 2530SOL    HW210150   2.430   1.495   4.170
 2530SOL    HW310151   2.433   1.568   4.038
 2530SOL    MW410152   2.429   1.569   4.125
 2531SOL     OW10153   2.209   1.726   4.229
 2531SOL    HW210154   2.295   1.688   4.211
 2531SOL    HW310155   2.214   1.814   4.194
 2531SOL    MW410156   2.221   1.732   4.222
 2532SOL     OW10157   2.306   1.966   4.136
 2532SOL    HW210158   2.397   1.992   4.124
 2532SOL    HW310159   2.269   2.033   4.194
 2532SOL    MW410160   2.313   1.978   4.142
 2533SOL     OW10161   2.276   2.219   4.285
 2533SOL    HW210162   2.186   2.251   4.290
 2533SOL    HW310163   2.292   2.178   4.370
 2533SOL    MW410164   2.266   2.217   4.297
 2534SOL     OW10165   2.674   2.550   4.123
 2534SOL    HW210166   2.619   2.479   4.154
 2534SOL    HW310167   2.687   2.606   4.199
 2534SOL    MW410168   2.669   2.548   4.137
 2535SOL     OW10169   2.316   2.445   4.539
 2535SOL    HW210170   2.307   2.484   4.452
 2535SOL    HW310171   2.320   2.520   4.598
 2535SOL    MW410172   2.316   2.460   4.535
 2536SOL     OW10173   1.939   2.666   4.218
 2536SOL    HW210174   1.994   2.729   4.265
 2536SOL    HW310175   2.002   2.611   4.171
 2536SOL    MW410176   1.955   2.667   4.218
 2537SOL     OW10177   2.417   2.819   4.410
 2537SOL    HW210178   2.376   2.739   4.378
 2537SOL    HW310179   2.346   2.865   4.456
 2537SOL    MW410180   2.402   2.814   4.412
 2538SOL     OW10181   2.318   3.210   4.287
 2538SOL    HW210182   2.223   3.208   4.293
 2538SOL    HW310183   2.348   3.183   4.374
 2538SOL    MW410184   2.309   3.206   4.299
 2539SOL     OW10185   2.017   3.106   4.063
 2539SOL    HW210186   2.004   3.123   3.969
 2539SOL    HW310187   2.091   3.046   4.066
 2539SOL    MW410188   2.025   3.101   4.051
 2540SOL     OW10189   2.266   3.454   4.151
 2540SOL    HW210190   2.303   3.379   4.197
 2540SOL    HW310191   2.191   3.481   4.203
 2540SOL    MW410192   2.261   3.448   4.164
 2541SOL     OW10193   2.487   3.588   4.284
 2541SOL    HW210194   2.413   3.542   4.243
 2541SOL    HW310195   2.477   3.679   4.257
 2541SOL    MW410196   2.476   3.594   4.275
 2542SOL     OW10197   2.454   3.836   4.189
 2542SOL    HW210198   2.535   3.885   4.206
 2542SOL    HW310199   2.438   3.850   4.096
 2542SOL    MW410200   2.463   3.845   4.179
 2543SOL     OW10201   2.228   3.988   4.234
 2543SOL    HW210202   2.306   3.936   4.212
 2543SOL    HW310203   2.155   3.940   4.195
 2543SOL    MW410204   2.229   3.975   4.226
 2544SOL     OW10205   2.238   4.233   4.119
 2544SOL    HW210206   2.235   4.154   4.172
 2544SOL    HW310207   2.183   4.296   4.167
 2544SOL    MW410208   2.230   4.231   4.132
 2545SOL     OW10209   2.456   4.376   4.210
 2545SOL    HW210210   2.531   4.320   4.187
 2545SOL    HW310211   2.380   4.329   4.176
 2545SOL    MW410212   2.456   4.363   4.202
 2546SOL     OW10213   2.910   4.615   4.127
 2546SOL    HW210214   2.995   4.647   4.157
 2546SOL    HW310215   2.916   4.520   4.134
 2546SOL    MW410216   2.922   4.607   4.132
 2547SOL     OW10217   2.665   0.045   4.241
 2547SOL    HW210218   2.674   0.140   4.251
 2547SOL    HW310219   2.751   0.015   4.215
 2547SOL    MW410220   2.677   0.054   4.239
 2548SOL     OW10221   2.643   0.323   4.285
 2548SOL    HW210222   2.577   0.385   4.253
 2548SOL    HW310223   2.727   0.361   4.258
 2548SOL    MW410224   2.645   0.336   4.278
 2549SOL     OW10225   3.280   0.710   4.118
 2549SOL    HW210226   3.320   0.753   4.194
 2549SOL    HW310227   3.196   0.754   4.107
 2549SOL    MW410228   3.274   0.721   4.127
 2550SOL     OW10229   3.006   0.845   4.116
 2550SOL    HW210230   3.009   0.940   4.126
 2550SOL    HW310231   2.969   0.831   4.029
 2550SOL    MW410232   3.002   0.855   4.106
 2551SOL     OW10233   2.698   0.911   4.285
 2551SOL    HW210234   2.761   0.840   4.297
 2551SOL    HW310235   2.619   0.868   4.251
 2551SOL    MW410236   2.696   0.896   4.282
 2552SOL     OW10237   2.673   1.134   4.107
 2552SOL    HW210238   2.683   1.046   4.144
 2552SOL    HW310239   2.696   1.124   4.015
 2552SOL    MW410240   2.677   1.121   4.100
 2553SOL     OW10241   2.841   1.305   4.248
 2553SOL    HW210242   2.926   1.271   4.220
 2553SOL    HW310243   2.777   1.247   4.206
 2553SOL    MW410244   2.844   1.293   4.239
 2554SOL     OW10245   2.823   1.549   4.143
 2554SOL    HW210246   2.913   1.580   4.156
 2554SOL    HW310247   2.825   1.458   4.171
 2554SOL    MW410248   2.835   1.541   4.149
 2555SOL     OW10249   2.647   1.748   4.199
 2555SOL    HW210250   2.721   1.694   4.172
 2555SOL    HW310251   2.571   1.691   4.187
 2555SOL    MW410252   2.647   1.733   4.194
 2556SOL     OW10253   2.603   2.003   4.081
 2556SOL    HW210254   2.619   1.920   4.125
 2556SOL    HW310255   2.644   1.992   3.995
 2556SOL    MW410256   2.611   1.991   4.075
 2557SOL     OW10257   2.853   2.101   4.137
 2557SOL    HW210258   2.845   2.197   4.133
 2557SOL    HW310259   2.763   2.070   4.125
 2557SOL    MW410260   2.840   2.110   4.135
 2558SOL     OW10261   2.892   2.368   4.096
 2558SOL    HW210262   2.958   2.391   4.161
 2558SOL    HW310263   2.824   2.435   4.106
 2558SOL    MW410264   2.892   2.380   4.106
 2559SOL     OW10265   2.762   3.238   4.451
 2559SOL    HW210266   2.747   3.329   4.475
 2559SOL    HW310267   2.703   3.188   4.508
 2559SOL    MW410268   2.752   3.243   4.462
 2560SOL     OW10269   2.494   3.017   4.195
 2560SOL    HW210270   2.496   2.961   4.272
 2560SOL    HW310271   2.445   3.095   4.223
 2560SOL    MW410272   2.488   3.020   4.209
 2561SOL     OW10273   2.932   2.917   4.154
 2561SOL    HW210274   2.934   2.982   4.224
 2561SOL    HW310275   2.914   2.967   4.074
 2561SOL    MW410276   2.930   2.932   4.152
 2562SOL     OW10277   3.002   3.118   4.364
 2562SOL    HW210278   3.027   3.069   4.442
 2562SOL    HW310279   2.925   3.169   4.391
 2562SOL    MW410280   2.995   3.118   4.378
 2563SOL     OW10281   2.710   3.197   4.175
 2563SOL    HW210282   2.643   3.130   4.166
 2563SOL    HW310283   2.723   3.206   4.269
 2563SOL    MW410284   2.703   3.190   4.186
 2564SOL     OW10285   2.713   3.469   4.142
 2564SOL    HW210286   2.711   3.373   4.145
 2564SOL    HW310287   2.643   3.496   4.201
 2564SOL    MW410288   2.703   3.460   4.150
 2565SOL     OW10289   2.933   3.621   4.219
 2565SOL    HW210290   2.916   3.648   4.309
 2565SOL    HW310291   2.858   3.567   4.196
 2565SOL    MW410292   2.921   3.618   4.228
 2566SOL     OW10293   2.933   3.883   4.149
 2566SOL    HW210294   3.026   3.900   4.158
 2566SOL    HW310295   2.923   3.790   4.169
 2566SOL    MW410296   2.944   3.873   4.153
 2567SOL     OW10297   2.698   3.960   4.267
 2567SOL    HW210298   2.691   4.045   4.224
 2567SOL    HW310299   2.770   3.916   4.222
 2567SOL    MW410300   2.707   3.965   4.256
 2568SOL     OW10301   2.700   4.229   4.116
 2568SOL    HW210302   2.783   4.271   4.136
 2568SOL    HW310303   2.695   4.228   4.020
 2568SOL    MW410304   2.710   4.234   4.106
 2569SOL     OW10305   2.956   4.345   4.154
 2569SOL    HW210306   2.950   4.305   4.241
 2569SOL    HW310307   3.033   4.304   4.115
 2569SOL    MW410308   2.965   4.334   4.160
 2570SOL     OW10309   3.366   4.613   4.084
 2570SOL    HW210310   3.440   4.649   4.132
 2570SOL    HW310311   3.355   4.525   4.120
 2570SOL    MW410312   3.374   4.606   4.095
 2571SOL     OW10313   3.159   0.074   4.188
 2571SOL    HW210314   3.142   0.055   4.281
 2571SOL    HW310315   3.245   0.036   4.171
 2571SOL    MW410316   3.168   0.066   4.198
 2572SOL     OW10317   3.125   0.344   4.083
 2572SOL    HW210318   3.192   0.382   4.140
 2572SOL    HW310319   3.120   0.252   4.110
 2572SOL    MW410320   3.133   0.337   4.094
 2573SOL     OW10321   3.325   0.472   4.239
 2573SOL    HW210322   3.410   0.439   4.210
 2573SOL    HW310323   3.314   0.555   4.192
 2573SOL    MW410324   3.335   0.478   4.229
 2574SOL     OW10325   3.396   0.800   4.361
 2574SOL    HW210326   3.437   0.886   4.368
 2574SOL    HW310327   3.349   0.790   4.444
 2574SOL    MW410328   3.395   0.810   4.373
 2575SOL     OW10329   3.165   1.075   4.631
 2575SOL    HW210330   3.216   1.000   4.661
 2575SOL    HW310331   3.075   1.054   4.656
 2575SOL    MW410332   3.160   1.062   4.638
 2576SOL     OW10333   3.039   1.110   4.146
 2576SOL    HW210334   3.096   1.135   4.219
 2576SOL    HW310335   3.084   1.145   4.069
 2576SOL    MW410336   3.053   1.118   4.145
 2577SOL     OW10337   3.454   1.077   4.320
 2577SOL    HW210338   3.486   1.116   4.401
 2577SOL    HW310339   3.359   1.089   4.323
 2577SOL    MW410340   3.446   1.083   4.331
 2578SOL     OW10341   3.258   1.430   4.387
 2578SOL    HW210342   3.278   1.477   4.306
 2578SOL    HW310343   3.316   1.469   4.452
 2578SOL    MW410344   3.268   1.442   4.385
 2579SOL     OW10345   3.067   1.672   4.187
 2579SOL    HW210346   3.058   1.682   4.282
 2579SOL    HW310347   3.068   1.762   4.154
 2579SOL    MW410348   3.066   1.685   4.195
 2580SOL     OW10349   3.087   1.941   4.093
 2580SOL    HW210350   3.158   1.985   4.139
 2580SOL    HW310351   3.015   2.005   4.093
 2580SOL    MW410352   3.087   1.955   4.099
 2581SOL     OW10353   3.286   2.085   4.244
 2581SOL    HW210354   3.370   2.038   4.240
 2581SOL    HW310355   3.305   2.171   4.206
 2581SOL    MW410356   3.300   2.090   4.239
 2582SOL     OW10357   3.334   2.329   4.149
 2582SOL    HW210358   3.412   2.379   4.170
 2582SOL    HW310359   3.334   2.323   4.053
 2582SOL    MW410360   3.344   2.334   4.139
 2583SOL     OW10361   3.097   2.427   4.288
 2583SOL    HW210362   3.107   2.519   4.263
 2583SOL    HW310363   3.171   2.383   4.246
 2583SOL    MW410364   3.108   2.434   4.279
 2584SOL     OW10365   3.122   2.725   4.164
 2584SOL    HW210366   3.190   2.764   4.220
 2584SOL    HW310367   3.053   2.791   4.160
 2584SOL    MW410368   3.122   2.739   4.171
 2585SOL     OW10369   3.346   2.834   4.291
 2585SOL    HW210370   3.413   2.765   4.284
 2585SOL    HW310371   3.379   2.905   4.236
 2585SOL    MW410372   3.359   2.834   4.283
 2586SOL     OW10373   3.407   3.100   4.149
 2586SOL    HW210374   3.353   3.160   4.200
 2586SOL    HW310375   3.365   3.098   4.063
 2586SOL    MW410376   3.394   3.108   4.144
 2587SOL     OW10377   3.240   3.288   4.280
 2587SOL    HW210378   3.222   3.358   4.218
 2587SOL    HW310379   3.156   3.242   4.290
 2587SOL    MW410380   3.227   3.291   4.273
 2588SOL     OW10381   3.165   3.506   4.115
 2588SOL    HW210382   3.086   3.547   4.152
 2588SOL    HW310383   3.158   3.521   4.021
 2588SOL    MW410384   3.154   3.514   4.108
 2589SOL     OW10385   3.397   3.626   4.232
 2589SOL    HW210386   3.363   3.640   4.321
 2589SOL    HW310387   3.328   3.575   4.189
 2589SOL    MW410388   3.383   3.621   4.238
 2590SOL     OW10389   3.411   3.876   4.104
 2590SOL    HW210390   3.413   3.782   4.124
 2590SOL    HW310391   3.399   3.881   4.010
 2590SOL    MW410392   3.410   3.864   4.094
 2591SOL     OW10393   3.176   3.949   4.242
 2591SOL    HW210394   3.192   3.953   4.336
 2591SOL    HW310395   3.261   3.928   4.203
 2591SOL    MW410396   3.189   3.947   4.249
 2592SOL     OW10397   3.176   4.193   4.110
 2592SOL    HW210398   3.256   4.240   4.134
 2592SOL    HW310399   3.171   4.121   4.173
 2592SOL    MW410400   3.186   4.190   4.121
 2593SOL     OW10401   3.394   4.337   4.188
 2593SOL    HW210402   3.404   4.334   4.283
 2593SOL    HW310403   3.479   4.309   4.153
 2593SOL    MW410404   3.407   4.333   4.196
 2594SOL     OW10405   3.802   4.617   4.167
 2594SOL    HW210406   3.879   4.670   4.187
 2594SOL    HW310407   3.777   4.644   4.078
 2594SOL    MW410408   3.808   4.628   4.158
 2595SOL     OW10409   3.560   0.083   4.247
 2595SOL    HW210410   3.557   0.178   4.239
 2595SOL    HW310411   3.652   0.061   4.234
 2595SOL    MW410412   3.572   0.093   4.244
 2596SOL     OW10413   3.566   0.348   4.184
 2596SOL    HW210414   3.649   0.385   4.214
 2596SOL    HW310415   3.572   0.348   4.089
 2596SOL    MW410416   3.577   0.353   4.176
 2597SOL     OW10417   3.818   0.425   4.286
 2597SOL    HW210418   3.868   0.383   4.355
 2597SOL    HW310419   3.765   0.491   4.331
 2597SOL    MW410420   3.817   0.428   4.301
 2598SOL     OW10421   3.771   0.818   4.118
 2598SOL    HW210422   3.729   0.903   4.107
 2598SOL    HW310423   3.760   0.774   4.034
 2598SOL    MW410424   3.764   0.823   4.106
 2599SOL     OW10425   3.670   0.680   4.346
 2599SOL    HW210426   3.578   0.704   4.355
 2599SOL    HW310427   3.706   0.741   4.282
 2599SOL    MW410428   3.663   0.691   4.339
 2600SOL     OW10429   3.648   1.056   4.129
 2600SOL    HW210430   3.589   1.076   4.202
 2600SOL    HW310431   3.603   1.091   4.052
 2600SOL    MW410432   3.634   1.063   4.128
 2601SOL     OW10433   3.794   1.282   4.217
 2601SOL    HW210434   3.742   1.206   4.189
 2601SOL    HW310435   3.814   1.264   4.309
 2601SOL    MW410436   3.790   1.269   4.225
 2602SOL     OW10437   3.814   1.556   4.171
 2602SOL    HW210438   3.806   1.463   4.190
 2602SOL    HW310439   3.884   1.587   4.229
 2602SOL    MW410440   3.822   1.548   4.181
 2603SOL     OW10441   3.533   1.962   4.205
 2603SOL    HW210442   3.547   1.961   4.110
 2603SOL    HW310443   3.528   1.870   4.229
 2603SOL    MW410444   3.534   1.950   4.195
 2604SOL     OW10445   3.319   1.569   4.129
 2604SOL    HW210446   3.347   1.574   4.038
 2604SOL    HW310447   3.226   1.591   4.126
 2604SOL    MW410448   3.310   1.572   4.117
 2605SOL     OW10449   3.794   2.059   4.310
 2605SOL    HW210450   3.798   2.048   4.405
 2605SOL    HW310451   3.703   2.039   4.288
 2605SOL    MW410452   3.782   2.055   4.320
 2606SOL     OW10453   3.788   2.306   4.192
 2606SOL    HW210454   3.794   2.219   4.231
 2606SOL    HW310455   3.808   2.292   4.099
 2606SOL    MW410456   3.792   2.293   4.185
 2607SOL     OW10457   3.567   2.429   4.287
 2607SOL    HW210458   3.519   2.401   4.365
 2607SOL    HW310459   3.643   2.372   4.284
 2607SOL    MW410460   3.570   2.418   4.297
 2608SOL     OW10461   3.610   2.684   4.214
 2608SOL    HW210462   3.596   2.592   4.237
 2608SOL    HW310463   3.601   2.687   4.118
 2608SOL    MW410464   3.607   2.672   4.204
 2609SOL     OW10465   3.814   2.864   4.244
 2609SOL    HW210466   3.835   2.867   4.337
 2609SOL    HW310467   3.731   2.816   4.240
 2609SOL    MW410468   3.806   2.858   4.256
 2610SOL     OW10469   3.835   3.118   4.131
 2610SOL    HW210470   3.817   3.033   4.173
 2610SOL    HW310471   3.826   3.101   4.038
 2610SOL    MW410472   3.832   3.104   4.125
 2611SOL     OW10473   3.626   3.261   4.220
 2611SOL    HW210474   3.702   3.211   4.188
 2611SOL    HW310475   3.550   3.208   4.193
 2611SOL    MW410476   3.626   3.247   4.212
 2612SOL     OW10477   3.639   3.514   4.122
 2612SOL    HW210478   3.631   3.421   4.142
 2612SOL    HW310479   3.568   3.555   4.172
 2612SOL    MW410480   3.628   3.507   4.132
 2613SOL     OW10481   3.861   3.605   4.265
 2613SOL    HW210482   3.926   3.550   4.222
 2613SOL    HW310483   3.778   3.577   4.227
 2613SOL    MW410484   3.859   3.594   4.254
 2614SOL     OW10485   3.850   3.851   4.155
 2614SOL    HW210486   3.772   3.896   4.188
 2614SOL    HW310487   3.851   3.767   4.203
 2614SOL    MW410488   3.840   3.846   4.166
 2615SOL     OW10489   3.616   3.981   4.275
 2615SOL    HW210490   3.588   3.968   4.365
 2615SOL    HW310491   3.547   3.942   4.222
 2615SOL    MW410492   3.603   3.974   4.280
 2616SOL     OW10493   3.641   4.240   4.144
 2616SOL    HW210494   3.698   4.300   4.192
 2616SOL    HW310495   3.639   4.161   4.197
 2616SOL    MW410496   3.648   4.237   4.157
 2617SOL     OW10497   3.836   4.385   4.279
 2617SOL    HW210498   3.912   4.336   4.247
 2617SOL    HW310499   3.844   4.470   4.236
 2617SOL    MW410500   3.847   4.390   4.269
 2618SOL     OW10501   4.271   4.644   4.143
 2618SOL    HW210502   4.277   4.565   4.198
 2618SOL    HW310503   4.330   4.706   4.186
 2618SOL    MW410504   4.280   4.641   4.156
 2619SOL     OW10505   4.045   0.106   4.215
 2619SOL    HW210506   4.052   0.195   4.181
 2619SOL    HW310507   4.129   0.066   4.194
 2619SOL    MW410508   4.057   0.112   4.208
 2620SOL     OW10509   4.043   0.364   4.117
 2620SOL    HW210510   4.115   0.420   4.145
 2620SOL    HW310511   3.969   0.390   4.173
 2620SOL    MW410512   4.043   0.375   4.128
 2621SOL     OW10513   4.245   0.512   4.225
 2621SOL    HW210514   4.255   0.601   4.192
 2621SOL    HW310515   4.319   0.464   4.188
 2621SOL    MW410516   4.256   0.518   4.216
 2622SOL     OW10517   4.252   0.781   4.131
 2622SOL    HW210518   4.166   0.810   4.164
 2622SOL    HW310519   4.247   0.795   4.037
 2622SOL    MW410520   4.240   0.787   4.123
 2623SOL     OW10521   4.019   0.884   4.246
 2623SOL    HW210522   4.027   0.965   4.194
 2623SOL    HW310523   3.933   0.849   4.221
 2623SOL    MW410524   4.009   0.890   4.236
 2624SOL     OW10525   4.025   1.140   4.149
 2624SOL    HW210526   4.101   1.192   4.176
 2624SOL    HW310527   3.951   1.198   4.164
 2624SOL    MW410528   4.025   1.155   4.155
 2625SOL     OW10529   4.265   1.272   4.309
 2625SOL    HW210530   4.298   1.326   4.381
 2625SOL    HW310531   4.343   1.232   4.271
 2625SOL    MW410532   4.280   1.274   4.314
 2626SOL     OW10533   4.372   1.495   4.127
 2626SOL    HW210534   4.330   1.437   4.191
 2626SOL    HW310535   4.326   1.477   4.045
 2626SOL    MW410536   4.360   1.485   4.125
 2627SOL     OW10537   4.217   1.741   4.499
 2627SOL    HW210538   4.229   1.659   4.546
 2627SOL    HW310539   4.273   1.733   4.421
 2627SOL    MW410540   4.226   1.729   4.495
 2628SOL     OW10541   4.022   1.939   4.207
 2628SOL    HW210542   4.031   1.862   4.263
 2628SOL    HW310543   3.945   1.984   4.241
 2628SOL    MW410544   4.013   1.934   4.219
 2629SOL     OW10545   4.435   1.984   4.132
 2629SOL    HW210546   4.511   2.015   4.180
 2629SOL    HW310547   4.360   2.028   4.172
 2629SOL    MW410548   4.435   1.994   4.143
 2630SOL     OW10549   4.219   2.347   4.094
 2630SOL    HW210550   4.145   2.396   4.131
 2630SOL    HW310551   4.238   2.280   4.159
 2630SOL    MW410552   4.212   2.345   4.107
 2631SOL     OW10553   3.996   2.486   4.175
 2631SOL    HW210554   4.024   2.502   4.265
 2631SOL    HW310555   3.945   2.405   4.179
 2631SOL    MW410556   3.993   2.477   4.187
 2632SOL     OW10557   3.979   2.739   4.075
 2632SOL    HW210558   3.974   2.646   4.095
 2632SOL    HW310559   3.919   2.780   4.137
 2632SOL    MW410560   3.970   2.732   4.086
 2633SOL     OW10561   4.204   2.813   4.237
 2633SOL    HW210562   4.141   2.788   4.169
 2633SOL    HW310563   4.287   2.777   4.206
 2633SOL    MW410564   4.207   2.805   4.224
 2634SOL     OW10565   4.284   3.101   4.185
 2634SOL    HW210566   4.274   3.016   4.227
 2634SOL    HW310567   4.298   3.081   4.092
 2634SOL    MW410568   4.285   3.087   4.178
 2635SOL     OW10569   4.067   3.251   4.233
 2635SOL    HW210570   4.146   3.204   4.206
 2635SOL    HW310571   3.995   3.194   4.206
 2635SOL    MW410572   4.068   3.237   4.226
 2636SOL     OW10573   4.051   3.487   4.097
 2636SOL    HW210574   4.050   3.395   4.122
 2636SOL    HW310575   4.048   3.486   4.001
 2636SOL    MW410576   4.050   3.475   4.088
 2637SOL     OW10577   4.259   3.617   4.228
 2637SOL    HW210578   4.294   3.690   4.177
 2637SOL    HW310579   4.196   3.575   4.170
 2637SOL    MW410580   4.255   3.621   4.214
 2638SOL     OW10581   4.313   3.865   4.094
 2638SOL    HW210582   4.249   3.908   4.150
 2638SOL    HW310583   4.283   3.883   4.005
 2638SOL    MW410584   4.301   3.873   4.090
 2639SOL     OW10585   4.087   3.985   4.226
 2639SOL    HW210586   4.092   3.984   4.322
 2639SOL    HW310587   4.010   3.933   4.206
 2639SOL    MW410588   4.078   3.978   4.236
 2640SOL     OW10589   4.060   4.250   4.177
 2640SOL    HW210590   4.139   4.296   4.207
 2640SOL    HW310591   4.076   4.158   4.197
 2640SOL    MW410592   4.072   4.244   4.184
 2641SOL     OW10593   4.143   4.262   4.587
 2641SOL    HW210594   4.124   4.200   4.657
 2641SOL    HW310595   4.063   4.313   4.578
 2641SOL    MW410596   4.130   4.260   4.595
 2642SOL     OW10597   4.044   4.047   4.728
 2642SOL    HW210598   3.955   4.027   4.754
 2642SOL    HW310599   4.099   3.996   4.787
 2642SOL    MW410600   4.040   4.038   4.739
 2643SOL     OW10601   4.168   4.639   4.626
 2643SOL    HW210602   4.094   4.679   4.580
 2643SOL    HW310603   4.151   4.545   4.621
 2643SOL    MW410604   4.156   4.632   4.619
 2644SOL     OW10605   3.973   0.120   4.473
 2644SOL    HW210606   3.886   0.079   4.476
 2644SOL    HW310607   3.998   0.117   4.381
 2644SOL    MW410608   3.965   0.114   4.462
 2645SOL     OW10609   4.136   1.415   4.643
 2645SOL    HW210610   4.115   1.328   4.609
 2645SOL    HW310611   4.222   1.435   4.608
 2645SOL    MW410612   4.145   1.406   4.634
 2646SOL     OW10613   0.428   0.144   4.496
 2646SOL    HW210614   0.355   0.117   4.551
 2646SOL    HW310615   0.506   0.118   4.544
 2646SOL    MW410616   0.429   0.137   4.509
 2647SOL     OW10617   0.203   0.757   4.605
 2647SOL    HW210618   0.271   0.749   4.672
 2647SOL    HW310619   0.210   0.676   4.554
 2647SOL    MW410620   0.213   0.745   4.607
 2648SOL     OW10621   4.218   0.774   4.602
 2648SOL    HW210622   4.232   0.680   4.592
 2648SOL    HW310623   4.306   0.811   4.611
 2648SOL    MW410624   4.231   0.767   4.602
 2649SOL     OW10625   0.743   1.370   4.489
 2649SOL    HW210626   0.755   1.461   4.461
 2649SOL    HW310627   0.654   1.369   4.526
 2649SOL    MW410628   0.733   1.382   4.490
 2650SOL     OW10629   1.146   1.908   4.487
 2650SOL    HW210630   1.239   1.908   4.464
 2650SOL    HW310631   1.139   1.966   4.563
 2650SOL    MW410632   1.157   1.916   4.494
 2651SOL     OW10633   4.076   1.166   4.518
 2651SOL    HW210634   4.049   1.075   4.527
 2651SOL    HW310635   4.145   1.165   4.452
 2651SOL    MW410636   4.081   1.154   4.511
 2652SOL     OW10637   0.066   1.661   4.510
 2652SOL    HW210638   0.019   1.703   4.438
 2652SOL    HW310639   0.103   1.733   4.560
 2652SOL    MW410640   0.065   1.676   4.507
 2653SOL     OW10641   0.377   1.706   4.233
 2653SOL    HW210642   0.311   1.649   4.194
 2653SOL    HW310643   0.460   1.662   4.214
 2653SOL    MW410644   0.380   1.692   4.225
 2654SOL     OW10645   0.114   1.914   4.635
 2654SOL    HW210646   0.117   1.996   4.586
 2654SOL    HW310647   0.195   1.913   4.686
 2654SOL    MW410648   0.125   1.924   4.636
 2655SOL     OW10649   4.260   2.303   4.496
 2655SOL    HW210650   4.349   2.338   4.505
 2655SOL    HW310651   4.204   2.380   4.494
 2655SOL    MW410652   4.264   2.318   4.497
 2656SOL     OW10653   0.615   3.034   4.667
 2656SOL    HW210654   0.659   2.969   4.612
 2656SOL    HW310655   0.686   3.084   4.707
 2656SOL    MW410656   0.630   3.032   4.665
 2657SOL     OW10657   0.330   3.042   4.638
 2657SOL    HW210658   0.420   3.024   4.667
 2657SOL    HW310659   0.333   3.132   4.606
 2657SOL    MW410660   0.342   3.051   4.637
 2658SOL     OW10661   0.041   2.391   4.477
 2658SOL    HW210662   0.001   2.409   4.392
 2658SOL    HW310663   0.126   2.434   4.473
 2658SOL    MW410664   0.047   2.399   4.466
 2659SOL     OW10665   3.726   3.277   4.483
 2659SOL    HW210666   3.687   3.270   4.396
 2659SOL    HW310667   3.692   3.202   4.531
 2659SOL    MW410668   3.716   3.266   4.477
 2660SOL     OW10669   0.371   3.310   4.549
 2660SOL    HW210670   0.308   3.382   4.551
 2660SOL    HW310671   0.444   3.341   4.602
 2660SOL    MW410672   0.372   3.324   4.556
 2661SOL     OW10673   4.080   3.898   4.494
 2661SOL    HW210674   4.032   3.818   4.515
 2661SOL    HW310675   4.059   3.959   4.566
 2661SOL    MW410676   4.071   3.896   4.507
 2662SOL     OW10677   4.416   0.069   4.516
 2662SOL    HW210678   4.345   0.029   4.566
 2662SOL    HW310679   4.430   0.153   4.558
 2662SOL    MW410680   4.409   0.075   4.528
 2663SOL     OW10681   3.280   0.432   4.514
 2663SOL    HW210682   3.300   0.437   4.420
 2663SOL    HW310683   3.187   0.408   4.518
 2663SOL    MW410684   3.270   0.430   4.502
 2664SOL     OW10685   3.736   3.984   4.779
 2664SOL    HW210686   3.700   3.904   4.740
 2664SOL    HW310687   3.658   4.035   4.802
 2664SOL    MW410688   3.721   3.980   4.777
 2665SOL     OW10689   3.670   3.761   4.613
 2665SOL    HW210690   3.762   3.743   4.592
 2665SOL    HW310691   3.626   3.677   4.602
 2665SOL    MW410692   3.676   3.747   4.609
 2666SOL     OW10693   0.826   4.395   4.490
 2666SOL    HW210694   0.783   4.318   4.528
 2666SOL    HW310695   0.794   4.397   4.400
 2666SOL    MW410696   0.816   4.385   4.483
 2667SOL     OW10697   3.699   0.467   4.613
 2667SOL    HW210698   3.604   0.478   4.612
 2667SOL    HW310699   3.733   0.554   4.633
 2667SOL    MW410700   3.691   0.480   4.615
 2668SOL     OW10701   1.105   0.744   4.562
 2668SOL    HW210702   1.037   0.809   4.575
 2668SOL    HW310703   1.063   0.674   4.512
 2668SOL    MW410704   1.091   0.743   4.557
 2669SOL     OW10705   0.670   0.056   4.613
 2669SOL    HW210706   0.749   0.083   4.567
 2669SOL    HW310707   0.668  -0.039   4.604
 2669SOL    MW410708   0.680   0.047   4.606
 2670SOL     OW10709   0.888   0.941   4.552
 2670SOL    HW210710   0.869   0.933   4.459
 2670SOL    HW310711   0.811   0.904   4.596
 2670SOL    MW410712   0.875   0.935   4.546
 2671SOL     OW10713   0.381   0.949   4.489
 2671SOL    HW210714   0.400   0.911   4.403
 2671SOL    HW310715   0.317   0.889   4.528
 2671SOL    MW410716   0.375   0.936   4.483
 2672SOL     OW10717   2.113   1.230   4.492
 2672SOL    HW210718   2.080   1.247   4.404
 2672SOL    HW310719   2.207   1.245   4.486
 2672SOL    MW410720   2.121   1.234   4.480
 2673SOL     OW10721   0.341   1.589   4.483
 2673SOL    HW210722   0.247   1.579   4.499
 2673SOL    HW310723   0.346   1.635   4.399
 2673SOL    MW410724   0.329   1.594   4.474
 2674SOL     OW10725   1.431   1.075   4.615
 2674SOL    HW210726   1.403   0.991   4.581
 2674SOL    HW310727   1.356   1.133   4.602
 2674SOL    MW410728   1.418   1.072   4.609
 2675SOL     OW10729   0.822   1.637   4.469
 2675SOL    HW210730   0.780   1.723   4.474
 2675SOL    HW310731   0.899   1.644   4.526
 2675SOL    MW410732   0.826   1.649   4.477
 2676SOL     OW10733   0.626   2.146   4.473
 2676SOL    HW210734   0.699   2.202   4.498
 2676SOL    HW310735   0.655   2.057   4.492
 2676SOL    MW410736   0.639   2.141   4.479
 2677SOL     OW10737   1.062   1.662   4.584
 2677SOL    HW210738   1.128   1.592   4.578
 2677SOL    HW310739   1.104   1.739   4.546
 2677SOL    MW410740   1.076   1.663   4.578
 2678SOL     OW10741   0.427   2.223   4.651
 2678SOL    HW210742   0.494   2.203   4.585
 2678SOL    HW310743   0.460   2.300   4.696
 2678SOL    MW410744   0.440   2.230   4.648
 2679SOL     OW10745   0.983   2.600   4.712
 2679SOL    HW210746   1.002   2.684   4.671
 2679SOL    HW310747   0.890   2.585   4.694
 2679SOL    MW410748   0.973   2.609   4.704
 2680SOL     OW10749   0.703   2.562   4.639
 2680SOL    HW210750   0.617   2.541   4.675
 2680SOL    HW310751   0.714   2.502   4.565
 2680SOL    MW410752   0.693   2.551   4.634
 2681SOL     OW10753   1.027   3.237   4.483
 2681SOL    HW210754   1.119   3.210   4.483
 2681SOL    HW310755   1.023   3.310   4.544
 2681SOL    MW410756   1.038   3.243   4.491
 2682SOL     OW10757   0.831   3.450   4.695
 2682SOL    HW210758   0.773   3.523   4.675
 2682SOL    HW310759   0.919   3.483   4.679
 2682SOL    MW410760   0.835   3.464   4.690
 2683SOL     OW10761   1.274   4.419   4.418
 2683SOL    HW210762   1.357   4.405   4.463
 2683SOL    HW310763   1.288   4.496   4.364
 2683SOL    MW410764   1.286   4.427   4.417
 2684SOL     OW10765   0.280   2.535   4.483
 2684SOL    HW210766   0.325   2.511   4.402
 2684SOL    HW310767   0.261   2.628   4.474
 2684SOL    MW410768   0.284   2.544   4.471
 2685SOL     OW10769   4.474   3.296   4.550
 2685SOL    HW210770   4.381   3.320   4.546
 2685SOL    HW310771   4.495   3.265   4.462
 2685SOL    MW410772   4.464   3.295   4.538
 2686SOL     OW10773   1.374   3.462   4.628
 2686SOL    HW210774   1.458   3.445   4.671
 2686SOL    HW310775   1.348   3.378   4.590
 2686SOL    MW410776   1.381   3.449   4.629
 2687SOL     OW10777   4.419   4.252   4.502
 2687SOL    HW210778   4.331   4.234   4.534
 2687SOL    HW310779   4.460   4.166   4.494
 2687SOL    MW410780   4.413   4.238   4.505
 2688SOL     OW10781   0.238   3.887   4.284
 2688SOL    HW210782   0.227   3.792   4.284
 2688SOL    HW310783   0.182   3.918   4.355
 2688SOL    MW410784   0.229   3.878   4.293
 2689SOL     OW10785   0.107   4.491   4.490
 2689SOL    HW210786   0.051   4.566   4.505
 2689SOL    HW310787   0.051   4.415   4.505
 2689SOL    MW410788   0.093   4.491   4.494
 2690SOL     OW10789   0.440   0.447   4.565
 2690SOL    HW210790   0.526   0.482   4.543
 2690SOL    HW310791   0.446   0.354   4.544
 2690SOL    MW410792   0.452   0.439   4.560
 2691SOL     OW10793   1.071   4.561   4.530
 2691SOL    HW210794   0.996   4.502   4.529
 2691SOL    HW310795   1.143   4.509   4.493
 2691SOL    MW410796   1.071   4.546   4.525
 2692SOL     OW10797   0.401   0.650   4.782
 2692SOL    HW210798   0.349   0.618   4.856
 2692SOL    HW310799   0.400   0.578   4.719
 2692SOL    MW410800   0.394   0.636   4.783
 2693SOL     OW10801   1.368   0.842   4.492
 2693SOL    HW210802   1.328   0.853   4.406
 2693SOL    HW310803   1.295   0.824   4.551
 2693SOL    MW410804   1.353   0.841   4.489
 2694SOL     OW10805   1.718   1.025   4.681
 2694SOL    HW210806   1.625   1.034   4.659
 2694SOL    HW310807   1.718   1.001   4.774
 2694SOL    MW410808   1.706   1.023   4.691
 2695SOL     OW10809   0.272   1.202   4.539
 2695SOL    HW210810   0.311   1.121   4.507
 2695SOL    HW310811   0.347   1.254   4.569
 2695SOL    MW410812   0.287   1.198   4.539
 2696SOL     OW10813   0.904   1.854   4.737
 2696SOL    HW210814   0.965   1.786   4.708
 2696SOL    HW310815   0.959   1.917   4.784
 2696SOL    MW410816   0.920   1.853   4.739
 2697SOL     OW10817   0.966   1.204   4.454
 2697SOL    HW210818   0.893   1.264   4.470
 2697SOL    HW310819   0.940   1.123   4.498
 2697SOL    MW410820   0.953   1.202   4.462
 2698SOL     OW10821   1.845   1.258   4.589
 2698SOL    HW210822   1.824   1.184   4.646
 2698SOL    HW310823   1.935   1.240   4.560
 2698SOL    MW410824   1.854   1.245   4.593
 2699SOL     OW10825   1.236   1.254   4.554
 2699SOL    HW210826   1.143   1.242   4.534
 2699SOL    HW310827   1.247   1.349   4.560
 2699SOL    MW410828   1.225   1.265   4.552
 2700SOL     OW10829   1.060   2.348   4.607
 2700SOL    HW210830   1.043   2.422   4.666
 2700SOL    HW310831   1.139   2.374   4.559
 2700SOL    MW410832   1.068   2.361   4.609
 2701SOL     OW10833   1.551   2.512   4.766
 2701SOL    HW210834   1.597   2.549   4.840
 2701SOL    HW310835   1.487   2.579   4.741
 2701SOL    MW410836   1.548   2.526   4.772
 2702SOL     OW10837   1.438   2.978   4.572
 2702SOL    HW210838   1.521   2.994   4.619
 2702SOL    HW310839   1.458   2.905   4.513
 2702SOL    MW410840   1.452   2.970   4.571
 2703SOL     OW10841   1.629   3.388   4.675
 2703SOL    HW210842   1.647   3.300   4.706
 2703SOL    HW310843   1.645   3.385   4.581
 2703SOL    MW410844   1.633   3.376   4.667
 2704SOL     OW10845   0.733   2.826   4.524
 2704SOL    HW210846   0.812   2.868   4.559
 2704SOL    HW310847   0.715   2.754   4.584
 2704SOL    MW410848   0.741   2.822   4.536
 2705SOL     OW10849   0.768   4.143   4.575
 2705SOL    HW210850   0.858   4.117   4.560
 2705SOL    HW310851   0.718   4.062   4.571
 2705SOL    MW410852   0.773   4.129   4.572
 2706SOL     OW10853   1.103   2.799   4.537
 2706SOL    HW210854   1.102   2.800   4.441
 2706SOL    HW310855   1.078   2.888   4.562
 2706SOL    MW410856   1.100   2.811   4.528
 2707SOL     OW10857   0.948   3.024   4.619
 2707SOL    HW210858   0.936   3.059   4.707
 2707SOL    HW310859   0.966   3.100   4.565
 2707SOL    MW410860   0.949   3.039   4.624
 2708SOL     OW10861   1.774   3.612   4.605
 2708SOL    HW210862   1.838   3.549   4.572
 2708SOL    HW310863   1.717   3.561   4.662
 2708SOL    MW410864   1.775   3.597   4.608
 2709SOL     OW10865   0.560   3.930   4.571
 2709SOL    HW210866   0.503   3.978   4.632
 2709SOL    HW310867   0.534   3.960   4.484
 2709SOL    MW410868   0.549   3.940   4.568
 2710SOL     OW10869   0.254   3.832   4.593
 2710SOL    HW210870   0.194   3.758   4.602
 2710SOL    HW310871   0.332   3.794   4.552
 2710SOL    MW410872   0.257   3.817   4.589
 2711SOL     OW10873   0.918   0.133   4.487
 2711SOL    HW210874   0.907   0.132   4.392
 2711SOL    HW310875   0.961   0.049   4.507
 2711SOL    MW410876   0.922   0.121   4.477
 2712SOL     OW10877   1.025   4.058   4.485
 2712SOL    HW210878   1.059   4.114   4.416
 2712SOL    HW310879   1.102   4.028   4.532
 2712SOL    MW410880   1.039   4.061   4.482
 2713SOL     OW10881   2.302   3.953   4.496
 2713SOL    HW210882   2.292   3.980   4.405
 2713SOL    HW310883   2.257   3.868   4.500
 2713SOL    MW410884   2.295   3.945   4.484
 2714SOL     OW10885   1.769   4.531   4.515
 2714SOL    HW210886   1.837   4.466   4.529
 2714SOL    HW310887   1.687   4.483   4.522
 2714SOL    MW410888   1.767   4.516   4.517
 2715SOL     OW10889   1.550   4.356   4.508
 2715SOL    HW210890   1.573   4.268   4.538
 2715SOL    HW310891   1.586   4.361   4.419
 2715SOL    MW410892   1.558   4.345   4.500
 2716SOL     OW10893   0.701   0.551   4.517
 2716SOL    HW210894   0.674   0.641   4.536
 2716SOL    HW310895   0.689   0.542   4.423
 2716SOL    MW410896   0.696   0.562   4.507
 2717SOL     OW10897   1.764   0.154   4.502
 2717SOL    HW210898   1.764   0.061   4.524
 2717SOL    HW310899   1.686   0.189   4.546
 2717SOL    MW410900   1.754   0.146   4.511
 2718SOL     OW10901   0.965   0.524   4.451
 2718SOL    HW210902   0.873   0.535   4.477
 2718SOL    HW310903   1.002   0.466   4.517
 2718SOL    MW410904   0.958   0.518   4.463
 2719SOL     OW10905   1.647   1.725   4.464
 2719SOL    HW210906   1.624   1.644   4.511
 2719SOL    HW310907   1.701   1.696   4.390
 2719SOL    MW410908   1.651   1.710   4.461
 2720SOL     OW10909   0.616   0.805   4.609
 2720SOL    HW210910   0.544   0.862   4.580
 2720SOL    HW310911   0.601   0.793   4.703
 2720SOL    MW410912   0.604   0.811   4.617
 2721SOL     OW10913   1.498   0.312   4.576
 2721SOL    HW210914   1.498   0.406   4.558
 2721SOL    HW310915   1.445   0.302   4.656
 2721SOL    MW410916   1.491   0.323   4.584
 2722SOL     OW10917   1.587   1.267   4.461
 2722SOL    HW210918   1.533   1.200   4.502
 2722SOL    HW310919   1.677   1.239   4.476
 2722SOL    MW410920   1.592   1.255   4.468
 2723SOL     OW10921   1.314   1.527   4.491
 2723SOL    HW210922   1.391   1.537   4.546
 2723SOL    HW310923   1.339   1.565   4.407
 2723SOL    MW410924   1.327   1.533   4.487
 2724SOL     OW10925   1.331   2.664   4.603
 2724SOL    HW210926   1.250   2.711   4.582
 2724SOL    HW310927   1.317   2.577   4.567
 2724SOL    MW410928   1.318   2.659   4.596
 2725SOL     OW10929   2.255   2.601   4.323
 2725SOL    HW210930   2.238   2.565   4.237
 2725SOL    HW310931   2.191   2.672   4.333
 2725SOL    MW410932   2.245   2.606   4.313
 2726SOL     OW10933   0.818   2.378   4.461
 2726SOL    HW210934   0.900   2.373   4.512
 2726SOL    HW310935   0.846   2.413   4.376
 2726SOL    MW410936   0.833   2.382   4.457
 2727SOL     OW10937   1.281   3.960   4.507
 2727SOL    HW210938   1.355   3.993   4.557
 2727SOL    HW310939   1.293   3.865   4.505
 2727SOL    MW410940   1.292   3.952   4.513
 2728SOL     OW10941   1.289   2.430   4.199
 2728SOL    HW210942   1.288   2.522   4.171
 2728SOL    HW310943   1.380   2.404   4.190
 2728SOL    MW410944   1.301   2.439   4.194
 2729SOL     OW10945   1.293   2.412   4.480
 2729SOL    HW210946   1.290   2.425   4.385
 2729SOL    HW310947   1.383   2.383   4.497
 2729SOL    MW410948   1.305   2.410   4.469
 2730SOL     OW10949   1.305   3.212   4.539
 2730SOL    HW210950   1.350   3.129   4.548
 2730SOL    HW310951   1.346   3.254   4.463
 2730SOL    MW410952   1.316   3.207   4.530
 2731SOL     OW10953   0.808   3.189   4.830
 2731SOL    HW210954   0.803   3.264   4.771
 2731SOL    HW310955   0.828   3.228   4.916
 2731SOL    MW410956   0.810   3.204   4.834
 2732SOL     OW10957   0.707   3.684   4.569
 2732SOL    HW210958   0.655   3.763   4.585
 2732SOL    HW310959   0.790   3.717   4.534
 2732SOL    MW410960   0.711   3.699   4.567
 2733SOL     OW10961   2.249   3.411   4.568
 2733SOL    HW210962   2.269   3.318   4.575
 2733SOL    HW310963   2.153   3.415   4.574
 2733SOL    MW410964   2.239   3.399   4.569
 2734SOL     OW10965   1.960   3.406   4.557
 2734SOL    HW210966   1.954   3.322   4.604
 2734SOL    HW310967   1.985   3.382   4.468
 2734SOL    MW410968   1.963   3.392   4.552
 2735SOL     OW10969   2.341   3.152   4.558
 2735SOL    HW210970   2.294   3.070   4.545
 2735SOL    HW310971   2.425   3.126   4.595
 2735SOL    MW410972   2.346   3.138   4.561
 2736SOL     OW10973   1.086   3.500   4.604
 2736SOL    HW210974   1.087   3.519   4.510
 2736SOL    HW310975   1.177   3.503   4.631
 2736SOL    MW410976   1.098   3.503   4.595
 2737SOL     OW10977   1.800   4.043   4.537
 2737SOL    HW210978   1.807   4.016   4.445
 2737SOL    HW310979   1.845   3.974   4.586
 2737SOL    MW410980   1.807   4.030   4.531
 2738SOL     OW10981   1.943   0.378   4.472
 2738SOL    HW210982   1.889   0.300   4.481
 2738SOL    HW310983   2.028   0.353   4.509
 2738SOL    MW410984   1.947   0.364   4.478
 2739SOL     OW10985   1.088   0.308   4.588
 2739SOL    HW210986   1.023   0.250   4.549
 2739SOL    HW310987   1.089   0.285   4.681
 2739SOL    MW410988   1.079   0.297   4.595
 2740SOL     OW10989   1.291   0.241   4.397
 2740SOL    HW210990   1.365   0.253   4.456
 2740SOL    HW310991   1.214   0.254   4.452
 2740SOL    MW410992   1.291   0.244   4.412
 2741SOL     OW10993   2.393   0.199   4.737
 2741SOL    HW210994   2.348   0.219   4.819
 2741SOL    HW310995   2.327   0.214   4.669
 2741SOL    MW410996   2.378   0.204   4.739
 2742SOL     OW10997   1.869   0.872   4.496
 2742SOL    HW210998   1.815   0.936   4.542
 2742SOL    HW310999   1.846   0.883   4.404
 2742SOL    MW411000   1.859   0.882   4.490
 2743SOL     OW11001   1.512   0.587   4.502
 2743SOL    HW211002   1.470   0.673   4.509
 2743SOL    HW311003   1.606   0.606   4.502
 2743SOL    MW411004   1.519   0.601   4.503
 2744SOL     OW11005   1.968   1.725   4.477
 2744SOL    HW211006   1.982   1.678   4.395
 2744SOL    HW311007   2.056   1.753   4.503
 2744SOL    MW411008   1.982   1.722   4.470
 2745SOL     OW11009   0.717   1.900   4.539
 2745SOL    HW211010   0.785   1.909   4.607
 2745SOL    HW311011   0.642   1.862   4.585
 2745SOL    MW411012   0.716   1.896   4.554
 2746SOL     OW11013   1.572   1.508   4.620
 2746SOL    HW211014   1.576   1.415   4.597
 2746SOL    HW311015   1.663   1.533   4.636
 2746SOL    MW411016   1.584   1.499   4.619
 2747SOL     OW11017   1.126   2.072   4.709
 2747SOL    HW211018   1.219   2.088   4.689
 2747SOL    HW311019   1.080   2.145   4.670
 2747SOL    MW411020   1.132   2.084   4.701
 2748SOL     OW11021   1.428   1.896   4.432
 2748SOL    HW211022   1.460   1.946   4.357
 2748SOL    HW311023   1.497   1.831   4.449
 2748SOL    MW411024   1.442   1.894   4.424
 2749SOL     OW11025   2.099   2.456   4.132
 2749SOL    HW211026   2.062   2.405   4.060
 2749SOL    HW311027   2.062   2.416   4.211
 2749SOL    MW411028   2.089   2.444   4.133
 2750SOL     OW11029   1.398   2.108   4.659
 2750SOL    HW211030   1.428   2.035   4.606
 2750SOL    HW311031   1.421   2.186   4.609
 2750SOL    MW411032   1.405   2.109   4.646
 2751SOL     OW11033   3.034   3.180   4.774
 2751SOL    HW211034   3.123   3.210   4.794
 2751SOL    HW311035   3.046   3.106   4.715
 2751SOL    MW411036   3.047   3.175   4.769
 2752SOL     OW11037   1.696   3.091   4.675
 2752SOL    HW211038   1.699   3.097   4.579
 2752SOL    HW311039   1.788   3.094   4.702
 2752SOL    MW411040   1.708   3.092   4.666
 2753SOL     OW11041   1.932   3.828   4.660
 2753SOL    HW211042   1.868   3.760   4.640
 2753SOL    HW311043   2.011   3.800   4.612
 2753SOL    MW411044   1.934   3.815   4.651
 2754SOL     OW11045   2.600   2.842   4.756
 2754SOL    HW211046   2.535   2.780   4.724
 2754SOL    HW311047   2.682   2.813   4.717
 2754SOL    MW411048   2.602   2.830   4.747
 2755SOL     OW11049   2.336   2.815   4.902
 2755SOL    HW211050   2.423   2.840   4.932
 2755SOL    HW311051   2.290   2.897   4.889
 2755SOL    MW411052   2.342   2.829   4.904
 2756SOL     OW11053   2.782   3.966   4.527
 2756SOL    HW211054   2.760   3.968   4.434
 2756SOL    HW311055   2.703   3.932   4.569
 2756SOL    MW411056   2.768   3.962   4.520
 2757SOL     OW11057   2.551   3.861   4.629
 2757SOL    HW211058   2.535   3.767   4.619
 2757SOL    HW311059   2.481   3.902   4.578
 2757SOL    MW411060   2.539   3.854   4.621
 2758SOL     OW11061   2.492   3.566   4.560
 2758SOL    HW211062   2.417   3.508   4.572
 2758SOL    HW311063   2.496   3.582   4.465
 2758SOL    MW411064   2.483   3.561   4.549
 2759SOL     OW11065   2.158   3.726   4.516
 2759SOL    HW211066   2.195   3.647   4.556
 2759SOL    HW311067   2.119   3.695   4.434
 2759SOL    MW411068   2.158   3.711   4.510
 2760SOL     OW11069   1.963   4.305   4.527
 2760SOL    HW211070   1.918   4.221   4.537
 2760SOL    HW311071   2.050   4.291   4.566
 2760SOL    MW411072   1.969   4.292   4.533
 2761SOL     OW11073   1.371   3.686   4.472
 2761SOL    HW211074   1.390   3.604   4.519
 2761SOL    HW311075   1.353   3.658   4.382
 2761SOL    MW411076   1.371   3.671   4.466
 2762SOL     OW11077   2.203   0.300   4.540
 2762SOL    HW211078   2.203   0.259   4.453
 2762SOL    HW311079   2.232   0.389   4.525
 2762SOL    MW411080   2.207   0.306   4.527
 2763SOL     OW11081   2.378   0.818   4.604
 2763SOL    HW211082   2.389   0.834   4.698
 2763SOL    HW311083   2.297   0.862   4.581
 2763SOL    MW411084   2.369   0.826   4.614
 2764SOL     OW11085   1.837   1.569   4.668
 2764SOL    HW211086   1.886   1.614   4.599
 2764SOL    HW311087   1.857   1.476   4.654
 2764SOL    MW411088   1.846   1.562   4.657
 2765SOL     OW11089   2.672   4.616   4.488
 2765SOL    HW211090   2.633   4.529   4.481
 2765SOL    HW311091   2.681   4.645   4.397
 2765SOL    MW411092   2.668   4.608   4.475
 2766SOL     OW11093   2.881   0.708   4.336
 2766SOL    HW211094   2.916   0.738   4.420
 2766SOL    HW311095   2.934   0.753   4.270
 2766SOL    MW411096   2.892   0.717   4.338
 2767SOL     OW11097   3.181   1.166   4.366
 2767SOL    HW211098   3.166   1.128   4.452
 2767SOL    HW311099   3.220   1.251   4.383
 2767SOL    MW411100   3.184   1.172   4.379
 2768SOL     OW11101   2.151   0.928   4.498
 2768SOL    HW211102   2.125   1.020   4.495
 2768SOL    HW311103   2.069   0.879   4.499
 2768SOL    MW411104   2.137   0.933   4.498
 2769SOL     OW11105   2.595   1.449   4.493
 2769SOL    HW211106   2.644   1.496   4.425
 2769SOL    HW311107   2.658   1.388   4.530
 2769SOL    MW411108   2.610   1.447   4.489
 2770SOL     OW11109   2.481   1.701   4.547
 2770SOL    HW211110   2.559   1.746   4.515
 2770SOL    HW311111   2.510   1.611   4.561
 2770SOL    MW411112   2.495   1.695   4.544
 2771SOL     OW11113   2.227   1.824   4.497
 2771SOL    HW211114   2.300   1.781   4.542
 2771SOL    HW311115   2.244   1.807   4.404
 2771SOL    MW411116   2.239   1.816   4.491
 2772SOL     OW11117   2.211   2.272   4.713
 2772SOL    HW211118   2.245   2.338   4.652
 2772SOL    HW311119   2.277   2.266   4.782
 2772SOL    MW411120   2.224   2.280   4.714
 2773SOL     OW11121   2.333   2.078   4.530
 2773SOL    HW211122   2.305   1.986   4.528
 2773SOL    HW311123   2.287   2.115   4.605
 2773SOL    MW411124   2.323   2.070   4.539
 2774SOL     OW11125   2.620   2.477   4.586
 2774SOL    HW211126   2.535   2.492   4.626
 2774SOL    HW311127   2.608   2.396   4.535
 2774SOL    MW411128   2.607   2.468   4.584
 2775SOL     OW11129   1.504   2.744   4.404
 2775SOL    HW211130   1.553   2.667   4.373
 2775SOL    HW311131   1.464   2.715   4.486
 2775SOL    MW411132   1.505   2.730   4.410
 2776SOL     OW11133   2.218   3.060   4.796
 2776SOL    HW211134   2.262   3.139   4.764
 2776SOL    HW311135   2.215   3.001   4.720
 2776SOL    MW411136   2.224   3.062   4.782
 2777SOL     OW11137   2.769   3.479   4.604
 2777SOL    HW211138   2.780   3.412   4.671
 2777SOL    HW311139   2.675   3.494   4.600
 2777SOL    MW411140   2.758   3.472   4.612
 2778SOL     OW11141   2.605   3.103   4.649
 2778SOL    HW211142   2.659   3.154   4.710
 2778SOL    HW311143   2.605   3.014   4.684
 2778SOL    MW411144   2.612   3.098   4.662
 2779SOL     OW11145   1.537   4.089   4.614
 2779SOL    HW211146   1.518   4.038   4.693
 2779SOL    HW311147   1.628   4.067   4.592
 2779SOL    MW411148   1.546   4.079   4.621
 2780SOL     OW11149   2.941   4.227   4.392
 2780SOL    HW211150   2.912   4.148   4.437
 2780SOL    HW311151   2.900   4.298   4.441
 2780SOL    MW411152   2.932   4.226   4.405
 2781SOL     OW11153   1.979   3.168   4.695
 2781SOL    HW211154   1.984   3.112   4.617
 2781SOL    HW311155   2.044   3.130   4.755
 2781SOL    MW411156   1.989   3.155   4.692
 2782SOL     OW11157   3.246   3.912   4.515
 2782SOL    HW211158   3.218   3.952   4.597
 2782SOL    HW311159   3.240   3.818   4.531
 2782SOL    MW411160   3.242   3.905   4.528
 2783SOL     OW11161   3.235   4.064   4.763
 2783SOL    HW211162   3.187   4.075   4.846
 2783SOL    HW311163   3.216   4.143   4.714
 2783SOL    MW411164   3.226   4.076   4.768
 2784SOL     OW11165   2.309   4.212   4.601
 2784SOL    HW211166   2.293   4.122   4.575
 2784SOL    HW311167   2.309   4.210   4.697
 2784SOL    MW411168   2.307   4.200   4.610
 2785SOL     OW11169   2.537   4.353   4.487
 2785SOL    HW211170   2.464   4.305   4.527
 2785SOL    HW311171   2.502   4.384   4.403
 2785SOL    MW411172   2.523   4.351   4.481
 2786SOL     OW11173   2.895   0.423   4.251
 2786SOL    HW211174   2.964   0.423   4.184
 2786SOL    HW311175   2.886   0.516   4.275
 2786SOL    MW411176   2.903   0.436   4.245
 2787SOL     OW11177   3.053   4.489   4.751
 2787SOL    HW211178   3.100   4.419   4.705
 2787SOL    HW311179   3.006   4.444   4.821
 2787SOL    MW411180   3.053   4.473   4.754
 2788SOL     OW11181   2.751   4.242   4.644
 2788SOL    HW211182   2.673   4.281   4.605
 2788SOL    HW311183   2.747   4.150   4.620
 2788SOL    MW411184   2.740   4.235   4.636
 2789SOL     OW11185   2.859   1.021   4.631
 2789SOL    HW211186   2.880   0.928   4.624
 2789SOL    HW311187   2.763   1.024   4.628
 2789SOL    MW411188   2.849   1.009   4.630
 2790SOL     OW11189   2.907   0.222   4.806
 2790SOL    HW211190   2.818   0.222   4.772
 2790SOL    HW311191   2.926   0.315   4.822
 2790SOL    MW411192   2.898   0.234   4.804
 2791SOL     OW11193   1.784   0.605   4.519
 2791SOL    HW211194   1.848   0.536   4.502
 2791SOL    HW311195   1.835   0.686   4.520
 2791SOL    MW411196   1.799   0.607   4.517
 2792SOL     OW11197   2.564   0.996   4.525
 2792SOL    HW211198   2.499   0.929   4.544
 2792SOL    HW311199   2.603   0.970   4.442
 2792SOL    MW411200   2.560   0.984   4.517
 2793SOL     OW11201   3.051   1.467   4.588
 2793SOL    HW211202   2.969   1.418   4.580
 2793SOL    HW311203   3.099   1.445   4.508
 2793SOL    MW411204   3.047   1.457   4.576
 2794SOL     OW11205   2.999   1.691   4.446
 2794SOL    HW211206   2.911   1.729   4.449
 2794SOL    HW311207   2.995   1.616   4.506
 2794SOL    MW411208   2.987   1.686   4.454
 2795SOL     OW11209   2.744   1.814   4.459
 2795SOL    HW211210   2.778   1.903   4.459
 2795SOL    HW311211   2.716   1.798   4.369
 2795SOL    MW411212   2.745   1.823   4.447
 2796SOL     OW11213   2.606   2.234   4.447
 2796SOL    HW211214   2.594   2.251   4.354
 2796SOL    HW311215   2.533   2.178   4.471
 2796SOL    MW411216   2.595   2.229   4.438
 2797SOL     OW11217   2.852   2.080   4.425
 2797SOL    HW211218   2.773   2.126   4.453
 2797SOL    HW311219   2.855   2.092   4.331
 2797SOL    MW411220   2.842   2.087   4.417
 2798SOL     OW11221   3.028   2.273   4.530
 2798SOL    HW211222   2.960   2.213   4.498
 2798SOL    HW311223   3.049   2.328   4.454
 2798SOL    MW411224   3.022   2.272   4.515
 2799SOL     OW11225   2.381   2.685   4.668
 2799SOL    HW211226   2.335   2.723   4.743
 2799SOL    HW311227   2.368   2.748   4.597
 2799SOL    MW411228   2.373   2.698   4.668
 2800SOL     OW11229   3.573   3.490   4.617
 2800SOL    HW211230   3.484   3.460   4.600
 2800SOL    HW311231   3.627   3.439   4.557
 2800SOL    MW411232   3.568   3.479   4.607
 2801SOL     OW11233   2.673   2.672   4.381
 2801SOL    HW211234   2.660   2.595   4.437
 2801SOL    HW311235   2.604   2.733   4.407
 2801SOL    MW411236   2.662   2.670   4.392
 2802SOL     OW11237   2.772   3.242   4.817
 2802SOL    HW211238   2.863   3.213   4.820
 2802SOL    HW311239   2.743   3.238   4.908
 2802SOL    MW411240   2.780   3.238   4.829
 2803SOL     OW11241   3.033   2.958   4.590
 2803SOL    HW211242   3.107   2.896   4.588
 2803SOL    HW311243   2.955   2.902   4.584
 2803SOL    MW411244   3.033   2.942   4.589
 2804SOL     OW11245   2.612   0.437   4.562
 2804SOL    HW211246   2.628   0.401   4.475
 2804SOL    HW311247   2.616   0.361   4.620
 2804SOL    MW411248   2.615   0.422   4.558
 2805SOL     OW11249   3.500   4.112   4.845
 2805SOL    HW211250   3.410   4.082   4.834
 2805SOL    HW311251   3.520   4.160   4.765
 2805SOL    MW411252   3.491   4.114   4.833
 2806SOL     OW11253   3.914   3.674   4.549
 2806SOL    HW211254   3.909   3.657   4.455
 2806SOL    HW311255   3.938   3.589   4.587
 2806SOL    MW411256   3.917   3.661   4.541
 2807SOL     OW11257   2.939   3.672   4.503
 2807SOL    HW211258   2.888   3.603   4.547
 2807SOL    HW311259   2.902   3.754   4.537
 2807SOL    MW411260   2.927   3.674   4.513
 2808SOL     OW11261   3.165   4.283   4.593
 2808SOL    HW211262   3.111   4.252   4.521
 2808SOL    HW311263   3.247   4.308   4.552
 2808SOL    MW411264   3.169   4.282   4.578
 2809SOL     OW11265   3.003   0.346   4.490
 2809SOL    HW211266   2.959   0.364   4.408
 2809SOL    HW311267   3.013   0.250   4.492
 2809SOL    MW411268   2.999   0.335   4.480
 2810SOL     OW11269   2.965   0.763   4.602
 2810SOL    HW211270   3.060   0.750   4.604
 2810SOL    HW311271   2.929   0.683   4.641
 2810SOL    MW411272   2.973   0.750   4.607
 2811SOL     OW11273   2.346   0.533   4.529
 2811SOL    HW211274   2.428   0.496   4.559
 2811SOL    HW311275   2.351   0.626   4.551
 2811SOL    MW411276   2.357   0.541   4.536
 2812SOL     OW11277   2.406   1.217   4.484
 2812SOL    HW211278   2.461   1.140   4.497
 2812SOL    HW311279   2.465   1.291   4.501
 2812SOL    MW411280   2.421   1.217   4.488
 2813SOL     OW11281   2.886   4.302   4.902
 2813SOL    HW211282   2.827   4.284   4.828
 2813SOL    HW311283   2.828   4.333   4.972
 2813SOL    MW411284   2.870   4.304   4.901
 2814SOL     OW11285   2.911   4.500   4.485
 2814SOL    HW211286   2.827   4.546   4.481
 2814SOL    HW311287   2.931   4.495   4.579
 2814SOL    MW411288   2.902   4.505   4.497
 2815SOL     OW11289   3.248   1.326   4.732
 2815SOL    HW211290   3.218   1.240   4.704
 2815SOL    HW311291   3.176   1.385   4.709
 2815SOL    MW411292   3.235   1.323   4.725
 2816SOL     OW11293   2.837   1.284   4.518
 2816SOL    HW211294   2.844   1.192   4.542
 2816SOL    HW311295   2.841   1.284   4.422
 2816SOL    MW411296   2.838   1.272   4.509
 2817SOL     OW11297   3.996   0.910   4.525
 2817SOL    HW211298   4.000   0.899   4.430
 2817SOL    HW311299   4.081   0.878   4.557
 2817SOL    MW411300   4.007   0.904   4.517
 2818SOL     OW11301   3.529   1.409   4.696
 2818SOL    HW211302   3.517   1.487   4.641
 2818SOL    HW311303   3.446   1.400   4.742
 2818SOL    MW411304   3.516   1.418   4.695
 2819SOL     OW11305   3.259   1.806   4.585
 2819SOL    HW211306   3.246   1.900   4.599
 2819SOL    HW311307   3.172   1.774   4.560
 2819SOL    MW411308   3.246   1.814   4.584
 2820SOL     OW11309   3.268   2.118   4.534
 2820SOL    HW211310   3.184   2.158   4.557
 2820SOL    HW311311   3.262   2.104   4.439
 2820SOL    MW411312   3.256   2.121   4.524
 2821SOL     OW11313   3.484   1.630   4.530
 2821SOL    HW211314   3.417   1.693   4.555
 2821SOL    HW311315   3.507   1.653   4.440
 2821SOL    MW411316   3.478   1.642   4.521
 2822SOL     OW11317   2.823   2.791   4.574
 2822SOL    HW211318   2.792   2.768   4.486
 2822SOL    HW311319   2.872   2.714   4.603
 2822SOL    MW411320   2.825   2.778   4.566
 2823SOL     OW11321   3.220   2.547   4.585
 2823SOL    HW211322   3.128   2.525   4.595
 2823SOL    HW311323   3.223   2.642   4.594
 2823SOL    MW411324   3.208   2.557   4.587
 2824SOL     OW11325   2.904   2.517   4.610
 2824SOL    HW211326   2.938   2.434   4.577
 2824SOL    HW311327   2.810   2.502   4.621
 2824SOL    MW411328   2.896   2.504   4.607
 2825SOL     OW11329   3.695   3.031   4.624
 2825SOL    HW211330   3.760   3.060   4.688
 2825SOL    HW311331   3.738   2.959   4.577
 2825SOL    MW411332   3.709   3.025   4.626
 2826SOL     OW11333   3.338   3.194   4.754
 2826SOL    HW211334   3.356   3.101   4.742
 2826SOL    HW311335   3.421   3.232   4.781
 2826SOL    MW411336   3.351   3.186   4.756
 2827SOL     OW11337   3.425   2.927   4.728
 2827SOL    HW211338   3.516   2.947   4.706
 2827SOL    HW311339   3.431   2.850   4.784
 2827SOL    MW411340   3.438   2.920   4.732
 2828SOL     OW11341   3.869   2.839   4.515
 2828SOL    HW211342   3.837   2.749   4.503
 2828SOL    HW311343   3.962   2.829   4.537
 2828SOL    MW411344   3.877   2.826   4.517
 2829SOL     OW11345   3.596   3.277   4.789
 2829SOL    HW211346   3.690   3.256   4.792
 2829SOL    HW311347   3.592   3.358   4.739
 2829SOL    MW411348   3.608   3.285   4.783
 2830SOL     OW11349   3.619   4.232   4.606
 2830SOL    HW211350   3.713   4.248   4.607
 2830SOL    HW311351   3.611   4.138   4.589
 2830SOL    MW411352   3.630   4.222   4.604
 2831SOL     OW11353   3.059   0.062   4.462
 2831SOL    HW211354   3.009  -0.017   4.445
 2831SOL    HW311355   3.072   0.062   4.557
 2831SOL    MW411356   3.054   0.052   4.472
 2832SOL     OW11357   3.139   0.080   4.719
 2832SOL    HW211358   3.110  -0.007   4.745
 2832SOL    HW311359   3.073   0.139   4.756
 2832SOL    MW411360   3.127   0.076   4.727
 2833SOL     OW11361   3.410   4.350   4.490
 2833SOL    HW211362   3.486   4.313   4.534
 2833SOL    HW311363   3.418   4.445   4.504
 2833SOL    MW411364   3.421   4.358   4.497
 2834SOL     OW11365   3.519   3.966   4.530
 2834SOL    HW211366   3.567   3.891   4.564
 2834SOL    HW311367   3.427   3.943   4.540
 2834SOL    MW411368   3.514   3.953   4.536
 2835SOL     OW11369   3.490   4.626   4.491
 2835SOL    HW211370   3.437   4.697   4.529
 2835SOL    HW311371   3.515   4.659   4.405
 2835SOL    MW411372   3.486   4.640   4.485
 2836SOL     OW11373   3.309   0.867   4.777
 2836SOL    HW211374   3.399   0.891   4.752
 2836SOL    HW311375   3.304   0.886   4.870
 2836SOL    MW411376   3.320   0.873   4.786
 2837SOL     OW11377   2.655   0.177   4.665
 2837SOL    HW211378   2.667   0.110   4.598
 2837SOL    HW311379   2.562   0.175   4.686
 2837SOL    MW411380   2.645   0.168   4.659
 2838SOL     OW11381   3.858   1.508   4.660
 2838SOL    HW211382   3.952   1.491   4.652
 2838SOL    HW311383   3.835   1.474   4.747
 2838SOL    MW411384   3.867   1.502   4.671
 2839SOL     OW11385   3.770   0.743   4.595
 2839SOL    HW211386   3.735   0.719   4.509
 2839SOL    HW311387   3.858   0.775   4.577
 2839SOL    MW411388   3.777   0.744   4.581
 2840SOL     OW11389   4.452   0.892   4.597
 2840SOL    HW211390   4.448   0.890   4.502
 2840SOL    HW311391   4.536   0.850   4.619
 2840SOL    MW411392   4.462   0.886   4.588
 2841SOL     OW11393   4.233   0.501   4.518
 2841SOL    HW211394   4.241   0.501   4.423
 2841SOL    HW311395   4.140   0.487   4.535
 2841SOL    MW411396   4.222   0.499   4.508
 2842SOL     OW11397   3.546   1.683   4.272
 2842SOL    HW211398   3.628   1.645   4.242
 2842SOL    HW311399   3.480   1.644   4.215
 2842SOL    MW411400   3.548   1.673   4.261
 2843SOL     OW11401   3.978   1.712   4.363
 2843SOL    HW211402   4.062   1.721   4.409
 2843SOL    HW311403   3.913   1.741   4.426
 2843SOL    MW411404   3.981   1.717   4.377
 2844SOL     OW11405   3.700   2.300   4.550
 2844SOL    HW211406   3.604   2.303   4.548
 2844SOL    HW311407   3.720   2.210   4.574
 2844SOL    MW411408   3.690   2.289   4.553
 2845SOL     OW11409   3.737   1.758   4.557
 2845SOL    HW211410   3.647   1.734   4.538
 2845SOL    HW311411   3.771   1.687   4.610
 2845SOL    MW411412   3.730   1.746   4.561
 2846SOL     OW11413   0.376   1.995   4.787
 2846SOL    HW211414   0.430   2.015   4.863
 2846SOL    HW311415   0.371   2.077   4.739
 2846SOL    MW411416   0.382   2.008   4.791
 2847SOL     OW11417   3.789   2.032   4.575
 2847SOL    HW211418   3.883   2.015   4.587
 2847SOL    HW311419   3.751   1.945   4.564
 2847SOL    MW411420   3.796   2.018   4.575
 2848SOL     OW11421   3.820   2.551   4.459
 2848SOL    HW211422   3.784   2.482   4.514
 2848SOL    HW311423   3.763   2.554   4.383
 2848SOL    MW411424   3.808   2.542   4.457
 2849SOL     OW11425   4.087   2.519   4.424
 2849SOL    HW211426   3.996   2.526   4.453
 2849SOL    HW311427   4.127   2.602   4.449
 2849SOL    MW411428   4.080   2.531   4.431
 2850SOL     OW11429   0.047   2.991   4.650
 2850SOL    HW211430   0.014   3.076   4.622
 2850SOL    HW311431   0.143   3.001   4.649
 2850SOL    MW411432   0.056   3.003   4.646
 2851SOL     OW11433   3.311   3.379   4.536
 2851SOL    HW211434   3.288   3.344   4.450
 2851SOL    HW311435   3.293   3.308   4.598
 2851SOL    MW411436   3.306   3.365   4.533
 2852SOL     OW11437   3.849   3.221   4.803
 2852SOL    HW211438   3.859   3.244   4.896
 2852SOL    HW311439   3.885   3.296   4.756
 2852SOL    MW411440   3.855   3.233   4.809
 2853SOL     OW11441   3.244   3.646   4.469
 2853SOL    HW211442   3.150   3.664   4.471
 2853SOL    HW311443   3.253   3.559   4.508
 2853SOL    MW411444   3.233   3.637   4.475
 2854SOL     OW11445   4.208   3.364   4.469
 2854SOL    HW211446   4.233   3.443   4.421
 2854SOL    HW311447   4.167   3.308   4.404
 2854SOL    MW411448   4.206   3.367   4.454
 2855SOL     OW11449   0.237   2.800   4.445
 2855SOL    HW211450   0.220   2.824   4.355
 2855SOL    HW311451   0.281   2.877   4.483
 2855SOL    MW411452   0.241   2.813   4.438
 2856SOL     OW11453   4.335   3.817   4.448
 2856SOL    HW211454   4.250   3.860   4.454
 2856SOL    HW311455   4.320   3.741   4.392
 2856SOL    MW411456   4.322   3.813   4.441
 2857SOL     OW11457   3.889   4.379   4.564
 2857SOL    HW211458   3.872   4.374   4.470
 2857SOL    HW311459   3.860   4.466   4.590
 2857SOL    MW411460   3.883   4.390   4.555
 2858SOL     OW11461   3.390   0.179   4.644
 2858SOL    HW211462   3.309   0.143   4.679
 2858SOL    HW311463   3.363   0.263   4.604
 2858SOL    MW411464   3.375   0.186   4.643
 2859SOL     OW11465   3.571   0.947   4.712
 2859SOL    HW211466   3.585   1.027   4.661
 2859SOL    HW311467   3.650   0.895   4.697
 2859SOL    MW411468   3.583   0.951   4.703
 2860SOL     OW11469   3.230   0.701   4.577
 2860SOL    HW211470   3.251   0.608   4.573
 2860SOL    HW311471   3.276   0.733   4.655
 2860SOL    MW411472   3.239   0.693   4.586
 2861SOL     OW11473   4.478   0.357   4.550
 2861SOL    HW211474   4.537   0.430   4.530
 2861SOL    HW311475   4.390   0.392   4.536
 2861SOL    MW411476   4.474   0.371   4.545
 2862SOL     OW11477   0.197   0.526   4.471
 2862SOL    HW211478   0.279   0.485   4.501
 2862SOL    HW311479   0.207   0.533   4.376
 2862SOL    MW411480   0.209   0.522   4.463
 2863SOL     OW11481   3.971   0.395   4.521
 2863SOL    HW211482   3.911   0.389   4.595
 2863SOL    HW311483   4.000   0.305   4.506
 2863SOL    MW411484   3.967   0.383   4.529
 2864SOL     OW11485   3.585   1.170   4.554
 2864SOL    HW211486   3.552   1.241   4.609
 2864SOL    HW311487   3.674   1.197   4.532
 2864SOL    MW411488   3.592   1.183   4.559
 2865SOL     OW11489   4.466   1.176   4.573
 2865SOL    HW211490   4.562   1.179   4.583
 2865SOL    HW311491   4.442   1.088   4.604
 2865SOL    MW411492   4.476   1.165   4.579
 2866SOL     OW11493   4.363   1.439   4.494
 2866SOL    HW211494   4.428   1.510   4.500
 2866SOL    HW311495   4.407   1.364   4.535
 2866SOL    MW411496   4.378   1.439   4.500
 2867SOL     OW11497   3.832   1.285   4.482
 2867SOL    HW211498   3.914   1.247   4.515
 2867SOL    HW311499   3.824   1.368   4.529
 2867SOL    MW411500   3.842   1.291   4.493
 2868SOL     OW11501   3.257   2.816   4.552
 2868SOL    HW211502   3.289   2.815   4.463
 2868SOL    HW311503   3.323   2.865   4.601
 2868SOL    MW411504   3.270   2.822   4.547
 2869SOL     OW11505   4.237   2.128   4.285
 2869SOL    HW211506   4.165   2.066   4.272
 2869SOL    HW311507   4.208   2.183   4.358
 2869SOL    MW411508   4.223   2.127   4.293
 2870SOL     OW11509   0.211   2.151   4.504
 2870SOL    HW211510   0.285   2.182   4.556
 2870SOL    HW311511   0.146   2.222   4.511
 2870SOL    MW411512   0.212   2.165   4.512
 2871SOL     OW11513   4.079   1.999   4.553
 2871SOL    HW211514   4.134   1.921   4.551
 2871SOL    HW311515   4.141   2.071   4.567
 2871SOL    MW411516   4.095   1.998   4.555
 2872SOL     OW11517   3.416   2.340   4.499
 2872SOL    HW211518   3.351   2.405   4.528
 2872SOL    HW311519   3.379   2.256   4.526
 2872SOL    MW411520   3.403   2.338   4.507
 2873SOL     OW11521   0.450   2.511   4.730
 2873SOL    HW211522   0.393   2.534   4.656
 2873SOL    HW311523   0.441   2.584   4.791
 2873SOL    MW411524   0.441   2.523   4.728
 2874SOL     OW11525   4.140   2.783   4.516
 2874SOL    HW211526   4.227   2.774   4.555
 2874SOL    HW311527   4.157   2.806   4.425
 2874SOL    MW411528   4.154   2.785   4.509
 2875SOL     OW11529   4.406   2.762   4.578
 2875SOL    HW211530   4.444   2.841   4.616
 2875SOL    HW311531   4.468   2.693   4.601
 2875SOL    MW411532   4.420   2.764   4.586
 2876SOL     OW11533   0.186   3.506   4.542
 2876SOL    HW211534   0.192   3.525   4.449
 2876SOL    HW311535   0.118   3.439   4.549
 2876SOL    MW411536   0.178   3.500   4.531
 2877SOL     OW11537   3.757   4.636   4.534
 2877SOL    HW211538   3.663   4.618   4.536
 2877SOL    HW311539   3.767   4.715   4.588
 2877SOL    MW411540   3.746   4.644   4.542
 2878SOL     OW11541   3.695   0.182   4.671
 2878SOL    HW211542   3.601   0.168   4.685
 2878SOL    HW311543   3.705   0.277   4.673
 2878SOL    MW411544   3.684   0.193   4.673
 2879SOL     OW11545   3.959   3.395   4.606
 2879SOL    HW211546   3.894   3.358   4.546
 2879SOL    HW311547   4.043   3.384   4.562
 2879SOL    MW411548   3.961   3.389   4.593
 2880SOL     OW11549   2.866   0.509   4.668
 2880SOL    HW211550   2.776   0.490   4.641
 2880SOL    HW311551   2.920   0.453   4.613
 2880SOL    MW411552   2.861   0.499   4.657
 2881SOL     OW11553   4.275   4.384   4.258
 2881SOL    HW211554   4.345   4.358   4.198
 2881SOL    HW311555   4.306   4.356   4.345
 2881SOL    MW411556   4.288   4.377   4.262
 2882NA      NA11557   2.709   4.232   0.689
 2883NA      NA11558   0.751   2.057   0.383
   4.49070   4.66690  10.00000
