Gromacs Runs On Most of All Computer Systems in water t=  30.00000 step= 30000
11558
    1RG35     P    1   2.102   2.756   4.466
    1RG35   O1P    2   2.185   2.695   4.363
    1RG35   O2P    3   1.959   2.750   4.447
    1RG35   O5'    4   2.125   2.659   4.586
    1RG35   C5'    5   2.085   2.688   4.717
    1RG35  H5'1    6   1.989   2.740   4.717
    1RG35  H5'2    7   2.158   2.760   4.755
    1RG35   C4'    8   2.077   2.565   4.806
    1RG35   H4'    9   2.044   2.595   4.906
    1RG35   O4'   10   1.974   2.484   4.748
    1RG35   C1'   11   2.024   2.349   4.744
    1RG35   H1'   12   2.025   2.307   4.845
    1RG35    N9   13   1.946   2.265   4.654
    1RG35    C8   14   1.839   2.301   4.579
    1RG35    H8   15   1.808   2.404   4.564
    1RG35    N7   16   1.770   2.203   4.520
    1RG35    C5   17   1.841   2.089   4.570
    1RG35    C6   18   1.814   1.951   4.542
    1RG35    O6   19   1.732   1.902   4.465
    1RG35    N1   20   1.891   1.869   4.615
    1RG35    H1   21   1.876   1.770   4.600
    1RG35    C2   22   1.989   1.910   4.696
    1RG35    N2   23   2.065   1.821   4.750
    1RG35   H21   24   2.050   1.722   4.735
    1RG35   H22   25   2.138   1.852   4.813
    1RG35    N3   26   2.013   2.037   4.733
    1RG35    C4   27   1.940   2.125   4.661
    1RG35   C3'   28   2.208   2.483   4.801
    1RG35   H3'   29   2.290   2.541   4.760
    1RG35   C2'   30   2.172   2.369   4.706
    1RG35  H2'1   31   2.186   2.398   4.601
    1RG35   O2'   32   2.249   2.253   4.736
    1RG35  HO'2   33   2.232   2.176   4.680
    1RG35   O3'   34   2.238   2.421   4.927
    1RG35   H3T   35   2.270   2.332   4.909
    1RG35   O3P   36   2.154   2.885   4.509
    2SOL     OW   37   0.473   0.044   0.441
    2SOL    HW2   38   0.554   0.074   0.399
    2SOL    HW3   39   0.408   0.108   0.414
    2SOL    MW4   40   0.475   0.056   0.432
    3SOL     OW   41   3.980   0.083   0.412
    3SOL    HW2   42   4.058   0.133   0.386
    3SOL    HW3   43   4.006  -0.008   0.401
    3SOL    MW4   44   3.994   0.078   0.407
    4SOL     OW   45   3.473   0.307   0.286
    4SOL    HW2   46   3.477   0.390   0.332
    4SOL    HW3   47   3.389   0.269   0.312
    4SOL    MW4   48   3.463   0.313   0.295
    5SOL     OW   49   0.161   1.695   0.497
    5SOL    HW2   50   0.120   1.684   0.583
    5SOL    HW3   51   0.112   1.635   0.440
    5SOL    MW4   52   0.149   1.685   0.501
    6SOL     OW   53   1.367   0.939   0.507
    6SOL    HW2   54   1.326   0.914   0.589
    6SOL    HW3   55   1.294   0.960   0.449
    6SOL    MW4   56   1.352   0.939   0.510
    7SOL     OW   57   0.214   0.503   0.437
    7SOL    HW2   58   0.234   0.511   0.531
    7SOL    HW3   59   0.222   0.410   0.418
    7SOL    MW4   60   0.218   0.492   0.447
    8SOL     OW   61   0.414   0.916   0.449
    8SOL    HW2   62   0.427   0.920   0.544
    8SOL    HW3   63   0.427   0.823   0.427
    8SOL    MW4   64   0.418   0.904   0.458
    9SOL     OW   65   0.898   0.889   0.481
    9SOL    HW2   66   0.885   0.888   0.576
    9SOL    HW3   67   0.814   0.917   0.446
    9SOL    MW4   68   0.885   0.892   0.489
   10SOL     OW   69   0.664   0.998   0.348
   10SOL    HW2   70   0.652   0.972   0.257
   10SOL    HW3   71   0.580   0.978   0.390
   10SOL    MW4   72   0.651   0.992   0.342
   11SOL     OW   73   0.672   1.610   0.237
   11SOL    HW2   74   0.579   1.624   0.253
   11SOL    HW3   75   0.689   1.522   0.270
   11SOL    MW4   76   0.662   1.600   0.243
   12SOL     OW   77   4.161   1.870   0.575
   12SOL    HW2   78   4.205   1.805   0.521
   12SOL    HW3   79   4.077   1.886   0.531
   12SOL    MW4   80   4.155   1.864   0.562
   13SOL     OW   81   0.108   1.918   0.277
   13SOL    HW2   82   0.013   1.912   0.262
   13SOL    HW3   83   0.130   1.836   0.320
   13SOL    MW4   84   0.098   1.906   0.280
   14SOL     OW   85   0.275   2.352   0.567
   14SOL    HW2   86   0.241   2.399   0.491
   14SOL    HW3   87   0.229   2.268   0.567
   14SOL    MW4   88   0.264   2.347   0.557
   15SOL     OW   89   0.151   2.487   0.340
   15SOL    HW2   90   0.171   2.581   0.330
   15SOL    HW3   91   0.185   2.447   0.260
   15SOL    MW4   92   0.158   2.494   0.328
   16SOL     OW   93   4.266   3.345   0.576
   16SOL    HW2   94   4.193   3.300   0.619
   16SOL    HW3   95   4.321   3.274   0.543
   16SOL    MW4   96   4.264   3.330   0.578
   17SOL     OW   97   0.057   2.875   0.466
   17SOL    HW2   98   0.085   2.854   0.377
   17SOL    HW3   99  -0.038   2.861   0.465
   17SOL    MW4  100   0.048   2.870   0.454
   18SOL     OW  101   0.504   3.370   0.523
   18SOL    HW2  102   0.515   3.348   0.615
   18SOL    HW3  103   0.581   3.422   0.501
   18SOL    MW4  104   0.515   3.374   0.532
   19SOL     OW  105   0.808   3.786   0.454
   19SOL    HW2  106   0.723   3.826   0.432
   19SOL    HW3  107   0.860   3.858   0.488
   19SOL    MW4  108   0.803   3.801   0.455
   20SOL     OW  109   3.943   3.382   0.349
   20SOL    HW2  110   3.928   3.438   0.425
   20SOL    HW3  111   4.031   3.405   0.319
   20SOL    MW4  112   3.953   3.393   0.355
   21SOL     OW  113   0.049   3.757   0.406
   21SOL    HW2  114   0.026   3.697   0.477
   21SOL    HW3  115   0.141   3.778   0.421
   21SOL    MW4  116   0.058   3.752   0.417
   22SOL     OW  117   0.006   4.423   0.308
   22SOL    HW2  118   0.020   4.375   0.226
   22SOL    HW3  119  -0.071   4.381   0.347
   22SOL    MW4  120  -0.002   4.411   0.302
   23SOL     OW  121   4.300   4.282   0.430
   23SOL    HW2  122   4.319   4.286   0.524
   23SOL    HW3  123   4.308   4.190   0.408
   23SOL    MW4  124   4.304   4.271   0.439
   24SOL     OW  125   4.388   3.999   0.423
   24SOL    HW2  126   4.424   3.912   0.407
   24SOL    HW3  127   4.315   3.985   0.483
   24SOL    MW4  128   4.383   3.986   0.429
   25SOL     OW  129   0.339   3.133   0.434
   25SOL    HW2  130   0.410   3.194   0.453
   25SOL    HW3  131   0.274   3.186   0.389
   25SOL    MW4  132   0.340   3.148   0.430
   26SOL     OW  133   0.497   4.437   0.396
   26SOL    HW2  134   0.419   4.400   0.438
   26SOL    HW3  135   0.487   4.532   0.406
   26SOL    MW4  136   0.486   4.445   0.403
   27SOL     OW  137   0.224   0.211   0.466
   27SOL    HW2  138   0.207   0.219   0.560
   27SOL    HW3  139   0.142   0.177   0.430
   27SOL    MW4  140   0.211   0.207   0.474
   28SOL     OW  141   4.420   0.576   0.376
   28SOL    HW2  142   4.515   0.582   0.391
   28SOL    HW3  143   4.387   0.664   0.393
   28SOL    MW4  144   4.429   0.588   0.380
   29SOL     OW  145   0.972   4.466   0.469
   29SOL    HW2  146   1.018   4.451   0.551
   29SOL    HW3  147   0.900   4.403   0.469
   29SOL    MW4  148   0.969   4.456   0.479
   30SOL     OW  149   1.119   1.021   0.360
   30SOL    HW2  150   1.043   0.977   0.397
   30SOL    HW3  151   1.117   1.000   0.267
   30SOL    MW4  152   1.109   1.013   0.352
   31SOL     OW  153   0.640   0.480   0.461
   31SOL    HW2  154   0.721   0.523   0.432
   31SOL    HW3  155   0.651   0.389   0.433
   31SOL    MW4  156   0.652   0.474   0.453
   32SOL     OW  157   0.259   1.172   0.480
   32SOL    HW2  158   0.167   1.147   0.470
   32SOL    HW3  159   0.308   1.092   0.458
   32SOL    MW4  160   0.253   1.158   0.476
   33SOL     OW  161   0.539   1.921   0.379
   33SOL    HW2  162   0.627   1.886   0.363
   33SOL    HW3  163   0.491   1.847   0.416
   33SOL    MW4  164   0.544   1.907   0.382
   34SOL     OW  165   0.330   2.109   0.248
   34SOL    HW2  166   0.409   2.061   0.272
   34SOL    HW3  167   0.260   2.043   0.252
   34SOL    MW4  168   0.331   2.094   0.252
   35SOL     OW  169   0.464   2.460   0.313
   35SOL    HW2  170   0.432   2.418   0.393
   35SOL    HW3  171   0.406   2.428   0.244
   35SOL    MW4  172   0.452   2.451   0.314
   36SOL     OW  173   0.774   2.322   0.199
   36SOL    HW2  174   0.811   2.242   0.238
   36SOL    HW3  175   0.782   2.308   0.105
   36SOL    MW4  176   0.780   2.310   0.192
   37SOL     OW  177   3.896   2.424   0.336
   37SOL    HW2  178   3.962   2.483   0.297
   37SOL    HW3  179   3.933   2.336   0.324
   37SOL    MW4  180   3.910   2.420   0.329
   38SOL     OW  181   0.686   2.715   0.347
   38SOL    HW2  182   0.734   2.796   0.329
   38SOL    HW3  183   0.594   2.737   0.330
   38SOL    MW4  184   0.680   2.729   0.342
   39SOL     OW  185   0.635   2.395   0.550
   39SOL    HW2  186   0.637   2.301   0.531
   39SOL    HW3  187   0.672   2.402   0.638
   39SOL    MW4  188   0.640   2.384   0.559
   40SOL     OW  189   4.454   3.149   0.515
   40SOL    HW2  190   4.493   3.203   0.446
   40SOL    HW3  191   4.505   3.068   0.513
   40SOL    MW4  192   4.466   3.145   0.506
   41SOL     OW  193   0.227   2.752   0.271
   41SOL    HW2  194   0.305   2.754   0.326
   41SOL    HW3  195   0.255   2.708   0.191
   41SOL    MW4  196   0.241   2.746   0.267
   42SOL     OW  197   1.229   0.198   0.115
   42SOL    HW2  198   1.285   0.127   0.146
   42SOL    HW3  199   1.250   0.206   0.022
   42SOL    MW4  200   1.239   0.190   0.107
   43SOL     OW  201   0.286   3.556   0.536
   43SOL    HW2  202   0.304   3.641   0.494
   43SOL    HW3  203   0.367   3.507   0.524
   43SOL    MW4  204   0.299   3.561   0.529
   44SOL     OW  205   0.740   3.535   0.549
   44SOL    HW2  206   0.768   3.618   0.511
   44SOL    HW3  207   0.724   3.555   0.641
   44SOL    MW4  208   0.742   3.548   0.556
   45SOL     OW  209   1.178   3.634   0.515
   45SOL    HW2  210   1.121   3.702   0.480
   45SOL    HW3  211   1.141   3.552   0.482
   45SOL    MW4  212   1.166   3.632   0.506
   46SOL     OW  213   0.212   4.333   0.485
   46SOL    HW2  214   0.141   4.368   0.431
   46SOL    HW3  215   0.197   4.238   0.485
   46SOL    MW4  216   0.201   4.325   0.478
   47SOL     OW  217   1.080   3.879   0.362
   47SOL    HW2  218   1.037   3.950   0.410
   47SOL    HW3  219   1.022   3.863   0.287
   47SOL    MW4  220   1.066   3.887   0.358
   48SOL     OW  221   0.757   4.278   0.487
   48SOL    HW2  222   0.684   4.247   0.432
   48SOL    HW3  223   0.716   4.316   0.563
   48SOL    MW4  224   0.742   4.279   0.490
   49SOL     OW  225   0.706   0.185   0.335
   49SOL    HW2  226   0.791   0.157   0.370
   49SOL    HW3  227   0.728   0.231   0.254
   49SOL    MW4  228   0.720   0.188   0.329
   50SOL     OW  229   0.889   0.628   0.411
   50SOL    HW2  230   0.895   0.721   0.432
   50SOL    HW3  231   0.971   0.590   0.445
   50SOL    MW4  232   0.901   0.635   0.419
   51SOL     OW  233   0.437   0.663   0.363
   51SOL    HW2  234   0.362   0.603   0.367
   51SOL    HW3  235   0.513   0.606   0.368
   51SOL    MW4  236   0.437   0.648   0.364
   52SOL     OW  237   1.396   0.623   0.422
   52SOL    HW2  238   1.385   0.718   0.433
   52SOL    HW3  239   1.484   0.605   0.456
   52SOL    MW4  240   1.406   0.634   0.428
   53SOL     OW  241   1.791   0.833   0.491
   53SOL    HW2  242   1.785   0.842   0.586
   53SOL    HW3  243   1.728   0.764   0.469
   53SOL    MW4  244   1.782   0.825   0.501
   54SOL     OW  245   1.606   1.051   0.503
   54SOL    HW2  246   1.522   1.005   0.499
   54SOL    HW3  247   1.671   0.985   0.480
   54SOL    MW4  248   1.604   1.037   0.499
   55SOL     OW  249   0.439   1.390   0.436
   55SOL    HW2  250   0.519   1.340   0.444
   55SOL    HW3  251   0.369   1.327   0.453
   55SOL    MW4  252   0.440   1.375   0.439
   56SOL     OW  253   0.688   1.254   0.454
   56SOL    HW2  254   0.704   1.166   0.419
   56SOL    HW3  255   0.766   1.304   0.429
   56SOL    MW4  256   0.700   1.249   0.446
   57SOL     OW  257   1.332   1.403   0.320
   57SOL    HW2  258   1.345   1.433   0.230
   57SOL    HW3  259   1.327   1.483   0.372
   57SOL    MW4  260   1.333   1.417   0.315
   58SOL     OW  261   0.910   1.403   0.425
   58SOL    HW2  262   0.995   1.360   0.429
   58SOL    HW3  263   0.930   1.497   0.434
   58SOL    MW4  264   0.924   1.410   0.426
   59SOL     OW  265   0.988   1.684   0.472
   59SOL    HW2  266   1.083   1.674   0.468
   59SOL    HW3  267   0.968   1.684   0.565
   59SOL    MW4  268   0.998   1.683   0.484
   60SOL     OW  269   0.138   2.112   0.539
   60SOL    HW2  270   0.046   2.137   0.525
   60SOL    HW3  271   0.174   2.103   0.451
   60SOL    MW4  272   0.130   2.114   0.526
   61SOL     OW  273   0.793   1.840   0.311
   61SOL    HW2  274   0.760   1.764   0.265
   61SOL    HW3  275   0.869   1.808   0.360
   61SOL    MW4  276   0.799   1.826   0.312
   62SOL     OW  277   0.915   2.517   0.469
   62SOL    HW2  278   0.996   2.475   0.440
   62SOL    HW3  279   0.913   2.502   0.563
   62SOL    MW4  280   0.926   2.509   0.477
   63SOL     OW  281   0.664   2.134   0.497
   63SOL    HW2  282   0.748   2.145   0.453
   63SOL    HW3  283   0.626   2.056   0.456
   63SOL    MW4  284   0.670   2.125   0.486
   64SOL     OW  285   1.067   2.756   0.513
   64SOL    HW2  286   1.013   2.681   0.486
   64SOL    HW3  287   1.009   2.831   0.506
   64SOL    MW4  288   1.053   2.756   0.509
   65SOL     OW  289   0.280   2.353   0.102
   65SOL    HW2  290   0.305   2.274   0.150
   65SOL    HW3  291   0.280   2.326   0.010
   65SOL    MW4  292   0.283   2.339   0.096
   66SOL     OW  293   0.441   2.818   0.446
   66SOL    HW2  294   0.419   2.911   0.445
   66SOL    HW3  295   0.483   2.804   0.531
   66SOL    MW4  296   0.444   2.829   0.457
   67SOL     OW  297   0.884   3.270   0.582
   67SOL    HW2  298   0.882   3.246   0.675
   67SOL    HW3  299   0.826   3.346   0.576
   67SOL    MW4  300   0.876   3.277   0.594
   68SOL     OW  301   1.451   3.572   0.447
   68SOL    HW2  302   1.492   3.632   0.384
   68SOL    HW3  303   1.359   3.599   0.450
   68SOL    MW4  304   1.445   3.584   0.439
   69SOL     OW  305   0.923   4.032   0.540
   69SOL    HW2  306   0.876   4.113   0.518
   69SOL    HW3  307   0.913   4.024   0.635
   69SOL    MW4  308   0.915   4.042   0.549
   70SOL     OW  309   0.551   3.939   0.433
   70SOL    HW2  310   0.549   3.983   0.518
   70SOL    HW3  311   0.553   4.010   0.369
   70SOL    MW4  312   0.551   3.954   0.436
   71SOL     OW  313   1.171   4.469   0.283
   71SOL    HW2  314   1.123   4.441   0.204
   71SOL    HW3  315   1.104   4.477   0.350
   71SOL    MW4  316   1.156   4.466   0.281
   72SOL     OW  317   1.150   0.531   0.495
   72SOL    HW2  318   1.138   0.453   0.442
   72SOL    HW3  319   1.238   0.562   0.475
   72SOL    MW4  320   1.160   0.525   0.486
   73SOL     OW  321   0.951   0.095   0.447
   73SOL    HW2  322   0.943   0.000   0.452
   73SOL    HW3  323   0.948   0.124   0.538
   73SOL    MW4  324   0.949   0.086   0.460
   74SOL     OW  325   1.353   0.186   0.435
   74SOL    HW2  326   1.273   0.231   0.410
   74SOL    HW3  327   1.422   0.252   0.424
   74SOL    MW4  328   1.352   0.201   0.430
   75SOL     OW  329   1.654   0.571   0.509
   75SOL    HW2  330   1.640   0.491   0.458
   75SOL    HW3  331   1.626   0.549   0.597
   75SOL    MW4  332   1.648   0.557   0.514
   76SOL     OW  333   1.094   0.308   0.328
   76SOL    HW2  334   1.043   0.233   0.358
   76SOL    HW3  335   1.134   0.279   0.246
   76SOL    MW4  336   1.093   0.295   0.321
   77SOL     OW  337   2.052   0.731   0.474
   77SOL    HW2  338   2.110   0.807   0.480
   77SOL    HW3  339   1.964   0.769   0.472
   77SOL    MW4  340   2.048   0.746   0.475
   78SOL     OW  341   2.473   0.827   0.469
   78SOL    HW2  342   2.556   0.810   0.512
   78SOL    HW3  343   2.496   0.868   0.386
   78SOL    MW4  344   2.487   0.830   0.463
   79SOL     OW  345   1.739   1.525   0.514
   79SOL    HW2  346   1.666   1.542   0.574
   79SOL    HW3  347   1.706   1.456   0.455
   79SOL    MW4  348   1.725   1.518   0.514
   80SOL     OW  349   1.581   1.314   0.387
   80SOL    HW2  350   1.586   1.223   0.415
   80SOL    HW3  351   1.488   1.329   0.370
   80SOL    MW4  352   1.569   1.304   0.389
   81SOL     OW  353   1.140   1.261   0.491
   81SOL    HW2  354   1.211   1.292   0.436
   81SOL    HW3  355   1.128   1.169   0.465
   81SOL    MW4  356   1.147   1.253   0.481
   82SOL     OW  357   1.302   1.652   0.462
   82SOL    HW2  358   1.302   1.651   0.558
   82SOL    HW3  359   1.336   1.739   0.439
   82SOL    MW4  360   1.306   1.664   0.471
   83SOL     OW  361   1.152   2.367   0.438
   83SOL    HW2  362   1.232   2.419   0.444
   83SOL    HW3  363   1.183   2.276   0.430
   83SOL    MW4  364   1.167   2.362   0.438
   84SOL     OW  365   1.497   2.681   0.287
   84SOL    HW2  366   1.483   2.724   0.203
   84SOL    HW3  367   1.453   2.737   0.351
   84SOL    MW4  368   1.489   2.694   0.285
   85SOL     OW  369   1.823   2.255   0.189
   85SOL    HW2  370   1.899   2.314   0.195
   85SOL    HW3  371   1.855   2.172   0.222
   85SOL    MW4  372   1.837   2.252   0.194
   86SOL     OW  373   1.642   2.089   0.481
   86SOL    HW2  374   1.637   2.179   0.450
   86SOL    HW3  375   1.724   2.055   0.444
   86SOL    MW4  376   1.652   2.096   0.472
   87SOL     OW  377   0.899   2.099   0.333
   87SOL    HW2  378   0.987   2.078   0.364
   87SOL    HW3  379   0.867   2.018   0.293
   87SOL    MW4  380   0.906   2.086   0.332
   88SOL     OW  381   0.898   2.977   0.551
   88SOL    HW2  382   0.831   2.927   0.597
   88SOL    HW3  383   0.863   3.066   0.547
   88SOL    MW4  384   0.885   2.982   0.557
   89SOL     OW  385   2.051   2.379   0.352
   89SOL    HW2  386   2.067   2.289   0.382
   89SOL    HW3  387   2.126   2.429   0.385
   89SOL    MW4  388   2.063   2.373   0.360
   90SOL     OW  389   1.628   4.591   0.354
   90SOL    HW2  390   1.547   4.619   0.311
   90SOL    HW3  391   1.603   4.514   0.406
   90SOL    MW4  392   1.614   4.584   0.355
   91SOL     OW  393   1.348   3.947   0.405
   91SOL    HW2  394   1.263   3.908   0.385
   91SOL    HW3  395   1.336   4.040   0.386
   91SOL    MW4  396   1.335   3.954   0.400
   92SOL     OW  397   1.735   2.726   0.471
   92SOL    HW2  398   1.698   2.776   0.544
   92SOL    HW3  399   1.663   2.714   0.410
   92SOL    MW4  400   1.721   2.731   0.473
   93SOL     OW  401   1.854   3.905   0.221
   93SOL    HW2  402   1.948   3.888   0.217
   93SOL    HW3  403   1.848   3.997   0.247
   93SOL    MW4  404   1.866   3.915   0.224
   94SOL     OW  405   1.138   3.330   0.491
   94SOL    HW2  406   1.055   3.289   0.515
   94SOL    HW3  407   1.179   3.268   0.430
   94SOL    MW4  408   1.132   3.316   0.486
   95SOL     OW  409   2.133   3.816   0.297
   95SOL    HW2  410   2.096   3.734   0.331
   95SOL    HW3  411   2.189   3.787   0.224
   95SOL    MW4  412   2.136   3.801   0.292
   96SOL     OW  413   0.556   4.193   0.283
   96SOL    HW2  414   0.586   4.201   0.192
   96SOL    HW3  415   0.525   4.281   0.304
   96SOL    MW4  416   0.556   4.206   0.274
   97SOL     OW  417   1.863   4.437   0.288
   97SOL    HW2  418   1.826   4.349   0.281
   97SOL    HW3  419   1.788   4.496   0.279
   97SOL    MW4  420   1.848   4.433   0.286
   98SOL     OW  421   1.945   4.531   0.530
   98SOL    HW2  422   1.935   4.450   0.581
   98SOL    HW3  423   1.901   4.513   0.447
   98SOL    MW4  424   1.938   4.518   0.526
   99SOL     OW  425   1.894   0.234   0.465
   99SOL    HW2  426   1.914   0.323   0.495
   99SOL    HW3  427   1.855   0.191   0.540
   99SOL    MW4  428   1.892   0.240   0.479
  100SOL     OW  429   1.347   4.241   0.375
  100SOL    HW2  430   1.287   4.309   0.343
  100SOL    HW3  431   1.427   4.288   0.399
  100SOL    MW4  432   1.350   4.256   0.374
  101SOL     OW  433   2.314   0.613   0.332
  101SOL    HW2  434   2.229   0.646   0.364
  101SOL    HW3  435   2.378   0.675   0.366
  101SOL    MW4  436   2.311   0.626   0.340
  102SOL     OW  437   2.153   1.623   0.551
  102SOL    HW2  438   2.078   1.565   0.567
  102SOL    HW3  439   2.114   1.703   0.517
  102SOL    MW4  440   2.138   1.626   0.549
  103SOL     OW  441   2.225   0.936   0.548
  103SOL    HW2  442   2.207   1.021   0.508
  103SOL    HW3  443   2.314   0.914   0.520
  103SOL    MW4  444   2.234   0.944   0.539
  104SOL     OW  445   1.980   1.409   0.616
  104SOL    HW2  446   1.894   1.438   0.587
  104SOL    HW3  447   2.001   1.334   0.560
  104SOL    MW4  448   1.971   1.403   0.605
  105SOL     OW  449   2.362   1.433   0.552
  105SOL    HW2  450   2.435   1.475   0.506
  105SOL    HW3  451   2.291   1.497   0.547
  105SOL    MW4  452   2.362   1.447   0.545
  106SOL     OW  453   1.883   1.995   0.363
  106SOL    HW2  454   1.878   1.912   0.411
  106SOL    HW3  455   1.963   2.037   0.395
  106SOL    MW4  456   1.893   1.990   0.374
  107SOL     OW  457   1.390   1.918   0.492
  107SOL    HW2  458   1.467   1.974   0.478
  107SOL    HW3  459   1.383   1.910   0.587
  107SOL    MW4  460   1.399   1.924   0.503
  108SOL     OW  461   2.296   2.438   0.474
  108SOL    HW2  462   2.366   2.502   0.463
  108SOL    HW3  463   2.249   2.467   0.553
  108SOL    MW4  464   2.299   2.450   0.483
  109SOL     OW  465   1.851   3.436   0.345
  109SOL    HW2  466   1.922   3.484   0.389
  109SOL    HW3  467   1.886   3.347   0.336
  109SOL    MW4  468   1.865   3.430   0.350
  110SOL     OW  469   1.339   2.838   0.445
  110SOL    HW2  470   1.347   2.931   0.463
  110SOL    HW3  471   1.244   2.823   0.440
  110SOL    MW4  472   1.327   2.848   0.447
  111SOL     OW  473   1.604   3.315   0.498
  111SOL    HW2  474   1.682   3.338   0.447
  111SOL    HW3  475   1.545   3.388   0.485
  111SOL    MW4  476   1.607   3.327   0.489
  112SOL     OW  477   1.151   2.055   0.455
  112SOL    HW2  478   1.129   2.063   0.548
  112SOL    HW3  479   1.232   2.006   0.454
  112SOL    MW4  480   1.159   2.050   0.467
  113SOL     OW  481   3.907   1.934   0.435
  113SOL    HW2  482   3.894   1.839   0.433
  113SOL    HW3  483   3.819   1.970   0.448
  113SOL    MW4  484   3.893   1.926   0.436
  114SOL     OW  485   1.876   2.492   0.534
  114SOL    HW2  486   1.938   2.450   0.474
  114SOL    HW3  487   1.847   2.571   0.488
  114SOL    MW4  488   1.880   2.497   0.520
  115SOL     OW  489   1.433   2.467   0.458
  115SOL    HW2  490   1.513   2.425   0.428
  115SOL    HW3  491   1.423   2.543   0.400
  115SOL    MW4  492   1.442   2.472   0.446
  116SOL     OW  493   1.372   3.127   0.467
  116SOL    HW2  494   1.370   3.173   0.551
  116SOL    HW3  495   1.457   3.148   0.430
  116SOL    MW4  496   1.383   3.136   0.473
  117SOL     OW  497   2.255   3.285   0.434
  117SOL    HW2  498   2.187   3.251   0.377
  117SOL    HW3  499   2.221   3.275   0.523
  117SOL    MW4  500   2.242   3.279   0.438
  118SOL     OW  501   1.792   4.167   0.361
  118SOL    HW2  502   1.757   4.086   0.398
  118SOL    HW3  503   1.879   4.176   0.401
  118SOL    MW4  504   1.799   4.157   0.371
  119SOL     OW  505   1.622   3.936   0.473
  119SOL    HW2  506   1.527   3.930   0.469
  119SOL    HW3  507   1.653   3.855   0.434
  119SOL    MW4  508   1.613   3.925   0.468
  120SOL     OW  509   1.574   4.342   0.469
  120SOL    HW2  510   1.577   4.323   0.563
  120SOL    HW3  511   1.636   4.281   0.431
  120SOL    MW4  512   1.583   4.332   0.477
  121SOL     OW  513   1.377   4.666   0.228
  121SOL    HW2  514   1.358   4.732   0.294
  121SOL    HW3  515   1.311   4.598   0.242
  121SOL    MW4  516   1.366   4.665   0.238
  122SOL     OW  517   2.208   4.600   0.508
  122SOL    HW2  518   2.259   4.551   0.572
  122SOL    HW3  519   2.118   4.569   0.519
  122SOL    MW4  520   2.203   4.590   0.518
  123SOL     OW  521   2.191   0.220   0.472
  123SOL    HW2  522   2.206   0.126   0.466
  123SOL    HW3  523   2.097   0.231   0.454
  123SOL    MW4  524   2.180   0.209   0.469
  124SOL     OW  525   2.809   1.565   0.357
  124SOL    HW2  526   2.735   1.567   0.419
  124SOL    HW3  527   2.846   1.477   0.369
  124SOL    MW4  528   2.804   1.553   0.367
  125SOL     OW  529   2.733   0.795   0.571
  125SOL    HW2  530   2.769   0.710   0.545
  125SOL    HW3  531   2.793   0.859   0.533
  125SOL    MW4  532   2.746   0.792   0.563
  126SOL     OW  533   2.893   1.011   0.538
  126SOL    HW2  534   2.909   1.062   0.618
  126SOL    HW3  535   2.976   0.968   0.520
  126SOL    MW4  536   2.906   1.012   0.546
  127SOL     OW  537   2.973   1.270   0.469
  127SOL    HW2  538   2.940   1.181   0.484
  127SOL    HW3  539   2.946   1.319   0.547
  127SOL    MW4  540   2.965   1.265   0.481
  128SOL     OW  541   2.585   1.626   0.496
  128SOL    HW2  542   2.580   1.707   0.447
  128SOL    HW3  543   2.603   1.654   0.586
  128SOL    MW4  544   2.587   1.640   0.502
  129SOL     OW  545   2.976   1.954   0.474
  129SOL    HW2  546   2.898   1.976   0.523
  129SOL    HW3  547   2.943   1.911   0.395
  129SOL    MW4  548   2.961   1.951   0.470
  130SOL     OW  549   2.982   4.376   0.495
  130SOL    HW2  550   2.955   4.464   0.469
  130SOL    HW3  551   2.980   4.378   0.591
  130SOL    MW4  552   2.978   4.388   0.505
  131SOL     OW  553   2.091   2.108   0.473
  131SOL    HW2  554   2.070   2.070   0.558
  131SOL    HW3  555   2.186   2.099   0.466
  131SOL    MW4  556   2.101   2.102   0.484
  132SOL     OW  557   1.517   1.495   0.682
  132SOL    HW2  558   1.558   1.540   0.756
  132SOL    HW3  559   1.425   1.520   0.686
  132SOL    MW4  560   1.511   1.504   0.692
  133SOL     OW  561   2.378   2.154   0.452
  133SOL    HW2  562   2.342   2.243   0.456
  133SOL    HW3  563   2.470   2.166   0.430
  133SOL    MW4  564   2.385   2.167   0.450
  134SOL     OW  565   2.674   2.173   0.457
  134SOL    HW2  566   2.699   2.265   0.448
  134SOL    HW3  567   2.719   2.143   0.536
  134SOL    MW4  568   2.684   2.181   0.466
  135SOL     OW  569   2.638   2.842   0.500
  135SOL    HW2  570   2.659   2.930   0.468
  135SOL    HW3  571   2.576   2.858   0.572
  135SOL    MW4  572   2.632   2.856   0.506
  136SOL     OW  573   1.664   2.353   0.403
  136SOL    HW2  574   1.710   2.327   0.323
  136SOL    HW3  575   1.729   2.400   0.454
  136SOL    MW4  576   1.678   2.356   0.399
  137SOL     OW  577   1.863   2.979   0.477
  137SOL    HW2  578   1.930   2.959   0.542
  137SOL    HW3  579   1.829   2.893   0.450
  137SOL    MW4  580   1.868   2.965   0.482
  138SOL     OW  581   2.300   3.979   0.463
  138SOL    HW2  582   2.383   3.987   0.417
  138SOL    HW3  583   2.244   3.928   0.403
  138SOL    MW4  584   2.303   3.973   0.449
  139SOL     OW  585   2.530   3.997   0.300
  139SOL    HW2  586   2.620   3.974   0.323
  139SOL    HW3  587   2.488   3.914   0.277
  139SOL    MW4  588   2.536   3.983   0.300
  140SOL     OW  589   1.693   3.667   0.287
  140SOL    HW2  590   1.753   3.593   0.294
  140SOL    HW3  591   1.748   3.738   0.252
  140SOL    MW4  592   1.708   3.667   0.283
  141SOL     OW  593   2.068   3.582   0.447
  141SOL    HW2  594   2.164   3.579   0.449
  141SOL    HW3  595   2.044   3.616   0.533
  141SOL    MW4  596   2.078   3.586   0.459
  142SOL     OW  597   2.160   4.389   0.307
  142SOL    HW2  598   2.194   4.465   0.355
  142SOL    HW3  599   2.073   4.417   0.277
  142SOL    MW4  600   2.153   4.403   0.309
  143SOL     OW  601   2.062   4.157   0.437
  143SOL    HW2  602   2.128   4.092   0.459
  143SOL    HW3  603   2.111   4.231   0.400
  143SOL    MW4  604   2.077   4.158   0.435
  144SOL     OW  605   2.972   4.625   0.368
  144SOL    HW2  606   3.066   4.613   0.356
  144SOL    HW3  607   2.965   4.678   0.448
  144SOL    MW4  608   2.984   4.630   0.377
  145SOL     OW  609   2.404   3.753   0.228
  145SOL    HW2  610   2.457   3.711   0.160
  145SOL    HW3  611   2.380   3.682   0.287
  145SOL    MW4  612   2.408   3.738   0.226
  146SOL     OW  613   2.433   4.255   0.363
  146SOL    HW2  614   2.360   4.284   0.308
  146SOL    HW3  615   2.467   4.178   0.319
  146SOL    MW4  616   2.428   4.249   0.350
  147SOL     OW  617   2.410   0.397   0.466
  147SOL    HW2  618   2.391   0.462   0.398
  147SOL    HW3  619   2.337   0.336   0.462
  147SOL    MW4  620   2.398   0.398   0.456
  148SOL     OW  621   1.641   0.332   0.353
  148SOL    HW2  622   1.625   0.317   0.259
  148SOL    HW3  623   1.715   0.275   0.374
  148SOL    MW4  624   1.648   0.322   0.343
  149SOL     OW  625   3.076   0.439   0.377
  149SOL    HW2  626   3.130   0.514   0.352
  149SOL    HW3  627   3.133   0.363   0.365
  149SOL    MW4  628   3.090   0.439   0.372
  150SOL     OW  629   2.194   1.215   0.437
  150SOL    HW2  630   2.244   1.290   0.470
  150SOL    HW3  631   2.191   1.228   0.342
  150SOL    MW4  632   2.201   1.227   0.429
  151SOL     OW  633   3.142   0.881   0.522
  151SOL    HW2  634   3.211   0.922   0.470
  151SOL    HW3  635   3.175   0.884   0.612
  151SOL    MW4  636   3.155   0.887   0.527
  152SOL     OW  637   3.022   1.678   0.515
  152SOL    HW2  638   2.968   1.618   0.463
  152SOL    HW3  639   2.986   1.764   0.497
  152SOL    MW4  640   3.010   1.681   0.506
  153SOL     OW  641   2.904   1.794   0.249
  153SOL    HW2  642   2.878   1.708   0.283
  153SOL    HW3  643   2.936   1.775   0.161
  153SOL    MW4  644   2.905   1.780   0.242
  154SOL     OW  645   3.632   1.504   0.466
  154SOL    HW2  646   3.565   1.502   0.397
  154SOL    HW3  647   3.592   1.555   0.537
  154SOL    MW4  648   3.617   1.511   0.466
  155SOL     OW  649   2.673   0.168   0.701
  155SOL    HW2  650   2.671   0.242   0.762
  155SOL    HW3  651   2.661   0.208   0.615
  155SOL    MW4  652   2.671   0.183   0.698
  156SOL     OW  653   3.186   2.026   0.644
  156SOL    HW2  654   3.121   2.000   0.578
  156SOL    HW3  655   3.165   1.973   0.721
  156SOL    MW4  656   3.175   2.015   0.645
  157SOL     OW  657   2.786   2.426   0.362
  157SOL    HW2  658   2.810   2.443   0.271
  157SOL    HW3  659   2.864   2.449   0.412
  157SOL    MW4  660   2.799   2.431   0.357
  158SOL     OW  661   2.651   1.878   0.379
  158SOL    HW2  662   2.731   1.865   0.327
  158SOL    HW3  663   2.654   1.969   0.406
  158SOL    MW4  664   2.662   1.888   0.376
  159SOL     OW  665   2.573   2.569   0.491
  159SOL    HW2  666   2.584   2.664   0.496
  159SOL    HW3  667   2.645   2.539   0.435
  159SOL    MW4  668   2.584   2.578   0.484
  160SOL     OW  669   2.703   3.145   0.466
  160SOL    HW2  670   2.790   3.171   0.437
  160SOL    HW3  671   2.697   3.176   0.556
  160SOL    MW4  672   2.714   3.152   0.474
  161SOL     OW  673   2.960   3.285   0.423
  161SOL    HW2  674   3.048   3.248   0.432
  161SOL    HW3  675   2.966   3.372   0.461
  161SOL    MW4  676   2.972   3.292   0.429
  162SOL     OW  677   3.221   3.175   0.472
  162SOL    HW2  678   3.207   3.080   0.474
  162SOL    HW3  679   3.234   3.199   0.564
  162SOL    MW4  680   3.221   3.165   0.485
  163SOL     OW  681   2.520   3.328   0.326
  163SOL    HW2  682   2.583   3.268   0.365
  163SOL    HW3  683   2.435   3.284   0.335
  163SOL    MW4  684   2.517   3.315   0.332
  164SOL     OW  685   2.673   3.540   0.246
  164SOL    HW2  686   2.614   3.470   0.272
  164SOL    HW3  687   2.748   3.496   0.205
  164SOL    MW4  688   2.675   3.525   0.244
  165SOL     OW  689   3.411   3.617   0.301
  165SOL    HW2  690   3.395   3.525   0.325
  165SOL    HW3  691   3.452   3.612   0.214
  165SOL    MW4  692   3.414   3.604   0.292
  166SOL     OW  693   2.701   3.697   0.480
  166SOL    HW2  694   2.702   3.656   0.394
  166SOL    HW3  695   2.639   3.645   0.531
  166SOL    MW4  696   2.693   3.685   0.476
  167SOL     OW  697   2.351   3.552   0.432
  167SOL    HW2  698   2.404   3.565   0.510
  167SOL    HW3  699   2.342   3.457   0.424
  167SOL    MW4  700   2.356   3.541   0.441
  168SOL     OW  701   3.716   3.860   0.551
  168SOL    HW2  702   3.654   3.931   0.534
  168SOL    HW3  703   3.665   3.780   0.544
  168SOL    MW4  704   3.701   3.859   0.548
  169SOL     OW  705   3.199   4.235   0.361
  169SOL    HW2  706   3.167   4.144   0.354
  169SOL    HW3  707   3.123   4.284   0.394
  169SOL    MW4  708   3.185   4.229   0.365
  170SOL     OW  709   3.269   4.594   0.309
  170SOL    HW2  710   3.343   4.568   0.363
  170SOL    HW3  711   3.297   4.576   0.219
  170SOL    MW4  712   3.282   4.588   0.304
  171SOL     OW  713   3.424   4.322   0.493
  171SOL    HW2  714   3.345   4.301   0.443
  171SOL    HW3  715   3.489   4.343   0.426
  171SOL    MW4  716   3.422   4.322   0.477
  172SOL     OW  717   2.745   4.251   0.432
  172SOL    HW2  718   2.829   4.296   0.444
  172SOL    HW3  719   2.770   4.161   0.410
  172SOL    MW4  720   2.759   4.245   0.431
  173SOL     OW  721   2.655   0.285   0.442
  173SOL    HW2  722   2.561   0.303   0.440
  173SOL    HW3  723   2.667   0.216   0.377
  173SOL    MW4  724   2.644   0.278   0.433
  174SOL     OW  725   3.221   0.694   0.327
  174SOL    HW2  726   3.271   0.773   0.303
  174SOL    HW3  727   3.165   0.723   0.399
  174SOL    MW4  728   3.221   0.708   0.333
  175SOL     OW  729   2.826   0.510   0.489
  175SOL    HW2  730   2.763   0.445   0.459
  175SOL    HW3  731   2.909   0.482   0.450
  175SOL    MW4  732   2.829   0.497   0.480
  176SOL     OW  733   3.630   0.915   0.444
  176SOL    HW2  734   3.638   0.823   0.419
  176SOL    HW3  735   3.626   0.913   0.540
  176SOL    MW4  736   3.630   0.902   0.454
  177SOL     OW  737   2.689   0.050   0.274
  177SOL    HW2  738   2.651   0.063   0.187
  177SOL    HW3  739   2.781   0.029   0.258
  177SOL    MW4  740   2.696   0.049   0.261
  178SOL     OW  741   3.437   1.911   0.587
  178SOL    HW2  742   3.470   1.889   0.674
  178SOL    HW3  743   3.360   1.965   0.604
  178SOL    MW4  744   3.432   1.915   0.601
  179SOL     OW  745   3.307   1.697   0.484
  179SOL    HW2  746   3.344   1.782   0.507
  179SOL    HW3  747   3.214   1.713   0.472
  179SOL    MW4  748   3.300   1.710   0.485
  180SOL     OW  749   3.360   0.994   0.377
  180SOL    HW2  750   3.331   1.084   0.389
  180SOL    HW3  751   3.453   0.996   0.400
  180SOL    MW4  752   3.368   1.006   0.381
  181SOL     OW  753   3.880   1.642   0.489
  181SOL    HW2  754   3.801   1.594   0.464
  181SOL    HW3  755   3.862   1.675   0.577
  181SOL    MW4  756   3.867   1.640   0.497
  182SOL     OW  757   3.307   2.283   0.655
  182SOL    HW2  758   3.277   2.193   0.648
  182SOL    HW3  759   3.356   2.287   0.737
  182SOL    MW4  760   3.309   2.272   0.665
  183SOL     OW  761   3.552   2.692   0.604
  183SOL    HW2  762   3.597   2.659   0.681
  183SOL    HW3  763   3.517   2.614   0.561
  183SOL    MW4  764   3.553   2.677   0.608
  184SOL     OW  765   1.917   3.177   0.294
  184SOL    HW2  766   1.913   3.104   0.355
  184SOL    HW3  767   1.899   3.137   0.208
  184SOL    MW4  768   1.914   3.162   0.290
  185SOL     OW  769   3.257   2.651   0.350
  185SOL    HW2  770   3.280   2.650   0.257
  185SOL    HW3  771   3.317   2.588   0.390
  185SOL    MW4  772   3.268   2.643   0.343
  186SOL     OW  773   2.927   2.842   0.786
  186SOL    HW2  774   2.914   2.821   0.693
  186SOL    HW3  775   3.002   2.789   0.812
  186SOL    MW4  776   2.935   2.832   0.777
  187SOL     OW  777   3.228   0.204   0.377
  187SOL    HW2  778   3.216   0.194   0.472
  187SOL    HW3  779   3.255   0.117   0.347
  187SOL    MW4  780   3.230   0.191   0.386
  188SOL     OW  781   3.043   4.000   0.404
  188SOL    HW2  782   3.089   3.916   0.411
  188SOL    HW3  783   3.062   4.044   0.487
  188SOL    MW4  784   3.051   3.995   0.416
  189SOL     OW  785   3.584   3.631   0.525
  189SOL    HW2  786   3.523   3.631   0.451
  189SOL    HW3  787   3.530   3.608   0.600
  189SOL    MW4  788   3.568   3.628   0.525
  190SOL     OW  789   3.672   3.277   0.379
  190SOL    HW2  790   3.723   3.350   0.345
  190SOL    HW3  791   3.736   3.221   0.423
  190SOL    MW4  792   3.687   3.280   0.381
  191SOL     OW  793   3.399   3.331   0.315
  191SOL    HW2  794   3.345   3.266   0.361
  191SOL    HW3  795   3.487   3.295   0.318
  191SOL    MW4  796   3.403   3.317   0.321
  192SOL     OW  797   2.777   3.971   0.437
  192SOL    HW2  798   2.866   3.981   0.406
  192SOL    HW3  799   2.764   3.876   0.443
  192SOL    MW4  800   2.787   3.960   0.434
  193SOL     OW  801   2.871   3.351   0.177
  193SOL    HW2  802   2.876   3.265   0.136
  193SOL    HW3  803   2.907   3.337   0.265
  193SOL    MW4  804   2.877   3.338   0.183
  194SOL     OW  805   4.244   0.183   0.356
  194SOL    HW2  806   4.315   0.138   0.401
  194SOL    HW3  807   4.250   0.154   0.265
  194SOL    MW4  808   4.254   0.173   0.350
  195SOL     OW  809   3.638   0.122   0.432
  195SOL    HW2  810   3.585   0.192   0.393
  195SOL    HW3  811   3.728   0.152   0.421
  195SOL    MW4  812   3.643   0.135   0.425
  196SOL     OW  813   3.436   0.538   0.436
  196SOL    HW2  814   3.514   0.594   0.437
  196SOL    HW3  815   3.365   0.596   0.407
  196SOL    MW4  816   3.437   0.553   0.432
  197SOL     OW  817   3.672   0.652   0.369
  197SOL    HW2  818   3.759   0.617   0.383
  197SOL    HW3  819   3.656   0.642   0.275
  197SOL    MW4  820   3.681   0.646   0.358
  198SOL     OW  821   3.927   0.588   0.477
  198SOL    HW2  822   3.999   0.528   0.456
  198SOL    HW3  823   3.902   0.564   0.566
  198SOL    MW4  824   3.933   0.577   0.486
  199SOL     OW  825   4.340   0.844   0.487
  199SOL    HW2  826   4.246   0.848   0.475
  199SOL    HW3  827   4.373   0.925   0.448
  199SOL    MW4  828   4.332   0.855   0.480
  200SOL     OW  829   3.879   1.016   0.356
  200SOL    HW2  830   3.873   1.108   0.382
  200SOL    HW3  831   3.795   0.978   0.381
  200SOL    MW4  832   3.867   1.023   0.363
  201SOL     OW  833   4.069   1.452   0.435
  201SOL    HW2  834   3.999   1.494   0.487
  201SOL    HW3  835   4.114   1.525   0.393
  201SOL    MW4  836   4.065   1.467   0.437
  202SOL     OW  837   3.809   1.278   0.437
  202SOL    HW2  838   3.876   1.337   0.401
  202SOL    HW3  839   3.736   1.336   0.457
  202SOL    MW4  840   3.809   1.294   0.435
  203SOL     OW  841   3.248   1.260   0.460
  203SOL    HW2  842   3.265   1.249   0.553
  203SOL    HW3  843   3.154   1.276   0.454
  203SOL    MW4  844   3.238   1.261   0.471
  204SOL     OW  845   3.391   1.483   0.343
  204SOL    HW2  846   3.346   1.420   0.399
  204SOL    HW3  847   3.363   1.568   0.377
  204SOL    MW4  848   3.381   1.486   0.355
  205SOL     OW  849   3.638   2.320   0.366
  205SOL    HW2  850   3.728   2.352   0.366
  205SOL    HW3  851   3.643   2.233   0.406
  205SOL    MW4  852   3.651   2.313   0.371
  206SOL     OW  853   4.281   2.800   0.555
  206SOL    HW2  854   4.288   2.704   0.547
  206SOL    HW3  855   4.193   2.820   0.521
  206SOL    MW4  856   4.270   2.790   0.549
  207SOL     OW  857   3.025   2.551   0.448
  207SOL    HW2  858   3.057   2.499   0.522
  207SOL    HW3  859   3.105   2.584   0.406
  207SOL    MW4  860   3.040   2.548   0.452
  208SOL     OW  861   2.965   3.576   0.502
  208SOL    HW2  862   3.022   3.651   0.488
  208SOL    HW3  863   2.876   3.609   0.487
  208SOL    MW4  864   2.961   3.590   0.498
  209SOL     OW  865   3.190   2.873   0.521
  209SOL    HW2  866   3.227   2.804   0.465
  209SOL    HW3  867   3.099   2.846   0.536
  209SOL    MW4  868   3.183   2.860   0.516
  210SOL     OW  869   4.006   2.874   0.522
  210SOL    HW2  870   3.939   2.808   0.506
  210SOL    HW3  871   3.968   2.956   0.490
  210SOL    MW4  872   3.992   2.876   0.516
  211SOL     OW  873   3.804   2.707   0.463
  211SOL    HW2  874   3.718   2.722   0.502
  211SOL    HW3  875   3.815   2.612   0.465
  211SOL    MW4  876   3.794   2.696   0.468
  212SOL     OW  877   4.099   3.711   0.474
  212SOL    HW2  878   4.015   3.671   0.494
  212SOL    HW3  879   4.149   3.643   0.429
  212SOL    MW4  880   4.094   3.697   0.471
  213SOL     OW  881   3.450   2.475   0.487
  213SOL    HW2  882   3.413   2.402   0.538
  213SOL    HW3  883   3.521   2.435   0.437
  213SOL    MW4  884   3.455   2.460   0.487
  214SOL     OW  885   3.191   3.768   0.444
  214SOL    HW2  886   3.255   3.742   0.377
  214SOL    HW3  887   3.241   3.822   0.505
  214SOL    MW4  888   3.206   3.772   0.443
  215SOL     OW  889   4.445   3.569   0.605
  215SOL    HW2  890   4.375   3.504   0.602
  215SOL    HW3  891   4.524   3.519   0.623
  215SOL    MW4  892   4.446   3.554   0.607
  216SOL     OW  893   3.552   4.089   0.555
  216SOL    HW2  894   3.515   4.168   0.517
  216SOL    HW3  895   3.570   4.112   0.646
  216SOL    MW4  896   3.550   4.102   0.562
  217SOL     OW  897   3.857   4.348   0.497
  217SOL    HW2  898   3.840   4.260   0.464
  217SOL    HW3  899   3.866   4.337   0.592
  217SOL    MW4  900   3.856   4.335   0.505
  218SOL     OW  901   4.465   0.038   0.429
  218SOL    HW2  902   4.480  -0.047   0.387
  218SOL    HW3  903   4.479   0.021   0.523
  218SOL    MW4  904   4.469   0.024   0.436
  219SOL     OW  905   4.078   0.852   0.491
  219SOL    HW2  906   4.014   0.899   0.437
  219SOL    HW3  907   4.042   0.764   0.498
  219SOL    MW4  908   4.065   0.847   0.485
  220SOL     OW  909   0.429   1.674   0.482
  220SOL    HW2  910   0.439   1.579   0.479
  220SOL    HW3  911   0.336   1.688   0.499
  220SOL    MW4  912   0.418   1.663   0.484
  221SOL     OW  913   4.200   0.430   0.465
  221SOL    HW2  914   4.199   0.345   0.422
  221SOL    HW3  915   4.275   0.475   0.427
  221SOL    MW4  916   4.210   0.425   0.454
  222SOL     OW  917   4.483   1.098   0.493
  222SOL    HW2  918   4.407   1.157   0.490
  222SOL    HW3  919   4.478   1.056   0.579
  222SOL    MW4  920   4.472   1.100   0.504
  223SOL     OW  921   3.568   4.533   0.359
  223SOL    HW2  922   3.658   4.499   0.356
  223SOL    HW3  923   3.579   4.626   0.379
  223SOL    MW4  924   3.582   4.541   0.361
  224SOL     OW  925   4.278   1.294   0.503
  224SOL    HW2  926   4.300   1.307   0.596
  224SOL    HW3  927   4.199   1.347   0.490
  224SOL    MW4  928   4.270   1.303   0.514
  225SOL     OW  929   4.443   1.478   0.383
  225SOL    HW2  930   4.495   1.431   0.317
  225SOL    HW3  931   4.389   1.410   0.423
  225SOL    MW4  932   4.443   1.462   0.379
  226SOL     OW  933   4.046   2.157   0.312
  226SOL    HW2  934   3.994   2.087   0.351
  226SOL    HW3  935   4.078   2.208   0.386
  226SOL    MW4  936   4.043   2.155   0.327
  227SOL     OW  937   4.249   1.678   0.401
  227SOL    HW2  938   4.277   1.744   0.338
  227SOL    HW3  939   4.317   1.611   0.396
  227SOL    MW4  940   4.262   1.678   0.392
  228SOL     OW  941   4.344   2.095   0.508
  228SOL    HW2  942   4.276   2.161   0.494
  228SOL    HW3  943   4.318   2.050   0.588
  228SOL    MW4  944   4.332   2.098   0.517
  229SOL     OW  945   4.323   1.920   0.277
  229SOL    HW2  946   4.285   1.961   0.199
  229SOL    HW3  947   4.311   1.984   0.347
  229SOL    MW4  948   4.316   1.934   0.276
  230SOL     OW  949   4.361   2.511   0.504
  230SOL    HW2  950   4.436   2.511   0.444
  230SOL    HW3  951   4.398   2.484   0.588
  230SOL    MW4  952   4.376   2.507   0.507
  231SOL     OW  953   4.201   3.472   0.346
  231SOL    HW2  954   4.287   3.501   0.315
  231SOL    HW3  955   4.221   3.407   0.414
  231SOL    MW4  956   4.215   3.467   0.351
  232SOL     OW  957   4.155   2.320   0.522
  232SOL    HW2  958   4.102   2.345   0.597
  232SOL    HW3  959   4.218   2.392   0.512
  232SOL    MW4  960   4.156   2.333   0.530
  233SOL     OW  961   0.322   3.819   0.480
  233SOL    HW2  962   0.277   3.896   0.515
  233SOL    HW3  963   0.408   3.852   0.454
  233SOL    MW4  964   0.327   3.834   0.481
  234SOL     OW  965   4.466   3.542   0.256
  234SOL    HW2  966   4.489   3.632   0.281
  234SOL    HW3  967   4.516   3.527   0.175
  234SOL    MW4  968   4.475   3.552   0.248
  235SOL     OW  969   0.113   3.363   0.408
  235SOL    HW2  970   0.058   3.426   0.361
  235SOL    HW3  971   0.170   3.417   0.463
  235SOL    MW4  972   0.113   3.379   0.409
  236SOL     OW  973   3.880   3.568   0.548
  236SOL    HW2  974   3.791   3.591   0.521
  236SOL    HW3  975   3.875   3.560   0.643
  236SOL    MW4  976   3.868   3.570   0.557
  237SOL     OW  977   3.899   3.127   0.500
  237SOL    HW2  978   3.948   3.144   0.580
  237SOL    HW3  979   3.939   3.184   0.434
  237SOL    MW4  980   3.911   3.137   0.502
  238SOL     OW  981   0.157   4.047   0.543
  238SOL    HW2  982   0.125   4.027   0.631
  238SOL    HW3  983   0.079   4.042   0.488
  238SOL    MW4  984   0.142   4.044   0.548
  239SOL     OW  985   4.113   3.980   0.541
  239SOL    HW2  986   4.108   3.885   0.528
  239SOL    HW3  987   4.033   4.013   0.499
  239SOL    MW4  988   4.102   3.972   0.534
  240SOL     OW  989   3.880   4.044   0.395
  240SOL    HW2  990   3.836   3.969   0.435
  240SOL    HW3  991   3.869   4.031   0.301
  240SOL    MW4  992   3.872   4.032   0.388
  241SOL     OW  993   4.070   4.465   0.383
  241SOL    HW2  994   4.145   4.408   0.402
  241SOL    HW3  995   3.997   4.425   0.430
  241SOL    MW4  996   4.070   4.452   0.392
  242SOL     OW  997   0.257   4.653   0.873
  242SOL    HW2  998   0.274   4.563   0.847
  242SOL    HW3  999   0.176   4.676   0.828
  242SOL    MW4 1000   0.249   4.644   0.864
  243SOL     OW 1001   0.029   0.054   0.736
  243SOL    HW2 1002  -0.060   0.019   0.748
  243SOL    HW3 1003   0.021   0.147   0.758
  243SOL    MW4 1004   0.016   0.062   0.741
  244SOL     OW 1005   4.483   0.314   0.781
  244SOL    HW2 1006   4.484   0.318   0.876
  244SOL    HW3 1007   4.556   0.371   0.754
  244SOL    MW4 1008   4.493   0.322   0.790
  245SOL     OW 1009   0.217   0.478   0.726
  245SOL    HW2 1010   0.288   0.430   0.767
  245SOL    HW3 1011   0.217   0.563   0.770
  245SOL    MW4 1012   0.226   0.483   0.737
  246SOL     OW 1013   0.242   0.759   0.806
  246SOL    HW2 1014   0.250   0.769   0.901
  246SOL    HW3 1015   0.153   0.787   0.786
  246SOL    MW4 1016   0.232   0.764   0.816
  247SOL     OW 1017   0.001   0.853   0.719
  247SOL    HW2 1018  -0.077   0.814   0.758
  247SOL    HW3 1019  -0.011   0.843   0.625
  247SOL    MW4 1020  -0.011   0.847   0.712
  248SOL     OW 1021   0.056   1.117   0.835
  248SOL    HW2 1022   0.037   1.125   0.929
  248SOL    HW3 1023   0.064   1.023   0.821
  248SOL    MW4 1024   0.054   1.105   0.846
  249SOL     OW 1025   0.249   1.281   0.756
  249SOL    HW2 1026   0.181   1.225   0.792
  249SOL    HW3 1027   0.245   1.266   0.661
  249SOL    MW4 1028   0.240   1.271   0.748
  250SOL     OW 1029   0.242   1.533   0.882
  250SOL    HW2 1030   0.329   1.567   0.861
  250SOL    HW3 1031   0.237   1.449   0.836
  250SOL    MW4 1032   0.253   1.526   0.873
  251SOL     OW 1033   0.036   1.657   0.739
  251SOL    HW2 1034  -0.040   1.614   0.779
  251SOL    HW3 1035   0.111   1.622   0.787
  251SOL    MW4 1036   0.036   1.646   0.751
  252SOL     OW 1037   0.006   1.908   0.889
  252SOL    HW2 1038   0.090   1.948   0.865
  252SOL    HW3 1039   0.016   1.816   0.865
  252SOL    MW4 1040   0.018   1.901   0.882
  253SOL     OW 1041   0.231   2.069   0.804
  253SOL    HW2 1042   0.221   2.158   0.836
  253SOL    HW3 1043   0.205   2.073   0.712
  253SOL    MW4 1044   0.226   2.081   0.796
  254SOL     OW 1045   0.191   2.334   0.889
  254SOL    HW2 1046   0.191   2.337   0.984
  254SOL    HW3 1047   0.270   2.382   0.863
  254SOL    MW4 1048   0.201   2.340   0.898
  255SOL     OW 1049   4.439   2.410   0.757
  255SOL    HW2 1050   4.371   2.353   0.793
  255SOL    HW3 1051   4.521   2.375   0.792
  255SOL    MW4 1052   4.441   2.398   0.766
  256SOL     OW 1053   0.075   2.654   0.848
  256SOL    HW2 1054   0.093   2.628   0.938
  256SOL    HW3 1055   0.019   2.585   0.813
  256SOL    MW4 1056   0.070   2.642   0.855
  257SOL     OW 1057   0.220   2.839   0.714
  257SOL    HW2 1058   0.170   2.761   0.737
  257SOL    HW3 1059   0.202   2.852   0.621
  257SOL    MW4 1060   0.211   2.830   0.705
  258SOL     OW 1061   0.231   3.083   0.853
  258SOL    HW2 1062   0.233   3.076   0.948
  258SOL    HW3 1063   0.200   2.998   0.823
  258SOL    MW4 1064   0.227   3.071   0.861
  259SOL     OW 1065   4.486   3.202   0.797
  259SOL    HW2 1066   4.571   3.164   0.819
  259SOL    HW3 1067   4.464   3.166   0.711
  259SOL    MW4 1068   4.494   3.192   0.788
  260SOL     OW 1069   0.057   3.449   0.913
  260SOL    HW2 1070  -0.024   3.500   0.903
  260SOL    HW3 1071   0.035   3.364   0.875
  260SOL    MW4 1072   0.043   3.444   0.907
  261SOL     OW 1073   0.275   3.600   0.811
  261SOL    HW2 1074   0.199   3.553   0.845
  261SOL    HW3 1075   0.278   3.578   0.718
  261SOL    MW4 1076   0.265   3.591   0.803
  262SOL     OW 1077   0.292   3.900   0.834
  262SOL    HW2 1078   0.280   3.918   0.927
  262SOL    HW3 1079   0.306   3.805   0.829
  262SOL    MW4 1080   0.292   3.890   0.846
  263SOL     OW 1081   0.027   3.983   0.793
  263SOL    HW2 1082  -0.045   3.925   0.819
  263SOL    HW3 1083   0.107   3.937   0.818
  263SOL    MW4 1084   0.028   3.969   0.799
  264SOL     OW 1085   0.026   4.249   0.873
  264SOL    HW2 1086   0.024   4.241   0.968
  264SOL    HW3 1087   0.019   4.160   0.841
  264SOL    MW4 1088   0.025   4.236   0.881
  265SOL     OW 1089   0.279   4.392   0.784
  265SOL    HW2 1090   0.211   4.336   0.823
  265SOL    HW3 1091   0.281   4.367   0.692
  265SOL    MW4 1092   0.270   4.381   0.777
  266SOL     OW 1093   0.702   4.657   0.811
  266SOL    HW2 1094   0.700   4.656   0.907
  266SOL    HW3 1095   0.623   4.706   0.786
  266SOL    MW4 1096   0.691   4.664   0.820
  267SOL     OW 1097   0.461   0.111   0.729
  267SOL    HW2 1098   0.392   0.070   0.782
  267SOL    HW3 1099   0.451   0.071   0.642
  267SOL    MW4 1100   0.450   0.100   0.725
  268SOL     OW 1101   0.432   0.363   0.832
  268SOL    HW2 1102   0.512   0.412   0.812
  268SOL    HW3 1103   0.446   0.277   0.794
  268SOL    MW4 1104   0.444   0.358   0.824
  269SOL     OW 1105   0.648   0.514   0.750
  269SOL    HW2 1106   0.729   0.482   0.789
  269SOL    HW3 1107   0.668   0.522   0.656
  269SOL    MW4 1108   0.661   0.511   0.742
  270SOL     OW 1109   0.650   0.751   0.875
  270SOL    HW2 1110   0.596   0.802   0.815
  270SOL    HW3 1111   0.651   0.663   0.837
  270SOL    MW4 1112   0.643   0.746   0.862
  271SOL     OW 1113   0.476   0.898   0.711
  271SOL    HW2 1114   0.479   0.986   0.748
  271SOL    HW3 1115   0.397   0.859   0.749
  271SOL    MW4 1116   0.466   0.904   0.721
  272SOL     OW 1117   0.469   1.146   0.832
  272SOL    HW2 1118   0.547   1.192   0.800
  272SOL    HW3 1119   0.396   1.200   0.802
  272SOL    MW4 1120   0.470   1.159   0.824
  273SOL     OW 1121   0.702   1.269   0.745
  273SOL    HW2 1122   0.697   1.365   0.747
  273SOL    HW3 1123   0.727   1.249   0.654
  273SOL    MW4 1124   0.705   1.279   0.733
  274SOL     OW 1125   0.714   1.523   0.829
  274SOL    HW2 1126   0.728   1.515   0.924
  274SOL    HW3 1127   0.644   1.587   0.820
  274SOL    MW4 1128   0.707   1.530   0.840
  275SOL     OW 1129   0.474   1.671   0.772
  275SOL    HW2 1130   0.473   1.765   0.791
  275SOL    HW3 1131   0.479   1.667   0.676
  275SOL    MW4 1132   0.475   1.683   0.762
  276SOL     OW 1133   0.460   1.931   0.846
  276SOL    HW2 1134   0.464   1.957   0.938
  276SOL    HW3 1135   0.382   1.975   0.813
  276SOL    MW4 1136   0.450   1.940   0.854
  277SOL     OW 1137   0.680   2.094   0.775
  277SOL    HW2 1138   0.598   2.045   0.780
  277SOL    HW3 1139   0.692   2.110   0.681
  277SOL    MW4 1140   0.670   2.090   0.763
  278SOL     OW 1141   0.684   2.371   0.854
  278SOL    HW2 1142   0.668   2.388   0.947
  278SOL    HW3 1143   0.680   2.276   0.846
  278SOL    MW4 1144   0.681   2.361   0.865
  279SOL     OW 1145   0.423   2.452   0.783
  279SOL    HW2 1146   0.495   2.393   0.803
  279SOL    HW3 1147   0.382   2.414   0.705
  279SOL    MW4 1148   0.427   2.439   0.775
  280SOL     OW 1149   0.488   2.723   0.755
  280SOL    HW2 1150   0.466   2.630   0.765
  280SOL    HW3 1151   0.404   2.767   0.745
  280SOL    MW4 1152   0.474   2.717   0.755
  281SOL     OW 1153   0.725   2.849   0.730
  281SOL    HW2 1154   0.787   2.800   0.783
  281SOL    HW3 1155   0.641   2.804   0.742
  281SOL    MW4 1156   0.722   2.837   0.739
  282SOL     OW 1157   0.647   3.064   0.891
  282SOL    HW2 1158   0.601   3.117   0.826
  282SOL    HW3 1159   0.671   2.984   0.843
  282SOL    MW4 1160   0.644   3.060   0.876
  283SOL     OW 1161   0.463   3.245   0.774
  283SOL    HW2 1162   0.455   3.302   0.850
  283SOL    HW3 1163   0.385   3.189   0.777
  283SOL    MW4 1164   0.452   3.245   0.785
  284SOL     OW 1165   0.466   3.458   0.950
  284SOL    HW2 1166   0.452   3.460   1.045
  284SOL    HW3 1167   0.390   3.503   0.914
  284SOL    MW4 1168   0.454   3.464   0.958
  285SOL     OW 1169   0.680   3.579   0.804
  285SOL    HW2 1170   0.610   3.539   0.857
  285SOL    HW3 1171   0.671   3.673   0.819
  285SOL    MW4 1172   0.670   3.586   0.813
  286SOL     OW 1173   0.688   3.869   0.854
  286SOL    HW2 1174   0.769   3.920   0.852
  286SOL    HW3 1175   0.627   3.918   0.798
  286SOL    MW4 1176   0.690   3.882   0.846
  287SOL     OW 1177   0.502   4.036   0.705
  287SOL    HW2 1178   0.527   4.104   0.766
  287SOL    HW3 1179   0.422   3.999   0.741
  287SOL    MW4 1180   0.495   4.040   0.718
  288SOL     OW 1181   0.517   4.270   0.873
  288SOL    HW2 1182   0.507   4.267   0.968
  288SOL    HW3 1183   0.433   4.304   0.841
  288SOL    MW4 1184   0.504   4.274   0.881
  289SOL     OW 1185   0.723   4.392   0.731
  289SOL    HW2 1186   0.652   4.355   0.783
  289SOL    HW3 1187   0.721   4.486   0.751
  289SOL    MW4 1188   0.714   4.400   0.740
  290SOL     OW 1189   1.125   0.026   0.872
  290SOL    HW2 1190   1.204   0.043   0.821
  290SOL    HW3 1191   1.056   0.072   0.824
  290SOL    MW4 1192   1.126   0.034   0.859
  291SOL     OW 1193   0.921   0.155   0.721
  291SOL    HW2 1194   0.902   0.238   0.766
  291SOL    HW3 1195   0.854   0.095   0.752
  291SOL    MW4 1196   0.910   0.158   0.731
  292SOL     OW 1197   0.874   0.384   0.857
  292SOL    HW2 1198   0.873   0.394   0.952
  292SOL    HW3 1199   0.959   0.419   0.829
  292SOL    MW4 1200   0.885   0.390   0.866
  293SOL     OW 1201   1.121   0.466   0.799
  293SOL    HW2 1202   1.199   0.416   0.825
  293SOL    HW3 1203   1.121   0.462   0.703
  293SOL    MW4 1204   1.132   0.459   0.790
  294SOL     OW 1205   1.085   0.732   0.883
  294SOL    HW2 1206   1.109   0.727   0.976
  294SOL    HW3 1207   1.097   0.643   0.850
  294SOL    MW4 1208   1.089   0.719   0.891
  295SOL     OW 1209   0.876   0.883   0.765
  295SOL    HW2 1210   0.955   0.844   0.803
  295SOL    HW3 1211   0.805   0.829   0.800
  295SOL    MW4 1212   0.877   0.871   0.775
  296SOL     OW 1213   0.929   1.134   0.864
  296SOL    HW2 1214   0.899   1.047   0.834
  296SOL    HW3 1215   0.859   1.193   0.838
  296SOL    MW4 1216   0.916   1.130   0.856
  297SOL     OW 1217   1.154   1.293   0.786
  297SOL    HW2 1218   1.088   1.232   0.818
  297SOL    HW3 1219   1.145   1.290   0.690
  297SOL    MW4 1220   1.144   1.285   0.777
  298SOL     OW 1221   1.069   1.533   0.895
  298SOL    HW2 1222   0.996   1.567   0.843
  298SOL    HW3 1223   1.090   1.449   0.855
  298SOL    MW4 1224   1.062   1.527   0.882
  299SOL     OW 1225   0.911   1.700   0.729
  299SOL    HW2 1226   0.893   1.774   0.786
  299SOL    HW3 1227   0.833   1.645   0.736
  299SOL    MW4 1228   0.898   1.703   0.737
  300SOL     OW 1229   0.907   1.949   0.848
  300SOL    HW2 1230   0.917   1.940   0.942
  300SOL    HW3 1231   0.822   1.992   0.837
  300SOL    MW4 1232   0.897   1.954   0.859
  301SOL     OW 1233   1.128   2.065   0.737
  301SOL    HW2 1234   1.134   2.159   0.755
  301SOL    HW3 1235   1.057   2.034   0.793
  301SOL    MW4 1236   1.119   2.074   0.747
  302SOL     OW 1237   1.143   2.318   0.840
  302SOL    HW2 1238   1.159   2.303   0.933
  302SOL    HW3 1239   1.221   2.365   0.810
  302SOL    MW4 1240   1.155   2.322   0.848
  303SOL     OW 1241   0.926   2.456   0.753
  303SOL    HW2 1242   1.004   2.407   0.778
  303SOL    HW3 1243   0.855   2.414   0.801
  303SOL    MW4 1244   0.927   2.444   0.762
  304SOL     OW 1245   0.917   2.714   0.882
  304SOL    HW2 1246   0.903   2.689   0.974
  304SOL    HW3 1247   0.927   2.631   0.836
  304SOL    MW4 1248   0.917   2.700   0.888
  305SOL     OW 1249   1.149   2.854   0.763
  305SOL    HW2 1250   1.070   2.807   0.791
  305SOL    HW3 1251   1.142   2.857   0.667
  305SOL    MW4 1252   1.138   2.848   0.754
  306SOL     OW 1253   1.153   3.117   0.852
  306SOL    HW2 1254   1.070   3.162   0.837
  306SOL    HW3 1255   1.142   3.032   0.808
  306SOL    MW4 1256   1.140   3.112   0.844
  307SOL     OW 1257   0.891   3.194   0.851
  307SOL    HW2 1258   0.900   3.283   0.885
  307SOL    HW3 1259   0.812   3.160   0.892
  307SOL    MW4 1260   0.882   3.202   0.861
  308SOL     OW 1261   0.902   3.469   0.904
  308SOL    HW2 1262   0.983   3.503   0.864
  308SOL    HW3 1263   0.832   3.511   0.855
  308SOL    MW4 1264   0.904   3.479   0.892
  309SOL     OW 1265   1.129   3.585   0.783
  309SOL    HW2 1266   1.206   3.535   0.809
  309SOL    HW3 1267   1.139   3.596   0.688
  309SOL    MW4 1268   1.141   3.580   0.774
  310SOL     OW 1269   1.165   3.884   0.852
  310SOL    HW2 1270   1.162   3.877   0.947
  310SOL    HW3 1271   1.145   3.795   0.821
  310SOL    MW4 1272   1.162   3.871   0.860
  311SOL     OW 1273   0.910   4.018   0.826
  311SOL    HW2 1274   0.920   4.109   0.855
  311SOL    HW3 1275   0.993   3.977   0.847
  311SOL    MW4 1276   0.922   4.025   0.833
  312SOL     OW 1277   0.927   4.280   0.880
  312SOL    HW2 1278   1.001   4.323   0.836
  312SOL    HW3 1279   0.849   4.320   0.840
  312SOL    MW4 1280   0.926   4.291   0.869
  313SOL     OW 1281   1.104   4.446   0.728
  313SOL    HW2 1282   1.177   4.386   0.746
  313SOL    HW3 1283   1.129   4.527   0.771
  313SOL    MW4 1284   1.117   4.449   0.736
  314SOL     OW 1285   1.559   4.646   0.787
  314SOL    HW2 1286   1.569   4.663   0.880
  314SOL    HW3 1287   1.478   4.692   0.763
  314SOL    MW4 1288   1.549   4.654   0.796
  315SOL     OW 1289   1.321   0.124   0.707
  315SOL    HW2 1290   1.330   0.212   0.744
  315SOL    HW3 1291   1.335   0.137   0.613
  315SOL    MW4 1292   1.324   0.137   0.699
  316SOL     OW 1293   1.356   0.361   0.860
  316SOL    HW2 1294   1.361   0.377   0.954
  316SOL    HW3 1295   1.440   0.392   0.826
  316SOL    MW4 1296   1.368   0.367   0.868
  317SOL     OW 1297   1.590   0.475   0.786
  317SOL    HW2 1298   1.594   0.563   0.823
  317SOL    HW3 1299   1.670   0.432   0.816
  317SOL    MW4 1300   1.601   0.481   0.794
  318SOL     OW 1301   1.552   0.733   0.851
  318SOL    HW2 1302   1.623   0.780   0.807
  318SOL    HW3 1303   1.472   0.772   0.817
  318SOL    MW4 1304   1.551   0.744   0.841
  319SOL     OW 1305   1.307   0.847   0.771
  319SOL    HW2 1306   1.303   0.938   0.799
  319SOL    HW3 1307   1.235   0.804   0.818
  319SOL    MW4 1308   1.297   0.853   0.781
  320SOL     OW 1309   1.362   1.118   0.856
  320SOL    HW2 1310   1.435   1.157   0.808
  320SOL    HW3 1311   1.290   1.181   0.847
  320SOL    MW4 1312   1.362   1.131   0.848
  321SOL     OW 1313   1.587   1.221   0.726
  321SOL    HW2 1314   1.574   1.311   0.696
  321SOL    HW3 1315   1.583   1.168   0.647
  321SOL    MW4 1316   1.585   1.226   0.712
  322SOL     OW 1317   1.645   1.625   0.891
  322SOL    HW2 1318   1.609   1.630   0.980
  322SOL    HW3 1319   1.727   1.576   0.901
  322SOL    MW4 1320   1.651   1.620   0.904
  323SOL     OW 1321   1.280   1.636   0.731
  323SOL    HW2 1322   1.307   1.713   0.781
  323SOL    HW3 1323   1.208   1.599   0.781
  323SOL    MW4 1324   1.274   1.641   0.744
  324SOL     OW 1325   1.333   1.916   0.840
  324SOL    HW2 1326   1.324   1.920   0.935
  324SOL    HW3 1327   1.258   1.965   0.806
  324SOL    MW4 1328   1.322   1.923   0.848
  325SOL     OW 1329   1.580   2.047   0.762
  325SOL    HW2 1330   1.494   2.010   0.783
  325SOL    HW3 1331   1.575   2.065   0.668
  325SOL    MW4 1332   1.568   2.044   0.752
  326SOL     OW 1333   1.609   2.323   0.833
  326SOL    HW2 1334   1.531   2.354   0.786
  326SOL    HW3 1335   1.608   2.228   0.821
  326SOL    MW4 1336   1.598   2.315   0.825
  327SOL     OW 1337   1.377   2.446   0.719
  327SOL    HW2 1338   1.383   2.533   0.757
  327SOL    HW3 1339   1.387   2.460   0.625
  327SOL    MW4 1340   1.379   2.459   0.711
  328SOL     OW 1341   1.361   2.685   0.847
  328SOL    HW2 1342   1.349   2.702   0.940
  328SOL    HW3 1343   1.281   2.719   0.806
  328SOL    MW4 1344   1.349   2.692   0.854
  329SOL     OW 1345   1.586   2.839   0.718
  329SOL    HW2 1346   1.573   2.934   0.725
  329SOL    HW3 1347   1.507   2.802   0.756
  329SOL    MW4 1348   1.574   2.847   0.724
  330SOL     OW 1349   1.514   3.097   0.796
  330SOL    HW2 1350   1.510   3.100   0.891
  330SOL    HW3 1351   1.452   3.163   0.766
  330SOL    MW4 1352   1.506   3.106   0.805
  331SOL     OW 1353   1.311   3.272   0.709
  331SOL    HW2 1354   1.257   3.216   0.766
  331SOL    HW3 1355   1.251   3.300   0.640
  331SOL    MW4 1356   1.296   3.268   0.708
  332SOL     OW 1357   1.367   3.481   0.859
  332SOL    HW2 1358   1.441   3.527   0.821
  332SOL    HW3 1359   1.345   3.414   0.795
  332SOL    MW4 1360   1.374   3.478   0.846
  333SOL     OW 1361   1.551   3.624   0.708
  333SOL    HW2 1362   1.642   3.600   0.724
  333SOL    HW3 1363   1.539   3.609   0.614
  333SOL    MW4 1364   1.561   3.619   0.698
  334SOL     OW 1365   1.527   3.884   0.850
  334SOL    HW2 1366   1.475   3.943   0.797
  334SOL    HW3 1367   1.541   3.807   0.794
  334SOL    MW4 1368   1.522   3.881   0.836
  335SOL     OW 1369   1.338   4.031   0.684
  335SOL    HW2 1370   1.264   3.984   0.724
  335SOL    HW3 1371   1.338   4.002   0.593
  335SOL    MW4 1372   1.328   4.021   0.678
  336SOL     OW 1373   1.314   4.277   0.793
  336SOL    HW2 1374   1.402   4.313   0.788
  336SOL    HW3 1375   1.316   4.200   0.737
  336SOL    MW4 1376   1.326   4.272   0.785
  337SOL     OW 1377   1.555   4.365   0.732
  337SOL    HW2 1378   1.628   4.335   0.786
  337SOL    HW3 1379   1.558   4.460   0.737
  337SOL    MW4 1380   1.565   4.374   0.739
  338SOL     OW 1381   2.000   0.112   0.872
  338SOL    HW2 1382   2.071   0.142   0.814
  338SOL    HW3 1383   1.925   0.100   0.814
  338SOL    MW4 1384   1.999   0.114   0.857
  339SOL     OW 1385   1.814   0.072   0.669
  339SOL    HW2 1386   1.844  -0.001   0.615
  339SOL    HW3 1387   1.730   0.044   0.705
  339SOL    MW4 1388   1.807   0.059   0.666
  340SOL     OW 1389   1.867   0.388   0.842
  340SOL    HW2 1390   1.878   0.293   0.849
  340SOL    HW3 1391   1.893   0.409   0.752
  340SOL    MW4 1392   1.872   0.378   0.831
  341SOL     OW 1393   1.922   0.498   0.570
  341SOL    HW2 1394   1.835   0.535   0.557
  341SOL    HW3 1395   1.982   0.571   0.558
  341SOL    MW4 1396   1.919   0.512   0.567
  342SOL     OW 1397   2.036   0.654   0.825
  342SOL    HW2 1398   2.100   0.724   0.811
  342SOL    HW3 1399   2.090   0.575   0.835
  342SOL    MW4 1400   2.052   0.653   0.824
  343SOL     OW 1401   1.799   0.824   0.777
  343SOL    HW2 1402   1.800   0.901   0.834
  343SOL    HW3 1403   1.874   0.771   0.805
  343SOL    MW4 1404   1.809   0.827   0.788
  344SOL     OW 1405   1.791   1.091   0.885
  344SOL    HW2 1406   1.866   1.149   0.872
  344SOL    HW3 1407   1.719   1.134   0.838
  344SOL    MW4 1408   1.791   1.104   0.877
  345SOL     OW 1409   1.977   1.286   0.882
  345SOL    HW2 1410   2.065   1.256   0.905
  345SOL    HW3 1411   1.987   1.320   0.793
  345SOL    MW4 1412   1.990   1.286   0.873
  346SOL     OW 1413   1.907   1.546   0.909
  346SOL    HW2 1414   1.981   1.586   0.865
  346SOL    HW3 1415   1.925   1.452   0.907
  346SOL    MW4 1416   1.919   1.539   0.903
  347SOL     OW 1417   1.902   1.771   0.549
  347SOL    HW2 1418   1.882   1.802   0.637
  347SOL    HW3 1419   1.858   1.687   0.542
  347SOL    MW4 1420   1.893   1.764   0.559
  348SOL     OW 1421   1.782   1.870   0.812
  348SOL    HW2 1422   1.742   1.784   0.827
  348SOL    HW3 1423   1.710   1.926   0.784
  348SOL    MW4 1424   1.767   1.866   0.810
  349SOL     OW 1425   1.998   2.052   0.749
  349SOL    HW2 1426   1.984   2.143   0.777
  349SOL    HW3 1427   1.920   2.006   0.780
  349SOL    MW4 1428   1.986   2.058   0.757
  350SOL     OW 1429   2.012   2.326   0.824
  350SOL    HW2 1430   2.034   2.334   0.917
  350SOL    HW3 1431   1.938   2.386   0.811
  350SOL    MW4 1432   2.005   2.335   0.834
  351SOL     OW 1433   1.815   2.517   0.792
  351SOL    HW2 1434   1.749   2.448   0.789
  351SOL    HW3 1435   1.852   2.520   0.703
  351SOL    MW4 1436   1.811   2.509   0.780
  352SOL     OW 1437   1.794   2.774   0.872
  352SOL    HW2 1438   1.811   2.681   0.858
  352SOL    HW3 1439   1.715   2.792   0.821
  352SOL    MW4 1440   1.786   2.764   0.863
  353SOL     OW 1441   2.000   2.860   0.711
  353SOL    HW2 1442   2.077   2.816   0.748
  353SOL    HW3 1443   1.925   2.820   0.757
  353SOL    MW4 1444   2.000   2.849   0.722
  354SOL     OW 1445   1.978   3.136   0.806
  354SOL    HW2 1446   1.897   3.180   0.777
  354SOL    HW3 1447   1.975   3.050   0.765
  354SOL    MW4 1448   1.967   3.131   0.796
  355SOL     OW 1449   1.737   3.255   0.729
  355SOL    HW2 1450   1.682   3.187   0.769
  355SOL    HW3 1451   1.689   3.281   0.650
  355SOL    MW4 1452   1.723   3.249   0.724
  356SOL     OW 1453   1.790   3.507   0.810
  356SOL    HW2 1454   1.781   3.504   0.906
  356SOL    HW3 1455   1.766   3.419   0.782
  356SOL    MW4 1456   1.786   3.495   0.819
  357SOL     OW 1457   2.030   3.638   0.742
  357SOL    HW2 1458   2.029   3.726   0.779
  357SOL    HW3 1459   1.966   3.590   0.794
  357SOL    MW4 1460   2.022   3.643   0.754
  358SOL     OW 1461   2.014   3.914   0.781
  358SOL    HW2 1462   1.995   3.894   0.872
  358SOL    HW3 1463   1.929   3.911   0.737
  358SOL    MW4 1464   2.000   3.911   0.787
  359SOL     OW 1465   1.735   4.000   0.708
  359SOL    HW2 1466   1.671   3.959   0.767
  359SOL    HW3 1467   1.691   4.001   0.623
  359SOL    MW4 1468   1.721   3.995   0.705
  360SOL     OW 1469   1.785   4.237   0.831
  360SOL    HW2 1470   1.795   4.239   0.927
  360SOL    HW3 1471   1.763   4.146   0.811
  360SOL    MW4 1472   1.783   4.225   0.841
  361SOL     OW 1473   1.984   4.299   0.672
  361SOL    HW2 1474   1.919   4.271   0.735
  361SOL    HW3 1475   1.995   4.224   0.613
  361SOL    MW4 1476   1.977   4.285   0.672
  362SOL     OW 1477   2.444   0.032   0.787
  362SOL    HW2 1478   2.451   0.036   0.883
  362SOL    HW3 1479   2.519   0.081   0.755
  362SOL    MW4 1480   2.454   0.039   0.796
  363SOL     OW 1481   2.225   0.210   0.743
  363SOL    HW2 1482   2.299   0.153   0.762
  363SOL    HW3 1483   2.219   0.210   0.647
  363SOL    MW4 1484   2.234   0.203   0.733
  364SOL     OW 1485   2.254   0.452   0.861
  364SOL    HW2 1486   2.335   0.484   0.821
  364SOL    HW3 1487   2.238   0.368   0.817
  364SOL    MW4 1488   2.263   0.445   0.850
  365SOL     OW 1489   2.465   0.555   0.705
  365SOL    HW2 1490   2.470   0.511   0.620
  365SOL    HW3 1491   2.538   0.518   0.756
  365SOL    MW4 1492   2.476   0.545   0.701
  366SOL     OW 1493   2.468   0.807   0.832
  366SOL    HW2 1494   2.558   0.836   0.815
  366SOL    HW3 1495   2.457   0.730   0.777
  366SOL    MW4 1496   2.479   0.801   0.822
  367SOL     OW 1497   2.192   0.867   0.806
  367SOL    HW2 1498   2.284   0.841   0.815
  367SOL    HW3 1499   2.183   0.892   0.714
  367SOL    MW4 1500   2.203   0.867   0.795
  368SOL     OW 1501   2.215   1.151   0.887
  368SOL    HW2 1502   2.259   1.139   0.972
  368SOL    HW3 1503   2.204   1.062   0.854
  368SOL    MW4 1504   2.219   1.137   0.894
  369SOL     OW 1505   2.425   1.297   0.787
  369SOL    HW2 1506   2.348   1.250   0.817
  369SOL    HW3 1507   2.401   1.330   0.700
  369SOL    MW4 1508   2.412   1.295   0.779
  370SOL     OW 1509   2.430   1.552   0.889
  370SOL    HW2 1510   2.487   1.582   0.818
  370SOL    HW3 1511   2.422   1.458   0.875
  370SOL    MW4 1512   2.436   1.544   0.878
  371SOL     OW 1513   2.144   1.664   0.824
  371SOL    HW2 1514   2.226   1.627   0.856
  371SOL    HW3 1515   2.151   1.662   0.729
  371SOL    MW4 1516   2.156   1.659   0.816
  372SOL     OW 1517   2.203   1.941   0.874
  372SOL    HW2 1518   2.184   1.851   0.845
  372SOL    HW3 1519   2.125   1.991   0.849
  372SOL    MW4 1520   2.190   1.935   0.866
  373SOL     OW 1521   2.438   2.053   0.762
  373SOL    HW2 1522   2.358   2.012   0.797
  373SOL    HW3 1523   2.423   2.058   0.668
  373SOL    MW4 1524   2.425   2.048   0.754
  374SOL     OW 1525   2.471   2.307   0.873
  374SOL    HW2 1526   2.549   2.338   0.829
  374SOL    HW3 1527   2.453   2.222   0.832
  374SOL    MW4 1528   2.479   2.300   0.862
  375SOL     OW 1529   2.244   2.456   0.750
  375SOL    HW2 1530   2.314   2.420   0.805
  375SOL    HW3 1531   2.168   2.400   0.768
  375SOL    MW4 1532   2.243   2.444   0.760
  376SOL     OW 1533   2.238   2.731   0.821
  376SOL    HW2 1534   2.224   2.738   0.915
  376SOL    HW3 1535   2.252   2.637   0.805
  376SOL    MW4 1536   2.238   2.719   0.831
  377SOL     OW 1537   2.472   2.842   0.729
  377SOL    HW2 1538   2.540   2.805   0.786
  377SOL    HW3 1539   2.390   2.804   0.762
  377SOL    MW4 1540   2.470   2.832   0.741
  378SOL     OW 1541   2.474   3.109   0.823
  378SOL    HW2 1542   2.474   3.097   0.918
  378SOL    HW3 1543   2.463   3.022   0.787
  378SOL    MW4 1544   2.473   3.096   0.831
  379SOL     OW 1545   2.222   3.257   0.711
  379SOL    HW2 1546   2.152   3.215   0.761
  379SOL    HW3 1547   2.303   3.219   0.745
  379SOL    MW4 1548   2.224   3.247   0.722
  380SOL     OW 1549   2.270   3.527   0.817
  380SOL    HW2 1550   2.250   3.438   0.790
  380SOL    HW3 1551   2.193   3.578   0.794
  380SOL    MW4 1552   2.257   3.522   0.811
  381SOL     OW 1553   2.494   3.617   0.668
  381SOL    HW2 1554   2.572   3.577   0.707
  381SOL    HW3 1555   2.421   3.583   0.721
  381SOL    MW4 1556   2.495   3.607   0.680
  382SOL     OW 1557   2.478   3.872   0.826
  382SOL    HW2 1558   2.400   3.911   0.785
  382SOL    HW3 1559   2.487   3.786   0.784
  382SOL    MW4 1560   2.469   3.866   0.815
  383SOL     OW 1561   2.265   4.025   0.743
  383SOL    HW2 1562   2.177   3.989   0.753
  383SOL    HW3 1563   2.290   4.003   0.653
  383SOL    MW4 1564   2.257   4.017   0.732
  384SOL     OW 1565   2.209   4.291   0.826
  384SOL    HW2 1566   2.224   4.197   0.815
  384SOL    HW3 1567   2.129   4.309   0.778
  384SOL    MW4 1568   2.201   4.281   0.818
  385SOL     OW 1569   2.387   4.446   0.673
  385SOL    HW2 1570   2.396   4.526   0.725
  385SOL    HW3 1571   2.329   4.390   0.725
  385SOL    MW4 1572   2.380   4.449   0.687
  386SOL     OW 1573   2.953   0.041   0.635
  386SOL    HW2 1574   2.934  -0.048   0.666
  386SOL    HW3 1575   2.881   0.094   0.668
  386SOL    MW4 1576   2.941   0.036   0.644
  387SOL     OW 1577   2.663   4.552   0.513
  387SOL    HW2 1578   2.661   4.616   0.442
  387SOL    HW3 1579   2.653   4.605   0.593
  387SOL    MW4 1580   2.661   4.567   0.514
  388SOL     OW 1581   2.652   0.408   0.844
  388SOL    HW2 1582   2.669   0.421   0.938
  388SOL    HW3 1583   2.730   0.444   0.801
  388SOL    MW4 1584   2.665   0.414   0.851
  389SOL     OW 1585   2.892   0.524   0.763
  389SOL    HW2 1586   2.970   0.477   0.794
  389SOL    HW3 1587   2.891   0.509   0.669
  389SOL    MW4 1588   2.903   0.516   0.755
  390SOL     OW 1589   2.954   0.756   0.932
  390SOL    HW2 1590   2.939   0.759   1.026
  390SOL    HW3 1591   2.912   0.674   0.903
  390SOL    MW4 1592   2.947   0.745   0.940
  391SOL     OW 1593   2.757   0.901   0.813
  391SOL    HW2 1594   2.833   0.863   0.856
  391SOL    HW3 1595   2.762   0.870   0.722
  391SOL    MW4 1596   2.768   0.892   0.806
  392SOL     OW 1597   2.690   1.182   0.812
  392SOL    HW2 1598   2.679   1.087   0.809
  392SOL    HW3 1599   2.601   1.216   0.805
  392SOL    MW4 1600   2.677   1.174   0.811
  393SOL     OW 1601   2.917   1.337   0.739
  393SOL    HW2 1602   2.989   1.280   0.766
  393SOL    HW3 1603   2.839   1.284   0.753
  393SOL    MW4 1604   2.916   1.323   0.745
  394SOL     OW 1605   2.891   1.567   0.898
  394SOL    HW2 1606   2.958   1.616   0.849
  394SOL    HW3 1607   2.893   1.480   0.860
  394SOL    MW4 1608   2.900   1.562   0.887
  395SOL     OW 1609   2.664   1.657   0.762
  395SOL    HW2 1610   2.667   1.748   0.791
  395SOL    HW3 1611   2.742   1.617   0.801
  395SOL    MW4 1612   2.674   1.663   0.771
  396SOL     OW 1613   2.665   1.912   0.851
  396SOL    HW2 1614   2.674   1.907   0.946
  396SOL    HW3 1615   2.583   1.959   0.837
  396SOL    MW4 1616   2.656   1.918   0.862
  397SOL     OW 1617   2.818   2.059   0.671
  397SOL    HW2 1618   2.855   2.136   0.712
  397SOL    HW3 1619   2.773   2.013   0.741
  397SOL    MW4 1620   2.817   2.063   0.685
  398SOL     OW 1621   2.894   2.282   0.821
  398SOL    HW2 1622   2.919   2.275   0.913
  398SOL    HW3 1623   2.830   2.353   0.818
  398SOL    MW4 1624   2.889   2.290   0.833
  399SOL     OW 1625   2.678   2.458   0.725
  399SOL    HW2 1626   2.650   2.476   0.635
  399SOL    HW3 1627   2.659   2.539   0.773
  399SOL    MW4 1628   2.672   2.471   0.719
  400SOL     OW 1629   2.697   2.709   0.858
  400SOL    HW2 1630   2.705   2.699   0.953
  400SOL    HW3 1631   2.781   2.747   0.832
  400SOL    MW4 1632   2.709   2.713   0.867
  401SOL     OW 1633   2.916   2.797   0.525
  401SOL    HW2 1634   2.940   2.714   0.485
  401SOL    HW3 1635   2.822   2.807   0.506
  401SOL    MW4 1636   2.907   2.787   0.517
  402SOL     OW 1637   2.968   3.125   0.761
  402SOL    HW2 1638   2.880   3.162   0.758
  402SOL    HW3 1639   2.956   3.032   0.744
  402SOL    MW4 1640   2.955   3.118   0.759
  403SOL     OW 1641   2.710   3.230   0.737
  403SOL    HW2 1642   2.711   3.322   0.765
  403SOL    HW3 1643   2.623   3.199   0.762
  403SOL    MW4 1644   2.698   3.238   0.744
  404SOL     OW 1645   2.694   3.505   0.822
  404SOL    HW2 1646   2.695   3.486   0.916
  404SOL    HW3 1647   2.780   3.544   0.804
  404SOL    MW4 1648   2.705   3.508   0.832
  405SOL     OW 1649   2.960   3.628   0.764
  405SOL    HW2 1650   2.962   3.724   0.757
  405SOL    HW3 1651   2.967   3.597   0.674
  405SOL    MW4 1652   2.961   3.637   0.752
  406SOL     OW 1653   2.930   3.909   0.802
  406SOL    HW2 1654   2.915   3.888   0.894
  406SOL    HW3 1655   2.843   3.932   0.768
  406SOL    MW4 1656   2.916   3.909   0.809
  407SOL     OW 1657   2.698   4.037   0.702
  407SOL    HW2 1658   2.638   3.976   0.745
  407SOL    HW3 1659   2.706   4.003   0.613
  407SOL    MW4 1660   2.691   4.024   0.696
  408SOL     OW 1661   2.685   4.311   0.739
  408SOL    HW2 1662   2.683   4.326   0.833
  408SOL    HW3 1663   2.703   4.217   0.729
  408SOL    MW4 1664   2.687   4.300   0.750
  409SOL     OW 1665   2.927   4.458   0.762
  409SOL    HW2 1666   2.996   4.404   0.799
  409SOL    HW3 1667   2.852   4.398   0.753
  409SOL    MW4 1668   2.926   4.443   0.766
  410SOL     OW 1669   3.399   4.647   0.798
  410SOL    HW2 1670   3.385   4.665   0.891
  410SOL    HW3 1671   3.327   4.689   0.753
  410SOL    MW4 1672   3.388   4.655   0.804
  411SOL     OW 1673   3.209   0.124   0.652
  411SOL    HW2 1674   3.203   0.202   0.707
  411SOL    HW3 1675   3.121   0.089   0.651
  411SOL    MW4 1676   3.197   0.130   0.659
  412SOL     OW 1677   3.159   0.358   0.795
  412SOL    HW2 1678   3.168   0.354   0.891
  412SOL    HW3 1679   3.231   0.415   0.768
  412SOL    MW4 1680   3.170   0.365   0.804
  413SOL     OW 1681   3.367   0.525   0.718
  413SOL    HW2 1682   3.419   0.462   0.769
  413SOL    HW3 1683   3.379   0.497   0.627
  413SOL    MW4 1684   3.376   0.513   0.713
  414SOL     OW 1685   3.405   0.785   0.837
  414SOL    HW2 1686   3.317   0.817   0.817
  414SOL    HW3 1687   3.408   0.698   0.799
  414SOL    MW4 1688   3.394   0.778   0.829
  415SOL     OW 1689   3.160   0.906   0.827
  415SOL    HW2 1690   3.134   0.997   0.842
  415SOL    HW3 1691   3.085   0.854   0.856
  415SOL    MW4 1692   3.146   0.911   0.833
  416SOL     OW 1693   3.100   1.159   0.875
  416SOL    HW2 1694   3.112   1.162   0.969
  416SOL    HW3 1695   3.185   1.186   0.839
  416SOL    MW4 1696   3.113   1.163   0.882
  417SOL     OW 1697   3.339   1.258   0.723
  417SOL    HW2 1698   3.421   1.223   0.758
  417SOL    HW3 1699   3.340   1.351   0.748
  417SOL    MW4 1700   3.350   1.266   0.731
  418SOL     OW 1701   3.337   1.514   0.847
  418SOL    HW2 1702   3.356   1.532   0.939
  418SOL    HW3 1703   3.414   1.547   0.800
  418SOL    MW4 1704   3.350   1.521   0.853
  419SOL     OW 1705   3.114   1.661   0.788
  419SOL    HW2 1706   3.185   1.598   0.793
  419SOL    HW3 1707   3.090   1.664   0.696
  419SOL    MW4 1708   3.120   1.653   0.777
  420SOL     OW 1709   3.240   1.890   0.890
  420SOL    HW2 1710   3.212   1.902   0.981
  420SOL    HW3 1711   3.197   1.809   0.863
  420SOL    MW4 1712   3.230   1.881   0.898
  421SOL     OW 1713   3.509   1.956   0.878
  421SOL    HW2 1714   3.514   2.052   0.868
  421SOL    HW3 1715   3.416   1.938   0.889
  421SOL    MW4 1716   3.497   1.967   0.878
  422SOL     OW 1717   3.483   2.229   0.862
  422SOL    HW2 1718   3.459   2.255   0.951
  422SOL    HW3 1719   3.571   2.264   0.850
  422SOL    MW4 1720   3.491   2.237   0.872
  423SOL     OW 1721   3.097   2.441   0.704
  423SOL    HW2 1722   3.173   2.383   0.692
  423SOL    HW3 1723   3.032   2.386   0.747
  423SOL    MW4 1724   3.098   2.426   0.708
  424SOL     OW 1725   3.141   2.681   0.875
  424SOL    HW2 1726   3.126   2.593   0.839
  424SOL    HW3 1727   3.222   2.710   0.833
  424SOL    MW4 1728   3.150   2.673   0.864
  425SOL     OW 1729   3.359   2.815   0.744
  425SOL    HW2 1730   3.297   2.839   0.675
  425SOL    HW3 1731   3.423   2.758   0.701
  425SOL    MW4 1732   3.359   2.810   0.729
  426SOL     OW 1733   3.421   3.063   0.830
  426SOL    HW2 1734   3.411   3.073   0.925
  426SOL    HW3 1735   3.392   2.974   0.812
  426SOL    MW4 1736   3.416   3.053   0.841
  427SOL     OW 1737   3.224   3.243   0.756
  427SOL    HW2 1738   3.292   3.181   0.783
  427SOL    HW3 1739   3.142   3.196   0.767
  427SOL    MW4 1740   3.222   3.229   0.761
  428SOL     OW 1741   3.165   3.495   0.879
  428SOL    HW2 1742   3.183   3.408   0.845
  428SOL    HW3 1743   3.091   3.526   0.827
  428SOL    MW4 1744   3.158   3.488   0.867
  429SOL     OW 1745   3.413   3.591   0.743
  429SOL    HW2 1746   3.434   3.681   0.767
  429SOL    HW3 1747   3.340   3.568   0.800
  429SOL    MW4 1748   3.406   3.600   0.754
  430SOL     OW 1749   3.441   3.859   0.838
  430SOL    HW2 1750   3.521   3.910   0.851
  430SOL    HW3 1751   3.388   3.877   0.916
  430SOL    MW4 1752   3.445   3.868   0.850
  431SOL     OW 1753   3.076   4.104   0.668
  431SOL    HW2 1754   3.151   4.045   0.662
  431SOL    HW3 1755   3.010   4.053   0.715
  431SOL    MW4 1756   3.077   4.089   0.674
  432SOL     OW 1757   3.152   4.285   0.867
  432SOL    HW2 1758   3.241   4.310   0.843
  432SOL    HW3 1759   3.128   4.215   0.807
  432SOL    MW4 1760   3.160   4.279   0.856
  433SOL     OW 1761   3.399   4.372   0.760
  433SOL    HW2 1762   3.402   4.467   0.773
  433SOL    HW3 1763   3.393   4.360   0.665
  433SOL    MW4 1764   3.399   4.383   0.749
  434SOL     OW 1765   3.824   4.631   0.835
  434SOL    HW2 1766   3.906   4.656   0.791
  434SOL    HW3 1767   3.757   4.685   0.793
  434SOL    MW4 1768   3.826   4.642   0.824
  435SOL     OW 1769   3.626   0.119   0.722
  435SOL    HW2 1770   3.541   0.078   0.738
  435SOL    HW3 1771   3.634   0.123   0.627
  435SOL    MW4 1772   3.616   0.114   0.712
  436SOL     OW 1773   3.579   0.370   0.839
  436SOL    HW2 1774   3.590   0.366   0.934
  436SOL    HW3 1775   3.592   0.279   0.810
  436SOL    MW4 1776   3.582   0.357   0.848
  437SOL     OW 1777   3.829   0.497   0.749
  437SOL    HW2 1778   3.834   0.585   0.786
  437SOL    HW3 1779   3.743   0.464   0.775
  437SOL    MW4 1780   3.819   0.504   0.757
  438SOL     OW 1781   3.826   0.769   0.863
  438SOL    HW2 1782   3.826   0.776   0.959
  438SOL    HW3 1783   3.905   0.817   0.836
  438SOL    MW4 1784   3.836   0.776   0.872
  439SOL     OW 1785   3.627   0.903   0.730
  439SOL    HW2 1786   3.693   0.843   0.765
  439SOL    HW3 1787   3.544   0.864   0.756
  439SOL    MW4 1788   3.625   0.890   0.738
  440SOL     OW 1789   3.601   1.157   0.829
  440SOL    HW2 1790   3.579   1.157   0.922
  440SOL    HW3 1791   3.623   1.065   0.810
  440SOL    MW4 1792   3.601   1.144   0.839
  441SOL     OW 1793   3.834   1.295   0.738
  441SOL    HW2 1794   3.754   1.256   0.773
  441SOL    HW3 1795   3.824   1.287   0.643
  441SOL    MW4 1796   3.822   1.288   0.730
  442SOL     OW 1797   3.884   1.542   0.877
  442SOL    HW2 1798   3.965   1.588   0.855
  442SOL    HW3 1799   3.891   1.458   0.831
  442SOL    MW4 1800   3.895   1.537   0.868
  443SOL     OW 1801   3.508   1.632   0.673
  443SOL    HW2 1802   3.451   1.671   0.606
  443SOL    HW3 1803   3.571   1.701   0.693
  443SOL    MW4 1804   3.509   1.646   0.666
  444SOL     OW 1805   3.758   1.766   0.729
  444SOL    HW2 1806   3.798   1.710   0.796
  444SOL    HW3 1807   3.752   1.852   0.770
  444SOL    MW4 1808   3.763   1.770   0.744
  445SOL     OW 1809   3.816   2.062   0.794
  445SOL    HW2 1810   3.815   2.156   0.812
  445SOL    HW3 1811   3.891   2.029   0.843
  445SOL    MW4 1812   3.826   2.070   0.803
  446SOL     OW 1813   3.660   2.089   0.526
  446SOL    HW2 1814   3.584   2.035   0.545
  446SOL    HW3 1815   3.709   2.091   0.608
  446SOL    MW4 1816   3.657   2.082   0.539
  447SOL     OW 1817   3.752   2.358   0.866
  447SOL    HW2 1818   3.726   2.450   0.869
  447SOL    HW3 1819   3.792   2.342   0.952
  447SOL    MW4 1820   3.754   2.368   0.878
  448SOL     OW 1821   3.722   2.630   0.832
  448SOL    HW2 1822   3.685   2.677   0.906
  448SOL    HW3 1823   3.785   2.691   0.793
  448SOL    MW4 1824   3.725   2.644   0.836
  449SOL     OW 1825   3.920   2.837   0.777
  449SOL    HW2 1826   3.894   2.923   0.810
  449SOL    HW3 1827   3.957   2.854   0.690
  449SOL    MW4 1828   3.922   2.851   0.770
  450SOL     OW 1829   3.839   3.096   0.863
  450SOL    HW2 1830   3.919   3.140   0.835
  450SOL    HW3 1831   3.771   3.130   0.805
  450SOL    MW4 1832   3.841   3.106   0.852
  451SOL     OW 1833   3.624   3.208   0.699
  451SOL    HW2 1834   3.554   3.150   0.730
  451SOL    HW3 1835   3.595   3.237   0.613
  451SOL    MW4 1836   3.611   3.204   0.692
  452SOL     OW 1837   3.601   3.421   0.865
  452SOL    HW2 1838   3.598   3.340   0.813
  452SOL    HW3 1839   3.540   3.480   0.821
  452SOL    MW4 1840   3.593   3.418   0.852
  453SOL     OW 1841   3.831   3.551   0.825
  453SOL    HW2 1842   3.908   3.508   0.861
  453SOL    HW3 1843   3.758   3.496   0.854
  453SOL    MW4 1844   3.831   3.538   0.834
  454SOL     OW 1845   3.826   3.816   0.812
  454SOL    HW2 1846   3.788   3.826   0.725
  454SOL    HW3 1847   3.824   3.721   0.828
  454SOL    MW4 1848   3.821   3.805   0.803
  455SOL     OW 1849   3.295   3.949   0.619
  455SOL    HW2 1850   3.364   3.998   0.574
  455SOL    HW3 1851   3.339   3.909   0.694
  455SOL    MW4 1852   3.310   3.950   0.623
  456SOL     OW 1853   3.596   4.164   0.803
  456SOL    HW2 1854   3.671   4.224   0.800
  456SOL    HW3 1855   3.520   4.222   0.801
  456SOL    MW4 1856   3.596   4.180   0.802
  457SOL     OW 1857   3.821   4.333   0.810
  457SOL    HW2 1858   3.916   4.321   0.818
  457SOL    HW3 1859   3.809   4.428   0.810
  457SOL    MW4 1860   3.832   4.344   0.811
  458SOL     OW 1861   4.278   4.617   0.779
  458SOL    HW2 1862   4.280   4.615   0.875
  458SOL    HW3 1863   4.193   4.656   0.758
  458SOL    MW4 1864   4.267   4.622   0.789
  459SOL     OW 1865   4.033   0.077   0.703
  459SOL    HW2 1866   4.020   0.169   0.726
  459SOL    HW3 1867   4.016   0.072   0.609
  459SOL    MW4 1868   4.029   0.088   0.694
  460SOL     OW 1869   4.030   0.333   0.831
  460SOL    HW2 1870   4.106   0.381   0.798
  460SOL    HW3 1871   3.955   0.384   0.802
  460SOL    MW4 1872   4.030   0.346   0.823
  461SOL     OW 1873   4.256   0.474   0.728
  461SOL    HW2 1874   4.330   0.419   0.753
  461SOL    HW3 1875   4.246   0.459   0.634
  461SOL    MW4 1876   4.264   0.465   0.719
  462SOL     OW 1877   4.257   0.744   0.841
  462SOL    HW2 1878   4.179   0.784   0.802
  462SOL    HW3 1879   4.261   0.657   0.802
  462SOL    MW4 1880   4.248   0.738   0.830
  463SOL     OW 1881   4.042   0.911   0.768
  463SOL    HW2 1882   4.074   0.996   0.801
  463SOL    HW3 1883   4.037   0.922   0.673
  463SOL    MW4 1884   4.046   0.924   0.760
  464SOL     OW 1885   4.077   1.183   0.849
  464SOL    HW2 1886   4.054   1.176   0.942
  464SOL    HW3 1887   3.997   1.214   0.807
  464SOL    MW4 1888   4.063   1.186   0.856
  465SOL     OW 1889   4.329   1.295   0.785
  465SOL    HW2 1890   4.242   1.256   0.795
  465SOL    HW3 1891   4.389   1.226   0.814
  465SOL    MW4 1892   4.325   1.280   0.790
  466SOL     OW 1893   4.307   1.549   0.868
  466SOL    HW2 1894   4.300   1.535   0.963
  466SOL    HW3 1895   4.308   1.461   0.831
  466SOL    MW4 1896   4.306   1.535   0.876
  467SOL     OW 1897   4.097   1.691   0.789
  467SOL    HW2 1898   4.168   1.637   0.824
  467SOL    HW3 1899   4.134   1.733   0.712
  467SOL    MW4 1900   4.111   1.689   0.783
  468SOL     OW 1901   4.054   1.937   0.919
  468SOL    HW2 1902   4.048   1.842   0.909
  468SOL    HW3 1903   4.129   1.962   0.865
  468SOL    MW4 1904   4.063   1.928   0.910
  469SOL     OW 1905   4.276   2.011   0.768
  469SOL    HW2 1906   4.349   1.964   0.809
  469SOL    HW3 1907   4.240   1.949   0.706
  469SOL    MW4 1908   4.281   1.996   0.765
  470SOL     OW 1909   4.211   2.281   0.889
  470SOL    HW2 1910   4.143   2.311   0.829
  470SOL    HW3 1911   4.235   2.194   0.858
  470SOL    MW4 1912   4.205   2.274   0.877
  471SOL     OW 1913   4.010   2.406   0.754
  471SOL    HW2 1914   4.041   2.484   0.799
  471SOL    HW3 1915   3.924   2.389   0.792
  471SOL    MW4 1916   4.003   2.414   0.765
  472SOL     OW 1917   4.080   2.656   0.907
  472SOL    HW2 1918   4.167   2.693   0.893
  472SOL    HW3 1919   4.021   2.718   0.864
  472SOL    MW4 1920   4.084   2.669   0.900
  473SOL     OW 1921   4.309   2.783   0.841
  473SOL    HW2 1922   4.399   2.752   0.850
  473SOL    HW3 1923   4.301   2.807   0.749
  473SOL    MW4 1924   4.320   2.782   0.830
  474SOL     OW 1925   4.272   3.046   0.885
  474SOL    HW2 1926   4.298   2.954   0.881
  474SOL    HW3 1927   4.353   3.094   0.867
  474SOL    MW4 1928   4.286   3.040   0.882
  475SOL     OW 1929   4.075   3.204   0.750
  475SOL    HW2 1930   4.071   3.279   0.811
  475SOL    HW3 1931   4.142   3.147   0.787
  475SOL    MW4 1932   4.083   3.207   0.763
  476SOL     OW 1933   4.070   3.431   0.909
  476SOL    HW2 1934   4.085   3.446   1.002
  476SOL    HW3 1935   4.132   3.490   0.865
  476SOL    MW4 1936   4.080   3.440   0.915
  477SOL     OW 1937   4.326   3.585   0.846
  477SOL    HW2 1938   4.287   3.667   0.876
  477SOL    HW3 1939   4.372   3.608   0.766
  477SOL    MW4 1940   4.327   3.599   0.840
  478SOL     OW 1941   4.271   3.847   0.900
  478SOL    HW2 1942   4.273   3.869   0.993
  478SOL    HW3 1943   4.189   3.883   0.868
  478SOL    MW4 1944   4.261   3.855   0.908
  479SOL     OW 1945   4.033   4.009   0.800
  479SOL    HW2 1946   3.952   3.958   0.807
  479SOL    HW3 1947   4.064   3.993   0.712
  479SOL    MW4 1948   4.026   4.000   0.790
  480SOL     OW 1949   4.087   4.294   0.806
  480SOL    HW2 1950   4.169   4.322   0.765
  480SOL    HW3 1951   4.082   4.200   0.788
  480SOL    MW4 1952   4.097   4.285   0.798
  481SOL     OW 1953   4.343   4.355   0.692
  481SOL    HW2 1954   4.358   4.449   0.703
  481SOL    HW3 1955   4.399   4.314   0.758
  481SOL    MW4 1956   4.353   4.362   0.702
  482SOL     OW 1957   0.235   0.007   1.168
  482SOL    HW2 1958   0.309   0.047   1.213
  482SOL    HW3 1959   0.261   0.004   1.076
  482SOL    MW4 1960   0.248   0.012   1.162
  483SOL     OW 1961   4.476   0.119   1.191
  483SOL    HW2 1962   4.410   0.078   1.134
  483SOL    HW3 1963   4.559   0.076   1.167
  483SOL    MW4 1964   4.478   0.108   1.180
  484SOL     OW 1965   4.477   0.376   1.068
  484SOL    HW2 1966   4.409   0.423   1.117
  484SOL    HW3 1967   4.487   0.293   1.114
  484SOL    MW4 1968   4.469   0.371   1.081
  485SOL     OW 1969   0.204   0.520   1.190
  485SOL    HW2 1970   0.217   0.602   1.144
  485SOL    HW3 1971   0.129   0.480   1.146
  485SOL    MW4 1972   0.196   0.525   1.178
  486SOL     OW 1973   0.233   0.772   1.089
  486SOL    HW2 1974   0.315   0.812   1.117
  486SOL    HW3 1975   0.165   0.819   1.138
  486SOL    MW4 1976   0.235   0.783   1.099
  487SOL     OW 1977   0.035   0.893   1.265
  487SOL    HW2 1978   0.056   0.882   1.358
  487SOL    HW3 1979  -0.046   0.843   1.253
  487SOL    MW4 1980   0.027   0.885   1.276
  488SOL     OW 1981   0.012   1.127   1.132
  488SOL    HW2 1982  -0.063   1.177   1.165
  488SOL    HW3 1983   0.023   1.055   1.194
  488SOL    MW4 1984   0.004   1.124   1.144
  489SOL     OW 1985   0.230   1.270   1.244
  489SOL    HW2 1986   0.297   1.206   1.219
  489SOL    HW3 1987   0.148   1.233   1.210
  489SOL    MW4 1988   0.228   1.257   1.236
  490SOL     OW 1989   0.222   1.524   1.153
  490SOL    HW2 1990   0.232   1.432   1.177
  490SOL    HW3 1991   0.215   1.523   1.057
  490SOL    MW4 1992   0.223   1.512   1.143
  491SOL     OW 1993   4.476   1.644   1.238
  491SOL    HW2 1994   4.477   1.736   1.210
  491SOL    HW3 1995   4.565   1.613   1.221
  491SOL    MW4 1996   4.488   1.652   1.232
  492SOL     OW 1997   4.489   1.924   1.164
  492SOL    HW2 1998   4.407   1.968   1.182
  492SOL    HW3 1999   4.498   1.926   1.069
  492SOL    MW4 2000   4.479   1.930   1.154
  493SOL     OW 2001   0.215   2.039   1.266
  493SOL    HW2 2002   0.208   2.130   1.236
  493SOL    HW3 2003   0.131   1.999   1.241
  493SOL    MW4 2004   0.203   2.045   1.258
  494SOL     OW 2005   0.213   2.310   1.181
  494SOL    HW2 2006   0.288   2.362   1.210
  494SOL    HW3 2007   0.136   2.357   1.215
  494SOL    MW4 2008   0.213   2.323   1.189
  495SOL     OW 2009   4.489   2.446   1.295
  495SOL    HW2 2010   4.469   2.441   1.389
  495SOL    HW3 2011   4.406   2.426   1.252
  495SOL    MW4 2012   4.476   2.442   1.302
  496SOL     OW 2013   0.027   2.658   1.117
  496SOL    HW2 2014  -0.039   2.721   1.145
  496SOL    HW3 2015   0.027   2.591   1.185
  496SOL    MW4 2016   0.018   2.657   1.129
  497SOL     OW 2017   0.218   2.858   1.229
  497SOL    HW2 2018   0.218   2.856   1.325
  497SOL    HW3 2019   0.149   2.798   1.204
  497SOL    MW4 2020   0.209   2.850   1.239
  498SOL     OW 2021   0.198   3.106   1.133
  498SOL    HW2 2022   0.274   3.136   1.184
  498SOL    HW3 2023   0.188   3.014   1.158
  498SOL    MW4 2024   0.207   3.098   1.143
  499SOL     OW 2025   0.005   3.240   1.274
  499SOL    HW2 2026  -0.081   3.211   1.242
  499SOL    HW3 2027   0.068   3.190   1.222
  499SOL    MW4 2028   0.002   3.229   1.263
  500SOL     OW 2029   0.023   3.490   1.185
  500SOL    HW2 2030   0.016   3.404   1.227
  500SOL    HW3 2031   0.045   3.470   1.094
  500SOL    MW4 2032   0.025   3.476   1.178
  501SOL     OW 2033   0.230   3.647   1.245
  501SOL    HW2 2034   0.240   3.649   1.340
  501SOL    HW3 2035   0.147   3.600   1.231
  501SOL    MW4 2036   0.220   3.641   1.256
  502SOL     OW 2037   0.263   3.882   1.122
  502SOL    HW2 2038   0.188   3.924   1.165
  502SOL    HW3 2039   0.263   3.793   1.156
  502SOL    MW4 2040   0.253   3.876   1.132
  503SOL     OW 2041   0.033   4.000   1.251
  503SOL    HW2 2042   0.025   4.007   1.346
  503SOL    HW3 2043  -0.054   3.970   1.222
  503SOL    MW4 2044   0.020   3.997   1.260
  504SOL     OW 2045   0.024   4.259   1.147
  504SOL    HW2 2046   0.092   4.319   1.177
  504SOL    HW3 2047   0.040   4.178   1.196
  504SOL    MW4 2048   0.035   4.256   1.157
  505SOL     OW 2049   0.232   4.403   1.238
  505SOL    HW2 2050   0.258   4.405   1.329
  505SOL    HW3 2051   0.234   4.495   1.210
  505SOL    MW4 2052   0.235   4.416   1.246
  506SOL     OW 2053   0.678   4.639   1.096
  506SOL    HW2 2054   0.750   4.685   1.139
  506SOL    HW3 2055   0.671   4.556   1.143
  506SOL    MW4 2056   0.686   4.634   1.108
  507SOL     OW 2057   0.469   0.132   1.251
  507SOL    HW2 2058   0.454   0.211   1.199
  507SOL    HW3 2059   0.531   0.081   1.200
  507SOL    MW4 2060   0.475   0.136   1.238
  508SOL     OW 2061   0.449   0.390   1.134
  508SOL    HW2 2062   0.368   0.432   1.165
  508SOL    HW3 2063   0.439   0.385   1.039
  508SOL    MW4 2064   0.437   0.395   1.125
  509SOL     OW 2065   0.664   0.491   1.268
  509SOL    HW2 2066   0.660   0.581   1.238
  509SOL    HW3 2067   0.586   0.450   1.231
  509SOL    MW4 2068   0.653   0.497   1.259
  510SOL     OW 2069   0.718   0.738   1.149
  510SOL    HW2 2070   0.642   0.793   1.168
  510SOL    HW3 2071   0.723   0.737   1.053
  510SOL    MW4 2072   0.709   0.745   1.139
  511SOL     OW 2073   0.476   0.868   1.220
  511SOL    HW2 2074   0.479   0.889   1.313
  511SOL    HW3 2075   0.462   0.952   1.177
  511SOL    MW4 2076   0.474   0.882   1.226
  512SOL     OW 2077   0.422   1.109   1.107
  512SOL    HW2 2078   0.502   1.153   1.137
  512SOL    HW3 2079   0.420   1.125   1.013
  512SOL    MW4 2080   0.432   1.117   1.099
  513SOL     OW 2081   0.644   1.247   1.199
  513SOL    HW2 2082   0.723   1.195   1.183
  513SOL    HW3 2083   0.663   1.332   1.160
  513SOL    MW4 2084   0.657   1.251   1.192
  514SOL     OW 2085   0.689   1.539   1.100
  514SOL    HW2 2086   0.771   1.577   1.133
  514SOL    HW3 2087   0.622   1.603   1.122
  514SOL    MW4 2088   0.691   1.553   1.107
  515SOL     OW 2089   0.454   1.679   1.210
  515SOL    HW2 2090   0.449   1.685   1.305
  515SOL    HW3 2091   0.380   1.623   1.186
  515SOL    MW4 2092   0.444   1.672   1.219
  516SOL     OW 2093   0.434   1.947   1.126
  516SOL    HW2 2094   0.446   1.861   1.166
  516SOL    HW3 2095   0.373   1.992   1.184
  516SOL    MW4 2096   0.427   1.941   1.139
  517SOL     OW 2097   0.677   2.053   1.223
  517SOL    HW2 2098   0.684   2.045   1.318
  517SOL    HW3 2099   0.597   2.006   1.200
  517SOL    MW4 2100   0.668   2.046   1.232
  518SOL     OW 2101   0.671   2.325   1.140
  518SOL    HW2 2102   0.585   2.347   1.178
  518SOL    HW3 2103   0.681   2.232   1.157
  518SOL    MW4 2104   0.661   2.316   1.147
  519SOL     OW 2105   0.427   2.481   1.201
  519SOL    HW2 2106   0.426   2.492   1.296
  519SOL    HW3 2107   0.441   2.569   1.166
  519SOL    MW4 2108   0.429   2.494   1.209
  520SOL     OW 2109   0.453   2.741   1.094
  520SOL    HW2 2110   0.369   2.763   1.135
  520SOL    HW3 2111   0.435   2.741   1.000
  520SOL    MW4 2112   0.440   2.744   1.087
  521SOL     OW 2113   0.669   2.791   1.253
  521SOL    HW2 2114   0.678   2.886   1.246
  521SOL    HW3 2115   0.622   2.765   1.174
  521SOL    MW4 2116   0.664   2.800   1.242
  522SOL     OW 2117   0.648   3.052   1.174
  522SOL    HW2 2118   0.727   3.101   1.197
  522SOL    HW3 2119   0.647   3.052   1.078
  522SOL    MW4 2120   0.658   3.058   1.164
  523SOL     OW 2121   0.416   3.160   1.292
  523SOL    HW2 2122   0.441   3.251   1.280
  523SOL    HW3 2123   0.491   3.110   1.260
  523SOL    MW4 2124   0.429   3.165   1.286
  524SOL     OW 2125   0.434   3.457   1.243
  524SOL    HW2 2126   0.517   3.505   1.249
  524SOL    HW3 2127   0.367   3.525   1.248
  524SOL    MW4 2128   0.436   3.472   1.245
  525SOL     OW 2129   0.660   3.623   1.293
  525SOL    HW2 2130   0.644   3.634   1.387
  525SOL    HW3 2131   0.663   3.712   1.259
  525SOL    MW4 2132   0.658   3.636   1.301
  526SOL     OW 2133   0.666   3.873   1.136
  526SOL    HW2 2134   0.605   3.935   1.176
  526SOL    HW3 2135   0.642   3.872   1.044
  526SOL    MW4 2136   0.655   3.881   1.129
  527SOL     OW 2137   0.471   4.030   1.235
  527SOL    HW2 2138   0.456   4.119   1.203
  527SOL    HW3 2139   0.399   3.978   1.199
  527SOL    MW4 2140   0.459   4.035   1.226
  528SOL     OW 2141   0.463   4.290   1.145
  528SOL    HW2 2142   0.532   4.350   1.172
  528SOL    HW3 2143   0.382   4.331   1.176
  528SOL    MW4 2144   0.461   4.303   1.153
  529SOL     OW 2145   0.678   4.411   1.246
  529SOL    HW2 2146   0.668   4.392   1.339
  529SOL    HW3 2147   0.764   4.375   1.223
  529SOL    MW4 2148   0.688   4.403   1.255
  530SOL     OW 2149   1.123   0.043   1.161
  530SOL    HW2 2150   1.118  -0.050   1.183
  530SOL    HW3 2151   1.127   0.045   1.065
  530SOL    MW4 2152   1.123   0.031   1.151
  531SOL     OW 2153   0.872   0.111   1.229
  531SOL    HW2 2154   0.874   0.112   1.324
  531SOL    HW3 2155   0.956   0.074   1.203
  531SOL    MW4 2156   0.883   0.106   1.238
  532SOL     OW 2157   0.860   0.361   1.127
  532SOL    HW2 2158   0.860   0.273   1.163
  532SOL    HW3 2159   0.788   0.405   1.173
  532SOL    MW4 2160   0.850   0.355   1.138
  533SOL     OW 2161   1.123   0.509   1.205
  533SOL    HW2 2162   1.138   0.492   1.298
  533SOL    HW3 2163   1.042   0.462   1.185
  533SOL    MW4 2164   1.114   0.500   1.214
  534SOL     OW 2165   1.163   0.774   1.173
  534SOL    HW2 2166   1.088   0.828   1.197
  534SOL    HW3 2167   1.136   0.685   1.195
  534SOL    MW4 2168   1.150   0.770   1.179
  535SOL     OW 2169   0.938   0.897   1.260
  535SOL    HW2 2170   0.911   0.969   1.203
  535SOL    HW3 2171   0.876   0.826   1.239
  535SOL    MW4 2172   0.926   0.897   1.249
  536SOL     OW 2173   0.894   1.145   1.142
  536SOL    HW2 2174   0.965   1.187   1.191
  536SOL    HW3 2175   0.913   1.166   1.050
  536SOL    MW4 2176   0.906   1.153   1.136
  537SOL     OW 2177   1.120   1.269   1.258
  537SOL    HW2 2178   1.129   1.273   1.354
  537SOL    HW3 2179   1.199   1.223   1.229
  537SOL    MW4 2180   1.132   1.263   1.267
  538SOL     OW 2181   1.127   1.546   1.160
  538SOL    HW2 2182   1.115   1.458   1.195
  538SOL    HW3 2183   1.105   1.538   1.067
  538SOL    MW4 2184   1.122   1.533   1.152
  539SOL     OW 2185   0.883   1.676   1.243
  539SOL    HW2 2186   0.898   1.757   1.193
  539SOL    HW3 2187   0.967   1.631   1.242
  539SOL    MW4 2188   0.896   1.681   1.236
  540SOL     OW 2189   0.925   1.924   1.126
  540SOL    HW2 2190   1.004   1.964   1.164
  540SOL    HW3 2191   0.853   1.967   1.171
  540SOL    MW4 2192   0.926   1.935   1.137
  541SOL     OW 2193   1.155   2.084   1.219
  541SOL    HW2 2194   1.140   2.086   1.313
  541SOL    HW3 2195   1.157   2.177   1.193
  541SOL    MW4 2196   1.153   2.097   1.228
  542SOL     OW 2197   1.156   2.333   1.132
  542SOL    HW2 2198   1.231   2.386   1.159
  542SOL    HW3 2199   1.081   2.369   1.179
  542SOL    MW4 2200   1.156   2.345   1.142
  543SOL     OW 2201   0.921   2.413   1.255
  543SOL    HW2 2202   0.917   2.422   1.351
  543SOL    HW3 2203   0.839   2.370   1.232
  543SOL    MW4 2204   0.910   2.409   1.265
  544SOL     OW 2205   0.917   2.684   1.171
  544SOL    HW2 2206   0.897   2.592   1.189
  544SOL    HW3 2207   0.843   2.732   1.209
  544SOL    MW4 2208   0.904   2.678   1.179
  545SOL     OW 2209   1.132   2.850   1.238
  545SOL    HW2 2210   1.117   2.862   1.332
  545SOL    HW3 2211   1.072   2.780   1.213
  545SOL    MW4 2212   1.122   2.842   1.247
  546SOL     OW 2213   1.100   3.107   1.118
  546SOL    HW2 2214   1.111   3.014   1.136
  546SOL    HW3 2215   1.125   3.116   1.025
  546SOL    MW4 2216   1.105   3.096   1.108
  547SOL     OW 2217   0.870   3.198   1.238
  547SOL    HW2 2218   0.870   3.293   1.229
  547SOL    HW3 2219   0.941   3.167   1.182
  547SOL    MW4 2220   0.879   3.206   1.230
  548SOL     OW 2221   0.881   3.482   1.183
  548SOL    HW2 2222   0.805   3.534   1.207
  548SOL    HW3 2223   0.887   3.490   1.087
  548SOL    MW4 2224   0.872   3.490   1.173
  549SOL     OW 2225   1.115   3.620   1.271
  549SOL    HW2 2226   1.174   3.567   1.218
  549SOL    HW3 2227   1.027   3.589   1.248
  549SOL    MW4 2228   1.111   3.609   1.261
  550SOL     OW 2229   1.108   3.868   1.128
  550SOL    HW2 2230   1.024   3.893   1.166
  550SOL    HW3 2231   1.131   3.786   1.172
  550SOL    MW4 2232   1.100   3.861   1.139
  551SOL     OW 2233   0.892   4.025   1.241
  551SOL    HW2 2234   0.881   4.028   1.336
  551SOL    HW3 2235   0.816   3.976   1.209
  551SOL    MW4 2236   0.881   4.019   1.250
  552SOL     OW 2237   0.908   4.282   1.150
  552SOL    HW2 2238   0.904   4.191   1.182
  552SOL    HW3 2239   0.920   4.273   1.056
  552SOL    MW4 2240   0.909   4.269   1.142
  553SOL     OW 2241   1.147   4.408   1.206
  553SOL    HW2 2242   1.160   4.398   1.301
  553SOL    HW3 2243   1.067   4.358   1.189
  553SOL    MW4 2244   1.138   4.400   1.216
  554SOL     OW 2245   1.559   4.660   1.072
  554SOL    HW2 2246   1.635   4.692   1.121
  554SOL    HW3 2247   1.557   4.566   1.090
  554SOL    MW4 2248   1.569   4.652   1.081
  555SOL     OW 2249   1.365   0.145   1.241
  555SOL    HW2 2250   1.429   0.087   1.200
  555SOL    HW3 2251   1.281   0.119   1.203
  555SOL    MW4 2252   1.363   0.134   1.230
  556SOL     OW 2253   1.356   0.416   1.130
  556SOL    HW2 2254   1.345   0.327   1.162
  556SOL    HW3 2255   1.272   0.459   1.147
  556SOL    MW4 2256   1.344   0.410   1.136
  557SOL     OW 2257   1.611   0.523   1.202
  557SOL    HW2 2258   1.608   0.616   1.179
  557SOL    HW3 2259   1.534   0.485   1.158
  557SOL    MW4 2260   1.600   0.530   1.193
  558SOL     OW 2261   1.598   0.795   1.122
  558SOL    HW2 2262   1.683   0.831   1.147
  558SOL    HW3 2263   1.606   0.780   1.027
  558SOL    MW4 2264   1.611   0.798   1.113
  559SOL     OW 2265   1.374   0.908   1.268
  559SOL    HW2 2266   1.448   0.863   1.227
  559SOL    HW3 2267   1.297   0.862   1.236
  559SOL    MW4 2268   1.374   0.896   1.258
  560SOL     OW 2269   1.332   1.145   1.140
  560SOL    HW2 2270   1.369   1.075   1.193
  560SOL    HW3 2271   1.349   1.119   1.050
  560SOL    MW4 2272   1.339   1.133   1.135
  561SOL     OW 2273   1.545   1.331   1.208
  561SOL    HW2 2274   1.619   1.276   1.181
  561SOL    HW3 2275   1.469   1.292   1.164
  561SOL    MW4 2276   1.545   1.319   1.198
  562SOL     OW 2277   1.573   1.605   1.161
  562SOL    HW2 2278   1.662   1.618   1.192
  562SOL    HW3 2279   1.561   1.510   1.162
  562SOL    MW4 2280   1.583   1.594   1.165
  563SOL     OW 2281   1.327   1.691   1.289
  563SOL    HW2 2282   1.415   1.674   1.255
  563SOL    HW3 2283   1.271   1.628   1.245
  563SOL    MW4 2284   1.331   1.681   1.279
  564SOL     OW 2285   1.348   1.914   1.109
  564SOL    HW2 2286   1.344   1.837   1.165
  564SOL    HW3 2287   1.283   1.974   1.145
  564SOL    MW4 2288   1.339   1.912   1.121
  565SOL     OW 2289   1.561   2.055   1.231
  565SOL    HW2 2290   1.569   2.138   1.184
  565SOL    HW3 2291   1.494   2.006   1.183
  565SOL    MW4 2292   1.553   2.060   1.219
  566SOL     OW 2293   1.576   2.297   1.111
  566SOL    HW2 2294   1.511   2.357   1.147
  566SOL    HW3 2295   1.571   2.309   1.016
  566SOL    MW4 2296   1.567   2.307   1.103
  567SOL     OW 2297   1.390   2.464   1.234
  567SOL    HW2 2298   1.383   2.471   1.329
  567SOL    HW3 2299   1.392   2.554   1.203
  567SOL    MW4 2300   1.389   2.477   1.243
  568SOL     OW 2301   1.362   2.733   1.148
  568SOL    HW2 2302   1.429   2.794   1.178
  568SOL    HW3 2303   1.282   2.763   1.191
  568SOL    MW4 2304   1.360   2.745   1.157
  569SOL     OW 2305   1.566   2.889   1.257
  569SOL    HW2 2306   1.641   2.840   1.222
  569SOL    HW3 2307   1.556   2.963   1.197
  569SOL    MW4 2308   1.575   2.892   1.244
  570SOL     OW 2309   1.531   3.112   1.070
  570SOL    HW2 2310   1.615   3.146   1.102
  570SOL    HW3 2311   1.465   3.161   1.118
  570SOL    MW4 2312   1.533   3.123   1.080
  571SOL     OW 2313   1.334   3.223   1.227
  571SOL    HW2 2314   1.336   3.213   1.322
  571SOL    HW3 2315   1.247   3.195   1.201
  571SOL    MW4 2316   1.323   3.218   1.236
  572SOL     OW 2317   1.308   3.479   1.133
  572SOL    HW2 2318   1.313   3.390   1.170
  572SOL    HW3 2319   1.315   3.466   1.039
  572SOL    MW4 2320   1.310   3.465   1.126
  573SOL     OW 2321   1.535   3.613   1.248
  573SOL    HW2 2322   1.526   3.708   1.234
  573SOL    HW3 2323   1.459   3.575   1.203
  573SOL    MW4 2324   1.524   3.621   1.240
  574SOL     OW 2325   1.521   3.853   1.121
  574SOL    HW2 2326   1.447   3.906   1.149
  574SOL    HW3 2327   1.518   3.855   1.025
  574SOL    MW4 2328   1.511   3.860   1.112
  575SOL     OW 2329   1.314   4.018   1.216
  575SOL    HW2 2330   1.312   4.105   1.175
  575SOL    HW3 2331   1.233   3.976   1.186
  575SOL    MW4 2332   1.303   4.024   1.207
  576SOL     OW 2333   1.341   4.264   1.088
  576SOL    HW2 2334   1.266   4.316   1.118
  576SOL    HW3 2335   1.332   4.263   0.992
  576SOL    MW4 2336   1.330   4.271   1.079
  577SOL     OW 2337   1.584   4.361   1.172
  577SOL    HW2 2338   1.575   4.360   1.267
  577SOL    HW3 2339   1.499   4.330   1.139
  577SOL    MW4 2340   1.571   4.357   1.180
  578SOL     OW 2341   2.045   0.017   1.129
  578SOL    HW2 2342   2.054  -0.078   1.136
  578SOL    HW3 2343   2.036   0.034   1.035
  578SOL    MW4 2344   2.045   0.007   1.117
  579SOL     OW 2345   1.775   0.081   1.218
  579SOL    HW2 2346   1.787   0.175   1.205
  579SOL    HW3 2347   1.861   0.043   1.199
  579SOL    MW4 2348   1.788   0.089   1.214
  580SOL     OW 2349   1.803   0.351   1.129
  580SOL    HW2 2350   1.728   0.402   1.160
  580SOL    HW3 2351   1.817   0.384   1.040
  580SOL    MW4 2352   1.795   0.362   1.121
  581SOL     OW 2353   2.014   0.480   1.255
  581SOL    HW2 2354   1.999   0.494   1.349
  581SOL    HW3 2355   1.946   0.417   1.230
  581SOL    MW4 2356   2.003   0.473   1.264
  582SOL     OW 2357   2.032   0.721   1.121
  582SOL    HW2 2358   2.033   0.642   1.177
  582SOL    HW3 2359   2.020   0.687   1.032
  582SOL    MW4 2360   2.031   0.706   1.117
  583SOL     OW 2361   1.833   0.884   1.225
  583SOL    HW2 2362   1.835   0.864   1.318
  583SOL    HW3 2363   1.891   0.818   1.185
  583SOL    MW4 2364   1.841   0.873   1.232
  584SOL     OW 2365   1.774   1.158   1.159
  584SOL    HW2 2366   1.784   1.076   1.208
  584SOL    HW3 2367   1.793   1.134   1.069
  584SOL    MW4 2368   1.778   1.144   1.154
  585SOL     OW 2369   2.052   1.291   1.238
  585SOL    HW2 2370   2.133   1.257   1.200
  585SOL    HW3 2371   1.987   1.223   1.220
  585SOL    MW4 2372   2.054   1.277   1.231
  586SOL     OW 2373   2.010   1.548   1.171
  586SOL    HW2 2374   2.021   1.455   1.190
  586SOL    HW3 2375   1.966   1.550   1.086
  586SOL    MW4 2376   2.006   1.536   1.163
  587SOL     OW 2377   1.802   1.692   1.285
  587SOL    HW2 2378   1.796   1.777   1.240
  587SOL    HW3 2379   1.890   1.661   1.265
  587SOL    MW4 2380   1.812   1.699   1.276
  588SOL     OW 2381   1.789   1.933   1.124
  588SOL    HW2 2382   1.707   1.978   1.141
  588SOL    HW3 2383   1.783   1.905   1.032
  588SOL    MW4 2384   1.777   1.935   1.114
  589SOL     OW 2385   2.015   2.059   1.236
  589SOL    HW2 2386   2.000   2.063   1.331
  589SOL    HW3 2387   1.936   2.018   1.202
  589SOL    MW4 2388   2.002   2.054   1.244
  590SOL     OW 2389   2.016   2.310   1.123
  590SOL    HW2 2390   2.089   2.367   1.146
  590SOL    HW3 2391   2.023   2.237   1.184
  590SOL    MW4 2392   2.027   2.308   1.134
  591SOL     OW 2393   1.796   2.449   1.197
  591SOL    HW2 2394   1.877   2.399   1.186
  591SOL    HW3 2395   1.733   2.403   1.142
  591SOL    MW4 2396   1.798   2.436   1.188
  592SOL     OW 2397   1.787   2.728   1.152
  592SOL    HW2 2398   1.792   2.633   1.163
  592SOL    HW3 2399   1.778   2.741   1.058
  592SOL    MW4 2400   1.786   2.717   1.141
  593SOL     OW 2401   2.027   2.861   1.212
  593SOL    HW2 2402   2.014   2.948   1.175
  593SOL    HW3 2403   1.951   2.811   1.182
  593SOL    MW4 2404   2.015   2.866   1.203
  594SOL     OW 2405   2.000   3.119   1.106
  594SOL    HW2 2406   1.915   3.151   1.136
  594SOL    HW3 2407   1.988   3.103   1.013
  594SOL    MW4 2408   1.987   3.121   1.098
  595SOL     OW 2409   1.761   3.222   1.168
  595SOL    HW2 2410   1.734   3.231   1.259
  595SOL    HW3 2411   1.761   3.312   1.134
  595SOL    MW4 2412   1.757   3.235   1.175
  596SOL     OW 2413   1.768   3.491   1.095
  596SOL    HW2 2414   1.851   3.537   1.107
  596SOL    HW3 2415   1.709   3.529   1.160
  596SOL    MW4 2416   1.772   3.502   1.105
  597SOL     OW 2417   2.016   3.594   1.168
  597SOL    HW2 2418   2.026   3.611   1.262
  597SOL    HW3 2419   2.097   3.548   1.144
  597SOL    MW4 2420   2.028   3.590   1.177
  598SOL     OW 2421   1.994   3.861   1.059
  598SOL    HW2 2422   1.923   3.903   1.107
  598SOL    HW3 2423   2.009   3.778   1.105
  598SOL    MW4 2424   1.987   3.855   1.071
  599SOL     OW 2425   1.771   3.965   1.169
  599SOL    HW2 2426   1.768   3.973   1.264
  599SOL    HW3 2427   1.688   3.925   1.145
  599SOL    MW4 2428   1.760   3.961   1.178
  600SOL     OW 2429   1.830   4.238   1.119
  600SOL    HW2 2430   1.821   4.144   1.136
  600SOL    HW3 2431   1.748   4.276   1.150
  600SOL    MW4 2432   1.818   4.231   1.125
  601SOL     OW 2433   2.040   4.391   1.196
  601SOL    HW2 2434   2.046   4.381   1.291
  601SOL    HW3 2435   1.968   4.335   1.170
  601SOL    MW4 2436   2.031   4.382   1.205
  602SOL     OW 2437   2.478   0.018   1.064
  602SOL    HW2 2438   2.551   0.056   1.112
  602SOL    HW3 2439   2.399   0.056   1.104
  602SOL    MW4 2440   2.477   0.028   1.075
  603SOL     OW 2441   2.277   0.143   1.216
  603SOL    HW2 2442   2.271   0.234   1.186
  603SOL    HW3 2443   2.191   0.105   1.195
  603SOL    MW4 2444   2.265   0.150   1.209
  604SOL     OW 2445   2.263   0.397   1.143
  604SOL    HW2 2446   2.190   0.446   1.182
  604SOL    HW3 2447   2.253   0.412   1.049
  604SOL    MW4 2448   2.252   0.406   1.136
  605SOL     OW 2449   2.485   0.557   1.204
  605SOL    HW2 2450   2.471   0.583   1.295
  605SOL    HW3 2451   2.408   0.505   1.181
  605SOL    MW4 2452   2.473   0.553   1.213
  606SOL     OW 2453   2.468   0.823   1.127
  606SOL    HW2 2454   2.462   0.735   1.164
  606SOL    HW3 2455   2.462   0.810   1.033
  606SOL    MW4 2456   2.466   0.810   1.120
  607SOL     OW 2457   2.217   0.910   1.260
  607SOL    HW2 2458   2.298   0.869   1.230
  607SOL    HW3 2459   2.148   0.851   1.232
  607SOL    MW4 2460   2.219   0.897   1.252
  608SOL     OW 2461   2.289   1.179   1.154
  608SOL    HW2 2462   2.378   1.210   1.172
  608SOL    HW3 2463   2.275   1.108   1.217
  608SOL    MW4 2464   2.299   1.173   1.165
  609SOL     OW 2465   2.543   1.298   1.257
  609SOL    HW2 2466   2.612   1.260   1.204
  609SOL    HW3 2467   2.534   1.388   1.224
  609SOL    MW4 2468   2.551   1.305   1.246
  610SOL     OW 2469   2.485   1.546   1.173
  610SOL    HW2 2470   2.406   1.585   1.211
  610SOL    HW3 2471   2.474   1.556   1.079
  610SOL    MW4 2472   2.473   1.553   1.166
  611SOL     OW 2473   2.253   1.652   1.259
  611SOL    HW2 2474   2.238   1.741   1.226
  611SOL    HW3 2475   2.183   1.600   1.219
  611SOL    MW4 2476   2.242   1.657   1.249
  612SOL     OW 2477   2.244   1.910   1.153
  612SOL    HW2 2478   2.175   1.957   1.201
  612SOL    HW3 2479   2.228   1.932   1.061
  612SOL    MW4 2480   2.233   1.919   1.147
  613SOL     OW 2481   2.443   2.068   1.241
  613SOL    HW2 2482   2.520   2.020   1.210
  613SOL    HW3 2483   2.369   2.019   1.206
  613SOL    MW4 2484   2.444   2.055   1.232
  614SOL     OW 2485   2.469   2.337   1.156
  614SOL    HW2 2486   2.472   2.248   1.193
  614SOL    HW3 2487   2.464   2.323   1.061
  614SOL    MW4 2488   2.469   2.323   1.148
  615SOL     OW 2489   2.229   2.471   1.201
  615SOL    HW2 2490   2.219   2.495   1.293
  615SOL    HW3 2491   2.319   2.442   1.192
  615SOL    MW4 2492   2.239   2.471   1.212
  616SOL     OW 2493   2.252   2.731   1.114
  616SOL    HW2 2494   2.236   2.638   1.129
  616SOL    HW3 2495   2.173   2.775   1.146
  616SOL    MW4 2496   2.239   2.725   1.120
  617SOL     OW 2497   2.483   2.828   1.205
  617SOL    HW2 2498   2.472   2.838   1.300
  617SOL    HW3 2499   2.402   2.786   1.175
  617SOL    MW4 2500   2.471   2.824   1.214
  618SOL     OW 2501   2.475   3.087   1.101
  618SOL    HW2 2502   2.391   3.114   1.137
  618SOL    HW3 2503   2.490   2.999   1.136
  618SOL    MW4 2504   2.466   3.079   1.110
  619SOL     OW 2505   2.254   3.242   1.197
  619SOL    HW2 2506   2.247   3.327   1.153
  619SOL    HW3 2507   2.178   3.193   1.165
  619SOL    MW4 2508   2.243   3.247   1.187
  620SOL     OW 2509   2.259   3.507   1.088
  620SOL    HW2 2510   2.345   3.536   1.120
  620SOL    HW3 2511   2.267   3.506   0.993
  620SOL    MW4 2512   2.271   3.511   1.080
  621SOL     OW 2513   2.466   3.626   1.206
  621SOL    HW2 2514   2.479   3.614   1.300
  621SOL    HW3 2515   2.454   3.720   1.195
  621SOL    MW4 2516   2.466   3.636   1.217
  622SOL     OW 2517   2.468   3.915   1.112
  622SOL    HW2 2518   2.381   3.949   1.131
  622SOL    HW3 2519   2.465   3.887   1.021
  622SOL    MW4 2520   2.456   3.916   1.103
  623SOL     OW 2521   2.217   3.996   1.185
  623SOL    HW2 2522   2.202   4.082   1.146
  623SOL    HW3 2523   2.150   3.940   1.146
  623SOL    MW4 2524   2.206   4.000   1.174
  624SOL     OW 2525   2.292   4.280   1.107
  624SOL    HW2 2526   2.219   4.307   1.163
  624SOL    HW3 2527   2.262   4.299   1.018
  624SOL    MW4 2528   2.278   4.286   1.103
  625SOL     OW 2529   2.518   4.432   1.181
  625SOL    HW2 2530   2.455   4.365   1.155
  625SOL    HW3 2531   2.484   4.513   1.143
  625SOL    MW4 2532   2.505   4.434   1.172
  626SOL     OW 2533   2.916   4.635   1.094
  626SOL    HW2 2534   2.962   4.566   1.141
  626SOL    HW3 2535   2.927   4.612   1.002
  626SOL    MW4 2536   2.923   4.623   1.088
  627SOL     OW 2537   2.694   0.134   1.192
  627SOL    HW2 2538   2.701   0.130   1.287
  627SOL    HW3 2539   2.760   0.073   1.160
  627SOL    MW4 2540   2.703   0.125   1.200
  628SOL     OW 2541   2.719   0.394   1.133
  628SOL    HW2 2542   2.709   0.304   1.163
  628SOL    HW3 2543   2.643   0.440   1.169
  628SOL    MW4 2544   2.707   0.388   1.142
  629SOL     OW 2545   2.951   0.502   1.193
  629SOL    HW2 2546   2.945   0.596   1.204
  629SOL    HW3 2547   2.864   0.476   1.163
  629SOL    MW4 2548   2.938   0.511   1.190
  630SOL     OW 2549   2.901   0.776   1.213
  630SOL    HW2 2550   2.982   0.827   1.215
  630SOL    HW3 2551   2.832   0.839   1.235
  630SOL    MW4 2552   2.902   0.792   1.216
  631SOL     OW 2553   2.676   0.953   1.250
  631SOL    HW2 2554   2.688   1.033   1.198
  631SOL    HW3 2555   2.595   0.915   1.217
  631SOL    MW4 2556   2.667   0.959   1.239
  632SOL     OW 2557   2.732   1.184   1.103
  632SOL    HW2 2558   2.820   1.215   1.124
  632SOL    HW3 2559   2.726   1.191   1.008
  632SOL    MW4 2560   2.743   1.189   1.093
  633SOL     OW 2561   2.956   1.305   1.222
  633SOL    HW2 2562   2.930   1.295   1.314
  633SOL    HW3 2563   2.958   1.399   1.208
  633SOL    MW4 2564   2.953   1.316   1.233
  634SOL     OW 2565   2.927   1.586   1.187
  634SOL    HW2 2566   3.013   1.621   1.212
  634SOL    HW3 2567   2.925   1.594   1.091
  634SOL    MW4 2568   2.938   1.592   1.177
  635SOL     OW 2569   2.688   1.701   1.267
  635SOL    HW2 2570   2.762   1.653   1.228
  635SOL    HW3 2571   2.611   1.662   1.228
  635SOL    MW4 2572   2.688   1.689   1.257
  636SOL     OW 2573   2.687   1.960   1.145
  636SOL    HW2 2574   2.769   2.003   1.169
  636SOL    HW3 2575   2.689   1.877   1.193
  636SOL    MW4 2576   2.698   1.955   1.154
  637SOL     OW 2577   2.938   2.055   1.208
  637SOL    HW2 2578   2.932   2.061   1.303
  637SOL    HW3 2579   2.948   2.146   1.179
  637SOL    MW4 2580   2.939   2.068   1.216
  638SOL     OW 2581   2.954   2.313   1.097
  638SOL    HW2 2582   3.026   2.361   1.138
  638SOL    HW3 2583   2.876   2.344   1.143
  638SOL    MW4 2584   2.953   2.323   1.109
  639SOL     OW 2585   2.721   2.402   1.231
  639SOL    HW2 2586   2.713   2.430   1.322
  639SOL    HW3 2587   2.633   2.375   1.206
  639SOL    MW4 2588   2.708   2.402   1.239
  640SOL     OW 2589   2.719   2.690   1.136
  640SOL    HW2 2590   2.720   2.625   1.207
  640SOL    HW3 2591   2.637   2.738   1.149
  640SOL    MW4 2592   2.708   2.688   1.147
  641SOL     OW 2593   2.948   2.873   1.211
  641SOL    HW2 2594   2.933   2.878   1.306
  641SOL    HW3 2595   2.881   2.813   1.180
  641SOL    MW4 2596   2.937   2.866   1.220
  642SOL     OW 2597   2.931   3.111   1.048
  642SOL    HW2 2598   2.932   3.020   1.078
  642SOL    HW3 2599   2.933   3.105   0.953
  642SOL    MW4 2600   2.931   3.098   1.039
  643SOL     OW 2601   2.692   3.214   1.192
  643SOL    HW2 2602   2.767   3.177   1.145
  643SOL    HW3 2603   2.617   3.162   1.163
  643SOL    MW4 2604   2.692   3.202   1.182
  644SOL     OW 2605   2.669   3.475   1.090
  644SOL    HW2 2606   2.661   3.389   1.130
  644SOL    HW3 2607   2.600   3.527   1.131
  644SOL    MW4 2608   2.659   3.471   1.101
  645SOL     OW 2609   2.873   3.637   1.243
  645SOL    HW2 2610   2.965   3.620   1.222
  645SOL    HW3 2611   2.825   3.572   1.192
  645SOL    MW4 2612   2.879   3.626   1.234
  646SOL     OW 2613   2.902   3.857   1.074
  646SOL    HW2 2614   2.974   3.904   1.115
  646SOL    HW3 2615   2.870   3.796   1.141
  646SOL    MW4 2616   2.907   3.856   1.088
  647SOL     OW 2617   2.713   4.050   1.129
  647SOL    HW2 2618   2.777   3.981   1.115
  647SOL    HW3 2619   2.629   4.004   1.131
  647SOL    MW4 2620   2.710   4.035   1.128
  648SOL     OW 2621   2.719   4.319   1.024
  648SOL    HW2 2622   2.703   4.231   1.058
  648SOL    HW3 2623   2.660   4.375   1.075
  648SOL    MW4 2624   2.709   4.315   1.036
  649SOL     OW 2625   2.965   4.399   1.200
  649SOL    HW2 2626   3.035   4.340   1.170
  649SOL    HW3 2627   2.893   4.381   1.140
  649SOL    MW4 2628   2.965   4.389   1.188
  650SOL     OW 2629   3.408   4.652   1.090
  650SOL    HW2 2630   3.470   4.702   1.143
  650SOL    HW3 2631   3.322   4.679   1.122
  650SOL    MW4 2632   3.405   4.662   1.101
  651SOL     OW 2633   3.156   0.099   1.184
  651SOL    HW2 2634   3.144   0.108   1.278
  651SOL    HW3 2635   3.070   0.074   1.151
  651SOL    MW4 2636   3.143   0.097   1.192
  652SOL     OW 2637   3.155   0.352   1.069
  652SOL    HW2 2638   3.153   0.265   1.109
  652SOL    HW3 2639   3.088   0.402   1.116
  652SOL    MW4 2640   3.146   0.347   1.080
  653SOL     OW 2641   3.387   0.479   1.217
  653SOL    HW2 2642   3.389   0.566   1.176
  653SOL    HW3 2643   3.324   0.430   1.166
  653SOL    MW4 2644   3.379   0.484   1.205
  654SOL     OW 2645   3.402   0.747   1.116
  654SOL    HW2 2646   3.317   0.780   1.147
  654SOL    HW3 2647   3.402   0.765   1.022
  654SOL    MW4 2648   3.390   0.754   1.107
  655SOL     OW 2649   3.177   0.882   1.225
  655SOL    HW2 2650   3.151   0.891   1.316
  655SOL    HW3 2651   3.172   0.970   1.189
  655SOL    MW4 2652   3.173   0.895   1.232
  656SOL     OW 2653   3.170   1.153   1.140
  656SOL    HW2 2654   3.251   1.199   1.163
  656SOL    HW3 2655   3.100   1.212   1.170
  656SOL    MW4 2656   3.171   1.167   1.147
  657SOL     OW 2657   3.407   1.278   1.223
  657SOL    HW2 2658   3.401   1.270   1.318
  657SOL    HW3 2659   3.404   1.372   1.206
  657SOL    MW4 2660   3.406   1.289   1.233
  658SOL     OW 2661   3.378   1.543   1.127
  658SOL    HW2 2662   3.453   1.589   1.165
  658SOL    HW3 2663   3.302   1.581   1.171
  658SOL    MW4 2664   3.378   1.554   1.138
  659SOL     OW 2665   3.166   1.652   1.292
  659SOL    HW2 2666   3.136   1.650   1.383
  659SOL    HW3 2667   3.180   1.745   1.273
  659SOL    MW4 2668   3.164   1.664   1.301
  660SOL     OW 2669   3.169   1.898   1.169
  660SOL    HW2 2670   3.239   1.959   1.195
  660SOL    HW3 2671   3.090   1.951   1.174
  660SOL    MW4 2672   3.168   1.913   1.174
  661SOL     OW 2673   3.361   2.080   1.246
  661SOL    HW2 2674   3.435   2.020   1.232
  661SOL    HW3 2675   3.388   2.161   1.204
  661SOL    MW4 2676   3.374   2.083   1.238
  662SOL     OW 2677   3.424   2.312   1.121
  662SOL    HW2 2678   3.491   2.374   1.149
  662SOL    HW3 2679   3.343   2.344   1.161
  662SOL    MW4 2680   3.422   2.324   1.130
  663SOL     OW 2681   3.183   2.420   1.250
  663SOL    HW2 2682   3.179   2.421   1.346
  663SOL    HW3 2683   3.195   2.512   1.226
  663SOL    MW4 2684   3.184   2.433   1.260
  664SOL     OW 2685   3.175   2.688   1.155
  664SOL    HW2 2686   3.105   2.748   1.180
  664SOL    HW3 2687   3.165   2.678   1.060
  664SOL    MW4 2688   3.164   2.695   1.146
  665SOL     OW 2689   3.396   2.845   1.233
  665SOL    HW2 2690   3.390   2.922   1.176
  665SOL    HW3 2691   3.318   2.794   1.213
  665SOL    MW4 2692   3.385   2.849   1.223
  666SOL     OW 2693   3.355   3.082   1.103
  666SOL    HW2 2694   3.428   3.133   1.136
  666SOL    HW3 2695   3.278   3.136   1.121
  666SOL    MW4 2696   3.355   3.096   1.109
  667SOL     OW 2697   3.128   3.252   1.220
  667SOL    HW2 2698   3.128   3.345   1.197
  667SOL    HW3 2699   3.065   3.212   1.159
  667SOL    MW4 2700   3.120   3.259   1.209
  668SOL     OW 2701   3.114   3.522   1.151
  668SOL    HW2 2702   3.201   3.562   1.161
  668SOL    HW3 2703   3.109   3.498   1.059
  668SOL    MW4 2704   3.125   3.524   1.140
  669SOL     OW 2705   3.358   3.630   1.216
  669SOL    HW2 2706   3.363   3.616   1.311
  669SOL    HW3 2707   3.429   3.577   1.180
  669SOL    MW4 2708   3.368   3.621   1.224
  670SOL     OW 2709   3.335   3.891   1.093
  670SOL    HW2 2710   3.254   3.934   1.118
  670SOL    HW3 2711   3.337   3.811   1.145
  670SOL    MW4 2712   3.325   3.886   1.103
  671SOL     OW 2713   3.095   4.003   1.214
  671SOL    HW2 2714   3.087   4.003   1.309
  671SOL    HW3 2715   3.121   4.092   1.191
  671SOL    MW4 2716   3.098   4.014   1.223
  672SOL     OW 2717   3.178   4.254   1.141
  672SOL    HW2 2718   3.266   4.285   1.160
  672SOL    HW3 2719   3.171   4.255   1.046
  672SOL    MW4 2720   3.188   4.259   1.131
  673SOL     OW 2721   3.410   4.397   1.200
  673SOL    HW2 2722   3.489   4.345   1.184
  673SOL    HW3 2723   3.420   4.474   1.145
  673SOL    MW4 2724   3.422   4.400   1.191
  674SOL     OW 2725   3.853   4.637   1.115
  674SOL    HW2 2726   3.857   4.547   1.148
  674SOL    HW3 2727   3.832   4.628   1.023
  674SOL    MW4 2728   3.851   4.624   1.107
  675SOL     OW 2729   3.625   0.113   1.257
  675SOL    HW2 2730   3.618   0.199   1.216
  675SOL    HW3 2731   3.703   0.074   1.218
  675SOL    MW4 2732   3.634   0.119   1.247
  676SOL     OW 2733   3.614   0.345   1.116
  676SOL    HW2 2734   3.699   0.383   1.139
  676SOL    HW3 2735   3.550   0.411   1.144
  676SOL    MW4 2736   3.617   0.359   1.123
  677SOL     OW 2737   3.822   0.501   1.231
  677SOL    HW2 2738   3.899   0.452   1.202
  677SOL    HW3 2739   3.836   0.589   1.198
  677SOL    MW4 2740   3.834   0.506   1.223
  678SOL     OW 2741   3.854   0.762   1.151
  678SOL    HW2 2742   3.926   0.816   1.186
  678SOL    HW3 2743   3.777   0.792   1.199
  678SOL    MW4 2744   3.854   0.773   1.162
  679SOL     OW 2745   3.603   0.886   1.222
  679SOL    HW2 2746   3.587   0.967   1.173
  679SOL    HW3 2747   3.537   0.825   1.190
  679SOL    MW4 2748   3.592   0.889   1.211
  680SOL     OW 2749   3.577   1.126   1.091
  680SOL    HW2 2750   3.659   1.159   1.129
  680SOL    HW3 2751   3.509   1.176   1.135
  680SOL    MW4 2752   3.579   1.137   1.102
  681SOL     OW 2753   3.785   1.247   1.225
  681SOL    HW2 2754   3.795   1.241   1.319
  681SOL    HW3 2755   3.799   1.340   1.205
  681SOL    MW4 2756   3.788   1.258   1.234
  682SOL     OW 2757   3.823   1.505   1.163
  682SOL    HW2 2758   3.898   1.551   1.198
  682SOL    HW3 2759   3.836   1.507   1.068
  682SOL    MW4 2760   3.834   1.512   1.155
  683SOL     OW 2761   3.600   1.631   1.272
  683SOL    HW2 2762   3.591   1.722   1.244
  683SOL    HW3 2763   3.685   1.604   1.240
  683SOL    MW4 2764   3.610   1.639   1.264
  684SOL     OW 2765   3.586   1.891   1.169
  684SOL    HW2 2766   3.659   1.948   1.193
  684SOL    HW3 2767   3.585   1.891   1.073
  684SOL    MW4 2768   3.595   1.898   1.160
  685SOL     OW 2769   3.797   2.031   1.245
  685SOL    HW2 2770   3.807   2.045   1.339
  685SOL    HW3 2771   3.878   1.988   1.218
  685SOL    MW4 2772   3.809   2.027   1.254
  686SOL     OW 2773   3.834   2.290   1.139
  686SOL    HW2 2774   3.904   2.328   1.192
  686SOL    HW3 2775   3.826   2.200   1.170
  686SOL    MW4 2776   3.842   2.283   1.150
  687SOL     OW 2777   3.633   2.465   1.225
  687SOL    HW2 2778   3.619   2.460   1.320
  687SOL    HW3 2779   3.706   2.406   1.209
  687SOL    MW4 2780   3.641   2.456   1.236
  688SOL     OW 2781   3.623   2.721   1.101
  688SOL    HW2 2782   3.655   2.647   1.153
  688SOL    HW3 2783   3.541   2.746   1.143
  688SOL    MW4 2784   3.617   2.715   1.114
  689SOL     OW 2785   3.861   2.849   1.214
  689SOL    HW2 2786   3.856   2.842   1.309
  689SOL    HW3 2787   3.784   2.802   1.182
  689SOL    MW4 2788   3.850   2.842   1.222
  690SOL     OW 2789   3.848   3.132   1.172
  690SOL    HW2 2790   3.840   3.042   1.205
  690SOL    HW3 2791   3.840   3.123   1.077
  690SOL    MW4 2792   3.846   3.119   1.163
  691SOL     OW 2793   3.574   3.223   1.213
  691SOL    HW2 2794   3.554   3.312   1.182
  691SOL    HW3 2795   3.660   3.204   1.177
  691SOL    MW4 2796   3.582   3.233   1.204
  692SOL     OW 2797   3.582   3.497   1.144
  692SOL    HW2 2798   3.657   3.541   1.185
  692SOL    HW3 2799   3.610   3.480   1.055
  692SOL    MW4 2800   3.595   3.501   1.138
  693SOL     OW 2801   3.813   3.618   1.235
  693SOL    HW2 2802   3.825   3.636   1.328
  693SOL    HW3 2803   3.792   3.703   1.197
  693SOL    MW4 2804   3.812   3.632   1.242
  694SOL     OW 2805   3.783   3.839   1.085
  694SOL    HW2 2806   3.701   3.879   1.112
  694SOL    HW3 2807   3.783   3.847   0.989
  694SOL    MW4 2808   3.772   3.845   1.076
  695SOL     OW 2809   3.572   3.965   1.196
  695SOL    HW2 2810   3.589   3.973   1.289
  695SOL    HW3 2811   3.478   3.950   1.190
  695SOL    MW4 2812   3.562   3.964   1.207
  696SOL     OW 2813   3.606   4.226   1.084
  696SOL    HW2 2814   3.590   4.136   1.112
  696SOL    HW3 2815   3.625   4.218   0.990
  696SOL    MW4 2816   3.607   4.213   1.075
  697SOL     OW 2817   3.827   4.361   1.188
  697SOL    HW2 2818   3.816   4.340   1.281
  697SOL    HW3 2819   3.750   4.324   1.146
  697SOL    MW4 2820   3.815   4.353   1.195
  698SOL     OW 2821   4.290   4.635   1.071
  698SOL    HW2 2822   4.290   4.551   1.117
  698SOL    HW3 2823   4.222   4.686   1.115
  698SOL    MW4 2824   4.281   4.630   1.083
  699SOL     OW 2825   4.104   0.109   1.194
  699SOL    HW2 2826   4.109   0.099   1.289
  699SOL    HW3 2827   4.036   0.047   1.166
  699SOL    MW4 2828   4.096   0.100   1.203
  700SOL     OW 2829   4.029   0.359   1.117
  700SOL    HW2 2830   4.053   0.274   1.152
  700SOL    HW3 2831   4.025   0.346   1.022
  700SOL    MW4 2832   4.031   0.346   1.109
  701SOL     OW 2833   4.255   0.499   1.196
  701SOL    HW2 2834   4.236   0.489   1.289
  701SOL    HW3 2835   4.184   0.452   1.152
  701SOL    MW4 2836   4.243   0.492   1.203
  702SOL     OW 2837   4.295   0.767   1.146
  702SOL    HW2 2838   4.293   0.674   1.168
  702SOL    HW3 2839   4.277   0.769   1.052
  702SOL    MW4 2840   4.292   0.755   1.136
  703SOL     OW 2841   4.067   0.914   1.219
  703SOL    HW2 2842   4.062   0.902   1.314
  703SOL    HW3 2843   4.145   0.865   1.193
  703SOL    MW4 2844   4.076   0.906   1.228
  704SOL     OW 2845   4.033   1.169   1.124
  704SOL    HW2 2846   4.045   1.080   1.157
  704SOL    HW3 2847   3.949   1.196   1.162
  704SOL    MW4 2848   4.023   1.161   1.133
  705SOL     OW 2849   4.289   1.254   1.231
  705SOL    HW2 2850   4.272   1.262   1.325
  705SOL    HW3 2851   4.210   1.212   1.196
  705SOL    MW4 2852   4.276   1.250   1.239
  706SOL     OW 2853   4.267   1.507   1.130
  706SOL    HW2 2854   4.275   1.419   1.168
  706SOL    HW3 2855   4.326   1.560   1.182
  706SOL    MW4 2856   4.276   1.502   1.142
  707SOL     OW 2857   4.058   1.645   1.227
  707SOL    HW2 2858   4.076   1.636   1.321
  707SOL    HW3 2859   4.122   1.588   1.185
  707SOL    MW4 2860   4.069   1.636   1.234
  708SOL     OW 2861   4.043   1.910   1.195
  708SOL    HW2 2862   4.050   1.814   1.194
  708SOL    HW3 2863   4.060   1.935   1.104
  708SOL    MW4 2864   4.046   1.901   1.183
  709SOL     OW 2865   4.282   2.052   1.273
  709SOL    HW2 2866   4.284   2.146   1.261
  709SOL    HW3 2867   4.197   2.024   1.239
  709SOL    MW4 2868   4.271   2.060   1.267
  710SOL     OW 2869   4.251   2.321   1.168
  710SOL    HW2 2870   4.172   2.372   1.183
  710SOL    HW3 2871   4.251   2.303   1.074
  710SOL    MW4 2872   4.241   2.325   1.157
  711SOL     OW 2873   4.023   2.461   1.248
  711SOL    HW2 2874   4.015   2.456   1.343
  711SOL    HW3 2875   4.057   2.549   1.231
  711SOL    MW4 2876   4.026   2.472   1.258
  712SOL     OW 2877   4.109   2.710   1.178
  712SOL    HW2 2878   4.027   2.752   1.205
  712SOL    HW3 2879   4.096   2.688   1.086
  712SOL    MW4 2880   4.097   2.712   1.169
  713SOL     OW 2881   4.346   2.855   1.240
  713SOL    HW2 2882   4.343   2.940   1.196
  713SOL    HW3 2883   4.264   2.812   1.215
  713SOL    MW4 2884   4.334   2.861   1.231
  714SOL     OW 2885   4.268   3.114   1.154
  714SOL    HW2 2886   4.192   3.147   1.202
  714SOL    HW3 2887   4.242   3.118   1.062
  714SOL    MW4 2888   4.254   3.119   1.148
  715SOL     OW 2889   4.058   3.233   1.305
  715SOL    HW2 2890   4.029   3.241   1.396
  715SOL    HW3 2891   3.983   3.195   1.259
  715SOL    MW4 2892   4.044   3.229   1.311
  716SOL     OW 2893   4.071   3.492   1.188
  716SOL    HW2 2894   4.053   3.415   1.241
  716SOL    HW3 2895   3.994   3.548   1.200
  716SOL    MW4 2896   4.058   3.489   1.197
  717SOL     OW 2897   4.303   3.632   1.255
  717SOL    HW2 2898   4.223   3.587   1.227
  717SOL    HW3 2899   4.374   3.579   1.221
  717SOL    MW4 2900   4.302   3.619   1.246
  718SOL     OW 2901   4.262   3.893   1.176
  718SOL    HW2 2902   4.173   3.924   1.191
  718SOL    HW3 2903   4.262   3.803   1.208
  718SOL    MW4 2904   4.250   3.885   1.182
  719SOL     OW 2905   3.997   3.989   1.199
  719SOL    HW2 2906   4.005   4.074   1.156
  719SOL    HW3 2907   3.932   3.941   1.147
  719SOL    MW4 2908   3.989   3.994   1.186
  720SOL     OW 2909   4.056   4.234   1.076
  720SOL    HW2 2910   3.973   4.269   1.108
  720SOL    HW3 2911   4.061   4.263   0.984
  720SOL    MW4 2912   4.046   4.243   1.068
  721SOL     OW 2913   4.269   4.371   1.210
  721SOL    HW2 2914   4.204   4.324   1.157
  721SOL    HW3 2915   4.348   4.317   1.204
  721SOL    MW4 2916   4.271   4.357   1.202
  722SOL     OW 2917   0.213   0.028   1.650
  722SOL    HW2 2918   0.299   0.057   1.621
  722SOL    HW3 2919   0.152   0.084   1.601
  722SOL    MW4 2920   0.216   0.040   1.639
  723SOL     OW 2921   0.013   0.129   1.457
  723SOL    HW2 2922  -0.061   0.076   1.489
  723SOL    HW3 2923   0.004   0.127   1.362
  723SOL    MW4 2924   0.002   0.122   1.449
  724SOL     OW 2925   0.007   0.406   1.567
  724SOL    HW2 2926   0.001   0.387   1.661
  724SOL    HW3 2927   0.004   0.320   1.525
  724SOL    MW4 2928   0.006   0.392   1.574
  725SOL     OW 2929   0.259   0.479   1.476
  725SOL    HW2 2930   0.173   0.476   1.516
  725SOL    HW3 2931   0.244   0.510   1.386
  725SOL    MW4 2932   0.246   0.483   1.469
  726SOL     OW 2933   0.312   0.726   1.625
  726SOL    HW2 2934   0.357   0.798   1.582
  726SOL    HW3 2935   0.341   0.648   1.577
  726SOL    MW4 2936   0.322   0.725   1.613
  727SOL     OW 2937   0.070   0.869   1.540
  727SOL    HW2 2938   0.080   0.962   1.558
  727SOL    HW3 2939   0.146   0.828   1.581
  727SOL    MW4 2940   0.081   0.876   1.548
  728SOL     OW 2941   0.018   1.149   1.623
  728SOL    HW2 2942   0.009   1.147   1.719
  728SOL    HW3 2943   0.094   1.205   1.608
  728SOL    MW4 2944   0.027   1.156   1.634
  729SOL     OW 2945   0.244   1.292   1.537
  729SOL    HW2 2946   0.239   1.382   1.567
  729SOL    HW3 2947   0.239   1.297   1.442
  729SOL    MW4 2948   0.243   1.304   1.529
  730SOL     OW 2949   0.249   1.561   1.612
  730SOL    HW2 2950   0.248   1.557   1.707
  730SOL    HW3 2951   0.169   1.608   1.589
  730SOL    MW4 2952   0.238   1.567   1.621
  731SOL     OW 2953   0.005   1.667   1.530
  731SOL    HW2 2954   0.001   1.759   1.555
  731SOL    HW3 2955  -0.013   1.667   1.435
  731SOL    MW4 2956   0.002   1.679   1.521
  732SOL     OW 2957   4.483   1.943   1.613
  732SOL    HW2 2958   4.504   1.944   1.706
  732SOL    HW3 2959   4.393   1.977   1.607
  732SOL    MW4 2960   4.474   1.947   1.624
  733SOL     OW 2961   0.210   2.100   1.528
  733SOL    HW2 2962   0.120   2.075   1.548
  733SOL    HW3 2963   0.222   2.080   1.436
  733SOL    MW4 2964   0.200   2.094   1.519
  734SOL     OW 2965   0.225   2.365   1.638
  734SOL    HW2 2966   0.221   2.345   1.731
  734SOL    HW3 2967   0.224   2.279   1.595
  734SOL    MW4 2968   0.224   2.351   1.644
  735SOL     OW 2969   4.460   2.454   1.558
  735SOL    HW2 2970   4.402   2.382   1.583
  735SOL    HW3 2971   4.547   2.425   1.586
  735SOL    MW4 2972   4.464   2.440   1.565
  736SOL     OW 2973   4.467   2.717   1.643
  736SOL    HW2 2974   4.385   2.750   1.607
  736SOL    HW3 2975   4.465   2.623   1.626
  736SOL    MW4 2976   4.456   2.709   1.636
  737SOL     OW 2977   0.189   2.834   1.513
  737SOL    HW2 2978   0.253   2.775   1.552
  737SOL    HW3 2979   0.105   2.804   1.548
  737SOL    MW4 2980   0.186   2.822   1.522
  738SOL     OW 2981   0.217   3.083   1.674
  738SOL    HW2 2982   0.149   3.135   1.630
  738SOL    HW3 2983   0.217   2.999   1.627
  738SOL    MW4 2984   0.208   3.079   1.662
  739SOL     OW 2985   0.035   3.248   1.544
  739SOL    HW2 2986   0.012   3.336   1.573
  739SOL    HW3 2987   0.022   3.249   1.449
  739SOL    MW4 2988   0.031   3.259   1.535
  740SOL     OW 2989   0.021   3.530   1.588
  740SOL    HW2 2990   0.007   3.526   1.683
  740SOL    HW3 2991  -0.060   3.569   1.553
  740SOL    MW4 2992   0.009   3.535   1.596
  741SOL     OW 2993   0.249   3.664   1.507
  741SOL    HW2 2994   0.229   3.750   1.544
  741SOL    HW3 2995   0.173   3.610   1.529
  741SOL    MW4 2996   0.236   3.668   1.514
  742SOL     OW 2997   0.190   3.903   1.616
  742SOL    HW2 2998   0.212   3.887   1.707
  742SOL    HW3 2999   0.259   3.962   1.584
  742SOL    MW4 3000   0.202   3.909   1.624
  743SOL     OW 3001   4.472   4.029   1.519
  743SOL    HW2 3002   4.489   4.120   1.543
  743SOL    HW3 3003   4.546   3.980   1.554
  743SOL    MW4 3004   4.484   4.035   1.527
  744SOL     OW 3005   0.059   4.309   1.570
  744SOL    HW2 3006   0.038   4.302   1.663
  744SOL    HW3 3007  -0.014   4.357   1.531
  744SOL    MW4 3008   0.047   4.315   1.577
  745SOL     OW 3009   0.291   4.439   1.486
  745SOL    HW2 3010   0.221   4.384   1.521
  745SOL    HW3 3011   0.276   4.525   1.526
  745SOL    MW4 3012   0.280   4.443   1.496
  746SOL     OW 3013   0.690   0.000   1.618
  746SOL    HW2 3014   0.762   0.036   1.566
  746SOL    HW3 3015   0.614   0.051   1.590
  746SOL    MW4 3016   0.689   0.012   1.607
  747SOL     OW 3017   0.452   0.129   1.536
  747SOL    HW2 3018   0.439   0.216   1.573
  747SOL    HW3 3019   0.447   0.143   1.441
  747SOL    MW4 3020   0.449   0.142   1.529
  748SOL     OW 3021   0.460   0.385   1.630
  748SOL    HW2 3022   0.536   0.423   1.587
  748SOL    HW3 3023   0.385   0.419   1.581
  748SOL    MW4 3024   0.460   0.395   1.618
  749SOL     OW 3025   0.687   0.475   1.531
  749SOL    HW2 3026   0.686   0.566   1.560
  749SOL    HW3 3027   0.679   0.479   1.436
  749SOL    MW4 3028   0.686   0.487   1.522
  750SOL     OW 3029   0.690   0.741   1.610
  750SOL    HW2 3030   0.697   0.745   1.706
  750SOL    HW3 3031   0.774   0.775   1.579
  750SOL    MW4 3032   0.702   0.746   1.619
  751SOL     OW 3033   0.487   0.914   1.502
  751SOL    HW2 3034   0.485   0.987   1.563
  751SOL    HW3 3035   0.552   0.853   1.539
  751SOL    MW4 3036   0.495   0.915   1.515
  752SOL     OW 3037   0.468   1.147   1.637
  752SOL    HW2 3038   0.549   1.185   1.602
  752SOL    HW3 3039   0.398   1.195   1.592
  752SOL    MW4 3040   0.470   1.158   1.626
  753SOL     OW 3041   0.689   1.259   1.517
  753SOL    HW2 3042   0.670   1.351   1.533
  753SOL    HW3 3043   0.692   1.250   1.422
  753SOL    MW4 3044   0.687   1.270   1.507
  754SOL     OW 3045   0.653   1.546   1.586
  754SOL    HW2 3046   0.733   1.597   1.575
  754SOL    HW3 3047   0.591   1.586   1.525
  754SOL    MW4 3048   0.655   1.558   1.576
  755SOL     OW 3049   0.458   1.691   1.479
  755SOL    HW2 3050   0.461   1.775   1.523
  755SOL    HW3 3051   0.387   1.643   1.522
  755SOL    MW4 3052   0.449   1.695   1.490
  756SOL     OW 3053   0.438   1.947   1.627
  756SOL    HW2 3054   0.450   1.943   1.722
  756SOL    HW3 3055   0.370   2.014   1.615
  756SOL    MW4 3056   0.430   1.956   1.638
  757SOL     OW 3057   0.673   2.065   1.506
  757SOL    HW2 3058   0.750   2.034   1.555
  757SOL    HW3 3059   0.599   2.039   1.561
  757SOL    MW4 3060   0.674   2.057   1.520
  758SOL     OW 3061   0.664   2.308   1.605
  758SOL    HW2 3062   0.596   2.350   1.552
  758SOL    HW3 3063   0.678   2.223   1.564
  758SOL    MW4 3064   0.657   2.303   1.593
  759SOL     OW 3065   0.435   2.469   1.479
  759SOL    HW2 3066   0.427   2.551   1.528
  759SOL    HW3 3067   0.379   2.408   1.525
  759SOL    MW4 3068   0.427   2.472   1.491
  760SOL     OW 3069   0.418   2.719   1.611
  760SOL    HW2 3070   0.430   2.728   1.706
  760SOL    HW3 3071   0.506   2.731   1.575
  760SOL    MW4 3072   0.432   2.722   1.619
  761SOL     OW 3073   0.676   2.756   1.531
  761SOL    HW2 3074   0.672   2.838   1.580
  761SOL    HW3 3075   0.659   2.781   1.441
  761SOL    MW4 3076   0.673   2.770   1.526
  762SOL     OW 3077   0.659   3.030   1.634
  762SOL    HW2 3078   0.738   3.077   1.607
  762SOL    HW3 3079   0.586   3.086   1.606
  762SOL    MW4 3080   0.660   3.043   1.627
  763SOL     OW 3081   0.448   3.188   1.570
  763SOL    HW2 3082   0.366   3.152   1.607
  763SOL    HW3 3083   0.434   3.188   1.476
  763SOL    MW4 3084   0.435   3.183   1.563
  764SOL     OW 3085   0.455   3.469   1.590
  764SOL    HW2 3086   0.441   3.375   1.599
  764SOL    HW3 3087   0.377   3.500   1.544
  764SOL    MW4 3088   0.443   3.461   1.585
  765SOL     OW 3089   0.654   3.661   1.578
  765SOL    HW2 3090   0.733   3.610   1.594
  765SOL    HW3 3091   0.582   3.598   1.587
  765SOL    MW4 3092   0.655   3.646   1.581
  766SOL     OW 3093   0.661   3.930   1.586
  766SOL    HW2 3094   0.748   3.963   1.565
  766SOL    HW3 3095   0.669   3.835   1.581
  766SOL    MW4 3096   0.673   3.922   1.582
  767SOL     OW 3097   0.419   4.037   1.514
  767SOL    HW2 3098   0.496   3.995   1.552
  767SOL    HW3 3099   0.421   4.013   1.422
  767SOL    MW4 3100   0.430   4.028   1.507
  768SOL     OW 3101   0.460   4.281   1.638
  768SOL    HW2 3102   0.458   4.202   1.584
  768SOL    HW3 3103   0.407   4.345   1.589
  768SOL    MW4 3104   0.453   4.279   1.624
  769SOL     OW 3105   0.694   4.410   1.542
  769SOL    HW2 3106   0.615   4.368   1.576
  769SOL    HW3 3107   0.682   4.503   1.559
  769SOL    MW4 3108   0.682   4.417   1.549
  770SOL     OW 3109   1.148   4.638   1.583
  770SOL    HW2 3110   1.132   4.630   1.677
  770SOL    HW3 3111   1.228   4.689   1.577
  770SOL    MW4 3112   1.156   4.644   1.594
  771SOL     OW 3113   0.920   0.103   1.506
  771SOL    HW2 3114   0.929   0.187   1.551
  771SOL    HW3 3115   0.994   0.051   1.537
  771SOL    MW4 3116   0.931   0.107   1.516
  772SOL     OW 3117   0.943   0.364   1.609
  772SOL    HW2 3118   0.938   0.369   1.704
  772SOL    HW3 3119   0.864   0.409   1.578
  772SOL    MW4 3120   0.932   0.371   1.617
  773SOL     OW 3121   1.142   0.501   1.491
  773SOL    HW2 3122   1.149   0.590   1.527
  773SOL    HW3 3123   1.068   0.462   1.537
  773SOL    MW4 3124   1.133   0.508   1.502
  774SOL     OW 3125   1.143   0.752   1.601
  774SOL    HW2 3126   1.134   0.758   1.696
  774SOL    HW3 3127   1.210   0.817   1.579
  774SOL    MW4 3128   1.151   0.761   1.611
  775SOL     OW 3129   0.923   0.853   1.522
  775SOL    HW2 3130   1.008   0.834   1.561
  775SOL    HW3 3131   0.942   0.872   1.430
  775SOL    MW4 3132   0.937   0.853   1.515
  776SOL     OW 3133   0.918   1.120   1.643
  776SOL    HW2 3134   0.910   1.030   1.611
  776SOL    HW3 3135   0.839   1.163   1.611
  776SOL    MW4 3136   0.906   1.114   1.634
  777SOL     OW 3137   1.144   1.272   1.547
  777SOL    HW2 3138   1.228   1.237   1.578
  777SOL    HW3 3139   1.079   1.212   1.583
  777SOL    MW4 3140   1.147   1.259   1.556
  778SOL     OW 3141   1.075   1.527   1.625
  778SOL    HW2 3142   1.147   1.590   1.620
  778SOL    HW3 3143   1.111   1.446   1.589
  778SOL    MW4 3144   1.089   1.525   1.620
  779SOL     OW 3145   0.874   1.697   1.521
  779SOL    HW2 3146   0.945   1.637   1.545
  779SOL    HW3 3147   0.877   1.700   1.425
  779SOL    MW4 3148   0.884   1.689   1.512
  780SOL     OW 3149   0.888   1.949   1.614
  780SOL    HW2 3150   0.973   1.981   1.585
  780SOL    HW3 3151   0.887   1.857   1.588
  780SOL    MW4 3152   0.899   1.941   1.607
  781SOL     OW 3153   1.128   2.046   1.513
  781SOL    HW2 3154   1.216   2.014   1.534
  781SOL    HW3 3155   1.125   2.135   1.547
  781SOL    MW4 3156   1.139   2.053   1.520
  782SOL     OW 3157   1.160   2.311   1.607
  782SOL    HW2 3158   1.229   2.367   1.573
  782SOL    HW3 3159   1.079   2.357   1.585
  782SOL    MW4 3160   1.158   2.324   1.600
  783SOL     OW 3161   0.917   2.435   1.539
  783SOL    HW2 3162   0.936   2.527   1.556
  783SOL    HW3 3163   0.829   2.422   1.575
  783SOL    MW4 3164   0.908   2.445   1.546
  784SOL     OW 3165   0.931   2.697   1.610
  784SOL    HW2 3166   0.923   2.689   1.705
  784SOL    HW3 3167   0.842   2.715   1.580
  784SOL    MW4 3168   0.918   2.698   1.618
  785SOL     OW 3169   1.123   2.862   1.516
  785SOL    HW2 3170   1.117   2.950   1.552
  785SOL    HW3 3171   1.049   2.815   1.555
  785SOL    MW4 3172   1.113   2.867   1.526
  786SOL     OW 3173   1.105   3.115   1.641
  786SOL    HW2 3174   1.120   3.110   1.735
  786SOL    HW3 3175   1.188   3.146   1.605
  786SOL    MW4 3176   1.118   3.118   1.649
  787SOL     OW 3177   0.860   3.215   1.543
  787SOL    HW2 3178   0.938   3.188   1.592
  787SOL    HW3 3179   0.878   3.188   1.453
  787SOL    MW4 3180   0.873   3.208   1.538
  788SOL     OW 3181   0.861   3.479   1.640
  788SOL    HW2 3182   0.938   3.521   1.603
  788SOL    HW3 3183   0.858   3.392   1.600
  788SOL    MW4 3184   0.871   3.473   1.630
  789SOL     OW 3185   1.095   3.603   1.543
  789SOL    HW2 3186   1.182   3.583   1.577
  789SOL    HW3 3187   1.105   3.596   1.448
  789SOL    MW4 3188   1.108   3.600   1.535
  790SOL     OW 3189   1.141   3.867   1.610
  790SOL    HW2 3190   1.204   3.914   1.555
  790SOL    HW3 3191   1.136   3.780   1.571
  790SOL    MW4 3192   1.149   3.862   1.598
  791SOL     OW 3193   0.913   4.018   1.518
  791SOL    HW2 3194   0.920   4.106   1.555
  791SOL    HW3 3195   0.993   3.973   1.545
  791SOL    MW4 3196   0.924   4.023   1.526
  792SOL     OW 3197   0.935   4.289   1.602
  792SOL    HW2 3198   0.921   4.273   1.695
  792SOL    HW3 3199   0.866   4.350   1.577
  792SOL    MW4 3200   0.924   4.295   1.611
  793SOL     OW 3201   1.166   4.385   1.476
  793SOL    HW2 3202   1.088   4.347   1.517
  793SOL    HW3 3203   1.177   4.469   1.519
  793SOL    MW4 3204   1.157   4.391   1.487
  794SOL     OW 3205   1.581   4.618   1.608
  794SOL    HW2 3206   1.586   4.637   1.701
  794SOL    HW3 3207   1.517   4.680   1.573
  794SOL    MW4 3208   1.573   4.628   1.615
  795SOL     OW 3209   1.383   0.123   1.519
  795SOL    HW2 3210   1.370   0.211   1.554
  795SOL    HW3 3211   1.385   0.135   1.424
  795SOL    MW4 3212   1.381   0.136   1.511
  796SOL     OW 3213   1.375   0.389   1.588
  796SOL    HW2 3214   1.449   0.435   1.548
  796SOL    HW3 3215   1.297   0.428   1.547
  796SOL    MW4 3216   1.374   0.400   1.577
  797SOL     OW 3217   1.595   0.549   1.488
  797SOL    HW2 3218   1.650   0.476   1.517
  797SOL    HW3 3219   1.607   0.552   1.393
  797SOL    MW4 3220   1.604   0.540   1.479
  798SOL     OW 3221   1.572   0.791   1.647
  798SOL    HW2 3222   1.574   0.797   1.743
  798SOL    HW3 3223   1.588   0.698   1.629
  798SOL    MW4 3224   1.574   0.779   1.657
  799SOL     OW 3225   1.348   0.934   1.546
  799SOL    HW2 3226   1.418   0.877   1.577
  799SOL    HW3 3227   1.360   0.938   1.451
  799SOL    MW4 3228   1.358   0.927   1.538
  800SOL     OW 3229   1.396   1.197   1.633
  800SOL    HW2 3230   1.377   1.195   1.727
  800SOL    HW3 3231   1.387   1.106   1.605
  800SOL    MW4 3232   1.392   1.185   1.642
  801SOL     OW 3233   1.610   1.313   1.504
  801SOL    HW2 3234   1.528   1.279   1.540
  801SOL    HW3 3235   1.587   1.341   1.415
  801SOL    MW4 3236   1.596   1.312   1.497
  802SOL     OW 3237   1.543   1.547   1.636
  802SOL    HW2 3238   1.556   1.536   1.731
  802SOL    HW3 3239   1.555   1.459   1.601
  802SOL    MW4 3240   1.547   1.533   1.644
  803SOL     OW 3241   1.299   1.658   1.570
  803SOL    HW2 3242   1.386   1.633   1.601
  803SOL    HW3 3243   1.310   1.672   1.476
  803SOL    MW4 3244   1.312   1.657   1.562
  804SOL     OW 3245   1.361   1.919   1.632
  804SOL    HW2 3246   1.343   1.911   1.725
  804SOL    HW3 3247   1.349   1.831   1.597
  804SOL    MW4 3248   1.357   1.907   1.639
  805SOL     OW 3249   1.532   2.105   1.506
  805SOL    HW2 3250   1.467   2.045   1.545
  805SOL    HW3 3251   1.535   2.080   1.414
  805SOL    MW4 3252   1.524   2.094   1.499
  806SOL     OW 3253   1.563   2.361   1.612
  806SOL    HW2 3254   1.648   2.394   1.583
  806SOL    HW3 3255   1.552   2.279   1.564
  806SOL    MW4 3256   1.573   2.354   1.602
  807SOL     OW 3257   1.345   2.485   1.494
  807SOL    HW2 3258   1.327   2.561   1.549
  807SOL    HW3 3259   1.425   2.447   1.530
  807SOL    MW4 3260   1.353   2.490   1.506
  808SOL     OW 3261   1.320   2.726   1.630
  808SOL    HW2 3262   1.397   2.768   1.594
  808SOL    HW3 3263   1.247   2.781   1.602
  808SOL    MW4 3264   1.320   2.739   1.621
  809SOL     OW 3265   1.537   2.855   1.525
  809SOL    HW2 3266   1.618   2.808   1.544
  809SOL    HW3 3267   1.540   2.871   1.431
  809SOL    MW4 3268   1.548   2.851   1.515
  810SOL     OW 3269   1.570   3.113   1.630
  810SOL    HW2 3270   1.621   3.171   1.573
  810SOL    HW3 3271   1.576   3.027   1.589
  810SOL    MW4 3272   1.577   3.110   1.617
  811SOL     OW 3273   1.332   3.214   1.516
  811SOL    HW2 3274   1.334   3.306   1.543
  811SOL    HW3 3275   1.408   3.175   1.557
  811SOL    MW4 3276   1.342   3.221   1.525
  812SOL     OW 3277   1.338   3.483   1.606
  812SOL    HW2 3278   1.347   3.467   1.700
  812SOL    HW3 3279   1.421   3.524   1.581
  812SOL    MW4 3280   1.350   3.486   1.615
  813SOL     OW 3281   1.558   3.634   1.532
  813SOL    HW2 3282   1.558   3.727   1.551
  813SOL    HW3 3283   1.543   3.628   1.438
  813SOL    MW4 3284   1.556   3.645   1.522
  814SOL     OW 3285   1.588   3.907   1.601
  814SOL    HW2 3286   1.575   3.903   1.696
  814SOL    HW3 3287   1.508   3.948   1.569
  814SOL    MW4 3288   1.575   3.912   1.610
  815SOL     OW 3289   1.342   4.008   1.488
  815SOL    HW2 3290   1.325   4.099   1.512
  815SOL    HW3 3291   1.350   4.009   1.393
  815SOL    MW4 3292   1.341   4.020   1.479
  816SOL     OW 3293   1.378   4.256   1.592
  816SOL    HW2 3294   1.459   4.263   1.541
  816SOL    HW3 3295   1.318   4.319   1.551
  816SOL    MW4 3296   1.381   4.265   1.580
  817SOL     OW 3297   1.607   4.361   1.453
  817SOL    HW2 3298   1.688   4.321   1.486
  817SOL    HW3 3299   1.594   4.438   1.509
  817SOL    MW4 3300   1.616   4.366   1.465
  818SOL     OW 3301   2.054   4.630   1.556
  818SOL    HW2 3302   2.024   4.635   1.646
  818SOL    HW3 3303   1.988   4.678   1.505
  818SOL    MW4 3304   2.042   4.637   1.561
  819SOL     OW 3305   1.802   0.059   1.507
  819SOL    HW2 3306   1.723   0.010   1.529
  819SOL    HW3 3307   1.797   0.073   1.412
  819SOL    MW4 3308   1.791   0.054   1.497
  820SOL     OW 3309   1.773   0.347   1.575
  820SOL    HW2 3310   1.859   0.389   1.574
  820SOL    HW3 3311   1.792   0.254   1.562
  820SOL    MW4 3312   1.787   0.340   1.574
  821SOL     OW 3313   2.011   0.487   1.549
  821SOL    HW2 3314   2.092   0.438   1.557
  821SOL    HW3 3315   2.028   0.570   1.594
  821SOL    MW4 3316   2.024   0.491   1.556
  822SOL     OW 3317   2.036   0.755   1.624
  822SOL    HW2 3318   2.103   0.806   1.579
  822SOL    HW3 3319   1.953   0.784   1.586
  822SOL    MW4 3320   2.034   0.765   1.613
  823SOL     OW 3321   1.813   0.847   1.494
  823SOL    HW2 3322   1.823   0.939   1.517
  823SOL    HW3 3323   1.734   0.819   1.542
  823SOL    MW4 3324   1.804   0.855   1.504
  824SOL     OW 3325   1.820   1.118   1.539
  824SOL    HW2 3326   1.885   1.188   1.533
  824SOL    HW3 3327   1.737   1.160   1.516
  824SOL    MW4 3328   1.818   1.133   1.535
  825SOL     OW 3329   2.010   1.309   1.534
  825SOL    HW2 3330   2.021   1.396   1.572
  825SOL    HW3 3331   2.036   1.320   1.442
  825SOL    MW4 3332   2.015   1.322   1.527
  826SOL     OW 3333   1.991   1.556   1.640
  826SOL    HW2 3334   2.061   1.620   1.621
  826SOL    HW3 3335   1.911   1.600   1.609
  826SOL    MW4 3336   1.990   1.570   1.633
  827SOL     OW 3337   1.767   1.698   1.560
  827SOL    HW2 3338   1.701   1.637   1.592
  827SOL    HW3 3339   1.780   1.674   1.469
  827SOL    MW4 3340   1.760   1.687   1.552
  828SOL     OW 3341   1.762   1.968   1.608
  828SOL    HW2 3342   1.762   1.875   1.587
  828SOL    HW3 3343   1.682   2.002   1.569
  828SOL    MW4 3344   1.751   1.961   1.600
  829SOL     OW 3345   1.985   2.098   1.517
  829SOL    HW2 3346   2.059   2.042   1.543
  829SOL    HW3 3347   1.908   2.055   1.554
  829SOL    MW4 3348   1.985   2.085   1.525
  830SOL     OW 3349   2.007   2.361   1.610
  830SOL    HW2 3350   2.003   2.355   1.706
  830SOL    HW3 3351   2.011   2.269   1.581
  830SOL    MW4 3352   2.007   2.348   1.619
  831SOL     OW 3353   1.791   2.479   1.466
  831SOL    HW2 3354   1.864   2.440   1.514
  831SOL    HW3 3355   1.813   2.467   1.374
  831SOL    MW4 3356   1.804   2.472   1.460
  832SOL     OW 3357   1.766   2.731   1.588
  832SOL    HW2 3358   1.842   2.783   1.561
  832SOL    HW3 3359   1.778   2.646   1.546
  832SOL    MW4 3360   1.778   2.727   1.579
  833SOL     OW 3361   2.008   2.856   1.505
  833SOL    HW2 3362   1.999   2.948   1.530
  833SOL    HW3 3363   2.003   2.857   1.410
  833SOL    MW4 3364   2.006   2.868   1.496
  834SOL     OW 3365   1.969   3.115   1.571
  834SOL    HW2 3366   1.968   3.104   1.666
  834SOL    HW3 3367   2.057   3.147   1.552
  834SOL    MW4 3368   1.980   3.118   1.581
  835SOL     OW 3369   1.727   3.238   1.447
  835SOL    HW2 3370   1.719   3.328   1.480
  835SOL    HW3 3371   1.806   3.204   1.489
  835SOL    MW4 3372   1.736   3.245   1.457
  836SOL     OW 3373   1.791   3.507   1.565
  836SOL    HW2 3374   1.807   3.506   1.660
  836SOL    HW3 3375   1.708   3.553   1.555
  836SOL    MW4 3376   1.782   3.513   1.576
  837SOL     OW 3377   2.020   3.623   1.451
  837SOL    HW2 3378   2.094   3.578   1.492
  837SOL    HW3 3379   1.942   3.580   1.488
  837SOL    MW4 3380   2.019   3.611   1.461
  838SOL     OW 3381   2.021   3.894   1.532
  838SOL    HW2 3382   2.110   3.924   1.513
  838SOL    HW3 3383   2.018   3.806   1.495
  838SOL    MW4 3384   2.032   3.886   1.525
  839SOL     OW 3385   1.790   3.990   1.437
  839SOL    HW2 3386   1.870   3.947   1.466
  839SOL    HW3 3387   1.726   3.970   1.506
  839SOL    MW4 3388   1.792   3.982   1.450
  840SOL     OW 3389   1.815   4.231   1.590
  840SOL    HW2 3390   1.890   4.275   1.551
  840SOL    HW3 3391   1.822   4.141   1.558
  840SOL    MW4 3392   1.826   4.225   1.581
  841SOL     OW 3393   2.030   4.363   1.470
  841SOL    HW2 3394   2.098   4.322   1.524
  841SOL    HW3 3395   2.025   4.453   1.503
  841SOL    MW4 3396   2.038   4.370   1.482
  842SOL     OW 3397   2.508   4.654   1.579
  842SOL    HW2 3398   2.500   4.633   1.672
  842SOL    HW3 3399   2.420   4.683   1.554
  842SOL    MW4 3400   2.495   4.655   1.588
  843SOL     OW 3401   2.279   0.103   1.502
  843SOL    HW2 3402   2.196   0.058   1.518
  843SOL    HW3 3403   2.283   0.111   1.406
  843SOL    MW4 3404   2.269   0.098   1.491
  844SOL     OW 3405   2.250   0.355   1.561
  844SOL    HW2 3406   2.256   0.354   1.657
  844SOL    HW3 3407   2.268   0.265   1.535
  844SOL    MW4 3408   2.253   0.343   1.570
  845SOL     OW 3409   2.427   0.547   1.486
  845SOL    HW2 3410   2.508   0.511   1.522
  845SOL    HW3 3411   2.360   0.482   1.507
  845SOL    MW4 3412   2.429   0.534   1.493
  846SOL     OW 3413   2.453   0.802   1.620
  846SOL    HW2 3414   2.379   0.850   1.584
  846SOL    HW3 3415   2.445   0.714   1.583
  846SOL    MW4 3416   2.442   0.796   1.611
  847SOL     OW 3417   2.234   0.938   1.534
  847SOL    HW2 3418   2.243   1.032   1.552
  847SOL    HW3 3419   2.211   0.934   1.441
  847SOL    MW4 3420   2.232   0.950   1.524
  848SOL     OW 3421   2.241   1.200   1.596
  848SOL    HW2 3422   2.246   1.181   1.690
  848SOL    HW3 3423   2.151   1.229   1.582
  848SOL    MW4 3424   2.230   1.201   1.606
  849SOL     OW 3425   2.478   1.334   1.515
  849SOL    HW2 3426   2.391   1.295   1.512
  849SOL    HW3 3427   2.512   1.321   1.426
  849SOL    MW4 3428   2.471   1.327   1.503
  850SOL     OW 3429   2.457   1.595   1.639
  850SOL    HW2 3430   2.518   1.650   1.590
  850SOL    HW3 3431   2.468   1.507   1.603
  850SOL    MW4 3432   2.466   1.591   1.628
  851SOL     OW 3433   2.208   1.681   1.534
  851SOL    HW2 3434   2.294   1.665   1.572
  851SOL    HW3 3435   2.223   1.678   1.439
  851SOL    MW4 3436   2.221   1.679   1.526
  852SOL     OW 3437   2.214   1.957   1.621
  852SOL    HW2 3438   2.184   1.959   1.711
  852SOL    HW3 3439   2.228   1.864   1.602
  852SOL    MW4 3440   2.212   1.945   1.630
  853SOL     OW 3441   2.440   2.118   1.514
  853SOL    HW2 3442   2.396   2.044   1.557
  853SOL    HW3 3443   2.422   2.106   1.421
  853SOL    MW4 3444   2.432   2.106   1.508
  854SOL     OW 3445   2.461   2.373   1.619
  854SOL    HW2 3446   2.467   2.358   1.713
  854SOL    HW3 3447   2.451   2.286   1.581
  854SOL    MW4 3448   2.460   2.360   1.626
  855SOL     OW 3449   2.219   2.488   1.479
  855SOL    HW2 3450   2.295   2.444   1.517
  855SOL    HW3 3451   2.144   2.446   1.522
  855SOL    MW4 3452   2.219   2.477   1.490
  856SOL     OW 3453   2.255   2.739   1.606
  856SOL    HW2 3454   2.239   2.652   1.571
  856SOL    HW3 3455   2.180   2.791   1.577
  856SOL    MW4 3456   2.243   2.735   1.597
  857SOL     OW 3457   2.484   2.857   1.486
  857SOL    HW2 3458   2.472   2.948   1.514
  857SOL    HW3 3459   2.405   2.812   1.518
  857SOL    MW4 3460   2.472   2.863   1.494
  858SOL     OW 3461   2.439   3.119   1.587
  858SOL    HW2 3462   2.504   3.170   1.538
  858SOL    HW3 3463   2.355   3.149   1.553
  858SOL    MW4 3464   2.437   3.130   1.576
  859SOL     OW 3465   2.207   3.229   1.481
  859SOL    HW2 3466   2.226   3.321   1.501
  859SOL    HW3 3467   2.213   3.224   1.386
  859SOL    MW4 3468   2.210   3.240   1.471
  860SOL     OW 3469   2.236   3.494   1.585
  860SOL    HW2 3470   2.241   3.492   1.681
  860SOL    HW3 3471   2.324   3.519   1.557
  860SOL    MW4 3472   2.248   3.497   1.594
  861SOL     OW 3473   2.479   3.614   1.477
  861SOL    HW2 3474   2.548   3.571   1.527
  861SOL    HW3 3475   2.491   3.707   1.496
  861SOL    MW4 3476   2.490   3.621   1.486
  862SOL     OW 3477   2.496   3.883   1.532
  862SOL    HW2 3478   2.503   3.885   1.628
  862SOL    HW3 3479   2.563   3.945   1.502
  862SOL    MW4 3480   2.506   3.892   1.541
  863SOL     OW 3481   2.258   4.018   1.481
  863SOL    HW2 3482   2.341   3.974   1.500
  863SOL    HW3 3483   2.244   4.003   1.388
  863SOL    MW4 3484   2.267   4.010   1.471
  864SOL     OW 3485   2.266   4.271   1.592
  864SOL    HW2 3486   2.342   4.314   1.553
  864SOL    HW3 3487   2.262   4.185   1.550
  864SOL    MW4 3488   2.275   4.266   1.581
  865SOL     OW 3489   2.463   4.416   1.465
  865SOL    HW2 3490   2.482   4.498   1.512
  865SOL    HW3 3491   2.480   4.438   1.374
  865SOL    MW4 3492   2.468   4.430   1.460
  866SOL     OW 3493   2.922   0.001   1.601
  866SOL    HW2 3494   2.899  -0.007   1.694
  866SOL    HW3 3495   2.854   0.057   1.564
  866SOL    MW4 3496   2.910   0.007   1.609
  867SOL     OW 3497   2.721   0.139   1.464
  867SOL    HW2 3498   2.685   0.222   1.495
  867SOL    HW3 3499   2.659   0.073   1.497
  867SOL    MW4 3500   2.708   0.141   1.473
  868SOL     OW 3501   2.647   0.401   1.579
  868SOL    HW2 3502   2.634   0.379   1.671
  868SOL    HW3 3503   2.737   0.430   1.574
  868SOL    MW4 3504   2.657   0.402   1.590
  869SOL     OW 3505   2.901   0.489   1.471
  869SOL    HW2 3506   2.915   0.582   1.491
  869SOL    HW3 3507   2.929   0.479   1.380
  869SOL    MW4 3508   2.907   0.500   1.462
  870SOL     OW 3509   2.900   0.759   1.558
  870SOL    HW2 3510   2.887   0.739   1.651
  870SOL    HW3 3511   2.840   0.831   1.540
  870SOL    MW4 3512   2.891   0.766   1.568
  871SOL     OW 3513   2.694   0.932   1.519
  871SOL    HW2 3514   2.614   0.890   1.549
  871SOL    HW3 3515   2.681   0.946   1.425
  871SOL    MW4 3516   2.682   0.929   1.510
  872SOL     OW 3517   2.673   1.185   1.636
  872SOL    HW2 3518   2.667   1.100   1.593
  872SOL    HW3 3519   2.601   1.236   1.598
  872SOL    MW4 3520   2.663   1.180   1.625
  873SOL     OW 3521   2.901   1.313   1.509
  873SOL    HW2 3522   2.984   1.273   1.537
  873SOL    HW3 3523   2.834   1.263   1.557
  873SOL    MW4 3524   2.903   1.301   1.519
  874SOL     OW 3525   2.882   1.564   1.661
  874SOL    HW2 3526   2.809   1.621   1.636
  874SOL    HW3 3527   2.876   1.489   1.602
  874SOL    MW4 3528   2.871   1.561   1.650
  875SOL     OW 3529   2.678   1.721   1.541
  875SOL    HW2 3530   2.707   1.812   1.543
  875SOL    HW3 3531   2.676   1.697   1.449
  875SOL    MW4 3532   2.681   1.730   1.529
  876SOL     OW 3533   2.691   1.988   1.597
  876SOL    HW2 3534   2.688   1.982   1.692
  876SOL    HW3 3535   2.627   2.055   1.574
  876SOL    MW4 3536   2.682   1.996   1.606
  877SOL     OW 3537   2.927   2.096   1.484
  877SOL    HW2 3538   2.922   2.188   1.511
  877SOL    HW3 3539   2.842   2.059   1.507
  877SOL    MW4 3540   2.915   2.103   1.491
  878SOL     OW 3541   2.931   2.339   1.601
  878SOL    HW2 3542   2.923   2.332   1.696
  878SOL    HW3 3543   2.849   2.381   1.574
  878SOL    MW4 3544   2.919   2.344   1.610
  879SOL     OW 3545   2.701   2.466   1.513
  879SOL    HW2 3546   2.723   2.558   1.528
  879SOL    HW3 3547   2.616   2.455   1.554
  879SOL    MW4 3548   2.693   2.476   1.521
  880SOL     OW 3549   2.724   2.731   1.588
  880SOL    HW2 3550   2.797   2.789   1.566
  880SOL    HW3 3551   2.646   2.776   1.555
  880SOL    MW4 3552   2.723   2.745   1.581
  881SOL     OW 3553   2.927   2.884   1.491
  881SOL    HW2 3554   3.003   2.859   1.544
  881SOL    HW3 3555   2.896   2.965   1.532
  881SOL    MW4 3556   2.933   2.892   1.504
  882SOL     OW 3557   2.870   3.130   1.596
  882SOL    HW2 3558   2.889   3.122   1.689
  882SOL    HW3 3559   2.947   3.174   1.560
  882SOL    MW4 3560   2.883   3.134   1.603
  883SOL     OW 3561   2.644   3.242   1.469
  883SOL    HW2 3562   2.725   3.210   1.509
  883SOL    HW3 3563   2.656   3.226   1.375
  883SOL    MW4 3564   2.656   3.236   1.462
  884SOL     OW 3565   2.699   3.491   1.581
  884SOL    HW2 3566   2.684   3.465   1.672
  884SOL    HW3 3567   2.685   3.411   1.530
  884SOL    MW4 3568   2.695   3.477   1.586
  885SOL     OW 3569   2.922   3.642   1.525
  885SOL    HW2 3570   2.839   3.610   1.562
  885SOL    HW3 3571   2.911   3.633   1.431
  885SOL    MW4 3572   2.909   3.637   1.518
  886SOL     OW 3573   2.895   3.907   1.605
  886SOL    HW2 3574   2.840   3.948   1.538
  886SOL    HW3 3575   2.913   3.820   1.571
  886SOL    MW4 3576   2.890   3.901   1.592
  887SOL     OW 3577   2.713   4.040   1.431
  887SOL    HW2 3578   2.678   4.117   1.475
  887SOL    HW3 3579   2.723   4.066   1.339
  887SOL    MW4 3580   2.710   4.053   1.425
  888SOL     OW 3581   2.681   4.272   1.574
  888SOL    HW2 3582   2.760   4.318   1.547
  888SOL    HW3 3583   2.609   4.320   1.533
  888SOL    MW4 3584   2.682   4.284   1.565
  889SOL     OW 3585   2.917   4.403   1.483
  889SOL    HW2 3586   2.926   4.495   1.506
  889SOL    HW3 3587   2.929   4.400   1.388
  889SOL    MW4 3588   2.920   4.414   1.474
  890SOL     OW 3589   3.362   4.659   1.543
  890SOL    HW2 3590   3.453   4.687   1.551
  890SOL    HW3 3591   3.367   4.565   1.524
  890SOL    MW4 3592   3.374   4.651   1.541
  891SOL     OW 3593   3.131   0.127   1.456
  891SOL    HW2 3594   3.208   0.077   1.483
  891SOL    HW3 3595   3.057   0.079   1.494
  891SOL    MW4 3596   3.131   0.114   1.465
  892SOL     OW 3597   3.149   0.371   1.599
  892SOL    HW2 3598   3.136   0.279   1.574
  892SOL    HW3 3599   3.065   0.412   1.582
  892SOL    MW4 3600   3.136   0.364   1.593
  893SOL     OW 3601   3.368   0.479   1.500
  893SOL    HW2 3602   3.282   0.453   1.534
  893SOL    HW3 3603   3.358   0.478   1.405
  893SOL    MW4 3604   3.355   0.475   1.492
  894SOL     OW 3605   3.354   0.761   1.556
  894SOL    HW2 3606   3.361   0.766   1.651
  894SOL    HW3 3607   3.361   0.667   1.537
  894SOL    MW4 3608   3.356   0.749   1.566
  895SOL     OW 3609   3.127   0.894   1.513
  895SOL    HW2 3610   3.199   0.835   1.534
  895SOL    HW3 3611   3.049   0.851   1.546
  895SOL    MW4 3612   3.126   0.881   1.520
  896SOL     OW 3613   3.129   1.166   1.609
  896SOL    HW2 3614   3.128   1.155   1.704
  896SOL    HW3 3615   3.133   1.077   1.574
  896SOL    MW4 3616   3.129   1.153   1.617
  897SOL     OW 3617   3.360   1.283   1.496
  897SOL    HW2 3618   3.433   1.246   1.545
  897SOL    HW3 3619   3.282   1.252   1.542
  897SOL    MW4 3620   3.359   1.274   1.508
  898SOL     OW 3621   3.346   1.555   1.630
  898SOL    HW2 3622   3.361   1.538   1.723
  898SOL    HW3 3623   3.350   1.469   1.589
  898SOL    MW4 3624   3.348   1.541   1.637
  899SOL     OW 3625   3.109   1.674   1.548
  899SOL    HW2 3626   3.185   1.647   1.599
  899SOL    HW3 3627   3.036   1.625   1.586
  899SOL    MW4 3628   3.109   1.664   1.560
  900SOL     OW 3629   3.105   1.937   1.625
  900SOL    HW2 3630   3.093   1.843   1.609
  900SOL    HW3 3631   3.035   1.979   1.576
  900SOL    MW4 3632   3.094   1.930   1.617
  901SOL     OW 3633   3.342   2.068   1.527
  901SOL    HW2 3634   3.263   2.020   1.553
  901SOL    HW3 3635   3.342   2.063   1.431
  901SOL    MW4 3636   3.331   2.061   1.518
  902SOL     OW 3637   3.373   2.316   1.618
  902SOL    HW2 3638   3.451   2.347   1.572
  902SOL    HW3 3639   3.360   2.226   1.586
  902SOL    MW4 3640   3.382   2.308   1.608
  903SOL     OW 3641   3.166   2.492   1.541
  903SOL    HW2 3642   3.236   2.433   1.571
  903SOL    HW3 3643   3.085   2.449   1.570
  903SOL    MW4 3644   3.164   2.478   1.549
  904SOL     OW 3645   3.142   2.777   1.641
  904SOL    HW2 3646   3.227   2.817   1.625
  904SOL    HW3 3647   3.150   2.687   1.609
  904SOL    MW4 3648   3.154   2.771   1.635
  905SOL     OW 3649   3.408   2.861   1.515
  905SOL    HW2 3650   3.383   2.950   1.540
  905SOL    HW3 3651   3.388   2.855   1.422
  905SOL    MW4 3652   3.402   2.872   1.506
  906SOL     OW 3653   3.338   3.111   1.600
  906SOL    HW2 3654   3.339   3.111   1.696
  906SOL    HW3 3655   3.418   3.156   1.575
  906SOL    MW4 3656   3.348   3.117   1.609
  907SOL     OW 3657   3.113   3.233   1.505
  907SOL    HW2 3658   3.197   3.199   1.535
  907SOL    HW3 3659   3.109   3.208   1.412
  907SOL    MW4 3660   3.124   3.225   1.496
  908SOL     OW 3661   3.161   3.500   1.575
  908SOL    HW2 3662   3.140   3.414   1.538
  908SOL    HW3 3663   3.081   3.551   1.564
  908SOL    MW4 3664   3.148   3.495   1.569
  909SOL     OW 3665   3.385   3.620   1.499
  909SOL    HW2 3666   3.456   3.580   1.550
  909SOL    HW3 3667   3.309   3.564   1.516
  909SOL    MW4 3668   3.384   3.607   1.508
  910SOL     OW 3669   3.376   3.885   1.587
  910SOL    HW2 3670   3.294   3.922   1.552
  910SOL    HW3 3671   3.373   3.793   1.561
  910SOL    MW4 3672   3.365   3.878   1.579
  911SOL     OW 3673   3.138   3.992   1.496
  911SOL    HW2 3674   3.161   4.080   1.524
  911SOL    HW3 3675   3.053   3.975   1.537
  911SOL    MW4 3676   3.129   4.001   1.505
  912SOL     OW 3677   3.157   4.255   1.560
  912SOL    HW2 3678   3.162   4.277   1.653
  912SOL    HW3 3679   3.085   4.307   1.526
  912SOL    MW4 3680   3.148   4.265   1.568
  913SOL     OW 3681   3.398   4.389   1.485
  913SOL    HW2 3682   3.313   4.345   1.490
  913SOL    HW3 3683   3.411   4.405   1.391
  913SOL    MW4 3684   3.389   4.386   1.473
  914SOL     OW 3685   3.881   4.629   1.602
  914SOL    HW2 3686   3.874   4.647   1.696
  914SOL    HW3 3687   3.953   4.685   1.573
  914SOL    MW4 3688   3.890   4.639   1.611
  915SOL     OW 3689   3.623   0.075   1.527
  915SOL    HW2 3690   3.710   0.041   1.547
  915SOL    HW3 3691   3.624   0.092   1.433
  915SOL    MW4 3692   3.635   0.072   1.517
  916SOL     OW 3693   3.586   0.354   1.637
  916SOL    HW2 3694   3.598   0.268   1.596
  916SOL    HW3 3695   3.510   0.391   1.592
  916SOL    MW4 3696   3.578   0.347   1.625
  917SOL     OW 3697   3.806   0.517   1.500
  917SOL    HW2 3698   3.732   0.466   1.532
  917SOL    HW3 3699   3.801   0.511   1.405
  917SOL    MW4 3700   3.796   0.509   1.492
  918SOL     OW 3701   3.826   0.753   1.624
  918SOL    HW2 3702   3.759   0.805   1.579
  918SOL    HW3 3703   3.826   0.670   1.577
  918SOL    MW4 3704   3.817   0.749   1.612
  919SOL     OW 3705   3.612   0.892   1.492
  919SOL    HW2 3706   3.535   0.843   1.522
  919SOL    HW3 3707   3.608   0.887   1.397
  919SOL    MW4 3708   3.601   0.885   1.484
  920SOL     OW 3709   3.579   1.153   1.609
  920SOL    HW2 3710   3.653   1.203   1.576
  920SOL    HW3 3711   3.592   1.065   1.573
  920SOL    MW4 3712   3.590   1.148   1.600
  921SOL     OW 3713   3.812   1.305   1.496
  921SOL    HW2 3714   3.886   1.268   1.545
  921SOL    HW3 3715   3.802   1.394   1.532
  921SOL    MW4 3716   3.821   1.312   1.507
  922SOL     OW 3717   3.811   1.561   1.609
  922SOL    HW2 3718   3.804   1.550   1.704
  922SOL    HW3 3719   3.732   1.608   1.584
  922SOL    MW4 3720   3.800   1.565   1.618
  923SOL     OW 3721   3.564   1.686   1.532
  923SOL    HW2 3722   3.485   1.642   1.562
  923SOL    HW3 3723   3.566   1.671   1.437
  923SOL    MW4 3724   3.554   1.678   1.523
  924SOL     OW 3725   3.547   1.931   1.671
  924SOL    HW2 3726   3.539   1.843   1.634
  924SOL    HW3 3727   3.468   1.977   1.643
  924SOL    MW4 3728   3.536   1.925   1.662
  925SOL     OW 3729   3.800   2.030   1.537
  925SOL    HW2 3730   3.791   2.117   1.575
  925SOL    HW3 3731   3.722   1.983   1.568
  925SOL    MW4 3732   3.788   2.035   1.546
  926SOL     OW 3733   3.799   2.304   1.605
  926SOL    HW2 3734   3.805   2.303   1.701
  926SOL    HW3 3735   3.883   2.339   1.576
  926SOL    MW4 3736   3.811   2.309   1.614
  927SOL     OW 3737   3.592   2.452   1.505
  927SOL    HW2 3738   3.590   2.539   1.545
  927SOL    HW3 3739   3.667   2.409   1.545
  927SOL    MW4 3740   3.602   2.457   1.515
  928SOL     OW 3741   3.600   2.693   1.621
  928SOL    HW2 3742   3.603   2.693   1.717
  928SOL    HW3 3743   3.523   2.744   1.599
  928SOL    MW4 3744   3.590   2.699   1.631
  929SOL     OW 3745   3.810   2.807   1.495
  929SOL    HW2 3746   3.877   2.767   1.551
  929SOL    HW3 3747   3.727   2.773   1.529
  929SOL    MW4 3748   3.808   2.797   1.507
  930SOL     OW 3749   3.804   3.069   1.622
  930SOL    HW2 3750   3.881   3.123   1.606
  930SOL    HW3 3751   3.832   2.980   1.605
  930SOL    MW4 3752   3.818   3.065   1.617
  931SOL     OW 3753   3.582   3.229   1.504
  931SOL    HW2 3754   3.649   3.165   1.530
  931SOL    HW3 3755   3.585   3.228   1.408
  931SOL    MW4 3756   3.592   3.220   1.494
  932SOL     OW 3757   3.597   3.493   1.618
  932SOL    HW2 3758   3.669   3.546   1.585
  932SOL    HW3 3759   3.606   3.408   1.574
  932SOL    MW4 3760   3.607   3.489   1.608
  933SOL     OW 3761   3.799   3.634   1.514
  933SOL    HW2 3762   3.874   3.596   1.559
  933SOL    HW3 3763   3.804   3.728   1.532
  933SOL    MW4 3764   3.809   3.641   1.522
  934SOL     OW 3765   3.816   3.895   1.606
  934SOL    HW2 3766   3.897   3.936   1.575
  934SOL    HW3 3767   3.747   3.939   1.556
  934SOL    MW4 3768   3.818   3.906   1.595
  935SOL     OW 3769   3.599   4.023   1.463
  935SOL    HW2 3770   3.585   4.114   1.492
  935SOL    HW3 3771   3.532   3.973   1.510
  935SOL    MW4 3772   3.588   4.028   1.473
  936SOL     OW 3773   3.616   4.278   1.601
  936SOL    HW2 3774   3.605   4.281   1.696
  936SOL    HW3 3775   3.540   4.325   1.567
  936SOL    MW4 3776   3.604   4.284   1.609
  937SOL     OW 3777   3.837   4.377   1.479
  937SOL    HW2 3778   3.769   4.338   1.533
  937SOL    HW3 3779   3.850   4.464   1.516
  937SOL    MW4 3780   3.830   4.383   1.491
  938SOL     OW 3781   4.301   0.013   1.617
  938SOL    HW2 3782   4.267   0.011   1.707
  938SOL    HW3 3783   4.302  -0.079   1.590
  938SOL    MW4 3784   4.297   0.001   1.625
  939SOL     OW 3785   4.081   0.120   1.489
  939SOL    HW2 3786   4.069   0.211   1.518
  939SOL    HW3 3787   4.153   0.088   1.543
  939SOL    MW4 3788   4.089   0.128   1.500
  940SOL     OW 3789   4.033   0.398   1.593
  940SOL    HW2 3790   4.029   0.389   1.688
  940SOL    HW3 3791   3.948   0.434   1.568
  940SOL    MW4 3792   4.021   0.401   1.602
  941SOL     OW 3793   4.255   0.505   1.476
  941SOL    HW2 3794   4.185   0.459   1.522
  941SOL    HW3 3795   4.336   0.473   1.516
  941SOL    MW4 3796   4.257   0.495   1.488
  942SOL     OW 3797   4.280   0.764   1.598
  942SOL    HW2 3798   4.263   0.685   1.545
  942SOL    HW3 3799   4.371   0.785   1.580
  942SOL    MW4 3800   4.290   0.756   1.588
  943SOL     OW 3801   4.057   0.887   1.497
  943SOL    HW2 3802   4.129   0.866   1.556
  943SOL    HW3 3803   3.980   0.849   1.538
  943SOL    MW4 3804   4.056   0.879   1.510
  944SOL     OW 3805   4.052   1.159   1.580
  944SOL    HW2 3806   4.065   1.147   1.674
  944SOL    HW3 3807   4.053   1.071   1.544
  944SOL    MW4 3808   4.054   1.146   1.588
  945SOL     OW 3809   4.282   1.277   1.503
  945SOL    HW2 3810   4.205   1.231   1.537
  945SOL    HW3 3811   4.356   1.226   1.535
  945SOL    MW4 3812   4.282   1.264   1.512
  946SOL     OW 3813   4.288   1.524   1.650
  946SOL    HW2 3814   4.298   1.437   1.610
  946SOL    HW3 3815   4.359   1.576   1.613
  946SOL    MW4 3816   4.299   1.519   1.640
  947SOL     OW 3817   4.076   1.610   1.515
  947SOL    HW2 3818   4.149   1.564   1.556
  947SOL    HW3 3819   3.998   1.578   1.561
  947SOL    MW4 3820   4.075   1.600   1.526
  948SOL     OW 3821   4.022   1.878   1.626
  948SOL    HW2 3822   4.024   1.795   1.577
  948SOL    HW3 3823   3.938   1.918   1.600
  948SOL    MW4 3824   4.011   1.872   1.616
  949SOL     OW 3825   4.229   2.040   1.535
  949SOL    HW2 3826   4.168   1.972   1.565
  949SOL    HW3 3827   4.235   2.026   1.440
  949SOL    MW4 3828   4.222   2.029   1.526
  950SOL     OW 3829   4.217   2.311   1.614
  950SOL    HW2 3830   4.216   2.294   1.708
  950SOL    HW3 3831   4.236   2.226   1.574
  950SOL    MW4 3832   4.219   2.297   1.621
  951SOL     OW 3833   4.011   2.462   1.520
  951SOL    HW2 3834   4.015   2.557   1.535
  951SOL    HW3 3835   4.088   2.428   1.565
  951SOL    MW4 3836   4.022   2.470   1.528
  952SOL     OW 3837   4.029   2.711   1.631
  952SOL    HW2 3838   4.010   2.700   1.725
  952SOL    HW3 3839   4.109   2.763   1.628
  952SOL    MW4 3840   4.037   2.717   1.643
  953SOL     OW 3841   4.248   2.857   1.527
  953SOL    HW2 3842   4.282   2.946   1.535
  953SOL    HW3 3843   4.244   2.840   1.433
  953SOL    MW4 3844   4.252   2.866   1.516
  954SOL     OW 3845   4.285   3.126   1.611
  954SOL    HW2 3846   4.289   3.113   1.706
  954SOL    HW3 3847   4.368   3.169   1.589
  954SOL    MW4 3848   4.297   3.130   1.621
  955SOL     OW 3849   4.019   3.241   1.565
  955SOL    HW2 3850   4.021   3.334   1.587
  955SOL    HW3 3851   4.106   3.209   1.590
  955SOL    MW4 3852   4.031   3.249   1.571
  956SOL     OW 3853   4.017   3.508   1.626
  956SOL    HW2 3854   4.011   3.511   1.721
  956SOL    HW3 3855   4.099   3.554   1.606
  956SOL    MW4 3856   4.027   3.515   1.636
  957SOL     OW 3857   4.266   3.612   1.520
  957SOL    HW2 3858   4.263   3.705   1.545
  957SOL    HW3 3859   4.271   3.613   1.425
  957SOL    MW4 3860   4.266   3.625   1.511
  958SOL     OW 3861   4.249   3.875   1.633
  958SOL    HW2 3862   4.171   3.914   1.594
  958SOL    HW3 3863   4.320   3.934   1.609
  958SOL    MW4 3864   4.248   3.888   1.624
  959SOL     OW 3865   4.041   4.006   1.503
  959SOL    HW2 3866   4.056   4.096   1.534
  959SOL    HW3 3867   4.044   4.012   1.408
  959SOL    MW4 3868   4.043   4.019   1.495
  960SOL     OW 3869   4.078   4.267   1.593
  960SOL    HW2 3870   4.067   4.256   1.687
  960SOL    HW3 3871   3.997   4.309   1.564
  960SOL    MW4 3872   4.066   4.271   1.601
  961SOL     OW 3873   4.291   4.422   1.485
  961SOL    HW2 3874   4.220   4.368   1.518
  961SOL    HW3 3875   4.287   4.411   1.390
  961SOL    MW4 3876   4.281   4.414   1.476
  962SOL     OW 3877   0.223   4.648   1.926
  962SOL    HW2 3878   0.302   4.692   1.958
  962SOL    HW3 3879   0.228   4.656   1.831
  962SOL    MW4 3880   0.234   4.655   1.918
  963SOL     OW 3881   4.483   0.117   1.987
  963SOL    HW2 3882   4.491   0.200   1.939
  963SOL    HW3 3883   4.568   0.074   1.974
  963SOL    MW4 3884   4.495   0.122   1.979
  964SOL     OW 3885   4.482   0.396   1.853
  964SOL    HW2 3886   4.409   0.431   1.903
  964SOL    HW3 3887   4.560   0.423   1.903
  964SOL    MW4 3888   4.483   0.404   1.866
  965SOL     OW 3889   0.222   0.503   1.983
  965SOL    HW2 3890   0.300   0.452   1.959
  965SOL    HW3 3891   0.233   0.586   1.938
  965SOL    MW4 3892   0.234   0.507   1.974
  966SOL     OW 3893   0.229   0.761   1.888
  966SOL    HW2 3894   0.289   0.829   1.919
  966SOL    HW3 3895   0.247   0.754   1.795
  966SOL    MW4 3896   0.239   0.769   1.880
  967SOL     OW 3897   0.010   0.880   2.011
  967SOL    HW2 3898  -0.063   0.839   1.964
  967SOL    HW3 3899   0.088   0.834   1.981
  967SOL    MW4 3900   0.011   0.869   2.001
  968SOL     OW 3901   0.037   1.156   1.913
  968SOL    HW2 3902  -0.050   1.193   1.931
  968SOL    HW3 3903   0.030   1.064   1.939
  968SOL    MW4 3904   0.024   1.149   1.919
  969SOL     OW 3905   0.272   1.305   2.002
  969SOL    HW2 3906   0.256   1.395   1.973
  969SOL    HW3 3907   0.191   1.258   1.979
  969SOL    MW4 3908   0.259   1.311   1.995
  970SOL     OW 3909   0.237   1.562   1.881
  970SOL    HW2 3910   0.309   1.623   1.895
  970SOL    HW3 3911   0.162   1.604   1.923
  970SOL    MW4 3912   0.237   1.576   1.889
  971SOL     OW 3913   0.009   1.698   1.993
  971SOL    HW2 3914   0.017   1.685   2.087
  971SOL    HW3 3915  -0.065   1.643   1.967
  971SOL    MW4 3916   0.000   1.689   2.002
  972SOL     OW 3917   0.014   1.944   1.890
  972SOL    HW2 3918  -0.060   1.986   1.933
  972SOL    HW3 3919   0.018   1.857   1.928
  972SOL    MW4 3920   0.005   1.938   1.900
  973SOL     OW 3921   0.259   2.059   2.007
  973SOL    HW2 3922   0.241   2.151   1.987
  973SOL    HW3 3923   0.186   2.012   1.967
  973SOL    MW4 3924   0.247   2.065   1.999
  974SOL     OW 3925   0.219   2.313   1.897
  974SOL    HW2 3926   0.293   2.365   1.928
  974SOL    HW3 3927   0.143   2.349   1.942
  974SOL    MW4 3928   0.219   2.325   1.907
  975SOL     OW 3929   4.455   2.451   1.997
  975SOL    HW2 3930   4.474   2.454   2.090
  975SOL    HW3 3931   4.471   2.541   1.967
  975SOL    MW4 3932   4.460   2.463   2.005
  976SOL     OW 3933   4.485   2.737   1.917
  976SOL    HW2 3934   4.401   2.774   1.945
  976SOL    HW3 3935   4.486   2.750   1.822
  976SOL    MW4 3936   4.474   2.744   1.908
  977SOL     OW 3937   0.194   2.895   2.027
  977SOL    HW2 3938   0.182   2.987   2.003
  977SOL    HW3 3939   0.117   2.850   1.992
  977SOL    MW4 3940   0.182   2.901   2.020
  978SOL     OW 3941   0.216   3.162   1.944
  978SOL    HW2 3942   0.293   3.207   1.977
  978SOL    HW3 3943   0.238   3.138   1.854
  978SOL    MW4 3944   0.229   3.165   1.936
  979SOL     OW 3945   4.465   3.260   2.015
  979SOL    HW2 3946   4.404   3.198   1.975
  979SOL    HW3 3947   4.550   3.237   1.978
  979SOL    MW4 3948   4.468   3.249   2.005
  980SOL     OW 3949   4.482   3.498   1.868
  980SOL    HW2 3950   4.561   3.534   1.909
  980SOL    HW3 3951   4.466   3.415   1.913
  980SOL    MW4 3952   4.490   3.492   1.879
  981SOL     OW 3953   0.205   3.629   1.969
  981SOL    HW2 3954   0.223   3.621   2.062
  981SOL    HW3 3955   0.284   3.597   1.926
  981SOL    MW4 3956   0.217   3.624   1.976
  982SOL     OW 3957   0.232   3.879   1.883
  982SOL    HW2 3958   0.310   3.913   1.926
  982SOL    HW3 3959   0.215   3.795   1.927
  982SOL    MW4 3960   0.240   3.872   1.895
  983SOL     OW 3961   0.005   4.017   1.990
  983SOL    HW2 3962   0.006   4.098   1.938
  983SOL    HW3 3963   0.086   3.973   1.967
  983SOL    MW4 3964   0.016   4.022   1.980
  984SOL     OW 3965   0.009   4.257   1.865
  984SOL    HW2 3966  -0.071   4.291   1.906
  984SOL    HW3 3967   0.080   4.293   1.918
  984SOL    MW4 3968   0.008   4.266   1.878
  985SOL     OW 3969   0.211   4.377   1.980
  985SOL    HW2 3970   0.217   4.387   2.075
  985SOL    HW3 3971   0.230   4.465   1.946
  985SOL    MW4 3972   0.214   4.390   1.988
  986SOL     OW 3973   0.688   0.028   1.904
  986SOL    HW2 3974   0.711  -0.062   1.925
  986SOL    HW3 3975   0.684   0.031   1.808
  986SOL    MW4 3976   0.690   0.016   1.894
  987SOL     OW 3977   0.448   0.098   2.014
  987SOL    HW2 3978   0.448   0.190   1.988
  987SOL    HW3 3979   0.534   0.066   1.987
  987SOL    MW4 3980   0.460   0.106   2.007
  988SOL     OW 3981   0.467   0.358   1.902
  988SOL    HW2 3982   0.551   0.391   1.935
  988SOL    HW3 3983   0.477   0.357   1.807
  988SOL    MW4 3984   0.480   0.362   1.894
  989SOL     OW 3985   0.674   0.517   2.001
  989SOL    HW2 3986   0.679   0.513   2.097
  989SOL    HW3 3987   0.761   0.491   1.972
  989SOL    MW4 3988   0.686   0.513   2.010
  990SOL     OW 3989   0.643   0.738   1.873
  990SOL    HW2 3990   0.686   0.802   1.931
  990SOL    HW3 3991   0.653   0.655   1.918
  990SOL    MW4 3992   0.650   0.736   1.887
  991SOL     OW 3993   0.439   0.912   1.977
  991SOL    HW2 3994   0.469   1.001   1.957
  991SOL    HW3 3995   0.499   0.856   1.928
  991SOL    MW4 3996   0.451   0.917   1.968
  992SOL     OW 3997   0.482   1.178   1.903
  992SOL    HW2 3998   0.405   1.223   1.937
  992SOL    HW3 3999   0.473   1.183   1.808
  992SOL    MW4 4000   0.471   1.185   1.895
  993SOL     OW 4001   0.711   1.299   1.981
  993SOL    HW2 4002   0.722   1.310   2.075
  993SOL    HW3 4003   0.637   1.238   1.973
  993SOL    MW4 4004   0.703   1.292   1.993
  994SOL     OW 4005   0.666   1.560   1.857
  994SOL    HW2 4006   0.679   1.472   1.893
  994SOL    HW3 4007   0.655   1.546   1.763
  994SOL    MW4 4008   0.666   1.546   1.849
  995SOL     OW 4009   0.465   1.713   1.973
  995SOL    HW2 4010   0.460   1.696   2.067
  995SOL    HW3 4011   0.542   1.664   1.944
  995SOL    MW4 4012   0.475   1.704   1.982
  996SOL     OW 4013   0.495   1.968   1.898
  996SOL    HW2 4014   0.499   1.879   1.931
  996SOL    HW3 4015   0.424   2.009   1.947
  996SOL    MW4 4016   0.486   1.962   1.909
  997SOL     OW 4017   0.728   2.105   2.000
  997SOL    HW2 4018   0.720   2.092   2.095
  997SOL    HW3 4019   0.647   2.067   1.965
  997SOL    MW4 4020   0.716   2.098   2.008
  998SOL     OW 4021   0.681   2.350   1.890
  998SOL    HW2 4022   0.701   2.274   1.945
  998SOL    HW3 4023   0.678   2.315   1.801
  998SOL    MW4 4024   0.683   2.335   1.885
  999SOL     OW 4025   0.435   2.453   1.995
  999SOL    HW2 4026   0.454   2.459   2.088
  999SOL    HW3 4027   0.515   2.415   1.957
  999SOL    MW4 4028   0.448   2.449   2.002
 1000SOL     OW 4029   0.413   2.715   1.899
 1000SOL    HW2 4030   0.397   2.639   1.956
 1000SOL    HW3 4031   0.343   2.777   1.921
 1000SOL    MW4 4032   0.401   2.713   1.909
 1001SOL     OW 4033   0.677   2.819   1.981
 1001SOL    HW2 4034   0.663   2.817   2.076
 1001SOL    HW3 4035   0.596   2.784   1.945
 1001SOL    MW4 4036   0.664   2.814   1.989
 1002SOL     OW 4037   0.655   3.090   1.913
 1002SOL    HW2 4038   0.652   3.002   1.950
 1002SOL    HW3 4039   0.665   3.076   1.819
 1002SOL    MW4 4040   0.656   3.076   1.905
 1003SOL     OW 4041   0.455   3.265   2.005
 1003SOL    HW2 4042   0.454   3.336   1.941
 1003SOL    HW3 4043   0.522   3.205   1.973
 1003SOL    MW4 4044   0.463   3.266   1.992
 1004SOL     OW 4045   0.456   3.505   1.876
 1004SOL    HW2 4046   0.540   3.543   1.902
 1004SOL    HW3 4047   0.459   3.504   1.780
 1004SOL    MW4 4048   0.467   3.510   1.867
 1005SOL     OW 4049   0.686   3.630   1.955
 1005SOL    HW2 4050   0.776   3.597   1.964
 1005SOL    HW3 4051   0.697   3.723   1.932
 1005SOL    MW4 4052   0.700   3.638   1.953
 1006SOL     OW 4053   0.627   3.895   1.857
 1006SOL    HW2 4054   0.714   3.923   1.886
 1006SOL    HW3 4055   0.628   3.911   1.762
 1006SOL    MW4 4056   0.639   3.901   1.848
 1007SOL     OW 4057   0.428   4.030   2.000
 1007SOL    HW2 4058   0.449   4.120   1.975
 1007SOL    HW3 4059   0.497   3.977   1.961
 1007SOL    MW4 4060   0.440   4.035   1.992
 1008SOL     OW 4061   0.474   4.299   1.907
 1008SOL    HW2 4062   0.383   4.323   1.922
 1008SOL    HW3 4063   0.479   4.282   1.812
 1008SOL    MW4 4064   0.462   4.300   1.896
 1009SOL     OW 4065   0.705   4.430   1.960
 1009SOL    HW2 4066   0.768   4.371   1.919
 1009SOL    HW3 4067   0.620   4.391   1.939
 1009SOL    MW4 4068   0.702   4.417   1.952
 1010SOL     OW 4069   1.083   4.618   1.859
 1010SOL    HW2 4070   1.157   4.665   1.898
 1010SOL    HW3 4071   1.077   4.536   1.908
 1010SOL    MW4 4072   1.092   4.614   1.871
 1011SOL     OW 4073   0.921   0.137   1.991
 1011SOL    HW2 4074   0.972   0.058   1.976
 1011SOL    HW3 4075   0.832   0.113   1.966
 1011SOL    MW4 4076   0.916   0.124   1.986
 1012SOL     OW 4077   0.920   0.391   1.877
 1012SOL    HW2 4078   1.001   0.434   1.905
 1012SOL    HW3 4079   0.923   0.305   1.919
 1012SOL    MW4 4080   0.931   0.385   1.886
 1013SOL     OW 4081   1.171   0.496   1.965
 1013SOL    HW2 4082   1.253   0.458   1.932
 1013SOL    HW3 4083   1.172   0.586   1.934
 1013SOL    MW4 4084   1.182   0.503   1.956
 1014SOL     OW 4085   1.097   0.776   1.873
 1014SOL    HW2 4086   1.165   0.837   1.901
 1014SOL    HW3 4087   1.019   0.801   1.924
 1014SOL    MW4 4088   1.095   0.787   1.883
 1015SOL     OW 4089   0.876   0.856   2.000
 1015SOL    HW2 4090   0.894   0.876   2.092
 1015SOL    HW3 4091   0.884   0.941   1.956
 1015SOL    MW4 4092   0.880   0.870   2.006
 1016SOL     OW 4093   0.906   1.131   1.916
 1016SOL    HW2 4094   0.839   1.195   1.940
 1016SOL    HW3 4095   0.910   1.134   1.821
 1016SOL    MW4 4096   0.898   1.140   1.907
 1017SOL     OW 4097   1.135   1.280   1.999
 1017SOL    HW2 4098   1.128   1.373   1.978
 1017SOL    HW3 4099   1.052   1.243   1.970
 1017SOL    MW4 4100   1.123   1.288   1.992
 1018SOL     OW 4101   1.111   1.539   1.910
 1018SOL    HW2 4102   1.026   1.575   1.937
 1018SOL    HW3 4103   1.100   1.515   1.818
 1018SOL    MW4 4104   1.099   1.541   1.902
 1019SOL     OW 4105   0.877   1.671   1.977
 1019SOL    HW2 4106   0.891   1.757   1.937
 1019SOL    HW3 4107   0.801   1.635   1.931
 1019SOL    MW4 4108   0.869   1.677   1.966
 1020SOL     OW 4109   0.904   1.934   1.887
 1020SOL    HW2 4110   0.837   1.993   1.922
 1020SOL    HW3 4111   0.899   1.945   1.792
 1020SOL    MW4 4112   0.895   1.944   1.879
 1021SOL     OW 4113   1.105   2.050   2.032
 1021SOL    HW2 4114   1.115   2.136   1.992
 1021SOL    HW3 4115   1.035   2.008   1.981
 1021SOL    MW4 4116   1.097   2.056   2.020
 1022SOL     OW 4117   1.111   2.302   1.907
 1022SOL    HW2 4118   1.190   2.352   1.929
 1022SOL    HW3 4119   1.101   2.312   1.813
 1022SOL    MW4 4120   1.120   2.310   1.898
 1023SOL     OW 4121   0.907   2.449   2.021
 1023SOL    HW2 4122   0.983   2.400   1.990
 1023SOL    HW3 4123   0.834   2.417   1.967
 1023SOL    MW4 4124   0.907   2.438   2.010
 1024SOL     OW 4125   0.929   2.699   1.922
 1024SOL    HW2 4126   0.934   2.615   1.968
 1024SOL    HW3 4127   0.850   2.741   1.957
 1024SOL    MW4 4128   0.919   2.694   1.933
 1025SOL     OW 4129   1.141   2.848   2.015
 1025SOL    HW2 4130   1.122   2.857   2.109
 1025SOL    HW3 4131   1.063   2.805   1.979
 1025SOL    MW4 4132   1.128   2.843   2.023
 1026SOL     OW 4133   1.140   3.110   1.923
 1026SOL    HW2 4134   1.056   3.140   1.958
 1026SOL    HW3 4135   1.145   3.018   1.949
 1026SOL    MW4 4136   1.130   3.102   1.931
 1027SOL     OW 4137   0.887   3.225   1.990
 1027SOL    HW2 4138   0.889   3.221   2.085
 1027SOL    HW3 4139   0.811   3.172   1.965
 1027SOL    MW4 4140   0.877   3.218   1.999
 1028SOL     OW 4141   0.931   3.485   1.907
 1028SOL    HW2 4142   0.907   3.397   1.938
 1028SOL    HW3 4143   0.909   3.485   1.814
 1028SOL    MW4 4144   0.925   3.473   1.899
 1029SOL     OW 4145   1.152   3.623   1.982
 1029SOL    HW2 4146   1.159   3.611   2.077
 1029SOL    HW3 4147   1.079   3.566   1.956
 1029SOL    MW4 4148   1.143   3.614   1.991
 1030SOL     OW 4149   1.135   3.888   1.883
 1030SOL    HW2 4150   1.147   3.803   1.924
 1030SOL    HW3 4151   1.155   3.874   1.790
 1030SOL    MW4 4152   1.139   3.875   1.876
 1031SOL     OW 4153   0.888   3.984   1.965
 1031SOL    HW2 4154   0.899   3.993   2.059
 1031SOL    HW3 4155   0.967   3.939   1.935
 1031SOL    MW4 4156   0.900   3.979   1.973
 1032SOL     OW 4157   0.896   4.245   1.877
 1032SOL    HW2 4158   0.970   4.277   1.928
 1032SOL    HW3 4159   0.880   4.156   1.910
 1032SOL    MW4 4160   0.904   4.237   1.888
 1033SOL     OW 4161   1.098   4.383   1.984
 1033SOL    HW2 4162   1.097   4.389   2.080
 1033SOL    HW3 4163   1.184   4.345   1.964
 1033SOL    MW4 4164   1.110   4.378   1.994
 1034SOL     OW 4165   1.549   4.659   1.874
 1034SOL    HW2 4166   1.623   4.696   1.922
 1034SOL    HW3 4167   1.545   4.567   1.902
 1034SOL    MW4 4168   1.558   4.652   1.884
 1035SOL     OW 4169   1.298   0.089   1.958
 1035SOL    HW2 4170   1.300   0.088   2.054
 1035SOL    HW3 4171   1.386   0.064   1.932
 1035SOL    MW4 4172   1.310   0.086   1.967
 1036SOL     OW 4173   1.381   0.360   1.880
 1036SOL    HW2 4174   1.363   0.269   1.900
 1036SOL    HW3 4175   1.383   0.364   1.784
 1036SOL    MW4 4176   1.379   0.349   1.870
 1037SOL     OW 4177   1.601   0.474   2.008
 1037SOL    HW2 4178   1.677   0.438   1.963
 1037SOL    HW3 4179   1.527   0.424   1.974
 1037SOL    MW4 4180   1.601   0.463   1.997
 1038SOL     OW 4181   1.566   0.750   1.936
 1038SOL    HW2 4182   1.646   0.797   1.961
 1038SOL    HW3 4183   1.573   0.665   1.979
 1038SOL    MW4 4184   1.578   0.745   1.945
 1039SOL     OW 4185   1.335   0.876   2.013
 1039SOL    HW2 4186   1.325   0.870   2.108
 1039SOL    HW3 4187   1.419   0.834   1.995
 1039SOL    MW4 4188   1.345   0.870   2.023
 1040SOL     OW 4189   1.362   1.155   1.894
 1040SOL    HW2 4190   1.354   1.069   1.936
 1040SOL    HW3 4191   1.283   1.202   1.919
 1040SOL    MW4 4192   1.351   1.150   1.903
 1041SOL     OW 4193   1.620   1.265   1.992
 1041SOL    HW2 4194   1.606   1.357   1.971
 1041SOL    HW3 4195   1.537   1.222   1.969
 1041SOL    MW4 4196   1.607   1.271   1.986
 1042SOL     OW 4197   1.565   1.509   1.914
 1042SOL    HW2 4198   1.640   1.565   1.934
 1042SOL    HW3 4199   1.491   1.553   1.955
 1042SOL    MW4 4200   1.565   1.522   1.922
 1043SOL     OW 4201   1.336   1.643   1.991
 1043SOL    HW2 4202   1.333   1.634   2.086
 1043SOL    HW3 4203   1.250   1.613   1.961
 1043SOL    MW4 4204   1.324   1.638   1.999
 1044SOL     OW 4205   1.327   1.915   1.918
 1044SOL    HW2 4206   1.337   1.825   1.946
 1044SOL    HW3 4207   1.256   1.950   1.971
 1044SOL    MW4 4208   1.319   1.908   1.929
 1045SOL     OW 4209   1.564   2.057   1.990
 1045SOL    HW2 4210   1.576   2.144   1.952
 1045SOL    HW3 4211   1.478   2.030   1.960
 1045SOL    MW4 4212   1.555   2.065   1.981
 1046SOL     OW 4213   1.580   2.306   1.880
 1046SOL    HW2 4214   1.643   2.366   1.920
 1046SOL    HW3 4215   1.587   2.323   1.786
 1046SOL    MW4 4216   1.589   2.316   1.873
 1047SOL     OW 4217   1.332   2.435   1.962
 1047SOL    HW2 4218   1.347   2.520   1.922
 1047SOL    HW3 4219   1.414   2.387   1.948
 1047SOL    MW4 4220   1.345   2.440   1.955
 1048SOL     OW 4221   1.358   2.713   1.921
 1048SOL    HW2 4222   1.291   2.771   1.958
 1048SOL    HW3 4223   1.344   2.718   1.826
 1048SOL    MW4 4224   1.347   2.722   1.913
 1049SOL     OW 4225   1.570   2.855   1.984
 1049SOL    HW2 4226   1.639   2.807   1.939
 1049SOL    HW3 4227   1.488   2.820   1.949
 1049SOL    MW4 4228   1.568   2.844   1.974
 1050SOL     OW 4229   1.556   3.111   1.907
 1050SOL    HW2 4230   1.550   3.018   1.931
 1050SOL    HW3 4231   1.548   3.111   1.811
 1050SOL    MW4 4232   1.554   3.099   1.897
 1051SOL     OW 4233   1.347   3.253   2.036
 1051SOL    HW2 4234   1.420   3.199   2.008
 1051SOL    HW3 4235   1.269   3.208   2.003
 1051SOL    MW4 4236   1.346   3.240   2.028
 1052SOL     OW 4237   1.358   3.479   1.884
 1052SOL    HW2 4238   1.365   3.410   1.950
 1052SOL    HW3 4239   1.281   3.529   1.909
 1052SOL    MW4 4240   1.349   3.476   1.896
 1053SOL     OW 4241   1.582   3.589   1.984
 1053SOL    HW2 4242   1.576   3.576   2.079
 1053SOL    HW3 4243   1.499   3.558   1.949
 1053SOL    MW4 4244   1.570   3.583   1.992
 1054SOL     OW 4245   1.609   3.847   1.907
 1054SOL    HW2 4246   1.684   3.892   1.944
 1054SOL    HW3 4247   1.613   3.758   1.942
 1054SOL    MW4 4248   1.619   3.841   1.916
 1055SOL     OW 4249   1.372   4.001   1.991
 1055SOL    HW2 4250   1.448   3.950   1.963
 1055SOL    HW3 4251   1.298   3.961   1.945
 1055SOL    MW4 4252   1.372   3.989   1.981
 1056SOL     OW 4253   1.340   4.257   1.881
 1056SOL    HW2 4254   1.340   4.170   1.922
 1056SOL    HW3 4255   1.347   4.239   1.788
 1056SOL    MW4 4256   1.341   4.243   1.874
 1057SOL     OW 4257   1.557   4.399   1.950
 1057SOL    HW2 4258   1.546   4.401   2.045
 1057SOL    HW3 4259   1.473   4.364   1.918
 1057SOL    MW4 4260   1.544   4.395   1.958
 1058SOL     OW 4261   1.982   4.605   1.857
 1058SOL    HW2 4262   2.062   4.652   1.881
 1058SOL    HW3 4263   1.984   4.525   1.911
 1058SOL    MW4 4264   1.993   4.600   1.867
 1059SOL     OW 4265   1.785   0.108   1.968
 1059SOL    HW2 4266   1.786   0.104   2.064
 1059SOL    HW3 4267   1.854   0.048   1.941
 1059SOL    MW4 4268   1.794   0.099   1.977
 1060SOL     OW 4269   1.806   0.355   1.853
 1060SOL    HW2 4270   1.781   0.266   1.879
 1060SOL    HW3 4271   1.786   0.358   1.760
 1060SOL    MW4 4272   1.800   0.343   1.845
 1061SOL     OW 4273   2.029   0.475   1.976
 1061SOL    HW2 4274   2.019   0.568   1.959
 1061SOL    HW3 4275   1.954   0.434   1.932
 1061SOL    MW4 4276   2.018   0.482   1.968
 1062SOL     OW 4277   2.044   0.746   1.901
 1062SOL    HW2 4278   2.113   0.807   1.925
 1062SOL    HW3 4279   2.035   0.756   1.806
 1062SOL    MW4 4280   2.052   0.756   1.891
 1063SOL     OW 4281   1.817   0.870   1.989
 1063SOL    HW2 4282   1.827   0.945   1.931
 1063SOL    HW3 4283   1.891   0.813   1.968
 1063SOL    MW4 4284   1.828   0.872   1.979
 1064SOL     OW 4285   1.807   1.129   1.831
 1064SOL    HW2 4286   1.742   1.185   1.873
 1064SOL    HW3 4287   1.793   1.141   1.738
 1064SOL    MW4 4288   1.796   1.138   1.825
 1065SOL     OW 4289   1.997   1.273   1.982
 1065SOL    HW2 4290   2.081   1.239   1.952
 1065SOL    HW3 4291   1.933   1.236   1.921
 1065SOL    MW4 4292   1.999   1.264   1.970
 1066SOL     OW 4293   2.000   1.541   1.936
 1066SOL    HW2 4294   2.012   1.446   1.941
 1066SOL    HW3 4295   1.996   1.559   1.842
 1066SOL    MW4 4296   2.001   1.531   1.924
 1067SOL     OW 4297   1.759   1.675   2.008
 1067SOL    HW2 4298   1.768   1.761   1.965
 1067SOL    HW3 4299   1.846   1.636   2.000
 1067SOL    MW4 4300   1.772   1.681   2.001
 1068SOL     OW 4301   1.787   1.917   1.892
 1068SOL    HW2 4302   1.705   1.952   1.928
 1068SOL    HW3 4303   1.781   1.933   1.798
 1068SOL    MW4 4304   1.776   1.924   1.884
 1069SOL     OW 4305   1.997   2.071   2.038
 1069SOL    HW2 4306   2.074   2.030   1.999
 1069SOL    HW3 4307   1.922   2.030   1.995
 1069SOL    MW4 4308   1.997   2.060   2.027
 1070SOL     OW 4309   2.023   2.325   1.886
 1070SOL    HW2 4310   2.096   2.367   1.931
 1070SOL    HW3 4311   2.028   2.233   1.913
 1070SOL    MW4 4312   2.033   2.319   1.896
 1071SOL     OW 4313   1.778   2.474   1.976
 1071SOL    HW2 4314   1.802   2.485   2.068
 1071SOL    HW3 4315   1.850   2.424   1.938
 1071SOL    MW4 4316   1.791   2.469   1.984
 1072SOL     OW 4317   1.772   2.719   1.857
 1072SOL    HW2 4318   1.785   2.637   1.905
 1072SOL    HW3 4319   1.775   2.694   1.765
 1072SOL    MW4 4320   1.774   2.705   1.851
 1073SOL     OW 4321   2.004   2.821   2.001
 1073SOL    HW2 4322   1.999   2.815   2.096
 1073SOL    HW3 4323   1.914   2.806   1.971
 1073SOL    MW4 4324   1.992   2.818   2.010
 1074SOL     OW 4325   2.030   3.096   1.845
 1074SOL    HW2 4326   1.953   3.139   1.882
 1074SOL    HW3 4327   2.032   3.010   1.888
 1074SOL    MW4 4328   2.020   3.090   1.856
 1075SOL     OW 4329   1.810   3.229   1.960
 1075SOL    HW2 4330   1.805   3.247   2.054
 1075SOL    HW3 4331   1.732   3.177   1.942
 1075SOL    MW4 4332   1.799   3.224   1.970
 1076SOL     OW 4333   1.808   3.499   1.841
 1076SOL    HW2 4334   1.802   3.405   1.858
 1076SOL    HW3 4335   1.737   3.537   1.892
 1076SOL    MW4 4336   1.797   3.492   1.850
 1077SOL     OW 4337   2.026   3.640   1.968
 1077SOL    HW2 4338   2.026   3.722   1.918
 1077SOL    HW3 4339   1.964   3.584   1.922
 1077SOL    MW4 4340   2.018   3.643   1.955
 1078SOL     OW 4341   2.033   3.886   1.836
 1078SOL    HW2 4342   2.113   3.932   1.860
 1078SOL    HW3 4343   2.041   3.871   1.742
 1078SOL    MW4 4344   2.044   3.890   1.827
 1079SOL     OW 4345   1.821   3.982   1.985
 1079SOL    HW2 4346   1.808   4.071   1.951
 1079SOL    HW3 4347   1.895   3.949   1.935
 1079SOL    MW4 4348   1.829   3.990   1.974
 1080SOL     OW 4349   1.793   4.247   1.884
 1080SOL    HW2 4350   1.719   4.306   1.900
 1080SOL    HW3 4351   1.797   4.238   1.789
 1080SOL    MW4 4352   1.783   4.254   1.874
 1081SOL     OW 4353   2.036   4.357   1.991
 1081SOL    HW2 4354   2.099   4.290   1.966
 1081SOL    HW3 4355   1.951   4.325   1.959
 1081SOL    MW4 4356   2.033   4.344   1.984
 1082SOL     OW 4357   2.469   4.658   1.857
 1082SOL    HW2 4358   2.522   4.710   1.916
 1082SOL    HW3 4359   2.487   4.567   1.881
 1082SOL    MW4 4360   2.478   4.653   1.868
 1083SOL     OW 4361   2.218   0.059   1.933
 1083SOL    HW2 4362   2.224   0.072   2.028
 1083SOL    HW3 4363   2.297   0.009   1.911
 1083SOL    MW4 4364   2.230   0.054   1.943
 1084SOL     OW 4365   2.229   0.343   1.856
 1084SOL    HW2 4366   2.219   0.249   1.876
 1084SOL    HW3 4367   2.160   0.386   1.906
 1084SOL    MW4 4368   2.219   0.336   1.865
 1085SOL     OW 4369   2.438   0.484   1.963
 1085SOL    HW2 4370   2.523   0.457   1.928
 1085SOL    HW3 4371   2.374   0.435   1.911
 1085SOL    MW4 4372   2.441   0.474   1.952
 1086SOL     OW 4373   2.437   0.749   1.882
 1086SOL    HW2 4374   2.449   0.655   1.897
 1086SOL    HW3 4375   2.440   0.758   1.787
 1086SOL    MW4 4376   2.439   0.738   1.872
 1087SOL     OW 4377   2.253   0.928   1.981
 1087SOL    HW2 4378   2.248   0.905   2.073
 1087SOL    HW3 4379   2.319   0.870   1.944
 1087SOL    MW4 4380   2.261   0.917   1.988
 1088SOL     OW 4381   2.233   1.179   1.878
 1088SOL    HW2 4382   2.290   1.236   1.930
 1088SOL    HW3 4383   2.241   1.093   1.919
 1088SOL    MW4 4384   2.242   1.175   1.890
 1089SOL     OW 4385   2.442   1.279   2.015
 1089SOL    HW2 4386   2.451   1.266   2.110
 1089SOL    HW3 4387   2.479   1.366   1.999
 1089SOL    MW4 4388   2.448   1.289   2.026
 1090SOL     OW 4389   2.463   1.549   1.922
 1090SOL    HW2 4390   2.384   1.592   1.955
 1090SOL    HW3 4391   2.454   1.553   1.827
 1090SOL    MW4 4392   2.451   1.555   1.914
 1091SOL     OW 4393   2.232   1.678   2.019
 1091SOL    HW2 4394   2.229   1.655   2.112
 1091SOL    HW3 4395   2.153   1.639   1.982
 1091SOL    MW4 4396   2.221   1.670   2.027
 1092SOL     OW 4397   2.195   1.923   1.900
 1092SOL    HW2 4398   2.277   1.966   1.925
 1092SOL    HW3 4399   2.195   1.841   1.949
 1092SOL    MW4 4400   2.206   1.918   1.910
 1093SOL     OW 4401   2.440   2.055   1.949
 1093SOL    HW2 4402   2.530   2.027   1.935
 1093SOL    HW3 4403   2.439   2.148   1.925
 1093SOL    MW4 4404   2.451   2.064   1.944
 1094SOL     OW 4405   2.457   2.319   1.886
 1094SOL    HW2 4406   2.526   2.376   1.923
 1094SOL    HW3 4407   2.375   2.362   1.911
 1094SOL    MW4 4408   2.456   2.333   1.894
 1095SOL     OW 4409   2.238   2.451   2.012
 1095SOL    HW2 4410   2.211   2.461   2.103
 1095SOL    HW3 4411   2.229   2.539   1.975
 1095SOL    MW4 4412   2.233   2.464   2.019
 1096SOL     OW 4413   2.220   2.707   1.885
 1096SOL    HW2 4414   2.138   2.745   1.915
 1096SOL    HW3 4415   2.220   2.721   1.790
 1096SOL    MW4 4416   2.209   2.714   1.877
 1097SOL     OW 4417   2.465   2.812   1.971
 1097SOL    HW2 4418   2.464   2.905   1.949
 1097SOL    HW3 4419   2.379   2.779   1.944
 1097SOL    MW4 4420   2.453   2.820   1.965
 1098SOL     OW 4421   2.446   3.071   1.860
 1098SOL    HW2 4422   2.366   3.107   1.899
 1098SOL    HW3 4423   2.432   3.080   1.766
 1098SOL    MW4 4424   2.433   3.077   1.853
 1099SOL     OW 4425   2.235   3.216   1.971
 1099SOL    HW2 4426   2.222   3.199   2.064
 1099SOL    HW3 4427   2.154   3.186   1.929
 1099SOL    MW4 4428   2.223   3.210   1.977
 1100SOL     OW 4429   2.252   3.482   1.870
 1100SOL    HW2 4430   2.261   3.395   1.907
 1100SOL    HW3 4431   2.183   3.524   1.922
 1100SOL    MW4 4432   2.244   3.476   1.882
 1101SOL     OW 4433   2.483   3.602   1.949
 1101SOL    HW2 4434   2.475   3.609   2.044
 1101SOL    HW3 4435   2.399   3.567   1.920
 1101SOL    MW4 4436   2.470   3.599   1.958
 1102SOL     OW 4437   2.494   3.833   1.815
 1102SOL    HW2 4438   2.415   3.875   1.849
 1102SOL    HW3 4439   2.497   3.747   1.858
 1102SOL    MW4 4440   2.484   3.827   1.825
 1103SOL     OW 4441   2.284   3.954   1.926
 1103SOL    HW2 4442   2.286   3.947   2.022
 1103SOL    HW3 4443   2.294   4.047   1.909
 1103SOL    MW4 4444   2.286   3.965   1.936
 1104SOL     OW 4445   2.264   4.215   1.864
 1104SOL    HW2 4446   2.323   4.282   1.899
 1104SOL    HW3 4447   2.247   4.243   1.774
 1104SOL    MW4 4448   2.270   4.227   1.857
 1105SOL     OW 4449   2.467   4.395   1.966
 1105SOL    HW2 4450   2.468   4.386   2.061
 1105SOL    HW3 4451   2.543   4.345   1.936
 1105SOL    MW4 4452   2.477   4.387   1.975
 1106SOL     OW 4453   2.861   4.658   1.877
 1106SOL    HW2 4454   2.947   4.689   1.905
 1106SOL    HW3 4455   2.857   4.568   1.908
 1106SOL    MW4 4456   2.872   4.651   1.885
 1107SOL     OW 4457   2.662   0.133   1.989
 1107SOL    HW2 4458   2.677   0.112   2.081
 1107SOL    HW3 4459   2.734   0.091   1.943
 1107SOL    MW4 4460   2.673   0.124   1.995
 1108SOL     OW 4461   2.680   0.376   1.858
 1108SOL    HW2 4462   2.746   0.428   1.903
 1108SOL    HW3 4463   2.681   0.292   1.903
 1108SOL    MW4 4464   2.689   0.372   1.870
 1109SOL     OW 4465   2.901   0.508   1.961
 1109SOL    HW2 4466   2.982   0.459   1.944
 1109SOL    HW3 4467   2.916   0.594   1.922
 1109SOL    MW4 4468   2.914   0.513   1.954
 1110SOL     OW 4469   2.906   0.749   1.832
 1110SOL    HW2 4470   2.978   0.790   1.880
 1110SOL    HW3 4471   2.827   0.777   1.877
 1110SOL    MW4 4472   2.905   0.758   1.844
 1111SOL     OW 4473   2.674   0.857   1.972
 1111SOL    HW2 4474   2.660   0.950   1.955
 1111SOL    HW3 4475   2.588   0.817   1.962
 1111SOL    MW4 4476   2.661   0.864   1.969
 1112SOL     OW 4477   2.642   1.131   1.907
 1112SOL    HW2 4478   2.561   1.178   1.928
 1112SOL    HW3 4479   2.658   1.149   1.815
 1112SOL    MW4 4480   2.634   1.140   1.898
 1113SOL     OW 4481   2.880   1.242   2.000
 1113SOL    HW2 4482   2.881   1.335   1.980
 1113SOL    HW3 4483   2.794   1.212   1.971
 1113SOL    MW4 4484   2.869   1.250   1.994
 1114SOL     OW 4485   2.893   1.501   1.930
 1114SOL    HW2 4486   2.968   1.543   1.971
 1114SOL    HW3 4487   2.895   1.530   1.839
 1114SOL    MW4 4488   2.903   1.510   1.924
 1115SOL     OW 4489   2.691   1.709   1.981
 1115SOL    HW2 4490   2.750   1.643   1.946
 1115SOL    HW3 4491   2.604   1.683   1.948
 1115SOL    MW4 4492   2.687   1.697   1.972
 1116SOL     OW 4493   2.686   1.964   1.886
 1116SOL    HW2 4494   2.764   2.003   1.925
 1116SOL    HW3 4495   2.693   1.871   1.904
 1116SOL    MW4 4496   2.697   1.957   1.893
 1117SOL     OW 4497   2.903   2.066   2.003
 1117SOL    HW2 4498   2.899   2.060   2.098
 1117SOL    HW3 4499   2.981   2.015   1.979
 1117SOL    MW4 4500   2.913   2.058   2.012
 1118SOL     OW 4501   2.892   2.317   1.876
 1118SOL    HW2 4502   2.968   2.358   1.918
 1118SOL    HW3 4503   2.894   2.226   1.907
 1118SOL    MW4 4504   2.903   2.310   1.886
 1119SOL     OW 4505   2.679   2.451   2.002
 1119SOL    HW2 4506   2.669   2.534   1.955
 1119SOL    HW3 4507   2.748   2.405   1.954
 1119SOL    MW4 4508   2.687   2.456   1.989
 1120SOL     OW 4509   2.684   2.694   1.879
 1120SOL    HW2 4510   2.605   2.743   1.903
 1120SOL    HW3 4511   2.689   2.704   1.784
 1120SOL    MW4 4512   2.674   2.702   1.869
 1121SOL     OW 4513   2.892   2.843   2.002
 1121SOL    HW2 4514   2.894   2.926   1.956
 1121SOL    HW3 4515   2.824   2.793   1.957
 1121SOL    MW4 4516   2.883   2.847   1.990
 1122SOL     OW 4517   2.888   3.079   1.867
 1122SOL    HW2 4518   2.958   3.125   1.914
 1122SOL    HW3 4519   2.807   3.108   1.910
 1122SOL    MW4 4520   2.887   3.089   1.879
 1123SOL     OW 4521   2.668   3.203   1.973
 1123SOL    HW2 4522   2.671   3.286   1.926
 1123SOL    HW3 4523   2.587   3.161   1.943
 1123SOL    MW4 4524   2.658   3.209   1.963
 1124SOL     OW 4525   2.693   3.446   1.853
 1124SOL    HW2 4526   2.778   3.479   1.882
 1124SOL    HW3 4527   2.630   3.510   1.885
 1124SOL    MW4 4528   2.696   3.459   1.861
 1125SOL     OW 4529   2.931   3.592   1.934
 1125SOL    HW2 4530   2.936   3.592   2.029
 1125SOL    HW3 4531   3.004   3.536   1.906
 1125SOL    MW4 4532   2.941   3.585   1.943
 1126SOL     OW 4533   2.925   3.893   1.878
 1126SOL    HW2 4534   2.924   3.798   1.891
 1126SOL    HW3 4535   2.909   3.905   1.784
 1126SOL    MW4 4536   2.923   3.882   1.867
 1127SOL     OW 4537   2.682   3.998   1.943
 1127SOL    HW2 4538   2.760   3.942   1.940
 1127SOL    HW3 4539   2.614   3.947   1.900
 1127SOL    MW4 4540   2.684   3.984   1.937
 1128SOL     OW 4541   2.686   4.269   1.871
 1128SOL    HW2 4542   2.707   4.179   1.895
 1128SOL    HW3 4543   2.692   4.271   1.775
 1128SOL    MW4 4544   2.690   4.257   1.861
 1129SOL     OW 4545   2.906   4.391   1.984
 1129SOL    HW2 4546   2.920   4.380   2.078
 1129SOL    HW3 4547   2.824   4.346   1.966
 1129SOL    MW4 4548   2.897   4.384   1.994
 1130SOL     OW 4549   3.371   0.025   1.852
 1130SOL    HW2 4550   3.345  -0.062   1.884
 1130SOL    HW3 4551   3.397   0.010   1.761
 1130SOL    MW4 4552   3.371   0.011   1.844
 1131SOL     OW 4553   3.108   0.107   1.958
 1131SOL    HW2 4554   3.130   0.107   2.050
 1131SOL    HW3 4555   3.186   0.075   1.914
 1131SOL    MW4 4556   3.121   0.102   1.964
 1132SOL     OW 4557   3.131   0.372   1.895
 1132SOL    HW2 4558   3.115   0.283   1.927
 1132SOL    HW3 4559   3.144   0.361   1.800
 1132SOL    MW4 4560   3.131   0.359   1.887
 1133SOL     OW 4561   3.346   0.522   1.980
 1133SOL    HW2 4562   3.410   0.462   1.942
 1133SOL    HW3 4563   3.261   0.482   1.959
 1133SOL    MW4 4564   3.343   0.508   1.972
 1134SOL     OW 4565   3.368   0.766   1.854
 1134SOL    HW2 4566   3.292   0.808   1.895
 1134SOL    HW3 4567   3.373   0.679   1.894
 1134SOL    MW4 4568   3.359   0.760   1.865
 1135SOL     OW 4569   3.125   0.869   1.970
 1135SOL    HW2 4570   3.115   0.874   2.066
 1135SOL    HW3 4571   3.124   0.960   1.941
 1135SOL    MW4 4572   3.123   0.882   1.979
 1136SOL     OW 4573   3.127   1.132   1.881
 1136SOL    HW2 4574   3.201   1.169   1.928
 1136SOL    HW3 4575   3.050   1.175   1.919
 1136SOL    MW4 4576   3.126   1.143   1.892
 1137SOL     OW 4577   3.369   1.233   1.998
 1137SOL    HW2 4578   3.363   1.237   2.094
 1137SOL    HW3 4579   3.360   1.325   1.970
 1137SOL    MW4 4580   3.367   1.246   2.007
 1138SOL     OW 4581   3.356   1.519   1.908
 1138SOL    HW2 4582   3.424   1.577   1.942
 1138SOL    HW3 4583   3.275   1.550   1.948
 1138SOL    MW4 4584   3.354   1.531   1.918
 1139SOL     OW 4585   3.123   1.643   2.004
 1139SOL    HW2 4586   3.124   1.648   2.100
 1139SOL    HW3 4587   3.121   1.734   1.976
 1139SOL    MW4 4588   3.123   1.656   2.013
 1140SOL     OW 4589   3.115   1.899   1.911
 1140SOL    HW2 4590   3.200   1.934   1.937
 1140SOL    HW3 4591   3.114   1.909   1.815
 1140SOL    MW4 4592   3.126   1.905   1.902
 1141SOL     OW 4593   3.341   2.060   1.968
 1141SOL    HW2 4594   3.429   2.021   1.962
 1141SOL    HW3 4595   3.355   2.153   1.953
 1141SOL    MW4 4596   3.355   2.067   1.965
 1142SOL     OW 4597   3.372   2.327   1.899
 1142SOL    HW2 4598   3.285   2.361   1.920
 1142SOL    HW3 4599   3.375   2.328   1.803
 1142SOL    MW4 4600   3.361   2.331   1.889
 1143SOL     OW 4601   3.122   2.409   1.990
 1143SOL    HW2 4602   3.122   2.410   2.086
 1143SOL    HW3 4603   3.128   2.501   1.965
 1143SOL    MW4 4604   3.123   2.421   1.999
 1144SOL     OW 4605   3.112   2.678   1.903
 1144SOL    HW2 4606   3.054   2.736   1.952
 1144SOL    HW3 4607   3.111   2.713   1.814
 1144SOL    MW4 4608   3.104   2.690   1.898
 1145SOL     OW 4609   3.351   2.803   1.995
 1145SOL    HW2 4610   3.348   2.822   2.089
 1145SOL    HW3 4611   3.267   2.760   1.977
 1145SOL    MW4 4612   3.340   2.800   2.005
 1146SOL     OW 4613   3.341   3.063   1.894
 1146SOL    HW2 4614   3.424   3.108   1.912
 1146SOL    HW3 4615   3.352   2.976   1.933
 1146SOL    MW4 4616   3.353   3.058   1.902
 1147SOL     OW 4617   3.105   3.199   1.979
 1147SOL    HW2 4618   3.121   3.284   1.939
 1147SOL    HW3 4619   3.180   3.145   1.953
 1147SOL    MW4 4620   3.117   3.203   1.970
 1148SOL     OW 4621   3.154   3.427   1.845
 1148SOL    HW2 4622   3.195   3.489   1.905
 1148SOL    HW3 4623   3.167   3.465   1.758
 1148SOL    MW4 4624   3.161   3.440   1.841
 1149SOL     OW 4625   3.306   3.622   1.962
 1149SOL    HW2 4626   3.392   3.590   1.935
 1149SOL    HW3 4627   3.302   3.712   1.930
 1149SOL    MW4 4628   3.317   3.629   1.955
 1150SOL     OW 4629   3.334   3.890   1.867
 1150SOL    HW2 4630   3.272   3.961   1.885
 1150SOL    HW3 4631   3.353   3.898   1.774
 1150SOL    MW4 4632   3.328   3.900   1.857
 1151SOL     OW 4633   3.132   4.056   1.972
 1151SOL    HW2 4634   3.148   4.030   2.062
 1151SOL    HW3 4635   3.056   4.004   1.946
 1151SOL    MW4 4636   3.124   4.046   1.980
 1152SOL     OW 4637   3.134   4.296   1.835
 1152SOL    HW2 4638   3.130   4.206   1.867
 1152SOL    HW3 4639   3.069   4.343   1.887
 1152SOL    MW4 4640   3.125   4.290   1.846
 1153SOL     OW 4641   3.356   4.447   1.951
 1153SOL    HW2 4642   3.438   4.400   1.937
 1153SOL    HW3 4643   3.289   4.391   1.913
 1153SOL    MW4 4644   3.358   4.434   1.944
 1154SOL     OW 4645   3.838   4.664   1.871
 1154SOL    HW2 4646   3.819   4.571   1.883
 1154SOL    HW3 4647   3.756   4.708   1.896
 1154SOL    MW4 4648   3.824   4.658   1.876
 1155SOL     OW 4649   3.599   0.104   1.982
 1155SOL    HW2 4650   3.590   0.107   2.078
 1155SOL    HW3 4651   3.518   0.065   1.951
 1155SOL    MW4 4652   3.587   0.099   1.991
 1156SOL     OW 4653   3.596   0.373   1.922
 1156SOL    HW2 4654   3.602   0.285   1.959
 1156SOL    HW3 4655   3.620   0.363   1.830
 1156SOL    MW4 4656   3.600   0.360   1.914
 1157SOL     OW 4657   3.827   0.510   1.994
 1157SOL    HW2 4658   3.836   0.598   1.958
 1157SOL    HW3 4659   3.741   0.481   1.964
 1157SOL    MW4 4660   3.817   0.518   1.985
 1158SOL     OW 4661   3.832   0.764   1.895
 1158SOL    HW2 4662   3.751   0.801   1.931
 1158SOL    HW3 4663   3.828   0.783   1.802
 1158SOL    MW4 4664   3.821   0.772   1.888
 1159SOL     OW 4665   3.576   0.880   1.988
 1159SOL    HW2 4666   3.578   0.971   1.958
 1159SOL    HW3 4667   3.509   0.838   1.934
 1159SOL    MW4 4668   3.567   0.886   1.977
 1160SOL     OW 4669   3.610   1.122   1.869
 1160SOL    HW2 4670   3.525   1.149   1.903
 1160SOL    HW3 4671   3.599   1.123   1.773
 1160SOL    MW4 4672   3.597   1.125   1.861
 1161SOL     OW 4673   3.838   1.270   1.945
 1161SOL    HW2 4674   3.837   1.259   2.041
 1161SOL    HW3 4675   3.761   1.221   1.915
 1161SOL    MW4 4676   3.828   1.262   1.954
 1162SOL     OW 4677   3.787   1.534   1.898
 1162SOL    HW2 4678   3.868   1.576   1.925
 1162SOL    HW3 4679   3.801   1.441   1.916
 1162SOL    MW4 4680   3.799   1.527   1.904
 1163SOL     OW 4681   3.558   1.660   2.010
 1163SOL    HW2 4682   3.566   1.746   1.969
 1163SOL    HW3 4683   3.630   1.608   1.972
 1163SOL    MW4 4684   3.569   1.665   2.000
 1164SOL     OW 4685   3.604   1.919   1.940
 1164SOL    HW2 4686   3.692   1.953   1.954
 1164SOL    HW3 4687   3.589   1.928   1.846
 1164SOL    MW4 4688   3.613   1.924   1.929
 1165SOL     OW 4689   3.851   2.064   1.992
 1165SOL    HW2 4690   3.938   2.034   1.965
 1165SOL    HW3 4691   3.838   2.145   1.943
 1165SOL    MW4 4692   3.861   2.071   1.982
 1166SOL     OW 4693   3.826   2.307   1.881
 1166SOL    HW2 4694   3.885   2.371   1.922
 1166SOL    HW3 4695   3.739   2.334   1.909
 1166SOL    MW4 4696   3.823   2.319   1.890
 1167SOL     OW 4697   3.602   2.413   2.001
 1167SOL    HW2 4698   3.596   2.502   1.968
 1167SOL    HW3 4699   3.519   2.372   1.977
 1167SOL    MW4 4700   3.590   2.419   1.993
 1168SOL     OW 4701   3.577   2.683   1.902
 1168SOL    HW2 4702   3.634   2.734   1.958
 1168SOL    HW3 4703   3.489   2.695   1.939
 1168SOL    MW4 4704   3.573   2.691   1.914
 1169SOL     OW 4705   3.790   2.835   1.993
 1169SOL    HW2 4706   3.794   2.850   2.088
 1169SOL    HW3 4707   3.807   2.920   1.955
 1169SOL    MW4 4708   3.793   2.848   2.001
 1170SOL     OW 4709   3.817   3.100   1.910
 1170SOL    HW2 4710   3.735   3.144   1.932
 1170SOL    HW3 4711   3.817   3.096   1.814
 1170SOL    MW4 4712   3.806   3.105   1.900
 1171SOL     OW 4713   3.581   3.239   1.977
 1171SOL    HW2 4714   3.581   3.253   2.072
 1171SOL    HW3 4715   3.560   3.324   1.940
 1171SOL    MW4 4716   3.578   3.252   1.985
 1172SOL     OW 4717   3.542   3.493   1.882
 1172SOL    HW2 4718   3.621   3.536   1.915
 1172SOL    HW3 4719   3.554   3.492   1.787
 1172SOL    MW4 4720   3.554   3.499   1.873
 1173SOL     OW 4721   3.787   3.606   1.981
 1173SOL    HW2 4722   3.864   3.561   1.946
 1173SOL    HW3 4723   3.795   3.696   1.949
 1173SOL    MW4 4724   3.798   3.612   1.972
 1174SOL     OW 4725   3.787   3.913   1.879
 1174SOL    HW2 4726   3.709   3.958   1.911
 1174SOL    HW3 4727   3.770   3.900   1.786
 1174SOL    MW4 4728   3.774   3.917   1.871
 1175SOL     OW 4729   3.555   4.031   1.961
 1175SOL    HW2 4730   3.544   4.010   2.054
 1175SOL    HW3 4731   3.486   3.982   1.917
 1175SOL    MW4 4732   3.545   4.021   1.967
 1176SOL     OW 4733   3.584   4.302   1.877
 1176SOL    HW2 4734   3.671   4.338   1.895
 1176SOL    HW3 4735   3.591   4.210   1.900
 1176SOL    MW4 4736   3.597   4.295   1.882
 1177SOL     OW 4737   3.829   4.391   1.955
 1177SOL    HW2 4738   3.826   4.400   2.050
 1177SOL    HW3 4739   3.904   4.335   1.938
 1177SOL    MW4 4740   3.838   4.385   1.965
 1178SOL     OW 4741   4.245   4.662   1.908
 1178SOL    HW2 4742   4.177   4.700   1.964
 1178SOL    HW3 4743   4.326   4.708   1.934
 1178SOL    MW4 4744   4.247   4.673   1.919
 1179SOL     OW 4745   4.035   0.119   2.026
 1179SOL    HW2 4746   4.009   0.110   2.118
 1179SOL    HW3 4747   3.971   0.065   1.978
 1179SOL    MW4 4748   4.023   0.110   2.032
 1180SOL     OW 4749   4.033   0.351   1.874
 1180SOL    HW2 4750   4.040   0.277   1.934
 1180SOL    HW3 4751   3.959   0.402   1.906
 1180SOL    MW4 4752   4.024   0.348   1.886
 1181SOL     OW 4753   4.251   0.490   1.970
 1181SOL    HW2 4754   4.248   0.511   2.064
 1181SOL    HW3 4755   4.167   0.446   1.954
 1181SOL    MW4 4756   4.239   0.487   1.980
 1182SOL     OW 4757   4.298   0.760   1.863
 1182SOL    HW2 4758   4.289   0.668   1.886
 1182SOL    HW3 4759   4.268   0.766   1.773
 1182SOL    MW4 4760   4.293   0.749   1.854
 1183SOL     OW 4761   4.089   0.874   2.004
 1183SOL    HW2 4762   4.163   0.843   1.952
 1183SOL    HW3 4763   4.014   0.824   1.970
 1183SOL    MW4 4764   4.088   0.863   1.993
 1184SOL     OW 4765   4.070   1.118   1.852
 1184SOL    HW2 4766   4.074   1.048   1.918
 1184SOL    HW3 4767   3.986   1.161   1.867
 1184SOL    MW4 4768   4.059   1.114   1.863
 1185SOL     OW 4769   4.278   1.291   1.952
 1185SOL    HW2 4770   4.288   1.288   2.047
 1185SOL    HW3 4771   4.193   1.250   1.935
 1185SOL    MW4 4772   4.268   1.285   1.962
 1186SOL     OW 4773   4.265   1.568   1.913
 1186SOL    HW2 4774   4.258   1.479   1.947
 1186SOL    HW3 4775   4.276   1.556   1.818
 1186SOL    MW4 4776   4.265   1.555   1.905
 1187SOL     OW 4777   4.021   1.652   1.984
 1187SOL    HW2 4778   4.035   1.681   2.074
 1187SOL    HW3 4779   4.107   1.624   1.954
 1187SOL    MW4 4780   4.034   1.652   1.992
 1188SOL     OW 4781   4.093   1.919   1.906
 1188SOL    HW2 4782   4.063   1.838   1.948
 1188SOL    HW3 4783   4.083   1.902   1.812
 1188SOL    MW4 4784   4.088   1.906   1.899
 1189SOL     OW 4785   4.308   2.061   2.031
 1189SOL    HW2 4786   4.289   2.053   2.125
 1189SOL    HW3 4787   4.248   1.999   1.989
 1189SOL    MW4 4788   4.297   2.052   2.038
 1190SOL     OW 4789   4.256   2.297   1.895
 1190SOL    HW2 4790   4.276   2.213   1.937
 1190SOL    HW3 4791   4.324   2.356   1.926
 1190SOL    MW4 4792   4.267   2.294   1.904
 1191SOL     OW 4793   4.039   2.468   1.978
 1191SOL    HW2 4794   4.022   2.457   2.072
 1191SOL    HW3 4795   4.112   2.409   1.960
 1191SOL    MW4 4796   4.047   2.459   1.988
 1192SOL     OW 4797   4.023   2.723   1.902
 1192SOL    HW2 4798   4.043   2.635   1.933
 1192SOL    HW3 4799   3.948   2.751   1.955
 1192SOL    MW4 4800   4.016   2.715   1.913
 1193SOL     OW 4801   4.253   2.878   1.970
 1193SOL    HW2 4802   4.267   2.885   2.064
 1193SOL    HW3 4803   4.165   2.841   1.961
 1193SOL    MW4 4804   4.243   2.874   1.981
 1194SOL     OW 4805   4.261   3.127   1.879
 1194SOL    HW2 4806   4.184   3.172   1.915
 1194SOL    HW3 4807   4.248   3.035   1.903
 1194SOL    MW4 4808   4.249   3.121   1.887
 1195SOL     OW 4809   4.034   3.255   2.027
 1195SOL    HW2 4810   4.037   3.237   2.121
 1195SOL    HW3 4811   3.955   3.211   1.996
 1195SOL    MW4 4812   4.024   3.247   2.035
 1196SOL     OW 4813   4.021   3.493   1.898
 1196SOL    HW2 4814   4.103   3.539   1.916
 1196SOL    HW3 4815   4.030   3.409   1.944
 1196SOL    MW4 4816   4.033   3.488   1.906
 1197SOL     OW 4817   4.266   3.643   2.003
 1197SOL    HW2 4818   4.260   3.732   1.970
 1197SOL    HW3 4819   4.339   3.604   1.955
 1197SOL    MW4 4820   4.275   3.649   1.993
 1198SOL     OW 4821   4.265   3.896   1.916
 1198SOL    HW2 4822   4.344   3.941   1.947
 1198SOL    HW3 4823   4.271   3.901   1.821
 1198SOL    MW4 4824   4.276   3.903   1.908
 1199SOL     OW 4825   4.023   4.006   1.991
 1199SOL    HW2 4826   4.091   3.942   1.971
 1199SOL    HW3 4827   3.944   3.970   1.953
 1199SOL    MW4 4828   4.022   3.993   1.984
 1200SOL     OW 4829   4.058   4.255   1.866
 1200SOL    HW2 4830   4.123   4.311   1.909
 1200SOL    HW3 4831   4.058   4.175   1.920
 1200SOL    MW4 4832   4.067   4.252   1.879
 1201SOL     OW 4833   4.272   4.380   1.969
 1201SOL    HW2 4834   4.269   4.384   2.064
 1201SOL    HW3 4835   4.252   4.470   1.940
 1201SOL    MW4 4836   4.269   4.393   1.977
 1202SOL     OW 4837   0.186   4.666   2.370
 1202SOL    HW2 4838   0.186   4.657   2.465
 1202SOL    HW3 4839   0.271   4.704   2.349
 1202SOL    MW4 4840   0.197   4.670   2.380
 1203SOL     OW 4841   4.452   0.137   2.263
 1203SOL    HW2 4842   4.531   0.095   2.297
 1203SOL    HW3 4843   4.459   0.127   2.168
 1203SOL    MW4 4844   4.463   0.130   2.255
 1204SOL     OW 4845   4.478   0.389   2.399
 1204SOL    HW2 4846   4.538   0.441   2.346
 1204SOL    HW3 4847   4.472   0.305   2.354
 1204SOL    MW4 4848   4.485   0.385   2.386
 1205SOL     OW 4849   0.223   0.515   2.271
 1205SOL    HW2 4850   0.288   0.458   2.311
 1205SOL    HW3 4851   0.227   0.494   2.177
 1205SOL    MW4 4852   0.232   0.505   2.264
 1206SOL     OW 4853   0.222   0.797   2.346
 1206SOL    HW2 4854   0.220   0.781   2.440
 1206SOL    HW3 4855   0.225   0.710   2.307
 1206SOL    MW4 4856   0.222   0.783   2.353
 1207SOL     OW 4857   4.476   0.896   2.282
 1207SOL    HW2 4858   4.559   0.853   2.306
 1207SOL    HW3 4859   4.477   0.896   2.186
 1207SOL    MW4 4860   4.487   0.890   2.272
 1208SOL     OW 4861   0.011   1.167   2.351
 1208SOL    HW2 4862   0.025   1.175   2.445
 1208SOL    HW3 4863  -0.013   1.075   2.338
 1208SOL    MW4 4864   0.010   1.156   2.362
 1209SOL     OW 4865   0.252   1.239   2.275
 1209SOL    HW2 4866   0.162   1.221   2.301
 1209SOL    HW3 4867   0.247   1.259   2.181
 1209SOL    MW4 4868   0.240   1.239   2.266
 1210SOL     OW 4869   0.223   1.509   2.412
 1210SOL    HW2 4870   0.202   1.509   2.505
 1210SOL    HW3 4871   0.235   1.416   2.390
 1210SOL    MW4 4872   0.222   1.497   2.421
 1211SOL     OW 4873   0.031   1.647   2.263
 1211SOL    HW2 4874   0.029   1.737   2.295
 1211SOL    HW3 4875   0.098   1.604   2.316
 1211SOL    MW4 4876   0.040   1.653   2.274
 1212SOL     OW 4877   0.029   1.900   2.376
 1212SOL    HW2 4878  -0.046   1.958   2.360
 1212SOL    HW3 4879   0.106   1.954   2.359
 1212SOL    MW4 4880   0.029   1.915   2.372
 1213SOL     OW 4881   0.240   2.084   2.281
 1213SOL    HW2 4882   0.322   2.041   2.305
 1213SOL    HW3 4883   0.237   2.078   2.186
 1213SOL    MW4 4884   0.250   2.077   2.272
 1214SOL     OW 4885   0.254   2.349   2.401
 1214SOL    HW2 4886   0.257   2.327   2.494
 1214SOL    HW3 4887   0.258   2.265   2.356
 1214SOL    MW4 4888   0.255   2.335   2.407
 1215SOL     OW 4889   0.022   2.450   2.291
 1215SOL    HW2 4890   0.016   2.538   2.329
 1215SOL    HW3 4891   0.090   2.407   2.343
 1215SOL    MW4 4892   0.030   2.456   2.303
 1216SOL     OW 4893   4.476   2.712   2.387
 1216SOL    HW2 4894   4.483   2.708   2.483
 1216SOL    HW3 4895   4.548   2.771   2.361
 1216SOL    MW4 4896   4.487   2.719   2.397
 1217SOL     OW 4897   0.199   2.846   2.287
 1217SOL    HW2 4898   0.285   2.811   2.311
 1217SOL    HW3 4899   0.203   2.854   2.192
 1217SOL    MW4 4900   0.211   2.842   2.278
 1218SOL     OW 4901   0.241   3.109   2.369
 1218SOL    HW2 4902   0.156   3.151   2.388
 1218SOL    HW3 4903   0.218   3.019   2.343
 1218SOL    MW4 4904   0.226   3.103   2.368
 1219SOL     OW 4905   4.474   3.243   2.300
 1219SOL    HW2 4906   4.493   3.332   2.327
 1219SOL    HW3 4907   4.489   3.243   2.205
 1219SOL    MW4 4908   4.478   3.254   2.291
 1220SOL     OW 4909   0.046   3.493   2.383
 1220SOL    HW2 4910   0.021   3.492   2.475
 1220SOL    HW3 4911  -0.027   3.537   2.339
 1220SOL    MW4 4912   0.033   3.499   2.389
 1221SOL     OW 4913   0.277   3.619   2.244
 1221SOL    HW2 4914   0.356   3.574   2.274
 1221SOL    HW3 4915   0.205   3.571   2.285
 1221SOL    MW4 4916   0.278   3.606   2.253
 1222SOL     OW 4917   0.232   3.897   2.340
 1222SOL    HW2 4918   0.143   3.929   2.330
 1222SOL    HW3 4919   0.229   3.807   2.308
 1222SOL    MW4 4920   0.220   3.889   2.334
 1223SOL     OW 4921   4.482   4.014   2.275
 1223SOL    HW2 4922   4.498   4.101   2.313
 1223SOL    HW3 4923   4.486   4.028   2.181
 1223SOL    MW4 4924   4.484   4.028   2.268
 1224SOL     OW 4925   4.469   4.272   2.365
 1224SOL    HW2 4926   4.470   4.275   2.461
 1224SOL    HW3 4927   4.554   4.306   2.339
 1224SOL    MW4 4928   4.480   4.277   2.375
 1225SOL     OW 4929   0.226   4.413   2.266
 1225SOL    HW2 4930   0.286   4.371   2.327
 1225SOL    HW3 4931   0.218   4.503   2.299
 1225SOL    MW4 4932   0.233   4.420   2.278
 1226SOL     OW 4933   0.688   4.643   2.383
 1226SOL    HW2 4934   0.683   4.632   2.478
 1226SOL    HW3 4935   0.774   4.682   2.369
 1226SOL    MW4 4936   0.699   4.646   2.394
 1227SOL     OW 4937   0.446   0.092   2.291
 1227SOL    HW2 4938   0.531   0.060   2.320
 1227SOL    HW3 4939   0.450   0.089   2.195
 1227SOL    MW4 4940   0.458   0.088   2.282
 1228SOL     OW 4941   0.447   0.365   2.386
 1228SOL    HW2 4942   0.450   0.348   2.481
 1228SOL    HW3 4943   0.447   0.278   2.346
 1228SOL    MW4 4944   0.447   0.351   2.394
 1229SOL     OW 4945   0.665   0.512   2.263
 1229SOL    HW2 4946   0.682   0.594   2.309
 1229SOL    HW3 4947   0.591   0.473   2.309
 1229SOL    MW4 4948   0.658   0.517   2.275
 1230SOL     OW 4949   0.688   0.774   2.364
 1230SOL    HW2 4950   0.663   0.750   2.453
 1230SOL    HW3 4951   0.608   0.807   2.324
 1230SOL    MW4 4952   0.674   0.775   2.370
 1231SOL     OW 4953   0.466   0.896   2.249
 1231SOL    HW2 4954   0.379   0.866   2.276
 1231SOL    HW3 4955   0.457   0.914   2.156
 1231SOL    MW4 4956   0.453   0.895   2.241
 1232SOL     OW 4957   0.506   1.154   2.363
 1232SOL    HW2 4958   0.502   1.060   2.346
 1232SOL    HW3 4959   0.419   1.186   2.339
 1232SOL    MW4 4960   0.494   1.146   2.357
 1233SOL     OW 4961   0.714   1.309   2.247
 1233SOL    HW2 4962   0.700   1.391   2.294
 1233SOL    HW3 4963   0.637   1.256   2.268
 1233SOL    MW4 4964   0.702   1.313   2.256
 1234SOL     OW 4965   0.710   1.538   2.398
 1234SOL    HW2 4966   0.715   1.550   2.493
 1234SOL    HW3 4967   0.780   1.593   2.363
 1234SOL    MW4 4968   0.720   1.547   2.406
 1235SOL     OW 4969   0.452   1.655   2.283
 1235SOL    HW2 4970   0.532   1.631   2.332
 1235SOL    HW3 4971   0.381   1.617   2.335
 1235SOL    MW4 4972   0.453   1.647   2.297
 1236SOL     OW 4973   0.458   1.935   2.348
 1236SOL    HW2 4974   0.537   1.973   2.307
 1236SOL    HW3 4975   0.450   1.849   2.307
 1236SOL    MW4 4976   0.468   1.929   2.337
 1237SOL     OW 4977   0.696   2.039   2.256
 1237SOL    HW2 4978   0.774   2.006   2.301
 1237SOL    HW3 4979   0.674   2.120   2.301
 1237SOL    MW4 4980   0.704   2.045   2.268
 1238SOL     OW 4981   0.657   2.285   2.376
 1238SOL    HW2 4982   0.651   2.287   2.471
 1238SOL    HW3 4983   0.742   2.325   2.357
 1238SOL    MW4 4984   0.668   2.290   2.386
 1239SOL     OW 4985   0.470   2.478   2.269
 1239SOL    HW2 4986   0.531   2.413   2.304
 1239SOL    HW3 4987   0.384   2.446   2.295
 1239SOL    MW4 4988   0.467   2.465   2.277
 1240SOL     OW 4989   0.440   2.737   2.369
 1240SOL    HW2 4990   0.446   2.738   2.465
 1240SOL    HW3 4991   0.457   2.645   2.345
 1240SOL    MW4 4992   0.443   2.725   2.379
 1241SOL     OW 4993   0.667   2.853   2.268
 1241SOL    HW2 4994   0.737   2.818   2.323
 1241SOL    HW3 4995   0.586   2.829   2.313
 1241SOL    MW4 4996   0.665   2.845   2.281
 1242SOL     OW 4997   0.671   3.090   2.406
 1242SOL    HW2 4998   0.590   3.116   2.362
 1242SOL    HW3 4999   0.686   3.000   2.377
 1242SOL    MW4 5000   0.663   3.082   2.396
 1243SOL     OW 5001   0.468   3.236   2.290
 1243SOL    HW2 5002   0.381   3.196   2.301
 1243SOL    HW3 5003   0.479   3.243   2.195
 1243SOL    MW4 5004   0.458   3.232   2.279
 1244SOL     OW 5005   0.460   3.484   2.394
 1244SOL    HW2 5006   0.539   3.528   2.365
 1244SOL    HW3 5007   0.461   3.400   2.350
 1244SOL    MW4 5008   0.470   3.479   2.385
 1245SOL     OW 5009   0.681   3.612   2.285
 1245SOL    HW2 5010   0.706   3.699   2.317
 1245SOL    HW3 5011   0.673   3.623   2.191
 1245SOL    MW4 5012   0.683   3.625   2.277
 1246SOL     OW 5013   0.708   3.883   2.378
 1246SOL    HW2 5014   0.706   3.892   2.473
 1246SOL    HW3 5015   0.626   3.925   2.349
 1246SOL    MW4 5016   0.697   3.890   2.387
 1247SOL     OW 5017   0.473   4.042   2.291
 1247SOL    HW2 5018   0.392   3.996   2.313
 1247SOL    HW3 5019   0.480   4.035   2.196
 1247SOL    MW4 5020   0.463   4.035   2.282
 1248SOL     OW 5021   0.474   4.311   2.376
 1248SOL    HW2 5022   0.534   4.365   2.325
 1248SOL    HW3 5023   0.477   4.225   2.334
 1248SOL    MW4 5024   0.482   4.307   2.364
 1249SOL     OW 5025   0.709   4.404   2.224
 1249SOL    HW2 5026   0.706   4.494   2.256
 1249SOL    HW3 5027   0.696   4.412   2.130
 1249SOL    MW4 5028   0.707   4.417   2.216
 1250SOL     OW 5029   1.135   4.643   2.365
 1250SOL    HW2 5030   1.140   4.644   2.461
 1250SOL    HW3 5031   1.068   4.708   2.343
 1250SOL    MW4 5032   1.127   4.652   2.375
 1251SOL     OW 5033   0.917   0.128   2.280
 1251SOL    HW2 5034   0.889   0.211   2.317
 1251SOL    HW3 5035   0.908   0.139   2.186
 1251SOL    MW4 5036   0.912   0.140   2.273
 1252SOL     OW 5037   0.889   0.406   2.369
 1252SOL    HW2 5038   0.966   0.440   2.323
 1252SOL    HW3 5039   0.815   0.451   2.328
 1252SOL    MW4 5040   0.889   0.416   2.357
 1253SOL     OW 5041   1.144   0.511   2.236
 1253SOL    HW2 5042   1.204   0.446   2.272
 1253SOL    HW3 5043   1.149   0.498   2.141
 1253SOL    MW4 5044   1.153   0.501   2.228
 1254SOL     OW 5045   1.100   0.739   2.382
 1254SOL    HW2 5046   1.016   0.779   2.360
 1254SOL    HW3 5047   1.108   0.665   2.322
 1254SOL    MW4 5048   1.090   0.734   2.371
 1255SOL     OW 5049   0.908   0.908   2.266
 1255SOL    HW2 5050   0.910   0.996   2.306
 1255SOL    HW3 5051   0.823   0.873   2.289
 1255SOL    MW4 5052   0.897   0.915   2.274
 1256SOL     OW 5053   0.902   1.153   2.370
 1256SOL    HW2 5054   0.986   1.198   2.357
 1256SOL    HW3 5055   0.836   1.219   2.347
 1256SOL    MW4 5056   0.904   1.168   2.365
 1257SOL     OW 5057   1.121   1.283   2.269
 1257SOL    HW2 5058   1.183   1.214   2.291
 1257SOL    HW3 5059   1.133   1.298   2.175
 1257SOL    MW4 5060   1.131   1.276   2.260
 1258SOL     OW 5061   1.105   1.544   2.403
 1258SOL    HW2 5062   1.032   1.582   2.353
 1258SOL    HW3 5063   1.108   1.453   2.374
 1258SOL    MW4 5064   1.096   1.537   2.393
 1259SOL     OW 5065   0.905   1.681   2.267
 1259SOL    HW2 5066   0.901   1.770   2.301
 1259SOL    HW3 5067   0.883   1.689   2.174
 1259SOL    MW4 5068   0.902   1.694   2.259
 1260SOL     OW 5069   0.914   1.929   2.398
 1260SOL    HW2 5070   0.908   1.935   2.494
 1260SOL    HW3 5071   0.991   1.981   2.376
 1260SOL    MW4 5072   0.923   1.937   2.408
 1261SOL     OW 5073   1.137   2.084   2.299
 1261SOL    HW2 5074   1.211   2.025   2.318
 1261SOL    HW3 5075   1.120   2.070   2.206
 1261SOL    MW4 5076   1.145   2.074   2.289
 1262SOL     OW 5077   1.112   2.327   2.397
 1262SOL    HW2 5078   1.187   2.370   2.357
 1262SOL    HW3 5079   1.124   2.234   2.378
 1262SOL    MW4 5080   1.123   2.320   2.389
 1263SOL     OW 5081   0.866   2.436   2.298
 1263SOL    HW2 5082   0.949   2.408   2.338
 1263SOL    HW3 5083   0.887   2.447   2.205
 1263SOL    MW4 5084   0.880   2.434   2.291
 1264SOL     OW 5085   0.900   2.709   2.394
 1264SOL    HW2 5086   0.881   2.701   2.487
 1264SOL    HW3 5087   0.875   2.624   2.357
 1264SOL    MW4 5088   0.894   2.697   2.401
 1265SOL     OW 5089   1.112   2.857   2.310
 1265SOL    HW2 5090   1.188   2.835   2.363
 1265SOL    HW3 5091   1.050   2.786   2.324
 1265SOL    MW4 5092   1.114   2.845   2.319
 1266SOL     OW 5093   1.096   3.107   2.412
 1266SOL    HW2 5094   1.013   3.146   2.383
 1266SOL    HW3 5095   1.092   3.018   2.379
 1266SOL    MW4 5096   1.084   3.101   2.403
 1267SOL     OW 5097   0.896   3.223   2.279
 1267SOL    HW2 5098   0.905   3.315   2.303
 1267SOL    HW3 5099   0.809   3.198   2.311
 1267SOL    MW4 5100   0.886   3.232   2.287
 1268SOL     OW 5101   0.901   3.483   2.394
 1268SOL    HW2 5102   0.889   3.477   2.489
 1268SOL    HW3 5103   0.827   3.534   2.363
 1268SOL    MW4 5104   0.890   3.489   2.402
 1269SOL     OW 5105   1.145   3.591   2.276
 1269SOL    HW2 5106   1.220   3.566   2.330
 1269SOL    HW3 5107   1.069   3.560   2.325
 1269SOL    MW4 5108   1.145   3.584   2.290
 1270SOL     OW 5109   1.117   3.866   2.369
 1270SOL    HW2 5110   1.202   3.900   2.340
 1270SOL    HW3 5111   1.121   3.772   2.349
 1270SOL    MW4 5112   1.129   3.858   2.362
 1271SOL     OW 5113   0.917   4.003   2.234
 1271SOL    HW2 5114   0.987   3.943   2.260
 1271SOL    HW3 5115   0.838   3.970   2.278
 1271SOL    MW4 5116   0.916   3.991   2.243
 1272SOL     OW 5117   0.911   4.252   2.329
 1272SOL    HW2 5118   0.907   4.160   2.304
 1272SOL    HW3 5119   0.829   4.289   2.296
 1272SOL    MW4 5120   0.900   4.245   2.321
 1273SOL     OW 5121   1.114   4.403   2.257
 1273SOL    HW2 5122   1.036   4.355   2.286
 1273SOL    HW3 5123   1.122   4.476   2.317
 1273SOL    MW4 5124   1.105   4.406   2.269
 1274SOL     OW 5125   1.551   4.639   2.379
 1274SOL    HW2 5126   1.629   4.659   2.328
 1274SOL    HW3 5127   1.479   4.676   2.327
 1274SOL    MW4 5128   1.551   4.646   2.365
 1275SOL     OW 5129   1.340   0.092   2.234
 1275SOL    HW2 5130   1.348   0.179   2.273
 1275SOL    HW3 5131   1.264   0.053   2.277
 1275SOL    MW4 5132   1.331   0.099   2.245
 1276SOL     OW 5133   1.330   0.338   2.361
 1276SOL    HW2 5134   1.324   0.349   2.456
 1276SOL    HW3 5135   1.415   0.374   2.338
 1276SOL    MW4 5136   1.340   0.344   2.371
 1277SOL     OW 5137   1.565   0.460   2.284
 1277SOL    HW2 5138   1.635   0.404   2.316
 1277SOL    HW3 5139   1.581   0.468   2.190
 1277SOL    MW4 5140   1.576   0.454   2.276
 1278SOL     OW 5141   1.551   0.714   2.398
 1278SOL    HW2 5142   1.634   0.750   2.368
 1278SOL    HW3 5143   1.555   0.621   2.373
 1278SOL    MW4 5144   1.563   0.706   2.391
 1279SOL     OW 5145   1.334   0.864   2.292
 1279SOL    HW2 5146   1.398   0.798   2.321
 1279SOL    HW3 5147   1.256   0.845   2.344
 1279SOL    MW4 5148   1.332   0.853   2.303
 1280SOL     OW 5149   1.360   1.127   2.343
 1280SOL    HW2 5150   1.348   1.137   2.437
 1280SOL    HW3 5151   1.347   1.034   2.326
 1280SOL    MW4 5152   1.357   1.116   2.353
 1281SOL     OW 5153   1.614   1.236   2.279
 1281SOL    HW2 5154   1.536   1.182   2.290
 1281SOL    HW3 5155   1.617   1.256   2.185
 1281SOL    MW4 5156   1.604   1.232   2.268
 1282SOL     OW 5157   1.545   1.490   2.390
 1282SOL    HW2 5158   1.618   1.543   2.357
 1282SOL    HW3 5159   1.561   1.403   2.355
 1282SOL    MW4 5160   1.557   1.486   2.381
 1283SOL     OW 5161   1.347   1.656   2.279
 1283SOL    HW2 5162   1.410   1.590   2.309
 1283SOL    HW3 5163   1.265   1.632   2.321
 1283SOL    MW4 5164   1.344   1.644   2.288
 1284SOL     OW 5165   1.366   1.927   2.355
 1284SOL    HW2 5166   1.448   1.974   2.336
 1284SOL    HW3 5167   1.382   1.838   2.325
 1284SOL    MW4 5168   1.379   1.922   2.348
 1285SOL     OW 5169   1.572   2.103   2.290
 1285SOL    HW2 5170   1.651   2.067   2.330
 1285SOL    HW3 5171   1.581   2.082   2.197
 1285SOL    MW4 5172   1.584   2.095   2.283
 1286SOL     OW 5173   1.564   2.378   2.369
 1286SOL    HW2 5174   1.586   2.388   2.462
 1286SOL    HW3 5175   1.547   2.284   2.359
 1286SOL    MW4 5176   1.565   2.367   2.380
 1287SOL     OW 5177   1.318   2.475   2.271
 1287SOL    HW2 5178   1.395   2.435   2.311
 1287SOL    HW3 5179   1.338   2.475   2.177
 1287SOL    MW4 5180   1.331   2.470   2.264
 1288SOL     OW 5181   1.348   2.706   2.409
 1288SOL    HW2 5182   1.420   2.750   2.364
 1288SOL    HW3 5183   1.334   2.626   2.360
 1288SOL    MW4 5184   1.355   2.701   2.397
 1289SOL     OW 5185   1.549   2.860   2.265
 1289SOL    HW2 5186   1.565   2.951   2.292
 1289SOL    HW3 5187   1.565   2.860   2.171
 1289SOL    MW4 5188   1.553   2.872   2.257
 1290SOL     OW 5189   1.582   3.123   2.339
 1290SOL    HW2 5190   1.598   3.126   2.434
 1290SOL    HW3 5191   1.504   3.177   2.326
 1290SOL    MW4 5192   1.574   3.130   2.350
 1291SOL     OW 5193   1.315   3.237   2.323
 1291SOL    HW2 5194   1.240   3.187   2.353
 1291SOL    HW3 5195   1.293   3.263   2.234
 1291SOL    MW4 5196   1.302   3.234   2.315
 1292SOL     OW 5197   1.363   3.506   2.422
 1292SOL    HW2 5198   1.373   3.517   2.517
 1292SOL    HW3 5199   1.353   3.412   2.410
 1292SOL    MW4 5200   1.363   3.495   2.433
 1293SOL     OW 5201   1.567   3.592   2.266
 1293SOL    HW2 5202   1.564   3.685   2.286
 1293SOL    HW3 5203   1.497   3.553   2.319
 1293SOL    MW4 5204   1.558   3.599   2.275
 1294SOL     OW 5205   1.586   3.866   2.361
 1294SOL    HW2 5206   1.582   3.860   2.457
 1294SOL    HW3 5207   1.662   3.921   2.343
 1294SOL    MW4 5208   1.595   3.872   2.371
 1295SOL     OW 5209   1.347   3.993   2.265
 1295SOL    HW2 5210   1.429   3.947   2.284
 1295SOL    HW3 5211   1.346   3.999   2.169
 1295SOL    MW4 5212   1.358   3.988   2.255
 1296SOL     OW 5213   1.321   4.249   2.344
 1296SOL    HW2 5214   1.318   4.164   2.300
 1296SOL    HW3 5215   1.241   4.293   2.317
 1296SOL    MW4 5216   1.310   4.244   2.335
 1297SOL     OW 5217   1.546   4.390   2.245
 1297SOL    HW2 5218   1.474   4.343   2.287
 1297SOL    HW3 5219   1.555   4.470   2.296
 1297SOL    MW4 5220   1.538   4.394   2.257
 1298SOL     OW 5221   2.057   4.662   2.349
 1298SOL    HW2 5222   2.117   4.716   2.297
 1298SOL    HW3 5223   2.071   4.573   2.316
 1298SOL    MW4 5224   2.067   4.658   2.338
 1299SOL     OW 5225   1.813   0.067   2.264
 1299SOL    HW2 5226   1.812   0.161   2.285
 1299SOL    HW3 5227   1.901   0.038   2.290
 1299SOL    MW4 5228   1.825   0.076   2.270
 1300SOL     OW 5229   1.804   0.323   2.331
 1300SOL    HW2 5230   1.807   0.331   2.427
 1300SOL    HW3 5231   1.877   0.376   2.300
 1300SOL    MW4 5232   1.814   0.331   2.340
 1301SOL     OW 5233   2.026   0.488   2.255
 1301SOL    HW2 5234   2.033   0.578   2.287
 1301SOL    HW3 5235   2.041   0.495   2.160
 1301SOL    MW4 5236   2.029   0.501   2.247
 1302SOL     OW 5237   2.031   0.734   2.372
 1302SOL    HW2 5238   2.085   0.792   2.319
 1302SOL    HW3 5239   1.941   0.757   2.349
 1302SOL    MW4 5240   2.026   0.745   2.362
 1303SOL     OW 5241   1.799   0.827   2.260
 1303SOL    HW2 5242   1.811   0.911   2.303
 1303SOL    HW3 5243   1.797   0.847   2.167
 1303SOL    MW4 5244   1.800   0.840   2.254
 1304SOL     OW 5245   1.840   1.093   2.344
 1304SOL    HW2 5246   1.909   1.147   2.304
 1304SOL    HW3 5247   1.758   1.129   2.308
 1304SOL    MW4 5248   1.838   1.105   2.334
 1305SOL     OW 5249   2.038   1.242   2.261
 1305SOL    HW2 5250   2.034   1.327   2.306
 1305SOL    HW3 5251   2.029   1.265   2.168
 1305SOL    MW4 5252   2.036   1.257   2.255
 1306SOL     OW 5253   2.006   1.507   2.377
 1306SOL    HW2 5254   2.011   1.503   2.472
 1306SOL    HW3 5255   1.930   1.563   2.359
 1306SOL    MW4 5256   1.996   1.514   2.387
 1307SOL     OW 5257   1.758   1.645   2.302
 1307SOL    HW2 5258   1.743   1.730   2.344
 1307SOL    HW3 5259   1.761   1.665   2.208
 1307SOL    MW4 5260   1.757   1.659   2.295
 1308SOL     OW 5261   1.771   1.915   2.399
 1308SOL    HW2 5262   1.779   1.916   2.494
 1308SOL    HW3 5263   1.856   1.945   2.368
 1308SOL    MW4 5264   1.783   1.919   2.407
 1309SOL     OW 5265   2.001   2.029   2.305
 1309SOL    HW2 5266   2.079   1.975   2.319
 1309SOL    HW3 5267   2.004   2.051   2.212
 1309SOL    MW4 5268   2.011   2.025   2.294
 1310SOL     OW 5269   1.991   2.286   2.383
 1310SOL    HW2 5270   2.079   2.321   2.368
 1310SOL    HW3 5271   1.999   2.193   2.361
 1310SOL    MW4 5272   2.003   2.278   2.378
 1311SOL     OW 5273   1.817   2.453   2.249
 1311SOL    HW2 5274   1.881   2.404   2.301
 1311SOL    HW3 5275   1.732   2.422   2.279
 1311SOL    MW4 5276   1.815   2.443   2.260
 1312SOL     OW 5277   1.754   2.718   2.361
 1312SOL    HW2 5278   1.746   2.633   2.318
 1312SOL    HW3 5279   1.677   2.767   2.332
 1312SOL    MW4 5280   1.743   2.714   2.351
 1313SOL     OW 5281   1.981   2.850   2.277
 1313SOL    HW2 5282   2.054   2.799   2.314
 1313SOL    HW3 5283   1.903   2.800   2.300
 1313SOL    MW4 5284   1.980   2.836   2.285
 1314SOL     OW 5285   2.000   3.103   2.365
 1314SOL    HW2 5286   2.085   3.139   2.338
 1314SOL    HW3 5287   2.010   3.008   2.353
 1314SOL    MW4 5288   2.013   3.095   2.360
 1315SOL     OW 5289   1.803   3.248   2.231
 1315SOL    HW2 5290   1.876   3.199   2.269
 1315SOL    HW3 5291   1.725   3.206   2.268
 1315SOL    MW4 5292   1.802   3.236   2.241
 1316SOL     OW 5293   1.807   3.515   2.361
 1316SOL    HW2 5294   1.827   3.431   2.319
 1316SOL    HW3 5295   1.720   3.538   2.328
 1316SOL    MW4 5296   1.798   3.507   2.351
 1317SOL     OW 5297   2.039   3.615   2.244
 1317SOL    HW2 5298   1.959   3.594   2.293
 1317SOL    HW3 5299   2.012   3.610   2.152
 1317SOL    MW4 5300   2.025   3.612   2.238
 1318SOL     OW 5301   2.032   3.872   2.334
 1318SOL    HW2 5302   2.039   3.869   2.429
 1318SOL    HW3 5303   2.047   3.782   2.306
 1318SOL    MW4 5304   2.035   3.860   2.343
 1319SOL     OW 5305   1.800   4.005   2.262
 1319SOL    HW2 5306   1.874   3.963   2.305
 1319SOL    HW3 5307   1.816   3.992   2.169
 1319SOL    MW4 5308   1.812   3.998   2.255
 1320SOL     OW 5309   1.794   4.277   2.315
 1320SOL    HW2 5310   1.791   4.186   2.285
 1320SOL    HW3 5311   1.725   4.321   2.267
 1320SOL    MW4 5312   1.784   4.271   2.305
 1321SOL     OW 5313   2.035   4.398   2.257
 1321SOL    HW2 5314   1.947   4.369   2.280
 1321SOL    HW3 5315   2.038   4.389   2.161
 1321SOL    MW4 5316   2.024   4.393   2.247
 1322SOL     OW 5317   2.430   4.639   2.389
 1322SOL    HW2 5318   2.503   4.690   2.354
 1322SOL    HW3 5319   2.443   4.551   2.355
 1322SOL    MW4 5320   2.441   4.634   2.380
 1323SOL     OW 5321   2.263   0.126   2.221
 1323SOL    HW2 5322   2.278   0.214   2.258
 1323SOL    HW3 5323   2.334   0.073   2.256
 1323SOL    MW4 5324   2.274   0.131   2.230
 1324SOL     OW 5325   2.258   0.361   2.348
 1324SOL    HW2 5326   2.325   0.415   2.306
 1324SOL    HW3 5327   2.175   0.395   2.315
 1324SOL    MW4 5328   2.256   0.372   2.338
 1325SOL     OW 5329   2.468   0.501   2.251
 1325SOL    HW2 5330   2.546   0.451   2.274
 1325SOL    HW3 5331   2.466   0.502   2.155
 1325SOL    MW4 5332   2.478   0.495   2.241
 1326SOL     OW 5333   2.466   0.739   2.376
 1326SOL    HW2 5334   2.528   0.793   2.326
 1326SOL    HW3 5335   2.458   0.658   2.326
 1326SOL    MW4 5336   2.473   0.735   2.363
 1327SOL     OW 5337   2.251   0.878   2.269
 1327SOL    HW2 5338   2.258   0.963   2.313
 1327SOL    HW3 5339   2.318   0.824   2.311
 1327SOL    MW4 5340   2.261   0.882   2.280
 1328SOL     OW 5341   2.249   1.128   2.391
 1328SOL    HW2 5342   2.313   1.187   2.352
 1328SOL    HW3 5343   2.168   1.145   2.343
 1328SOL    MW4 5344   2.247   1.138   2.380
 1329SOL     OW 5345   2.481   1.275   2.284
 1329SOL    HW2 5346   2.556   1.231   2.324
 1329SOL    HW3 5347   2.474   1.358   2.332
 1329SOL    MW4 5348   2.490   1.280   2.296
 1330SOL     OW 5349   2.463   1.525   2.372
 1330SOL    HW2 5350   2.474   1.522   2.467
 1330SOL    HW3 5351   2.539   1.574   2.341
 1330SOL    MW4 5352   2.474   1.531   2.380
 1331SOL     OW 5353   2.232   1.651   2.278
 1331SOL    HW2 5354   2.306   1.613   2.325
 1331SOL    HW3 5355   2.157   1.599   2.306
 1331SOL    MW4 5356   2.232   1.639   2.288
 1332SOL     OW 5357   2.243   1.907   2.369
 1332SOL    HW2 5358   2.307   1.963   2.325
 1332SOL    HW3 5359   2.247   1.824   2.322
 1332SOL    MW4 5360   2.252   1.904   2.357
 1333SOL     OW 5361   2.438   2.065   2.232
 1333SOL    HW2 5362   2.505   2.005   2.266
 1333SOL    HW3 5363   2.433   2.044   2.138
 1333SOL    MW4 5364   2.446   2.054   2.224
 1334SOL     OW 5365   2.432   2.330   2.363
 1334SOL    HW2 5366   2.507   2.376   2.326
 1334SOL    HW3 5367   2.434   2.243   2.322
 1334SOL    MW4 5368   2.442   2.324   2.353
 1335SOL     OW 5369   2.208   2.459   2.292
 1335SOL    HW2 5370   2.203   2.546   2.333
 1335SOL    HW3 5371   2.288   2.420   2.328
 1335SOL    MW4 5372   2.218   2.466   2.302
 1336SOL     OW 5373   2.196   2.714   2.388
 1336SOL    HW2 5374   2.204   2.726   2.483
 1336SOL    HW3 5375   2.266   2.768   2.351
 1336SOL    MW4 5376   2.206   2.723   2.396
 1337SOL     OW 5377   2.412   2.838   2.248
 1337SOL    HW2 5378   2.494   2.809   2.288
 1337SOL    HW3 5379   2.428   2.835   2.154
 1337SOL    MW4 5380   2.425   2.834   2.241
 1338SOL     OW 5381   2.433   3.087   2.393
 1338SOL    HW2 5382   2.517   3.114   2.356
 1338SOL    HW3 5383   2.413   3.004   2.349
 1338SOL    MW4 5384   2.442   3.080   2.382
 1339SOL     OW 5385   2.240   3.211   2.263
 1339SOL    HW2 5386   2.229   3.306   2.269
 1339SOL    HW3 5387   2.306   3.191   2.329
 1339SOL    MW4 5388   2.247   3.221   2.273
 1340SOL     OW 5389   2.262   3.483   2.288
 1340SOL    HW2 5390   2.279   3.491   2.382
 1340SOL    HW3 5391   2.183   3.535   2.273
 1340SOL    MW4 5392   2.254   3.491   2.298
 1341SOL     OW 5393   2.465   3.652   2.226
 1341SOL    HW2 5394   2.462   3.732   2.279
 1341SOL    HW3 5395   2.383   3.607   2.246
 1341SOL    MW4 5396   2.454   3.657   2.236
 1342SOL     OW 5397   2.454   3.894   2.359
 1342SOL    HW2 5398   2.438   3.874   2.452
 1342SOL    HW3 5399   2.370   3.927   2.328
 1342SOL    MW4 5400   2.441   3.896   2.367
 1343SOL     OW 5401   2.248   3.991   2.237
 1343SOL    HW2 5402   2.230   4.083   2.259
 1343SOL    HW3 5403   2.172   3.943   2.270
 1343SOL    MW4 5404   2.236   3.997   2.244
 1344SOL     OW 5405   2.259   4.270   2.316
 1344SOL    HW2 5406   2.256   4.255   2.410
 1344SOL    HW3 5407   2.176   4.314   2.297
 1344SOL    MW4 5408   2.247   4.274   2.326
 1345SOL     OW 5409   2.497   4.406   2.257
 1345SOL    HW2 5410   2.576   4.361   2.286
 1345SOL    HW3 5411   2.425   4.349   2.284
 1345SOL    MW4 5412   2.498   4.393   2.264
 1346SOL     OW 5413   2.917   4.662   2.378
 1346SOL    HW2 5414   2.978   4.718   2.330
 1346SOL    HW3 5415   2.930   4.575   2.340
 1346SOL    MW4 5416   2.927   4.658   2.367
 1347SOL     OW 5417   2.666   0.085   2.265
 1347SOL    HW2 5418   2.671   0.178   2.288
 1347SOL    HW3 5419   2.743   0.046   2.304
 1347SOL    MW4 5420   2.677   0.092   2.273
 1348SOL     OW 5421   2.685   0.346   2.336
 1348SOL    HW2 5422   2.678   0.363   2.429
 1348SOL    HW3 5423   2.764   0.393   2.308
 1348SOL    MW4 5424   2.695   0.355   2.344
 1349SOL     OW 5425   2.912   0.483   2.254
 1349SOL    HW2 5426   2.907   0.574   2.283
 1349SOL    HW3 5427   2.913   0.488   2.159
 1349SOL    MW4 5428   2.912   0.495   2.245
 1350SOL     OW 5429   2.907   0.733   2.347
 1350SOL    HW2 5430   2.905   0.754   2.440
 1350SOL    HW3 5431   2.818   0.751   2.317
 1350SOL    MW4 5432   2.895   0.738   2.355
 1351SOL     OW 5433   2.682   0.867   2.251
 1351SOL    HW2 5434   2.703   0.956   2.280
 1351SOL    HW3 5435   2.669   0.875   2.157
 1351SOL    MW4 5436   2.683   0.880   2.243
 1352SOL     OW 5437   2.700   1.127   2.364
 1352SOL    HW2 5438   2.703   1.134   2.459
 1352SOL    HW3 5439   2.763   1.193   2.333
 1352SOL    MW4 5440   2.709   1.137   2.372
 1353SOL     OW 5441   2.896   1.299   2.271
 1353SOL    HW2 5442   2.978   1.261   2.302
 1353SOL    HW3 5443   2.894   1.279   2.177
 1353SOL    MW4 5444   2.907   1.292   2.262
 1354SOL     OW 5445   2.903   1.563   2.364
 1354SOL    HW2 5446   2.905   1.555   2.459
 1354SOL    HW3 5447   2.896   1.472   2.333
 1354SOL    MW4 5448   2.902   1.550   2.372
 1355SOL     OW 5449   2.674   1.663   2.249
 1355SOL    HW2 5450   2.756   1.626   2.280
 1355SOL    HW3 5451   2.687   1.675   2.154
 1355SOL    MW4 5452   2.686   1.660   2.240
 1356SOL     OW 5453   2.657   1.919   2.353
 1356SOL    HW2 5454   2.673   1.913   2.447
 1356SOL    HW3 5455   2.662   1.828   2.322
 1356SOL    MW4 5456   2.660   1.906   2.361
 1357SOL     OW 5457   2.868   2.067   2.284
 1357SOL    HW2 5458   2.944   2.010   2.292
 1357SOL    HW3 5459   2.796   2.019   2.326
 1357SOL    MW4 5460   2.868   2.053   2.290
 1358SOL     OW 5461   2.873   2.326   2.379
 1358SOL    HW2 5462   2.875   2.320   2.474
 1358SOL    HW3 5463   2.869   2.235   2.349
 1358SOL    MW4 5464   2.873   2.313   2.387
 1359SOL     OW 5465   2.649   2.454   2.275
 1359SOL    HW2 5466   2.730   2.410   2.302
 1359SOL    HW3 5467   2.656   2.460   2.180
 1359SOL    MW4 5468   2.661   2.449   2.266
 1360SOL     OW 5469   2.644   2.709   2.372
 1360SOL    HW2 5470   2.732   2.739   2.348
 1360SOL    HW3 5471   2.641   2.618   2.343
 1360SOL    MW4 5472   2.655   2.701   2.365
 1361SOL     OW 5473   2.886   2.824   2.291
 1361SOL    HW2 5474   2.879   2.916   2.317
 1361SOL    HW3 5475   2.892   2.827   2.195
 1361SOL    MW4 5476   2.886   2.837   2.281
 1362SOL     OW 5477   2.921   3.101   2.394
 1362SOL    HW2 5478   2.994   3.141   2.346
 1362SOL    HW3 5479   2.843   3.135   2.352
 1362SOL    MW4 5480   2.921   3.111   2.382
 1363SOL     OW 5481   2.687   3.192   2.255
 1363SOL    HW2 5482   2.688   3.278   2.296
 1363SOL    HW3 5483   2.687   3.210   2.161
 1363SOL    MW4 5484   2.687   3.205   2.248
 1364SOL     OW 5485   2.678   3.475   2.317
 1364SOL    HW2 5486   2.746   3.536   2.290
 1364SOL    HW3 5487   2.596   3.516   2.290
 1364SOL    MW4 5488   2.676   3.488   2.310
 1365SOL     OW 5489   2.901   3.611   2.193
 1365SOL    HW2 5490   2.971   3.564   2.239
 1365SOL    HW3 5491   2.897   3.696   2.235
 1365SOL    MW4 5492   2.909   3.616   2.205
 1366SOL     OW 5493   2.899   3.842   2.332
 1366SOL    HW2 5494   2.907   3.856   2.426
 1366SOL    HW3 5495   2.836   3.908   2.303
 1366SOL    MW4 5496   2.892   3.853   2.340
 1367SOL     OW 5497   2.681   4.008   2.241
 1367SOL    HW2 5498   2.599   3.974   2.276
 1367SOL    HW3 5499   2.669   4.007   2.146
 1367SOL    MW4 5500   2.669   4.003   2.233
 1368SOL     OW 5501   2.709   4.263   2.341
 1368SOL    HW2 5502   2.699   4.272   2.436
 1368SOL    HW3 5503   2.715   4.169   2.326
 1368SOL    MW4 5504   2.709   4.252   2.352
 1369SOL     OW 5505   2.949   4.391   2.269
 1369SOL    HW2 5506   3.022   4.332   2.290
 1369SOL    HW3 5507   2.871   4.345   2.299
 1369SOL    MW4 5508   2.949   4.377   2.276
 1370SOL     OW 5509   3.319   4.624   2.348
 1370SOL    HW2 5510   3.337   4.627   2.442
 1370SOL    HW3 5511   3.376   4.692   2.311
 1370SOL    MW4 5512   3.329   4.633   2.356
 1371SOL     OW 5513   3.135   0.131   2.225
 1371SOL    HW2 5514   3.140   0.215   2.271
 1371SOL    HW3 5515   3.191   0.072   2.276
 1371SOL    MW4 5516   3.143   0.134   2.238
 1372SOL     OW 5517   3.135   0.364   2.363
 1372SOL    HW2 5518   3.215   0.402   2.326
 1372SOL    HW3 5519   3.064   0.413   2.321
 1372SOL    MW4 5520   3.136   0.376   2.352
 1373SOL     OW 5521   3.379   0.476   2.260
 1373SOL    HW2 5522   3.468   0.446   2.278
 1373SOL    HW3 5523   3.375   0.486   2.165
 1373SOL    MW4 5524   3.390   0.473   2.250
 1374SOL     OW 5525   3.349   0.751   2.357
 1374SOL    HW2 5526   3.417   0.807   2.319
 1374SOL    HW3 5527   3.366   0.664   2.321
 1374SOL    MW4 5528   3.360   0.747   2.347
 1375SOL     OW 5529   3.119   0.866   2.242
 1375SOL    HW2 5530   3.191   0.820   2.286
 1375SOL    HW3 5531   3.040   0.825   2.276
 1375SOL    MW4 5532   3.118   0.855   2.252
 1376SOL     OW 5533   3.120   1.156   2.353
 1376SOL    HW2 5534   3.203   1.198   2.329
 1376SOL    HW3 5535   3.127   1.067   2.318
 1376SOL    MW4 5536   3.132   1.150   2.345
 1377SOL     OW 5537   3.357   1.270   2.292
 1377SOL    HW2 5538   3.444   1.242   2.319
 1377SOL    HW3 5539   3.354   1.363   2.313
 1377SOL    MW4 5540   3.368   1.278   2.298
 1378SOL     OW 5541   3.365   1.537   2.367
 1378SOL    HW2 5542   3.366   1.536   2.463
 1378SOL    HW3 5543   3.281   1.577   2.344
 1378SOL    MW4 5544   3.354   1.542   2.377
 1379SOL     OW 5545   3.142   1.667   2.272
 1379SOL    HW2 5546   3.133   1.761   2.282
 1379SOL    HW3 5547   3.058   1.631   2.300
 1379SOL    MW4 5548   3.130   1.674   2.277
 1380SOL     OW 5549   3.100   1.924   2.333
 1380SOL    HW2 5550   3.110   1.919   2.428
 1380SOL    HW3 5551   3.176   1.975   2.303
 1380SOL    MW4 5552   3.111   1.930   2.341
 1381SOL     OW 5553   3.330   2.043   2.256
 1381SOL    HW2 5554   3.416   2.007   2.277
 1381SOL    HW3 5555   3.328   2.046   2.160
 1381SOL    MW4 5556   3.341   2.039   2.246
 1382SOL     OW 5557   3.357   2.317   2.327
 1382SOL    HW2 5558   3.268   2.348   2.308
 1382SOL    HW3 5559   3.353   2.223   2.311
 1382SOL    MW4 5560   3.344   2.309   2.322
 1383SOL     OW 5561   3.108   2.441   2.263
 1383SOL    HW2 5562   3.102   2.528   2.302
 1383SOL    HW3 5563   3.031   2.394   2.296
 1383SOL    MW4 5564   3.097   2.447   2.272
 1384SOL     OW 5565   3.107   2.685   2.383
 1384SOL    HW2 5566   3.120   2.686   2.478
 1384SOL    HW3 5567   3.026   2.734   2.370
 1384SOL    MW4 5568   3.098   2.692   2.394
 1385SOL     OW 5569   3.343   2.827   2.271
 1385SOL    HW2 5570   3.343   2.914   2.309
 1385SOL    HW3 5571   3.272   2.781   2.316
 1385SOL    MW4 5572   3.333   2.832   2.282
 1386SOL     OW 5573   3.367   3.089   2.392
 1386SOL    HW2 5574   3.437   3.147   2.361
 1386SOL    HW3 5575   3.287   3.130   2.360
 1386SOL    MW4 5576   3.366   3.102   2.384
 1387SOL     OW 5577   3.151   3.222   2.274
 1387SOL    HW2 5578   3.161   3.316   2.289
 1387SOL    HW3 5579   3.138   3.213   2.180
 1387SOL    MW4 5580   3.150   3.233   2.264
 1388SOL     OW 5581   3.135   3.491   2.326
 1388SOL    HW2 5582   3.139   3.486   2.421
 1388SOL    HW3 5583   3.211   3.544   2.301
 1388SOL    MW4 5584   3.145   3.497   2.335
 1389SOL     OW 5585   3.362   3.624   2.250
 1389SOL    HW2 5586   3.444   3.578   2.268
 1389SOL    HW3 5587   3.350   3.617   2.155
 1389SOL    MW4 5588   3.371   3.617   2.240
 1390SOL     OW 5589   3.367   3.869   2.388
 1390SOL    HW2 5590   3.435   3.914   2.338
 1390SOL    HW3 5591   3.369   3.779   2.357
 1390SOL    MW4 5592   3.376   3.863   2.378
 1391SOL     OW 5593   3.143   3.986   2.230
 1391SOL    HW2 5594   3.220   3.939   2.264
 1391SOL    HW3 5595   3.071   3.957   2.285
 1391SOL    MW4 5596   3.144   3.976   2.242
 1392SOL     OW 5597   3.159   4.244   2.367
 1392SOL    HW2 5598   3.215   4.294   2.308
 1392SOL    HW3 5599   3.162   4.155   2.332
 1392SOL    MW4 5600   3.167   4.239   2.354
 1393SOL     OW 5601   3.359   4.377   2.225
 1393SOL    HW2 5602   3.351   4.456   2.278
 1393SOL    HW3 5603   3.374   4.409   2.136
 1393SOL    MW4 5604   3.360   4.391   2.220
 1394SOL     OW 5605   3.750   4.626   2.351
 1394SOL    HW2 5606   3.777   4.620   2.443
 1394SOL    HW3 5607   3.820   4.675   2.309
 1394SOL    MW4 5608   3.762   4.631   2.358
 1395SOL     OW 5609   3.555   0.120   2.254
 1395SOL    HW2 5610   3.591   0.200   2.292
 1395SOL    HW3 5611   3.586   0.049   2.311
 1395SOL    MW4 5612   3.564   0.121   2.266
 1396SOL     OW 5613   3.631   0.384   2.334
 1396SOL    HW2 5614   3.622   0.382   2.429
 1396SOL    HW3 5615   3.705   0.443   2.318
 1396SOL    MW4 5616   3.639   0.391   2.345
 1397SOL     OW 5617   3.855   0.555   2.277
 1397SOL    HW2 5618   3.861   0.639   2.324
 1397SOL    HW3 5619   3.843   0.579   2.186
 1397SOL    MW4 5620   3.854   0.569   2.271
 1398SOL     OW 5621   3.817   0.809   2.394
 1398SOL    HW2 5622   3.837   0.786   2.484
 1398SOL    HW3 5623   3.896   0.854   2.362
 1398SOL    MW4 5624   3.830   0.812   2.401
 1399SOL     OW 5625   3.580   0.885   2.274
 1399SOL    HW2 5626   3.664   0.853   2.307
 1399SOL    HW3 5627   3.587   0.878   2.179
 1399SOL    MW4 5628   3.592   0.880   2.266
 1400SOL     OW 5629   3.605   1.150   2.356
 1400SOL    HW2 5630   3.603   1.135   2.451
 1400SOL    HW3 5631   3.583   1.066   2.318
 1400SOL    MW4 5632   3.602   1.137   2.364
 1401SOL     OW 5633   3.818   1.271   2.242
 1401SOL    HW2 5634   3.828   1.355   2.285
 1401SOL    HW3 5635   3.754   1.224   2.295
 1401SOL    MW4 5636   3.811   1.276   2.255
 1402SOL     OW 5637   3.831   1.563   2.330
 1402SOL    HW2 5638   3.826   1.546   2.424
 1402SOL    HW3 5639   3.747   1.604   2.308
 1402SOL    MW4 5640   3.819   1.566   2.339
 1403SOL     OW 5641   3.589   1.665   2.272
 1403SOL    HW2 5642   3.509   1.616   2.289
 1403SOL    HW3 5643   3.586   1.685   2.179
 1403SOL    MW4 5644   3.578   1.661   2.262
 1404SOL     OW 5645   3.583   1.945   2.343
 1404SOL    HW2 5646   3.668   1.978   2.312
 1404SOL    HW3 5647   3.581   1.853   2.315
 1404SOL    MW4 5648   3.594   1.937   2.335
 1405SOL     OW 5649   3.823   2.081   2.253
 1405SOL    HW2 5650   3.909   2.048   2.280
 1405SOL    HW3 5651   3.825   2.076   2.157
 1405SOL    MW4 5652   3.835   2.076   2.244
 1406SOL     OW 5653   3.808   2.333   2.354
 1406SOL    HW2 5654   3.733   2.384   2.322
 1406SOL    HW3 5655   3.793   2.244   2.322
 1406SOL    MW4 5656   3.796   2.328   2.346
 1407SOL     OW 5657   3.579   2.475   2.267
 1407SOL    HW2 5658   3.503   2.422   2.292
 1407SOL    HW3 5659   3.588   2.462   2.173
 1407SOL    MW4 5660   3.570   2.466   2.258
 1408SOL     OW 5661   3.588   2.736   2.370
 1408SOL    HW2 5662   3.579   2.645   2.342
 1408SOL    HW3 5663   3.509   2.778   2.335
 1408SOL    MW4 5664   3.576   2.729   2.361
 1409SOL     OW 5665   3.837   2.838   2.267
 1409SOL    HW2 5666   3.835   2.919   2.317
 1409SOL    HW3 5667   3.762   2.788   2.299
 1409SOL    MW4 5668   3.827   2.842   2.278
 1410SOL     OW 5669   3.791   3.091   2.373
 1410SOL    HW2 5670   3.796   3.087   2.468
 1410SOL    HW3 5671   3.873   3.133   2.346
 1410SOL    MW4 5672   3.803   3.096   2.382
 1411SOL     OW 5673   3.572   3.209   2.249
 1411SOL    HW2 5674   3.590   3.299   2.276
 1411SOL    HW3 5675   3.653   3.162   2.270
 1411SOL    MW4 5676   3.585   3.215   2.255
 1412SOL     OW 5677   3.578   3.474   2.358
 1412SOL    HW2 5678   3.592   3.461   2.452
 1412SOL    HW3 5679   3.659   3.515   2.327
 1412SOL    MW4 5680   3.591   3.478   2.367
 1413SOL     OW 5681   3.825   3.584   2.261
 1413SOL    HW2 5682   3.798   3.673   2.287
 1413SOL    HW3 5683   3.813   3.582   2.167
 1413SOL    MW4 5684   3.820   3.596   2.252
 1414SOL     OW 5685   3.764   3.843   2.370
 1414SOL    HW2 5686   3.750   3.840   2.464
 1414SOL    HW3 5687   3.838   3.903   2.358
 1414SOL    MW4 5688   3.772   3.850   2.381
 1415SOL     OW 5689   3.549   3.981   2.234
 1415SOL    HW2 5690   3.557   4.067   2.274
 1415SOL    HW3 5691   3.624   3.932   2.268
 1415SOL    MW4 5692   3.560   3.986   2.244
 1416SOL     OW 5693   3.583   4.272   2.346
 1416SOL    HW2 5694   3.648   4.315   2.291
 1416SOL    HW3 5695   3.501   4.316   2.326
 1416SOL    MW4 5696   3.581   4.283   2.336
 1417SOL     OW 5697   3.812   4.385   2.234
 1417SOL    HW2 5698   3.883   4.353   2.290
 1417SOL    HW3 5699   3.785   4.468   2.274
 1417SOL    MW4 5700   3.818   4.392   2.246
 1418SOL     OW 5701   4.228   4.649   2.358
 1418SOL    HW2 5702   4.256   4.650   2.449
 1418SOL    HW3 5703   4.281   4.716   2.316
 1418SOL    MW4 5704   4.239   4.658   2.364
 1419SOL     OW 5705   3.977   0.085   2.283
 1419SOL    HW2 5706   3.995   0.168   2.327
 1419SOL    HW3 5707   4.051   0.029   2.305
 1419SOL    MW4 5708   3.989   0.088   2.292
 1420SOL     OW 5709   4.040   0.364   2.355
 1420SOL    HW2 5710   4.121   0.407   2.327
 1420SOL    HW3 5711   3.971   0.422   2.324
 1420SOL    MW4 5712   4.042   0.377   2.347
 1421SOL     OW 5713   4.279   0.507   2.251
 1421SOL    HW2 5714   4.286   0.587   2.303
 1421SOL    HW3 5715   4.342   0.447   2.291
 1421SOL    MW4 5716   4.288   0.510   2.263
 1422SOL     OW 5717   4.280   0.758   2.397
 1422SOL    HW2 5718   4.198   0.796   2.365
 1422SOL    HW3 5719   4.347   0.821   2.373
 1422SOL    MW4 5720   4.278   0.771   2.389
 1423SOL     OW 5721   4.069   0.873   2.276
 1423SOL    HW2 5722   4.064   0.968   2.289
 1423SOL    HW3 5723   4.081   0.862   2.182
 1423SOL    MW4 5724   4.070   0.884   2.265
 1424SOL     OW 5725   4.056   1.157   2.320
 1424SOL    HW2 5726   4.054   1.161   2.416
 1424SOL    HW3 5727   3.976   1.201   2.293
 1424SOL    MW4 5728   4.045   1.163   2.329
 1425SOL     OW 5729   4.288   1.279   2.225
 1425SOL    HW2 5730   4.214   1.233   2.264
 1425SOL    HW3 5731   4.364   1.251   2.276
 1425SOL    MW4 5732   4.288   1.269   2.237
 1426SOL     OW 5733   4.265   1.549   2.341
 1426SOL    HW2 5734   4.260   1.457   2.312
 1426SOL    HW3 5735   4.352   1.577   2.316
 1426SOL    MW4 5736   4.276   1.540   2.334
 1427SOL     OW 5737   4.045   1.702   2.251
 1427SOL    HW2 5738   4.126   1.664   2.285
 1427SOL    HW3 5739   3.975   1.654   2.296
 1427SOL    MW4 5740   4.046   1.691   2.262
 1428SOL     OW 5741   4.051   1.952   2.337
 1428SOL    HW2 5742   4.022   1.932   2.426
 1428SOL    HW3 5743   4.058   1.866   2.295
 1428SOL    MW4 5744   4.048   1.938   2.343
 1429SOL     OW 5745   4.304   2.048   2.308
 1429SOL    HW2 5746   4.299   2.141   2.332
 1429SOL    HW3 5747   4.215   2.016   2.318
 1429SOL    MW4 5748   4.292   2.056   2.313
 1430SOL     OW 5749   4.262   2.326   2.366
 1430SOL    HW2 5750   4.180   2.365   2.336
 1430SOL    HW3 5751   4.331   2.375   2.322
 1430SOL    MW4 5752   4.260   2.337   2.357
 1431SOL     OW 5753   4.038   2.452   2.265
 1431SOL    HW2 5754   4.037   2.542   2.299
 1431SOL    HW3 5755   3.956   2.414   2.296
 1431SOL    MW4 5756   4.027   2.459   2.273
 1432SOL     OW 5757   4.016   2.716   2.405
 1432SOL    HW2 5758   4.003   2.735   2.498
 1432SOL    HW3 5759   3.944   2.762   2.362
 1432SOL    MW4 5760   4.005   2.724   2.412
 1433SOL     OW 5761   4.246   2.819   2.255
 1433SOL    HW2 5762   4.165   2.790   2.298
 1433SOL    HW3 5763   4.315   2.768   2.296
 1433SOL    MW4 5764   4.244   2.809   2.266
 1434SOL     OW 5765   4.259   3.088   2.369
 1434SOL    HW2 5766   4.264   2.996   2.344
 1434SOL    HW3 5767   4.327   3.132   2.318
 1434SOL    MW4 5768   4.268   3.082   2.359
 1435SOL     OW 5769   4.027   3.210   2.310
 1435SOL    HW2 5770   4.036   3.297   2.349
 1435SOL    HW3 5771   4.109   3.165   2.332
 1435SOL    MW4 5772   4.039   3.215   2.318
 1436SOL     OW 5773   4.067   3.475   2.373
 1436SOL    HW2 5774   4.149   3.511   2.341
 1436SOL    HW3 5775   3.999   3.520   2.322
 1436SOL    MW4 5776   4.069   3.485   2.362
 1437SOL     OW 5777   4.293   3.603   2.286
 1437SOL    HW2 5778   4.276   3.696   2.302
 1437SOL    HW3 5779   4.283   3.592   2.191
 1437SOL    MW4 5780   4.289   3.614   2.275
 1438SOL     OW 5781   4.238   3.876   2.352
 1438SOL    HW2 5782   4.249   3.878   2.447
 1438SOL    HW3 5783   4.309   3.931   2.318
 1438SOL    MW4 5784   4.249   3.883   2.360
 1439SOL     OW 5785   3.975   3.982   2.280
 1439SOL    HW2 5786   4.060   3.949   2.310
 1439SOL    HW3 5787   3.989   4.003   2.187
 1439SOL    MW4 5788   3.988   3.980   2.272
 1440SOL     OW 5789   4.025   4.271   2.357
 1440SOL    HW2 5790   4.097   4.311   2.309
 1440SOL    HW3 5791   4.014   4.185   2.316
 1440SOL    MW4 5792   4.033   4.265   2.345
 1441SOL     OW 5793   4.241   4.383   2.241
 1441SOL    HW2 5794   4.227   4.472   2.274
 1441SOL    HW3 5795   4.315   4.350   2.292
 1441SOL    MW4 5796   4.249   4.390   2.252
 1442SOL     OW 5797   0.206   0.001   2.642
 1442SOL    HW2 5798   0.212  -0.093   2.655
 1442SOL    HW3 5799   0.129   0.027   2.692
 1442SOL    MW4 5800   0.197  -0.008   2.650
 1443SOL     OW 5801   0.001   0.149   2.772
 1443SOL    HW2 5802   0.020   0.156   2.866
 1443SOL    HW3 5803   0.002   0.240   2.741
 1443SOL    MW4 5804   0.004   0.162   2.780
 1444SOL     OW 5805   4.490   0.411   2.678
 1444SOL    HW2 5806   4.571   0.455   2.705
 1444SOL    HW3 5807   4.491   0.414   2.583
 1444SOL    MW4 5808   4.501   0.417   2.669
 1445SOL     OW 5809   0.251   0.539   2.771
 1445SOL    HW2 5810   0.243   0.509   2.861
 1445SOL    HW3 5811   0.330   0.495   2.739
 1445SOL    MW4 5812   0.261   0.529   2.779
 1446SOL     OW 5813   0.222   0.773   2.626
 1446SOL    HW2 5814   0.290   0.831   2.659
 1446SOL    HW3 5815   0.229   0.694   2.680
 1446SOL    MW4 5816   0.232   0.770   2.638
 1447SOL     OW 5817   0.000   0.893   2.713
 1447SOL    HW2 5818  -0.079   0.839   2.718
 1447SOL    HW3 5819   0.068   0.834   2.682
 1447SOL    MW4 5820  -0.002   0.878   2.710
 1448SOL     OW 5821   0.034   1.175   2.626
 1448SOL    HW2 5822   0.096   1.214   2.688
 1448SOL    HW3 5823   0.024   1.085   2.656
 1448SOL    MW4 5824   0.041   1.169   2.638
 1449SOL     OW 5825   0.212   1.281   2.792
 1449SOL    HW2 5826   0.282   1.238   2.743
 1449SOL    HW3 5827   0.216   1.372   2.766
 1449SOL    MW4 5828   0.222   1.287   2.782
 1450SOL     OW 5829   0.193   1.531   2.686
 1450SOL    HW2 5830   0.270   1.587   2.696
 1450SOL    HW3 5831   0.122   1.580   2.727
 1450SOL    MW4 5832   0.194   1.545   2.693
 1451SOL     OW 5833   4.474   1.671   2.774
 1451SOL    HW2 5834   4.491   1.660   2.868
 1451SOL    HW3 5835   4.459   1.765   2.763
 1451SOL    MW4 5836   4.474   1.682   2.785
 1452SOL     OW 5837   4.456   1.938   2.667
 1452SOL    HW2 5838   4.535   1.984   2.695
 1452SOL    HW3 5839   4.480   1.896   2.584
 1452SOL    MW4 5840   4.469   1.938   2.660
 1453SOL     OW 5841   0.210   2.051   2.730
 1453SOL    HW2 5842   0.297   2.016   2.713
 1453SOL    HW3 5843   0.212   2.139   2.692
 1453SOL    MW4 5844   0.222   2.058   2.723
 1454SOL     OW 5845   0.225   2.314   2.684
 1454SOL    HW2 5846   0.291   2.378   2.711
 1454SOL    HW3 5847   0.143   2.348   2.720
 1454SOL    MW4 5848   0.223   2.327   2.692
 1455SOL     OW 5849   0.001   2.428   2.780
 1455SOL    HW2 5850  -0.023   2.421   2.872
 1455SOL    HW3 5851  -0.082   2.418   2.733
 1455SOL    MW4 5852  -0.013   2.426   2.786
 1456SOL     OW 5853   0.018   2.692   2.666
 1456SOL    HW2 5854  -0.062   2.737   2.693
 1456SOL    HW3 5855   0.017   2.610   2.716
 1456SOL    MW4 5856   0.007   2.687   2.676
 1457SOL     OW 5857   0.224   2.833   2.768
 1457SOL    HW2 5858   0.204   2.925   2.751
 1457SOL    HW3 5859   0.144   2.786   2.745
 1457SOL    MW4 5860   0.211   2.839   2.763
 1458SOL     OW 5861   0.226   3.106   2.652
 1458SOL    HW2 5862   0.313   3.129   2.682
 1458SOL    HW3 5863   0.234   3.102   2.556
 1458SOL    MW4 5864   0.238   3.108   2.643
 1459SOL     OW 5865   0.003   3.253   2.743
 1459SOL    HW2 5866  -0.064   3.211   2.688
 1459SOL    HW3 5867   0.083   3.202   2.728
 1459SOL    MW4 5868   0.005   3.241   2.734
 1460SOL     OW 5869   4.480   3.513   2.668
 1460SOL    HW2 5870   4.569   3.546   2.678
 1460SOL    HW3 5871   4.488   3.418   2.677
 1460SOL    MW4 5872   4.493   3.505   2.671
 1461SOL     OW 5873   0.257   3.614   2.694
 1461SOL    HW2 5874   0.269   3.623   2.789
 1461SOL    HW3 5875   0.335   3.568   2.664
 1461SOL    MW4 5876   0.269   3.609   2.703
 1462SOL     OW 5877   0.211   3.890   2.625
 1462SOL    HW2 5878   0.233   3.799   2.644
 1462SOL    HW3 5879   0.224   3.899   2.531
 1462SOL    MW4 5880   0.216   3.879   2.615
 1463SOL     OW 5881   4.469   3.980   2.731
 1463SOL    HW2 5882   4.466   4.072   2.706
 1463SOL    HW3 5883   4.557   3.951   2.707
 1463SOL    MW4 5884   4.480   3.988   2.725
 1464SOL     OW 5885   4.475   4.242   2.661
 1464SOL    HW2 5886   4.411   4.298   2.705
 1464SOL    HW3 5887   4.559   4.267   2.701
 1464SOL    MW4 5888   4.478   4.253   2.672
 1465SOL     OW 5889   0.239   4.397   2.715
 1465SOL    HW2 5890   0.242   4.413   2.809
 1465SOL    HW3 5891   0.323   4.354   2.695
 1465SOL    MW4 5892   0.251   4.393   2.725
 1466SOL     OW 5893   0.683   4.649   2.670
 1466SOL    HW2 5894   0.749   4.717   2.685
 1466SOL    HW3 5895   0.603   4.685   2.709
 1466SOL    MW4 5896   0.681   4.662   2.677
 1467SOL     OW 5897   0.448   0.104   2.747
 1467SOL    HW2 5898   0.434   0.105   2.842
 1467SOL    HW3 5899   0.369   0.065   2.712
 1467SOL    MW4 5900   0.436   0.099   2.755
 1468SOL     OW 5901   0.446   0.365   2.671
 1468SOL    HW2 5902   0.519   0.404   2.719
 1468SOL    HW3 5903   0.446   0.273   2.697
 1468SOL    MW4 5904   0.456   0.358   2.680
 1469SOL     OW 5905   0.632   0.544   2.773
 1469SOL    HW2 5906   0.634   0.565   2.866
 1469SOL    HW3 5907   0.718   0.507   2.755
 1469SOL    MW4 5908   0.643   0.542   2.783
 1470SOL     OW 5909   0.653   0.793   2.638
 1470SOL    HW2 5910   0.739   0.821   2.669
 1470SOL    HW3 5911   0.636   0.711   2.684
 1470SOL    MW4 5912   0.662   0.786   2.648
 1471SOL     OW 5913   0.425   0.953   2.694
 1471SOL    HW2 5914   0.430   1.040   2.654
 1471SOL    HW3 5915   0.495   0.903   2.651
 1471SOL    MW4 5916   0.435   0.958   2.683
 1472SOL     OW 5917   0.435   1.216   2.629
 1472SOL    HW2 5918   0.512   1.242   2.679
 1472SOL    HW3 5919   0.465   1.215   2.538
 1472SOL    MW4 5920   0.449   1.220   2.623
 1473SOL     OW 5921   0.674   1.290   2.738
 1473SOL    HW2 5922   0.666   1.268   2.831
 1473SOL    HW3 5923   0.737   1.227   2.704
 1473SOL    MW4 5924   0.681   1.279   2.745
 1474SOL     OW 5925   0.676   1.558   2.658
 1474SOL    HW2 5926   0.603   1.604   2.698
 1474SOL    HW3 5927   0.664   1.466   2.683
 1474SOL    MW4 5928   0.665   1.552   2.666
 1475SOL     OW 5929   0.413   1.668   2.742
 1475SOL    HW2 5930   0.420   1.672   2.838
 1475SOL    HW3 5931   0.415   1.760   2.715
 1475SOL    MW4 5932   0.414   1.681   2.751
 1476SOL     OW 5933   0.433   1.927   2.630
 1476SOL    HW2 5934   0.516   1.966   2.657
 1476SOL    HW3 5935   0.447   1.901   2.539
 1476SOL    MW4 5936   0.446   1.929   2.621
 1477SOL     OW 5937   0.647   2.053   2.743
 1477SOL    HW2 5938   0.654   2.057   2.839
 1477SOL    HW3 5939   0.733   2.021   2.715
 1477SOL    MW4 5940   0.659   2.049   2.752
 1478SOL     OW 5941   0.646   2.302   2.648
 1478SOL    HW2 5942   0.726   2.339   2.687
 1478SOL    HW3 5943   0.637   2.216   2.688
 1478SOL    MW4 5944   0.656   2.296   2.658
 1479SOL     OW 5945   0.446   2.462   2.747
 1479SOL    HW2 5946   0.457   2.549   2.708
 1479SOL    HW3 5947   0.518   2.411   2.709
 1479SOL    MW4 5948   0.457   2.467   2.737
 1480SOL     OW 5949   0.439   2.717   2.648
 1480SOL    HW2 5950   0.512   2.759   2.693
 1480SOL    HW3 5951   0.360   2.758   2.684
 1480SOL    MW4 5952   0.438   2.728   2.658
 1481SOL     OW 5953   0.668   2.794   2.768
 1481SOL    HW2 5954   0.690   2.800   2.861
 1481SOL    HW3 5955   0.689   2.881   2.734
 1481SOL    MW4 5956   0.674   2.807   2.776
 1482SOL     OW 5957   0.731   3.050   2.672
 1482SOL    HW2 5958   0.805   3.097   2.712
 1482SOL    HW3 5959   0.737   3.073   2.579
 1482SOL    MW4 5960   0.742   3.059   2.665
 1483SOL     OW 5961   0.484   3.148   2.761
 1483SOL    HW2 5962   0.507   3.155   2.854
 1483SOL    HW3 5963   0.563   3.114   2.719
 1483SOL    MW4 5964   0.498   3.144   2.768
 1484SOL     OW 5965   0.463   3.427   2.680
 1484SOL    HW2 5966   0.447   3.334   2.700
 1484SOL    HW3 5967   0.479   3.428   2.585
 1484SOL    MW4 5968   0.463   3.415   2.670
 1485SOL     OW 5969   0.655   3.622   2.725
 1485SOL    HW2 5970   0.647   3.628   2.820
 1485SOL    HW3 5971   0.594   3.553   2.700
 1485SOL    MW4 5972   0.646   3.614   2.734
 1486SOL     OW 5973   0.660   3.892   2.654
 1486SOL    HW2 5974   0.577   3.932   2.678
 1486SOL    HW3 5975   0.648   3.799   2.672
 1486SOL    MW4 5976   0.648   3.885   2.659
 1487SOL     OW 5977   0.428   4.012   2.748
 1487SOL    HW2 5978   0.436   4.102   2.719
 1487SOL    HW3 5979   0.344   3.982   2.713
 1487SOL    MW4 5980   0.418   4.020   2.740
 1488SOL     OW 5981   0.474   4.273   2.659
 1488SOL    HW2 5982   0.549   4.315   2.702
 1488SOL    HW3 5983   0.492   4.281   2.566
 1488SOL    MW4 5984   0.486   4.280   2.652
 1489SOL     OW 5985   0.702   4.398   2.762
 1489SOL    HW2 5986   0.768   4.357   2.706
 1489SOL    HW3 5987   0.706   4.491   2.738
 1489SOL    MW4 5988   0.711   4.405   2.751
 1490SOL     OW 5989   1.125   4.637   2.641
 1490SOL    HW2 5990   1.211   4.675   2.659
 1490SOL    HW3 5991   1.136   4.543   2.660
 1490SOL    MW4 5992   1.138   4.629   2.646
 1491SOL     OW 5993   0.930   0.154   2.736
 1491SOL    HW2 5994   0.935   0.137   2.830
 1491SOL    HW3 5995   1.003   0.105   2.699
 1491SOL    MW4 5996   0.940   0.145   2.744
 1492SOL     OW 5997   0.852   0.403   2.660
 1492SOL    HW2 5998   0.860   0.311   2.686
 1492SOL    HW3 5999   0.869   0.403   2.566
 1492SOL    MW4 6000   0.855   0.391   2.651
 1493SOL     OW 6001   1.107   0.450   2.773
 1493SOL    HW2 6002   1.103   0.542   2.746
 1493SOL    HW3 6003   1.020   0.415   2.755
 1493SOL    MW4 6004   1.095   0.457   2.767
 1494SOL     OW 6005   1.120   0.718   2.666
 1494SOL    HW2 6006   1.199   0.762   2.697
 1494SOL    HW3 6007   1.121   0.731   2.571
 1494SOL    MW4 6008   1.131   0.725   2.657
 1495SOL     OW 6009   0.899   0.872   2.726
 1495SOL    HW2 6010   0.899   0.875   2.822
 1495SOL    HW3 6011   0.973   0.815   2.704
 1495SOL    MW4 6012   0.909   0.865   2.736
 1496SOL     OW 6013   0.891   1.139   2.638
 1496SOL    HW2 6014   0.897   1.049   2.668
 1496SOL    HW3 6015   0.891   1.133   2.542
 1496SOL    MW4 6016   0.892   1.127   2.629
 1497SOL     OW 6017   1.144   1.290   2.750
 1497SOL    HW2 6018   1.135   1.383   2.730
 1497SOL    HW3 6019   1.065   1.250   2.713
 1497SOL    MW4 6020   1.132   1.297   2.742
 1498SOL     OW 6021   1.151   1.565   2.683
 1498SOL    HW2 6022   1.073   1.601   2.726
 1498SOL    HW3 6023   1.129   1.564   2.590
 1498SOL    MW4 6024   1.137   1.569   2.677
 1499SOL     OW 6025   0.917   1.690   2.754
 1499SOL    HW2 6026   0.893   1.701   2.846
 1499SOL    HW3 6027   0.846   1.639   2.716
 1499SOL    MW4 6028   0.905   1.685   2.761
 1500SOL     OW 6029   0.909   1.960   2.676
 1500SOL    HW2 6030   0.979   2.013   2.714
 1500SOL    HW3 6031   0.930   1.870   2.698
 1500SOL    MW4 6032   0.921   1.955   2.684
 1501SOL     OW 6033   1.133   2.081   2.764
 1501SOL    HW2 6034   1.196   2.048   2.701
 1501SOL    HW3 6035   1.129   2.175   2.748
 1501SOL    MW4 6036   1.141   2.089   2.754
 1502SOL     OW 6037   1.122   2.340   2.671
 1502SOL    HW2 6038   1.197   2.392   2.702
 1502SOL    HW3 6039   1.134   2.335   2.576
 1502SOL    MW4 6040   1.134   2.346   2.662
 1503SOL     OW 6041   0.870   2.405   2.772
 1503SOL    HW2 6042   0.864   2.497   2.747
 1503SOL    HW3 6043   0.958   2.378   2.746
 1503SOL    MW4 6044   0.881   2.413   2.765
 1504SOL     OW 6045   0.882   2.661   2.676
 1504SOL    HW2 6046   0.951   2.721   2.704
 1504SOL    HW3 6047   0.802   2.700   2.710
 1504SOL    MW4 6048   0.881   2.674   2.684
 1505SOL     OW 6049   1.083   2.832   2.765
 1505SOL    HW2 6050   1.106   2.825   2.858
 1505SOL    HW3 6051   1.159   2.795   2.719
 1505SOL    MW4 6052   1.096   2.826   2.771
 1506SOL     OW 6053   1.148   3.096   2.699
 1506SOL    HW2 6054   1.122   3.007   2.722
 1506SOL    HW3 6055   1.136   3.101   2.604
 1506SOL    MW4 6056   1.143   3.085   2.689
 1507SOL     OW 6057   0.919   3.208   2.805
 1507SOL    HW2 6058   0.903   3.286   2.753
 1507SOL    HW3 6059   1.006   3.179   2.778
 1507SOL    MW4 6060   0.928   3.215   2.795
 1508SOL     OW 6061   0.887   3.462   2.676
 1508SOL    HW2 6062   0.961   3.508   2.718
 1508SOL    HW3 6063   0.810   3.512   2.705
 1508SOL    MW4 6064   0.887   3.475   2.685
 1509SOL     OW 6065   1.102   3.599   2.767
 1509SOL    HW2 6066   1.101   3.626   2.859
 1509SOL    HW3 6067   1.100   3.681   2.718
 1509SOL    MW4 6068   1.102   3.613   2.772
 1510SOL     OW 6069   1.098   3.851   2.637
 1510SOL    HW2 6070   1.178   3.889   2.674
 1510SOL    HW3 6071   1.110   3.859   2.542
 1510SOL    MW4 6072   1.110   3.857   2.629
 1511SOL     OW 6073   0.893   4.008   2.736
 1511SOL    HW2 6074   0.958   3.963   2.681
 1511SOL    HW3 6075   0.809   3.970   2.709
 1511SOL    MW4 6076   0.890   3.997   2.725
 1512SOL     OW 6077   0.888   4.266   2.604
 1512SOL    HW2 6078   0.892   4.174   2.629
 1512SOL    HW3 6079   0.884   4.265   2.508
 1512SOL    MW4 6080   0.888   4.254   2.595
 1513SOL     OW 6081   1.144   4.351   2.690
 1513SOL    HW2 6082   1.137   4.378   2.781
 1513SOL    HW3 6083   1.055   4.327   2.665
 1513SOL    MW4 6084   1.131   4.351   2.698
 1514SOL     OW 6085   1.584   4.622   2.658
 1514SOL    HW2 6086   1.585   4.529   2.681
 1514SOL    HW3 6087   1.584   4.623   2.562
 1514SOL    MW4 6088   1.584   4.610   2.648
 1515SOL     OW 6089   1.348   0.099   2.722
 1515SOL    HW2 6090   1.370   0.191   2.703
 1515SOL    HW3 6091   1.429   0.052   2.706
 1515SOL    MW4 6092   1.362   0.105   2.717
 1516SOL     OW 6093   1.336   0.372   2.625
 1516SOL    HW2 6094   1.405   0.414   2.676
 1516SOL    HW3 6095   1.255   0.395   2.672
 1516SOL    MW4 6096   1.334   0.381   2.638
 1517SOL     OW 6097   1.564   0.466   2.750
 1517SOL    HW2 6098   1.649   0.429   2.726
 1517SOL    HW3 6099   1.568   0.556   2.715
 1517SOL    MW4 6100   1.576   0.473   2.742
 1518SOL     OW 6101   1.558   0.737   2.689
 1518SOL    HW2 6102   1.486   0.795   2.716
 1518SOL    HW3 6103   1.545   0.726   2.595
 1518SOL    MW4 6104   1.547   0.743   2.680
 1519SOL     OW 6105   1.337   0.887   2.740
 1519SOL    HW2 6106   1.339   0.897   2.835
 1519SOL    HW3 6107   1.351   0.976   2.707
 1519SOL    MW4 6108   1.339   0.900   2.748
 1520SOL     OW 6109   1.338   1.146   2.621
 1520SOL    HW2 6110   1.421   1.181   2.654
 1520SOL    HW3 6111   1.271   1.199   2.662
 1520SOL    MW4 6112   1.340   1.158   2.630
 1521SOL     OW 6113   1.565   1.250   2.752
 1521SOL    HW2 6114   1.579   1.242   2.847
 1521SOL    HW3 6115   1.647   1.219   2.714
 1521SOL    MW4 6116   1.578   1.245   2.760
 1522SOL     OW 6117   1.598   1.520   2.652
 1522SOL    HW2 6118   1.572   1.433   2.682
 1522SOL    HW3 6119   1.584   1.518   2.557
 1522SOL    MW4 6120   1.593   1.508   2.644
 1523SOL     OW 6121   1.360   1.691   2.766
 1523SOL    HW2 6122   1.432   1.632   2.745
 1523SOL    HW3 6123   1.281   1.644   2.737
 1523SOL    MW4 6124   1.359   1.677   2.759
 1524SOL     OW 6125   1.350   1.944   2.647
 1524SOL    HW2 6126   1.345   1.864   2.700
 1524SOL    HW3 6127   1.350   1.912   2.556
 1524SOL    MW4 6128   1.350   1.929   2.642
 1525SOL     OW 6129   1.592   2.107   2.725
 1525SOL    HW2 6130   1.655   2.035   2.722
 1525SOL    HW3 6131   1.509   2.069   2.697
 1525SOL    MW4 6132   1.589   2.093   2.721
 1526SOL     OW 6133   1.584   2.362   2.642
 1526SOL    HW2 6134   1.655   2.404   2.690
 1526SOL    HW3 6135   1.584   2.271   2.674
 1526SOL    MW4 6136   1.593   2.355   2.653
 1527SOL     OW 6137   1.348   2.470   2.784
 1527SOL    HW2 6138   1.351   2.563   2.760
 1527SOL    HW3 6139   1.422   2.431   2.738
 1527SOL    MW4 6140   1.358   2.477   2.775
 1528SOL     OW 6141   1.348   2.737   2.682
 1528SOL    HW2 6142   1.436   2.770   2.699
 1528SOL    HW3 6143   1.338   2.745   2.587
 1528SOL    MW4 6144   1.359   2.742   2.671
 1529SOL     OW 6145   1.594   2.846   2.754
 1529SOL    HW2 6146   1.583   2.847   2.849
 1529SOL    HW3 6147   1.676   2.799   2.740
 1529SOL    MW4 6148   1.603   2.840   2.765
 1530SOL     OW 6149   1.603   3.113   2.623
 1530SOL    HW2 6150   1.665   3.172   2.666
 1530SOL    HW3 6151   1.593   3.040   2.684
 1530SOL    MW4 6152   1.610   3.111   2.636
 1531SOL     OW 6153   1.363   3.251   2.719
 1531SOL    HW2 6154   1.425   3.191   2.677
 1531SOL    HW3 6155   1.282   3.199   2.726
 1531SOL    MW4 6156   1.360   3.236   2.714
 1532SOL     OW 6157   1.363   3.561   2.722
 1532SOL    HW2 6158   1.376   3.468   2.741
 1532SOL    HW3 6159   1.270   3.576   2.738
 1532SOL    MW4 6160   1.353   3.551   2.727
 1533SOL     OW 6161   1.613   3.638   2.816
 1533SOL    HW2 6162   1.673   3.587   2.762
 1533SOL    HW3 6163   1.526   3.606   2.791
 1533SOL    MW4 6164   1.609   3.627   2.806
 1534SOL     OW 6165   1.574   3.847   2.634
 1534SOL    HW2 6166   1.492   3.874   2.675
 1534SOL    HW3 6167   1.603   3.773   2.686
 1534SOL    MW4 6168   1.567   3.841   2.646
 1535SOL     OW 6169   1.325   3.958   2.741
 1535SOL    HW2 6170   1.322   3.973   2.835
 1535SOL    HW3 6171   1.343   4.044   2.703
 1535SOL    MW4 6172   1.327   3.971   2.748
 1536SOL     OW 6173   1.354   4.200   2.609
 1536SOL    HW2 6174   1.284   4.262   2.631
 1536SOL    HW3 6175   1.361   4.205   2.513
 1536SOL    MW4 6176   1.346   4.209   2.599
 1537SOL     OW 6177   1.572   4.328   2.720
 1537SOL    HW2 6178   1.577   4.328   2.816
 1537SOL    HW3 6179   1.496   4.272   2.700
 1537SOL    MW4 6180   1.562   4.320   2.730
 1538SOL     OW 6181   2.036   4.637   2.613
 1538SOL    HW2 6182   2.110   4.681   2.655
 1538SOL    HW3 6183   2.050   4.650   2.519
 1538SOL    MW4 6184   2.047   4.645   2.606
 1539SOL     OW 6185   1.811   0.108   2.692
 1539SOL    HW2 6186   1.884   0.057   2.657
 1539SOL    HW3 6187   1.733   0.062   2.660
 1539SOL    MW4 6188   1.810   0.095   2.683
 1540SOL     OW 6189   1.817   0.374   2.612
 1540SOL    HW2 6190   1.879   0.423   2.666
 1540SOL    HW3 6191   1.825   0.284   2.642
 1540SOL    MW4 6192   1.826   0.369   2.623
 1541SOL     OW 6193   2.037   0.505   2.746
 1541SOL    HW2 6194   2.108   0.450   2.713
 1541SOL    HW3 6195   2.052   0.590   2.704
 1541SOL    MW4 6196   2.049   0.509   2.736
 1542SOL     OW 6197   2.059   0.755   2.644
 1542SOL    HW2 6198   1.974   0.787   2.672
 1542SOL    HW3 6199   2.056   0.758   2.549
 1542SOL    MW4 6200   2.048   0.759   2.635
 1543SOL     OW 6201   1.816   0.876   2.737
 1543SOL    HW2 6202   1.806   0.966   2.706
 1543SOL    HW3 6203   1.733   0.834   2.715
 1543SOL    MW4 6204   1.804   0.883   2.730
 1544SOL     OW 6205   1.813   1.142   2.618
 1544SOL    HW2 6206   1.902   1.161   2.645
 1544SOL    HW3 6207   1.818   1.126   2.524
 1544SOL    MW4 6208   1.825   1.143   2.609
 1545SOL     OW 6209   2.043   1.230   2.762
 1545SOL    HW2 6210   2.047   1.245   2.857
 1545SOL    HW3 6211   2.130   1.196   2.740
 1545SOL    MW4 6212   2.055   1.228   2.772
 1546SOL     OW 6213   2.030   1.504   2.659
 1546SOL    HW2 6214   1.968   1.554   2.713
 1546SOL    HW3 6215   2.027   1.415   2.695
 1546SOL    MW4 6216   2.021   1.499   2.671
 1547SOL     OW 6217   1.834   1.656   2.782
 1547SOL    HW2 6218   1.826   1.643   2.876
 1547SOL    HW3 6219   1.753   1.620   2.746
 1547SOL    MW4 6220   1.822   1.650   2.789
 1548SOL     OW 6221   1.806   1.921   2.678
 1548SOL    HW2 6222   1.888   1.966   2.698
 1548SOL    HW3 6223   1.810   1.841   2.731
 1548SOL    MW4 6224   1.817   1.917   2.688
 1549SOL     OW 6225   2.070   2.012   2.726
 1549SOL    HW2 6226   2.041   2.022   2.816
 1549SOL    HW3 6227   2.061   2.099   2.688
 1549SOL    MW4 6228   2.065   2.025   2.733
 1550SOL     OW 6229   1.984   2.280   2.657
 1550SOL    HW2 6230   2.063   2.330   2.677
 1550SOL    HW3 6231   1.979   2.282   2.561
 1550SOL    MW4 6232   1.994   2.287   2.647
 1551SOL     OW 6233   1.803   2.471   2.758
 1551SOL    HW2 6234   1.814   2.471   2.853
 1551SOL    HW3 6235   1.865   2.406   2.727
 1551SOL    MW4 6236   1.813   2.463   2.766
 1552SOL     OW 6237   1.816   2.715   2.629
 1552SOL    HW2 6238   1.815   2.633   2.678
 1552SOL    HW3 6239   1.787   2.691   2.541
 1552SOL    MW4 6240   1.812   2.701   2.624
 1553SOL     OW 6241   2.021   2.851   2.761
 1553SOL    HW2 6242   2.092   2.792   2.734
 1553SOL    HW3 6243   1.943   2.813   2.720
 1553SOL    MW4 6244   2.020   2.838   2.752
 1554SOL     OW 6245   2.010   3.114   2.638
 1554SOL    HW2 6246   2.006   3.027   2.676
 1554SOL    HW3 6247   2.003   3.099   2.543
 1554SOL    MW4 6248   2.009   3.101   2.630
 1555SOL     OW 6249   1.785   3.254   2.781
 1555SOL    HW2 6250   1.787   3.343   2.745
 1555SOL    HW3 6251   1.859   3.210   2.739
 1555SOL    MW4 6252   1.795   3.260   2.771
 1556SOL     OW 6253   1.813   3.516   2.657
 1556SOL    HW2 6254   1.891   3.564   2.683
 1556SOL    HW3 6255   1.819   3.507   2.562
 1556SOL    MW4 6256   1.824   3.521   2.648
 1557SOL     OW 6257   2.058   3.615   2.719
 1557SOL    HW2 6258   2.073   3.579   2.807
 1557SOL    HW3 6259   2.140   3.597   2.672
 1557SOL    MW4 6260   2.071   3.608   2.725
 1558SOL     OW 6261   2.018   3.870   2.619
 1558SOL    HW2 6262   1.937   3.905   2.655
 1558SOL    HW3 6263   2.033   3.790   2.669
 1558SOL    MW4 6264   2.009   3.864   2.630
 1559SOL     OW 6265   1.790   4.027   2.719
 1559SOL    HW2 6266   1.804   4.111   2.674
 1559SOL    HW3 6267   1.706   3.996   2.684
 1559SOL    MW4 6268   1.780   4.034   2.708
 1560SOL     OW 6269   1.825   4.272   2.616
 1560SOL    HW2 6270   1.738   4.290   2.649
 1560SOL    HW3 6271   1.815   4.273   2.520
 1560SOL    MW4 6272   1.812   4.274   2.608
 1561SOL     OW 6273   2.054   4.367   2.735
 1561SOL    HW2 6274   1.964   4.337   2.722
 1561SOL    HW3 6275   2.052   4.459   2.710
 1561SOL    MW4 6276   2.042   4.375   2.730
 1562SOL     OW 6277   2.453   4.620   2.650
 1562SOL    HW2 6278   2.531   4.665   2.684
 1562SOL    HW3 6279   2.456   4.636   2.556
 1562SOL    MW4 6280   2.464   4.628   2.642
 1563SOL     OW 6281   2.234   0.092   2.749
 1563SOL    HW2 6282   2.246   0.100   2.843
 1563SOL    HW3 6283   2.313   0.048   2.717
 1563SOL    MW4 6284   2.246   0.087   2.757
 1564SOL     OW 6285   2.240   0.356   2.636
 1564SOL    HW2 6286   2.247   0.264   2.662
 1564SOL    HW3 6287   2.255   0.355   2.541
 1564SOL    MW4 6288   2.243   0.344   2.627
 1565SOL     OW 6289   2.446   0.492   2.744
 1565SOL    HW2 6290   2.462   0.579   2.706
 1565SOL    HW3 6291   2.364   0.463   2.703
 1565SOL    MW4 6292   2.437   0.500   2.734
 1566SOL     OW 6293   2.493   0.740   2.634
 1566SOL    HW2 6294   2.423   0.795   2.669
 1566SOL    HW3 6295   2.482   0.744   2.539
 1566SOL    MW4 6296   2.483   0.748   2.626
 1567SOL     OW 6297   2.287   0.887   2.736
 1567SOL    HW2 6298   2.279   0.852   2.825
 1567SOL    HW3 6299   2.205   0.863   2.693
 1567SOL    MW4 6300   2.275   0.879   2.742
 1568SOL     OW 6301   2.305   1.146   2.657
 1568SOL    HW2 6302   2.303   1.056   2.689
 1568SOL    HW3 6303   2.276   1.140   2.566
 1568SOL    MW4 6304   2.301   1.133   2.649
 1569SOL     OW 6305   2.533   1.281   2.772
 1569SOL    HW2 6306   2.618   1.254   2.737
 1569SOL    HW3 6307   2.472   1.215   2.740
 1569SOL    MW4 6308   2.536   1.269   2.763
 1570SOL     OW 6309   2.497   1.522   2.644
 1570SOL    HW2 6310   2.419   1.548   2.692
 1570SOL    HW3 6311   2.521   1.437   2.679
 1570SOL    MW4 6312   2.490   1.514   2.655
 1571SOL     OW 6313   2.265   1.599   2.761
 1571SOL    HW2 6314   2.272   1.680   2.710
 1571SOL    HW3 6315   2.191   1.553   2.722
 1571SOL    MW4 6316   2.256   1.604   2.749
 1572SOL     OW 6317   2.296   1.864   2.660
 1572SOL    HW2 6318   2.210   1.888   2.693
 1572SOL    HW3 6319   2.283   1.856   2.565
 1572SOL    MW4 6320   2.283   1.866   2.652
 1573SOL     OW 6321   2.478   2.046   2.753
 1573SOL    HW2 6322   2.460   2.127   2.706
 1573SOL    HW3 6323   2.413   1.984   2.719
 1573SOL    MW4 6324   2.467   2.049   2.742
 1574SOL     OW 6325   2.447   2.300   2.642
 1574SOL    HW2 6326   2.522   2.355   2.663
 1574SOL    HW3 6327   2.439   2.304   2.547
 1574SOL    MW4 6328   2.456   2.308   2.632
 1575SOL     OW 6329   2.216   2.410   2.726
 1575SOL    HW2 6330   2.236   2.437   2.816
 1575SOL    HW3 6331   2.299   2.377   2.692
 1575SOL    MW4 6332   2.230   2.409   2.734
 1576SOL     OW 6333   2.237   2.698   2.658
 1576SOL    HW2 6334   2.317   2.740   2.688
 1576SOL    HW3 6335   2.247   2.606   2.684
 1576SOL    MW4 6336   2.249   2.691   2.666
 1577SOL     OW 6337   2.450   2.856   2.782
 1577SOL    HW2 6338   2.532   2.819   2.750
 1577SOL    HW3 6339   2.451   2.947   2.753
 1577SOL    MW4 6340   2.461   2.863   2.774
 1578SOL     OW 6341   2.425   3.129   2.674
 1578SOL    HW2 6342   2.359   3.192   2.703
 1578SOL    HW3 6343   2.425   3.137   2.578
 1578SOL    MW4 6344   2.416   3.139   2.665
 1579SOL     OW 6345   2.203   3.307   2.760
 1579SOL    HW2 6346   2.222   3.274   2.848
 1579SOL    HW3 6347   2.139   3.246   2.725
 1579SOL    MW4 6348   2.197   3.295   2.767
 1580SOL     OW 6349   2.268   3.508   2.575
 1580SOL    HW2 6350   2.340   3.544   2.628
 1580SOL    HW3 6351   2.244   3.427   2.620
 1580SOL    MW4 6352   2.275   3.502   2.588
 1581SOL     OW 6353   2.490   3.589   2.707
 1581SOL    HW2 6354   2.485   3.581   2.802
 1581SOL    HW3 6355   2.480   3.683   2.691
 1581SOL    MW4 6356   2.488   3.601   2.717
 1582SOL     OW 6357   2.449   3.857   2.644
 1582SOL    HW2 6358   2.526   3.902   2.676
 1582SOL    HW3 6359   2.375   3.907   2.679
 1582SOL    MW4 6360   2.449   3.869   2.653
 1583SOL     OW 6361   2.222   3.995   2.753
 1583SOL    HW2 6362   2.210   3.995   2.848
 1583SOL    HW3 6363   2.139   3.961   2.719
 1583SOL    MW4 6364   2.209   3.991   2.761
 1584SOL     OW 6365   2.252   4.228   2.590
 1584SOL    HW2 6366   2.233   4.148   2.638
 1584SOL    HW3 6367   2.200   4.295   2.633
 1584SOL    MW4 6368   2.242   4.226   2.602
 1585SOL     OW 6369   2.463   4.356   2.710
 1585SOL    HW2 6370   2.382   4.324   2.670
 1585SOL    HW3 6371   2.459   4.451   2.699
 1585SOL    MW4 6372   2.452   4.365   2.703
 1586SOL     OW 6373   2.931   4.641   2.654
 1586SOL    HW2 6374   3.005   4.684   2.697
 1586SOL    HW3 6375   2.943   4.658   2.561
 1586SOL    MW4 6376   2.942   4.649   2.647
 1587SOL     OW 6377   2.679   0.108   2.716
 1587SOL    HW2 6378   2.693   0.102   2.810
 1587SOL    HW3 6379   2.752   0.059   2.678
 1587SOL    MW4 6380   2.690   0.101   2.723
 1588SOL     OW 6381   2.665   0.386   2.629
 1588SOL    HW2 6382   2.653   0.294   2.654
 1588SOL    HW3 6383   2.581   0.427   2.649
 1588SOL    MW4 6384   2.652   0.379   2.635
 1589SOL     OW 6385   2.915   0.491   2.724
 1589SOL    HW2 6386   2.921   0.577   2.683
 1589SOL    HW3 6387   2.830   0.457   2.696
 1589SOL    MW4 6388   2.905   0.498   2.715
 1590SOL     OW 6389   2.917   0.747   2.626
 1590SOL    HW2 6390   2.994   0.795   2.655
 1590SOL    HW3 6391   2.843   0.804   2.648
 1590SOL    MW4 6392   2.917   0.761   2.633
 1591SOL     OW 6393   2.712   0.904   2.729
 1591SOL    HW2 6394   2.708   0.899   2.825
 1591SOL    HW3 6395   2.636   0.854   2.700
 1591SOL    MW4 6396   2.701   0.897   2.738
 1592SOL     OW 6397   2.723   1.153   2.626
 1592SOL    HW2 6398   2.801   1.187   2.671
 1592SOL    HW3 6399   2.707   1.068   2.668
 1592SOL    MW4 6400   2.731   1.146   2.638
 1593SOL     OW 6401   2.940   1.269   2.754
 1593SOL    HW2 6402   2.958   1.263   2.848
 1593SOL    HW3 6403   3.010   1.219   2.713
 1593SOL    MW4 6404   2.951   1.262   2.761
 1594SOL     OW 6405   2.943   1.534   2.642
 1594SOL    HW2 6406   2.856   1.557   2.673
 1594SOL    HW3 6407   2.961   1.449   2.681
 1594SOL    MW4 6408   2.934   1.526   2.651
 1595SOL     OW 6409   2.715   1.639   2.748
 1595SOL    HW2 6410   2.710   1.634   2.843
 1595SOL    HW3 6411   2.629   1.609   2.718
 1595SOL    MW4 6412   2.703   1.634   2.756
 1596SOL     OW 6413   2.693   1.914   2.625
 1596SOL    HW2 6414   2.693   1.828   2.666
 1596SOL    HW3 6415   2.620   1.961   2.665
 1596SOL    MW4 6416   2.684   1.909   2.635
 1597SOL     OW 6417   2.918   2.056   2.716
 1597SOL    HW2 6418   2.899   2.150   2.715
 1597SOL    HW3 6419   2.843   2.016   2.671
 1597SOL    MW4 6420   2.905   2.063   2.710
 1598SOL     OW 6421   2.871   2.323   2.667
 1598SOL    HW2 6422   2.949   2.361   2.706
 1598SOL    HW3 6423   2.799   2.379   2.698
 1598SOL    MW4 6424   2.872   2.335   2.676
 1599SOL     OW 6425   2.651   2.486   2.718
 1599SOL    HW2 6426   2.663   2.498   2.812
 1599SOL    HW3 6427   2.679   2.569   2.679
 1599SOL    MW4 6428   2.657   2.499   2.725
 1600SOL     OW 6429   2.668   2.739   2.657
 1600SOL    HW2 6430   2.755   2.778   2.665
 1600SOL    HW3 6431   2.656   2.727   2.563
 1600SOL    MW4 6432   2.678   2.743   2.645
 1601SOL     OW 6433   2.918   2.825   2.761
 1601SOL    HW2 6434   2.908   2.821   2.856
 1601SOL    HW3 6435   2.928   2.918   2.742
 1601SOL    MW4 6436   2.918   2.837   2.771
 1602SOL     OW 6437   2.904   3.106   2.672
 1602SOL    HW2 6438   2.811   3.124   2.688
 1602SOL    HW3 6439   2.911   3.105   2.576
 1602SOL    MW4 6440   2.892   3.109   2.661
 1603SOL     OW 6441   2.665   3.230   2.756
 1603SOL    HW2 6442   2.682   3.313   2.711
 1603SOL    HW3 6443   2.581   3.201   2.721
 1603SOL    MW4 6444   2.656   3.237   2.745
 1604SOL     OW 6445   2.697   3.462   2.614
 1604SOL    HW2 6446   2.614   3.497   2.647
 1604SOL    HW3 6447   2.692   3.475   2.519
 1604SOL    MW4 6448   2.685   3.468   2.606
 1605SOL     OW 6449   2.904   3.578   2.765
 1605SOL    HW2 6450   2.908   3.568   2.860
 1605SOL    HW3 6451   2.815   3.552   2.741
 1605SOL    MW4 6452   2.893   3.574   2.774
 1606SOL     OW 6453   2.913   3.834   2.633
 1606SOL    HW2 6454   2.987   3.888   2.662
 1606SOL    HW3 6455   2.919   3.754   2.686
 1606SOL    MW4 6456   2.923   3.831   2.644
 1607SOL     OW 6457   2.684   3.999   2.725
 1607SOL    HW2 6458   2.697   4.085   2.684
 1607SOL    HW3 6459   2.764   3.951   2.707
 1607SOL    MW4 6460   2.696   4.004   2.717
 1608SOL     OW 6461   2.704   4.256   2.616
 1608SOL    HW2 6462   2.770   4.308   2.662
 1608SOL    HW3 6463   2.621   4.289   2.649
 1608SOL    MW4 6464   2.702   4.267   2.627
 1609SOL     OW 6465   2.920   4.372   2.742
 1609SOL    HW2 6466   2.908   4.379   2.837
 1609SOL    HW3 6467   2.941   4.461   2.714
 1609SOL    MW4 6468   2.921   4.385   2.751
 1610SOL     OW 6469   3.359   4.658   2.627
 1610SOL    HW2 6470   3.366   4.570   2.664
 1610SOL    HW3 6471   3.293   4.701   2.682
 1610SOL    MW4 6472   3.352   4.652   2.639
 1611SOL     OW 6473   3.154   0.110   2.760
 1611SOL    HW2 6474   3.158   0.109   2.856
 1611SOL    HW3 6475   3.175   0.200   2.736
 1611SOL    MW4 6476   3.157   0.121   2.769
 1612SOL     OW 6477   3.158   0.364   2.635
 1612SOL    HW2 6478   3.076   0.400   2.668
 1612SOL    HW3 6479   3.141   0.345   2.543
 1612SOL    MW4 6480   3.145   0.366   2.628
 1613SOL     OW 6481   3.404   0.462   2.761
 1613SOL    HW2 6482   3.404   0.547   2.717
 1613SOL    HW3 6483   3.326   0.418   2.729
 1613SOL    MW4 6484   3.394   0.468   2.751
 1614SOL     OW 6485   3.393   0.711   2.637
 1614SOL    HW2 6486   3.470   0.764   2.658
 1614SOL    HW3 6487   3.397   0.699   2.542
 1614SOL    MW4 6488   3.404   0.716   2.627
 1615SOL     OW 6489   3.171   0.864   2.689
 1615SOL    HW2 6490   3.163   0.861   2.784
 1615SOL    HW3 6491   3.239   0.800   2.669
 1615SOL    MW4 6492   3.179   0.856   2.699
 1616SOL     OW 6493   3.149   1.129   2.634
 1616SOL    HW2 6494   3.161   1.035   2.650
 1616SOL    HW3 6495   3.137   1.135   2.539
 1616SOL    MW4 6496   3.149   1.118   2.624
 1617SOL     OW 6497   3.378   1.256   2.718
 1617SOL    HW2 6498   3.364   1.278   2.810
 1617SOL    HW3 6499   3.301   1.204   2.694
 1617SOL    MW4 6500   3.366   1.252   2.727
 1618SOL     OW 6501   3.395   1.533   2.651
 1618SOL    HW2 6502   3.315   1.571   2.687
 1618SOL    HW3 6503   3.381   1.439   2.654
 1618SOL    MW4 6504   3.383   1.526   2.656
 1619SOL     OW 6505   3.155   1.682   2.733
 1619SOL    HW2 6506   3.139   1.766   2.689
 1619SOL    HW3 6507   3.081   1.627   2.708
 1619SOL    MW4 6508   3.143   1.686   2.724
 1620SOL     OW 6509   3.137   1.930   2.615
 1620SOL    HW2 6510   3.215   1.984   2.628
 1620SOL    HW3 6511   3.069   1.974   2.667
 1620SOL    MW4 6512   3.138   1.943   2.623
 1621SOL     OW 6513   3.361   2.062   2.704
 1621SOL    HW2 6514   3.380   2.064   2.798
 1621SOL    HW3 6515   3.335   2.151   2.683
 1621SOL    MW4 6516   3.360   2.074   2.714
 1622SOL     OW 6517   3.357   2.318   2.620
 1622SOL    HW2 6518   3.441   2.349   2.655
 1622SOL    HW3 6519   3.365   2.327   2.526
 1622SOL    MW4 6520   3.369   2.323   2.612
 1623SOL     OW 6521   3.119   2.417   2.743
 1623SOL    HW2 6522   3.123   2.508   2.713
 1623SOL    HW3 6523   3.204   2.380   2.720
 1623SOL    MW4 6524   3.131   2.424   2.736
 1624SOL     OW 6525   3.141   2.685   2.681
 1624SOL    HW2 6526   3.214   2.727   2.727
 1624SOL    HW3 6527   3.064   2.734   2.709
 1624SOL    MW4 6528   3.140   2.697   2.691
 1625SOL     OW 6529   3.362   2.847   2.733
 1625SOL    HW2 6530   3.374   2.838   2.827
 1625SOL    HW3 6531   3.443   2.813   2.695
 1625SOL    MW4 6532   3.374   2.841   2.740
 1626SOL     OW 6533   3.377   3.111   2.654
 1626SOL    HW2 6534   3.371   3.022   2.689
 1626SOL    HW3 6535   3.385   3.100   2.559
 1626SOL    MW4 6536   3.377   3.098   2.646
 1627SOL     OW 6537   3.134   3.260   2.774
 1627SOL    HW2 6538   3.204   3.206   2.736
 1627SOL    HW3 6539   3.053   3.215   2.748
 1627SOL    MW4 6540   3.132   3.247   2.765
 1628SOL     OW 6541   3.137   3.508   2.624
 1628SOL    HW2 6542   3.132   3.428   2.677
 1628SOL    HW3 6543   3.058   3.557   2.648
 1628SOL    MW4 6544   3.126   3.504   2.634
 1629SOL     OW 6545   3.384   3.600   2.761
 1629SOL    HW2 6546   3.386   3.568   2.851
 1629SOL    HW3 6547   3.294   3.584   2.732
 1629SOL    MW4 6548   3.372   3.594   2.769
 1630SOL     OW 6549   3.373   3.868   2.678
 1630SOL    HW2 6550   3.401   3.779   2.700
 1630SOL    HW3 6551   3.371   3.870   2.583
 1630SOL    MW4 6552   3.376   3.857   2.668
 1631SOL     OW 6553   3.116   3.991   2.724
 1631SOL    HW2 6554   3.127   4.082   2.696
 1631SOL    HW3 6555   3.204   3.953   2.715
 1631SOL    MW4 6556   3.129   3.998   2.719
 1632SOL     OW 6557   3.148   4.252   2.647
 1632SOL    HW2 6558   3.059   4.286   2.659
 1632SOL    HW3 6559   3.155   4.235   2.553
 1632SOL    MW4 6560   3.137   4.254   2.637
 1633SOL     OW 6561   3.398   4.392   2.726
 1633SOL    HW2 6562   3.420   4.384   2.818
 1633SOL    HW3 6563   3.313   4.349   2.718
 1633SOL    MW4 6564   3.390   4.385   2.737
 1634SOL     OW 6565   3.833   4.639   2.628
 1634SOL    HW2 6566   3.839   4.565   2.688
 1634SOL    HW3 6567   3.756   4.688   2.658
 1634SOL    MW4 6568   3.823   4.636   2.640
 1635SOL     OW 6569   3.600   0.099   2.698
 1635SOL    HW2 6570   3.592   0.191   2.674
 1635SOL    HW3 6571   3.518   0.059   2.669
 1635SOL    MW4 6572   3.588   0.106   2.691
 1636SOL     OW 6573   3.601   0.354   2.600
 1636SOL    HW2 6574   3.676   0.404   2.632
 1636SOL    HW3 6575   3.525   0.397   2.640
 1636SOL    MW4 6576   3.601   0.366   2.609
 1637SOL     OW 6577   3.809   0.484   2.728
 1637SOL    HW2 6578   3.809   0.479   2.824
 1637SOL    HW3 6579   3.895   0.451   2.702
 1637SOL    MW4 6580   3.820   0.479   2.737
 1638SOL     OW 6581   3.836   0.749   2.656
 1638SOL    HW2 6582   3.759   0.792   2.691
 1638SOL    HW3 6583   3.838   0.664   2.700
 1638SOL    MW4 6584   3.826   0.743   2.666
 1639SOL     OW 6585   3.601   0.882   2.747
 1639SOL    HW2 6586   3.591   0.888   2.842
 1639SOL    HW3 6587   3.585   0.970   2.715
 1639SOL    MW4 6588   3.598   0.894   2.755
 1640SOL     OW 6589   3.616   1.141   2.639
 1640SOL    HW2 6590   3.694   1.180   2.677
 1640SOL    HW3 6591   3.544   1.196   2.669
 1640SOL    MW4 6592   3.617   1.153   2.648
 1641SOL     OW 6593   3.841   1.301   2.753
 1641SOL    HW2 6594   3.913   1.267   2.700
 1641SOL    HW3 6595   3.817   1.383   2.711
 1641SOL    MW4 6596   3.847   1.307   2.741
 1642SOL     OW 6597   3.825   1.533   2.590
 1642SOL    HW2 6598   3.906   1.571   2.622
 1642SOL    HW3 6599   3.756   1.585   2.632
 1642SOL    MW4 6600   3.826   1.545   2.600
 1643SOL     OW 6601   3.625   1.675   2.714
 1643SOL    HW2 6602   3.596   1.766   2.705
 1643SOL    HW3 6603   3.545   1.623   2.699
 1643SOL    MW4 6604   3.610   1.680   2.711
 1644SOL     OW 6605   3.596   1.944   2.645
 1644SOL    HW2 6606   3.509   1.978   2.666
 1644SOL    HW3 6607   3.597   1.941   2.550
 1644SOL    MW4 6608   3.584   1.948   2.636
 1645SOL     OW 6609   3.826   2.080   2.743
 1645SOL    HW2 6610   3.879   2.014   2.698
 1645SOL    HW3 6611   3.736   2.053   2.729
 1645SOL    MW4 6612   3.821   2.068   2.735
 1646SOL     OW 6613   3.843   2.321   2.639
 1646SOL    HW2 6614   3.836   2.232   2.674
 1646SOL    HW3 6615   3.826   2.312   2.546
 1646SOL    MW4 6616   3.840   2.308   2.632
 1647SOL     OW 6617   3.608   2.440   2.734
 1647SOL    HW2 6618   3.638   2.451   2.824
 1647SOL    HW3 6619   3.685   2.409   2.687
 1647SOL    MW4 6620   3.622   2.438   2.740
 1648SOL     OW 6621   3.589   2.697   2.651
 1648SOL    HW2 6622   3.579   2.608   2.683
 1648SOL    HW3 6623   3.589   2.689   2.555
 1648SOL    MW4 6624   3.587   2.684   2.642
 1649SOL     OW 6625   3.795   2.840   2.776
 1649SOL    HW2 6626   3.880   2.799   2.760
 1649SOL    HW3 6627   3.733   2.787   2.726
 1649SOL    MW4 6628   3.798   2.828   2.768
 1650SOL     OW 6629   3.813   3.097   2.666
 1650SOL    HW2 6630   3.737   3.145   2.699
 1650SOL    HW3 6631   3.814   3.015   2.716
 1650SOL    MW4 6632   3.803   3.092   2.677
 1651SOL     OW 6633   3.586   3.230   2.787
 1651SOL    HW2 6634   3.603   3.315   2.748
 1651SOL    HW3 6635   3.508   3.198   2.741
 1651SOL    MW4 6636   3.578   3.237   2.776
 1652SOL     OW 6637   3.606   3.461   2.637
 1652SOL    HW2 6638   3.671   3.525   2.666
 1652SOL    HW3 6639   3.522   3.499   2.662
 1652SOL    MW4 6640   3.604   3.474   2.644
 1653SOL     OW 6641   3.809   3.607   2.790
 1653SOL    HW2 6642   3.893   3.579   2.752
 1653SOL    HW3 6643   3.790   3.690   2.745
 1653SOL    MW4 6644   3.818   3.615   2.779
 1654SOL     OW 6645   3.763   3.851   2.660
 1654SOL    HW2 6646   3.852   3.880   2.678
 1654SOL    HW3 6647   3.707   3.912   2.708
 1654SOL    MW4 6648   3.767   3.863   2.668
 1655SOL     OW 6649   3.588   4.032   2.778
 1655SOL    HW2 6650   3.602   4.112   2.728
 1655SOL    HW3 6651   3.512   3.991   2.737
 1655SOL    MW4 6652   3.580   4.038   2.766
 1656SOL     OW 6653   3.626   4.272   2.615
 1656SOL    HW2 6654   3.550   4.324   2.641
 1656SOL    HW3 6655   3.619   4.266   2.519
 1656SOL    MW4 6656   3.615   4.278   2.605
 1657SOL     OW 6657   3.814   4.408   2.761
 1657SOL    HW2 6658   3.891   4.365   2.722
 1657SOL    HW3 6659   3.739   4.361   2.724
 1657SOL    MW4 6660   3.815   4.396   2.751
 1658SOL     OW 6661   4.297   4.664   2.633
 1658SOL    HW2 6662   4.216   4.706   2.661
 1658SOL    HW3 6663   4.367   4.721   2.667
 1658SOL    MW4 6664   4.296   4.677   2.642
 1659SOL     OW 6665   4.055   0.132   2.713
 1659SOL    HW2 6666   4.053   0.123   2.808
 1659SOL    HW3 6667   3.975   0.088   2.683
 1659SOL    MW4 6668   4.045   0.125   2.721
 1660SOL     OW 6669   4.052   0.397   2.623
 1660SOL    HW2 6670   4.054   0.311   2.664
 1660SOL    HW3 6671   4.054   0.379   2.529
 1660SOL    MW4 6672   4.053   0.383   2.616
 1661SOL     OW 6673   4.252   0.490   2.780
 1661SOL    HW2 6674   4.187   0.452   2.720
 1661SOL    HW3 6675   4.336   0.457   2.749
 1661SOL    MW4 6676   4.254   0.481   2.768
 1662SOL     OW 6677   4.237   0.761   2.687
 1662SOL    HW2 6678   4.226   0.675   2.727
 1662SOL    HW3 6679   4.255   0.744   2.595
 1662SOL    MW4 6680   4.238   0.748   2.680
 1663SOL     OW 6681   4.039   0.951   2.752
 1663SOL    HW2 6682   4.127   0.913   2.742
 1663SOL    HW3 6683   3.980   0.877   2.741
 1663SOL    MW4 6684   4.043   0.936   2.749
 1664SOL     OW 6685   4.046   1.169   2.607
 1664SOL    HW2 6686   4.127   1.206   2.642
 1664SOL    HW3 6687   4.029   1.092   2.661
 1664SOL    MW4 6688   4.055   1.164   2.619
 1665SOL     OW 6689   4.281   1.284   2.751
 1665SOL    HW2 6690   4.287   1.377   2.728
 1665SOL    HW3 6691   4.356   1.243   2.707
 1665SOL    MW4 6692   4.292   1.291   2.742
 1666SOL     OW 6693   4.270   1.545   2.642
 1666SOL    HW2 6694   4.348   1.595   2.665
 1666SOL    HW3 6695   4.261   1.556   2.548
 1666SOL    MW4 6696   4.279   1.553   2.633
 1667SOL     OW 6697   4.024   1.672   2.737
 1667SOL    HW2 6698   4.040   1.673   2.831
 1667SOL    HW3 6699   4.108   1.650   2.698
 1667SOL    MW4 6700   4.037   1.669   2.744
 1668SOL     OW 6701   4.017   1.927   2.603
 1668SOL    HW2 6702   4.092   1.977   2.635
 1668SOL    HW3 6703   4.021   1.844   2.650
 1668SOL    MW4 6704   4.027   1.923   2.613
 1669SOL     OW 6705   4.228   2.078   2.689
 1669SOL    HW2 6706   4.244   2.172   2.677
 1669SOL    HW3 6707   4.316   2.040   2.692
 1669SOL    MW4 6708   4.242   2.085   2.688
 1670SOL     OW 6709   4.265   2.356   2.644
 1670SOL    HW2 6710   4.192   2.408   2.678
 1670SOL    HW3 6711   4.251   2.354   2.549
 1670SOL    MW4 6712   4.253   2.362   2.636
 1671SOL     OW 6713   4.046   2.489   2.746
 1671SOL    HW2 6714   4.047   2.473   2.841
 1671SOL    HW3 6715   3.983   2.426   2.712
 1671SOL    MW4 6716   4.038   2.479   2.754
 1672SOL     OW 6717   4.042   2.747   2.677
 1672SOL    HW2 6718   4.135   2.768   2.692
 1672SOL    HW3 6719   4.034   2.655   2.703
 1672SOL    MW4 6720   4.054   2.737   2.682
 1673SOL     OW 6721   4.294   2.837   2.732
 1673SOL    HW2 6722   4.281   2.844   2.827
 1673SOL    HW3 6723   4.288   2.928   2.701
 1673SOL    MW4 6724   4.292   2.850   2.740
 1674SOL     OW 6725   4.258   3.099   2.665
 1674SOL    HW2 6726   4.187   3.149   2.704
 1674SOL    HW3 6727   4.240   3.099   2.571
 1674SOL    MW4 6728   4.246   3.105   2.658
 1675SOL     OW 6729   4.041   3.228   2.788
 1675SOL    HW2 6730   4.033   3.313   2.745
 1675SOL    HW3 6731   3.965   3.179   2.757
 1675SOL    MW4 6732   4.030   3.233   2.779
 1676SOL     OW 6733   4.017   3.479   2.655
 1676SOL    HW2 6734   4.093   3.526   2.687
 1676SOL    HW3 6735   4.021   3.488   2.560
 1676SOL    MW4 6736   4.027   3.486   2.646
 1677SOL     OW 6737   4.238   3.614   2.761
 1677SOL    HW2 6738   4.235   3.608   2.857
 1677SOL    HW3 6739   4.313   3.561   2.736
 1677SOL    MW4 6740   4.247   3.606   2.770
 1678SOL     OW 6741   4.256   3.842   2.620
 1678SOL    HW2 6742   4.259   3.763   2.674
 1678SOL    HW3 6743   4.336   3.889   2.642
 1678SOL    MW4 6744   4.267   3.837   2.630
 1679SOL     OW 6745   4.008   3.954   2.703
 1679SOL    HW2 6746   4.023   3.971   2.796
 1679SOL    HW3 6747   4.093   3.923   2.671
 1679SOL    MW4 6748   4.021   3.952   2.711
 1680SOL     OW 6749   4.051   4.282   2.634
 1680SOL    HW2 6750   4.066   4.188   2.643
 1680SOL    HW3 6751   4.029   4.294   2.541
 1680SOL    MW4 6752   4.050   4.271   2.623
 1681SOL     OW 6753   4.263   4.414   2.766
 1681SOL    HW2 6754   4.177   4.385   2.734
 1681SOL    HW3 6755   4.276   4.499   2.724
 1681SOL    MW4 6756   4.253   4.421   2.756
 1682SOL     OW 6757   0.249   4.633   3.104
 1682SOL    HW2 6758   0.266   4.630   3.198
 1682SOL    HW3 6759   0.174   4.692   3.095
 1682SOL    MW4 6760   0.241   4.640   3.115
 1683SOL     OW 6761   0.048   0.143   3.046
 1683SOL    HW2 6762  -0.031   0.091   3.063
 1683SOL    HW3 6763   0.026   0.231   3.077
 1683SOL    MW4 6764   0.034   0.148   3.053
 1684SOL     OW 6765   4.485   0.411   3.179
 1684SOL    HW2 6766   4.471   0.411   3.273
 1684SOL    HW3 6767   4.401   0.441   3.142
 1684SOL    MW4 6768   4.472   0.415   3.186
 1685SOL     OW 6769   0.221   0.485   3.038
 1685SOL    HW2 6770   0.299   0.451   3.082
 1685SOL    HW3 6771   0.148   0.460   3.096
 1685SOL    MW4 6772   0.221   0.477   3.051
 1686SOL     OW 6773   0.194   0.764   3.089
 1686SOL    HW2 6774   0.185   0.770   3.184
 1686SOL    HW3 6775   0.193   0.669   3.072
 1686SOL    MW4 6776   0.193   0.752   3.099
 1687SOL     OW 6777   0.008   0.954   2.977
 1687SOL    HW2 6778   0.070   0.887   3.006
 1687SOL    HW3 6779   0.008   0.948   2.882
 1687SOL    MW4 6780   0.016   0.945   2.968
 1688SOL     OW 6781   0.024   1.176   3.153
 1688SOL    HW2 6782  -0.054   1.223   3.125
 1688SOL    HW3 6783   0.025   1.096   3.101
 1688SOL    MW4 6784   0.014   1.171   3.143
 1689SOL     OW 6785   0.246   1.320   3.067
 1689SOL    HW2 6786   0.172   1.273   3.106
 1689SOL    HW3 6787   0.242   1.298   2.974
 1689SOL    MW4 6788   0.236   1.311   3.060
 1690SOL     OW 6789   0.205   1.558   3.199
 1690SOL    HW2 6790   0.138   1.603   3.148
 1690SOL    HW3 6791   0.215   1.473   3.156
 1690SOL    MW4 6792   0.198   1.552   3.187
 1691SOL     OW 6793   0.022   1.694   3.048
 1691SOL    HW2 6794  -0.054   1.645   3.079
 1691SOL    HW3 6795   0.007   1.784   3.078
 1691SOL    MW4 6796   0.010   1.700   3.056
 1692SOL     OW 6797   4.484   1.958   3.128
 1692SOL    HW2 6798   4.400   1.977   3.085
 1692SOL    HW3 6799   4.550   1.983   3.063
 1692SOL    MW4 6800   4.482   1.964   3.114
 1693SOL     OW 6801   0.242   2.039   3.017
 1693SOL    HW2 6802   0.222   2.124   3.056
 1693SOL    HW3 6803   0.223   2.050   2.923
 1693SOL    MW4 6804   0.237   2.051   3.010
 1694SOL     OW 6805   0.193   2.322   3.121
 1694SOL    HW2 6806   0.210   2.314   3.215
 1694SOL    HW3 6807   0.269   2.369   3.087
 1694SOL    MW4 6808   0.205   2.327   3.129
 1695SOL     OW 6809   4.450   2.438   3.048
 1695SOL    HW2 6810   4.458   2.530   3.072
 1695SOL    HW3 6811   4.528   2.397   3.086
 1695SOL    MW4 6812   4.461   2.445   3.056
 1696SOL     OW 6813   0.025   2.684   3.125
 1696SOL    HW2 6814   0.018   2.688   3.220
 1696SOL    HW3 6815   0.101   2.739   3.104
 1696SOL    MW4 6816   0.034   2.692   3.135
 1697SOL     OW 6817   0.245   2.847   3.059
 1697SOL    HW2 6818   0.328   2.805   3.082
 1697SOL    HW3 6819   0.242   2.842   2.963
 1697SOL    MW4 6820   0.256   2.841   3.049
 1698SOL     OW 6821   0.243   3.123   3.131
 1698SOL    HW2 6822   0.173   3.167   3.083
 1698SOL    HW3 6823   0.237   3.032   3.103
 1698SOL    MW4 6824   0.233   3.117   3.121
 1699SOL     OW 6825   0.006   3.222   3.016
 1699SOL    HW2 6826  -0.068   3.174   3.052
 1699SOL    HW3 6827  -0.014   3.233   2.923
 1699SOL    MW4 6828  -0.006   3.217   3.009
 1700SOL     OW 6829   0.015   3.481   3.135
 1700SOL    HW2 6830  -0.060   3.534   3.107
 1700SOL    HW3 6831  -0.006   3.393   3.101
 1700SOL    MW4 6832   0.002   3.476   3.127
 1701SOL     OW 6833   0.237   3.598   2.968
 1701SOL    HW2 6834   0.205   3.676   3.013
 1701SOL    HW3 6835   0.180   3.527   2.999
 1701SOL    MW4 6836   0.225   3.599   2.978
 1702SOL     OW 6837   0.201   3.855   3.087
 1702SOL    HW2 6838   0.207   3.853   3.183
 1702SOL    HW3 6839   0.278   3.905   3.060
 1702SOL    MW4 6840   0.212   3.861   3.096
 1703SOL     OW 6841   4.489   4.031   3.005
 1703SOL    HW2 6842   4.546   3.963   3.042
 1703SOL    HW3 6843   4.474   4.003   2.915
 1703SOL    MW4 6844   4.495   4.018   2.998
 1704SOL     OW 6845   0.001   4.284   3.114
 1704SOL    HW2 6846  -0.007   4.283   3.209
 1704SOL    HW3 6847  -0.011   4.193   3.088
 1704SOL    MW4 6848  -0.002   4.272   3.123
 1705SOL     OW 6849   0.235   4.391   2.992
 1705SOL    HW2 6850   0.164   4.352   3.044
 1705SOL    HW3 6851   0.244   4.480   3.027
 1705SOL    MW4 6852   0.227   4.398   3.004
 1706SOL     OW 6853   0.689   0.025   3.150
 1706SOL    HW2 6854   0.680  -0.066   3.119
 1706SOL    HW3 6855   0.607   0.067   3.124
 1706SOL    MW4 6856   0.677   0.018   3.143
 1707SOL     OW 6857   0.458   0.129   3.036
 1707SOL    HW2 6858   0.443   0.219   3.068
 1707SOL    HW3 6859   0.382   0.080   3.067
 1707SOL    MW4 6860   0.446   0.135   3.045
 1708SOL     OW 6861   0.454   0.388   3.165
 1708SOL    HW2 6862   0.428   0.435   3.244
 1708SOL    HW3 6863   0.526   0.440   3.128
 1708SOL    MW4 6864   0.460   0.401   3.170
 1709SOL     OW 6865   0.656   0.549   3.065
 1709SOL    HW2 6866   0.743   0.511   3.057
 1709SOL    HW3 6867   0.671   0.640   3.090
 1709SOL    MW4 6868   0.669   0.556   3.067
 1710SOL     OW 6869   0.667   0.821   3.132
 1710SOL    HW2 6870   0.642   0.819   3.224
 1710SOL    HW3 6871   0.594   0.864   3.087
 1710SOL    MW4 6872   0.654   0.826   3.138
 1711SOL     OW 6873   0.452   0.925   2.994
 1711SOL    HW2 6874   0.373   0.876   3.017
 1711SOL    HW3 6875   0.445   0.936   2.899
 1711SOL    MW4 6876   0.440   0.920   2.984
 1712SOL     OW 6877   0.430   1.147   3.165
 1712SOL    HW2 6878   0.422   1.064   3.118
 1712SOL    HW3 6879   0.361   1.202   3.129
 1712SOL    MW4 6880   0.420   1.143   3.154
 1713SOL     OW 6881   0.650   1.264   3.028
 1713SOL    HW2 6882   0.732   1.219   3.051
 1713SOL    HW3 6883   0.587   1.232   3.092
 1713SOL    MW4 6884   0.653   1.254   3.039
 1714SOL     OW 6885   0.676   1.538   3.140
 1714SOL    HW2 6886   0.709   1.525   3.229
 1714SOL    HW3 6887   0.670   1.449   3.103
 1714SOL    MW4 6888   0.680   1.524   3.147
 1715SOL     OW 6889   0.444   1.632   3.037
 1715SOL    HW2 6890   0.521   1.594   3.080
 1715SOL    HW3 6891   0.372   1.612   3.097
 1715SOL    MW4 6892   0.445   1.624   3.051
 1716SOL     OW 6893   0.478   1.903   3.131
 1716SOL    HW2 6894   0.470   1.812   3.104
 1716SOL    HW3 6895   0.398   1.945   3.100
 1716SOL    MW4 6896   0.467   1.897   3.123
 1717SOL     OW 6897   0.673   2.048   3.007
 1717SOL    HW2 6898   0.753   2.014   3.045
 1717SOL    HW3 6899   0.603   1.996   3.047
 1717SOL    MW4 6900   0.674   2.037   3.017
 1718SOL     OW 6901   0.639   2.305   3.121
 1718SOL    HW2 6902   0.652   2.302   3.215
 1718SOL    HW3 6903   0.649   2.215   3.091
 1718SOL    MW4 6904   0.642   2.293   3.129
 1719SOL     OW 6905   0.433   2.450   3.024
 1719SOL    HW2 6906   0.512   2.401   3.047
 1719SOL    HW3 6907   0.441   2.464   2.929
 1719SOL    MW4 6908   0.444   2.445   3.014
 1720SOL     OW 6909   0.467   2.701   3.150
 1720SOL    HW2 6910   0.543   2.750   3.118
 1720SOL    HW3 6911   0.476   2.614   3.112
 1720SOL    MW4 6912   0.478   2.696   3.141
 1721SOL     OW 6913   0.715   2.819   3.035
 1721SOL    HW2 6914   0.790   2.776   3.076
 1721SOL    HW3 6915   0.709   2.903   3.080
 1721SOL    MW4 6916   0.724   2.824   3.046
 1722SOL     OW 6917   0.710   3.077   3.150
 1722SOL    HW2 6918   0.701   3.087   3.245
 1722SOL    HW3 6919   0.638   3.129   3.114
 1722SOL    MW4 6920   0.699   3.085   3.158
 1723SOL     OW 6921   0.494   3.217   3.032
 1723SOL    HW2 6922   0.488   3.312   3.039
 1723SOL    HW3 6923   0.410   3.186   3.067
 1723SOL    MW4 6924   0.482   3.225   3.038
 1724SOL     OW 6925   0.472   3.492   3.071
 1724SOL    HW2 6926   0.474   3.511   3.165
 1724SOL    HW3 6927   0.395   3.540   3.039
 1724SOL    MW4 6928   0.462   3.501   3.079
 1725SOL     OW 6929   0.696   3.655   3.000
 1725SOL    HW2 6930   0.772   3.626   3.050
 1725SOL    HW3 6931   0.625   3.598   3.029
 1725SOL    MW4 6932   0.697   3.644   3.010
 1726SOL     OW 6933   0.696   3.890   3.108
 1726SOL    HW2 6934   0.664   3.878   3.197
 1726SOL    HW3 6935   0.700   3.801   3.072
 1726SOL    MW4 6936   0.693   3.877   3.115
 1727SOL     OW 6937   0.453   3.982   3.022
 1727SOL    HW2 6938   0.535   3.944   3.053
 1727SOL    HW3 6939   0.467   3.994   2.928
 1727SOL    MW4 6940   0.466   3.978   3.014
 1728SOL     OW 6941   0.448   4.252   3.113
 1728SOL    HW2 6942   0.431   4.164   3.079
 1728SOL    HW3 6943   0.390   4.309   3.063
 1728SOL    MW4 6944   0.438   4.248   3.102
 1729SOL     OW 6945   0.660   4.443   3.044
 1729SOL    HW2 6946   0.586   4.385   3.063
 1729SOL    HW3 6947   0.684   4.422   2.954
 1729SOL    MW4 6948   0.653   4.432   3.034
 1730SOL     OW 6949   1.121   4.638   3.101
 1730SOL    HW2 6950   1.204   4.674   3.068
 1730SOL    HW3 6951   1.056   4.705   3.080
 1730SOL    MW4 6952   1.124   4.651   3.094
 1731SOL     OW 6953   0.921   0.152   3.039
 1731SOL    HW2 6954   0.915   0.245   3.060
 1731SOL    HW3 6955   0.843   0.113   3.079
 1731SOL    MW4 6956   0.910   0.159   3.047
 1732SOL     OW 6957   0.915   0.405   3.108
 1732SOL    HW2 6958   0.898   0.416   3.202
 1732SOL    HW3 6959   0.990   0.462   3.091
 1732SOL    MW4 6960   0.923   0.414   3.118
 1733SOL     OW 6961   1.168   0.509   3.027
 1733SOL    HW2 6962   1.248   0.465   3.055
 1733SOL    HW3 6963   1.151   0.476   2.939
 1733SOL    MW4 6964   1.176   0.499   3.019
 1734SOL     OW 6965   1.127   0.762   3.112
 1734SOL    HW2 6966   1.128   0.760   3.208
 1734SOL    HW3 6967   1.141   0.671   3.086
 1734SOL    MW4 6968   1.129   0.749   3.121
 1735SOL     OW 6969   0.902   0.888   3.011
 1735SOL    HW2 6970   0.970   0.829   3.043
 1735SOL    HW3 6971   0.824   0.863   3.060
 1735SOL    MW4 6972   0.901   0.877   3.021
 1736SOL     OW 6973   0.894   1.160   3.071
 1736SOL    HW2 6974   0.980   1.200   3.057
 1736SOL    HW3 6975   0.905   1.069   3.045
 1736SOL    MW4 6976   0.906   1.153   3.066
 1737SOL     OW 6977   1.130   1.293   3.027
 1737SOL    HW2 6978   1.213   1.252   3.049
 1737SOL    HW3 6979   1.128   1.292   2.931
 1737SOL    MW4 6980   1.141   1.288   3.017
 1738SOL     OW 6981   1.092   1.538   3.187
 1738SOL    HW2 6982   1.171   1.583   3.158
 1738SOL    HW3 6983   1.092   1.455   3.139
 1738SOL    MW4 6984   1.102   1.533   3.177
 1739SOL     OW 6985   0.887   1.689   3.023
 1739SOL    HW2 6986   0.956   1.651   3.078
 1739SOL    HW3 6987   0.814   1.627   3.029
 1739SOL    MW4 6988   0.886   1.676   3.031
 1740SOL     OW 6989   0.907   1.946   3.136
 1740SOL    HW2 6990   0.905   1.949   3.232
 1740SOL    HW3 6991   0.902   1.853   3.114
 1740SOL    MW4 6992   0.906   1.934   3.146
 1741SOL     OW 6993   1.137   2.063   3.032
 1741SOL    HW2 6994   1.056   2.027   3.068
 1741SOL    HW3 6995   1.123   2.062   2.937
 1741SOL    MW4 6996   1.125   2.058   3.024
 1742SOL     OW 6997   1.123   2.303   3.150
 1742SOL    HW2 6998   1.048   2.349   3.113
 1742SOL    HW3 6999   1.128   2.222   3.099
 1742SOL    MW4 7000   1.114   2.298   3.139
 1743SOL     OW 7001   0.893   2.411   3.041
 1743SOL    HW2 7002   0.803   2.386   3.062
 1743SOL    HW3 7003   0.895   2.415   2.946
 1743SOL    MW4 7004   0.881   2.408   3.031
 1744SOL     OW 7005   0.935   2.683   3.131
 1744SOL    HW2 7006   0.925   2.682   3.226
 1744SOL    HW3 7007   0.932   2.591   3.105
 1744SOL    MW4 7008   0.933   2.670   3.140
 1745SOL     OW 7009   1.158   2.828   3.043
 1745SOL    HW2 7010   1.137   2.918   3.067
 1745SOL    HW3 7011   1.083   2.776   3.074
 1745SOL    MW4 7012   1.146   2.833   3.050
 1746SOL     OW 7013   1.105   3.101   3.127
 1746SOL    HW2 7014   1.172   3.162   3.097
 1746SOL    HW3 7015   1.023   3.149   3.117
 1746SOL    MW4 7016   1.103   3.115   3.122
 1747SOL     OW 7017   0.899   3.268   3.079
 1747SOL    HW2 7018   0.831   3.214   3.120
 1747SOL    HW3 7019   0.902   3.238   2.988
 1747SOL    MW4 7020   0.891   3.257   3.073
 1748SOL     OW 7021   0.890   3.537   3.168
 1748SOL    HW2 7022   0.964   3.595   3.151
 1748SOL    HW3 7023   0.918   3.451   3.137
 1748SOL    MW4 7024   0.903   3.533   3.162
 1749SOL     OW 7025   1.137   3.636   3.061
 1749SOL    HW2 7026   1.210   3.591   3.103
 1749SOL    HW3 7027   1.144   3.727   3.092
 1749SOL    MW4 7028   1.147   3.642   3.071
 1750SOL     OW 7029   1.124   3.893   3.149
 1750SOL    HW2 7030   1.104   3.905   3.242
 1750SOL    HW3 7031   1.052   3.934   3.102
 1750SOL    MW4 7032   1.112   3.900   3.155
 1751SOL     OW 7033   0.920   4.026   3.016
 1751SOL    HW2 7034   0.841   3.976   3.039
 1751SOL    HW3 7035   0.925   4.023   2.921
 1751SOL    MW4 7036   0.910   4.019   3.007
 1752SOL     OW 7037   0.890   4.289   3.078
 1752SOL    HW2 7038   0.890   4.195   3.057
 1752SOL    HW3 7039   0.797   4.313   3.078
 1752SOL    MW4 7040   0.878   4.279   3.075
 1753SOL     OW 7041   1.136   4.399   2.960
 1753SOL    HW2 7042   1.066   4.347   3.000
 1753SOL    HW3 7043   1.137   4.480   3.011
 1753SOL    MW4 7044   1.127   4.402   2.972
 1754SOL     OW 7045   1.620   4.611   3.072
 1754SOL    HW2 7046   1.614   4.621   3.167
 1754SOL    HW3 7047   1.546   4.662   3.038
 1754SOL    MW4 7048   1.610   4.619   3.080
 1755SOL     OW 7049   1.364   0.073   2.994
 1755SOL    HW2 7050   1.366   0.156   3.042
 1755SOL    HW3 7051   1.347   0.098   2.904
 1755SOL    MW4 7052   1.362   0.087   2.989
 1756SOL     OW 7053   1.382   0.313   3.133
 1756SOL    HW2 7054   1.366   0.339   3.224
 1756SOL    HW3 7055   1.452   0.372   3.103
 1756SOL    MW4 7056   1.389   0.324   3.141
 1757SOL     OW 7057   1.590   0.491   3.050
 1757SOL    HW2 7058   1.594   0.580   3.083
 1757SOL    HW3 7059   1.594   0.500   2.955
 1757SOL    MW4 7060   1.591   0.504   3.042
 1758SOL     OW 7061   1.594   0.747   3.138
 1758SOL    HW2 7062   1.599   0.766   3.231
 1758SOL    HW3 7063   1.519   0.797   3.107
 1758SOL    MW4 7064   1.585   0.756   3.146
 1759SOL     OW 7065   1.361   0.896   3.030
 1759SOL    HW2 7066   1.360   0.982   3.071
 1759SOL    HW3 7067   1.278   0.856   3.058
 1759SOL    MW4 7068   1.350   0.902   3.039
 1760SOL     OW 7069   1.342   1.149   3.139
 1760SOL    HW2 7070   1.358   1.134   3.232
 1760SOL    HW3 7071   1.427   1.174   3.104
 1760SOL    MW4 7072   1.355   1.150   3.147
 1761SOL     OW 7073   1.577   1.243   3.035
 1761SOL    HW2 7074   1.656   1.216   3.081
 1761SOL    HW3 7075   1.570   1.337   3.051
 1761SOL    MW4 7076   1.587   1.252   3.043
 1762SOL     OW 7077   1.537   1.513   3.143
 1762SOL    HW2 7078   1.607   1.564   3.102
 1762SOL    HW3 7079   1.457   1.559   3.117
 1762SOL    MW4 7080   1.536   1.526   3.134
 1763SOL     OW 7081   1.304   1.646   3.041
 1763SOL    HW2 7082   1.300   1.738   3.068
 1763SOL    HW3 7083   1.320   1.650   2.946
 1763SOL    MW4 7084   1.305   1.659   3.032
 1764SOL     OW 7085   1.343   1.903   3.112
 1764SOL    HW2 7086   1.351   1.907   3.207
 1764SOL    HW3 7087   1.267   1.958   3.092
 1764SOL    MW4 7088   1.334   1.910   3.122
 1765SOL     OW 7089   1.581   2.053   3.021
 1765SOL    HW2 7090   1.510   1.992   3.040
 1765SOL    HW3 7091   1.568   2.077   2.929
 1765SOL    MW4 7092   1.570   2.048   3.012
 1766SOL     OW 7093   1.586   2.328   3.133
 1766SOL    HW2 7094   1.508   2.378   3.107
 1766SOL    HW3 7095   1.583   2.249   3.079
 1766SOL    MW4 7096   1.575   2.324   3.123
 1767SOL     OW 7097   1.361   2.463   3.071
 1767SOL    HW2 7098   1.280   2.417   3.092
 1767SOL    HW3 7099   1.361   2.468   2.976
 1767SOL    MW4 7100   1.350   2.458   3.061
 1768SOL     OW 7101   1.352   2.700   3.196
 1768SOL    HW2 7102   1.361   2.612   3.159
 1768SOL    HW3 7103   1.280   2.740   3.147
 1768SOL    MW4 7104   1.344   2.694   3.185
 1769SOL     OW 7105   1.554   2.854   3.056
 1769SOL    HW2 7106   1.640   2.820   3.079
 1769SOL    HW3 7107   1.493   2.799   3.105
 1769SOL    MW4 7108   1.557   2.843   3.066
 1770SOL     OW 7109   1.541   3.120   3.143
 1770SOL    HW2 7110   1.534   3.115   3.239
 1770SOL    HW3 7111   1.544   3.029   3.115
 1770SOL    MW4 7112   1.540   3.107   3.152
 1771SOL     OW 7113   1.341   3.251   3.008
 1771SOL    HW2 7114   1.412   3.197   3.042
 1771SOL    HW3 7115   1.353   3.250   2.913
 1771SOL    MW4 7116   1.352   3.244   3.000
 1772SOL     OW 7117   1.356   3.492   3.156
 1772SOL    HW2 7118   1.362   3.473   3.250
 1772SOL    HW3 7119   1.351   3.406   3.114
 1772SOL    MW4 7120   1.356   3.478   3.163
 1773SOL     OW 7121   1.589   3.618   3.102
 1773SOL    HW2 7122   1.502   3.586   3.125
 1773SOL    HW3 7123   1.590   3.618   3.007
 1773SOL    MW4 7124   1.577   3.614   3.093
 1774SOL     OW 7125   1.583   3.901   3.162
 1774SOL    HW2 7126   1.649   3.921   3.095
 1774SOL    HW3 7127   1.571   3.806   3.155
 1774SOL    MW4 7128   1.590   3.891   3.152
 1775SOL     OW 7129   1.349   3.990   3.024
 1775SOL    HW2 7130   1.431   3.963   3.066
 1775SOL    HW3 7131   1.282   3.939   3.070
 1775SOL    MW4 7132   1.351   3.979   3.036
 1776SOL     OW 7133   1.344   4.262   3.112
 1776SOL    HW2 7134   1.344   4.176   3.069
 1776SOL    HW3 7135   1.287   4.315   3.057
 1776SOL    MW4 7136   1.337   4.257   3.099
 1777SOL     OW 7137   1.573   4.348   3.002
 1777SOL    HW2 7138   1.495   4.304   3.035
 1777SOL    HW3 7139   1.571   4.434   3.043
 1777SOL    MW4 7140   1.563   4.354   3.012
 1778SOL     OW 7141   2.037   4.641   3.083
 1778SOL    HW2 7142   2.022   4.629   3.177
 1778SOL    HW3 7143   1.969   4.702   3.055
 1778SOL    MW4 7144   2.026   4.647   3.092
 1779SOL     OW 7145   1.824   0.121   2.984
 1779SOL    HW2 7146   1.758   0.062   3.020
 1779SOL    HW3 7147   1.816   0.112   2.889
 1779SOL    MW4 7148   1.814   0.112   2.976
 1780SOL     OW 7149   1.829   0.372   3.141
 1780SOL    HW2 7150   1.824   0.292   3.089
 1780SOL    HW3 7151   1.741   0.410   3.134
 1780SOL    MW4 7152   1.817   0.367   3.133
 1781SOL     OW 7153   2.040   0.527   3.024
 1781SOL    HW2 7154   1.959   0.482   3.049
 1781SOL    HW3 7155   2.042   0.522   2.929
 1781SOL    MW4 7156   2.029   0.520   3.015
 1782SOL     OW 7157   2.044   0.769   3.146
 1782SOL    HW2 7158   1.968   0.817   3.114
 1782SOL    HW3 7159   2.051   0.694   3.088
 1782SOL    MW4 7160   2.035   0.766   3.134
 1783SOL     OW 7161   1.819   0.892   3.030
 1783SOL    HW2 7162   1.742   0.843   3.058
 1783SOL    HW3 7163   1.818   0.884   2.934
 1783SOL    MW4 7164   1.809   0.884   3.021
 1784SOL     OW 7165   1.818   1.154   3.131
 1784SOL    HW2 7166   1.804   1.136   3.224
 1784SOL    HW3 7167   1.831   1.067   3.092
 1784SOL    MW4 7168   1.818   1.140   3.138
 1785SOL     OW 7169   2.051   1.278   3.030
 1785SOL    HW2 7170   2.116   1.223   3.074
 1785SOL    HW3 7171   1.967   1.241   3.058
 1785SOL    MW4 7172   2.048   1.266   3.039
 1786SOL     OW 7173   2.034   1.539   3.114
 1786SOL    HW2 7174   2.054   1.534   3.207
 1786SOL    HW3 7175   2.038   1.448   3.084
 1786SOL    MW4 7176   2.037   1.526   3.122
 1787SOL     OW 7177   1.789   1.631   3.053
 1787SOL    HW2 7178   1.798   1.723   3.077
 1787SOL    HW3 7179   1.875   1.593   3.072
 1787SOL    MW4 7180   1.802   1.638   3.059
 1788SOL     OW 7181   1.802   1.899   3.130
 1788SOL    HW2 7182   1.879   1.935   3.087
 1788SOL    HW3 7183   1.729   1.948   3.092
 1788SOL    MW4 7184   1.802   1.910   3.119
 1789SOL     OW 7185   2.004   2.034   3.010
 1789SOL    HW2 7186   2.088   2.010   3.048
 1789SOL    HW3 7187   1.973   2.108   3.063
 1789SOL    MW4 7188   2.011   2.041   3.022
 1790SOL     OW 7189   2.006   2.301   3.147
 1790SOL    HW2 7190   2.083   2.333   3.101
 1790SOL    HW3 7191   1.935   2.360   3.120
 1790SOL    MW4 7192   2.007   2.313   3.137
 1791SOL     OW 7193   1.806   2.467   3.045
 1791SOL    HW2 7194   1.797   2.558   3.073
 1791SOL    HW3 7195   1.732   2.422   3.085
 1791SOL    MW4 7196   1.795   2.473   3.054
 1792SOL     OW 7197   1.792   2.740   3.141
 1792SOL    HW2 7198   1.804   2.714   3.233
 1792SOL    HW3 7199   1.875   2.781   3.117
 1792SOL    MW4 7200   1.805   2.742   3.150
 1793SOL     OW 7201   2.030   2.855   3.073
 1793SOL    HW2 7202   2.034   2.948   3.096
 1793SOL    HW3 7203   2.050   2.853   2.979
 1793SOL    MW4 7204   2.033   2.867   3.063
 1794SOL     OW 7205   2.049   3.120   3.138
 1794SOL    HW2 7206   2.045   3.118   3.234
 1794SOL    HW3 7207   1.959   3.135   3.110
 1794SOL    MW4 7208   2.036   3.122   3.147
 1795SOL     OW 7209   1.789   3.193   3.059
 1795SOL    HW2 7210   1.703   3.158   3.082
 1795SOL    HW3 7211   1.786   3.205   2.964
 1795SOL    MW4 7212   1.777   3.190   3.050
 1796SOL     OW 7213   1.834   3.464   3.152
 1796SOL    HW2 7214   1.825   3.374   3.121
 1796SOL    HW3 7215   1.753   3.506   3.126
 1796SOL    MW4 7216   1.822   3.458   3.145
 1797SOL     OW 7217   2.056   3.595   3.011
 1797SOL    HW2 7218   2.057   3.682   3.051
 1797SOL    HW3 7219   1.985   3.549   3.055
 1797SOL    MW4 7220   2.047   3.600   3.022
 1798SOL     OW 7221   1.998   3.834   3.118
 1798SOL    HW2 7222   2.011   3.846   3.212
 1798SOL    HW3 7223   1.927   3.895   3.096
 1798SOL    MW4 7224   1.990   3.844   3.127
 1799SOL     OW 7225   1.803   4.001   2.996
 1799SOL    HW2 7226   1.823   4.089   3.027
 1799SOL    HW3 7227   1.802   4.008   2.901
 1799SOL    MW4 7228   1.806   4.014   2.988
 1800SOL     OW 7229   1.799   4.242   3.123
 1800SOL    HW2 7230   1.870   4.291   3.081
 1800SOL    HW3 7231   1.719   4.282   3.090
 1800SOL    MW4 7232   1.798   4.254   3.113
 1801SOL     OW 7233   2.021   4.372   3.020
 1801SOL    HW2 7234   2.022   4.462   3.051
 1801SOL    HW3 7235   2.048   4.376   2.929
 1801SOL    MW4 7236   2.024   4.384   3.012
 1802SOL     OW 7237   2.499   4.619   3.108
 1802SOL    HW2 7238   2.501   4.530   3.074
 1802SOL    HW3 7239   2.422   4.659   3.068
 1802SOL    MW4 7240   2.489   4.613   3.098
 1803SOL     OW 7241   2.288   0.087   3.022
 1803SOL    HW2 7242   2.290   0.170   3.069
 1803SOL    HW3 7243   2.202   0.049   3.043
 1803SOL    MW4 7244   2.277   0.093   3.031
 1804SOL     OW 7245   2.251   0.342   3.120
 1804SOL    HW2 7246   2.241   0.348   3.215
 1804SOL    HW3 7247   2.187   0.404   3.084
 1804SOL    MW4 7248   2.241   0.351   3.127
 1805SOL     OW 7249   2.493   0.469   3.024
 1805SOL    HW2 7250   2.404   0.445   3.051
 1805SOL    HW3 7251   2.487   0.476   2.928
 1805SOL    MW4 7252   2.480   0.467   3.015
 1806SOL     OW 7253   2.491   0.733   3.112
 1806SOL    HW2 7254   2.565   0.779   3.073
 1806SOL    HW3 7255   2.508   0.640   3.094
 1806SOL    MW4 7256   2.503   0.727   3.105
 1807SOL     OW 7257   2.240   0.837   2.990
 1807SOL    HW2 7258   2.315   0.806   3.041
 1807SOL    HW3 7259   2.165   0.825   3.049
 1807SOL    MW4 7260   2.240   0.831   3.005
 1808SOL     OW 7261   2.248   1.103   3.096
 1808SOL    HW2 7262   2.234   1.105   3.190
 1808SOL    HW3 7263   2.229   1.012   3.071
 1808SOL    MW4 7264   2.244   1.091   3.105
 1809SOL     OW 7265   2.491   1.258   3.036
 1809SOL    HW2 7266   2.413   1.204   3.053
 1809SOL    HW3 7267   2.495   1.266   2.941
 1809SOL    MW4 7268   2.481   1.252   3.026
 1810SOL     OW 7269   2.498   1.519   3.128
 1810SOL    HW2 7270   2.422   1.572   3.103
 1810SOL    HW3 7271   2.478   1.432   3.094
 1810SOL    MW4 7272   2.485   1.514   3.120
 1811SOL     OW 7273   2.267   1.662   3.029
 1811SOL    HW2 7274   2.188   1.620   3.063
 1811SOL    HW3 7275   2.268   1.639   2.936
 1811SOL    MW4 7276   2.257   1.653   3.021
 1812SOL     OW 7277   2.232   1.931   3.126
 1812SOL    HW2 7278   2.312   1.975   3.096
 1812SOL    HW3 7279   2.233   1.847   3.080
 1812SOL    MW4 7280   2.243   1.925   3.116
 1813SOL     OW 7281   2.481   2.057   3.030
 1813SOL    HW2 7282   2.552   2.008   3.071
 1813SOL    HW3 7283   2.497   2.048   2.936
 1813SOL    MW4 7284   2.492   2.049   3.023
 1814SOL     OW 7285   2.477   2.323   3.098
 1814SOL    HW2 7286   2.483   2.314   3.193
 1814SOL    HW3 7287   2.463   2.234   3.066
 1814SOL    MW4 7288   2.476   2.310   3.106
 1815SOL     OW 7289   2.235   2.423   3.018
 1815SOL    HW2 7290   2.234   2.505   3.069
 1815SOL    HW3 7291   2.312   2.376   3.051
 1815SOL    MW4 7292   2.245   2.428   3.029
 1816SOL     OW 7293   2.218   2.670   3.156
 1816SOL    HW2 7294   2.303   2.705   3.127
 1816SOL    HW3 7295   2.154   2.733   3.122
 1816SOL    MW4 7296   2.221   2.683   3.147
 1817SOL     OW 7297   2.427   2.806   3.052
 1817SOL    HW2 7298   2.442   2.896   3.081
 1817SOL    HW3 7299   2.436   2.810   2.957
 1817SOL    MW4 7300   2.430   2.818   3.043
 1818SOL     OW 7301   2.488   3.063   3.144
 1818SOL    HW2 7302   2.553   3.122   3.105
 1818SOL    HW3 7303   2.403   3.101   3.120
 1818SOL    MW4 7304   2.485   3.076   3.136
 1819SOL     OW 7305   2.271   3.209   3.007
 1819SOL    HW2 7306   2.284   3.296   3.045
 1819SOL    HW3 7307   2.189   3.178   3.047
 1819SOL    MW4 7308   2.262   3.217   3.017
 1820SOL     OW 7309   2.281   3.471   3.115
 1820SOL    HW2 7310   2.348   3.506   3.057
 1820SOL    HW3 7311   2.199   3.509   3.082
 1820SOL    MW4 7312   2.279   3.481   3.103
 1821SOL     OW 7313   2.484   3.586   2.983
 1821SOL    HW2 7314   2.542   3.547   3.048
 1821SOL    HW3 7315   2.476   3.678   3.008
 1821SOL    MW4 7316   2.490   3.593   2.995
 1822SOL     OW 7317   2.455   3.838   3.081
 1822SOL    HW2 7318   2.466   3.835   3.176
 1822SOL    HW3 7319   2.540   3.867   3.048
 1822SOL    MW4 7320   2.468   3.841   3.089
 1823SOL     OW 7321   2.221   3.977   3.027
 1823SOL    HW2 7322   2.302   3.940   3.063
 1823SOL    HW3 7323   2.152   3.917   3.057
 1823SOL    MW4 7324   2.222   3.964   3.036
 1824SOL     OW 7325   2.259   4.242   3.095
 1824SOL    HW2 7326   2.255   4.150   3.067
 1824SOL    HW3 7327   2.178   4.280   3.062
 1824SOL    MW4 7328   2.248   4.235   3.087
 1825SOL     OW 7329   2.484   4.362   2.992
 1825SOL    HW2 7330   2.407   4.319   3.030
 1825SOL    HW3 7331   2.474   4.352   2.898
 1825SOL    MW4 7332   2.472   4.355   2.985
 1826SOL     OW 7333   2.933   4.635   3.149
 1826SOL    HW2 7334   3.005   4.682   3.107
 1826SOL    HW3 7335   2.943   4.545   3.120
 1826SOL    MW4 7336   2.944   4.629   3.140
 1827SOL     OW 7337   2.709   0.072   2.995
 1827SOL    HW2 7338   2.789   0.025   3.020
 1827SOL    HW3 7339   2.639   0.021   3.034
 1827SOL    MW4 7340   2.711   0.059   3.003
 1828SOL     OW 7341   2.725   0.358   3.094
 1828SOL    HW2 7342   2.723   0.269   3.058
 1828SOL    HW3 7343   2.636   0.392   3.080
 1828SOL    MW4 7344   2.713   0.351   3.087
 1829SOL     OW 7345   2.947   0.499   3.000
 1829SOL    HW2 7346   2.869   0.460   3.039
 1829SOL    HW3 7347   2.928   0.502   2.906
 1829SOL    MW4 7348   2.935   0.494   2.992
 1830SOL     OW 7349   2.927   0.769   3.081
 1830SOL    HW2 7350   2.923   0.763   3.177
 1830SOL    HW3 7351   2.933   0.678   3.052
 1830SOL    MW4 7352   2.927   0.756   3.090
 1831SOL     OW 7353   2.692   0.892   3.006
 1831SOL    HW2 7354   2.698   0.983   3.035
 1831SOL    HW3 7355   2.772   0.851   3.038
 1831SOL    MW4 7356   2.703   0.899   3.014
 1832SOL     OW 7357   2.720   1.140   3.131
 1832SOL    HW2 7358   2.796   1.190   3.100
 1832SOL    HW3 7359   2.645   1.196   3.110
 1832SOL    MW4 7360   2.720   1.154   3.124
 1833SOL     OW 7361   2.958   1.257   3.022
 1833SOL    HW2 7362   3.036   1.221   3.063
 1833SOL    HW3 7363   2.949   1.344   3.060
 1833SOL    MW4 7364   2.967   1.264   3.032
 1834SOL     OW 7365   2.922   1.510   3.130
 1834SOL    HW2 7366   2.912   1.535   3.222
 1834SOL    HW3 7367   2.999   1.558   3.100
 1834SOL    MW4 7368   2.931   1.519   3.138
 1835SOL     OW 7369   2.718   1.639   3.015
 1835SOL    HW2 7370   2.794   1.595   3.052
 1835SOL    HW3 7371   2.643   1.592   3.052
 1835SOL    MW4 7372   2.718   1.627   3.025
 1836SOL     OW 7373   2.703   1.908   3.140
 1836SOL    HW2 7374   2.781   1.955   3.111
 1836SOL    HW3 7375   2.706   1.825   3.094
 1836SOL    MW4 7376   2.714   1.904   3.130
 1837SOL     OW 7377   2.901   2.050   3.003
 1837SOL    HW2 7378   2.883   2.141   3.025
 1837SOL    HW3 7379   2.924   2.052   2.910
 1837SOL    MW4 7380   2.902   2.062   2.994
 1838SOL     OW 7381   2.885   2.302   3.081
 1838SOL    HW2 7382   2.968   2.349   3.075
 1838SOL    HW3 7383   2.820   2.363   3.046
 1838SOL    MW4 7384   2.887   2.316   3.076
 1839SOL     OW 7385   2.689   2.461   2.991
 1839SOL    HW2 7386   2.694   2.539   3.047
 1839SOL    HW3 7387   2.610   2.416   3.021
 1839SOL    MW4 7388   2.679   2.466   3.003
 1840SOL     OW 7389   2.666   2.692   3.124
 1840SOL    HW2 7390   2.691   2.682   3.216
 1840SOL    HW3 7391   2.571   2.697   3.124
 1840SOL    MW4 7392   2.657   2.691   3.136
 1841SOL     OW 7393   2.907   2.828   3.021
 1841SOL    HW2 7394   2.979   2.767   3.033
 1841SOL    HW3 7395   2.830   2.780   3.052
 1841SOL    MW4 7396   2.906   2.814   3.027
 1842SOL     OW 7397   2.882   3.081   3.160
 1842SOL    HW2 7398   2.799   3.112   3.123
 1842SOL    HW3 7399   2.902   3.002   3.110
 1842SOL    MW4 7400   2.874   3.075   3.148
 1843SOL     OW 7401   2.669   3.221   3.031
 1843SOL    HW2 7402   2.683   3.314   3.048
 1843SOL    HW3 7403   2.666   3.215   2.935
 1843SOL    MW4 7404   2.671   3.233   3.020
 1844SOL     OW 7405   2.691   3.476   3.121
 1844SOL    HW2 7406   2.692   3.475   3.217
 1844SOL    HW3 7407   2.776   3.512   3.096
 1844SOL    MW4 7408   2.702   3.480   3.130
 1845SOL     OW 7409   2.922   3.585   3.026
 1845SOL    HW2 7410   2.986   3.530   3.072
 1845SOL    HW3 7411   2.941   3.674   3.056
 1845SOL    MW4 7412   2.933   3.589   3.036
 1846SOL     OW 7413   2.919   3.866   3.111
 1846SOL    HW2 7414   2.919   3.880   3.206
 1846SOL    HW3 7415   2.835   3.901   3.081
 1846SOL    MW4 7416   2.908   3.873   3.120
 1847SOL     OW 7417   2.684   3.989   3.011
 1847SOL    HW2 7418   2.684   4.076   3.052
 1847SOL    HW3 7419   2.665   4.007   2.919
 1847SOL    MW4 7420   2.682   4.003   3.004
 1848SOL     OW 7421   2.710   4.247   3.145
 1848SOL    HW2 7422   2.690   4.250   3.238
 1848SOL    HW3 7423   2.630   4.278   3.102
 1848SOL    MW4 7424   2.697   4.251   3.151
 1849SOL     OW 7425   2.928   4.384   3.015
 1849SOL    HW2 7426   3.009   4.336   3.034
 1849SOL    HW3 7427   2.860   4.334   3.061
 1849SOL    MW4 7428   2.930   4.371   3.024
 1850SOL     OW 7429   3.407   4.637   3.104
 1850SOL    HW2 7430   3.481   4.688   3.072
 1850SOL    HW3 7431   3.419   4.551   3.063
 1850SOL    MW4 7432   3.418   4.632   3.094
 1851SOL     OW 7433   3.163   0.077   3.042
 1851SOL    HW2 7434   3.175   0.169   3.065
 1851SOL    HW3 7435   3.245   0.034   3.066
 1851SOL    MW4 7436   3.175   0.084   3.048
 1852SOL     OW 7437   3.175   0.351   3.060
 1852SOL    HW2 7438   3.250   0.409   3.044
 1852SOL    HW3 7439   3.099   0.403   3.034
 1852SOL    MW4 7440   3.175   0.366   3.054
 1853SOL     OW 7441   3.394   0.510   3.026
 1853SOL    HW2 7442   3.470   0.473   3.071
 1853SOL    HW3 7443   3.410   0.495   2.934
 1853SOL    MW4 7444   3.406   0.503   3.020
 1854SOL     OW 7445   3.374   0.767   3.112
 1854SOL    HW2 7446   3.369   0.764   3.207
 1854SOL    HW3 7447   3.379   0.675   3.085
 1854SOL    MW4 7448   3.374   0.755   3.121
 1855SOL     OW 7449   3.175   0.906   2.978
 1855SOL    HW2 7450   3.226   0.853   3.039
 1855SOL    HW3 7451   3.085   0.900   3.010
 1855SOL    MW4 7452   3.170   0.898   2.990
 1856SOL     OW 7453   3.192   1.150   3.115
 1856SOL    HW2 7454   3.267   1.201   3.083
 1856SOL    HW3 7455   3.195   1.070   3.063
 1856SOL    MW4 7456   3.203   1.146   3.104
 1857SOL     OW 7457   3.384   1.279   2.982
 1857SOL    HW2 7458   3.457   1.229   3.019
 1857SOL    HW3 7459   3.392   1.365   3.022
 1857SOL    MW4 7460   3.395   1.284   2.993
 1858SOL     OW 7461   3.360   1.546   3.088
 1858SOL    HW2 7462   3.345   1.553   3.182
 1858SOL    HW3 7463   3.439   1.597   3.073
 1858SOL    MW4 7464   3.368   1.554   3.098
 1859SOL     OW 7465   3.115   1.669   3.010
 1859SOL    HW2 7466   3.189   1.611   3.029
 1859SOL    HW3 7467   3.120   1.684   2.916
 1859SOL    MW4 7468   3.126   1.663   3.000
 1860SOL     OW 7469   3.139   1.923   3.103
 1860SOL    HW2 7470   3.126   1.829   3.092
 1860SOL    HW3 7471   3.062   1.963   3.063
 1860SOL    MW4 7472   3.127   1.916   3.096
 1861SOL     OW 7473   3.366   2.047   2.981
 1861SOL    HW2 7474   3.442   2.018   3.032
 1861SOL    HW3 7475   3.293   1.997   3.017
 1861SOL    MW4 7476   3.366   2.036   2.992
 1862SOL     OW 7477   3.377   2.328   3.082
 1862SOL    HW2 7478   3.369   2.331   3.177
 1862SOL    HW3 7479   3.372   2.234   3.061
 1862SOL    MW4 7480   3.375   2.316   3.091
 1863SOL     OW 7481   3.142   2.442   3.030
 1863SOL    HW2 7482   3.222   2.402   3.062
 1863SOL    HW3 7483   3.138   2.416   2.938
 1863SOL    MW4 7484   3.152   2.433   3.022
 1864SOL     OW 7485   3.136   2.703   3.112
 1864SOL    HW2 7486   3.125   2.707   3.207
 1864SOL    HW3 7487   3.164   2.613   3.095
 1864SOL    MW4 7488   3.138   2.692   3.122
 1865SOL     OW 7489   3.378   2.832   3.016
 1865SOL    HW2 7490   3.398   2.921   3.046
 1865SOL    HW3 7491   3.297   2.809   3.061
 1865SOL    MW4 7492   3.370   2.841   3.026
 1866SOL     OW 7493   3.361   3.104   3.143
 1866SOL    HW2 7494   3.356   3.103   3.238
 1866SOL    HW3 7495   3.275   3.133   3.114
 1866SOL    MW4 7496   3.349   3.108   3.152
 1867SOL     OW 7497   3.115   3.211   3.074
 1867SOL    HW2 7498   3.031   3.168   3.093
 1867SOL    HW3 7499   3.113   3.225   2.979
 1867SOL    MW4 7500   3.104   3.207   3.064
 1868SOL     OW 7501   3.135   3.471   3.161
 1868SOL    HW2 7502   3.209   3.494   3.105
 1868SOL    HW3 7503   3.132   3.376   3.159
 1868SOL    MW4 7504   3.145   3.462   3.154
 1869SOL     OW 7505   3.354   3.598   3.049
 1869SOL    HW2 7506   3.421   3.569   3.111
 1869SOL    HW3 7507   3.343   3.691   3.067
 1869SOL    MW4 7508   3.362   3.606   3.059
 1870SOL     OW 7509   3.392   3.883   3.111
 1870SOL    HW2 7510   3.364   3.862   3.200
 1870SOL    HW3 7511   3.317   3.927   3.071
 1870SOL    MW4 7512   3.379   3.886   3.117
 1871SOL     OW 7513   3.131   4.011   3.022
 1871SOL    HW2 7514   3.058   3.960   3.058
 1871SOL    HW3 7515   3.122   4.003   2.928
 1871SOL    MW4 7516   3.120   4.003   3.015
 1872SOL     OW 7517   3.175   4.284   3.106
 1872SOL    HW2 7518   3.177   4.287   3.202
 1872SOL    HW3 7519   3.160   4.192   3.085
 1872SOL    MW4 7520   3.174   4.272   3.116
 1873SOL     OW 7521   3.429   4.383   3.008
 1873SOL    HW2 7522   3.494   4.338   3.061
 1873SOL    HW3 7523   3.347   4.338   3.027
 1873SOL    MW4 7524   3.427   4.371   3.017
 1874SOL     OW 7525   3.845   4.667   3.102
 1874SOL    HW2 7526   3.841   4.575   3.076
 1874SOL    HW3 7527   3.762   4.704   3.071
 1874SOL    MW4 7528   3.833   4.659   3.094
 1875SOL     OW 7529   3.617   0.103   2.971
 1875SOL    HW2 7530   3.607   0.195   2.997
 1875SOL    HW3 7531   3.606   0.104   2.876
 1875SOL    MW4 7532   3.614   0.115   2.962
 1876SOL     OW 7533   3.617   0.353   3.096
 1876SOL    HW2 7534   3.625   0.355   3.191
 1876SOL    HW3 7535   3.694   0.401   3.064
 1876SOL    MW4 7536   3.628   0.360   3.104
 1877SOL     OW 7537   3.825   0.507   3.008
 1877SOL    HW2 7538   3.893   0.450   3.044
 1877SOL    HW3 7539   3.831   0.587   3.059
 1877SOL    MW4 7540   3.835   0.510   3.019
 1878SOL     OW 7541   3.830   0.752   3.134
 1878SOL    HW2 7542   3.841   0.763   3.228
 1878SOL    HW3 7543   3.898   0.807   3.095
 1878SOL    MW4 7544   3.840   0.761   3.141
 1879SOL     OW 7545   3.623   0.880   3.018
 1879SOL    HW2 7546   3.693   0.831   3.061
 1879SOL    HW3 7547   3.542   0.837   3.047
 1879SOL    MW4 7548   3.621   0.868   3.027
 1880SOL     OW 7549   3.584   1.156   3.116
 1880SOL    HW2 7550   3.671   1.196   3.106
 1880SOL    HW3 7551   3.597   1.064   3.094
 1880SOL    MW4 7552   3.597   1.149   3.112
 1881SOL     OW 7553   3.825   1.273   3.028
 1881SOL    HW2 7554   3.828   1.366   3.046
 1881SOL    HW3 7555   3.812   1.267   2.933
 1881SOL    MW4 7556   3.824   1.284   3.018
 1882SOL     OW 7557   3.824   1.535   3.115
 1882SOL    HW2 7558   3.821   1.552   3.209
 1882SOL    HW3 7559   3.739   1.565   3.083
 1882SOL    MW4 7560   3.812   1.541   3.123
 1883SOL     OW 7561   3.596   1.651   3.018
 1883SOL    HW2 7562   3.595   1.741   3.051
 1883SOL    HW3 7563   3.592   1.660   2.923
 1883SOL    MW4 7564   3.596   1.664   3.009
 1884SOL     OW 7565   3.605   1.916   3.112
 1884SOL    HW2 7566   3.578   1.925   3.203
 1884SOL    HW3 7567   3.676   1.979   3.101
 1884SOL    MW4 7568   3.611   1.925   3.122
 1885SOL     OW 7569   3.844   2.068   3.046
 1885SOL    HW2 7570   3.854   2.154   3.087
 1885SOL    HW3 7571   3.869   2.081   2.955
 1885SOL    MW4 7572   3.849   2.081   3.039
 1886SOL     OW 7573   3.836   2.337   3.158
 1886SOL    HW2 7574   3.805   2.330   3.249
 1886SOL    HW3 7575   3.759   2.364   3.109
 1886SOL    MW4 7576   3.822   2.340   3.164
 1887SOL     OW 7577   3.625   2.444   3.014
 1887SOL    HW2 7578   3.626   2.534   3.046
 1887SOL    HW3 7579   3.545   2.406   3.050
 1887SOL    MW4 7580   3.615   2.450   3.023
 1888SOL     OW 7581   3.585   2.674   3.145
 1888SOL    HW2 7582   3.663   2.721   3.117
 1888SOL    HW3 7583   3.513   2.715   3.098
 1888SOL    MW4 7584   3.586   2.685   3.135
 1889SOL     OW 7585   3.797   2.835   3.070
 1889SOL    HW2 7586   3.795   2.921   3.112
 1889SOL    HW3 7587   3.791   2.854   2.976
 1889SOL    MW4 7588   3.796   2.849   3.063
 1890SOL     OW 7589   3.827   3.083   3.162
 1890SOL    HW2 7590   3.902   3.142   3.147
 1890SOL    HW3 7591   3.753   3.127   3.120
 1890SOL    MW4 7592   3.827   3.097   3.154
 1891SOL     OW 7593   3.618   3.203   3.053
 1891SOL    HW2 7594   3.527   3.187   3.080
 1891SOL    HW3 7595   3.615   3.201   2.957
 1891SOL    MW4 7596   3.606   3.200   3.044
 1892SOL     OW 7597   3.586   3.483   3.179
 1892SOL    HW2 7598   3.659   3.535   3.145
 1892SOL    HW3 7599   3.598   3.396   3.140
 1892SOL    MW4 7600   3.597   3.478   3.169
 1893SOL     OW 7601   3.807   3.625   3.063
 1893SOL    HW2 7602   3.832   3.714   3.086
 1893SOL    HW3 7603   3.799   3.626   2.968
 1893SOL    MW4 7604   3.809   3.637   3.053
 1894SOL     OW 7605   3.853   3.872   3.156
 1894SOL    HW2 7606   3.832   3.853   3.247
 1894SOL    HW3 7607   3.772   3.905   3.119
 1894SOL    MW4 7608   3.840   3.874   3.163
 1895SOL     OW 7609   3.624   4.010   3.044
 1895SOL    HW2 7610   3.551   3.962   3.083
 1895SOL    HW3 7611   3.608   4.006   2.949
 1895SOL    MW4 7612   3.613   4.003   3.036
 1896SOL     OW 7613   3.608   4.257   3.164
 1896SOL    HW2 7614   3.694   4.297   3.147
 1896SOL    HW3 7615   3.612   4.172   3.121
 1896SOL    MW4 7616   3.620   4.251   3.156
 1897SOL     OW 7617   3.825   4.385   3.051
 1897SOL    HW2 7618   3.905   4.333   3.059
 1897SOL    HW3 7619   3.811   4.393   2.956
 1897SOL    MW4 7620   3.833   4.379   3.039
 1898SOL     OW 7621   4.300   0.014   3.116
 1898SOL    HW2 7622   4.289   0.012   3.212
 1898SOL    HW3 7623   4.289  -0.077   3.088
 1898SOL    MW4 7624   4.297   0.002   3.125
 1899SOL     OW 7625   4.082   0.129   2.992
 1899SOL    HW2 7626   4.157   0.087   3.035
 1899SOL    HW3 7627   4.006   0.098   3.041
 1899SOL    MW4 7628   4.082   0.120   3.004
 1900SOL     OW 7629   4.058   0.384   3.119
 1900SOL    HW2 7630   4.137   0.437   3.110
 1900SOL    HW3 7631   4.085   0.297   3.090
 1900SOL    MW4 7632   4.072   0.379   3.114
 1901SOL     OW 7633   4.279   0.539   3.048
 1901SOL    HW2 7634   4.286   0.633   3.062
 1901SOL    HW3 7635   4.262   0.531   2.954
 1901SOL    MW4 7636   4.277   0.550   3.037
 1902SOL     OW 7637   4.302   0.814   3.113
 1902SOL    HW2 7638   4.220   0.848   3.078
 1902SOL    HW3 7639   4.370   0.865   3.068
 1902SOL    MW4 7640   4.301   0.825   3.102
 1903SOL     OW 7641   4.045   0.888   3.026
 1903SOL    HW2 7642   4.019   0.975   3.056
 1903SOL    HW3 7643   4.046   0.894   2.931
 1903SOL    MW4 7644   4.042   0.900   3.018
 1904SOL     OW 7645   4.045   1.147   3.132
 1904SOL    HW2 7646   4.035   1.158   3.226
 1904SOL    HW3 7647   3.978   1.203   3.093
 1904SOL    MW4 7648   4.035   1.156   3.139
 1905SOL     OW 7649   4.286   1.303   3.035
 1905SOL    HW2 7650   4.213   1.245   3.058
 1905SOL    HW3 7651   4.288   1.302   2.939
 1905SOL    MW4 7652   4.277   1.295   3.025
 1906SOL     OW 7653   4.278   1.565   3.136
 1906SOL    HW2 7654   4.200   1.602   3.095
 1906SOL    HW3 7655   4.287   1.478   3.098
 1906SOL    MW4 7656   4.269   1.559   3.126
 1907SOL     OW 7657   4.051   1.672   3.014
 1907SOL    HW2 7658   4.041   1.752   3.067
 1907SOL    HW3 7659   3.969   1.625   3.028
 1907SOL    MW4 7660   4.039   1.676   3.023
 1908SOL     OW 7661   4.045   1.912   3.162
 1908SOL    HW2 7662   4.132   1.927   3.124
 1908SOL    HW3 7663   3.988   1.972   3.113
 1908SOL    MW4 7664   4.049   1.922   3.150
 1909SOL     OW 7665   4.240   2.018   2.993
 1909SOL    HW2 7666   4.239   2.103   3.037
 1909SOL    HW3 7667   4.224   2.039   2.901
 1909SOL    MW4 7668   4.238   2.032   2.987
 1910SOL     OW 7669   4.232   2.279   3.123
 1910SOL    HW2 7670   4.162   2.337   3.092
 1910SOL    HW3 7671   4.313   2.328   3.106
 1910SOL    MW4 7672   4.233   2.293   3.117
 1911SOL     OW 7673   4.055   2.471   3.029
 1911SOL    HW2 7674   4.064   2.558   3.067
 1911SOL    HW3 7675   3.979   2.433   3.073
 1911SOL    MW4 7676   4.046   2.477   3.040
 1912SOL     OW 7677   4.043   2.740   3.145
 1912SOL    HW2 7678   4.017   2.739   3.237
 1912SOL    HW3 7679   3.965   2.770   3.098
 1912SOL    MW4 7680   4.029   2.744   3.151
 1913SOL     OW 7681   4.284   2.834   3.044
 1913SOL    HW2 7682   4.208   2.789   3.081
 1913SOL    HW3 7683   4.359   2.784   3.076
 1913SOL    MW4 7684   4.284   2.821   3.053
 1914SOL     OW 7685   4.262   3.102   3.124
 1914SOL    HW2 7686   4.186   3.136   3.078
 1914SOL    HW3 7687   4.266   3.010   3.099
 1914SOL    MW4 7688   4.253   3.094   3.114
 1915SOL     OW 7689   4.034   3.248   3.063
 1915SOL    HW2 7690   4.046   3.340   3.087
 1915SOL    HW3 7691   4.031   3.248   2.968
 1915SOL    MW4 7692   4.035   3.260   3.054
 1916SOL     OW 7693   4.033   3.512   3.131
 1916SOL    HW2 7694   4.035   3.510   3.227
 1916SOL    HW3 7695   3.954   3.563   3.110
 1916SOL    MW4 7696   4.023   3.519   3.141
 1917SOL     OW 7697   4.284   3.618   3.026
 1917SOL    HW2 7698   4.302   3.709   3.046
 1917SOL    HW3 7699   4.196   3.603   3.062
 1917SOL    MW4 7700   4.275   3.628   3.034
 1918SOL     OW 7701   4.275   3.879   3.128
 1918SOL    HW2 7702   4.187   3.897   3.096
 1918SOL    HW3 7703   4.330   3.942   3.083
 1918SOL    MW4 7704   4.270   3.890   3.118
 1919SOL     OW 7705   4.048   3.979   2.989
 1919SOL    HW2 7706   4.068   4.067   3.022
 1919SOL    HW3 7707   3.976   3.948   3.043
 1919SOL    MW4 7708   4.041   3.987   3.000
 1920SOL     OW 7709   4.062   4.247   3.087
 1920SOL    HW2 7710   4.070   4.233   3.181
 1920SOL    HW3 7711   4.140   4.298   3.064
 1920SOL    MW4 7712   4.073   4.252   3.096
 1921SOL     OW 7713   4.274   4.415   3.037
 1921SOL    HW2 7714   4.361   4.380   3.058
 1921SOL    HW3 7715   4.269   4.410   2.942
 1921SOL    MW4 7716   4.285   4.409   3.027
 1922SOL     OW 7717   0.215   4.646   3.374
 1922SOL    HW2 7718   0.277   4.700   3.423
 1922SOL    HW3 7719   0.223   4.559   3.412
 1922SOL    MW4 7720   0.224   4.642   3.385
 1923SOL     OW 7721   4.474   0.145   3.492
 1923SOL    HW2 7722   4.459   0.236   3.469
 1923SOL    HW3 7723   4.543   0.116   3.432
 1923SOL    MW4 7724   4.481   0.153   3.481
 1924SOL     OW 7725   4.439   0.415   3.436
 1924SOL    HW2 7726   4.363   0.467   3.463
 1924SOL    HW3 7727   4.515   0.465   3.466
 1924SOL    MW4 7728   4.439   0.428   3.444
 1925SOL     OW 7729   0.185   0.560   3.537
 1925SOL    HW2 7730   0.262   0.517   3.501
 1925SOL    HW3 7731   0.171   0.636   3.481
 1925SOL    MW4 7732   0.193   0.564   3.525
 1926SOL     OW 7733   0.163   0.795   3.375
 1926SOL    HW2 7734   0.243   0.831   3.413
 1926SOL    HW3 7735   0.094   0.818   3.437
 1926SOL    MW4 7736   0.164   0.802   3.388
 1927SOL     OW 7737   4.435   0.908   3.505
 1927SOL    HW2 7738   4.431   0.913   3.601
 1927SOL    HW3 7739   4.452   0.998   3.477
 1927SOL    MW4 7740   4.437   0.920   3.514
 1928SOL     OW 7741   4.448   1.184   3.422
 1928SOL    HW2 7742   4.528   1.221   3.462
 1928SOL    HW3 7743   4.470   1.173   3.330
 1928SOL    MW4 7744   4.462   1.188   3.415
 1929SOL     OW 7745   0.177   1.302   3.532
 1929SOL    HW2 7746   0.255   1.255   3.501
 1929SOL    HW3 7747   0.198   1.394   3.519
 1929SOL    MW4 7748   0.190   1.308   3.526
 1930SOL     OW 7749   0.250   1.555   3.456
 1930SOL    HW2 7750   0.338   1.585   3.479
 1930SOL    HW3 7751   0.246   1.562   3.361
 1930SOL    MW4 7752   0.261   1.560   3.447
 1931SOL     OW 7753   0.038   1.726   3.516
 1931SOL    HW2 7754  -0.034   1.674   3.482
 1931SOL    HW3 7755   0.116   1.672   3.502
 1931SOL    MW4 7756   0.039   1.712   3.510
 1932SOL     OW 7757   0.040   1.980   3.407
 1932SOL    HW2 7758   0.043   1.894   3.449
 1932SOL    HW3 7759   0.039   1.961   3.313
 1932SOL    MW4 7760   0.041   1.966   3.400
 1933SOL     OW 7761   0.265   2.064   3.528
 1933SOL    HW2 7762   0.261   2.068   3.624
 1933SOL    HW3 7763   0.184   2.020   3.503
 1933SOL    MW4 7764   0.254   2.058   3.538
 1934SOL     OW 7765   0.222   2.311   3.400
 1934SOL    HW2 7766   0.144   2.358   3.431
 1934SOL    HW3 7767   0.210   2.222   3.433
 1934SOL    MW4 7768   0.210   2.306   3.409
 1935SOL     OW 7769   4.483   2.425   3.513
 1935SOL    HW2 7770   4.484   2.420   3.609
 1935SOL    HW3 7771   4.404   2.377   3.488
 1935SOL    MW4 7772   4.473   2.418   3.522
 1936SOL     OW 7773   4.476   2.686   3.424
 1936SOL    HW2 7774   4.557   2.716   3.467
 1936SOL    HW3 7775   4.469   2.594   3.449
 1936SOL    MW4 7776   4.486   2.678   3.433
 1937SOL     OW 7777   0.221   2.786   3.540
 1937SOL    HW2 7778   0.292   2.743   3.492
 1937SOL    HW3 7779   0.218   2.875   3.503
 1937SOL    MW4 7780   0.230   2.792   3.529
 1938SOL     OW 7781   0.209   3.065   3.393
 1938SOL    HW2 7782   0.132   3.113   3.425
 1938SOL    HW3 7783   0.214   3.089   3.300
 1938SOL    MW4 7784   0.199   3.075   3.385
 1939SOL     OW 7785   0.008   3.222   3.485
 1939SOL    HW2 7786  -0.077   3.183   3.464
 1939SOL    HW3 7787  -0.005   3.315   3.470
 1939SOL    MW4 7788  -0.005   3.229   3.480
 1940SOL     OW 7789   0.023   3.499   3.425
 1940SOL    HW2 7790  -0.053   3.552   3.450
 1940SOL    HW3 7791   0.022   3.499   3.329
 1940SOL    MW4 7792   0.013   3.506   3.415
 1941SOL     OW 7793   0.249   3.621   3.509
 1941SOL    HW2 7794   0.220   3.654   3.594
 1941SOL    HW3 7795   0.174   3.574   3.474
 1941SOL    MW4 7796   0.236   3.619   3.516
 1942SOL     OW 7797   0.213   3.863   3.371
 1942SOL    HW2 7798   0.145   3.916   3.412
 1942SOL    HW3 7799   0.215   3.782   3.422
 1942SOL    MW4 7800   0.204   3.859   3.383
 1943SOL     OW 7801   0.006   3.995   3.495
 1943SOL    HW2 7802  -0.011   4.006   3.588
 1943SOL    HW3 7803   0.000   4.083   3.459
 1943SOL    MW4 7804   0.003   4.008   3.502
 1944SOL     OW 7805   4.462   4.261   3.394
 1944SOL    HW2 7806   4.391   4.305   3.439
 1944SOL    HW3 7807   4.542   4.296   3.434
 1944SOL    MW4 7808   4.463   4.271   3.405
 1945SOL     OW 7809   0.198   4.394   3.485
 1945SOL    HW2 7810   0.213   4.393   3.579
 1945SOL    HW3 7811   0.269   4.341   3.449
 1945SOL    MW4 7812   0.209   4.387   3.492
 1946SOL     OW 7813   0.655   4.658   3.433
 1946SOL    HW2 7814   0.725   4.718   3.457
 1946SOL    HW3 7815   0.663   4.648   3.338
 1946SOL    MW4 7816   0.665   4.665   3.423
 1947SOL     OW 7817   0.417   0.136   3.477
 1947SOL    HW2 7818   0.433   0.135   3.571
 1947SOL    HW3 7819   0.489   0.083   3.440
 1947SOL    MW4 7820   0.429   0.129   3.485
 1948SOL     OW 7821   0.398   0.437   3.436
 1948SOL    HW2 7822   0.488   0.465   3.451
 1948SOL    HW3 7823   0.402   0.341   3.442
 1948SOL    MW4 7824   0.410   0.428   3.438
 1949SOL     OW 7825   0.661   0.503   3.483
 1949SOL    HW2 7826   0.664   0.503   3.578
 1949SOL    HW3 7827   0.741   0.460   3.455
 1949SOL    MW4 7828   0.672   0.498   3.492
 1950SOL     OW 7829   0.629   0.778   3.395
 1950SOL    HW2 7830   0.553   0.804   3.448
 1950SOL    HW3 7831   0.639   0.684   3.412
 1950SOL    MW4 7832   0.621   0.769   3.404
 1951SOL     OW 7833   0.401   0.881   3.516
 1951SOL    HW2 7834   0.416   0.873   3.610
 1951SOL    HW3 7835   0.407   0.975   3.499
 1951SOL    MW4 7836   0.403   0.893   3.526
 1952SOL     OW 7837   0.406   1.175   3.463
 1952SOL    HW2 7838   0.492   1.202   3.494
 1952SOL    HW3 7839   0.413   1.175   3.368
 1952SOL    MW4 7840   0.418   1.179   3.455
 1953SOL     OW 7841   0.675   1.237   3.490
 1953SOL    HW2 7842   0.755   1.205   3.448
 1953SOL    HW3 7843   0.663   1.325   3.456
 1953SOL    MW4 7844   0.684   1.244   3.480
 1954SOL     OW 7845   0.702   1.501   3.414
 1954SOL    HW2 7846   0.773   1.532   3.470
 1954SOL    HW3 7847   0.623   1.536   3.455
 1954SOL    MW4 7848   0.701   1.510   3.427
 1955SOL     OW 7849   0.498   1.660   3.532
 1955SOL    HW2 7850   0.483   1.670   3.626
 1955SOL    HW3 7851   0.494   1.749   3.498
 1955SOL    MW4 7852   0.496   1.673   3.540
 1956SOL     OW 7853   0.477   1.921   3.412
 1956SOL    HW2 7854   0.407   1.979   3.439
 1956SOL    HW3 7855   0.483   1.932   3.317
 1956SOL    MW4 7856   0.469   1.930   3.403
 1957SOL     OW 7857   0.713   2.026   3.512
 1957SOL    HW2 7858   0.701   2.051   3.604
 1957SOL    HW3 7859   0.629   1.987   3.487
 1957SOL    MW4 7860   0.700   2.024   3.521
 1958SOL     OW 7861   0.674   2.277   3.391
 1958SOL    HW2 7862   0.755   2.325   3.406
 1958SOL    HW3 7863   0.686   2.194   3.436
 1958SOL    MW4 7864   0.686   2.273   3.399
 1959SOL     OW 7865   0.459   2.389   3.512
 1959SOL    HW2 7866   0.533   2.345   3.469
 1959SOL    HW3 7867   0.381   2.350   3.472
 1959SOL    MW4 7868   0.459   2.378   3.501
 1960SOL     OW 7869   0.453   2.665   3.444
 1960SOL    HW2 7870   0.459   2.571   3.462
 1960SOL    HW3 7871   0.452   2.672   3.349
 1960SOL    MW4 7872   0.453   2.653   3.434
 1961SOL     OW 7873   0.672   2.838   3.478
 1961SOL    HW2 7874   0.752   2.787   3.466
 1961SOL    HW3 7875   0.601   2.774   3.467
 1961SOL    MW4 7876   0.673   2.823   3.475
 1962SOL     OW 7877   0.662   3.108   3.425
 1962SOL    HW2 7878   0.582   3.145   3.462
 1962SOL    HW3 7879   0.657   3.014   3.446
 1962SOL    MW4 7880   0.650   3.100   3.433
 1963SOL     OW 7881   0.426   3.209   3.515
 1963SOL    HW2 7882   0.411   3.228   3.608
 1963SOL    HW3 7883   0.356   3.149   3.491
 1963SOL    MW4 7884   0.415   3.204   3.524
 1964SOL     OW 7885   0.430   3.480   3.355
 1964SOL    HW2 7886   0.424   3.386   3.373
 1964SOL    HW3 7887   0.366   3.520   3.414
 1964SOL    MW4 7888   0.421   3.473   3.365
 1965SOL     OW 7889   0.630   3.607   3.523
 1965SOL    HW2 7890   0.716   3.571   3.501
 1965SOL    HW3 7891   0.568   3.544   3.488
 1965SOL    MW4 7892   0.633   3.594   3.516
 1966SOL     OW 7893   0.650   3.851   3.389
 1966SOL    HW2 7894   0.586   3.915   3.420
 1966SOL    HW3 7895   0.639   3.776   3.448
 1966SOL    MW4 7896   0.640   3.849   3.401
 1967SOL     OW 7897   0.428   3.991   3.480
 1967SOL    HW2 7898   0.432   4.081   3.448
 1967SOL    HW3 7899   0.368   3.947   3.420
 1967SOL    MW4 7900   0.420   3.997   3.468
 1968SOL     OW 7901   0.407   4.247   3.381
 1968SOL    HW2 7902   0.484   4.299   3.406
 1968SOL    HW3 7903   0.412   4.243   3.285
 1968SOL    MW4 7904   0.418   4.253   3.372
 1969SOL     OW 7905   0.623   4.391   3.475
 1969SOL    HW2 7906   0.709   4.361   3.446
 1969SOL    HW3 7907   0.626   4.486   3.465
 1969SOL    MW4 7908   0.634   4.399   3.470
 1970SOL     OW 7909   1.122   4.646   3.381
 1970SOL    HW2 7910   1.204   4.689   3.405
 1970SOL    HW3 7911   1.117   4.654   3.286
 1970SOL    MW4 7912   1.132   4.652   3.372
 1971SOL     OW 7913   0.903   0.136   3.482
 1971SOL    HW2 7914   0.903   0.140   3.578
 1971SOL    HW3 7915   0.967   0.068   3.461
 1971SOL    MW4 7916   0.911   0.128   3.492
 1972SOL     OW 7917   0.895   0.395   3.381
 1972SOL    HW2 7918   0.980   0.418   3.417
 1972SOL    HW3 7919   0.884   0.302   3.401
 1972SOL    MW4 7920   0.904   0.386   3.389
 1973SOL     OW 7921   1.135   0.490   3.478
 1973SOL    HW2 7922   1.123   0.500   3.573
 1973SOL    HW3 7923   1.123   0.579   3.444
 1973SOL    MW4 7924   1.132   0.503   3.486
 1974SOL     OW 7925   1.130   0.757   3.405
 1974SOL    HW2 7926   1.207   0.798   3.445
 1974SOL    HW3 7927   1.055   0.804   3.444
 1974SOL    MW4 7928   1.130   0.769   3.416
 1975SOL     OW 7929   0.865   0.894   3.492
 1975SOL    HW2 7930   0.884   0.975   3.443
 1975SOL    HW3 7931   0.782   0.864   3.456
 1975SOL    MW4 7932   0.857   0.901   3.480
 1976SOL     OW 7933   0.912   1.162   3.368
 1976SOL    HW2 7934   0.997   1.189   3.401
 1976SOL    HW3 7935   0.921   1.164   3.273
 1976SOL    MW4 7936   0.924   1.166   3.360
 1977SOL     OW 7937   1.125   1.254   3.505
 1977SOL    HW2 7938   1.114   1.254   3.601
 1977SOL    HW3 7939   1.113   1.346   3.480
 1977SOL    MW4 7940   1.122   1.266   3.515
 1978SOL     OW 7941   1.107   1.527   3.457
 1978SOL    HW2 7942   1.189   1.574   3.472
 1978SOL    HW3 7943   1.096   1.529   3.362
 1978SOL    MW4 7944   1.117   1.534   3.446
 1979SOL     OW 7945   0.893   1.659   3.552
 1979SOL    HW2 7946   0.903   1.741   3.504
 1979SOL    HW3 7947   0.972   1.609   3.531
 1979SOL    MW4 7948   0.905   1.663   3.543
 1980SOL     OW 7949   0.933   1.898   3.420
 1980SOL    HW2 7950   1.011   1.924   3.470
 1980SOL    HW3 7951   0.860   1.942   3.464
 1980SOL    MW4 7952   0.934   1.908   3.432
 1981SOL     OW 7953   1.140   1.994   3.560
 1981SOL    HW2 7954   1.207   1.963   3.500
 1981SOL    HW3 7955   1.142   2.089   3.552
 1981SOL    MW4 7956   1.149   2.002   3.551
 1982SOL     OW 7957   1.139   2.248   3.440
 1982SOL    HW2 7958   1.205   2.313   3.463
 1982SOL    HW3 7959   1.147   2.240   3.345
 1982SOL    MW4 7960   1.149   2.256   3.430
 1983SOL     OW 7961   0.917   2.418   3.466
 1983SOL    HW2 7962   0.913   2.447   3.557
 1983SOL    HW3 7963   0.985   2.350   3.466
 1983SOL    MW4 7964   0.926   2.413   3.478
 1984SOL     OW 7965   0.901   2.681   3.408
 1984SOL    HW2 7966   0.988   2.714   3.429
 1984SOL    HW3 7967   0.903   2.589   3.434
 1984SOL    MW4 7968   0.913   2.673   3.414
 1985SOL     OW 7969   1.137   2.803   3.495
 1985SOL    HW2 7970   1.109   2.831   3.582
 1985SOL    HW3 7971   1.228   2.774   3.508
 1985SOL    MW4 7972   1.145   2.803   3.508
 1986SOL     OW 7973   1.160   3.071   3.426
 1986SOL    HW2 7974   1.162   2.977   3.447
 1986SOL    HW3 7975   1.158   3.073   3.330
 1986SOL    MW4 7976   1.160   3.059   3.416
 1987SOL     OW 7977   0.909   3.233   3.488
 1987SOL    HW2 7978   0.983   3.172   3.480
 1987SOL    HW3 7979   0.833   3.183   3.459
 1987SOL    MW4 7980   0.909   3.219   3.483
 1988SOL     OW 7981   0.880   3.509   3.447
 1988SOL    HW2 7982   0.891   3.416   3.467
 1988SOL    HW3 7983   0.877   3.512   3.351
 1988SOL    MW4 7984   0.881   3.497   3.437
 1989SOL     OW 7985   1.138   3.620   3.496
 1989SOL    HW2 7986   1.128   3.627   3.591
 1989SOL    HW3 7987   1.062   3.569   3.468
 1989SOL    MW4 7988   1.127   3.614   3.505
 1990SOL     OW 7989   1.101   3.881   3.435
 1990SOL    HW2 7990   1.187   3.921   3.451
 1990SOL    HW3 7991   1.113   3.789   3.456
 1990SOL    MW4 7992   1.114   3.874   3.440
 1991SOL     OW 7993   0.861   4.012   3.460
 1991SOL    HW2 7994   0.949   3.975   3.455
 1991SOL    HW3 7995   0.803   3.939   3.439
 1991SOL    MW4 7996   0.865   3.998   3.457
 1992SOL     OW 7997   0.886   4.266   3.352
 1992SOL    HW2 7998   0.878   4.181   3.395
 1992SOL    HW3 7999   0.902   4.246   3.260
 1992SOL    MW4 8000   0.887   4.252   3.346
 1993SOL     OW 8001   1.100   4.399   3.473
 1993SOL    HW2 8002   1.035   4.356   3.417
 1993SOL    HW3 8003   1.103   4.489   3.442
 1993SOL    MW4 8004   1.092   4.405   3.462
 1994SOL     OW 8005   1.554   4.606   3.359
 1994SOL    HW2 8006   1.557   4.526   3.411
 1994SOL    HW3 8007   1.493   4.663   3.405
 1994SOL    MW4 8008   1.547   4.603   3.372
 1995SOL     OW 8009   1.373   0.100   3.484
 1995SOL    HW2 8010   1.351   0.110   3.576
 1995SOL    HW3 8011   1.386   0.190   3.453
 1995SOL    MW4 8012   1.372   0.113   3.492
 1996SOL     OW 8013   1.381   0.371   3.415
 1996SOL    HW2 8014   1.446   0.417   3.468
 1996SOL    HW3 8015   1.298   0.412   3.438
 1996SOL    MW4 8016   1.379   0.383   3.425
 1997SOL     OW 8017   1.586   0.506   3.514
 1997SOL    HW2 8018   1.593   0.497   3.609
 1997SOL    HW3 8019   1.661   0.457   3.480
 1997SOL    MW4 8020   1.597   0.498   3.522
 1998SOL     OW 8021   1.567   0.776   3.431
 1998SOL    HW2 8022   1.488   0.818   3.463
 1998SOL    HW3 8023   1.565   0.688   3.470
 1998SOL    MW4 8024   1.557   0.770   3.441
 1999SOL     OW 8025   1.329   0.906   3.516
 1999SOL    HW2 8026   1.344   0.914   3.610
 1999SOL    HW3 8027   1.347   0.994   3.481
 1999SOL    MW4 8028   1.334   0.919   3.524
 2000SOL     OW 8029   1.364   1.150   3.406
 2000SOL    HW2 8030   1.437   1.192   3.452
 2000SOL    HW3 8031   1.287   1.199   3.434
 2000SOL    MW4 8032   1.363   1.162   3.416
 2001SOL     OW 8033   1.603   1.266   3.503
 2001SOL    HW2 8034   1.604   1.270   3.599
 2001SOL    HW3 8035   1.676   1.208   3.481
 2001SOL    MW4 8036   1.613   1.259   3.513
 2002SOL     OW 8037   1.572   1.524   3.426
 2002SOL    HW2 8038   1.582   1.432   3.451
 2002SOL    HW3 8039   1.553   1.522   3.332
 2002SOL    MW4 8040   1.571   1.512   3.417
 2003SOL     OW 8041   1.347   1.654   3.520
 2003SOL    HW2 8042   1.362   1.650   3.614
 2003SOL    HW3 8043   1.427   1.620   3.481
 2003SOL    MW4 8044   1.359   1.649   3.527
 2004SOL     OW 8045   1.356   1.896   3.378
 2004SOL    HW2 8046   1.421   1.952   3.421
 2004SOL    HW3 8047   1.354   1.816   3.431
 2004SOL    MW4 8048   1.364   1.893   3.391
 2005SOL     OW 8049   1.544   2.046   3.498
 2005SOL    HW2 8050   1.622   1.991   3.499
 2005SOL    HW3 8051   1.575   2.131   3.469
 2005SOL    MW4 8052   1.558   2.050   3.494
 2006SOL     OW 8053   1.575   2.319   3.414
 2006SOL    HW2 8054   1.490   2.353   3.443
 2006SOL    HW3 8055   1.566   2.311   3.319
 2006SOL    MW4 8056   1.563   2.322   3.405
 2007SOL     OW 8057   1.338   2.434   3.535
 2007SOL    HW2 8058   1.340   2.451   3.629
 2007SOL    HW3 8059   1.356   2.519   3.495
 2007SOL    MW4 8060   1.341   2.447   3.542
 2008SOL     OW 8061   1.410   2.682   3.464
 2008SOL    HW2 8062   1.472   2.751   3.490
 2008SOL    HW3 8063   1.404   2.690   3.369
 2008SOL    MW4 8064   1.418   2.692   3.455
 2009SOL     OW 8065   1.602   2.865   3.551
 2009SOL    HW2 8066   1.671   2.821   3.501
 2009SOL    HW3 8067   1.599   2.954   3.515
 2009SOL    MW4 8068   1.611   2.871   3.540
 2010SOL     OW 8069   1.575   3.109   3.424
 2010SOL    HW2 8070   1.658   3.149   3.452
 2010SOL    HW3 8071   1.509   3.149   3.481
 2010SOL    MW4 8072   1.577   3.119   3.436
 2011SOL     OW 8073   1.374   3.210   3.573
 2011SOL    HW2 8074   1.357   3.224   3.666
 2011SOL    HW3 8075   1.292   3.173   3.539
 2011SOL    MW4 8076   1.361   3.207   3.580
 2012SOL     OW 8077   1.366   3.465   3.421
 2012SOL    HW2 8078   1.363   3.393   3.484
 2012SOL    HW3 8079   1.294   3.523   3.446
 2012SOL    MW4 8080   1.356   3.463   3.432
 2013SOL     OW 8081   1.574   3.616   3.506
 2013SOL    HW2 8082   1.578   3.617   3.601
 2013SOL    HW3 8083   1.497   3.564   3.485
 2013SOL    MW4 8084   1.565   3.609   3.516
 2014SOL     OW 8085   1.551   3.900   3.437
 2014SOL    HW2 8086   1.548   3.805   3.447
 2014SOL    HW3 8087   1.545   3.915   3.343
 2014SOL    MW4 8088   1.550   3.890   3.426
 2015SOL     OW 8089   1.330   4.047   3.506
 2015SOL    HW2 8090   1.328   4.130   3.458
 2015SOL    HW3 8091   1.403   3.999   3.466
 2015SOL    MW4 8092   1.340   4.052   3.494
 2016SOL     OW 8093   1.348   4.304   3.386
 2016SOL    HW2 8094   1.268   4.341   3.423
 2016SOL    HW3 8095   1.329   4.292   3.293
 2016SOL    MW4 8096   1.335   4.307   3.379
 2017SOL     OW 8097   1.582   4.385   3.511
 2017SOL    HW2 8098   1.655   4.332   3.480
 2017SOL    HW3 8099   1.504   4.344   3.473
 2017SOL    MW4 8100   1.581   4.373   3.502
 2018SOL     OW 8101   1.992   4.622   3.353
 2018SOL    HW2 8102   2.057   4.680   3.394
 2018SOL    HW3 8103   1.912   4.636   3.404
 2018SOL    MW4 8104   1.990   4.631   3.365
 2019SOL     OW 8105   1.764   0.078   3.486
 2019SOL    HW2 8106   1.753   0.067   3.580
 2019SOL    HW3 8107   1.688   0.033   3.448
 2019SOL    MW4 8108   1.752   0.070   3.493
 2020SOL     OW 8109   1.794   0.344   3.418
 2020SOL    HW2 8110   1.795   0.251   3.440
 2020SOL    HW3 8111   1.809   0.347   3.324
 2020SOL    MW4 8112   1.796   0.332   3.409
 2021SOL     OW 8113   2.016   0.440   3.537
 2021SOL    HW2 8114   2.011   0.533   3.515
 2021SOL    HW3 8115   1.936   0.402   3.501
 2021SOL    MW4 8116   2.005   0.447   3.529
 2022SOL     OW 8117   1.999   0.696   3.397
 2022SOL    HW2 8118   2.067   0.753   3.434
 2022SOL    HW3 8119   2.013   0.701   3.303
 2022SOL    MW4 8120   2.010   0.704   3.390
 2023SOL     OW 8121   1.800   0.863   3.527
 2023SOL    HW2 8122   1.856   0.794   3.489
 2023SOL    HW3 8123   1.711   0.838   3.501
 2023SOL    MW4 8124   1.796   0.850   3.518
 2024SOL     OW 8125   1.798   1.108   3.407
 2024SOL    HW2 8126   1.881   1.139   3.443
 2024SOL    HW3 8127   1.797   1.014   3.428
 2024SOL    MW4 8128   1.809   1.100   3.415
 2025SOL     OW 8129   2.023   1.254   3.508
 2025SOL    HW2 8130   2.048   1.259   3.601
 2025SOL    HW3 8131   2.004   1.344   3.483
 2025SOL    MW4 8132   2.024   1.266   3.517
 2026SOL     OW 8133   2.050   1.531   3.407
 2026SOL    HW2 8134   2.120   1.585   3.443
 2026SOL    HW3 8135   1.969   1.571   3.439
 2026SOL    MW4 8136   2.049   1.543   3.416
 2027SOL     OW 8137   1.821   1.638   3.504
 2027SOL    HW2 8138   1.809   1.728   3.475
 2027SOL    HW3 8139   1.741   1.593   3.474
 2027SOL    MW4 8140   1.809   1.644   3.496
 2028SOL     OW 8141   1.777   1.897   3.431
 2028SOL    HW2 8142   1.860   1.936   3.459
 2028SOL    HW3 8143   1.764   1.929   3.342
 2028SOL    MW4 8144   1.786   1.906   3.423
 2029SOL     OW 8145   2.000   2.028   3.502
 2029SOL    HW2 8146   2.085   1.987   3.483
 2029SOL    HW3 8147   2.015   2.122   3.490
 2029SOL    MW4 8148   2.013   2.035   3.498
 2030SOL     OW 8149   2.016   2.286   3.428
 2030SOL    HW2 8150   2.104   2.317   3.448
 2030SOL    HW3 8151   2.020   2.262   3.336
 2030SOL    MW4 8152   2.028   2.287   3.419
 2031SOL     OW 8153   1.795   2.470   3.486
 2031SOL    HW2 8154   1.863   2.417   3.445
 2031SOL    HW3 8155   1.713   2.427   3.463
 2031SOL    MW4 8156   1.793   2.457   3.478
 2032SOL     OW 8157   1.812   2.744   3.418
 2032SOL    HW2 8158   1.900   2.765   3.451
 2032SOL    HW3 8159   1.797   2.654   3.444
 2032SOL    MW4 8160   1.821   2.735   3.426
 2033SOL     OW 8161   2.030   2.837   3.533
 2033SOL    HW2 8162   2.006   2.834   3.626
 2033SOL    HW3 8163   2.020   2.929   3.509
 2033SOL    MW4 8164   2.025   2.849   3.542
 2034SOL     OW 8165   2.044   3.093   3.416
 2034SOL    HW2 8166   2.124   3.141   3.437
 2034SOL    HW3 8167   1.974   3.143   3.458
 2034SOL    MW4 8168   2.045   3.106   3.425
 2035SOL     OW 8169   1.826   3.220   3.530
 2035SOL    HW2 8170   1.810   3.227   3.624
 2035SOL    HW3 8171   1.813   3.308   3.497
 2035SOL    MW4 8172   1.822   3.232   3.538
 2036SOL     OW 8173   1.788   3.463   3.420
 2036SOL    HW2 8174   1.725   3.534   3.435
 2036SOL    HW3 8175   1.809   3.470   3.327
 2036SOL    MW4 8176   1.782   3.473   3.410
 2037SOL     OW 8177   2.013   3.609   3.495
 2037SOL    HW2 8178   2.092   3.565   3.464
 2037SOL    HW3 8179   1.942   3.548   3.475
 2037SOL    MW4 8180   2.014   3.595   3.488
 2038SOL     OW 8181   2.005   3.863   3.389
 2038SOL    HW2 8182   1.932   3.904   3.434
 2038SOL    HW3 8183   2.016   3.779   3.434
 2038SOL    MW4 8184   1.997   3.857   3.401
 2039SOL     OW 8185   1.802   4.001   3.505
 2039SOL    HW2 8186   1.799   3.979   3.598
 2039SOL    HW3 8187   1.722   3.962   3.469
 2039SOL    MW4 8188   1.791   3.993   3.512
 2040SOL     OW 8189   1.788   4.267   3.397
 2040SOL    HW2 8190   1.794   4.180   3.438
 2040SOL    HW3 8191   1.783   4.249   3.303
 2040SOL    MW4 8192   1.788   4.253   3.390
 2041SOL     OW 8193   2.019   4.382   3.478
 2041SOL    HW2 8194   1.945   4.331   3.444
 2041SOL    HW3 8195   2.020   4.461   3.424
 2041SOL    MW4 8196   2.009   4.386   3.466
 2042SOL     OW 8197   2.480   4.662   3.364
 2042SOL    HW2 8198   2.492   4.578   3.410
 2042SOL    HW3 8199   2.477   4.638   3.271
 2042SOL    MW4 8200   2.481   4.648   3.358
 2043SOL     OW 8201   2.221   0.082   3.449
 2043SOL    HW2 8202   2.211   0.176   3.438
 2043SOL    HW3 8203   2.307   0.062   3.413
 2043SOL    MW4 8204   2.231   0.092   3.443
 2044SOL     OW 8205   2.233   0.351   3.394
 2044SOL    HW2 8206   2.312   0.386   3.436
 2044SOL    HW3 8207   2.160   0.395   3.440
 2044SOL    MW4 8208   2.233   0.361   3.406
 2045SOL     OW 8209   2.453   0.469   3.496
 2045SOL    HW2 8210   2.538   0.433   3.471
 2045SOL    HW3 8211   2.455   0.560   3.465
 2045SOL    MW4 8212   2.464   0.476   3.489
 2046SOL     OW 8213   2.493   0.740   3.384
 2046SOL    HW2 8214   2.570   0.787   3.418
 2046SOL    HW3 8215   2.499   0.750   3.289
 2046SOL    MW4 8216   2.504   0.748   3.376
 2047SOL     OW 8217   2.241   0.849   3.480
 2047SOL    HW2 8218   2.235   0.935   3.437
 2047SOL    HW3 8219   2.318   0.808   3.440
 2047SOL    MW4 8220   2.250   0.855   3.469
 2048SOL     OW 8221   2.221   1.106   3.377
 2048SOL    HW2 8222   2.302   1.145   3.410
 2048SOL    HW3 8223   2.151   1.156   3.419
 2048SOL    MW4 8224   2.222   1.118   3.387
 2049SOL     OW 8225   2.458   1.240   3.485
 2049SOL    HW2 8226   2.456   1.240   3.581
 2049SOL    HW3 8227   2.526   1.177   3.462
 2049SOL    MW4 8228   2.466   1.232   3.495
 2050SOL     OW 8229   2.500   1.510   3.411
 2050SOL    HW2 8230   2.471   1.421   3.433
 2050SOL    HW3 8231   2.514   1.507   3.317
 2050SOL    MW4 8232   2.498   1.498   3.402
 2051SOL     OW 8233   2.280   1.668   3.502
 2051SOL    HW2 8234   2.269   1.662   3.597
 2051SOL    HW3 8235   2.362   1.623   3.484
 2051SOL    MW4 8236   2.289   1.661   3.512
 2052SOL     OW 8237   2.245   1.934   3.417
 2052SOL    HW2 8238   2.254   1.847   3.454
 2052SOL    HW3 8239   2.258   1.922   3.323
 2052SOL    MW4 8240   2.248   1.921   3.409
 2053SOL     OW 8241   2.481   2.060   3.498
 2053SOL    HW2 8242   2.470   2.080   3.591
 2053SOL    HW3 8243   2.399   2.019   3.472
 2053SOL    MW4 8244   2.469   2.057   3.507
 2054SOL     OW 8245   2.478   2.313   3.361
 2054SOL    HW2 8246   2.561   2.357   3.380
 2054SOL    HW3 8247   2.489   2.226   3.398
 2054SOL    MW4 8248   2.491   2.307   3.368
 2055SOL     OW 8249   2.269   2.416   3.510
 2055SOL    HW2 8250   2.240   2.506   3.492
 2055SOL    HW3 8251   2.341   2.402   3.449
 2055SOL    MW4 8252   2.274   2.426   3.500
 2056SOL     OW 8253   2.233   2.696   3.424
 2056SOL    HW2 8254   2.159   2.744   3.461
 2056SOL    HW3 8255   2.215   2.691   3.331
 2056SOL    MW4 8256   2.221   2.701   3.417
 2057SOL     OW 8257   2.494   2.784   3.510
 2057SOL    HW2 8258   2.482   2.876   3.486
 2057SOL    HW3 8259   2.411   2.742   3.488
 2057SOL    MW4 8260   2.481   2.791   3.504
 2058SOL     OW 8261   2.492   3.051   3.419
 2058SOL    HW2 8262   2.555   3.116   3.450
 2058SOL    HW3 8263   2.495   3.057   3.324
 2058SOL    MW4 8264   2.501   3.060   3.411
 2059SOL     OW 8265   2.258   3.225   3.499
 2059SOL    HW2 8266   2.267   3.207   3.593
 2059SOL    HW3 8267   2.327   3.173   3.458
 2059SOL    MW4 8268   2.268   3.216   3.506
 2060SOL     OW 8269   2.258   3.511   3.396
 2060SOL    HW2 8270   2.256   3.417   3.413
 2060SOL    HW3 8271   2.280   3.517   3.303
 2060SOL    MW4 8272   2.260   3.499   3.386
 2061SOL     OW 8273   2.480   3.618   3.483
 2061SOL    HW2 8274   2.473   3.709   3.453
 2061SOL    HW3 8275   2.404   3.575   3.443
 2061SOL    MW4 8276   2.469   3.624   3.474
 2062SOL     OW 8277   2.438   3.887   3.396
 2062SOL    HW2 8278   2.514   3.928   3.439
 2062SOL    HW3 8279   2.363   3.936   3.428
 2062SOL    MW4 8280   2.438   3.899   3.406
 2063SOL     OW 8281   2.213   4.005   3.501
 2063SOL    HW2 8282   2.203   4.095   3.470
 2063SOL    HW3 8283   2.145   3.955   3.455
 2063SOL    MW4 8284   2.202   4.010   3.491
 2064SOL     OW 8285   2.245   4.270   3.391
 2064SOL    HW2 8286   2.168   4.319   3.417
 2064SOL    HW3 8287   2.243   4.272   3.295
 2064SOL    MW4 8288   2.235   4.277   3.382
 2065SOL     OW 8289   2.466   4.391   3.494
 2065SOL    HW2 8290   2.449   4.382   3.588
 2065SOL    HW3 8291   2.404   4.331   3.453
 2065SOL    MW4 8292   2.455   4.382   3.501
 2066SOL     OW 8293   2.929   0.005   3.416
 2066SOL    HW2 8294   2.854   0.053   3.451
 2066SOL    HW3 8295   2.918   0.010   3.321
 2066SOL    MW4 8296   2.918   0.012   3.408
 2067SOL     OW 8297   2.680   0.146   3.508
 2067SOL    HW2 8298   2.687   0.235   3.475
 2067SOL    HW3 8299   2.611   0.106   3.455
 2067SOL    MW4 8300   2.672   0.152   3.497
 2068SOL     OW 8301   2.692   0.390   3.380
 2068SOL    HW2 8302   2.772   0.434   3.409
 2068SOL    HW3 8303   2.711   0.363   3.290
 2068SOL    MW4 8304   2.705   0.392   3.372
 2069SOL     OW 8305   2.931   0.494   3.466
 2069SOL    HW2 8306   2.925   0.502   3.561
 2069SOL    HW3 8307   2.940   0.585   3.435
 2069SOL    MW4 8308   2.932   0.507   3.475
 2070SOL     OW 8309   2.933   0.752   3.355
 2070SOL    HW2 8310   3.006   0.809   3.382
 2070SOL    HW3 8311   2.859   0.783   3.408
 2070SOL    MW4 8312   2.933   0.764   3.366
 2071SOL     OW 8313   2.732   0.851   3.505
 2071SOL    HW2 8314   2.703   0.859   3.596
 2071SOL    HW3 8315   2.734   0.941   3.473
 2071SOL    MW4 8316   2.729   0.864   3.513
 2072SOL     OW 8317   2.722   1.104   3.409
 2072SOL    HW2 8318   2.785   1.169   3.440
 2072SOL    HW3 8319   2.735   1.102   3.314
 2072SOL    MW4 8320   2.732   1.112   3.401
 2073SOL     OW 8321   2.900   1.295   3.491
 2073SOL    HW2 8322   2.897   1.280   3.585
 2073SOL    HW3 8323   2.986   1.264   3.464
 2073SOL    MW4 8324   2.911   1.289   3.500
 2074SOL     OW 8325   2.917   1.554   3.392
 2074SOL    HW2 8326   2.855   1.612   3.436
 2074SOL    HW3 8327   2.897   1.467   3.428
 2074SOL    MW4 8328   2.906   1.550   3.403
 2075SOL     OW 8329   2.707   1.677   3.531
 2075SOL    HW2 8330   2.681   1.759   3.490
 2075SOL    HW3 8331   2.637   1.615   3.508
 2075SOL    MW4 8332   2.694   1.679   3.523
 2076SOL     OW 8333   2.709   1.938   3.414
 2076SOL    HW2 8334   2.621   1.965   3.441
 2076SOL    HW3 8335   2.701   1.921   3.320
 2076SOL    MW4 8336   2.696   1.939   3.405
 2077SOL     OW 8337   2.920   2.076   3.510
 2077SOL    HW2 8338   2.915   2.057   3.604
 2077SOL    HW3 8339   2.845   2.029   3.473
 2077SOL    MW4 8340   2.909   2.068   3.518
 2078SOL     OW 8341   2.916   2.316   3.355
 2078SOL    HW2 8342   2.940   2.232   3.394
 2078SOL    HW3 8343   2.909   2.297   3.261
 2078SOL    MW4 8344   2.919   2.302   3.348
 2079SOL     OW 8345   2.714   2.451   3.476
 2079SOL    HW2 8346   2.723   2.432   3.570
 2079SOL    HW3 8347   2.782   2.398   3.435
 2079SOL    MW4 8348   2.724   2.442   3.483
 2080SOL     OW 8349   2.729   2.710   3.388
 2080SOL    HW2 8350   2.725   2.617   3.410
 2080SOL    HW3 8351   2.644   2.745   3.413
 2080SOL    MW4 8352   2.717   2.702   3.394
 2081SOL     OW 8353   2.953   2.825   3.505
 2081SOL    HW2 8354   2.925   2.832   3.596
 2081SOL    HW3 8355   2.880   2.782   3.461
 2081SOL    MW4 8356   2.940   2.820   3.511
 2082SOL     OW 8357   2.924   3.097   3.442
 2082SOL    HW2 8358   2.928   3.004   3.463
 2082SOL    HW3 8359   2.912   3.099   3.347
 2082SOL    MW4 8360   2.923   3.085   3.432
 2083SOL     OW 8361   2.675   3.219   3.530
 2083SOL    HW2 8362   2.674   3.192   3.621
 2083SOL    HW3 8363   2.757   3.184   3.495
 2083SOL    MW4 8364   2.686   3.211   3.537
 2084SOL     OW 8365   2.704   3.459   3.406
 2084SOL    HW2 8366   2.695   3.377   3.455
 2084SOL    HW3 8367   2.633   3.514   3.438
 2084SOL    MW4 8368   2.694   3.456   3.417
 2085SOL     OW 8369   2.902   3.627   3.500
 2085SOL    HW2 8370   2.900   3.712   3.456
 2085SOL    HW3 8371   2.826   3.581   3.463
 2085SOL    MW4 8372   2.892   3.632   3.489
 2086SOL     OW 8373   2.880   3.891   3.380
 2086SOL    HW2 8374   2.956   3.924   3.427
 2086SOL    HW3 8375   2.805   3.917   3.434
 2086SOL    MW4 8376   2.880   3.899   3.393
 2087SOL     OW 8377   2.665   3.984   3.526
 2087SOL    HW2 8378   2.679   3.987   3.620
 2087SOL    HW3 8379   2.663   4.076   3.499
 2087SOL    MW4 8380   2.667   3.997   3.535
 2088SOL     OW 8381   2.674   4.250   3.420
 2088SOL    HW2 8382   2.757   4.295   3.434
 2088SOL    HW3 8383   2.608   4.310   3.455
 2088SOL    MW4 8384   2.676   4.264   3.426
 2089SOL     OW 8385   2.917   4.379   3.484
 2089SOL    HW2 8386   2.913   4.386   3.579
 2089SOL    HW3 8387   2.909   4.469   3.453
 2089SOL    MW4 8388   2.916   4.392   3.493
 2090SOL     OW 8389   3.400   4.602   3.387
 2090SOL    HW2 8390   3.327   4.658   3.416
 2090SOL    HW3 8391   3.401   4.611   3.292
 2090SOL    MW4 8392   3.391   4.611   3.379
 2091SOL     OW 8393   3.189   0.079   3.485
 2091SOL    HW2 8394   3.197   0.172   3.462
 2091SOL    HW3 8395   3.101   0.055   3.457
 2091SOL    MW4 8396   3.179   0.088   3.478
 2092SOL     OW 8397   3.176   0.338   3.386
 2092SOL    HW2 8398   3.093   0.372   3.422
 2092SOL    HW3 8399   3.165   0.344   3.291
 2092SOL    MW4 8400   3.163   0.344   3.378
 2093SOL     OW 8401   3.398   0.479   3.476
 2093SOL    HW2 8402   3.389   0.491   3.571
 2093SOL    HW3 8403   3.321   0.429   3.451
 2093SOL    MW4 8404   3.387   0.474   3.485
 2094SOL     OW 8405   3.359   0.750   3.379
 2094SOL    HW2 8406   3.440   0.796   3.400
 2094SOL    HW3 8407   3.368   0.664   3.421
 2094SOL    MW4 8408   3.371   0.745   3.387
 2095SOL     OW 8409   3.139   0.897   3.488
 2095SOL    HW2 8410   3.133   0.991   3.505
 2095SOL    HW3 8411   3.224   0.885   3.446
 2095SOL    MW4 8412   3.149   0.908   3.485
 2096SOL     OW 8413   3.121   1.170   3.413
 2096SOL    HW2 8414   3.206   1.208   3.437
 2096SOL    HW3 8415   3.125   1.162   3.318
 2096SOL    MW4 8416   3.133   1.174   3.404
 2097SOL     OW 8417   3.360   1.304   3.501
 2097SOL    HW2 8418   3.438   1.263   3.464
 2097SOL    HW3 8419   3.356   1.390   3.459
 2097SOL    MW4 8420   3.370   1.310   3.491
 2098SOL     OW 8421   3.342   1.546   3.359
 2098SOL    HW2 8422   3.425   1.583   3.390
 2098SOL    HW3 8423   3.275   1.598   3.403
 2098SOL    MW4 8424   3.344   1.558   3.369
 2099SOL     OW 8425   3.143   1.683   3.507
 2099SOL    HW2 8426   3.133   1.771   3.471
 2099SOL    HW3 8427   3.067   1.635   3.472
 2099SOL    MW4 8428   3.131   1.688   3.498
 2100SOL     OW 8429   3.131   1.932   3.383
 2100SOL    HW2 8430   3.056   1.985   3.409
 2100SOL    HW3 8431   3.133   1.937   3.288
 2100SOL    MW4 8432   3.121   1.940   3.374
 2101SOL     OW 8433   3.344   2.069   3.510
 2101SOL    HW2 8434   3.347   2.158   3.475
 2101SOL    HW3 8435   3.271   2.027   3.465
 2101SOL    MW4 8436   3.335   2.075   3.500
 2102SOL     OW 8437   3.366   2.325   3.386
 2102SOL    HW2 8438   3.430   2.367   3.444
 2102SOL    HW3 8439   3.284   2.370   3.404
 2102SOL    MW4 8440   3.364   2.337   3.396
 2103SOL     OW 8441   3.156   2.453   3.499
 2103SOL    HW2 8442   3.158   2.542   3.463
 2103SOL    HW3 8443   3.077   2.414   3.460
 2103SOL    MW4 8444   3.146   2.460   3.489
 2104SOL     OW 8445   3.170   2.716   3.399
 2104SOL    HW2 8446   3.244   2.753   3.447
 2104SOL    HW3 8447   3.093   2.757   3.440
 2104SOL    MW4 8448   3.169   2.726   3.411
 2105SOL     OW 8449   3.386   2.819   3.543
 2105SOL    HW2 8450   3.459   2.782   3.494
 2105SOL    HW3 8451   3.373   2.906   3.507
 2105SOL    MW4 8452   3.394   2.825   3.532
 2106SOL     OW 8453   3.359   3.096   3.430
 2106SOL    HW2 8454   3.432   3.142   3.472
 2106SOL    HW3 8455   3.281   3.140   3.463
 2106SOL    MW4 8456   3.359   3.108   3.440
 2107SOL     OW 8457   3.147   3.233   3.555
 2107SOL    HW2 8458   3.148   3.326   3.531
 2107SOL    HW3 8459   3.075   3.196   3.504
 2107SOL    MW4 8460   3.137   3.240   3.545
 2108SOL     OW 8461   3.135   3.480   3.454
 2108SOL    HW2 8462   3.054   3.529   3.471
 2108SOL    HW3 8463   3.144   3.481   3.359
 2108SOL    MW4 8464   3.126   3.487   3.444
 2109SOL     OW 8465   3.358   3.617   3.550
 2109SOL    HW2 8466   3.358   3.687   3.485
 2109SOL    HW3 8467   3.277   3.570   3.535
 2109SOL    MW4 8468   3.348   3.620   3.540
 2110SOL     OW 8469   3.342   3.845   3.389
 2110SOL    HW2 8470   3.416   3.882   3.437
 2110SOL    HW3 8471   3.266   3.896   3.419
 2110SOL    MW4 8472   3.342   3.856   3.400
 2111SOL     OW 8473   3.119   3.989   3.488
 2111SOL    HW2 8474   3.113   4.009   3.581
 2111SOL    HW3 8475   3.126   4.075   3.446
 2111SOL    MW4 8476   3.119   4.003   3.495
 2112SOL     OW 8477   3.148   4.255   3.390
 2112SOL    HW2 8478   3.213   4.284   3.454
 2112SOL    HW3 8479   3.072   4.311   3.406
 2112SOL    MW4 8480   3.146   4.267   3.401
 2113SOL     OW 8481   3.373   4.344   3.525
 2113SOL    HW2 8482   3.353   4.352   3.618
 2113SOL    HW3 8483   3.396   4.433   3.497
 2113SOL    MW4 8484   3.374   4.357   3.533
 2114SOL     OW 8485   3.834   4.666   3.379
 2114SOL    HW2 8486   3.765   4.730   3.397
 2114SOL    HW3 8487   3.827   4.648   3.285
 2114SOL    MW4 8488   3.824   4.672   3.369
 2115SOL     OW 8489   3.584   0.127   3.525
 2115SOL    HW2 8490   3.590   0.214   3.485
 2115SOL    HW3 8491   3.511   0.085   3.480
 2115SOL    MW4 8492   3.575   0.133   3.514
 2116SOL     OW 8493   3.628   0.371   3.389
 2116SOL    HW2 8494   3.696   0.417   3.437
 2116SOL    HW3 8495   3.546   0.411   3.418
 2116SOL    MW4 8496   3.626   0.382   3.399
 2117SOL     OW 8497   3.840   0.539   3.505
 2117SOL    HW2 8498   3.826   0.510   3.595
 2117SOL    HW3 8499   3.908   0.481   3.471
 2117SOL    MW4 8500   3.847   0.527   3.512
 2118SOL     OW 8501   3.834   0.815   3.405
 2118SOL    HW2 8502   3.907   0.864   3.445
 2118SOL    HW3 8503   3.845   0.726   3.439
 2118SOL    MW4 8504   3.845   0.810   3.415
 2119SOL     OW 8505   3.581   0.892   3.468
 2119SOL    HW2 8506   3.585   0.883   3.563
 2119SOL    HW3 8507   3.669   0.869   3.437
 2119SOL    MW4 8508   3.593   0.888   3.476
 2120SOL     OW 8509   3.577   1.160   3.404
 2120SOL    HW2 8510   3.591   1.067   3.424
 2120SOL    HW3 8511   3.576   1.165   3.309
 2120SOL    MW4 8512   3.579   1.148   3.394
 2121SOL     OW 8513   3.797   1.320   3.474
 2121SOL    HW2 8514   3.817   1.309   3.567
 2121SOL    HW3 8515   3.718   1.269   3.460
 2121SOL    MW4 8516   3.789   1.312   3.485
 2122SOL     OW 8517   3.845   1.606   3.399
 2122SOL    HW2 8518   3.928   1.629   3.440
 2122SOL    HW3 8519   3.829   1.515   3.427
 2122SOL    MW4 8520   3.854   1.597   3.408
 2123SOL     OW 8521   3.576   1.658   3.443
 2123SOL    HW2 8522   3.558   1.751   3.432
 2123SOL    HW3 8523   3.670   1.649   3.426
 2123SOL    MW4 8524   3.586   1.669   3.439
 2124SOL     OW 8525   3.560   1.940   3.396
 2124SOL    HW2 8526   3.638   1.980   3.433
 2124SOL    HW3 8527   3.487   1.986   3.438
 2124SOL    MW4 8528   3.561   1.951   3.406
 2125SOL     OW 8529   3.783   2.047   3.517
 2125SOL    HW2 8530   3.790   2.064   3.611
 2125SOL    HW3 8531   3.866   2.005   3.494
 2125SOL    MW4 8532   3.795   2.043   3.527
 2126SOL     OW 8533   3.768   2.311   3.443
 2126SOL    HW2 8534   3.850   2.359   3.456
 2126SOL    HW3 8535   3.789   2.220   3.466
 2126SOL    MW4 8536   3.782   2.305   3.448
 2127SOL     OW 8537   3.558   2.423   3.557
 2127SOL    HW2 8538   3.559   2.516   3.533
 2127SOL    HW3 8539   3.635   2.386   3.514
 2127SOL    MW4 8540   3.568   2.431   3.548
 2128SOL     OW 8541   3.610   2.662   3.438
 2128SOL    HW2 8542   3.683   2.716   3.470
 2128SOL    HW3 8543   3.602   2.685   3.346
 2128SOL    MW4 8544   3.619   2.672   3.430
 2129SOL     OW 8545   3.819   2.827   3.516
 2129SOL    HW2 8546   3.822   2.822   3.611
 2129SOL    HW3 8547   3.795   2.917   3.496
 2129SOL    MW4 8548   3.816   2.838   3.526
 2130SOL     OW 8549   3.794   3.085   3.438
 2130SOL    HW2 8550   3.863   3.137   3.479
 2130SOL    HW3 8551   3.805   3.101   3.345
 2130SOL    MW4 8552   3.805   3.094   3.431
 2131SOL     OW 8553   3.571   3.212   3.547
 2131SOL    HW2 8554   3.581   3.306   3.533
 2131SOL    HW3 8555   3.644   3.173   3.499
 2131SOL    MW4 8556   3.582   3.219   3.539
 2132SOL     OW 8557   3.570   3.477   3.474
 2132SOL    HW2 8558   3.487   3.517   3.498
 2132SOL    HW3 8559   3.576   3.489   3.379
 2132SOL    MW4 8560   3.560   3.484   3.465
 2133SOL     OW 8561   3.812   3.599   3.574
 2133SOL    HW2 8562   3.816   3.602   3.669
 2133SOL    HW3 8563   3.729   3.556   3.555
 2133SOL    MW4 8564   3.801   3.594   3.584
 2134SOL     OW 8565   3.812   3.839   3.428
 2134SOL    HW2 8566   3.733   3.882   3.462
 2134SOL    HW3 8567   3.814   3.755   3.472
 2134SOL    MW4 8568   3.802   3.834   3.438
 2135SOL     OW 8569   3.578   3.976   3.503
 2135SOL    HW2 8570   3.565   3.960   3.596
 2135SOL    HW3 8571   3.588   4.071   3.496
 2135SOL    MW4 8572   3.577   3.987   3.514
 2136SOL     OW 8573   3.615   4.232   3.445
 2136SOL    HW2 8574   3.532   4.275   3.464
 2136SOL    HW3 8575   3.614   4.218   3.351
 2136SOL    MW4 8576   3.604   4.235   3.435
 2137SOL     OW 8577   3.850   4.412   3.520
 2137SOL    HW2 8578   3.775   4.361   3.489
 2137SOL    HW3 8579   3.838   4.499   3.480
 2137SOL    MW4 8580   3.839   4.417   3.510
 2138SOL     OW 8581   4.267   4.642   3.395
 2138SOL    HW2 8582   4.264   4.555   3.435
 2138SOL    HW3 8583   4.338   4.687   3.441
 2138SOL    MW4 8584   4.276   4.636   3.407
 2139SOL     OW 8585   4.052   0.133   3.491
 2139SOL    HW2 8586   4.128   0.077   3.474
 2139SOL    HW3 8587   3.977   0.081   3.462
 2139SOL    MW4 8588   4.052   0.119   3.485
 2140SOL     OW 8589   4.047   0.376   3.400
 2140SOL    HW2 8590   4.054   0.284   3.424
 2140SOL    HW3 8591   4.049   0.377   3.304
 2140SOL    MW4 8592   4.048   0.364   3.390
 2141SOL     OW 8593   4.238   0.561   3.527
 2141SOL    HW2 8594   4.236   0.625   3.455
 2141SOL    HW3 8595   4.168   0.499   3.505
 2141SOL    MW4 8596   4.228   0.562   3.514
 2142SOL     OW 8597   4.221   0.791   3.369
 2142SOL    HW2 8598   4.295   0.828   3.418
 2142SOL    HW3 8599   4.250   0.792   3.278
 2142SOL    MW4 8600   4.235   0.796   3.364
 2143SOL     OW 8601   4.055   0.944   3.519
 2143SOL    HW2 8602   4.063   1.032   3.482
 2143SOL    HW3 8603   4.106   0.888   3.460
 2143SOL    MW4 8604   4.063   0.949   3.506
 2144SOL     OW 8605   4.050   1.210   3.408
 2144SOL    HW2 8606   4.122   1.260   3.446
 2144SOL    HW3 8607   3.974   1.267   3.416
 2144SOL    MW4 8608   4.049   1.224   3.414
 2145SOL     OW 8609   4.259   1.347   3.519
 2145SOL    HW2 8610   4.276   1.436   3.490
 2145SOL    HW3 8611   4.338   1.299   3.498
 2145SOL    MW4 8612   4.272   1.352   3.513
 2146SOL     OW 8613   4.322   1.587   3.419
 2146SOL    HW2 8614   4.244   1.631   3.455
 2146SOL    HW3 8615   4.298   1.570   3.328
 2146SOL    MW4 8616   4.308   1.591   3.412
 2147SOL     OW 8617   4.087   1.706   3.509
 2147SOL    HW2 8618   4.074   1.703   3.604
 2147SOL    HW3 8619   4.060   1.794   3.483
 2147SOL    MW4 8620   4.082   1.717   3.518
 2148SOL     OW 8621   4.015   1.946   3.436
 2148SOL    HW2 8622   4.097   1.984   3.467
 2148SOL    HW3 8623   4.023   1.947   3.341
 2148SOL    MW4 8624   4.027   1.951   3.428
 2149SOL     OW 8625   4.265   2.047   3.495
 2149SOL    HW2 8626   4.256   2.135   3.458
 2149SOL    HW3 8627   4.351   2.017   3.467
 2149SOL    MW4 8628   4.275   2.055   3.486
 2150SOL     OW 8629   4.246   2.304   3.394
 2150SOL    HW2 8630   4.165   2.341   3.429
 2150SOL    HW3 8631   4.229   2.295   3.300
 2150SOL    MW4 8632   4.233   2.308   3.386
 2151SOL     OW 8633   4.013   2.431   3.477
 2151SOL    HW2 8634   4.023   2.444   3.572
 2151SOL    HW3 8635   4.028   2.517   3.439
 2151SOL    MW4 8636   4.017   2.444   3.485
 2152SOL     OW 8637   4.046   2.709   3.422
 2152SOL    HW2 8638   4.124   2.754   3.456
 2152SOL    HW3 8639   3.973   2.748   3.472
 2152SOL    MW4 8640   4.046   2.720   3.433
 2153SOL     OW 8641   4.270   2.841   3.500
 2153SOL    HW2 8642   4.273   2.832   3.596
 2153SOL    HW3 8643   4.337   2.780   3.469
 2153SOL    MW4 8644   4.279   2.832   3.509
 2154SOL     OW 8645   4.254   3.112   3.409
 2154SOL    HW2 8646   4.255   3.020   3.434
 2154SOL    HW3 8647   4.258   3.111   3.313
 2154SOL    MW4 8648   4.255   3.100   3.400
 2155SOL     OW 8649   4.001   3.208   3.549
 2155SOL    HW2 8650   4.013   3.297   3.517
 2155SOL    HW3 8651   4.077   3.160   3.515
 2155SOL    MW4 8652   4.013   3.214   3.540
 2156SOL     OW 8653   4.020   3.493   3.424
 2156SOL    HW2 8654   4.104   3.509   3.466
 2156SOL    HW3 8655   3.955   3.532   3.483
 2156SOL    MW4 8656   4.023   3.500   3.437
 2157SOL     OW 8657   4.251   3.585   3.531
 2157SOL    HW2 8658   4.233   3.595   3.624
 2157SOL    HW3 8659   4.251   3.675   3.497
 2157SOL    MW4 8660   4.249   3.598   3.539
 2158SOL     OW 8661   4.284   3.842   3.419
 2158SOL    HW2 8662   4.364   3.883   3.451
 2158SOL    HW3 8663   4.292   3.846   3.323
 2158SOL    MW4 8664   4.296   3.848   3.410
 2159SOL     OW 8665   4.032   3.995   3.523
 2159SOL    HW2 8666   4.102   3.940   3.488
 2159SOL    HW3 8667   3.952   3.959   3.486
 2159SOL    MW4 8668   4.031   3.983   3.513
 2160SOL     OW 8669   4.027   4.258   3.363
 2160SOL    HW2 8670   4.035   4.189   3.428
 2160SOL    HW3 8671   3.952   4.310   3.391
 2160SOL    MW4 8672   4.018   4.256   3.375
 2161SOL     OW 8673   4.239   4.387   3.487
 2161SOL    HW2 8674   4.214   4.388   3.580
 2161SOL    HW3 8675   4.164   4.347   3.443
 2161SOL    MW4 8676   4.226   4.382   3.493
 2162SOL     OW 8677   0.197   0.016   3.839
 2162SOL    HW2 8678   0.209   0.014   3.934
 2162SOL    HW3 8679   0.112   0.059   3.827
 2162SOL    MW4 8680   0.188   0.022   3.850
 2163SOL     OW 8681   4.447   0.139   3.757
 2163SOL    HW2 8682   4.466   0.225   3.793
 2163SOL    HW3 8683   4.465   0.147   3.663
 2163SOL    MW4 8684   4.452   0.151   3.750
 2164SOL     OW 8685   4.470   0.381   3.888
 2164SOL    HW2 8686   4.401   0.430   3.844
 2164SOL    HW3 8687   4.551   0.430   3.869
 2164SOL    MW4 8688   4.472   0.394   3.880
 2165SOL     OW 8689   0.219   0.510   3.804
 2165SOL    HW2 8690   0.211   0.599   3.838
 2165SOL    HW3 8691   0.206   0.520   3.709
 2165SOL    MW4 8692   0.216   0.523   3.796
 2166SOL     OW 8693   0.217   0.780   3.898
 2166SOL    HW2 8694   0.219   0.803   3.991
 2166SOL    HW3 8695   0.144   0.831   3.863
 2166SOL    MW4 8696   0.208   0.790   3.906
 2167SOL     OW 8697   4.483   0.905   3.792
 2167SOL    HW2 8698   4.415   0.853   3.834
 2167SOL    HW3 8699   4.476   0.992   3.833
 2167SOL    MW4 8700   4.473   0.910   3.803
 2168SOL     OW 8701   0.017   1.152   3.908
 2168SOL    HW2 8702  -0.058   1.207   3.885
 2168SOL    HW3 8703   0.093   1.200   3.875
 2168SOL    MW4 8704   0.017   1.165   3.901
 2169SOL     OW 8705   0.254   1.265   3.791
 2169SOL    HW2 8706   0.256   1.353   3.829
 2169SOL    HW3 8707   0.218   1.277   3.703
 2169SOL    MW4 8708   0.249   1.278   3.785
 2170SOL     OW 8709   0.248   1.527   3.886
 2170SOL    HW2 8710   0.251   1.513   3.980
 2170SOL    HW3 8711   0.156   1.545   3.867
 2170SOL    MW4 8712   0.237   1.528   3.896
 2171SOL     OW 8713   0.009   1.668   3.791
 2171SOL    HW2 8714   0.018   1.753   3.834
 2171SOL    HW3 8715   0.031   1.685   3.700
 2171SOL    MW4 8716   0.013   1.682   3.785
 2172SOL     OW 8717   0.018   1.938   3.889
 2172SOL    HW2 8718  -0.014   1.923   3.978
 2172SOL    HW3 8719  -0.059   1.969   3.841
 2172SOL    MW4 8720   0.003   1.940   3.894
 2173SOL     OW 8721   0.242   2.088   3.814
 2173SOL    HW2 8722   0.229   2.180   3.836
 2173SOL    HW3 8723   0.167   2.043   3.852
 2173SOL    MW4 8724   0.231   2.094   3.822
 2174SOL     OW 8725   0.215   2.341   3.919
 2174SOL    HW2 8726   0.204   2.315   4.011
 2174SOL    HW3 8727   0.126   2.361   3.890
 2174SOL    MW4 8728   0.201   2.340   3.928
 2175SOL     OW 8729   4.461   2.402   3.804
 2175SOL    HW2 8730   4.375   2.366   3.825
 2175SOL    HW3 8731   4.457   2.493   3.835
 2175SOL    MW4 8732   4.449   2.409   3.811
 2176SOL     OW 8733   4.467   2.679   3.872
 2176SOL    HW2 8734   4.460   2.672   3.967
 2176SOL    HW3 8735   4.550   2.727   3.857
 2176SOL    MW4 8736   4.477   2.684   3.882
 2177SOL     OW 8737   0.224   2.825   3.820
 2177SOL    HW2 8738   0.306   2.787   3.851
 2177SOL    HW3 8739   0.228   2.817   3.725
 2177SOL    MW4 8740   0.236   2.819   3.812
 2178SOL     OW 8741   0.173   3.082   3.918
 2178SOL    HW2 8742   0.163   3.077   4.013
 2178SOL    HW3 8743   0.198   2.994   3.891
 2178SOL    MW4 8744   0.175   3.070   3.927
 2179SOL     OW 8745   0.010   3.248   3.774
 2179SOL    HW2 8746   0.077   3.194   3.815
 2179SOL    HW3 8747   0.023   3.234   3.680
 2179SOL    MW4 8748   0.021   3.239   3.767
 2180SOL     OW 8749   4.445   3.501   3.906
 2180SOL    HW2 8750   4.505   3.558   3.858
 2180SOL    HW3 8751   4.473   3.412   3.884
 2180SOL    MW4 8752   4.456   3.497   3.897
 2181SOL     OW 8753   0.169   3.640   3.774
 2181SOL    HW2 8754   0.236   3.581   3.807
 2181SOL    HW3 8755   0.178   3.719   3.827
 2181SOL    MW4 8756   0.179   3.643   3.785
 2182SOL     OW 8757   0.179   3.895   3.903
 2182SOL    HW2 8758   0.198   3.884   3.996
 2182SOL    HW3 8759   0.255   3.941   3.868
 2182SOL    MW4 8760   0.192   3.900   3.910
 2183SOL     OW 8761   4.457   4.009   3.765
 2183SOL    HW2 8762   4.376   3.975   3.802
 2183SOL    HW3 8763   4.526   3.956   3.806
 2183SOL    MW4 8764   4.456   3.997   3.775
 2184SOL     OW 8765   4.412   4.280   3.857
 2184SOL    HW2 8766   4.492   4.326   3.830
 2184SOL    HW3 8767   4.424   4.190   3.827
 2184SOL    MW4 8768   4.424   4.274   3.850
 2185SOL     OW 8769   0.178   4.417   3.766
 2185SOL    HW2 8770   0.258   4.386   3.809
 2185SOL    HW3 8771   0.179   4.511   3.778
 2185SOL    MW4 8772   0.189   4.425   3.773
 2186SOL     OW 8773   0.633   0.002   3.872
 2186SOL    HW2 8774   0.619  -0.087   3.839
 2186SOL    HW3 8775   0.559   0.052   3.837
 2186SOL    MW4 8776   0.622  -0.004   3.863
 2187SOL     OW 8777   0.417   0.138   3.748
 2187SOL    HW2 8778   0.426   0.226   3.785
 2187SOL    HW3 8779   0.336   0.104   3.786
 2187SOL    MW4 8780   0.408   0.145   3.758
 2188SOL     OW 8781   0.434   0.371   3.859
 2188SOL    HW2 8782   0.505   0.418   3.815
 2188SOL    HW3 8783   0.354   0.416   3.832
 2188SOL    MW4 8784   0.433   0.383   3.850
 2189SOL     OW 8785   0.670   0.522   3.768
 2189SOL    HW2 8786   0.751   0.478   3.795
 2189SOL    HW3 8787   0.676   0.609   3.806
 2189SOL    MW4 8788   0.682   0.527   3.777
 2190SOL     OW 8789   0.668   0.762   3.927
 2190SOL    HW2 8790   0.735   0.814   3.883
 2190SOL    HW3 8791   0.585   0.790   3.887
 2190SOL    MW4 8792   0.666   0.773   3.916
 2191SOL     OW 8793   0.458   0.862   3.787
 2191SOL    HW2 8794   0.476   0.952   3.813
 2191SOL    HW3 8795   0.382   0.836   3.839
 2191SOL    MW4 8796   0.450   0.870   3.797
 2192SOL     OW 8797   0.470   1.129   3.881
 2192SOL    HW2 8798   0.546   1.186   3.866
 2192SOL    HW3 8799   0.398   1.173   3.835
 2192SOL    MW4 8800   0.470   1.143   3.873
 2193SOL     OW 8801   0.696   1.267   3.788
 2193SOL    HW2 8802   0.774   1.225   3.826
 2193SOL    HW3 8803   0.705   1.251   3.694
 2193SOL    MW4 8804   0.708   1.259   3.780
 2194SOL     OW 8805   0.668   1.520   3.913
 2194SOL    HW2 8806   0.748   1.570   3.901
 2194SOL    HW3 8807   0.684   1.437   3.869
 2194SOL    MW4 8808   0.680   1.516   3.906
 2195SOL     OW 8809   0.453   1.677   3.810
 2195SOL    HW2 8810   0.526   1.622   3.838
 2195SOL    HW3 8811   0.375   1.629   3.837
 2195SOL    MW4 8812   0.452   1.663   3.817
 2196SOL     OW 8813   0.446   1.938   3.910
 2196SOL    HW2 8814   0.444   1.856   3.861
 2196SOL    HW3 8815   0.378   1.992   3.869
 2196SOL    MW4 8816   0.436   1.934   3.898
 2197SOL     OW 8817   0.681   2.056   3.803
 2197SOL    HW2 8818   0.667   2.150   3.818
 2197SOL    HW3 8819   0.605   2.014   3.842
 2197SOL    MW4 8820   0.669   2.063   3.810
 2198SOL     OW 8821   0.679   2.335   3.852
 2198SOL    HW2 8822   0.749   2.399   3.837
 2198SOL    HW3 8823   0.599   2.380   3.823
 2198SOL    MW4 8824   0.677   2.350   3.846
 2199SOL     OW 8825   0.431   2.446   3.778
 2199SOL    HW2 8826   0.362   2.432   3.842
 2199SOL    HW3 8827   0.397   2.411   3.697
 2199SOL    MW4 8828   0.418   2.440   3.776
 2200SOL     OW 8829   0.455   2.703   3.872
 2200SOL    HW2 8830   0.517   2.751   3.817
 2200SOL    HW3 8831   0.440   2.621   3.826
 2200SOL    MW4 8832   0.461   2.698   3.859
 2201SOL     OW 8833   0.640   2.860   3.750
 2201SOL    HW2 8834   0.715   2.824   3.797
 2201SOL    HW3 8835   0.671   2.873   3.660
 2201SOL    MW4 8836   0.654   2.857   3.744
 2202SOL     OW 8837   0.628   3.126   3.854
 2202SOL    HW2 8838   0.634   3.107   3.948
 2202SOL    HW3 8839   0.623   3.040   3.813
 2202SOL    MW4 8840   0.628   3.112   3.861
 2203SOL     OW 8841   0.380   3.233   3.803
 2203SOL    HW2 8842   0.471   3.204   3.815
 2203SOL    HW3 8843   0.328   3.169   3.851
 2203SOL    MW4 8844   0.386   3.221   3.811
 2204SOL     OW 8845   0.378   3.498   3.886
 2204SOL    HW2 8846   0.463   3.538   3.867
 2204SOL    HW3 8847   0.382   3.412   3.844
 2204SOL    MW4 8848   0.390   3.492   3.878
 2205SOL     OW 8849   0.633   3.618   3.801
 2205SOL    HW2 8850   0.615   3.710   3.818
 2205SOL    HW3 8851   0.636   3.611   3.705
 2205SOL    MW4 8852   0.631   3.629   3.791
 2206SOL     OW 8853   0.633   3.895   3.841
 2206SOL    HW2 8854   0.658   3.878   3.932
 2206SOL    HW3 8855   0.693   3.964   3.812
 2206SOL    MW4 8856   0.644   3.902   3.849
 2207SOL     OW 8857   0.383   4.030   3.766
 2207SOL    HW2 8858   0.469   3.994   3.787
 2207SOL    HW3 8859   0.374   4.017   3.671
 2207SOL    MW4 8860   0.393   4.024   3.756
 2208SOL     OW 8861   0.394   4.290   3.891
 2208SOL    HW2 8862   0.467   4.327   3.841
 2208SOL    HW3 8863   0.377   4.206   3.849
 2208SOL    MW4 8864   0.401   4.284   3.879
 2209SOL     OW 8865   0.637   4.403   3.766
 2209SOL    HW2 8866   0.716   4.371   3.809
 2209SOL    HW3 8867   0.650   4.383   3.673
 2209SOL    MW4 8868   0.649   4.396   3.759
 2210SOL     OW 8869   1.070   0.022   3.854
 2210SOL    HW2 8870   1.150   0.068   3.829
 2210SOL    HW3 8871   1.079  -0.065   3.815
 2210SOL    MW4 8872   1.082   0.017   3.845
 2211SOL     OW 8873   0.842   0.141   3.761
 2211SOL    HW2 8874   0.919   0.091   3.787
 2211SOL    HW3 8875   0.769   0.094   3.801
 2211SOL    MW4 8876   0.842   0.128   3.769
 2212SOL     OW 8877   0.884   0.379   3.876
 2212SOL    HW2 8878   0.874   0.375   3.971
 2212SOL    HW3 8879   0.867   0.290   3.846
 2212SOL    MW4 8880   0.880   0.367   3.885
 2213SOL     OW 8881   1.108   0.523   3.757
 2213SOL    HW2 8882   1.187   0.474   3.782
 2213SOL    HW3 8883   1.036   0.469   3.789
 2213SOL    MW4 8884   1.109   0.509   3.765
 2214SOL     OW 8885   1.127   0.770   3.872
 2214SOL    HW2 8886   1.107   0.766   3.965
 2214SOL    HW3 8887   1.124   0.678   3.843
 2214SOL    MW4 8888   1.124   0.757   3.880
 2215SOL     OW 8889   0.895   0.887   3.767
 2215SOL    HW2 8890   0.969   0.833   3.795
 2215SOL    HW3 8891   0.894   0.880   3.672
 2215SOL    MW4 8892   0.905   0.879   3.758
 2216SOL     OW 8893   0.906   1.126   3.904
 2216SOL    HW2 8894   0.900   1.099   3.996
 2216SOL    HW3 8895   0.922   1.044   3.857
 2216SOL    MW4 8896   0.907   1.111   3.910
 2217SOL     OW 8897   1.110   1.271   3.790
 2217SOL    HW2 8898   1.107   1.359   3.827
 2217SOL    HW3 8899   1.047   1.221   3.843
 2217SOL    MW4 8900   1.101   1.276   3.802
 2218SOL     OW 8901   1.123   1.522   3.902
 2218SOL    HW2 8902   1.136   1.509   3.996
 2218SOL    HW3 8903   1.205   1.560   3.872
 2218SOL    MW4 8904   1.135   1.525   3.911
 2219SOL     OW 8905   0.885   1.667   3.836
 2219SOL    HW2 8906   0.955   1.608   3.866
 2219SOL    HW3 8907   0.892   1.665   3.740
 2219SOL    MW4 8908   0.895   1.659   3.827
 2220SOL     OW 8909   0.876   1.930   3.946
 2220SOL    HW2 8910   0.873   1.849   3.896
 2220SOL    HW3 8911   0.810   1.986   3.905
 2220SOL    MW4 8912   0.867   1.927   3.934
 2221SOL     OW 8913   1.135   2.041   3.851
 2221SOL    HW2 8914   1.051   2.012   3.887
 2221SOL    HW3 8915   1.130   2.020   3.758
 2221SOL    MW4 8916   1.124   2.034   3.844
 2222SOL     OW 8917   1.052   2.293   3.886
 2222SOL    HW2 8918   1.048   2.275   3.980
 2222SOL    HW3 8919   1.081   2.211   3.847
 2222SOL    MW4 8920   1.055   2.280   3.893
 2223SOL     OW 8921   0.895   2.486   3.737
 2223SOL    HW2 8922   0.885   2.574   3.772
 2223SOL    HW3 8923   0.963   2.446   3.791
 2223SOL    MW4 8924   0.903   2.492   3.749
 2224SOL     OW 8925   0.884   2.744   3.853
 2224SOL    HW2 8926   0.892   2.750   3.948
 2224SOL    HW3 8927   0.956   2.798   3.820
 2224SOL    MW4 8928   0.895   2.752   3.861
 2225SOL     OW 8929   1.112   2.884   3.769
 2225SOL    HW2 8930   1.189   2.841   3.805
 2225SOL    HW3 8931   1.113   2.971   3.809
 2225SOL    MW4 8932   1.122   2.890   3.779
 2226SOL     OW 8933   1.062   3.124   3.899
 2226SOL    HW2 8934   1.136   3.182   3.882
 2226SOL    HW3 8935   0.987   3.166   3.857
 2226SOL    MW4 8936   1.062   3.137   3.891
 2227SOL     OW 8937   0.860   3.248   3.771
 2227SOL    HW2 8938   0.783   3.205   3.807
 2227SOL    HW3 8939   0.856   3.231   3.677
 2227SOL    MW4 8940   0.849   3.240   3.764
 2228SOL     OW 8941   0.888   3.504   3.862
 2228SOL    HW2 8942   0.881   3.412   3.838
 2228SOL    HW3 8943   0.798   3.536   3.856
 2228SOL    MW4 8944   0.875   3.496   3.858
 2229SOL     OW 8945   1.118   3.666   3.773
 2229SOL    HW2 8946   1.114   3.760   3.790
 2229SOL    HW3 8947   1.033   3.633   3.801
 2229SOL    MW4 8948   1.106   3.674   3.779
 2230SOL     OW 8949   1.073   3.914   3.827
 2230SOL    HW2 8950   1.073   3.913   3.922
 2230SOL    HW3 8951   1.153   3.960   3.803
 2230SOL    MW4 8952   1.083   3.920   3.836
 2231SOL     OW 8953   0.846   4.060   3.760
 2231SOL    HW2 8954   0.903   3.989   3.788
 2231SOL    HW3 8955   0.824   4.039   3.669
 2231SOL    MW4 8956   0.850   4.048   3.751
 2232SOL     OW 8957   0.892   4.324   3.851
 2232SOL    HW2 8958   0.886   4.312   3.946
 2232SOL    HW3 8959   0.893   4.235   3.817
 2232SOL    MW4 8960   0.891   4.310   3.859
 2233SOL     OW 8961   1.128   4.438   3.759
 2233SOL    HW2 8962   1.051   4.403   3.804
 2233SOL    HW3 8963   1.105   4.435   3.666
 2233SOL    MW4 8964   1.115   4.433   3.753
 2234SOL     OW 8965   1.507   4.644   3.884
 2234SOL    HW2 8966   1.513   4.645   3.980
 2234SOL    HW3 8967   1.545   4.560   3.859
 2234SOL    MW4 8968   1.512   4.633   3.893
 2235SOL     OW 8969   1.293   0.143   3.760
 2235SOL    HW2 8970   1.316   0.221   3.811
 2235SOL    HW3 8971   1.358   0.077   3.786
 2235SOL    MW4 8972   1.305   0.145   3.770
 2236SOL     OW 8973   1.319   0.389   3.881
 2236SOL    HW2 8974   1.291   0.397   3.972
 2236SOL    HW3 8975   1.408   0.423   3.879
 2236SOL    MW4 8976   1.327   0.395   3.893
 2237SOL     OW 8977   1.559   0.502   3.774
 2237SOL    HW2 8978   1.633   0.452   3.809
 2237SOL    HW3 8979   1.565   0.587   3.818
 2237SOL    MW4 8980   1.570   0.507   3.784
 2238SOL     OW 8981   1.552   0.748   3.903
 2238SOL    HW2 8982   1.625   0.804   3.877
 2238SOL    HW3 8983   1.474   0.795   3.872
 2238SOL    MW4 8984   1.551   0.762   3.895
 2239SOL     OW 8985   1.358   0.891   3.785
 2239SOL    HW2 8986   1.344   0.982   3.810
 2239SOL    HW3 8987   1.274   0.848   3.804
 2239SOL    MW4 8988   1.345   0.898   3.791
 2240SOL     OW 8989   1.342   1.146   3.866
 2240SOL    HW2 8990   1.417   1.195   3.834
 2240SOL    HW3 8991   1.266   1.202   3.847
 2240SOL    MW4 8992   1.342   1.160   3.860
 2241SOL     OW 8993   1.604   1.267   3.798
 2241SOL    HW2 8994   1.683   1.227   3.835
 2241SOL    HW3 8995   1.599   1.353   3.840
 2241SOL    MW4 8996   1.613   1.273   3.808
 2242SOL     OW 8997   1.587   1.513   3.924
 2242SOL    HW2 8998   1.575   1.526   4.018
 2242SOL    HW3 8999   1.669   1.558   3.904
 2242SOL    MW4 9000   1.596   1.521   3.934
 2243SOL     OW 9001   1.373   1.641   3.798
 2243SOL    HW2 9002   1.380   1.733   3.821
 2243SOL    HW3 9003   1.437   1.597   3.853
 2243SOL    MW4 9004   1.382   1.647   3.808
 2244SOL     OW 9005   1.389   1.907   3.888
 2244SOL    HW2 9006   1.388   1.895   3.983
 2244SOL    HW3 9007   1.304   1.945   3.867
 2244SOL    MW4 9008   1.378   1.911   3.898
 2245SOL     OW 9009   1.603   2.058   3.803
 2245SOL    HW2 9010   1.537   2.002   3.843
 2245SOL    HW3 9011   1.573   2.069   3.712
 2245SOL    MW4 9012   1.590   2.052   3.796
 2246SOL     OW 9013   1.551   2.318   3.889
 2246SOL    HW2 9014   1.623   2.372   3.857
 2246SOL    HW3 9015   1.576   2.228   3.866
 2246SOL    MW4 9016   1.564   2.313   3.882
 2247SOL     OW 9017   1.290   2.421   3.798
 2247SOL    HW2 9018   1.362   2.369   3.832
 2247SOL    HW3 9019   1.211   2.377   3.830
 2247SOL    MW4 9020   1.289   2.409   3.807
 2248SOL     OW 9021   1.318   2.724   3.875
 2248SOL    HW2 9022   1.339   2.727   3.968
 2248SOL    HW3 9023   1.325   2.632   3.851
 2248SOL    MW4 9024   1.322   2.712   3.884
 2249SOL     OW 9025   1.595   2.864   3.837
 2249SOL    HW2 9026   1.511   2.834   3.871
 2249SOL    HW3 9027   1.582   2.870   3.743
 2249SOL    MW4 9028   1.582   2.861   3.829
 2250SOL     OW 9029   1.548   3.151   3.926
 2250SOL    HW2 9030   1.547   3.156   4.021
 2250SOL    HW3 9031   1.560   3.058   3.906
 2250SOL    MW4 9032   1.550   3.140   3.936
 2251SOL     OW 9033   1.295   3.259   3.836
 2251SOL    HW2 9034   1.289   3.355   3.843
 2251SOL    HW3 9035   1.375   3.236   3.882
 2251SOL    MW4 9036   1.304   3.269   3.843
 2252SOL     OW 9037   1.324   3.525   3.918
 2252SOL    HW2 9038   1.402   3.571   3.888
 2252SOL    HW3 9039   1.252   3.570   3.874
 2252SOL    MW4 9040   1.325   3.537   3.909
 2253SOL     OW 9041   1.552   3.593   3.769
 2253SOL    HW2 9042   1.637   3.560   3.799
 2253SOL    HW3 9043   1.551   3.684   3.797
 2253SOL    MW4 9044   1.563   3.600   3.777
 2254SOL     OW 9045   1.528   3.849   3.891
 2254SOL    HW2 9046   1.526   3.849   3.987
 2254SOL    HW3 9047   1.457   3.909   3.866
 2254SOL    MW4 9048   1.518   3.857   3.900
 2255SOL     OW 9049   1.331   4.011   3.788
 2255SOL    HW2 9050   1.333   4.102   3.817
 2255SOL    HW3 9051   1.344   4.016   3.693
 2255SOL    MW4 9052   1.333   4.024   3.779
 2256SOL     OW 9053   1.334   4.278   3.879
 2256SOL    HW2 9054   1.418   4.304   3.842
 2256SOL    HW3 9055   1.271   4.337   3.838
 2256SOL    MW4 9056   1.337   4.289   3.869
 2257SOL     OW 9057   1.558   4.388   3.774
 2257SOL    HW2 9058   1.629   4.328   3.794
 2257SOL    HW3 9059   1.563   4.401   3.679
 2257SOL    MW4 9060   1.568   4.382   3.764
 2258SOL     OW 9061   1.960   4.637   3.869
 2258SOL    HW2 9062   2.032   4.686   3.830
 2258SOL    HW3 9063   1.979   4.546   3.850
 2258SOL    MW4 9064   1.972   4.632   3.861
 2259SOL     OW 9065   1.729   0.080   3.749
 2259SOL    HW2 9066   1.796   0.021   3.783
 2259SOL    HW3 9067   1.648   0.050   3.791
 2259SOL    MW4 9068   1.727   0.068   3.759
 2260SOL     OW 9069   1.771   0.333   3.842
 2260SOL    HW2 9070   1.778   0.309   3.934
 2260SOL    HW3 9071   1.756   0.250   3.797
 2260SOL    MW4 9072   1.770   0.319   3.848
 2261SOL     OW 9073   2.028   0.430   3.810
 2261SOL    HW2 9074   1.939   0.407   3.837
 2261SOL    HW3 9075   2.025   0.429   3.715
 2261SOL    MW4 9076   2.016   0.427   3.801
 2262SOL     OW 9077   2.010   0.690   3.855
 2262SOL    HW2 9078   1.999   0.696   3.950
 2262SOL    HW3 9079   2.010   0.596   3.836
 2262SOL    MW4 9080   2.009   0.678   3.865
 2263SOL     OW 9081   1.802   0.854   3.809
 2263SOL    HW2 9082   1.867   0.787   3.828
 2263SOL    HW3 9083   1.804   0.864   3.714
 2263SOL    MW4 9084   1.811   0.847   3.799
 2264SOL     OW 9085   1.832   1.122   3.897
 2264SOL    HW2 9086   1.822   1.121   3.992
 2264SOL    HW3 9087   1.818   1.031   3.870
 2264SOL    MW4 9088   1.829   1.109   3.906
 2265SOL     OW 9089   2.058   1.270   3.782
 2265SOL    HW2 9090   2.127   1.207   3.805
 2265SOL    HW3 9091   1.979   1.235   3.822
 2265SOL    MW4 9092   2.057   1.257   3.790
 2266SOL     OW 9093   2.044   1.525   3.909
 2266SOL    HW2 9094   1.962   1.554   3.871
 2266SOL    HW3 9095   2.053   1.434   3.880
 2266SOL    MW4 9096   2.034   1.516   3.900
 2267SOL     OW 9097   1.812   1.610   3.794
 2267SOL    HW2 9098   1.822   1.703   3.814
 2267SOL    HW3 9099   1.824   1.604   3.699
 2267SOL    MW4 9100   1.815   1.621   3.784
 2268SOL     OW 9101   1.813   1.873   3.896
 2268SOL    HW2 9102   1.819   1.879   3.991
 2268SOL    HW3 9103   1.742   1.933   3.872
 2268SOL    MW4 9104   1.804   1.882   3.905
 2269SOL     OW 9105   1.999   2.069   3.785
 2269SOL    HW2 9106   1.934   2.021   3.835
 2269SOL    HW3 9107   1.996   2.030   3.697
 2269SOL    MW4 9108   1.990   2.058   3.780
 2270SOL     OW 9109   1.989   2.335   3.851
 2270SOL    HW2 9110   1.912   2.373   3.809
 2270SOL    HW3 9111   1.991   2.245   3.821
 2270SOL    MW4 9112   1.979   2.328   3.842
 2271SOL     OW 9113   1.762   2.429   3.762
 2271SOL    HW2 9114   1.753   2.518   3.796
 2271SOL    HW3 9115   1.790   2.440   3.671
 2271SOL    MW4 9116   1.765   2.442   3.755
 2272SOL     OW 9117   1.784   2.685   3.868
 2272SOL    HW2 9118   1.796   2.673   3.962
 2272SOL    HW3 9119   1.713   2.748   3.860
 2272SOL    MW4 9120   1.776   2.692   3.879
 2273SOL     OW 9121   2.008   2.855   3.813
 2273SOL    HW2 9122   2.084   2.798   3.832
 2273SOL    HW3 9123   1.933   2.805   3.844
 2273SOL    MW4 9124   2.008   2.841   3.820
 2274SOL     OW 9125   2.002   3.105   3.903
 2274SOL    HW2 9126   1.989   3.017   3.868
 2274SOL    HW3 9127   2.078   3.138   3.854
 2274SOL    MW4 9128   2.011   3.098   3.892
 2275SOL     OW 9129   1.786   3.256   3.811
 2275SOL    HW2 9130   1.847   3.198   3.857
 2275SOL    HW3 9131   1.701   3.237   3.850
 2275SOL    MW4 9132   1.783   3.246   3.822
 2276SOL     OW 9133   1.791   3.522   3.906
 2276SOL    HW2 9134   1.866   3.566   3.866
 2276SOL    HW3 9135   1.791   3.435   3.867
 2276SOL    MW4 9136   1.800   3.516   3.896
 2277SOL     OW 9137   2.008   3.642   3.783
 2277SOL    HW2 9138   2.079   3.583   3.806
 2277SOL    HW3 9139   2.010   3.644   3.687
 2277SOL    MW4 9140   2.017   3.634   3.773
 2278SOL     OW 9141   2.023   3.908   3.898
 2278SOL    HW2 9142   2.110   3.934   3.869
 2278SOL    HW3 9143   2.001   3.832   3.844
 2278SOL    MW4 9144   2.032   3.901   3.887
 2279SOL     OW 9145   1.776   3.971   3.803
 2279SOL    HW2 9146   1.843   3.939   3.863
 2279SOL    HW3 9147   1.698   3.920   3.825
 2279SOL    MW4 9148   1.774   3.960   3.814
 2280SOL     OW 9149   1.784   4.240   3.858
 2280SOL    HW2 9150   1.862   4.280   3.818
 2280SOL    HW3 9151   1.789   4.148   3.834
 2280SOL    MW4 9152   1.795   4.233   3.849
 2281SOL     OW 9153   2.030   4.400   3.780
 2281SOL    HW2 9154   2.110   4.360   3.815
 2281SOL    HW3 9155   2.040   4.395   3.685
 2281SOL    MW4 9156   2.042   4.394   3.772
 2282SOL     OW 9157   2.425   4.659   3.841
 2282SOL    HW2 9158   2.435   4.655   3.936
 2282SOL    HW3 9159   2.500   4.709   3.811
 2282SOL    MW4 9160   2.436   4.665   3.849
 2283SOL     OW 9161   2.187   0.075   3.734
 2283SOL    HW2 9162   2.272   0.049   3.770
 2283SOL    HW3 9163   2.203   0.086   3.641
 2283SOL    MW4 9164   2.200   0.073   3.727
 2284SOL     OW 9165   2.267   0.316   3.861
 2284SOL    HW2 9166   2.253   0.231   3.820
 2284SOL    HW3 9167   2.189   0.367   3.838
 2284SOL    MW4 9168   2.255   0.312   3.852
 2285SOL     OW 9169   2.445   0.483   3.772
 2285SOL    HW2 9170   2.392   0.412   3.808
 2285SOL    HW3 9171   2.439   0.472   3.677
 2285SOL    MW4 9172   2.437   0.472   3.764
 2286SOL     OW 9173   2.420   0.732   3.873
 2286SOL    HW2 9174   2.336   0.775   3.855
 2286SOL    HW3 9175   2.411   0.644   3.835
 2286SOL    MW4 9176   2.408   0.726   3.866
 2287SOL     OW 9177   2.220   0.876   3.760
 2287SOL    HW2 9178   2.141   0.823   3.770
 2287SOL    HW3 9179   2.231   0.886   3.665
 2287SOL    MW4 9180   2.211   0.871   3.749
 2288SOL     OW 9181   2.256   1.123   3.881
 2288SOL    HW2 9182   2.264   1.100   3.973
 2288SOL    HW3 9183   2.238   1.040   3.837
 2288SOL    MW4 9184   2.255   1.109   3.887
 2289SOL     OW 9185   2.460   1.243   3.751
 2289SOL    HW2 9186   2.467   1.333   3.784
 2289SOL    HW3 9187   2.389   1.204   3.802
 2289SOL    MW4 9188   2.452   1.250   3.762
 2290SOL     OW 9189   2.456   1.507   3.843
 2290SOL    HW2 9190   2.533   1.564   3.832
 2290SOL    HW3 9191   2.382   1.563   3.821
 2290SOL    MW4 9192   2.456   1.522   3.839
 2291SOL     OW 9193   2.241   1.671   3.768
 2291SOL    HW2 9194   2.251   1.762   3.796
 2291SOL    HW3 9195   2.164   1.639   3.815
 2291SOL    MW4 9196   2.232   1.679   3.778
 2292SOL     OW 9197   2.244   1.935   3.855
 2292SOL    HW2 9198   2.263   1.927   3.948
 2292SOL    HW3 9199   2.170   1.995   3.850
 2292SOL    MW4 9200   2.237   1.942   3.866
 2293SOL     OW 9201   2.473   2.066   3.774
 2293SOL    HW2 9202   2.472   2.135   3.840
 2293SOL    HW3 9203   2.389   2.020   3.785
 2293SOL    MW4 9204   2.462   2.069   3.784
 2294SOL     OW 9205   2.475   2.312   3.902
 2294SOL    HW2 9206   2.552   2.324   3.846
 2294SOL    HW3 9207   2.403   2.348   3.850
 2294SOL    MW4 9208   2.476   2.318   3.887
 2295SOL     OW 9209   2.235   2.429   3.806
 2295SOL    HW2 9210   2.143   2.417   3.830
 2295SOL    HW3 9211   2.234   2.430   3.710
 2295SOL    MW4 9212   2.223   2.428   3.797
 2296SOL     OW 9213   2.233   2.690   3.901
 2296SOL    HW2 9214   2.202   2.687   3.992
 2296SOL    HW3 9215   2.233   2.598   3.873
 2296SOL    MW4 9216   2.229   2.677   3.910
 2297SOL     OW 9217   2.480   2.789   3.804
 2297SOL    HW2 9218   2.396   2.755   3.835
 2297SOL    HW3 9219   2.476   2.779   3.709
 2297SOL    MW4 9220   2.469   2.783   3.795
 2298SOL     OW 9221   2.461   3.054   3.918
 2298SOL    HW2 9222   2.455   3.033   4.011
 2298SOL    HW3 9223   2.480   2.970   3.876
 2298SOL    MW4 9224   2.463   3.040   3.925
 2299SOL     OW 9225   2.236   3.193   3.770
 2299SOL    HW2 9226   2.230   3.287   3.786
 2299SOL    HW3 9227   2.324   3.169   3.800
 2299SOL    MW4 9228   2.247   3.202   3.776
 2300SOL     OW 9229   2.229   3.465   3.838
 2300SOL    HW2 9230   2.245   3.443   3.930
 2300SOL    HW3 9231   2.302   3.521   3.813
 2300SOL    MW4 9232   2.241   3.470   3.847
 2301SOL     OW 9233   2.428   3.634   3.757
 2301SOL    HW2 9234   2.500   3.596   3.807
 2301SOL    HW3 9235   2.456   3.624   3.665
 2301SOL    MW4 9236   2.441   3.628   3.751
 2302SOL     OW 9237   2.486   3.874   3.870
 2302SOL    HW2 9238   2.573   3.900   3.839
 2302SOL    HW3 9239   2.465   3.797   3.818
 2302SOL    MW4 9240   2.495   3.868   3.859
 2303SOL     OW 9241   2.256   4.016   3.776
 2303SOL    HW2 9242   2.343   3.979   3.786
 2303SOL    HW3 9243   2.237   4.009   3.683
 2303SOL    MW4 9244   2.265   4.010   3.765
 2304SOL     OW 9245   2.248   4.280   3.868
 2304SOL    HW2 9246   2.253   4.271   3.964
 2304SOL    HW3 9247   2.252   4.190   3.836
 2304SOL    MW4 9248   2.249   4.267   3.877
 2305SOL     OW 9249   2.461   4.401   3.768
 2305SOL    HW2 9250   2.388   4.356   3.810
 2305SOL    HW3 9251   2.449   4.493   3.792
 2305SOL    MW4 9252   2.450   4.407   3.777
 2306SOL     OW 9253   2.916   4.640   3.868
 2306SOL    HW2 9254   2.925   4.688   3.950
 2306SOL    HW3 9255   2.981   4.679   3.810
 2306SOL    MW4 9256   2.925   4.652   3.871
 2307SOL     OW 9257   2.673   0.118   3.792
 2307SOL    HW2 9258   2.723   0.039   3.811
 2307SOL    HW3 9259   2.676   0.126   3.697
 2307SOL    MW4 9260   2.680   0.109   3.782
 2308SOL     OW 9261   2.677   0.391   3.861
 2308SOL    HW2 9262   2.666   0.296   3.866
 2308SOL    HW3 9263   2.592   0.424   3.831
 2308SOL    MW4 9264   2.665   0.383   3.857
 2309SOL     OW 9265   2.901   0.525   3.748
 2309SOL    HW2 9266   2.977   0.481   3.787
 2309SOL    HW3 9267   2.825   0.476   3.780
 2309SOL    MW4 9268   2.901   0.513   3.758
 2310SOL     OW 9269   2.854   0.774   3.865
 2310SOL    HW2 9270   2.930   0.829   3.845
 2310SOL    HW3 9271   2.879   0.687   3.833
 2310SOL    MW4 9272   2.867   0.770   3.858
 2311SOL     OW 9273   2.616   0.870   3.770
 2311SOL    HW2 9274   2.695   0.827   3.802
 2311SOL    HW3 9275   2.545   0.812   3.796
 2311SOL    MW4 9276   2.617   0.857   3.778
 2312SOL     OW 9277   2.695   1.110   3.870
 2312SOL    HW2 9278   2.675   1.025   3.833
 2312SOL    HW3 9279   2.628   1.168   3.835
 2312SOL    MW4 9280   2.684   1.107   3.861
 2313SOL     OW 9281   2.908   1.262   3.765
 2313SOL    HW2 9282   2.888   1.332   3.827
 2313SOL    HW3 9283   2.847   1.192   3.788
 2313SOL    MW4 9284   2.897   1.262   3.776
 2314SOL     OW 9285   2.902   1.509   3.882
 2314SOL    HW2 9286   2.936   1.512   3.972
 2314SOL    HW3 9287   2.971   1.550   3.830
 2314SOL    MW4 9288   2.916   1.515   3.887
 2315SOL     OW 9289   2.686   1.663   3.803
 2315SOL    HW2 9290   2.765   1.613   3.824
 2315SOL    HW3 9291   2.688   1.670   3.707
 2315SOL    MW4 9292   2.696   1.657   3.793
 2316SOL     OW 9293   2.700   1.934   3.828
 2316SOL    HW2 9294   2.689   1.839   3.824
 2316SOL    HW3 9295   2.612   1.969   3.809
 2316SOL    MW4 9296   2.687   1.926   3.825
 2317SOL     OW 9297   2.942   2.067   3.786
 2317SOL    HW2 9298   2.929   2.160   3.803
 2317SOL    HW3 9299   2.859   2.026   3.810
 2317SOL    MW4 9300   2.929   2.074   3.791
 2318SOL     OW 9301   2.955   2.332   3.825
 2318SOL    HW2 9302   2.975   2.338   3.918
 2318SOL    HW3 9303   3.033   2.364   3.781
 2318SOL    MW4 9304   2.968   2.337   3.831
 2319SOL     OW 9305   2.708   2.412   3.748
 2319SOL    HW2 9306   2.711   2.488   3.807
 2319SOL    HW3 9307   2.793   2.370   3.759
 2319SOL    MW4 9308   2.719   2.417   3.758
 2320SOL     OW 9309   2.710   2.666   3.894
 2320SOL    HW2 9310   2.703   2.661   3.989
 2320SOL    HW3 9311   2.623   2.694   3.864
 2320SOL    MW4 9312   2.698   2.669   3.902
 2321SOL     OW 9313   2.907   2.846   3.804
 2321SOL    HW2 9314   2.900   2.926   3.856
 2321SOL    HW3 9315   2.835   2.791   3.836
 2321SOL    MW4 9316   2.896   2.849   3.815
 2322SOL     OW 9317   2.883   3.093   3.907
 2322SOL    HW2 9318   2.955   3.144   3.868
 2322SOL    HW3 9319   2.806   3.148   3.897
 2322SOL    MW4 9320   2.883   3.107   3.901
 2323SOL     OW 9321   2.653   3.242   3.852
 2323SOL    HW2 9322   2.635   3.333   3.877
 2323SOL    HW3 9323   2.595   3.190   3.907
 2323SOL    MW4 9324   2.643   3.247   3.863
 2324SOL     OW 9325   2.672   3.516   3.899
 2324SOL    HW2 9326   2.681   3.541   3.990
 2324SOL    HW3 9327   2.755   3.540   3.859
 2324SOL    MW4 9328   2.684   3.522   3.906
 2325SOL     OW 9329   2.892   3.648   3.776
 2325SOL    HW2 9330   2.969   3.602   3.810
 2325SOL    HW3 9331   2.897   3.637   3.681
 2325SOL    MW4 9332   2.903   3.640   3.768
 2326SOL     OW 9333   2.937   3.882   3.935
 2326SOL    HW2 9334   2.928   3.887   4.030
 2326SOL    HW3 9335   2.920   3.791   3.914
 2326SOL    MW4 9336   2.933   3.871   3.945
 2327SOL     OW 9337   2.730   4.020   3.794
 2327SOL    HW2 9338   2.715   4.106   3.833
 2327SOL    HW3 9339   2.815   3.993   3.828
 2327SOL    MW4 9340   2.739   4.028   3.804
 2328SOL     OW 9341   2.692   4.291   3.863
 2328SOL    HW2 9342   2.761   4.345   3.823
 2328SOL    HW3 9343   2.611   4.324   3.824
 2328SOL    MW4 9344   2.691   4.303   3.853
 2329SOL     OW 9345   2.935   4.384   3.761
 2329SOL    HW2 9346   3.014   4.338   3.790
 2329SOL    HW3 9347   2.940   4.470   3.804
 2329SOL    MW4 9348   2.946   4.390   3.771
 2330SOL     OW 9349   3.332   0.001   3.888
 2330SOL    HW2 9350   3.339  -0.019   3.982
 2330SOL    HW3 9351   3.419   0.030   3.863
 2330SOL    MW4 9352   3.344   0.002   3.897
 2331SOL     OW 9353   3.115   0.089   3.747
 2331SOL    HW2 9354   3.186   0.059   3.804
 2331SOL    HW3 9355   3.152   0.088   3.659
 2331SOL    MW4 9356   3.129   0.085   3.743
 2332SOL     OW 9357   3.118   0.356   3.814
 2332SOL    HW2 9358   3.124   0.353   3.910
 2332SOL    HW3 9359   3.123   0.264   3.787
 2332SOL    MW4 9360   3.120   0.344   3.823
 2333SOL     OW 9361   3.346   0.516   3.761
 2333SOL    HW2 9362   3.411   0.468   3.813
 2333SOL    HW3 9363   3.264   0.471   3.778
 2333SOL    MW4 9364   3.344   0.504   3.770
 2334SOL     OW 9365   3.354   0.782   3.860
 2334SOL    HW2 9366   3.358   0.785   3.956
 2334SOL    HW3 9367   3.351   0.688   3.840
 2334SOL    MW4 9368   3.354   0.770   3.870
 2335SOL     OW 9369   3.106   0.869   3.770
 2335SOL    HW2 9370   3.185   0.822   3.797
 2335SOL    HW3 9371   3.110   0.869   3.674
 2335SOL    MW4 9372   3.117   0.863   3.761
 2336SOL     OW 9373   3.146   1.129   3.857
 2336SOL    HW2 9374   3.133   1.040   3.825
 2336SOL    HW3 9375   3.070   1.177   3.825
 2336SOL    MW4 9376   3.134   1.123   3.849
 2337SOL     OW 9377   3.355   1.287   3.782
 2337SOL    HW2 9378   3.284   1.224   3.798
 2337SOL    HW3 9379   3.355   1.300   3.687
 2337SOL    MW4 9380   3.345   1.280   3.772
 2338SOL     OW 9381   3.395   1.552   3.858
 2338SOL    HW2 9382   3.307   1.584   3.837
 2338SOL    HW3 9383   3.385   1.457   3.863
 2338SOL    MW4 9384   3.382   1.543   3.856
 2339SOL     OW 9385   3.140   1.638   3.800
 2339SOL    HW2 9386   3.119   1.724   3.836
 2339SOL    HW3 9387   3.152   1.654   3.706
 2339SOL    MW4 9388   3.139   1.652   3.792
 2340SOL     OW 9389   3.159   1.903   3.901
 2340SOL    HW2 9390   3.150   1.927   3.993
 2340SOL    HW3 9391   3.087   1.948   3.857
 2340SOL    MW4 9392   3.148   1.912   3.907
 2341SOL     OW 9393   3.390   2.004   3.786
 2341SOL    HW2 9394   3.306   1.964   3.812
 2341SOL    HW3 9395   3.372   2.047   3.703
 2341SOL    MW4 9396   3.376   2.004   3.778
 2342SOL     OW 9397   3.404   2.264   3.912
 2342SOL    HW2 9398   3.350   2.323   3.858
 2342SOL    HW3 9399   3.403   2.181   3.865
 2342SOL    MW4 9400   3.396   2.261   3.899
 2343SOL     OW 9401   3.222   2.473   3.786
 2343SOL    HW2 9402   3.212   2.554   3.836
 2343SOL    HW3 9403   3.214   2.499   3.695
 2343SOL    MW4 9404   3.220   2.487   3.781
 2344SOL     OW 9405   3.150   2.734   3.893
 2344SOL    HW2 9406   3.157   2.761   3.985
 2344SOL    HW3 9407   3.066   2.769   3.865
 2344SOL    MW4 9408   3.140   2.742   3.902
 2345SOL     OW 9409   3.379   2.829   3.812
 2345SOL    HW2 9410   3.293   2.802   3.846
 2345SOL    HW3 9411   3.369   2.828   3.717
 2345SOL    MW4 9412   3.366   2.826   3.804
 2346SOL     OW 9413   3.357   3.094   3.901
 2346SOL    HW2 9414   3.442   3.135   3.883
 2346SOL    HW3 9415   3.366   3.005   3.869
 2346SOL    MW4 9416   3.369   3.088   3.895
 2347SOL     OW 9417   3.125   3.243   3.827
 2347SOL    HW2 9418   3.204   3.195   3.849
 2347SOL    HW3 9419   3.121   3.239   3.731
 2347SOL    MW4 9420   3.135   3.236   3.817
 2348SOL     OW 9421   3.099   3.491   3.908
 2348SOL    HW2 9422   3.180   3.533   3.879
 2348SOL    HW3 9423   3.108   3.400   3.881
 2348SOL    MW4 9424   3.111   3.485   3.900
 2349SOL     OW 9425   3.326   3.609   3.838
 2349SOL    HW2 9426   3.339   3.697   3.872
 2349SOL    HW3 9427   3.356   3.614   3.747
 2349SOL    MW4 9428   3.332   3.621   3.830
 2350SOL     OW 9429   3.299   3.887   3.906
 2350SOL    HW2 9430   3.381   3.923   3.872
 2350SOL    HW3 9431   3.231   3.930   3.854
 2350SOL    MW4 9432   3.300   3.898   3.895
 2351SOL     OW 9433   3.106   4.039   3.774
 2351SOL    HW2 9434   3.126   4.114   3.830
 2351SOL    HW3 9435   3.039   3.991   3.822
 2351SOL    MW4 9436   3.100   4.043   3.788
 2352SOL     OW 9437   3.157   4.278   3.917
 2352SOL    HW2 9438   3.151   4.288   4.012
 2352SOL    HW3 9439   3.223   4.342   3.890
 2352SOL    MW4 9440   3.165   4.287   3.926
 2353SOL     OW 9441   3.347   4.403   3.777
 2353SOL    HW2 9442   3.428   4.355   3.795
 2353SOL    HW3 9443   3.363   4.490   3.814
 2353SOL    MW4 9444   3.360   4.408   3.784
 2354SOL     OW 9445   3.806   0.010   3.871
 2354SOL    HW2 9446   3.884   0.040   3.823
 2354SOL    HW3 9447   3.778  -0.069   3.823
 2354SOL    MW4 9448   3.813   0.003   3.858
 2355SOL     OW 9449   3.573   0.100   3.808
 2355SOL    HW2 9450   3.662   0.096   3.841
 2355SOL    HW3 9451   3.583   0.105   3.713
 2355SOL    MW4 9452   3.586   0.101   3.800
 2356SOL     OW 9453   3.563   0.380   3.861
 2356SOL    HW2 9454   3.640   0.411   3.812
 2356SOL    HW3 9455   3.553   0.288   3.834
 2356SOL    MW4 9456   3.572   0.372   3.851
 2357SOL     OW 9457   3.803   0.514   3.785
 2357SOL    HW2 9458   3.867   0.478   3.847
 2357SOL    HW3 9459   3.794   0.606   3.811
 2357SOL    MW4 9460   3.811   0.521   3.797
 2358SOL     OW 9461   3.805   0.777   3.867
 2358SOL    HW2 9462   3.892   0.807   3.843
 2358SOL    HW3 9463   3.746   0.833   3.817
 2358SOL    MW4 9464   3.808   0.789   3.858
 2359SOL     OW 9465   3.583   0.878   3.742
 2359SOL    HW2 9466   3.586   0.968   3.777
 2359SOL    HW3 9467   3.502   0.842   3.778
 2359SOL    MW4 9468   3.572   0.885   3.752
 2360SOL     OW 9469   3.611   1.131   3.831
 2360SOL    HW2 9470   3.684   1.185   3.800
 2360SOL    HW3 9471   3.534   1.185   3.815
 2360SOL    MW4 9472   3.610   1.145   3.824
 2361SOL     OW 9473   3.841   1.285   3.738
 2361SOL    HW2 9474   3.920   1.241   3.771
 2361SOL    HW3 9475   3.823   1.353   3.803
 2361SOL    MW4 9476   3.849   1.288   3.751
 2362SOL     OW 9477   3.847   1.529   3.853
 2362SOL    HW2 9478   3.841   1.541   3.948
 2362SOL    HW3 9479   3.761   1.557   3.821
 2362SOL    MW4 9480   3.835   1.535   3.861
 2363SOL     OW 9481   3.617   1.628   3.732
 2363SOL    HW2 9482   3.532   1.595   3.760
 2363SOL    HW3 9483   3.618   1.616   3.637
 2363SOL    MW4 9484   3.606   1.622   3.723
 2364SOL     OW 9485   3.616   1.865   3.875
 2364SOL    HW2 9486   3.626   1.785   3.823
 2364SOL    HW3 9487   3.537   1.906   3.841
 2364SOL    MW4 9488   3.607   1.860   3.864
 2365SOL     OW 9489   3.801   2.073   3.808
 2365SOL    HW2 9490   3.883   2.024   3.821
 2365SOL    HW3 9491   3.732   2.011   3.833
 2365SOL    MW4 9492   3.803   2.058   3.813
 2366SOL     OW 9493   3.830   2.312   3.947
 2366SOL    HW2 9494   3.746   2.344   3.913
 2366SOL    HW3 9495   3.831   2.219   3.924
 2366SOL    MW4 9496   3.819   2.304   3.939
 2367SOL     OW 9497   3.600   2.454   3.833
 2367SOL    HW2 9498   3.538   2.393   3.874
 2367SOL    HW3 9499   3.587   2.441   3.739
 2367SOL    MW4 9500   3.590   2.444   3.826
 2368SOL     OW 9501   3.626   2.721   3.933
 2368SOL    HW2 9502   3.619   2.628   3.908
 2368SOL    HW3 9503   3.547   2.761   3.897
 2368SOL    MW4 9504   3.615   2.714   3.925
 2369SOL     OW 9505   3.838   2.829   3.802
 2369SOL    HW2 9506   3.912   2.769   3.812
 2369SOL    HW3 9507   3.773   2.799   3.865
 2369SOL    MW4 9508   3.839   2.817   3.812
 2370SOL     OW 9509   3.821   3.090   3.925
 2370SOL    HW2 9510   3.746   3.140   3.892
 2370SOL    HW3 9511   3.822   3.011   3.871
 2370SOL    MW4 9512   3.811   3.086   3.913
 2371SOL     OW 9513   3.592   3.210   3.824
 2371SOL    HW2 9514   3.562   3.295   3.858
 2371SOL    HW3 9515   3.588   3.219   3.729
 2371SOL    MW4 9516   3.588   3.222   3.816
 2372SOL     OW 9517   3.529   3.461   3.930
 2372SOL    HW2 9518   3.528   3.473   4.025
 2372SOL    HW3 9519   3.458   3.517   3.898
 2372SOL    MW4 9520   3.519   3.470   3.939
 2373SOL     OW 9521   3.768   3.583   3.839
 2373SOL    HW2 9522   3.760   3.675   3.865
 2373SOL    HW3 9523   3.690   3.542   3.876
 2373SOL    MW4 9524   3.757   3.590   3.847
 2374SOL     OW 9525   3.751   3.850   3.907
 2374SOL    HW2 9526   3.741   3.858   4.002
 2374SOL    HW3 9527   3.844   3.867   3.892
 2374SOL    MW4 9528   3.762   3.853   3.918
 2375SOL     OW 9529   3.532   3.989   3.787
 2375SOL    HW2 9530   3.542   4.081   3.810
 2375SOL    HW3 9531   3.609   3.946   3.825
 2375SOL    MW4 9532   3.544   3.995   3.795
 2376SOL     OW 9533   3.573   4.242   3.870
 2376SOL    HW2 9534   3.576   4.223   3.964
 2376SOL    HW3 9535   3.658   4.280   3.850
 2376SOL    MW4 9536   3.585   4.244   3.880
 2377SOL     OW 9537   3.779   4.414   3.793
 2377SOL    HW2 9538   3.858   4.373   3.828
 2377SOL    HW3 9539   3.793   4.417   3.698
 2377SOL    MW4 9540   3.791   4.409   3.785
 2378SOL     OW 9541   4.235   4.654   3.848
 2378SOL    HW2 9542   4.237   4.647   3.943
 2378SOL    HW3 9543   4.305   4.716   3.827
 2378SOL    MW4 9544   4.245   4.661   3.857
 2379SOL     OW 9545   4.010   0.136   3.762
 2379SOL    HW2 9546   4.081   0.085   3.803
 2379SOL    HW3 9547   4.036   0.143   3.670
 2379SOL    MW4 9548   4.023   0.130   3.755
 2380SOL     OW 9549   4.019   0.368   3.889
 2380SOL    HW2 9550   4.031   0.346   3.981
 2380SOL    HW3 9551   4.003   0.285   3.846
 2380SOL    MW4 9552   4.018   0.354   3.896
 2381SOL     OW 9553   4.241   0.519   3.814
 2381SOL    HW2 9554   4.164   0.464   3.831
 2381SOL    HW3 9555   4.236   0.539   3.720
 2381SOL    MW4 9556   4.230   0.514   3.804
 2382SOL     OW 9557   4.274   0.782   3.903
 2382SOL    HW2 9558   4.190   0.822   3.880
 2382SOL    HW3 9559   4.263   0.689   3.883
 2382SOL    MW4 9560   4.261   0.775   3.897
 2383SOL     OW 9561   4.034   0.896   3.794
 2383SOL    HW2 9562   4.013   0.980   3.835
 2383SOL    HW3 9563   4.049   0.917   3.702
 2383SOL    MW4 9564   4.033   0.910   3.787
 2384SOL     OW 9565   4.059   1.165   3.882
 2384SOL    HW2 9566   4.047   1.152   3.976
 2384SOL    HW3 9567   4.150   1.195   3.873
 2384SOL    MW4 9568   4.070   1.167   3.893
 2385SOL     OW 9569   4.292   1.277   3.806
 2385SOL    HW2 9570   4.287   1.370   3.829
 2385SOL    HW3 9571   4.280   1.276   3.711
 2385SOL    MW4 9572   4.290   1.290   3.797
 2386SOL     OW 9573   4.272   1.533   3.871
 2386SOL    HW2 9574   4.197   1.575   3.828
 2386SOL    HW3 9575   4.348   1.581   3.840
 2386SOL    MW4 9576   4.272   1.545   3.861
 2387SOL     OW 9577   4.060   1.684   3.771
 2387SOL    HW2 9578   4.045   1.772   3.806
 2387SOL    HW3 9579   3.982   1.635   3.799
 2387SOL    MW4 9580   4.047   1.689   3.780
 2388SOL     OW 9581   4.026   1.949   3.867
 2388SOL    HW2 9582   4.024   1.941   3.963
 2388SOL    HW3 9583   4.115   1.976   3.847
 2388SOL    MW4 9584   4.037   1.952   3.877
 2389SOL     OW 9585   4.273   2.042   3.770
 2389SOL    HW2 9586   4.250   2.133   3.789
 2389SOL    HW3 9587   4.281   2.039   3.674
 2389SOL    MW4 9588   4.271   2.054   3.760
 2390SOL     OW 9589   4.212   2.302   3.872
 2390SOL    HW2 9590   4.231   2.308   3.965
 2390SOL    HW3 9591   4.140   2.363   3.857
 2390SOL    MW4 9592   4.205   2.311   3.882
 2391SOL     OW 9593   4.006   2.430   3.765
 2391SOL    HW2 9594   4.016   2.512   3.813
 2391SOL    HW3 9595   3.934   2.385   3.809
 2391SOL    MW4 9596   3.998   2.435   3.777
 2392SOL     OW 9597   4.053   2.675   3.890
 2392SOL    HW2 9598   4.036   2.720   3.973
 2392SOL    HW3 9599   4.127   2.723   3.852
 2392SOL    MW4 9600   4.061   2.687   3.896
 2393SOL     OW 9601   4.261   2.840   3.802
 2393SOL    HW2 9602   4.272   2.927   3.839
 2393SOL    HW3 9603   4.345   2.797   3.817
 2393SOL    MW4 9604   4.274   2.846   3.809
 2394SOL     OW 9605   4.301   3.100   3.893
 2394SOL    HW2 9606   4.222   3.147   3.865
 2394SOL    HW3 9607   4.372   3.142   3.844
 2394SOL    MW4 9608   4.300   3.112   3.883
 2395SOL     OW 9609   4.049   3.230   3.850
 2395SOL    HW2 9610   3.984   3.166   3.880
 2395SOL    HW3 9611   4.039   3.231   3.755
 2395SOL    MW4 9612   4.039   3.221   3.842
 2396SOL     OW 9613   3.989   3.488   3.968
 2396SOL    HW2 9614   4.008   3.398   3.940
 2396SOL    HW3 9615   3.909   3.511   3.922
 2396SOL    MW4 9616   3.981   3.479   3.959
 2397SOL     OW 9617   4.212   3.630   3.804
 2397SOL    HW2 9618   4.142   3.609   3.865
 2397SOL    HW3 9619   4.288   3.581   3.836
 2397SOL    MW4 9620   4.213   3.620   3.816
 2398SOL     OW 9621   4.241   3.886   3.887
 2398SOL    HW2 9622   4.156   3.928   3.872
 2398SOL    HW3 9623   4.228   3.795   3.859
 2398SOL    MW4 9624   4.228   3.880   3.881
 2399SOL     OW 9625   3.993   3.973   3.812
 2399SOL    HW2 9626   3.988   4.067   3.832
 2399SOL    HW3 9627   4.006   3.969   3.718
 2399SOL    MW4 9628   3.994   3.985   3.803
 2400SOL     OW 9629   3.986   4.236   3.864
 2400SOL    HW2 9630   3.991   4.243   3.959
 2400SOL    HW3 9631   4.055   4.295   3.832
 2400SOL    MW4 9632   3.996   4.245   3.872
 2401SOL     OW 9633   4.183   4.399   3.750
 2401SOL    HW2 9634   4.196   4.489   3.780
 2401SOL    HW3 9635   4.263   4.353   3.775
 2401SOL    MW4 9636   4.195   4.405   3.757
 2402SOL     OW 9637   0.223   4.605   4.110
 2402SOL    HW2 9638   0.288   4.647   4.167
 2402SOL    HW3 9639   0.216   4.516   4.144
 2402SOL    MW4 9640   0.231   4.599   4.122
 2403SOL     OW 9641   4.479   0.060   4.192
 2403SOL    HW2 9642   4.491   0.077   4.285
 2403SOL    HW3 9643   4.559   0.014   4.165
 2403SOL    MW4 9644   4.491   0.056   4.200
 2404SOL     OW 9645   4.436   0.315   4.146
 2404SOL    HW2 9646   4.446   0.220   4.145
 2404SOL    HW3 9647   4.444   0.341   4.054
 2404SOL    MW4 9648   4.439   0.306   4.134
 2405SOL     OW 9649   0.164   0.482   4.252
 2405SOL    HW2 9650   0.229   0.434   4.202
 2405SOL    HW3 9651   0.082   0.433   4.240
 2405SOL    MW4 9652   0.161   0.470   4.244
 2406SOL     OW 9653   0.204   0.773   4.172
 2406SOL    HW2 9654   0.126   0.816   4.207
 2406SOL    HW3 9655   0.181   0.680   4.170
 2406SOL    MW4 9656   0.190   0.766   4.176
 2407SOL     OW 9657   4.447   0.866   4.254
 2407SOL    HW2 9658   4.364   0.831   4.220
 2407SOL    HW3 9659   4.437   0.961   4.249
 2407SOL    MW4 9660   4.434   0.873   4.249
 2408SOL     OW 9661   4.487   1.133   4.183
 2408SOL    HW2 9662   4.562   1.186   4.211
 2408SOL    HW3 9663   4.491   1.136   4.088
 2408SOL    MW4 9664   4.498   1.140   4.174
 2409SOL     OW 9665   0.235   1.262   4.261
 2409SOL    HW2 9666   0.241   1.275   4.355
 2409SOL    HW3 9667   0.313   1.211   4.238
 2409SOL    MW4 9668   0.246   1.257   4.270
 2410SOL     OW 9669   4.403   1.647   4.532
 2410SOL    HW2 9670   4.439   1.647   4.443
 2410SOL    HW3 9671   4.313   1.677   4.520
 2410SOL    MW4 9672   4.396   1.651   4.519
 2411SOL     OW 9673   4.473   1.645   4.239
 2411SOL    HW2 9674   4.399   1.601   4.196
 2411SOL    HW3 9675   4.466   1.736   4.212
 2411SOL    MW4 9676   4.462   1.651   4.230
 2412SOL     OW 9677   0.187   2.041   4.291
 2412SOL    HW2 9678   0.196   2.029   4.386
 2412SOL    HW3 9679   0.258   1.988   4.254
 2412SOL    MW4 9680   0.198   2.032   4.299
 2413SOL     OW 9681   0.669   1.515   4.662
 2413SOL    HW2 9682   0.579   1.529   4.635
 2413SOL    HW3 9683   0.676   1.558   4.747
 2413SOL    MW4 9684   0.658   1.522   4.670
 2414SOL     OW 9685   0.218   2.291   4.185
 2414SOL    HW2 9686   0.298   2.332   4.218
 2414SOL    HW3 9687   0.219   2.203   4.222
 2414SOL    MW4 9688   0.229   2.285   4.194
 2415SOL     OW 9689   4.491   2.445   4.291
 2415SOL    HW2 9690   4.420   2.399   4.245
 2415SOL    HW3 9691   4.570   2.398   4.265
 2415SOL    MW4 9692   4.492   2.432   4.282
 2416SOL     OW 9693   4.459   2.693   4.142
 2416SOL    HW2 9694   4.534   2.750   4.161
 2416SOL    HW3 9695   4.476   2.613   4.191
 2416SOL    MW4 9696   4.471   2.690   4.151
 2417SOL     OW 9697   0.198   2.812   4.273
 2417SOL    HW2 9698   0.278   2.779   4.232
 2417SOL    HW3 9699   0.198   2.906   4.255
 2417SOL    MW4 9700   0.209   2.820   4.265
 2418SOL     OW 9701   0.187   3.092   4.192
 2418SOL    HW2 9702   0.265   3.144   4.213
 2418SOL    HW3 9703   0.117   3.131   4.244
 2418SOL    MW4 9704   0.188   3.104   4.202
 2419SOL     OW 9705   4.467   3.238   4.282
 2419SOL    HW2 9706   4.387   3.202   4.245
 2419SOL    HW3 9707   4.471   3.328   4.250
 2419SOL    MW4 9708   4.457   3.245   4.273
 2420SOL     OW 9709   4.489   3.508   4.191
 2420SOL    HW2 9710   4.403   3.543   4.213
 2420SOL    HW3 9711   4.488   3.501   4.095
 2420SOL    MW4 9712   4.478   3.512   4.181
 2421SOL     OW 9713   0.195   3.659   4.328
 2421SOL    HW2 9714   0.269   3.602   4.305
 2421SOL    HW3 9715   0.118   3.607   4.305
 2421SOL    MW4 9716   0.195   3.644   4.322
 2422SOL     OW 9717   0.261   3.868   4.145
 2422SOL    HW2 9718   0.179   3.908   4.173
 2422SOL    HW3 9719   0.264   3.784   4.191
 2422SOL    MW4 9720   0.251   3.862   4.155
 2423SOL     OW 9721   0.020   3.989   4.220
 2423SOL    HW2 9722   0.020   4.020   4.311
 2423SOL    HW3 9723  -0.064   3.944   4.210
 2423SOL    MW4 9724   0.009   3.987   4.231
 2424SOL     OW 9725   4.471   4.252   4.121
 2424SOL    HW2 9726   4.476   4.160   4.146
 2424SOL    HW3 9727   4.449   4.251   4.028
 2424SOL    MW4 9728   4.469   4.240   4.112
 2425SOL     OW 9729   0.213   4.354   4.253
 2425SOL    HW2 9730   0.180   4.377   4.340
 2425SOL    HW3 9731   0.135   4.331   4.202
 2425SOL    MW4 9732   0.198   4.354   4.258
 2426SOL     OW 9733   0.649   0.001   4.165
 2426SOL    HW2 9734   0.559   0.029   4.184
 2426SOL    HW3 9735   0.657   0.008   4.070
 2426SOL    MW4 9736   0.638   0.005   4.155
 2427SOL     OW 9737   0.404   0.087   4.251
 2427SOL    HW2 9738   0.406   0.093   4.346
 2427SOL    HW3 9739   0.405   0.178   4.221
 2427SOL    MW4 9740   0.404   0.100   4.259
 2428SOL     OW 9741   0.431   0.337   4.134
 2428SOL    HW2 9742   0.504   0.388   4.170
 2428SOL    HW3 9743   0.434   0.355   4.040
 2428SOL    MW4 9744   0.441   0.346   4.126
 2429SOL     OW 9745   0.636   0.467   4.265
 2429SOL    HW2 9746   0.721   0.440   4.231
 2429SOL    HW3 9747   0.630   0.560   4.243
 2429SOL    MW4 9748   0.646   0.476   4.257
 2430SOL     OW 9749   0.626   0.733   4.195
 2430SOL    HW2 9750   0.547   0.782   4.220
 2430SOL    HW3 9751   0.630   0.742   4.100
 2430SOL    MW4 9752   0.616   0.741   4.186
 2431SOL     OW 9753   0.419   0.881   4.297
 2431SOL    HW2 9754   0.428   0.963   4.248
 2431SOL    HW3 9755   0.338   0.843   4.265
 2431SOL    MW4 9756   0.410   0.887   4.286
 2432SOL     OW 9757   0.451   1.111   4.153
 2432SOL    HW2 9758   0.530   1.151   4.190
 2432SOL    HW3 9759   0.460   1.121   4.059
 2432SOL    MW4 9760   0.463   1.117   4.146
 2433SOL     OW 9761   0.664   1.213   4.278
 2433SOL    HW2 9762   0.653   1.218   4.373
 2433SOL    HW3 9763   0.650   1.302   4.247
 2433SOL    MW4 9764   0.661   1.225   4.286
 2434SOL     OW 9765   0.646   1.483   4.187
 2434SOL    HW2 9766   0.730   1.524   4.210
 2434SOL    HW3 9767   0.634   1.505   4.095
 2434SOL    MW4 9768   0.656   1.491   4.178
 2435SOL     OW 9769   0.242   1.530   4.163
 2435SOL    HW2 9770   0.242   1.439   4.193
 2435SOL    HW3 9771   0.153   1.561   4.179
 2435SOL    MW4 9772   0.230   1.522   4.169
 2436SOL     OW 9773   0.402   1.935   4.175
 2436SOL    HW2 9774   0.434   1.848   4.199
 2436SOL    HW3 9775   0.416   1.941   4.081
 2436SOL    MW4 9776   0.408   1.925   4.166
 2437SOL     OW 9777   0.617   2.075   4.274
 2437SOL    HW2 9778   0.615   2.081   4.369
 2437SOL    HW3 9779   0.537   2.027   4.251
 2437SOL    MW4 9780   0.606   2.069   4.283
 2438SOL     OW 9781   0.646   2.315   4.144
 2438SOL    HW2 9782   0.636   2.228   4.185
 2438SOL    HW3 9783   0.671   2.296   4.054
 2438SOL    MW4 9784   0.648   2.301   4.138
 2439SOL     OW 9785   0.430   2.433   4.278
 2439SOL    HW2 9786   0.402   2.515   4.237
 2439SOL    HW3 9787   0.500   2.400   4.222
 2439SOL    MW4 9788   0.435   2.440   4.265
 2440SOL     OW 9789   0.443   2.717   4.150
 2440SOL    HW2 9790   0.526   2.755   4.180
 2440SOL    HW3 9791   0.455   2.701   4.057
 2440SOL    MW4 9792   0.455   2.720   4.142
 2441SOL     OW 9793   0.686   2.852   4.263
 2441SOL    HW2 9794   0.722   2.871   4.350
 2441SOL    HW3 9795   0.685   2.937   4.219
 2441SOL    MW4 9796   0.691   2.866   4.269
 2442SOL     OW 9797   0.649   3.109   4.120
 2442SOL    HW2 9798   0.721   3.153   4.165
 2442SOL    HW3 9799   0.570   3.145   4.161
 2442SOL    MW4 9800   0.648   3.120   4.131
 2443SOL     OW 9801   0.409   3.228   4.224
 2443SOL    HW2 9802   0.429   3.218   4.317
 2443SOL    HW3 9803   0.413   3.322   4.209
 2443SOL    MW4 9804   0.412   3.239   4.235
 2444SOL     OW 9805   0.413   3.508   4.182
 2444SOL    HW2 9806   0.503   3.538   4.187
 2444SOL    HW3 9807   0.391   3.512   4.089
 2444SOL    MW4 9808   0.422   3.512   4.171
 2445SOL     OW 9809   0.669   3.613   4.235
 2445SOL    HW2 9810   0.671   3.633   4.329
 2445SOL    HW3 9811   0.754   3.574   4.217
 2445SOL    MW4 9812   0.680   3.611   4.245
 2446SOL     OW 9813   0.697   3.863   4.096
 2446SOL    HW2 9814   0.618   3.902   4.133
 2446SOL    HW3 9815   0.702   3.776   4.136
 2446SOL    MW4 9816   0.687   3.857   4.106
 2447SOL     OW 9817   0.498   3.999   4.228
 2447SOL    HW2 9818   0.482   4.092   4.210
 2447SOL    HW3 9819   0.414   3.957   4.210
 2447SOL    MW4 9820   0.485   4.006   4.223
 2448SOL     OW 9821   0.458   4.265   4.172
 2448SOL    HW2 9822   0.375   4.277   4.218
 2448SOL    HW3 9823   0.435   4.271   4.080
 2448SOL    MW4 9824   0.444   4.267   4.166
 2449SOL     OW 9825   0.672   4.408   4.250
 2449SOL    HW2 9826   0.602   4.359   4.207
 2449SOL    HW3 9827   0.656   4.499   4.226
 2449SOL    MW4 9828   0.661   4.414   4.241
 2450SOL     OW 9829   1.068   4.657   4.172
 2450SOL    HW2 9830   1.096   4.573   4.208
 2450SOL    HW3 9831   1.053   4.640   4.079
 2450SOL    MW4 9832   1.070   4.644   4.164
 2451SOL     OW 9833   0.869   0.115   4.317
 2451SOL    HW2 9834   0.943   0.067   4.279
 2451SOL    HW3 9835   0.792   0.078   4.273
 2451SOL    MW4 9836   0.869   0.104   4.306
 2452SOL     OW 9837   0.871   0.346   4.149
 2452SOL    HW2 9838   0.950   0.397   4.171
 2452SOL    HW3 9839   0.876   0.270   4.206
 2452SOL    MW4 9840   0.882   0.343   4.160
 2453SOL     OW 9841   1.067   0.518   4.226
 2453SOL    HW2 9842   1.071   0.502   4.320
 2453SOL    HW3 9843   1.145   0.477   4.191
 2453SOL    MW4 9844   1.078   0.511   4.234
 2454SOL     OW 9845   1.099   0.792   4.146
 2454SOL    HW2 9846   1.175   0.832   4.187
 2454SOL    HW3 9847   1.102   0.700   4.171
 2454SOL    MW4 9848   1.109   0.785   4.154
 2455SOL     OW 9849   0.879   0.859   4.297
 2455SOL    HW2 9850   0.943   0.818   4.239
 2455SOL    HW3 9851   0.795   0.826   4.266
 2455SOL    MW4 9852   0.877   0.849   4.286
 2456SOL     OW 9853   0.919   1.100   4.185
 2456SOL    HW2 9854   0.894   1.015   4.220
 2456SOL    HW3 9855   0.854   1.161   4.221
 2456SOL    MW4 9856   0.907   1.097   4.194
 2457SOL     OW 9857   1.129   1.258   4.257
 2457SOL    HW2 9858   1.118   1.262   4.352
 2457SOL    HW3 9859   1.063   1.194   4.229
 2457SOL    MW4 9860   1.119   1.250   4.266
 2458SOL     OW 9861   1.137   1.527   4.182
 2458SOL    HW2 9862   1.052   1.562   4.206
 2458SOL    HW3 9863   1.137   1.438   4.217
 2458SOL    MW4 9864   1.126   1.520   4.190
 2459SOL     OW 9865   0.890   1.606   4.261
 2459SOL    HW2 9866   0.886   1.577   4.352
 2459SOL    HW3 9867   0.868   1.700   4.265
 2459SOL    MW4 9868   0.886   1.615   4.273
 2460SOL     OW 9869   0.798   1.876   4.206
 2460SOL    HW2 9870   0.740   1.942   4.244
 2460SOL    HW3 9871   0.805   1.900   4.113
 2460SOL    MW4 9872   0.791   1.888   4.199
 2461SOL     OW 9873   1.067   1.935   4.202
 2461SOL    HW2 9874   1.087   1.933   4.296
 2461SOL    HW3 9875   0.976   1.907   4.196
 2461SOL    MW4 9876   1.058   1.931   4.214
 2462SOL     OW 9877   1.053   2.233   4.166
 2462SOL    HW2 9878   1.105   2.261   4.242
 2462SOL    HW3 9879   1.061   2.137   4.165
 2462SOL    MW4 9880   1.061   2.224   4.176
 2463SOL     OW 9881   0.892   2.457   4.196
 2463SOL    HW2 9882   0.966   2.396   4.192
 2463SOL    HW3 9883   0.816   2.402   4.177
 2463SOL    MW4 9884   0.892   2.442   4.193
 2464SOL     OW 9885   0.891   2.730   4.138
 2464SOL    HW2 9886   0.886   2.634   4.148
 2464SOL    HW3 9887   0.814   2.762   4.185
 2464SOL    MW4 9888   0.880   2.721   4.145
 2465SOL     OW 9889   1.122   2.843   4.224
 2465SOL    HW2 9890   1.097   2.936   4.226
 2465SOL    HW3 9891   1.047   2.799   4.185
 2465SOL    MW4 9892   1.109   2.850   4.219
 2466SOL     OW 9893   1.051   3.113   4.174
 2466SOL    HW2 9894   1.118   3.176   4.202
 2466SOL    HW3 9895   1.051   3.119   4.078
 2466SOL    MW4 9896   1.060   3.122   4.165
 2467SOL     OW 9897   0.828   3.241   4.269
 2467SOL    HW2 9898   0.805   3.237   4.362
 2467SOL    HW3 9899   0.910   3.192   4.262
 2467SOL    MW4 9900   0.836   3.234   4.280
 2468SOL     OW 9901   0.911   3.503   4.150
 2468SOL    HW2 9902   0.870   3.422   4.182
 2468SOL    HW3 9903   0.911   3.494   4.055
 2468SOL    MW4 9904   0.906   3.491   4.142
 2469SOL     OW 9905   1.118   3.652   4.255
 2469SOL    HW2 9906   1.095   3.739   4.223
 2469SOL    HW3 9907   1.050   3.594   4.220
 2469SOL    MW4 9908   1.106   3.656   4.246
 2470SOL     OW 9909   1.064   3.887   4.118
 2470SOL    HW2 9910   1.149   3.918   4.150
 2470SOL    HW3 9911   1.000   3.937   4.169
 2470SOL    MW4 9912   1.067   3.898   4.129
 2471SOL     OW 9913   0.879   4.032   4.275
 2471SOL    HW2 9914   0.873   4.118   4.233
 2471SOL    HW3 9915   0.802   3.985   4.243
 2471SOL    MW4 9916   0.868   4.037   4.265
 2472SOL     OW 9917   0.882   4.264   4.148
 2472SOL    HW2 9918   0.960   4.310   4.177
 2472SOL    HW3 9919   0.809   4.317   4.182
 2472SOL    MW4 9920   0.882   4.277   4.156
 2473SOL     OW 9921   1.129   4.400   4.269
 2473SOL    HW2 9922   1.168   4.400   4.356
 2473SOL    HW3 9923   1.190   4.348   4.216
 2473SOL    MW4 9924   1.142   4.393   4.273
 2474SOL     OW 9925   1.521   4.633   4.172
 2474SOL    HW2 9926   1.608   4.665   4.197
 2474SOL    HW3 9927   1.461   4.703   4.200
 2474SOL    MW4 9928   1.525   4.647   4.179
 2475SOL     OW 9929   1.300   0.134   4.252
 2475SOL    HW2 9930   1.294   0.111   4.344
 2475SOL    HW3 9931   1.229   0.085   4.210
 2475SOL    MW4 9932   1.290   0.125   4.258
 2476SOL     OW 9933   1.293   0.392   4.158
 2476SOL    HW2 9934   1.385   0.416   4.171
 2476SOL    HW3 9935   1.284   0.306   4.199
 2476SOL    MW4 9936   1.304   0.384   4.165
 2477SOL     OW 9937   1.555   0.456   4.202
 2477SOL    HW2 9938   1.562   0.428   4.293
 2477SOL    HW3 9939   1.563   0.551   4.206
 2477SOL    MW4 9940   1.557   0.465   4.215
 2478SOL     OW 9941   1.545   0.728   4.177
 2478SOL    HW2 9942   1.629   0.767   4.202
 2478SOL    HW3 9943   1.536   0.750   4.084
 2478SOL    MW4 9944   1.555   0.736   4.168
 2479SOL     OW 9945   1.323   0.869   4.306
 2479SOL    HW2 9946   1.350   0.956   4.276
 2479SOL    HW3 9947   1.390   0.810   4.271
 2479SOL    MW4 9948   1.336   0.873   4.297
 2480SOL     OW 9949   1.356   1.123   4.178
 2480SOL    HW2 9950   1.284   1.183   4.198
 2480SOL    HW3 9951   1.362   1.123   4.083
 2480SOL    MW4 9952   1.347   1.131   4.168
 2481SOL     OW 9953   1.581   1.256   4.243
 2481SOL    HW2 9954   1.593   1.241   4.337
 2481SOL    HW3 9955   1.510   1.197   4.218
 2481SOL    MW4 9956   1.574   1.246   4.252
 2482SOL     OW 9957   1.559   1.537   4.213
 2482SOL    HW2 9958   1.479   1.570   4.255
 2482SOL    HW3 9959   1.559   1.443   4.233
 2482SOL    MW4 9960   1.548   1.529   4.221
 2483SOL     OW 9961   1.336   1.633   4.339
 2483SOL    HW2 9962   1.342   1.724   4.312
 2483SOL    HW3 9963   1.268   1.596   4.282
 2483SOL    MW4 9964   1.328   1.640   4.328
 2484SOL     OW 9965   1.332   1.876   4.201
 2484SOL    HW2 9966   1.350   1.941   4.269
 2484SOL    HW3 9967   1.237   1.877   4.192
 2484SOL    MW4 9968   1.322   1.884   4.209
 2485SOL     OW 9969   1.371   2.141   4.343
 2485SOL    HW2 9970   1.403   2.163   4.430
 2485SOL    HW3 9971   1.433   2.183   4.283
 2485SOL    MW4 9972   1.383   2.149   4.346
 2486SOL     OW 9973   1.538   2.291   4.160
 2486SOL    HW2 9974   1.620   2.249   4.185
 2486SOL    HW3 9975   1.545   2.303   4.065
 2486SOL    MW4 9976   1.550   2.287   4.151
 2487SOL     OW 9977   1.414   2.506   4.291
 2487SOL    HW2 9978   1.414   2.591   4.247
 2487SOL    HW3 9979   1.461   2.447   4.232
 2487SOL    MW4 9980   1.420   2.509   4.278
 2488SOL     OW 9981   1.395   2.766   4.161
 2488SOL    HW2 9982   1.446   2.819   4.222
 2488SOL    HW3 9983   1.304   2.780   4.187
 2488SOL    MW4 9984   1.390   2.775   4.173
 2489SOL     OW 9985   1.498   2.515   4.581
 2489SOL    HW2 9986   1.590   2.540   4.579
 2489SOL    HW3 9987   1.467   2.530   4.492
 2489SOL    MW4 9988   1.506   2.520   4.569
 2490SOL     OW 9989   1.547   3.153   4.203
 2490SOL    HW2 9990   1.618   3.194   4.253
 2490SOL    HW3 9991   1.532   3.069   4.247
 2490SOL    MW4 9992   1.554   3.147   4.215
 2491SOL     OW 9993   1.282   3.231   4.284
 2491SOL    HW2 9994   1.372   3.204   4.267
 2491SOL    HW3 9995   1.281   3.325   4.266
 2491SOL    MW4 9996   1.294   3.240   4.280
 2492SOL     OW 9997   1.366   3.503   4.207
 2492SOL    HW2 9998   1.298   3.555   4.248
 2492SOL    HW3 9999   1.360   3.524   4.114
 2492SOL    MW410000   1.356   3.512   4.200
 2493SOL     OW10001   1.616   3.598   4.286
 2493SOL    HW210002   1.613   3.631   4.376
 2493SOL    HW310003   1.543   3.536   4.282
 2493SOL    MW410004   1.606   3.594   4.298
 2494SOL     OW10005   1.541   3.847   4.156
 2494SOL    HW210006   1.460   3.881   4.193
 2494SOL    HW310007   1.557   3.765   4.203
 2494SOL    MW410008   1.532   3.841   4.167
 2495SOL     OW10009   1.306   3.963   4.233
 2495SOL    HW210010   1.291   3.956   4.327
 2495SOL    HW310011   1.316   4.057   4.217
 2495SOL    MW410012   1.306   3.975   4.243
 2496SOL     OW10013   1.312   4.217   4.145
 2496SOL    HW210014   1.384   4.260   4.190
 2496SOL    HW310015   1.325   4.238   4.052
 2496SOL    MW410016   1.323   4.225   4.138
 2497SOL     OW10017   1.557   4.344   4.225
 2497SOL    HW210018   1.547   4.437   4.206
 2497SOL    HW310019   1.640   4.320   4.185
 2497SOL    MW410020   1.566   4.353   4.217
 2498SOL     OW10021   2.048   0.018   4.114
 2498SOL    HW210022   1.970   0.030   4.169
 2498SOL    HW310023   2.013   0.001   4.026
 2498SOL    MW410024   2.033   0.017   4.110
 2499SOL     OW10025   1.787   0.048   4.212
 2499SOL    HW210026   1.795   0.025   4.304
 2499SOL    HW310027   1.788   0.143   4.211
 2499SOL    MW410028   1.788   0.057   4.224
 2500SOL     OW10029   1.787   0.325   4.131
 2500SOL    HW210030   1.864   0.379   4.146
 2500SOL    HW310031   1.713   0.379   4.159
 2500SOL    MW410032   1.787   0.339   4.137
 2501SOL     OW10033   2.013   0.453   4.251
 2501SOL    HW210034   2.004   0.443   4.346
 2501SOL    HW310035   2.098   0.414   4.231
 2501SOL    MW410036   2.023   0.447   4.261
 2502SOL     OW10037   1.989   0.709   4.142
 2502SOL    HW210038   2.066   0.753   4.179
 2502SOL    HW310039   1.990   0.622   4.182
 2502SOL    MW410040   2.000   0.704   4.153
 2503SOL     OW10041   1.780   0.852   4.291
 2503SOL    HW210042   1.788   0.945   4.273
 2503SOL    HW310043   1.849   0.811   4.238
 2503SOL    MW410044   1.790   0.859   4.281
 2504SOL     OW10045   1.794   1.122   4.173
 2504SOL    HW210046   1.868   1.174   4.206
 2504SOL    HW310047   1.717   1.175   4.192
 2504SOL    MW410048   1.794   1.136   4.180
 2505SOL     OW10049   2.053   1.192   4.265
 2505SOL    HW210050   2.117   1.145   4.213
 2505SOL    HW310051   2.055   1.281   4.231
 2505SOL    MW410052   2.062   1.197   4.254
 2506SOL     OW10053   2.054   1.459   4.181
 2506SOL    HW210054   2.110   1.517   4.233
 2506SOL    HW310055   2.056   1.497   4.093
 2506SOL    MW410056   2.062   1.472   4.176
 2507SOL     OW10057   1.825   1.605   4.290
 2507SOL    HW210058   1.888   1.562   4.231
 2507SOL    HW310059   1.739   1.579   4.257
 2507SOL    MW410060   1.822   1.596   4.278
 2508SOL     OW10061   1.806   1.874   4.181
 2508SOL    HW210062   1.782   1.800   4.236
 2508SOL    HW310063   1.764   1.950   4.222
 2508SOL    MW410064   1.797   1.874   4.194
 2509SOL     OW10065   1.749   2.157   4.252
 2509SOL    HW210066   1.812   2.225   4.230
 2509SOL    HW310067   1.738   2.165   4.347
 2509SOL    MW410068   1.756   2.167   4.262
 2510SOL     OW10069   1.933   2.324   4.117
 2510SOL    HW210070   1.949   2.337   4.023
 2510SOL    HW310071   1.941   2.411   4.155
 2510SOL    MW410072   1.936   2.337   4.110
 2511SOL     OW10073   1.928   2.490   4.345
 2511SOL    HW210074   1.942   2.579   4.376
 2511SOL    HW310075   2.015   2.452   4.339
 2511SOL    MW410076   1.941   2.497   4.348
 2512SOL     OW10077   1.801   2.655   4.150
 2512SOL    HW210078   1.801   2.593   4.223
 2512SOL    HW310079   1.799   2.742   4.192
 2512SOL    MW410080   1.801   2.659   4.165
 2513SOL     OW10081   1.804   2.892   4.292
 2513SOL    HW210082   1.857   2.839   4.351
 2513SOL    HW310083   1.855   2.971   4.278
 2513SOL    MW410084   1.818   2.895   4.298
 2514SOL     OW10085   2.040   3.076   4.365
 2514SOL    HW210086   2.074   3.004   4.418
 2514SOL    HW310087   2.066   3.055   4.276
 2514SOL    MW410088   2.048   3.064   4.360
 2515SOL     OW10089   1.819   3.248   4.301
 2515SOL    HW210090   1.845   3.326   4.252
 2515SOL    HW310091   1.902   3.209   4.329
 2515SOL    MW410092   1.833   3.253   4.299
 2516SOL     OW10093   1.835   3.493   4.161
 2516SOL    HW210094   1.763   3.539   4.203
 2516SOL    HW310095   1.816   3.498   4.067
 2516SOL    MW410096   1.823   3.499   4.154
 2517SOL     OW10097   2.083   3.622   4.222
 2517SOL    HW210098   2.076   3.717   4.210
 2517SOL    HW310099   2.001   3.588   4.186
 2517SOL    MW410100   2.071   3.630   4.216
 2518SOL     OW10101   2.022   3.892   4.201
 2518SOL    HW210102   1.930   3.918   4.208
 2518SOL    HW310103   2.045   3.910   4.110
 2518SOL    MW410104   2.013   3.898   4.190
 2519SOL     OW10105   1.765   3.994   4.251
 2519SOL    HW210106   1.765   4.083   4.216
 2519SOL    HW310107   1.694   3.949   4.205
 2519SOL    MW410108   1.756   4.000   4.240
 2520SOL     OW10109   1.812   4.257   4.137
 2520SOL    HW210110   1.906   4.270   4.152
 2520SOL    HW310111   1.805   4.245   4.042
 2520SOL    MW410112   1.824   4.257   4.126
 2521SOL     OW10113   2.039   4.406   4.211
 2521SOL    HW210114   2.013   4.425   4.301
 2521SOL    HW310115   2.033   4.490   4.166
 2521SOL    MW410116   2.035   4.420   4.217
 2522SOL     OW10117   2.456   4.626   4.117
 2522SOL    HW210118   2.539   4.661   4.151
 2522SOL    HW310119   2.443   4.545   4.166
 2522SOL    MW410120   2.465   4.620   4.128
 2523SOL     OW10121   2.256   0.087   4.275
 2523SOL    HW210122   2.337   0.048   4.243
 2523SOL    HW310123   2.189   0.057   4.213
 2523SOL    MW410124   2.257   0.078   4.262
 2524SOL     OW10125   2.255   0.344   4.147
 2524SOL    HW210126   2.259   0.256   4.184
 2524SOL    HW310127   2.266   0.332   4.053
 2524SOL    MW410128   2.257   0.331   4.139
 2525SOL     OW10129   2.489   0.462   4.258
 2525SOL    HW210130   2.470   0.502   4.344
 2525SOL    HW310131   2.403   0.434   4.226
 2525SOL    MW410132   2.475   0.464   4.265
 2526SOL     OW10133   2.475   0.757   4.157
 2526SOL    HW210134   2.487   0.665   4.183
 2526SOL    HW310135   2.445   0.753   4.066
 2526SOL    MW410136   2.473   0.744   4.148
 2527SOL     OW10137   2.196   0.826   4.271
 2527SOL    HW210138   2.170   0.848   4.360
 2527SOL    HW310139   2.277   0.775   4.281
 2527SOL    MW410140   2.203   0.822   4.284
 2528SOL     OW10141   2.269   1.062   4.147
 2528SOL    HW210142   2.333   1.114   4.194
 2528SOL    HW310143   2.252   0.987   4.204
 2528SOL    MW410144   2.275   1.059   4.160
 2529SOL     OW10145   2.490   1.202   4.257
 2529SOL    HW210146   2.493   1.243   4.343
 2529SOL    HW310147   2.582   1.194   4.231
 2529SOL    MW410148   2.503   1.206   4.265
 2530SOL     OW10149   2.464   1.490   4.133
 2530SOL    HW210150   2.458   1.397   4.157
 2530SOL    HW310151   2.464   1.489   4.037
 2530SOL    MW410152   2.463   1.477   4.123
 2531SOL     OW10153   2.268   1.660   4.244
 2531SOL    HW210154   2.340   1.605   4.214
 2531SOL    HW310155   2.269   1.737   4.187
 2531SOL    MW410156   2.277   1.663   4.233
 2532SOL     OW10157   2.266   1.913   4.134
 2532SOL    HW210158   2.345   1.960   4.160
 2532SOL    HW310159   2.194   1.972   4.156
 2532SOL    MW410160   2.267   1.927   4.140
 2533SOL     OW10161   2.493   2.050   4.195
 2533SOL    HW210162   2.517   2.013   4.280
 2533SOL    HW310163   2.565   2.024   4.137
 2533SOL    MW410164   2.506   2.042   4.199
 2534SOL     OW10165   2.435   2.326   4.180
 2534SOL    HW210166   2.458   2.234   4.195
 2534SOL    HW310167   2.446   2.339   4.086
 2534SOL    MW410168   2.440   2.316   4.170
 2535SOL     OW10169   2.455   2.533   4.559
 2535SOL    HW210170   2.370   2.492   4.547
 2535SOL    HW310171   2.439   2.608   4.616
 2535SOL    MW410172   2.442   2.538   4.565
 2536SOL     OW10173   2.067   2.705   4.129
 2536SOL    HW210174   2.106   2.694   4.216
 2536SOL    HW310175   1.975   2.681   4.141
 2536SOL    MW410176   2.060   2.700   4.142
 2537SOL     OW10177   2.446   2.711   4.314
 2537SOL    HW210178   2.469   2.640   4.375
 2537SOL    HW310179   2.354   2.730   4.332
 2537SOL    MW410180   2.437   2.704   4.325
 2538SOL     OW10181   2.410   2.955   4.176
 2538SOL    HW210182   2.319   2.950   4.149
 2538SOL    HW310183   2.436   2.865   4.193
 2538SOL    MW410184   2.401   2.943   4.175
 2539SOL     OW10185   2.137   2.971   4.117
 2539SOL    HW210186   2.106   3.015   4.037
 2539SOL    HW310187   2.100   2.883   4.112
 2539SOL    MW410188   2.128   2.965   4.106
 2540SOL     OW10189   2.297   3.460   4.117
 2540SOL    HW210190   2.329   3.415   4.195
 2540SOL    HW310191   2.224   3.514   4.147
 2540SOL    MW410192   2.292   3.461   4.131
 2541SOL     OW10193   2.536   3.705   4.316
 2541SOL    HW210194   2.465   3.674   4.373
 2541SOL    HW310195   2.491   3.750   4.244
 2541SOL    MW410196   2.520   3.707   4.314
 2542SOL     OW10197   2.455   3.895   4.136
 2542SOL    HW210198   2.533   3.946   4.156
 2542SOL    HW310199   2.452   3.892   4.041
 2542SOL    MW410200   2.464   3.901   4.126
 2543SOL     OW10201   2.249   4.036   4.296
 2543SOL    HW210202   2.321   3.978   4.270
 2543SOL    HW310203   2.171   3.982   4.285
 2543SOL    MW410204   2.248   4.021   4.291
 2544SOL     OW10205   2.263   4.259   4.143
 2544SOL    HW210206   2.253   4.176   4.189
 2544SOL    HW310207   2.187   4.310   4.169
 2544SOL    MW410208   2.252   4.255   4.153
 2545SOL     OW10209   2.454   4.389   4.280
 2545SOL    HW210210   2.533   4.359   4.234
 2545SOL    HW310211   2.383   4.336   4.243
 2545SOL    MW410212   2.455   4.378   4.269
 2546SOL     OW10213   2.967   0.007   4.145
 2546SOL    HW210214   3.052   0.041   4.175
 2546SOL    HW310215   2.964  -0.083   4.178
 2546SOL    MW410216   2.978  -0.001   4.153
 2547SOL     OW10217   2.698   0.082   4.177
 2547SOL    HW210218   2.709   0.174   4.155
 2547SOL    HW310219   2.782   0.042   4.156
 2547SOL    MW410220   2.710   0.089   4.172
 2548SOL     OW10221   2.712   0.378   4.126
 2548SOL    HW210222   2.637   0.407   4.178
 2548SOL    HW310223   2.691   0.404   4.037
 2548SOL    MW410224   2.699   0.386   4.121
 2549SOL     OW10225   2.951   0.455   4.249
 2549SOL    HW210226   2.960   0.549   4.229
 2549SOL    HW310227   2.870   0.430   4.205
 2549SOL    MW410228   2.941   0.464   4.241
 2550SOL     OW10229   2.911   0.711   4.148
 2550SOL    HW210230   2.972   0.780   4.174
 2550SOL    HW310231   2.901   0.722   4.053
 2550SOL    MW410232   2.918   0.721   4.139
 2551SOL     OW10233   2.696   0.879   4.230
 2551SOL    HW210234   2.763   0.813   4.208
 2551SOL    HW310235   2.613   0.836   4.209
 2551SOL    MW410236   2.694   0.865   4.224
 2552SOL     OW10237   2.732   1.144   4.137
 2552SOL    HW210238   2.723   1.057   4.177
 2552SOL    HW310239   2.710   1.130   4.044
 2552SOL    MW410240   2.728   1.130   4.130
 2553SOL     OW10241   2.950   1.280   4.255
 2553SOL    HW210242   3.023   1.229   4.220
 2553SOL    HW310243   2.872   1.233   4.227
 2553SOL    MW410244   2.949   1.267   4.246
 2554SOL     OW10245   2.974   1.539   4.161
 2554SOL    HW210246   3.037   1.584   4.217
 2554SOL    HW310247   2.964   1.453   4.201
 2554SOL    MW410248   2.981   1.534   4.173
 2555SOL     OW10249   2.711   1.653   4.150
 2555SOL    HW210250   2.789   1.598   4.141
 2555SOL    HW310251   2.639   1.591   4.158
 2555SOL    MW410252   2.712   1.637   4.150
 2556SOL     OW10253   2.735   1.929   4.094
 2556SOL    HW210254   2.713   1.842   4.129
 2556SOL    HW310255   2.728   1.919   3.999
 2556SOL    MW410256   2.731   1.916   4.086
 2557SOL     OW10257   2.919   2.087   4.238
 2557SOL    HW210258   2.936   2.161   4.180
 2557SOL    HW310259   2.844   2.043   4.200
 2557SOL    MW410260   2.912   2.091   4.225
 2558SOL     OW10261   2.950   2.324   4.099
 2558SOL    HW210262   3.015   2.387   4.131
 2558SOL    HW310263   2.868   2.351   4.140
 2558SOL    MW410264   2.948   2.335   4.109
 2559SOL     OW10265   2.711   2.390   4.200
 2559SOL    HW210266   2.701   2.404   4.294
 2559SOL    HW310267   2.622   2.371   4.169
 2559SOL    MW410268   2.698   2.389   4.208
 2560SOL     OW10269   2.678   2.681   4.168
 2560SOL    HW210270   2.676   2.585   4.177
 2560SOL    HW310271   2.607   2.711   4.224
 2560SOL    MW410272   2.668   2.672   4.176
 2561SOL     OW10273   2.928   2.816   4.247
 2561SOL    HW210274   2.914   2.795   4.340
 2561SOL    HW310275   2.853   2.778   4.202
 2561SOL    MW410276   2.916   2.808   4.254
 2562SOL     OW10277   2.905   3.081   4.195
 2562SOL    HW210278   2.926   2.991   4.221
 2562SOL    HW310279   2.904   3.079   4.099
 2562SOL    MW410280   2.907   3.069   4.186
 2563SOL     OW10281   2.704   3.254   4.310
 2563SOL    HW210282   2.736   3.246   4.400
 2563SOL    HW310283   2.748   3.184   4.263
 2563SOL    MW410284   2.714   3.244   4.316
 2564SOL     OW10285   2.696   3.499   4.196
 2564SOL    HW210286   2.699   3.414   4.239
 2564SOL    HW310287   2.624   3.545   4.240
 2564SOL    MW410288   2.687   3.494   4.208
 2565SOL     OW10289   2.921   3.639   4.333
 2565SOL    HW210290   2.903   3.612   4.423
 2565SOL    HW310291   2.838   3.626   4.287
 2565SOL    MW410292   2.908   3.634   4.339
 2566SOL     OW10293   2.924   3.890   4.235
 2566SOL    HW210294   3.004   3.938   4.255
 2566SOL    HW310295   2.936   3.805   4.277
 2566SOL    MW410296   2.936   3.885   4.243
 2567SOL     OW10297   2.700   4.036   4.209
 2567SOL    HW210298   2.721   4.130   4.206
 2567SOL    HW310299   2.785   3.994   4.223
 2567SOL    MW410300   2.714   4.043   4.210
 2568SOL     OW10301   2.710   4.326   4.166
 2568SOL    HW210302   2.794   4.355   4.202
 2568SOL    HW310303   2.711   4.356   4.075
 2568SOL    MW410304   2.721   4.334   4.159
 2569SOL     OW10305   2.927   4.440   4.275
 2569SOL    HW210306   2.905   4.462   4.365
 2569SOL    HW310307   2.998   4.376   4.282
 2569SOL    MW410308   2.934   4.434   4.288
 2570SOL     OW10309   3.406   4.618   4.145
 2570SOL    HW210310   3.468   4.678   4.187
 2570SOL    HW310311   3.395   4.547   4.208
 2570SOL    MW410312   3.413   4.617   4.159
 2571SOL     OW10313   3.196   0.141   4.212
 2571SOL    HW210314   3.191   0.146   4.308
 2571SOL    HW310315   3.269   0.082   4.195
 2571SOL    MW410316   3.205   0.134   4.223
 2572SOL     OW10317   3.151   0.362   4.085
 2572SOL    HW210318   3.166   0.283   4.138
 2572SOL    HW310319   3.074   0.403   4.125
 2572SOL    MW410320   3.143   0.357   4.098
 2573SOL     OW10321   3.338   0.526   4.193
 2573SOL    HW210322   3.421   0.480   4.186
 2573SOL    HW310323   3.275   0.471   4.146
 2573SOL    MW410324   3.340   0.513   4.186
 2574SOL     OW10325   3.361   0.803   4.132
 2574SOL    HW210326   3.273   0.828   4.163
 2574SOL    HW310327   3.368   0.710   4.151
 2574SOL    MW410328   3.350   0.794   4.138
 2575SOL     OW10329   3.124   0.883   4.226
 2575SOL    HW210330   3.099   0.883   4.319
 2575SOL    HW310331   3.132   0.975   4.203
 2575SOL    MW410332   3.122   0.895   4.235
 2576SOL     OW10333   3.147   1.139   4.137
 2576SOL    HW210334   3.225   1.188   4.163
 2576SOL    HW310335   3.154   1.134   4.042
 2576SOL    MW410336   3.159   1.145   4.128
 2577SOL     OW10337   3.368   1.294   4.217
 2577SOL    HW210338   3.342   1.304   4.309
 2577SOL    HW310339   3.391   1.382   4.189
 2577SOL    MW410340   3.367   1.307   4.226
 2578SOL     OW10341   3.396   1.560   4.153
 2578SOL    HW210342   3.320   1.589   4.204
 2578SOL    HW310343   3.365   1.556   4.063
 2578SOL    MW410344   3.382   1.563   4.148
 2579SOL     OW10345   3.174   1.662   4.288
 2579SOL    HW210346   3.202   1.671   4.379
 2579SOL    HW310347   3.162   1.752   4.257
 2579SOL    MW410348   3.176   1.675   4.296
 2580SOL     OW10349   3.148   1.930   4.190
 2580SOL    HW210350   3.215   1.972   4.244
 2580SOL    HW310351   3.072   1.989   4.197
 2580SOL    MW410352   3.147   1.943   4.198
 2581SOL     OW10353   3.323   2.090   4.358
 2581SOL    HW210354   3.412   2.057   4.351
 2581SOL    HW310355   3.324   2.173   4.310
 2581SOL    MW410356   3.335   2.096   4.350
 2582SOL     OW10357   3.341   2.310   4.182
 2582SOL    HW210358   3.433   2.331   4.202
 2582SOL    HW310359   3.341   2.284   4.090
 2582SOL    MW410360   3.353   2.309   4.173
 2583SOL     OW10361   3.155   2.492   4.266
 2583SOL    HW210362   3.176   2.581   4.238
 2583SOL    HW310363   3.231   2.440   4.240
 2583SOL    MW410364   3.168   2.497   4.259
 2584SOL     OW10365   3.178   2.759   4.172
 2584SOL    HW210366   3.238   2.793   4.240
 2584SOL    HW310367   3.091   2.777   4.206
 2584SOL    MW410368   3.175   2.766   4.186
 2585SOL     OW10369   3.373   2.875   4.334
 2585SOL    HW210370   3.432   2.813   4.292
 2585SOL    HW310371   3.398   2.961   4.299
 2585SOL    MW410372   3.384   2.878   4.324
 2586SOL     OW10373   3.410   3.102   4.208
 2586SOL    HW210374   3.332   3.147   4.240
 2586SOL    HW310375   3.394   3.090   4.114
 2586SOL    MW410376   3.398   3.106   4.200
 2587SOL     OW10377   3.162   3.220   4.274
 2587SOL    HW210378   3.137   3.308   4.244
 2587SOL    HW310379   3.080   3.170   4.271
 2587SOL    MW410380   3.147   3.225   4.269
 2588SOL     OW10381   3.102   3.473   4.186
 2588SOL    HW210382   3.034   3.524   4.230
 2588SOL    HW310383   3.085   3.487   4.092
 2588SOL    MW410384   3.091   3.482   4.179
 2589SOL     OW10385   3.336   3.606   4.273
 2589SOL    HW210386   3.348   3.582   4.365
 2589SOL    HW310387   3.253   3.566   4.248
 2589SOL    MW410388   3.327   3.597   4.282
 2590SOL     OW10389   3.347   3.874   4.191
 2590SOL    HW210390   3.337   3.782   4.215
 2590SOL    HW310391   3.321   3.877   4.098
 2590SOL    MW410392   3.342   3.862   4.182
 2591SOL     OW10393   3.144   4.020   4.321
 2591SOL    HW210394   3.152   3.978   4.406
 2591SOL    HW310395   3.216   3.983   4.270
 2591SOL    MW410396   3.155   4.010   4.325
 2592SOL     OW10397   3.143   4.275   4.201
 2592SOL    HW210398   3.226   4.314   4.229
 2592SOL    HW310399   3.143   4.189   4.243
 2592SOL    MW410400   3.154   4.269   4.210
 2593SOL     OW10401   3.375   4.400   4.287
 2593SOL    HW210402   3.382   4.388   4.381
 2593SOL    HW310403   3.445   4.347   4.250
 2593SOL    MW410404   3.385   4.391   4.294
 2594SOL     OW10405   3.801   4.641   4.135
 2594SOL    HW210406   3.888   4.668   4.165
 2594SOL    HW310407   3.803   4.655   4.040
 2594SOL    MW410408   3.813   4.646   4.126
 2595SOL     OW10409   3.587   0.123   4.254
 2595SOL    HW210410   3.588   0.204   4.203
 2595SOL    HW310411   3.664   0.075   4.225
 2595SOL    MW410412   3.597   0.128   4.244
 2596SOL     OW10413   3.562   0.380   4.144
 2596SOL    HW210414   3.636   0.435   4.170
 2596SOL    HW310415   3.552   0.396   4.051
 2596SOL    MW410416   3.570   0.390   4.135
 2597SOL     OW10417   3.780   0.517   4.248
 2597SOL    HW210418   3.776   0.521   4.343
 2597SOL    HW310419   3.792   0.609   4.221
 2597SOL    MW410420   3.781   0.530   4.257
 2598SOL     OW10421   3.815   0.782   4.166
 2598SOL    HW210422   3.743   0.840   4.193
 2598SOL    HW310423   3.801   0.769   4.072
 2598SOL    MW410424   3.803   0.788   4.157
 2599SOL     OW10425   3.594   0.913   4.265
 2599SOL    HW210426   3.603   0.997   4.220
 2599SOL    HW310427   3.512   0.876   4.232
 2599SOL    MW410428   3.585   0.919   4.255
 2600SOL     OW10429   3.608   1.173   4.133
 2600SOL    HW210430   3.536   1.217   4.177
 2600SOL    HW310431   3.582   1.168   4.041
 2600SOL    MW410432   3.595   1.178   4.127
 2601SOL     OW10433   3.820   1.323   4.242
 2601SOL    HW210434   3.747   1.263   4.225
 2601SOL    HW310435   3.799   1.401   4.192
 2601SOL    MW410436   3.807   1.325   4.233
 2602SOL     OW10437   3.790   1.568   4.126
 2602SOL    HW210438   3.864   1.600   4.178
 2602SOL    HW310439   3.733   1.644   4.115
 2602SOL    MW410440   3.792   1.582   4.132
 2603SOL     OW10441   3.587   1.972   4.303
 2603SOL    HW210442   3.591   1.903   4.237
 2603SOL    HW310443   3.632   1.935   4.379
 2603SOL    MW410444   3.594   1.958   4.304
 2604SOL     OW10445   3.588   1.766   4.134
 2604SOL    HW210446   3.506   1.717   4.121
 2604SOL    HW310447   3.603   1.810   4.051
 2604SOL    MW410448   3.579   1.765   4.122
 2605SOL     OW10449   3.839   2.074   4.287
 2605SOL    HW210450   3.864   2.070   4.379
 2605SOL    HW310451   3.749   2.041   4.285
 2605SOL    MW410452   3.830   2.069   4.299
 2606SOL     OW10453   3.836   2.356   4.214
 2606SOL    HW210454   3.856   2.268   4.245
 2606SOL    HW310455   3.841   2.349   4.118
 2606SOL    MW410456   3.839   2.343   4.205
 2607SOL     OW10457   3.578   2.434   4.276
 2607SOL    HW210458   3.552   2.406   4.364
 2607SOL    HW310459   3.671   2.412   4.271
 2607SOL    MW410460   3.587   2.427   4.287
 2608SOL     OW10461   3.524   2.696   4.205
 2608SOL    HW210462   3.529   2.605   4.234
 2608SOL    HW310463   3.547   2.693   4.112
 2608SOL    MW410464   3.528   2.684   4.196
 2609SOL     OW10465   3.775   2.831   4.262
 2609SOL    HW210466   3.770   2.849   4.356
 2609SOL    HW310467   3.688   2.797   4.241
 2609SOL    MW410468   3.763   2.829   4.272
 2610SOL     OW10469   3.813   3.100   4.208
 2610SOL    HW210470   3.815   3.005   4.216
 2610SOL    HW310471   3.829   3.117   4.115
 2610SOL    MW410472   3.815   3.090   4.197
 2611SOL     OW10473   3.621   3.238   4.346
 2611SOL    HW210474   3.691   3.211   4.286
 2611SOL    HW310475   3.550   3.175   4.330
 2611SOL    MW410476   3.621   3.226   4.336
 2612SOL     OW10477   3.569   3.495   4.208
 2612SOL    HW210478   3.584   3.413   4.255
 2612SOL    HW310479   3.482   3.523   4.236
 2612SOL    MW410480   3.560   3.487   4.218
 2613SOL     OW10481   3.781   3.611   4.339
 2613SOL    HW210482   3.853   3.564   4.296
 2613SOL    HW310483   3.704   3.589   4.287
 2613SOL    MW410484   3.781   3.602   4.326
 2614SOL     OW10485   3.789   3.860   4.191
 2614SOL    HW210486   3.721   3.895   4.248
 2614SOL    HW310487   3.818   3.780   4.234
 2614SOL    MW410488   3.784   3.854   4.204
 2615SOL     OW10489   3.574   3.985   4.315
 2615SOL    HW210490   3.569   4.001   4.409
 2615SOL    HW310491   3.501   3.926   4.297
 2615SOL    MW410492   3.564   3.979   4.325
 2616SOL     OW10493   3.575   4.234   4.165
 2616SOL    HW210494   3.660   4.273   4.187
 2616SOL    HW310495   3.583   4.142   4.192
 2616SOL    MW410496   3.587   4.227   4.171
 2617SOL     OW10497   3.795   4.388   4.276
 2617SOL    HW210498   3.877   4.344   4.253
 2617SOL    HW310499   3.785   4.456   4.209
 2617SOL    MW410500   3.804   4.391   4.264
 2618SOL     OW10501   4.232   4.616   4.129
 2618SOL    HW210502   4.232   4.525   4.157
 2618SOL    HW310503   4.312   4.654   4.167
 2618SOL    MW410504   4.243   4.609   4.137
 2619SOL     OW10505   4.032   0.059   4.285
 2619SOL    HW210506   4.037   0.149   4.254
 2619SOL    HW310507   4.103   0.014   4.238
 2619SOL    MW410508   4.042   0.065   4.275
 2620SOL     OW10509   4.015   0.325   4.178
 2620SOL    HW210510   4.085   0.382   4.210
 2620SOL    HW310511   3.935   0.371   4.202
 2620SOL    MW410512   4.014   0.339   4.185
 2621SOL     OW10513   4.240   0.447   4.276
 2621SOL    HW210514   4.241   0.532   4.233
 2621SOL    HW310515   4.307   0.396   4.231
 2621SOL    MW410516   4.249   0.451   4.264
 2622SOL     OW10517   4.231   0.719   4.168
 2622SOL    HW210518   4.151   0.768   4.189
 2622SOL    HW310519   4.243   0.733   4.074
 2622SOL    MW410520   4.222   0.728   4.158
 2623SOL     OW10521   4.050   0.886   4.270
 2623SOL    HW210522   4.022   0.973   4.241
 2623SOL    HW310523   3.969   0.834   4.269
 2623SOL    MW410524   4.036   0.891   4.266
 2624SOL     OW10525   3.998   1.134   4.156
 2624SOL    HW210526   4.079   1.171   4.189
 2624SOL    HW310527   3.929   1.192   4.189
 2624SOL    MW410528   3.999   1.147   4.165
 2625SOL     OW10529   4.247   1.238   4.249
 2625SOL    HW210530   4.258   1.238   4.345
 2625SOL    HW310531   4.328   1.201   4.216
 2625SOL    MW410532   4.259   1.233   4.258
 2626SOL     OW10533   4.226   1.526   4.149
 2626SOL    HW210534   4.230   1.440   4.193
 2626SOL    HW310535   4.249   1.508   4.058
 2626SOL    MW410536   4.229   1.512   4.143
 2627SOL     OW10537   3.995   1.677   4.258
 2627SOL    HW210538   4.024   1.678   4.350
 2627SOL    HW310539   4.056   1.617   4.215
 2627SOL    MW410540   4.007   1.669   4.265
 2628SOL     OW10541   4.049   1.945   4.149
 2628SOL    HW210542   4.041   1.856   4.184
 2628SOL    HW310543   3.984   1.995   4.198
 2628SOL    MW410544   4.039   1.940   4.160
 2629SOL     OW10545   4.457   1.915   4.163
 2629SOL    HW210546   4.537   1.944   4.208
 2629SOL    HW310547   4.387   1.967   4.202
 2629SOL    MW410548   4.458   1.925   4.174
 2630SOL     OW10549   4.267   2.342   4.144
 2630SOL    HW210550   4.216   2.405   4.195
 2630SOL    HW310551   4.256   2.259   4.190
 2630SOL    MW410552   4.259   2.339   4.157
 2631SOL     OW10553   4.089   2.513   4.295
 2631SOL    HW210554   4.125   2.511   4.383
 2631SOL    HW310555   4.008   2.462   4.301
 2631SOL    MW410556   4.083   2.506   4.307
 2632SOL     OW10557   4.013   2.744   4.159
 2632SOL    HW210558   4.041   2.662   4.200
 2632SOL    HW310559   3.933   2.768   4.206
 2632SOL    MW410560   4.006   2.737   4.171
 2633SOL     OW10561   4.251   2.861   4.214
 2633SOL    HW210562   4.173   2.818   4.179
 2633SOL    HW310563   4.324   2.806   4.188
 2633SOL    MW410564   4.250   2.848   4.206
 2634SOL     OW10565   4.241   3.124   4.165
 2634SOL    HW210566   4.235   3.031   4.190
 2634SOL    HW310567   4.260   3.122   4.071
 2634SOL    MW410568   4.243   3.111   4.156
 2635SOL     OW10569   4.035   3.234   4.316
 2635SOL    HW210570   4.108   3.205   4.260
 2635SOL    HW310571   3.958   3.190   4.280
 2635SOL    MW410572   4.035   3.224   4.304
 2636SOL     OW10573   3.995   3.494   4.235
 2636SOL    HW210574   4.019   3.406   4.263
 2636SOL    HW310575   3.984   3.488   4.140
 2636SOL    MW410576   3.996   3.482   4.226
 2637SOL     OW10577   4.249   3.608   4.254
 2637SOL    HW210578   4.239   3.689   4.205
 2637SOL    HW310579   4.160   3.571   4.257
 2637SOL    MW410580   4.236   3.614   4.248
 2638SOL     OW10581   4.275   3.878   4.159
 2638SOL    HW210582   4.194   3.922   4.185
 2638SOL    HW310583   4.272   3.876   4.064
 2638SOL    MW410584   4.264   3.884   4.150
 2639SOL     OW10585   4.030   3.987   4.255
 2639SOL    HW210586   4.036   3.981   4.350
 2639SOL    HW310587   3.946   3.947   4.233
 2639SOL    MW410588   4.020   3.981   4.264
 2640SOL     OW10589   4.006   4.238   4.153
 2640SOL    HW210590   4.065   4.295   4.201
 2640SOL    HW310591   4.013   4.153   4.196
 2640SOL    MW410592   4.014   4.234   4.165
 2641SOL     OW10593   3.960   4.353   4.589
 2641SOL    HW210594   3.873   4.391   4.583
 2641SOL    HW310595   4.020   4.427   4.575
 2641SOL    MW410596   3.957   4.368   4.587
 2642SOL     OW10597   0.106   0.179   4.777
 2642SOL    HW210598   0.027   0.203   4.826
 2642SOL    HW310599   0.107   0.240   4.703
 2642SOL    MW410600   0.096   0.190   4.774
 2643SOL     OW10601   4.337   4.552   4.495
 2643SOL    HW210602   4.388   4.633   4.492
 2643SOL    HW310603   4.272   4.568   4.564
 2643SOL    MW410604   4.335   4.565   4.504
 2644SOL     OW10605   3.950   0.092   4.552
 2644SOL    HW210606   3.981   0.076   4.463
 2644SOL    HW310607   3.855   0.087   4.545
 2644SOL    MW410608   3.942   0.089   4.539
 2645SOL     OW10609   4.221   1.595   4.816
 2645SOL    HW210610   4.152   1.552   4.765
 2645SOL    HW310611   4.303   1.567   4.774
 2645SOL    MW410612   4.223   1.585   4.803
 2646SOL     OW10613   0.416   0.140   4.518
 2646SOL    HW210614   0.348   0.076   4.537
 2646SOL    HW310615   0.493   0.107   4.564
 2646SOL    MW410616   0.418   0.127   4.526
 2647SOL     OW10617   0.116   0.814   4.619
 2647SOL    HW210618   0.159   0.737   4.582
 2647SOL    HW310619   0.022   0.794   4.615
 2647SOL    MW410620   0.109   0.802   4.614
 2648SOL     OW10621   4.348   0.753   4.534
 2648SOL    HW210622   4.306   0.666   4.538
 2648SOL    HW310623   4.372   0.763   4.442
 2648SOL    MW410624   4.346   0.743   4.522
 2649SOL     OW10625   0.637   1.237   4.567
 2649SOL    HW210626   0.646   1.326   4.601
 2649SOL    HW310627   0.563   1.200   4.616
 2649SOL    MW410628   0.628   1.244   4.578
 2650SOL     OW10629   1.134   1.909   4.489
 2650SOL    HW210630   1.182   1.974   4.540
 2650SOL    HW310631   1.043   1.920   4.515
 2650SOL    MW410632   1.128   1.919   4.499
 2651SOL     OW10633   4.245   1.271   4.516
 2651SOL    HW210634   4.226   1.184   4.550
 2651SOL    HW310635   4.332   1.292   4.551
 2651SOL    MW410636   4.254   1.262   4.525
 2652SOL     OW10637   0.188   1.728   4.647
 2652SOL    HW210638   0.096   1.737   4.671
 2652SOL    HW310639   0.218   1.817   4.632
 2652SOL    MW410640   0.180   1.741   4.648
 2653SOL     OW10641   0.453   1.668   4.280
 2653SOL    HW210642   0.376   1.631   4.236
 2653SOL    HW310643   0.524   1.609   4.258
 2653SOL    MW410644   0.452   1.655   4.271
 2654SOL     OW10645   0.204   2.008   4.618
 2654SOL    HW210646   0.276   2.071   4.621
 2654SOL    HW310647   0.127   2.060   4.641
 2654SOL    MW410648   0.203   2.023   4.622
 2655SOL     OW10649   4.061   2.356   4.708
 2655SOL    HW210650   4.123   2.306   4.760
 2655SOL    HW310651   4.114   2.405   4.646
 2655SOL    MW410652   4.076   2.356   4.706
 2656SOL     OW10653   0.148   2.833   4.557
 2656SOL    HW210654   0.154   2.750   4.603
 2656SOL    HW310655   0.146   2.809   4.464
 2656SOL    MW410656   0.149   2.819   4.551
 2657SOL     OW10657   0.233   3.098   4.639
 2657SOL    HW210658   0.195   3.015   4.613
 2657SOL    HW310659   0.169   3.164   4.611
 2657SOL    MW410660   0.220   3.096   4.632
 2658SOL     OW10661   4.471   2.443   4.568
 2658SOL    HW210662   4.501   2.450   4.478
 2658SOL    HW310663   4.533   2.497   4.618
 2658SOL    MW410664   4.483   2.451   4.563
 2659SOL     OW10665   4.221   3.398   4.640
 2659SOL    HW210666   4.312   3.369   4.640
 2659SOL    HW310667   4.172   3.320   4.613
 2659SOL    MW410668   4.227   3.384   4.636
 2660SOL     OW10669   0.015   3.259   4.551
 2660SOL    HW210670  -0.008   3.261   4.459
 2660SOL    HW310671   0.028   3.350   4.575
 2660SOL    MW410672   0.014   3.271   4.542
 2661SOL     OW10673   4.284   3.905   4.580
 2661SOL    HW210674   4.193   3.908   4.551
 2661SOL    HW310675   4.317   3.821   4.548
 2661SOL    MW410676   4.277   3.894   4.572
 2662SOL     OW10677   0.013   0.109   4.461
 2662SOL    HW210678   0.029   0.202   4.474
 2662SOL    HW310679   0.091   0.066   4.496
 2662SOL    MW410680   0.025   0.115   4.467
 2663SOL     OW10681   3.768   0.526   4.543
 2663SOL    HW210682   3.687   0.514   4.594
 2663SOL    HW310683   3.775   0.620   4.531
 2663SOL    MW410684   3.758   0.537   4.548
 2664SOL     OW10685   4.084   3.571   4.830
 2664SOL    HW210686   4.112   3.662   4.823
 2664SOL    HW310687   4.134   3.525   4.762
 2664SOL    MW410688   4.094   3.577   4.820
 2665SOL     OW10689   3.987   4.113   4.728
 2665SOL    HW210690   3.989   4.203   4.697
 2665SOL    HW310691   3.898   4.101   4.761
 2665SOL    MW410692   3.975   4.123   4.728
 2666SOL     OW10693   0.654   0.015   4.648
 2666SOL    HW210694   0.731   0.046   4.600
 2666SOL    HW310695   0.674   0.035   4.739
 2666SOL    MW410696   0.667   0.022   4.654
 2667SOL     OW10697   0.157   1.011   4.831
 2667SOL    HW210698   0.144   0.935   4.775
 2667SOL    HW310699   0.083   1.009   4.892
 2667SOL    MW410700   0.145   1.001   4.831
 2668SOL     OW10701   1.348   0.942   4.710
 2668SOL    HW210702   1.327   0.915   4.800
 2668SOL    HW310703   1.273   0.913   4.658
 2668SOL    MW410704   1.335   0.935   4.715
 2669SOL     OW10705   0.500   0.484   4.514
 2669SOL    HW210706   0.506   0.390   4.533
 2669SOL    HW310707   0.540   0.493   4.427
 2669SOL    MW410708   0.506   0.473   4.505
 2670SOL     OW10709   1.170   0.772   4.535
 2670SOL    HW210710   1.231   0.798   4.466
 2670SOL    HW310711   1.091   0.823   4.517
 2670SOL    MW410712   1.167   0.782   4.523
 2671SOL     OW10713   0.417   0.889   4.586
 2671SOL    HW210714   0.329   0.891   4.623
 2671SOL    HW310715   0.403   0.882   4.491
 2671SOL    MW410716   0.403   0.889   4.578
 2672SOL     OW10717   2.027   1.156   4.542
 2672SOL    HW210718   2.047   1.177   4.451
 2672SOL    HW310719   2.088   1.208   4.593
 2672SOL    MW410720   2.038   1.166   4.537
 2673SOL     OW10721   0.398   1.571   4.551
 2673SOL    HW210722   0.330   1.621   4.597
 2673SOL    HW310723   0.420   1.625   4.475
 2673SOL    MW410724   0.392   1.585   4.547
 2674SOL     OW10725   1.337   1.224   4.668
 2674SOL    HW210726   1.330   1.130   4.682
 2674SOL    HW310727   1.257   1.248   4.622
 2674SOL    MW410728   1.326   1.215   4.664
 2675SOL     OW10729   0.923   1.497   4.509
 2675SOL    HW210730   0.845   1.492   4.564
 2675SOL    HW310731   0.978   1.563   4.551
 2675SOL    MW410732   0.920   1.505   4.522
 2676SOL     OW10733   0.676   2.116   4.549
 2676SOL    HW210734   0.719   2.200   4.532
 2676SOL    HW310735   0.747   2.057   4.574
 2676SOL    MW410736   0.691   2.119   4.550
 2677SOL     OW10737   1.132   1.661   4.598
 2677SOL    HW210738   1.215   1.615   4.605
 2677SOL    HW310739   1.154   1.746   4.559
 2677SOL    MW410740   1.146   1.666   4.594
 2678SOL     OW10741   0.400   2.191   4.630
 2678SOL    HW210742   0.484   2.149   4.648
 2678SOL    HW310743   0.424   2.278   4.597
 2678SOL    MW410744   0.415   2.197   4.628
 2679SOL     OW10745   1.103   2.665   4.662
 2679SOL    HW210746   1.084   2.749   4.618
 2679SOL    HW310747   1.191   2.676   4.697
 2679SOL    MW410748   1.112   2.678   4.661
 2680SOL     OW10749   0.678   2.561   4.657
 2680SOL    HW210750   0.713   2.519   4.735
 2680SOL    HW310751   0.711   2.508   4.584
 2680SOL    MW410752   0.687   2.548   4.657
 2681SOL     OW10753   1.182   3.157   4.546
 2681SOL    HW210754   1.149   3.233   4.594
 2681SOL    HW310755   1.215   3.193   4.463
 2681SOL    MW410756   1.182   3.172   4.541
 2682SOL     OW10757   0.443   3.207   4.495
 2682SOL    HW210758   0.431   3.294   4.534
 2682SOL    HW310759   0.378   3.153   4.540
 2682SOL    MW410760   0.433   3.212   4.506
 2683SOL     OW10761   1.269   4.430   4.530
 2683SOL    HW210762   1.229   4.389   4.606
 2683SOL    HW310763   1.361   4.404   4.535
 2683SOL    MW410764   1.276   4.421   4.540
 2684SOL     OW10765   0.200   2.550   4.677
 2684SOL    HW210766   0.271   2.516   4.622
 2684SOL    HW310767   0.212   2.505   4.761
 2684SOL    MW410768   0.211   2.540   4.681
 2685SOL     OW10769   4.319   3.630   4.515
 2685SOL    HW210770   4.257   3.566   4.551
 2685SOL    HW310771   4.300   3.631   4.421
 2685SOL    MW410772   4.308   3.622   4.507
 2686SOL     OW10773   0.838   4.018   4.599
 2686SOL    HW210774   0.841   4.017   4.504
 2686SOL    HW310775   0.753   4.057   4.621
 2686SOL    MW410776   0.827   4.023   4.590
 2687SOL     OW10777   0.088   4.377   4.507
 2687SOL    HW210778   0.071   4.282   4.502
 2687SOL    HW310779   0.001   4.416   4.515
 2687SOL    MW410780   0.074   4.369   4.508
 2688SOL     OW10781   0.013   4.087   4.475
 2688SOL    HW210782   0.083   4.025   4.494
 2688SOL    HW310783  -0.065   4.048   4.516
 2688SOL    MW410784   0.012   4.074   4.483
 2689SOL     OW10785   0.221   4.617   4.556
 2689SOL    HW210786   0.214   4.645   4.647
 2689SOL    HW310787   0.193   4.525   4.558
 2689SOL    MW410788   0.217   4.608   4.569
 2690SOL     OW10789   0.961   0.017   4.557
 2690SOL    HW210790   0.958  -0.078   4.555
 2690SOL    HW310791   0.926   0.044   4.472
 2690SOL    MW410792   0.956   0.008   4.546
 2691SOL     OW10793   0.913   4.401   4.581
 2691SOL    HW210794   0.951   4.314   4.567
 2691SOL    HW310795   0.822   4.391   4.555
 2691SOL    MW410796   0.906   4.388   4.576
 2692SOL     OW10797   0.619   0.708   4.637
 2692SOL    HW210798   0.547   0.768   4.619
 2692SOL    HW310799   0.582   0.621   4.626
 2692SOL    MW410800   0.605   0.704   4.633
 2693SOL     OW10801   1.619   0.917   4.616
 2693SOL    HW210802   1.537   0.914   4.666
 2693SOL    HW310803   1.680   0.964   4.674
 2693SOL    MW410804   1.616   0.923   4.630
 2694SOL     OW10805   1.702   0.689   4.498
 2694SOL    HW210806   1.659   0.745   4.563
 2694SOL    HW310807   1.715   0.746   4.422
 2694SOL    MW410808   1.698   0.704   4.497
 2695SOL     OW10809   0.385   1.158   4.690
 2695SOL    HW210810   0.403   1.081   4.636
 2695SOL    HW310811   0.318   1.130   4.752
 2695SOL    MW410812   0.378   1.144   4.691
 2696SOL     OW10813   0.896   1.940   4.602
 2696SOL    HW210814   0.939   2.011   4.650
 2696SOL    HW310815   0.881   1.872   4.667
 2696SOL    MW410816   0.900   1.941   4.617
 2697SOL     OW10817   0.907   1.102   4.619
 2697SOL    HW210818   0.821   1.144   4.613
 2697SOL    HW310819   0.889   1.009   4.610
 2697SOL    MW410820   0.893   1.095   4.617
 2698SOL     OW10821   1.824   1.095   4.747
 2698SOL    HW210822   1.822   1.162   4.815
 2698SOL    HW310823   1.862   1.139   4.670
 2698SOL    MW410824   1.829   1.109   4.746
 2699SOL     OW10825   1.099   1.283   4.526
 2699SOL    HW210826   1.041   1.211   4.552
 2699SOL    HW310827   1.040   1.358   4.513
 2699SOL    MW410828   1.083   1.283   4.528
 2700SOL     OW10829   1.041   2.406   4.612
 2700SOL    HW210830   1.059   2.498   4.631
 2700SOL    HW310831   1.094   2.386   4.535
 2700SOL    MW410832   1.050   2.415   4.604
 2701SOL     OW10833   1.369   2.723   4.710
 2701SOL    HW210834   1.409   2.643   4.677
 2701SOL    HW310835   1.443   2.779   4.734
 2701SOL    MW410836   1.384   2.720   4.709
 2702SOL     OW10837   1.526   2.914   4.360
 2702SOL    HW210838   1.621   2.908   4.351
 2702SOL    HW310839   1.511   2.951   4.446
 2702SOL    MW410840   1.537   2.918   4.370
 2703SOL     OW10841   1.212   3.442   4.629
 2703SOL    HW210842   1.205   3.475   4.719
 2703SOL    HW310843   1.298   3.400   4.626
 2703SOL    MW410844   1.223   3.441   4.641
 2704SOL     OW10845   0.754   2.906   4.552
 2704SOL    HW210846   0.848   2.887   4.545
 2704SOL    HW310847   0.723   2.848   4.622
 2704SOL    MW410848   0.762   2.896   4.561
 2705SOL     OW10849   0.476   3.925   4.488
 2705SOL    HW210850   0.488   4.007   4.537
 2705SOL    HW310851   0.490   3.949   4.397
 2705SOL    MW410852   0.480   3.939   4.483
 2706SOL     OW10853   1.028   2.883   4.513
 2706SOL    HW210854   1.074   2.868   4.430
 2706SOL    HW310855   1.062   2.966   4.545
 2706SOL    MW410856   1.039   2.892   4.506
 2707SOL     OW10857   0.724   3.192   4.541
 2707SOL    HW210858   0.631   3.213   4.552
 2707SOL    HW310859   0.728   3.097   4.551
 2707SOL    MW410860   0.712   3.182   4.544
 2708SOL     OW10861   1.673   3.666   4.552
 2708SOL    HW210862   1.758   3.703   4.575
 2708SOL    HW310863   1.688   3.572   4.549
 2708SOL    MW410864   1.686   3.659   4.554
 2709SOL     OW10865   0.384   3.473   4.594
 2709SOL    HW210866   0.437   3.540   4.552
 2709SOL    HW310867   0.406   3.479   4.687
 2709SOL    MW410868   0.394   3.483   4.601
 2710SOL     OW10869   0.210   3.876   4.519
 2710SOL    HW210870   0.303   3.898   4.515
 2710SOL    HW310871   0.204   3.791   4.475
 2710SOL    MW410872   0.221   3.868   4.513
 2711SOL     OW10873   0.588   4.144   4.645
 2711SOL    HW210874   0.602   4.217   4.584
 2711SOL    HW310875   0.577   4.187   4.730
 2711SOL    MW410876   0.588   4.160   4.648
 2712SOL     OW10877   0.643   4.398   4.519
 2712SOL    HW210878   0.638   4.489   4.550
 2712SOL    HW310879   0.643   4.406   4.423
 2712SOL    MW410880   0.642   4.411   4.510
 2713SOL     OW10881   1.916   3.893   4.886
 2713SOL    HW210882   1.926   3.839   4.808
 2713SOL    HW310883   1.847   3.850   4.937
 2713SOL    MW410884   1.908   3.880   4.883
 2714SOL     OW10885   1.549   4.347   4.509
 2714SOL    HW210886   1.592   4.279   4.560
 2714SOL    HW310887   1.552   4.315   4.419
 2714SOL    MW410888   1.555   4.334   4.504
 2715SOL     OW10889   1.091   4.168   4.592
 2715SOL    HW210890   1.153   4.101   4.566
 2715SOL    HW310891   1.014   4.120   4.622
 2715SOL    MW410892   1.089   4.153   4.593
 2716SOL     OW10893   1.068   0.480   4.509
 2716SOL    HW210894   1.096   0.570   4.527
 2716SOL    HW310895   0.973   0.481   4.525
 2716SOL    MW410896   1.059   0.492   4.513
 2717SOL     OW10897   1.723   4.564   4.482
 2717SOL    HW210898   1.657   4.495   4.488
 2717SOL    HW310899   1.806   4.517   4.473
 2717SOL    MW410900   1.725   4.549   4.482
 2718SOL     OW10901   1.335   0.331   4.573
 2718SOL    HW210902   1.255   0.383   4.582
 2718SOL    HW310903   1.305   0.241   4.564
 2718SOL    MW410904   1.321   0.326   4.573
 2719SOL     OW10905   1.854   1.589   4.559
 2719SOL    HW210906   1.810   1.509   4.586
 2719SOL    HW310907   1.838   1.594   4.465
 2719SOL    MW410908   1.846   1.579   4.550
 2720SOL     OW10909   0.866   0.837   4.566
 2720SOL    HW210910   0.864   0.841   4.470
 2720SOL    HW310911   0.783   0.796   4.590
 2720SOL    MW410912   0.855   0.832   4.556
 2721SOL     OW10913   1.999   0.375   4.552
 2721SOL    HW210914   2.089   0.349   4.573
 2721SOL    HW310915   1.952   0.292   4.544
 2721SOL    MW410916   2.005   0.360   4.554
 2722SOL     OW10917   1.565   1.192   4.513
 2722SOL    HW210918   1.478   1.206   4.550
 2722SOL    HW310919   1.585   1.101   4.533
 2722SOL    MW410920   1.556   1.182   4.520
 2723SOL     OW10921   1.427   1.595   4.592
 2723SOL    HW210922   1.491   1.526   4.608
 2723SOL    HW310923   1.417   1.597   4.497
 2723SOL    MW410924   1.435   1.586   4.582
 2724SOL     OW10925   1.445   3.098   4.604
 2724SOL    HW210926   1.350   3.111   4.592
 2724SOL    HW310927   1.452   3.034   4.674
 2724SOL    MW410928   1.433   3.091   4.611
 2725SOL     OW10929   2.216   2.425   4.321
 2725SOL    HW210930   2.291   2.416   4.263
 2725SOL    HW310931   2.210   2.519   4.338
 2725SOL    MW410932   2.225   2.436   4.316
 2726SOL     OW10933   0.791   2.372   4.467
 2726SOL    HW210934   0.868   2.396   4.518
 2726SOL    HW310935   0.807   2.409   4.380
 2726SOL    MW410936   0.803   2.380   4.462
 2727SOL     OW10937   1.237   3.941   4.507
 2727SOL    HW210938   1.181   3.869   4.538
 2727SOL    HW310939   1.320   3.926   4.551
 2727SOL    MW410940   1.240   3.929   4.517
 2728SOL     OW10941   1.191   2.362   4.373
 2728SOL    HW210942   1.257   2.421   4.336
 2728SOL    HW310943   1.240   2.282   4.394
 2728SOL    MW410944   1.206   2.360   4.371
 2729SOL     OW10945   1.460   2.246   4.579
 2729SOL    HW210946   1.551   2.218   4.579
 2729SOL    HW310947   1.463   2.341   4.587
 2729SOL    MW410948   1.472   2.255   4.580
 2730SOL     OW10949   1.505   3.357   4.583
 2730SOL    HW210950   1.484   3.264   4.582
 2730SOL    HW310951   1.597   3.361   4.558
 2730SOL    MW410952   1.515   3.345   4.579
 2731SOL     OW10953   1.094   3.681   4.523
 2731SOL    HW210954   1.129   3.598   4.556
 2731SOL    HW310955   1.112   3.679   4.429
 2731SOL    MW410956   1.101   3.670   4.515
 2732SOL     OW10957   0.597   3.684   4.488
 2732SOL    HW210958   0.536   3.758   4.482
 2732SOL    HW310959   0.667   3.715   4.545
 2732SOL    MW410960   0.598   3.698   4.495
 2733SOL     OW10961   2.067   3.544   4.496
 2733SOL    HW210962   2.066   3.558   4.401
 2733SOL    HW310963   2.091   3.451   4.505
 2733SOL    MW410964   2.070   3.533   4.485
 2734SOL     OW10965   1.801   3.402   4.544
 2734SOL    HW210966   1.873   3.460   4.571
 2734SOL    HW310967   1.836   3.353   4.470
 2734SOL    MW410968   1.815   3.403   4.538
 2735SOL     OW10969   2.413   3.347   4.361
 2735SOL    HW210970   2.366   3.267   4.383
 2735SOL    HW310971   2.503   3.318   4.345
 2735SOL    MW410972   2.419   3.332   4.362
 2736SOL     OW10973   0.838   3.731   4.612
 2736SOL    HW210974   0.849   3.823   4.636
 2736SOL    HW310975   0.924   3.705   4.577
 2736SOL    MW410976   0.851   3.740   4.611
 2737SOL     OW10977   1.910   4.163   4.839
 2737SOL    HW210978   1.918   4.071   4.863
 2737SOL    HW310979   1.964   4.210   4.904
 2737SOL    MW410980   1.918   4.157   4.851
 2738SOL     OW10981   2.284   0.356   4.613
 2738SOL    HW210982   2.311   0.437   4.570
 2738SOL    HW310983   2.314   0.366   4.703
 2738SOL    MW410984   2.291   0.368   4.619
 2739SOL     OW10985   1.253   0.035   4.497
 2739SOL    HW210986   1.180   0.049   4.557
 2739SOL    HW310987   1.267  -0.060   4.498
 2739SOL    MW410988   1.245   0.025   4.505
 2740SOL     OW10989   1.807   0.167   4.500
 2740SOL    HW210990   1.748   0.092   4.507
 2740SOL    HW310991   1.751   0.243   4.513
 2740SOL    MW410992   1.792   0.167   4.502
 2741SOL     OW10993   2.371   0.111   4.522
 2741SOL    HW210994   2.321   0.122   4.441
 2741SOL    HW310995   2.343   0.184   4.577
 2741SOL    MW410996   2.361   0.122   4.519
 2742SOL     OW10997   1.992   0.647   4.495
 2742SOL    HW210998   1.997   0.555   4.520
 2742SOL    HW310999   1.899   0.667   4.499
 2742SOL    MW411000   1.980   0.637   4.499
 2743SOL     OW11001   1.593   0.414   4.496
 2743SOL    HW211002   1.616   0.506   4.503
 2743SOL    HW311003   1.503   0.409   4.530
 2743SOL    MW411004   1.584   0.425   4.501
 2744SOL     OW11005   2.113   1.546   4.613
 2744SOL    HW211006   2.156   1.469   4.651
 2744SOL    HW311007   2.026   1.514   4.588
 2744SOL    MW411008   2.107   1.531   4.615
 2745SOL     OW11009   0.915   1.694   4.762
 2745SOL    HW211010   1.003   1.692   4.725
 2745SOL    HW311011   0.921   1.639   4.841
 2745SOL    MW411012   0.927   1.687   4.768
 2746SOL     OW11013   1.674   1.407   4.643
 2746SOL    HW211014   1.639   1.335   4.591
 2746SOL    HW311015   1.635   1.396   4.729
 2746SOL    MW411016   1.664   1.396   4.647
 2747SOL     OW11017   1.026   2.140   4.740
 2747SOL    HW211018   1.119   2.119   4.747
 2747SOL    HW311019   1.025   2.232   4.712
 2747SOL    MW411020   1.038   2.149   4.737
 2748SOL     OW11021   1.465   1.879   4.564
 2748SOL    HW211022   1.555   1.882   4.531
 2748SOL    HW311023   1.450   1.787   4.583
 2748SOL    MW411024   1.475   1.867   4.562
 2749SOL     OW11025   2.027   2.066   4.177
 2749SOL    HW211026   1.952   2.007   4.190
 2749SOL    HW311027   1.987   2.151   4.155
 2749SOL    MW411028   2.012   2.069   4.176
 2750SOL     OW11029   1.279   2.061   4.668
 2750SOL    HW211030   1.353   2.000   4.667
 2750SOL    HW311031   1.319   2.147   4.665
 2750SOL    MW411032   1.294   2.064   4.668
 2751SOL     OW11033   2.365   3.039   4.443
 2751SOL    HW211034   2.393   3.011   4.356
 2751SOL    HW311035   2.278   3.001   4.454
 2751SOL    MW411036   2.357   3.030   4.433
 2752SOL     OW11037   1.617   2.862   4.681
 2752SOL    HW211038   1.697   2.914   4.681
 2752SOL    HW311039   1.641   2.780   4.638
 2752SOL    MW411040   1.630   2.858   4.675
 2753SOL     OW11041   1.878   3.977   4.517
 2753SOL    HW211042   1.847   3.986   4.427
 2753SOL    HW311043   1.923   4.060   4.535
 2753SOL    MW411044   1.880   3.989   4.507
 2754SOL     OW11045   2.517   3.165   4.646
 2754SOL    HW211046   2.608   3.163   4.616
 2754SOL    HW311047   2.466   3.134   4.572
 2754SOL    MW411048   2.522   3.161   4.632
 2755SOL     OW11049   2.140   3.281   4.535
 2755SOL    HW211050   2.116   3.215   4.470
 2755SOL    HW311051   2.148   3.233   4.617
 2755SOL    MW411052   2.138   3.266   4.537
 2756SOL     OW11053   2.644   3.906   4.468
 2756SOL    HW211054   2.625   3.837   4.405
 2756SOL    HW311055   2.657   3.984   4.415
 2756SOL    MW411056   2.643   3.907   4.453
 2757SOL     OW11057   2.410   3.866   4.605
 2757SOL    HW211058   2.380   3.781   4.573
 2757SOL    HW311059   2.491   3.883   4.557
 2757SOL    MW411060   2.416   3.857   4.594
 2758SOL     OW11061   2.350   3.585   4.481
 2758SOL    HW211062   2.258   3.590   4.507
 2758SOL    HW311063   2.357   3.501   4.436
 2758SOL    MW411064   2.339   3.574   4.478
 2759SOL     OW11065   1.914   3.735   4.660
 2759SOL    HW211066   1.989   3.684   4.629
 2759SOL    HW311067   1.919   3.817   4.612
 2759SOL    MW411068   1.924   3.739   4.649
 2760SOL     OW11069   2.033   4.209   4.581
 2760SOL    HW211070   2.126   4.184   4.583
 2760SOL    HW311071   2.007   4.209   4.673
 2760SOL    MW411072   2.042   4.205   4.594
 2761SOL     OW11073   1.673   4.139   4.651
 2761SOL    HW211074   1.709   4.155   4.738
 2761SOL    HW311075   1.732   4.075   4.612
 2761SOL    MW411076   1.686   4.133   4.657
 2762SOL     OW11077   1.981   4.464   4.494
 2762SOL    HW211078   2.005   4.375   4.520
 2762SOL    HW311079   2.060   4.516   4.513
 2762SOL    MW411080   1.995   4.459   4.500
 2763SOL     OW11081   2.265   4.525   4.548
 2763SOL    HW211082   2.345   4.481   4.578
 2763SOL    HW311083   2.292   4.615   4.530
 2763SOL    MW411084   2.279   4.531   4.549
 2764SOL     OW11085   1.504   1.389   4.869
 2764SOL    HW211086   1.464   1.472   4.841
 2764SOL    HW311087   1.441   1.322   4.842
 2764SOL    MW411088   1.490   1.391   4.861
 2765SOL     OW11089   2.665   0.104   4.479
 2765SOL    HW211090   2.571   0.084   4.479
 2765SOL    HW311091   2.683   0.132   4.390
 2765SOL    MW411092   2.655   0.105   4.467
 2766SOL     OW11093   2.397   0.821   4.603
 2766SOL    HW211094   2.310   0.852   4.579
 2766SOL    HW311095   2.456   0.894   4.580
 2766SOL    MW411096   2.394   0.835   4.597
 2767SOL     OW11097   2.876   0.674   4.565
 2767SOL    HW211098   2.955   0.728   4.557
 2767SOL    HW311099   2.907   0.585   4.552
 2767SOL    MW411100   2.890   0.670   4.562
 2768SOL     OW11101   2.235   1.290   4.666
 2768SOL    HW211102   2.250   1.217   4.725
 2768SOL    HW311103   2.313   1.292   4.610
 2768SOL    MW411104   2.247   1.281   4.666
 2769SOL     OW11105   2.485   1.304   4.524
 2769SOL    HW211106   2.556   1.245   4.550
 2769SOL    HW311107   2.506   1.387   4.567
 2769SOL    MW411108   2.498   1.307   4.533
 2770SOL     OW11109   2.543   1.592   4.622
 2770SOL    HW211110   2.611   1.614   4.558
 2770SOL    HW311111   2.469   1.649   4.599
 2770SOL    MW411112   2.542   1.602   4.610
 2771SOL     OW11113   2.310   1.725   4.516
 2771SOL    HW211114   2.288   1.719   4.424
 2771SOL    HW311115   2.246   1.670   4.560
 2771SOL    MW411116   2.299   1.717   4.510
 2772SOL     OW11117   2.149   2.165   4.413
 2772SOL    HW211118   2.183   2.251   4.386
 2772SOL    HW311119   2.125   2.122   4.331
 2772SOL    MW411120   2.150   2.171   4.398
 2773SOL     OW11121   2.337   2.011   4.545
 2773SOL    HW211122   2.312   1.919   4.532
 2773SOL    HW311123   2.270   2.060   4.498
 2773SOL    MW411124   2.325   2.005   4.537
 2774SOL     OW11125   2.711   2.446   4.485
 2774SOL    HW211126   2.628   2.474   4.523
 2774SOL    HW311127   2.774   2.512   4.513
 2774SOL    MW411128   2.709   2.458   4.494
 2775SOL     OW11129   1.754   2.655   4.593
 2775SOL    HW211130   1.827   2.682   4.538
 2775SOL    HW311131   1.793   2.642   4.680
 2775SOL    MW411132   1.768   2.657   4.598
 2776SOL     OW11133   2.125   3.052   4.738
 2776SOL    HW211134   2.031   3.034   4.742
 2776SOL    HW311135   2.155   3.006   4.660
 2776SOL    MW411136   2.116   3.043   4.728
 2777SOL     OW11137   2.593   3.437   4.596
 2777SOL    HW211138   2.567   3.347   4.615
 2777SOL    HW311139   2.515   3.476   4.555
 2777SOL    MW411140   2.579   3.430   4.593
 2778SOL     OW11141   2.389   3.015   4.855
 2778SOL    HW211142   2.423   3.070   4.784
 2778SOL    HW311143   2.294   3.026   4.848
 2778SOL    MW411144   2.381   3.024   4.845
 2779SOL     OW11145   1.489   3.888   4.601
 2779SOL    HW211146   1.561   3.950   4.592
 2779SOL    HW311147   1.528   3.803   4.581
 2779SOL    MW411148   1.504   3.885   4.597
 2780SOL     OW11149   2.732   4.207   4.545
 2780SOL    HW211150   2.643   4.238   4.558
 2780SOL    HW311151   2.732   4.117   4.579
 2780SOL    MW411152   2.720   4.199   4.551
 2781SOL     OW11153   1.874   2.982   4.629
 2781SOL    HW211154   1.930   2.915   4.589
 2781SOL    HW311155   1.893   3.062   4.579
 2781SOL    MW411156   1.884   2.984   4.617
 2782SOL     OW11157   3.480   3.879   4.907
 2782SOL    HW211158   3.437   3.964   4.901
 2782SOL    HW311159   3.465   3.851   4.997
 2782SOL    MW411160   3.472   3.887   4.918
 2783SOL     OW11161   3.146   3.922   4.586
 2783SOL    HW211162   3.061   3.883   4.606
 2783SOL    HW311163   3.209   3.851   4.600
 2783SOL    MW411164   3.143   3.907   4.591
 2784SOL     OW11165   2.296   4.125   4.565
 2784SOL    HW211166   2.332   4.041   4.595
 2784SOL    HW311167   2.257   4.105   4.480
 2784SOL    MW411168   2.296   4.111   4.558
 2785SOL     OW11169   2.491   4.324   4.559
 2785SOL    HW211170   2.422   4.260   4.573
 2785SOL    HW311171   2.485   4.346   4.466
 2785SOL    MW411172   2.481   4.319   4.548
 2786SOL     OW11173   2.989   0.430   4.513
 2786SOL    HW211174   2.958   0.443   4.423
 2786SOL    HW311175   3.074   0.475   4.516
 2786SOL    MW411176   2.997   0.438   4.501
 2787SOL     OW11177   2.827   0.263   4.672
 2787SOL    HW211178   2.758   0.217   4.623
 2787SOL    HW311179   2.884   0.300   4.605
 2787SOL    MW411180   2.825   0.262   4.657
 2788SOL     OW11181   3.195   0.186   4.492
 2788SOL    HW211182   3.143   0.125   4.544
 2788SOL    HW311183   3.143   0.266   4.489
 2788SOL    MW411184   3.182   0.189   4.498
 2789SOL     OW11185   2.668   0.890   4.498
 2789SOL    HW211186   2.725   0.820   4.530
 2789SOL    HW311187   2.668   0.880   4.403
 2789SOL    MW411188   2.675   0.879   4.490
 2790SOL     OW11189   3.371   0.619   4.809
 2790SOL    HW211190   3.416   0.554   4.755
 2790SOL    HW311191   3.317   0.567   4.869
 2790SOL    MW411192   3.370   0.604   4.810
 2791SOL     OW11193   2.132   0.889   4.530
 2791SOL    HW211194   2.074   0.965   4.530
 2791SOL    HW311195   2.073   0.813   4.525
 2791SOL    MW411196   2.116   0.889   4.529
 2792SOL     OW11197   2.688   1.145   4.602
 2792SOL    HW211198   2.773   1.185   4.584
 2792SOL    HW311199   2.696   1.056   4.570
 2792SOL    MW411200   2.700   1.139   4.595
 2793SOL     OW11201   2.911   1.294   4.535
 2793SOL    HW211202   2.908   1.383   4.571
 2793SOL    HW311203   2.934   1.306   4.443
 2793SOL    MW411204   2.914   1.307   4.527
 2794SOL     OW11205   2.925   1.607   4.594
 2794SOL    HW211206   2.863   1.652   4.537
 2794SOL    HW311207   2.882   1.604   4.679
 2794SOL    MW411208   2.912   1.612   4.597
 2795SOL     OW11209   2.737   1.734   4.424
 2795SOL    HW211210   2.697   1.821   4.431
 2795SOL    HW311211   2.720   1.707   4.334
 2795SOL    MW411212   2.729   1.742   4.413
 2796SOL     OW11213   2.596   1.983   4.453
 2796SOL    HW211214   2.654   2.052   4.487
 2796SOL    HW311215   2.513   1.996   4.499
 2796SOL    MW411216   2.593   1.994   4.464
 2797SOL     OW11217   2.812   2.165   4.483
 2797SOL    HW211218   2.793   2.258   4.474
 2797SOL    HW311219   2.858   2.142   4.402
 2797SOL    MW411220   2.815   2.174   4.471
 2798SOL     OW11221   3.047   2.191   4.606
 2798SOL    HW211222   3.013   2.239   4.682
 2798SOL    HW311223   2.969   2.171   4.555
 2798SOL    MW411224   3.032   2.195   4.610
 2799SOL     OW11225   2.426   2.801   4.672
 2799SOL    HW211226   2.415   2.867   4.741
 2799SOL    HW311227   2.366   2.828   4.603
 2799SOL    MW411228   2.417   2.813   4.672
 2800SOL     OW11229   3.394   3.086   4.687
 2800SOL    HW211230   3.390   2.993   4.665
 2800SOL    HW311231   3.487   3.109   4.677
 2800SOL    MW411232   3.406   3.077   4.683
 2801SOL     OW11233   2.713   2.883   4.676
 2801SOL    HW211234   2.627   2.863   4.640
 2801SOL    HW311235   2.704   2.867   4.770
 2801SOL    MW411236   2.700   2.878   4.684
 2802SOL     OW11237   2.853   3.548   4.607
 2802SOL    HW211238   2.766   3.519   4.633
 2802SOL    HW311239   2.913   3.492   4.656
 2802SOL    MW411240   2.849   3.537   4.617
 2803SOL     OW11241   2.784   3.153   4.565
 2803SOL    HW211242   2.869   3.192   4.583
 2803SOL    HW311243   2.783   3.073   4.617
 2803SOL    MW411244   2.795   3.148   4.574
 2804SOL     OW11245   2.817   4.506   4.529
 2804SOL    HW211246   2.759   4.430   4.539
 2804SOL    HW311247   2.758   4.581   4.522
 2804SOL    MW411248   2.802   4.506   4.529
 2805SOL     OW11249   3.399   3.791   4.645
 2805SOL    HW211250   3.423   3.700   4.628
 2805SOL    HW311251   3.432   3.808   4.734
 2805SOL    MW411252   3.407   3.781   4.655
 2806SOL     OW11253   3.881   3.728   4.667
 2806SOL    HW211254   3.924   3.683   4.740
 2806SOL    HW311255   3.817   3.665   4.635
 2806SOL    MW411256   3.878   3.713   4.673
 2807SOL     OW11257   2.893   3.815   4.618
 2807SOL    HW211258   2.828   3.839   4.552
 2807SOL    HW311259   2.882   3.721   4.631
 2807SOL    MW411260   2.883   3.806   4.611
 2808SOL     OW11261   3.031   4.262   4.559
 2808SOL    HW211262   2.937   4.279   4.565
 2808SOL    HW311263   3.039   4.168   4.549
 2808SOL    MW411264   3.020   4.252   4.559
 2809SOL     OW11265   3.007   0.037   4.630
 2809SOL    HW211266   2.965  -0.048   4.613
 2809SOL    HW311267   2.937   0.091   4.666
 2809SOL    MW411268   2.992   0.033   4.633
 2810SOL     OW11269   3.251   0.525   4.473
 2810SOL    HW211270   3.266   0.527   4.378
 2810SOL    HW311271   3.277   0.611   4.504
 2810SOL    MW411272   3.257   0.536   4.464
 2811SOL     OW11273   2.425   0.570   4.513
 2811SOL    HW211274   2.500   0.524   4.551
 2811SOL    HW311275   2.425   0.656   4.555
 2811SOL    MW411276   2.435   0.575   4.524
 2812SOL     OW11277   2.163   1.059   4.807
 2812SOL    HW211278   2.240   1.007   4.783
 2812SOL    HW311279   2.089   1.003   4.788
 2812SOL    MW411280   2.164   1.045   4.801
 2813SOL     OW11281   2.668   0.498   4.651
 2813SOL    HW211282   2.732   0.569   4.651
 2813SOL    HW311283   2.717   0.420   4.677
 2813SOL    MW411284   2.683   0.497   4.654
 2814SOL     OW11285   3.322   0.772   4.583
 2814SOL    HW211286   3.390   0.838   4.574
 2814SOL    HW311287   3.340   0.730   4.667
 2814SOL    MW411288   3.333   0.775   4.593
 2815SOL     OW11289   3.332   1.235   4.501
 2815SOL    HW211290   3.253   1.211   4.549
 2815SOL    HW311291   3.396   1.167   4.525
 2815SOL    MW411292   3.330   1.223   4.511
 2816SOL     OW11293   2.751   1.582   4.815
 2816SOL    HW211294   2.733   1.585   4.909
 2816SOL    HW311295   2.664   1.578   4.775
 2816SOL    MW411296   2.737   1.582   4.822
 2817SOL     OW11297   3.934   0.960   4.671
 2817SOL    HW211298   4.006   0.981   4.612
 2817SOL    HW311299   3.977   0.931   4.751
 2817SOL    MW411300   3.950   0.959   4.674
 2818SOL     OW11301   3.392   1.504   4.528
 2818SOL    HW211302   3.322   1.569   4.539
 2818SOL    HW311303   3.346   1.420   4.522
 2818SOL    MW411304   3.377   1.502   4.528
 2819SOL     OW11305   3.188   1.719   4.568
 2819SOL    HW211306   3.189   1.796   4.624
 2819SOL    HW311307   3.102   1.680   4.582
 2819SOL    MW411308   3.177   1.724   4.577
 2820SOL     OW11309   3.246   2.012   4.622
 2820SOL    HW211310   3.168   2.067   4.629
 2820SOL    HW311311   3.279   2.028   4.533
 2820SOL    MW411312   3.240   2.021   4.611
 2821SOL     OW11313   3.726   1.846   4.512
 2821SOL    HW211314   3.660   1.869   4.578
 2821SOL    HW311315   3.711   1.752   4.496
 2821SOL    MW411316   3.715   1.836   4.519
 2822SOL     OW11317   2.906   2.707   4.537
 2822SOL    HW211318   2.848   2.755   4.596
 2822SOL    HW311319   2.990   2.704   4.583
 2822SOL    MW411320   2.910   2.713   4.551
 2823SOL     OW11321   3.490   2.383   4.526
 2823SOL    HW211322   3.399   2.364   4.549
 2823SOL    HW311323   3.507   2.469   4.565
 2823SOL    MW411324   3.480   2.392   4.535
 2824SOL     OW11325   3.193   2.416   4.527
 2824SOL    HW211326   3.169   2.430   4.435
 2824SOL    HW311327   3.161   2.328   4.546
 2824SOL    MW411328   3.186   2.406   4.517
 2825SOL     OW11329   3.607   2.617   4.626
 2825SOL    HW211330   3.659   2.673   4.567
 2825SOL    HW311331   3.672   2.578   4.685
 2825SOL    MW411332   3.622   2.619   4.626
 2826SOL     OW11333   3.015   3.281   4.678
 2826SOL    HW211334   3.101   3.269   4.638
 2826SOL    HW311335   3.022   3.239   4.764
 2826SOL    MW411336   3.027   3.274   4.684
 2827SOL     OW11337   3.409   2.814   4.630
 2827SOL    HW211338   3.403   2.828   4.536
 2827SOL    HW311339   3.468   2.739   4.639
 2827SOL    MW411340   3.416   2.806   4.619
 2828SOL     OW11341   4.213   2.541   4.542
 2828SOL    HW211342   4.303   2.510   4.538
 2828SOL    HW311343   4.218   2.635   4.525
 2828SOL    MW411344   4.225   2.549   4.539
 2829SOL     OW11345   3.662   3.158   4.624
 2829SOL    HW211346   3.723   3.219   4.665
 2829SOL    HW311347   3.641   3.199   4.540
 2829SOL    MW411348   3.668   3.171   4.618
 2830SOL     OW11349   3.552   4.019   4.580
 2830SOL    HW211350   3.622   4.004   4.644
 2830SOL    HW311351   3.493   3.944   4.591
 2830SOL    MW411352   3.553   4.007   4.590
 2831SOL     OW11353   3.304   4.078   4.817
 2831SOL    HW211354   3.281   4.031   4.737
 2831SOL    HW311355   3.277   4.168   4.801
 2831SOL    MW411356   3.297   4.084   4.804
 2832SOL     OW11357   3.244   4.328   4.724
 2832SOL    HW211358   3.314   4.337   4.660
 2832SOL    HW311359   3.169   4.296   4.673
 2832SOL    MW411360   3.243   4.325   4.709
 2833SOL     OW11361   3.451   4.309   4.541
 2833SOL    HW211362   3.471   4.219   4.569
 2833SOL    HW311363   3.536   4.352   4.535
 2833SOL    MW411364   3.465   4.303   4.544
 2834SOL     OW11365   3.732   3.943   4.779
 2834SOL    HW211366   3.776   3.863   4.750
 2834SOL    HW311367   3.666   3.913   4.842
 2834SOL    MW411368   3.729   3.929   4.783
 2835SOL     OW11369   3.419   0.120   4.639
 2835SOL    HW211370   3.376   0.056   4.696
 2835SOL    HW311371   3.356   0.137   4.569
 2835SOL    MW411372   3.405   0.114   4.637
 2836SOL     OW11373   3.079   0.859   4.498
 2836SOL    HW211374   3.080   0.950   4.527
 2836SOL    HW311375   3.166   0.826   4.521
 2836SOL    MW411376   3.091   0.867   4.505
 2837SOL     OW11377   3.096   1.102   4.614
 2837SOL    HW211378   3.087   1.115   4.708
 2837SOL    HW311379   3.024   1.152   4.575
 2837SOL    MW411380   3.086   1.110   4.621
 2838SOL     OW11381   4.084   1.476   4.604
 2838SOL    HW211382   4.135   1.411   4.555
 2838SOL    HW311383   3.996   1.439   4.609
 2838SOL    MW411384   4.079   1.463   4.598
 2839SOL     OW11385   3.719   1.152   4.616
 2839SOL    HW211386   3.754   1.239   4.601
 2839SOL    HW311387   3.796   1.097   4.633
 2839SOL    MW411388   3.733   1.156   4.616
 2840SOL     OW11389   4.163   0.981   4.515
 2840SOL    HW211390   4.217   0.907   4.542
 2840SOL    HW311391   4.113   0.949   4.440
 2840SOL    MW411392   4.164   0.967   4.508
 2841SOL     OW11393   4.252   0.479   4.562
 2841SOL    HW211394   4.265   0.450   4.471
 2841SOL    HW311395   4.160   0.459   4.580
 2841SOL    MW411396   4.242   0.472   4.552
 2842SOL     OW11397   3.632   1.605   4.425
 2842SOL    HW211398   3.613   1.586   4.333
 2842SOL    HW311399   3.552   1.581   4.471
 2842SOL    MW411400   3.619   1.599   4.419
 2843SOL     OW11401   3.964   1.920   4.609
 2843SOL    HW211402   3.878   1.887   4.584
 2843SOL    HW311403   3.961   2.013   4.590
 2843SOL    MW411404   3.953   1.928   4.603
 2844SOL     OW11405   3.536   1.978   4.671
 2844SOL    HW211406   3.561   2.064   4.706
 2844SOL    HW311407   3.440   1.982   4.666
 2844SOL    MW411408   3.527   1.990   4.675
 2845SOL     OW11409   4.258   2.164   4.870
 2845SOL    HW211410   4.212   2.083   4.848
 2845SOL    HW311411   4.240   2.178   4.963
 2845SOL    MW411412   4.249   2.155   4.879
 2846SOL     OW11413   4.174   1.888   4.796
 2846SOL    HW211414   4.099   1.880   4.737
 2846SOL    HW311415   4.202   1.798   4.813
 2846SOL    MW411416   4.168   1.875   4.790
 2847SOL     OW11417   3.896   2.188   4.559
 2847SOL    HW211418   3.957   2.237   4.615
 2847SOL    HW311419   3.810   2.203   4.599
 2847SOL    MW411420   3.893   2.197   4.572
 2848SOL     OW11421   3.797   2.472   4.782
 2848SOL    HW211422   3.877   2.433   4.746
 2848SOL    HW311423   3.828   2.548   4.831
 2848SOL    MW411424   3.812   2.477   4.784
 2849SOL     OW11425   3.732   2.880   4.535
 2849SOL    HW211426   3.795   2.855   4.603
 2849SOL    HW311427   3.711   2.971   4.553
 2849SOL    MW411428   3.737   2.888   4.546
 2850SOL     OW11429   3.964   2.826   4.683
 2850SOL    HW211430   4.018   2.850   4.758
 2850SOL    HW311431   4.025   2.791   4.619
 2850SOL    MW411432   3.979   2.825   4.684
 2851SOL     OW11433   3.245   3.281   4.544
 2851SOL    HW211434   3.287   3.212   4.595
 2851SOL    HW311435   3.216   3.239   4.464
 2851SOL    MW411436   3.247   3.267   4.540
 2852SOL     OW11437   3.889   3.353   4.730
 2852SOL    HW211438   3.945   3.423   4.765
 2852SOL    HW311439   3.950   3.287   4.699
 2852SOL    MW411440   3.905   3.354   4.730
 2853SOL     OW11441   3.415   3.513   4.526
 2853SOL    HW211442   3.359   3.435   4.529
 2853SOL    HW311443   3.501   3.480   4.551
 2853SOL    MW411444   3.419   3.498   4.530
 2854SOL     OW11445   3.681   3.495   4.599
 2854SOL    HW211446   3.712   3.515   4.511
 2854SOL    HW311447   3.757   3.460   4.645
 2854SOL    MW411448   3.695   3.493   4.594
 2855SOL     OW11449   4.383   3.001   4.632
 2855SOL    HW211450   4.404   3.091   4.609
 2855SOL    HW311451   4.468   2.961   4.653
 2855SOL    MW411452   4.397   3.007   4.632
 2856SOL     OW11453   4.015   3.928   4.521
 2856SOL    HW211454   4.008   3.997   4.587
 2856SOL    HW311455   3.979   3.850   4.563
 2856SOL    MW411456   4.010   3.927   4.535
 2857SOL     OW11457   3.685   4.441   4.515
 2857SOL    HW211458   3.707   4.426   4.423
 2857SOL    HW311459   3.661   4.533   4.519
 2857SOL    MW411460   3.685   4.451   4.504
 2858SOL     OW11461   3.236   4.603   4.777
 2858SOL    HW211462   3.235   4.508   4.788
 2858SOL    HW311463   3.157   4.622   4.726
 2858SOL    MW411464   3.225   4.593   4.772
 2859SOL     OW11465   3.497   1.003   4.543
 2859SOL    HW211466   3.568   1.057   4.577
 2859SOL    HW311467   3.521   0.986   4.452
 2859SOL    MW411468   3.510   1.008   4.535
 2860SOL     OW11469   3.792   0.800   4.494
 2860SOL    HW211470   3.827   0.851   4.567
 2860SOL    HW311471   3.733   0.861   4.449
 2860SOL    MW411472   3.789   0.815   4.498
 2861SOL     OW11473   0.034   0.385   4.579
 2861SOL    HW211474   0.104   0.441   4.545
 2861SOL    HW311475  -0.039   0.445   4.595
 2861SOL    MW411476   0.034   0.400   4.577
 2862SOL     OW11477   0.224   0.576   4.514
 2862SOL    HW211478   0.314   0.546   4.527
 2862SOL    HW311479   0.201   0.544   4.426
 2862SOL    MW411480   0.233   0.567   4.504
 2863SOL     OW11481   3.998   0.360   4.644
 2863SOL    HW211482   3.988   0.270   4.615
 2863SOL    HW311483   3.911   0.399   4.630
 2863SOL    MW411484   3.985   0.353   4.638
 2864SOL     OW11485   3.812   1.416   4.503
 2864SOL    HW211486   3.827   1.366   4.423
 2864SOL    HW311487   3.740   1.476   4.480
 2864SOL    MW411488   3.804   1.418   4.489
 2865SOL     OW11489   4.481   1.403   4.622
 2865SOL    HW211490   4.570   1.379   4.594
 2865SOL    HW311491   4.476   1.498   4.609
 2865SOL    MW411492   4.492   1.412   4.616
 2866SOL     OW11493   0.243   1.340   4.522
 2866SOL    HW211494   0.291   1.282   4.581
 2866SOL    HW311495   0.286   1.425   4.531
 2866SOL    MW411496   0.255   1.344   4.531
 2867SOL     OW11497   4.122   1.728   4.498
 2867SOL    HW211498   4.094   1.649   4.545
 2867SOL    HW311499   4.065   1.797   4.531
 2867SOL    MW411500   4.111   1.726   4.509
 2868SOL     OW11501   3.162   2.673   4.664
 2868SOL    HW211502   3.245   2.720   4.652
 2868SOL    HW311503   3.174   2.591   4.616
 2868SOL    MW411504   3.175   2.668   4.656
 2869SOL     OW11505   4.259   2.088   4.258
 2869SOL    HW211506   4.187   2.032   4.227
 2869SOL    HW311507   4.274   2.059   4.348
 2869SOL    MW411508   4.251   2.077   4.266
 2870SOL     OW11509   4.489   2.179   4.691
 2870SOL    HW211510   4.430   2.178   4.766
 2870SOL    HW311511   4.488   2.269   4.660
 2870SOL    MW411512   4.481   2.190   4.696
 2871SOL     OW11513   4.297   2.018   4.538
 2871SOL    HW211514   4.283   1.950   4.605
 2871SOL    HW311515   4.372   2.068   4.571
 2871SOL    MW411516   4.305   2.016   4.551
 2872SOL     OW11517   3.638   2.240   4.693
 2872SOL    HW211518   3.584   2.297   4.638
 2872SOL    HW311519   3.667   2.298   4.765
 2872SOL    MW411520   3.635   2.255   4.695
 2873SOL     OW11521   0.424   2.468   4.576
 2873SOL    HW211522   0.429   2.459   4.481
 2873SOL    HW311523   0.501   2.519   4.599
 2873SOL    MW411524   0.435   2.474   4.566
 2874SOL     OW11525   4.227   2.816   4.512
 2874SOL    HW211526   4.279   2.881   4.560
 2874SOL    HW311527   4.239   2.838   4.420
 2874SOL    MW411528   4.235   2.828   4.506
 2875SOL     OW11529   4.065   3.165   4.586
 2875SOL    HW211530   4.051   3.183   4.493
 2875SOL    HW311531   4.067   3.070   4.592
 2875SOL    MW411532   4.064   3.155   4.575
 2876SOL     OW11533   0.068   3.511   4.608
 2876SOL    HW211534   0.148   3.559   4.588
 2876SOL    HW311535  -0.003   3.562   4.568
 2876SOL    MW411536   0.069   3.524   4.600
 2877SOL     OW11537   4.118   4.579   4.661
 2877SOL    HW211538   4.056   4.643   4.626
 2877SOL    HW311539   4.085   4.561   4.749
 2877SOL    MW411540   4.105   4.585   4.668
 2878SOL     OW11541   3.674   0.061   4.543
 2878SOL    HW211542   3.595   0.081   4.594
 2878SOL    HW311543   3.657   0.098   4.456
 2878SOL    MW411544   3.661   0.069   4.538
 2879SOL     OW11545   4.123   3.856   4.815
 2879SOL    HW211546   4.084   3.943   4.807
 2879SOL    HW311547   4.201   3.860   4.759
 2879SOL    MW411548   4.128   3.868   4.806
 2880SOL     OW11549   3.478   0.401   4.627
 2880SOL    HW211550   3.408   0.422   4.565
 2880SOL    HW311551   3.457   0.313   4.658
 2880SOL    MW411552   3.466   0.392   4.623
 2881SOL     OW11553   4.243   4.364   4.268
 2881SOL    HW211554   4.320   4.318   4.235
 2881SOL    HW311555   4.276   4.422   4.335
 2881SOL    MW411556   4.257   4.365   4.272
 2882NA      NA11557   2.557   4.341   0.536
 2883NA      NA11558   0.705   2.488   0.349
   4.49070   4.66690  10.00000
