Gromacs Runs On Most of All Computer Systems in water t= 420.00000 step= 420000
11558
    1RG35     P    1   2.146   2.779   4.479
    1RG35   O1P    2   2.161   2.689   4.362
    1RG35   O2P    3   2.061   2.898   4.454
    1RG35   O5'    4   2.071   2.686   4.587
    1RG35   C5'    5   1.981   2.743   4.683
    1RG35  H5'1    6   1.894   2.791   4.637
    1RG35  H5'2    7   2.034   2.822   4.737
    1RG35   C4'    8   1.933   2.630   4.771
    1RG35   H4'    9   1.855   2.659   4.842
    1RG35   O4'   10   1.872   2.527   4.691
    1RG35   C1'   11   1.935   2.406   4.719
    1RG35   H1'   12   1.878   2.359   4.799
    1RG35    N9   13   1.951   2.324   4.596
    1RG35    C8   14   2.033   2.349   4.487
    1RG35    H8   15   2.085   2.442   4.472
    1RG35    N7   16   2.050   2.250   4.405
    1RG35    C5   17   1.964   2.154   4.457
    1RG35    C6   18   1.934   2.021   4.416
    1RG35    O6   19   1.977   1.959   4.313
    1RG35    N1   20   1.839   1.957   4.489
    1RG35    H1   21   1.828   1.857   4.481
    1RG35    C2   22   1.788   2.010   4.602
    1RG35    N2   23   1.710   1.937   4.678
    1RG35   H21   24   1.671   1.850   4.645
    1RG35   H22   25   1.677   1.986   4.760
    1RG35    N3   26   1.809   2.132   4.645
    1RG35    C4   27   1.893   2.204   4.561
    1RG35   C3'   28   2.042   2.561   4.856
    1RG35   H3'   29   2.127   2.628   4.871
    1RG35   C2'   30   2.076   2.440   4.775
    1RG35  H2'1   31   2.149   2.463   4.698
    1RG35   O2'   32   2.125   2.327   4.853
    1RG35  HO'2   33   2.181   2.277   4.793
    1RG35   O3'   34   1.995   2.514   4.984
    1RG35   H3T   35   2.042   2.430   4.986
    1RG35   O3P   36   2.272   2.811   4.551
    2SOL     OW   37   0.509   0.131   0.489
    2SOL    HW2   38   0.503   0.038   0.468
    2SOL    HW3   39   0.587   0.161   0.444
    2SOL    MW4   40   0.518   0.123   0.480
    3SOL     OW   41   4.063   0.034   0.460
    3SOL    HW2   42   4.142   0.038   0.406
    3SOL    HW3   43   4.032  -0.056   0.450
    3SOL    MW4   44   4.070   0.023   0.451
    4SOL     OW   45   3.854   0.444   0.430
    4SOL    HW2   46   3.777   0.493   0.401
    4SOL    HW3   47   3.857   0.460   0.525
    4SOL    MW4   48   3.844   0.452   0.439
    5SOL     OW   49   0.349   1.489   0.558
    5SOL    HW2   50   0.349   1.394   0.550
    5SOL    HW3   51   0.282   1.518   0.495
    5SOL    MW4   52   0.340   1.480   0.548
    6SOL     OW   53   1.539   0.880   0.482
    6SOL    HW2   54   1.603   0.952   0.483
    6SOL    HW3   55   1.479   0.901   0.553
    6SOL    MW4   56   1.540   0.892   0.492
    7SOL     OW   57   0.213   0.549   0.454
    7SOL    HW2   58   0.218   0.528   0.547
    7SOL    HW3   59   0.235   0.468   0.409
    7SOL    MW4   60   0.216   0.536   0.460
    8SOL     OW   61   0.461   0.941   0.421
    8SOL    HW2   62   0.452   0.931   0.516
    8SOL    HW3   63   0.466   0.851   0.388
    8SOL    MW4   64   0.461   0.928   0.429
    9SOL     OW   65   0.949   0.912   0.406
    9SOL    HW2   66   0.938   0.917   0.501
    9SOL    HW3   67   0.867   0.947   0.370
    9SOL    MW4   68   0.937   0.917   0.413
   10SOL     OW   69   0.703   1.023   0.307
   10SOL    HW2   70   0.685   1.024   0.213
   10SOL    HW3   71   0.623   0.986   0.346
   10SOL    MW4   72   0.690   1.018   0.300
   11SOL     OW   73   0.215   1.852   0.360
   11SOL    HW2   74   0.176   1.765   0.359
   11SOL    HW3   75   0.308   1.836   0.379
   11SOL    MW4   76   0.222   1.838   0.362
   12SOL     OW   77   4.042   2.259   0.546
   12SOL    HW2   78   3.951   2.234   0.564
   12SOL    HW3   79   4.093   2.214   0.613
   12SOL    MW4   80   4.037   2.249   0.557
   13SOL     OW   81   0.136   1.590   0.379
   13SOL    HW2   82   0.127   1.502   0.343
   13SOL    HW3   83   0.056   1.602   0.431
   13SOL    MW4   84   0.124   1.580   0.381
   14SOL     OW   85   0.518   2.372   0.237
   14SOL    HW2   86   0.540   2.459   0.205
   14SOL    HW3   87   0.425   2.378   0.260
   14SOL    MW4   88   0.508   2.384   0.236
   15SOL     OW   89   0.182   2.765   0.443
   15SOL    HW2   90   0.270   2.744   0.413
   15SOL    HW3   91   0.160   2.846   0.398
   15SOL    MW4   92   0.191   2.773   0.433
   16SOL     OW   93   4.218   3.260   0.391
   16SOL    HW2   94   4.129   3.226   0.396
   16SOL    HW3   95   4.268   3.206   0.451
   16SOL    MW4   96   4.213   3.249   0.399
   17SOL     OW   97   0.090   3.031   0.309
   17SOL    HW2   98   0.098   2.987   0.224
   17SOL    HW3   99   0.114   3.122   0.291
   17SOL    MW4  100   0.095   3.037   0.295
   18SOL     OW  101   0.399   3.373   0.438
   18SOL    HW2  102   0.453   3.298   0.464
   18SOL    HW3  103   0.453   3.449   0.460
   18SOL    MW4  104   0.413   3.373   0.444
   19SOL     OW  105   0.614   3.856   0.378
   19SOL    HW2  106   0.698   3.823   0.347
   19SOL    HW3  107   0.636   3.938   0.423
   19SOL    MW4  108   0.628   3.863   0.380
   20SOL     OW  109   4.210   3.817   0.411
   20SOL    HW2  110   4.237   3.865   0.490
   20SOL    HW3  111   4.243   3.728   0.424
   20SOL    MW4  112   4.218   3.811   0.423
   21SOL     OW  113   0.119   3.776   0.125
   21SOL    HW2  114   0.190   3.795   0.186
   21SOL    HW3  115   0.162   3.734   0.051
   21SOL    MW4  116   0.134   3.773   0.123
   22SOL     OW  117   4.447   4.455   0.377
   22SOL    HW2  118   4.403   4.372   0.358
   22SOL    HW3  119   4.441   4.464   0.472
   22SOL    MW4  120   4.440   4.445   0.387
   23SOL     OW  121   4.319   4.203   0.332
   23SOL    HW2  122   4.363   4.124   0.299
   23SOL    HW3  123   4.232   4.173   0.359
   23SOL    MW4  124   4.313   4.189   0.331
   24SOL     OW  125   4.421   3.948   0.269
   24SOL    HW2  126   4.358   3.886   0.306
   24SOL    HW3  127   4.460   3.902   0.195
   24SOL    MW4  128   4.418   3.934   0.264
   25SOL     OW  129   0.577   3.157   0.494
   25SOL    HW2  130   0.549   3.163   0.585
   25SOL    HW3  131   0.665   3.196   0.493
   25SOL    MW4  132   0.585   3.163   0.506
   26SOL     OW  133   0.461   4.540   0.391
   26SOL    HW2  134   0.391   4.479   0.415
   26SOL    HW3  135   0.427   4.587   0.315
   26SOL    MW4  136   0.447   4.538   0.384
   27SOL     OW  137   0.273   0.282   0.377
   27SOL    HW2  138   0.193   0.230   0.388
   27SOL    HW3  139   0.336   0.242   0.438
   27SOL    MW4  140   0.271   0.269   0.387
   28SOL     OW  141   4.459   0.615   0.360
   28SOL    HW2  142   4.468   0.630   0.266
   28SOL    HW3  143   4.549   0.607   0.392
   28SOL    MW4  144   4.472   0.616   0.352
   29SOL     OW  145   0.934   4.452   0.481
   29SOL    HW2  146   0.979   4.456   0.566
   29SOL    HW3  147   0.852   4.407   0.500
   29SOL    MW4  148   0.929   4.446   0.495
   30SOL     OW  149   1.198   1.053   0.463
   30SOL    HW2  150   1.131   0.989   0.436
   30SOL    HW3  151   1.245   1.009   0.534
   30SOL    MW4  152   1.195   1.039   0.469
   31SOL     OW  153   0.691   0.525   0.483
   31SOL    HW2  154   0.773   0.557   0.444
   31SOL    HW3  155   0.692   0.430   0.467
   31SOL    MW4  156   0.702   0.517   0.475
   32SOL     OW  157   0.314   1.206   0.475
   32SOL    HW2  158   0.339   1.130   0.422
   32SOL    HW3  159   0.244   1.247   0.424
   32SOL    MW4  160   0.308   1.201   0.461
   33SOL     OW  161   0.106   2.134   0.379
   33SOL    HW2  162   0.016   2.139   0.347
   33SOL    HW3  163   0.128   2.041   0.376
   33SOL    MW4  164   0.097   2.123   0.375
   34SOL     OW  165   0.678   2.090   0.299
   34SOL    HW2  166   0.668   2.090   0.204
   34SOL    HW3  167   0.753   2.033   0.315
   34SOL    MW4  168   0.687   2.082   0.289
   35SOL     OW  169   0.829   2.743   0.219
   35SOL    HW2  170   0.919   2.723   0.191
   35SOL    HW3  171   0.836   2.827   0.264
   35SOL    MW4  172   0.842   2.751   0.222
   36SOL     OW  173   0.614   2.625   0.124
   36SOL    HW2  174   0.622   2.648   0.031
   36SOL    HW3  175   0.692   2.662   0.165
   36SOL    MW4  176   0.625   2.633   0.117
   37SOL     OW  177   3.962   2.561   0.303
   37SOL    HW2  178   4.012   2.640   0.279
   37SOL    HW3  179   4.018   2.489   0.276
   37SOL    MW4  180   3.976   2.562   0.296
   38SOL     OW  181   1.372   2.520   0.463
   38SOL    HW2  182   1.302   2.460   0.436
   38SOL    HW3  183   1.343   2.606   0.430
   38SOL    MW4  184   1.359   2.523   0.455
   39SOL     OW  185   0.604   2.507   0.497
   39SOL    HW2  186   0.546   2.554   0.437
   39SOL    HW3  187   0.682   2.563   0.503
   39SOL    MW4  188   0.607   2.521   0.490
   40SOL     OW  189   4.397   3.083   0.530
   40SOL    HW2  190   4.455   3.076   0.454
   40SOL    HW3  191   4.340   3.007   0.524
   40SOL    MW4  192   4.397   3.072   0.519
   41SOL     OW  193   0.447   2.695   0.352
   41SOL    HW2  194   0.469   2.673   0.261
   41SOL    HW3  195   0.502   2.771   0.372
   41SOL    MW4  196   0.457   2.702   0.342
   42SOL     OW  197   0.894   0.414   0.189
   42SOL    HW2  198   0.846   0.444   0.112
   42SOL    HW3  199   0.888   0.487   0.251
   42SOL    MW4  200   0.887   0.428   0.187
   43SOL     OW  201   0.242   3.648   0.460
   43SOL    HW2  202   0.282   3.727   0.423
   43SOL    HW3  203   0.308   3.579   0.446
   43SOL    MW4  204   0.256   3.649   0.453
   44SOL     OW  205   0.571   3.608   0.512
   44SOL    HW2  206   0.571   3.694   0.470
   44SOL    HW3  207   0.601   3.624   0.601
   44SOL    MW4  208   0.575   3.621   0.518
   45SOL     OW  209   1.092   3.587   0.558
   45SOL    HW2  210   1.005   3.565   0.527
   45SOL    HW3  211   1.146   3.511   0.537
   45SOL    MW4  212   1.088   3.574   0.551
   46SOL     OW  213   0.228   4.379   0.428
   46SOL    HW2  214   0.151   4.425   0.395
   46SOL    HW3  215   0.204   4.286   0.423
   46SOL    MW4  216   0.215   4.373   0.423
   47SOL     OW  217   0.830   3.513   0.428
   47SOL    HW2  218   0.842   3.576   0.357
   47SOL    HW3  219   0.740   3.526   0.457
   47SOL    MW4  220   0.820   3.523   0.422
   48SOL     OW  221   0.649   4.366   0.499
   48SOL    HW2  222   0.588   4.421   0.451
   48SOL    HW3  223   0.644   4.398   0.589
   48SOL    MW4  224   0.640   4.377   0.505
   49SOL     OW  225   0.742   0.256   0.377
   49SOL    HW2  226   0.817   0.219   0.424
   49SOL    HW3  227   0.779   0.288   0.295
   49SOL    MW4  228   0.757   0.255   0.373
   50SOL     OW  229   0.928   0.632   0.359
   50SOL    HW2  230   0.910   0.725   0.374
   50SOL    HW3  231   1.019   0.620   0.388
   50SOL    MW4  232   0.937   0.643   0.365
   51SOL     OW  233   0.485   0.668   0.359
   51SOL    HW2  234   0.414   0.618   0.398
   51SOL    HW3  235   0.563   0.640   0.407
   51SOL    MW4  236   0.486   0.658   0.370
   52SOL     OW  237   1.479   0.623   0.447
   52SOL    HW2  238   1.500   0.589   0.535
   52SOL    HW3  239   1.499   0.716   0.452
   52SOL    MW4  240   1.485   0.631   0.460
   53SOL     OW  241   1.963   0.807   0.432
   53SOL    HW2  242   1.893   0.768   0.382
   53SOL    HW3  243   1.921   0.841   0.511
   53SOL    MW4  244   1.948   0.806   0.436
   54SOL     OW  245   1.730   0.667   0.308
   54SOL    HW2  246   1.680   0.641   0.385
   54SOL    HW3  247   1.664   0.682   0.240
   54SOL    MW4  248   1.715   0.666   0.309
   55SOL     OW  249   0.850   1.660   0.447
   55SOL    HW2  250   0.765   1.616   0.438
   55SOL    HW3  251   0.856   1.682   0.540
   55SOL    MW4  252   0.839   1.657   0.458
   56SOL     OW  253   0.743   1.296   0.443
   56SOL    HW2  254   0.711   1.220   0.394
   56SOL    HW3  255   0.838   1.287   0.442
   56SOL    MW4  256   0.752   1.285   0.436
   57SOL     OW  257   1.386   1.492   0.300
   57SOL    HW2  258   1.416   1.575   0.263
   57SOL    HW3  259   1.291   1.500   0.303
   57SOL    MW4  260   1.378   1.504   0.295
   58SOL     OW  261   1.027   1.310   0.470
   58SOL    HW2  262   1.093   1.241   0.479
   58SOL    HW3  263   1.076   1.388   0.444
   58SOL    MW4  264   1.042   1.311   0.468
   59SOL     OW  265   1.121   1.564   0.379
   59SOL    HW2  266   1.174   1.615   0.440
   59SOL    HW3  267   1.034   1.602   0.386
   59SOL    MW4  268   1.117   1.576   0.388
   60SOL     OW  269   4.310   2.121   0.262
   60SOL    HW2  270   4.295   2.084   0.175
   60SOL    HW3  271   4.257   2.201   0.264
   60SOL    MW4  272   4.301   2.127   0.251
   61SOL     OW  273   0.489   1.823   0.386
   61SOL    HW2  274   0.531   1.738   0.392
   61SOL    HW3  275   0.560   1.883   0.362
   61SOL    MW4  276   0.504   1.820   0.384
   62SOL     OW  277   0.865   2.340   0.494
   62SOL    HW2  278   0.871   2.360   0.588
   62SOL    HW3  279   0.953   2.356   0.460
   62SOL    MW4  280   0.877   2.345   0.502
   63SOL     OW  281   0.468   2.206   0.560
   63SOL    HW2  282   0.436   2.144   0.625
   63SOL    HW3  283   0.389   2.239   0.516
   63SOL    MW4  284   0.453   2.202   0.562
   64SOL     OW  285   0.868   2.639   0.475
   64SOL    HW2  286   0.857   2.652   0.380
   64SOL    HW3  287   0.905   2.551   0.483
   64SOL    MW4  288   0.872   2.629   0.463
   65SOL     OW  289   1.115   2.411   0.394
   65SOL    HW2  290   1.154   2.326   0.379
   65SOL    HW3  291   1.099   2.447   0.307
   65SOL    MW4  292   1.118   2.405   0.381
   66SOL     OW  293   0.619   2.890   0.421
   66SOL    HW2  294   0.583   2.978   0.435
   66SOL    HW3  295   0.639   2.859   0.510
   66SOL    MW4  296   0.617   2.898   0.435
   67SOL     OW  297   0.844   3.250   0.434
   67SOL    HW2  298   0.877   3.257   0.524
   67SOL    HW3  299   0.845   3.339   0.401
   67SOL    MW4  300   0.849   3.263   0.442
   68SOL     OW  301   2.144   3.558   0.481
   68SOL    HW2  302   2.110   3.575   0.569
   68SOL    HW3  303   2.070   3.522   0.433
   68SOL    MW4  304   2.130   3.555   0.486
   69SOL     OW  305   0.932   4.060   0.568
   69SOL    HW2  306   0.843   4.075   0.537
   69SOL    HW3  307   0.925   4.058   0.663
   69SOL    MW4  308   0.919   4.062   0.576
   70SOL     OW  309   0.662   4.089   0.516
   70SOL    HW2  310   0.608   4.073   0.594
   70SOL    HW3  311   0.653   4.183   0.500
   70SOL    MW4  312   0.653   4.099   0.524
   71SOL     OW  313   1.120   4.239   0.438
   71SOL    HW2  314   1.061   4.173   0.475
   71SOL    HW3  315   1.065   4.317   0.429
   71SOL    MW4  316   1.105   4.240   0.442
   72SOL     OW  317   1.202   0.561   0.442
   72SOL    HW2  318   1.179   0.481   0.394
   72SOL    HW3  319   1.289   0.584   0.411
   72SOL    MW4  320   1.210   0.553   0.432
   73SOL     OW  321   0.975   0.094   0.515
   73SOL    HW2  322   0.957   0.003   0.491
   73SOL    HW3  323   0.955   0.098   0.609
   73SOL    MW4  324   0.970   0.082   0.524
   74SOL     OW  325   1.390   0.226   0.422
   74SOL    HW2  326   1.309   0.225   0.372
   74SOL    HW3  327   1.411   0.319   0.432
   74SOL    MW4  328   1.382   0.239   0.417
   75SOL     OW  329   1.974   0.155   0.241
   75SOL    HW2  330   1.919   0.233   0.237
   75SOL    HW3  331   1.927   0.096   0.301
   75SOL    MW4  332   1.960   0.157   0.248
   76SOL     OW  333   1.117   0.311   0.328
   76SOL    HW2  334   1.079   0.248   0.389
   76SOL    HW3  335   1.045   0.333   0.269
   76SOL    MW4  336   1.103   0.306   0.328
   77SOL     OW  337   2.348   0.503   0.453
   77SOL    HW2  338   2.255   0.521   0.467
   77SOL    HW3  339   2.353   0.408   0.444
   77SOL    MW4  340   2.336   0.493   0.453
   78SOL     OW  341   2.466   0.960   0.423
   78SOL    HW2  342   2.521   0.916   0.358
   78SOL    HW3  343   2.376   0.939   0.397
   78SOL    MW4  344   2.461   0.951   0.411
   79SOL     OW  345   1.873   1.326   0.332
   79SOL    HW2  346   1.881   1.352   0.241
   79SOL    HW3  347   1.820   1.395   0.372
   79SOL    MW4  348   1.867   1.338   0.326
   80SOL     OW  349   1.688   1.130   0.439
   80SOL    HW2  350   1.756   1.186   0.401
   80SOL    HW3  351   1.609   1.154   0.391
   80SOL    MW4  352   1.687   1.140   0.427
   81SOL     OW  353   1.441   1.210   0.342
   81SOL    HW2  354   1.362   1.158   0.352
   81SOL    HW3  355   1.409   1.298   0.319
   81SOL    MW4  356   1.426   1.215   0.340
   82SOL     OW  357   1.548   1.764   0.380
   82SOL    HW2  358   1.605   1.835   0.351
   82SOL    HW3  359   1.608   1.690   0.392
   82SOL    MW4  360   1.564   1.763   0.378
   83SOL     OW  361   1.091   2.608   0.170
   83SOL    HW2  362   1.126   2.609   0.081
   83SOL    HW3  363   1.151   2.663   0.220
   83SOL    MW4  364   1.103   2.616   0.165
   84SOL     OW  365   1.277   2.772   0.348
   84SOL    HW2  366   1.206   2.814   0.397
   84SOL    HW3  367   1.356   2.820   0.376
   84SOL    MW4  368   1.278   2.784   0.358
   85SOL     OW  369   1.795   2.236   0.199
   85SOL    HW2  370   1.871   2.261   0.253
   85SOL    HW3  371   1.722   2.284   0.237
   85SOL    MW4  372   1.796   2.246   0.211
   86SOL     OW  373   1.537   2.131   0.478
   86SOL    HW2  374   1.559   2.222   0.455
   86SOL    HW3  375   1.599   2.078   0.428
   86SOL    MW4  376   1.548   2.136   0.469
   87SOL     OW  377   0.868   1.900   0.324
   87SOL    HW2  378   0.954   1.935   0.349
   87SOL    HW3  379   0.862   1.816   0.370
   87SOL    MW4  380   0.879   1.894   0.333
   88SOL     OW  381   0.865   2.999   0.327
   88SOL    HW2  382   0.880   3.092   0.342
   88SOL    HW3  383   0.776   2.983   0.358
   88SOL    MW4  384   0.855   3.009   0.333
   89SOL     OW  385   1.997   2.285   0.399
   89SOL    HW2  386   1.975   2.194   0.415
   89SOL    HW3  387   2.091   2.292   0.418
   89SOL    MW4  388   2.007   2.274   0.403
   90SOL     OW  389   2.077   0.555   0.472
   90SOL    HW2  390   2.041   0.642   0.453
   90SOL    HW3  391   2.022   0.495   0.423
   90SOL    MW4  392   2.065   0.559   0.463
   91SOL     OW  393   1.095   3.851   0.417
   91SOL    HW2  394   1.108   3.771   0.468
   91SOL    HW3  395   1.043   3.907   0.474
   91SOL    MW4  396   1.090   3.848   0.431
   92SOL     OW  397   1.862   2.705   0.335
   92SOL    HW2  398   1.932   2.767   0.356
   92SOL    HW3  399   1.875   2.685   0.242
   92SOL    MW4  400   1.873   2.711   0.325
   93SOL     OW  401   1.364   3.931   0.460
   93SOL    HW2  402   1.275   3.908   0.432
   93SOL    HW3  403   1.371   4.025   0.440
   93SOL    MW4  404   1.353   3.941   0.454
   94SOL     OW  405   1.729   3.063   0.393
   94SOL    HW2  406   1.814   3.021   0.407
   94SOL    HW3  407   1.666   2.991   0.394
   94SOL    MW4  408   1.732   3.048   0.395
   95SOL     OW  409   2.235   3.865   0.482
   95SOL    HW2  410   2.209   3.773   0.485
   95SOL    HW3  411   2.315   3.867   0.430
   95SOL    MW4  412   2.242   3.853   0.476
   96SOL     OW  413   0.858   3.734   0.260
   96SOL    HW2  414   0.878   3.719   0.167
   96SOL    HW3  415   0.941   3.762   0.298
   96SOL    MW4  416   0.871   3.735   0.253
   97SOL     OW  417   1.840   4.633   0.395
   97SOL    HW2  418   1.753   4.665   0.418
   97SOL    HW3  419   1.831   4.538   0.390
   97SOL    MW4  420   1.827   4.625   0.398
   98SOL     OW  421   2.015   0.025   0.624
   98SOL    HW2  422   2.016  -0.065   0.656
   98SOL    HW3  423   1.954   0.023   0.550
   98SOL    MW4  424   2.007   0.013   0.618
   99SOL     OW  425   2.225   0.051   0.222
   99SOL    HW2  426   2.251   0.056   0.130
   99SOL    HW3  427   2.139   0.093   0.225
   99SOL    MW4  428   2.217   0.057   0.210
  100SOL     OW  429   1.404   4.222   0.406
  100SOL    HW2  430   1.310   4.235   0.415
  100SOL    HW3  431   1.443   4.302   0.442
  100SOL    MW4  432   1.397   4.234   0.412
  101SOL     OW  433   2.578   0.622   0.510
  101SOL    HW2  434   2.492   0.592   0.481
  101SOL    HW3  435   2.604   0.686   0.444
  101SOL    MW4  436   2.570   0.626   0.498
  102SOL     OW  437   1.727   1.979   0.311
  102SOL    HW2  438   1.808   1.975   0.362
  102SOL    HW3  439   1.737   2.056   0.256
  102SOL    MW4  440   1.739   1.989   0.310
  103SOL     OW  441   2.096   1.253   0.472
  103SOL    HW2  442   2.161   1.320   0.451
  103SOL    HW3  443   2.020   1.276   0.420
  103SOL    MW4  444   2.095   1.265   0.463
  104SOL     OW  445   2.511   1.244   0.440
  104SOL    HW2  446   2.605   1.236   0.457
  104SOL    HW3  447   2.482   1.154   0.424
  104SOL    MW4  448   2.520   1.231   0.440
  105SOL     OW  449   2.248   1.910   0.428
  105SOL    HW2  450   2.321   1.964   0.459
  105SOL    HW3  451   2.289   1.841   0.377
  105SOL    MW4  452   2.263   1.908   0.426
  106SOL     OW  453   1.650   1.498   0.431
  106SOL    HW2  454   1.562   1.476   0.400
  106SOL    HW3  455   1.637   1.532   0.520
  106SOL    MW4  456   1.637   1.500   0.439
  107SOL     OW  457   1.296   1.749   0.502
  107SOL    HW2  458   1.379   1.772   0.458
  107SOL    HW3  459   1.322   1.723   0.590
  107SOL    MW4  460   1.311   1.749   0.508
  108SOL     OW  461   2.282   2.353   0.454
  108SOL    HW2  462   2.273   2.437   0.408
  108SOL    HW3  463   2.262   2.373   0.545
  108SOL    MW4  464   2.278   2.367   0.460
  109SOL     OW  465   1.752   3.336   0.443
  109SOL    HW2  466   1.731   3.246   0.417
  109SOL    HW3  467   1.838   3.352   0.405
  109SOL    MW4  468   1.760   3.326   0.434
  110SOL     OW  469   1.037   2.839   0.479
  110SOL    HW2  470   0.988   2.913   0.444
  110SOL    HW3  471   0.973   2.768   0.482
  110SOL    MW4  472   1.022   2.839   0.474
  111SOL     OW  473   1.515   3.507   0.442
  111SOL    HW2  474   1.598   3.461   0.435
  111SOL    HW3  475   1.539   3.599   0.455
  111SOL    MW4  476   1.529   3.513   0.443
  112SOL     OW  477   1.108   1.961   0.479
  112SOL    HW2  478   1.093   1.991   0.568
  112SOL    HW3  479   1.171   1.890   0.488
  112SOL    MW4  480   1.114   1.956   0.492
  113SOL     OW  481   3.825   1.610   0.183
  113SOL    HW2  482   3.806   1.528   0.227
  113SOL    HW3  483   3.741   1.657   0.182
  113SOL    MW4  484   3.812   1.606   0.189
  114SOL     OW  485   1.820   2.474   0.491
  114SOL    HW2  486   1.884   2.410   0.461
  114SOL    HW3  487   1.859   2.559   0.469
  114SOL    MW4  488   1.834   2.477   0.484
  115SOL     OW  489   1.265   2.184   0.366
  115SOL    HW2  490   1.358   2.163   0.376
  115SOL    HW3  491   1.220   2.101   0.383
  115SOL    MW4  492   1.271   2.170   0.369
  116SOL     OW  493   1.268   3.367   0.482
  116SOL    HW2  494   1.340   3.426   0.459
  116SOL    HW3  495   1.236   3.335   0.397
  116SOL    MW4  496   1.273   3.371   0.468
  117SOL     OW  497   2.434   3.544   0.456
  117SOL    HW2  498   2.344   3.517   0.473
  117SOL    HW3  499   2.466   3.579   0.539
  117SOL    MW4  500   2.427   3.545   0.469
  118SOL     OW  501   1.784   4.368   0.408
  118SOL    HW2  502   1.769   4.311   0.332
  118SOL    HW3  503   1.871   4.344   0.439
  118SOL    MW4  504   1.793   4.358   0.402
  119SOL     OW  505   1.589   3.781   0.484
  119SOL    HW2  506   1.510   3.835   0.492
  119SOL    HW3  507   1.659   3.844   0.466
  119SOL    MW4  508   1.588   3.796   0.482
  120SOL     OW  509   1.538   4.453   0.503
  120SOL    HW2  510   1.538   4.441   0.598
  120SOL    HW3  511   1.621   4.415   0.474
  120SOL    MW4  512   1.549   4.446   0.511
  121SOL     OW  513   1.594   0.066   0.493
  121SOL    HW2  514   1.519   0.115   0.459
  121SOL    HW3  515   1.562  -0.024   0.502
  121SOL    MW4  516   1.580   0.060   0.489
  122SOL     OW  517   2.336   4.437   0.613
  122SOL    HW2  518   2.386   4.507   0.653
  122SOL    HW3  519   2.305   4.384   0.687
  122SOL    MW4  520   2.338   4.439   0.628
  123SOL     OW  521   2.379   0.223   0.427
  123SOL    HW2  522   2.343   0.193   0.511
  123SOL    HW3  523   2.336   0.168   0.362
  123SOL    MW4  524   2.369   0.212   0.430
  124SOL     OW  525   2.883   1.547   0.435
  124SOL    HW2  526   2.809   1.608   0.445
  124SOL    HW3  527   2.842   1.460   0.441
  124SOL    MW4  528   2.868   1.543   0.437
  125SOL     OW  529   3.002   0.401   0.501
  125SOL    HW2  530   2.912   0.415   0.473
  125SOL    HW3  531   3.051   0.474   0.463
  125SOL    MW4  532   2.997   0.412   0.492
  126SOL     OW  533   2.179   0.988   0.468
  126SOL    HW2  534   2.148   1.078   0.471
  126SOL    HW3  535   2.101   0.935   0.456
  126SOL    MW4  536   2.165   0.993   0.467
  127SOL     OW  537   2.784   1.255   0.492
  127SOL    HW2  538   2.813   1.166   0.471
  127SOL    HW3  539   2.827   1.275   0.575
  127SOL    MW4  540   2.794   1.246   0.500
  128SOL     OW  541   2.665   1.741   0.410
  128SOL    HW2  542   2.727   1.813   0.408
  128SOL    HW3  543   2.666   1.712   0.502
  128SOL    MW4  544   2.674   1.746   0.422
  129SOL     OW  545   3.172   1.898   0.381
  129SOL    HW2  546   3.153   1.978   0.429
  129SOL    HW3  547   3.267   1.899   0.368
  129SOL    MW4  548   3.182   1.908   0.386
  130SOL     OW  549   3.023   4.581   0.343
  130SOL    HW2  550   3.039   4.672   0.369
  130SOL    HW3  551   3.050   4.529   0.419
  130SOL    MW4  552   3.029   4.587   0.357
  131SOL     OW  553   1.961   2.025   0.466
  131SOL    HW2  554   1.956   2.048   0.558
  131SOL    HW3  555   2.051   1.996   0.453
  131SOL    MW4  556   1.972   2.024   0.476
  132SOL     OW  557   1.564   1.543   0.687
  132SOL    HW2  558   1.628   1.592   0.738
  132SOL    HW3  559   1.480   1.565   0.725
  132SOL    MW4  560   1.561   1.552   0.699
  133SOL     OW  561   2.427   2.107   0.481
  133SOL    HW2  562   2.379   2.186   0.459
  133SOL    HW3  563   2.517   2.124   0.456
  133SOL    MW4  564   2.432   2.119   0.475
  134SOL     OW  565   2.700   2.106   0.409
  134SOL    HW2  566   2.753   2.065   0.341
  134SOL    HW3  567   2.754   2.102   0.488
  134SOL    MW4  568   2.714   2.100   0.410
  135SOL     OW  569   2.555   2.617   0.353
  135SOL    HW2  570   2.605   2.539   0.379
  135SOL    HW3  571   2.464   2.588   0.352
  135SOL    MW4  572   2.550   2.603   0.356
  136SOL     OW  573   1.592   2.382   0.359
  136SOL    HW2  574   1.517   2.435   0.389
  136SOL    HW3  575   1.668   2.438   0.374
  136SOL    MW4  576   1.592   2.397   0.365
  137SOL     OW  577   1.574   2.841   0.414
  137SOL    HW2  578   1.570   2.854   0.508
  137SOL    HW3  579   1.656   2.794   0.400
  137SOL    MW4  580   1.585   2.837   0.424
  138SOL     OW  581   2.060   4.060   0.373
  138SOL    HW2  582   2.094   4.081   0.286
  138SOL    HW3  583   2.107   3.980   0.397
  138SOL    MW4  584   2.071   4.052   0.365
  139SOL     OW  585   2.319   4.195   0.293
  139SOL    HW2  586   2.406   4.194   0.253
  139SOL    HW3  587   2.295   4.288   0.296
  139SOL    MW4  588   2.328   4.207   0.288
  140SOL     OW  589   1.789   3.986   0.429
  140SOL    HW2  590   1.743   4.063   0.397
  140SOL    HW3  591   1.878   3.995   0.393
  140SOL    MW4  592   1.795   3.997   0.420
  141SOL     OW  593   2.002   3.351   0.340
  141SOL    HW2  594   2.054   3.289   0.390
  141SOL    HW3  595   2.042   3.352   0.253
  141SOL    MW4  596   2.014   3.343   0.335
  142SOL     OW  597   2.202   4.462   0.342
  142SOL    HW2  598   2.261   4.473   0.416
  142SOL    HW3  599   2.211   4.543   0.291
  142SOL    MW4  600   2.211   4.474   0.345
  143SOL     OW  601   2.043   4.312   0.506
  143SOL    HW2  602   2.064   4.221   0.485
  143SOL    HW3  603   2.096   4.363   0.445
  143SOL    MW4  604   2.053   4.307   0.495
  144SOL     OW  605   3.136   0.135   0.473
  144SOL    HW2  606   3.093   0.221   0.474
  144SOL    HW3  607   3.122   0.101   0.561
  144SOL    MW4  608   3.128   0.142   0.485
  145SOL     OW  609   2.471   3.772   0.301
  145SOL    HW2  610   2.459   3.686   0.341
  145SOL    HW3  611   2.471   3.755   0.207
  145SOL    MW4  612   2.469   3.759   0.294
  146SOL     OW  613   2.517   4.239   0.519
  146SOL    HW2  614   2.456   4.303   0.555
  146SOL    HW3  615   2.462   4.180   0.466
  146SOL    MW4  616   2.502   4.239   0.517
  147SOL     OW  617   2.652   0.183   0.424
  147SOL    HW2  618   2.693   0.268   0.410
  147SOL    HW3  619   2.558   0.202   0.427
  147SOL    MW4  620   2.645   0.197   0.423
  148SOL     OW  621   1.876   0.410   0.326
  148SOL    HW2  622   1.841   0.373   0.407
  148SOL    HW3  623   1.817   0.482   0.305
  148SOL    MW4  624   1.864   0.415   0.334
  149SOL     OW  625   3.155   0.634   0.416
  149SOL    HW2  626   3.166   0.722   0.452
  149SOL    HW3  627   3.240   0.592   0.426
  149SOL    MW4  628   3.167   0.640   0.422
  150SOL     OW  629   2.391   1.701   0.305
  150SOL    HW2  630   2.400   1.705   0.210
  150SOL    HW3  631   2.477   1.724   0.339
  150SOL    MW4  632   2.403   1.704   0.297
  151SOL     OW  633   2.704   0.814   0.324
  151SOL    HW2  634   2.760   0.872   0.377
  151SOL    HW3  635   2.766   0.756   0.281
  151SOL    MW4  636   2.720   0.814   0.326
  152SOL     OW  637   3.134   1.654   0.502
  152SOL    HW2  638   3.049   1.622   0.472
  152SOL    HW3  639   3.139   1.743   0.468
  152SOL    MW4  640   3.124   1.662   0.494
  153SOL     OW  641   3.425   1.277   0.432
  153SOL    HW2  642   3.406   1.293   0.525
  153SOL    HW3  643   3.388   1.190   0.415
  153SOL    MW4  644   3.418   1.267   0.442
  154SOL     OW  645   3.717   1.411   0.362
  154SOL    HW2  646   3.639   1.356   0.368
  154SOL    HW3  647   3.711   1.469   0.438
  154SOL    MW4  648   3.706   1.412   0.373
  155SOL     OW  649   2.684   0.120   0.716
  155SOL    HW2  650   2.682   0.196   0.774
  155SOL    HW3  651   2.692   0.157   0.628
  155SOL    MW4  652   2.685   0.135   0.712
  156SOL     OW  653   3.121   2.074   0.596
  156SOL    HW2  654   3.026   2.088   0.599
  156SOL    HW3  655   3.143   2.042   0.684
  156SOL    MW4  656   3.111   2.071   0.608
  157SOL     OW  657   2.709   2.409   0.446
  157SOL    HW2  658   2.800   2.433   0.428
  157SOL    HW3  659   2.697   2.325   0.402
  157SOL    MW4  660   2.719   2.401   0.438
  158SOL     OW  661   2.878   1.930   0.287
  158SOL    HW2  662   2.876   1.882   0.204
  158SOL    HW3  663   2.971   1.944   0.305
  158SOL    MW4  664   2.890   1.926   0.278
  159SOL     OW  665   2.280   2.568   0.257
  159SOL    HW2  666   2.271   2.658   0.226
  159SOL    HW3  667   2.211   2.520   0.212
  159SOL    MW4  668   2.270   2.573   0.247
  160SOL     OW  669   2.637   2.874   0.459
  160SOL    HW2  670   2.624   2.789   0.417
  160SOL    HW3  671   2.571   2.876   0.529
  160SOL    MW4  672   2.626   2.863   0.463
  161SOL     OW  673   2.927   3.147   0.314
  161SOL    HW2  674   3.008   3.135   0.364
  161SOL    HW3  675   2.907   3.060   0.280
  161SOL    MW4  676   2.935   3.134   0.316
  162SOL     OW  677   3.186   3.202   0.468
  162SOL    HW2  678   3.196   3.107   0.463
  162SOL    HW3  679   3.143   3.216   0.553
  162SOL    MW4  680   3.182   3.191   0.479
  163SOL     OW  681   2.179   3.159   0.458
  163SOL    HW2  682   2.207   3.201   0.539
  163SOL    HW3  683   2.260   3.135   0.414
  163SOL    MW4  684   2.193   3.161   0.462
  164SOL     OW  685   1.639   4.164   0.241
  164SOL    HW2  686   1.613   4.185   0.151
  164SOL    HW3  687   1.560   4.176   0.293
  164SOL    MW4  688   1.625   4.169   0.236
  165SOL     OW  689   3.355   4.035   0.436
  165SOL    HW2  690   3.270   4.076   0.418
  165SOL    HW3  691   3.336   3.973   0.506
  165SOL    MW4  692   3.341   4.032   0.443
  166SOL     OW  693   2.788   3.380   0.432
  166SOL    HW2  694   2.764   3.360   0.522
  166SOL    HW3  695   2.839   3.305   0.403
  166SOL    MW4  696   2.792   3.368   0.440
  167SOL     OW  697   2.546   3.345   0.304
  167SOL    HW2  698   2.637   3.348   0.333
  167SOL    HW3  699   2.506   3.422   0.345
  167SOL    MW4  700   2.553   3.356   0.314
  168SOL     OW  701   3.597   3.972   0.294
  168SOL    HW2  702   3.577   3.916   0.219
  168SOL    HW3  703   3.512   3.989   0.335
  168SOL    MW4  704   3.583   3.967   0.289
  169SOL     OW  705   3.137   4.185   0.356
  169SOL    HW2  706   3.057   4.154   0.313
  169SOL    HW3  707   3.111   4.265   0.401
  169SOL    MW4  708   3.123   4.191   0.356
  170SOL     OW  709   3.416   0.218   0.363
  170SOL    HW2  710   3.330   0.178   0.357
  170SOL    HW3  711   3.473   0.148   0.395
  170SOL    MW4  712   3.412   0.204   0.367
  171SOL     OW  713   2.738   4.576   0.311
  171SOL    HW2  714   2.713   4.668   0.317
  171SOL    HW3  715   2.834   4.577   0.310
  171SOL    MW4  716   2.748   4.588   0.311
  172SOL     OW  717   2.839   4.130   0.325
  172SOL    HW2  718   2.782   4.054   0.340
  172SOL    HW3  719   2.784   4.192   0.277
  172SOL    MW4  720   2.824   4.128   0.321
  173SOL     OW  721   2.760   0.444   0.394
  173SOL    HW2  722   2.691   0.493   0.437
  173SOL    HW3  723   2.807   0.509   0.342
  173SOL    MW4  724   2.757   0.459   0.393
  174SOL     OW  725   3.138   0.903   0.487
  174SOL    HW2  726   3.149   0.901   0.582
  174SOL    HW3  727   3.219   0.944   0.455
  174SOL    MW4  728   3.150   0.908   0.495
  175SOL     OW  729   3.408   0.495   0.480
  175SOL    HW2  730   3.395   0.405   0.450
  175SOL    HW3  731   3.494   0.520   0.446
  175SOL    MW4  732   3.417   0.486   0.472
  176SOL     OW  733   3.557   0.835   0.439
  176SOL    HW2  734   3.580   0.747   0.409
  176SOL    HW3  735   3.539   0.824   0.532
  176SOL    MW4  736   3.558   0.822   0.447
  177SOL     OW  737   3.631   0.316   0.205
  177SOL    HW2  738   3.554   0.269   0.236
  177SOL    HW3  739   3.705   0.267   0.242
  177SOL    MW4  740   3.630   0.303   0.214
  178SOL     OW  741   3.408   1.813   0.716
  178SOL    HW2  742   3.396   1.805   0.622
  178SOL    HW3  743   3.321   1.836   0.750
  178SOL    MW4  744   3.395   1.815   0.708
  179SOL     OW  745   3.460   1.830   0.422
  179SOL    HW2  746   3.446   1.739   0.395
  179SOL    HW3  747   3.555   1.840   0.424
  179SOL    MW4  748   3.470   1.819   0.419
  180SOL     OW  749   3.369   1.010   0.384
  180SOL    HW2  750   3.440   0.947   0.396
  180SOL    HW3  751   3.378   1.040   0.293
  180SOL    MW4  752   3.379   1.006   0.374
  181SOL     OW  753   3.973   1.770   0.370
  181SOL    HW2  754   3.945   1.727   0.289
  181SOL    HW3  755   3.891   1.792   0.414
  181SOL    MW4  756   3.958   1.767   0.365
  182SOL     OW  757   3.305   2.272   0.609
  182SOL    HW2  758   3.249   2.195   0.594
  182SOL    HW3  759   3.346   2.256   0.694
  182SOL    MW4  760   3.303   2.259   0.618
  183SOL     OW  761   3.513   2.691   0.607
  183SOL    HW2  762   3.539   2.654   0.692
  183SOL    HW3  763   3.473   2.618   0.561
  183SOL    MW4  764   3.511   2.676   0.612
  184SOL     OW  765   1.993   2.960   0.432
  184SOL    HW2  766   1.999   2.954   0.527
  184SOL    HW3  767   2.063   3.019   0.406
  184SOL    MW4  768   2.003   2.967   0.441
  185SOL     OW  769   3.238   2.656   0.309
  185SOL    HW2  770   3.235   2.659   0.213
  185SOL    HW3  771   3.295   2.582   0.329
  185SOL    MW4  772   3.245   2.647   0.299
  186SOL     OW  773   2.924   2.904   0.740
  186SOL    HW2  774   2.920   2.870   0.651
  186SOL    HW3  775   2.996   2.856   0.781
  186SOL    MW4  776   2.933   2.893   0.734
  187SOL     OW  777   2.929   0.628   0.249
  187SOL    HW2  778   3.003   0.652   0.304
  187SOL    HW3  779   2.969   0.581   0.175
  187SOL    MW4  780   2.944   0.625   0.247
  188SOL     OW  781   2.902   4.177   0.582
  188SOL    HW2  782   2.888   4.166   0.488
  188SOL    HW3  783   2.974   4.117   0.603
  188SOL    MW4  784   2.910   4.167   0.573
  189SOL     OW  785   3.400   3.564   0.654
  189SOL    HW2  786   3.397   3.505   0.579
  189SOL    HW3  787   3.331   3.533   0.712
  189SOL    MW4  788   3.391   3.552   0.652
  190SOL     OW  789   3.698   3.298   0.513
  190SOL    HW2  790   3.729   3.385   0.539
  190SOL    HW3  791   3.607   3.312   0.487
  190SOL    MW4  792   3.690   3.312   0.513
  191SOL     OW  793   3.410   3.370   0.456
  191SOL    HW2  794   3.444   3.374   0.366
  191SOL    HW3  795   3.333   3.314   0.450
  191SOL    MW4  796   3.404   3.363   0.443
  192SOL     OW  797   2.709   3.868   0.432
  192SOL    HW2  798   2.756   3.791   0.464
  192SOL    HW3  799   2.632   3.833   0.388
  192SOL    MW4  800   2.705   3.853   0.431
  193SOL     OW  801   2.452   3.105   0.389
  193SOL    HW2  802   2.524   3.042   0.391
  193SOL    HW3  803   2.491   3.184   0.350
  193SOL    MW4  804   2.467   3.107   0.384
  194SOL     OW  805   4.307   0.041   0.331
  194SOL    HW2  806   4.302   0.039   0.236
  194SOL    HW3  807   4.354  -0.039   0.355
  194SOL    MW4  808   4.313   0.030   0.322
  195SOL     OW  809   3.842   0.187   0.345
  195SOL    HW2  810   3.847   0.277   0.378
  195SOL    HW3  811   3.922   0.145   0.377
  195SOL    MW4  812   3.853   0.194   0.354
  196SOL     OW  813   3.634   0.566   0.326
  196SOL    HW2  814   3.622   0.495   0.263
  196SOL    HW3  815   3.691   0.628   0.281
  196SOL    MW4  816   3.640   0.565   0.312
  197SOL     OW  817   3.833   0.716   0.212
  197SOL    HW2  818   3.835   0.811   0.223
  197SOL    HW3  819   3.918   0.686   0.244
  197SOL    MW4  820   3.844   0.725   0.218
  198SOL     OW  821   4.083   0.596   0.363
  198SOL    HW2  822   4.142   0.523   0.345
  198SOL    HW3  823   4.003   0.554   0.394
  198SOL    MW4  824   4.080   0.581   0.364
  199SOL     OW  825   4.366   0.874   0.500
  199SOL    HW2  826   4.277   0.840   0.515
  199SOL    HW3  827   4.413   0.800   0.460
  199SOL    MW4  828   4.360   0.859   0.497
  200SOL     OW  829   3.841   0.936   0.443
  200SOL    HW2  830   3.851   1.028   0.467
  200SOL    HW3  831   3.748   0.917   0.460
  200SOL    MW4  832   3.830   0.946   0.448
  201SOL     OW  833   4.113   1.551   0.484
  201SOL    HW2  834   4.070   1.625   0.441
  201SOL    HW3  835   4.202   1.581   0.500
  201SOL    MW4  836   4.119   1.565   0.480
  202SOL     OW  837   3.884   1.212   0.483
  202SOL    HW2  838   3.978   1.227   0.470
  202SOL    HW3  839   3.842   1.273   0.422
  202SOL    MW4  840   3.891   1.222   0.473
  203SOL     OW  841   3.384   1.562   0.432
  203SOL    HW2  842   3.294   1.578   0.461
  203SOL    HW3  843   3.383   1.473   0.398
  203SOL    MW4  844   3.372   1.553   0.432
  204SOL     OW  845   2.878   0.988   0.469
  204SOL    HW2  846   2.848   0.972   0.558
  204SOL    HW3  847   2.971   0.966   0.471
  204SOL    MW4  848   2.886   0.983   0.481
  205SOL     OW  849   3.707   2.442   0.411
  205SOL    HW2  850   3.780   2.459   0.352
  205SOL    HW3  851   3.731   2.361   0.457
  205SOL    MW4  852   3.720   2.433   0.409
  206SOL     OW  853   4.241   2.856   0.549
  206SOL    HW2  854   4.278   2.778   0.507
  206SOL    HW3  855   4.155   2.866   0.508
  206SOL    MW4  856   4.234   2.847   0.538
  207SOL     OW  857   2.974   2.573   0.414
  207SOL    HW2  858   3.023   2.534   0.487
  207SOL    HW3  859   3.041   2.605   0.354
  207SOL    MW4  860   2.989   2.572   0.416
  208SOL     OW  861   2.891   3.639   0.488
  208SOL    HW2  862   2.945   3.679   0.420
  208SOL    HW3  863   2.858   3.559   0.449
  208SOL    MW4  864   2.894   3.634   0.474
  209SOL     OW  865   3.188   2.919   0.434
  209SOL    HW2  866   3.223   2.849   0.378
  209SOL    HW3  867   3.094   2.901   0.439
  209SOL    MW4  868   3.180   2.908   0.427
  210SOL     OW  869   4.000   2.868   0.436
  210SOL    HW2  870   3.915   2.824   0.437
  210SOL    HW3  871   3.979   2.961   0.434
  210SOL    MW4  872   3.986   2.874   0.436
  211SOL     OW  873   3.761   2.718   0.487
  211SOL    HW2  874   3.773   2.636   0.438
  211SOL    HW3  875   3.668   2.719   0.509
  211SOL    MW4  876   3.750   2.707   0.483
  212SOL     OW  877   3.828   4.017   0.444
  212SOL    HW2  878   3.862   3.930   0.461
  212SOL    HW3  879   3.750   4.002   0.389
  212SOL    MW4  880   3.822   4.004   0.439
  213SOL     OW  881   3.412   2.482   0.452
  213SOL    HW2  882   3.372   2.408   0.497
  213SOL    HW3  883   3.498   2.451   0.425
  213SOL    MW4  884   3.418   2.468   0.455
  214SOL     OW  885   3.308   3.834   0.623
  214SOL    HW2  886   3.358   3.859   0.700
  214SOL    HW3  887   3.327   3.741   0.611
  214SOL    MW4  888   3.317   3.825   0.631
  215SOL     OW  889   4.288   3.948   0.655
  215SOL    HW2  890   4.255   3.915   0.738
  215SOL    HW3  891   4.257   4.039   0.651
  215SOL    MW4  892   4.280   3.956   0.665
  216SOL     OW  893   3.450   4.290   0.498
  216SOL    HW2  894   3.405   4.211   0.469
  216SOL    HW3  895   3.533   4.258   0.534
  216SOL    MW4  896   3.455   4.275   0.499
  217SOL     OW  897   3.633   4.459   0.328
  217SOL    HW2  898   3.583   4.400   0.384
  217SOL    HW3  899   3.609   4.435   0.239
  217SOL    MW4  900   3.623   4.448   0.324
  218SOL     OW  901   0.020   0.182   0.464
  218SOL    HW2  902  -0.032   0.119   0.415
  218SOL    HW3  903   0.026   0.144   0.552
  218SOL    MW4  904   0.014   0.169   0.469
  219SOL     OW  905   4.103   0.815   0.513
  219SOL    HW2  906   4.026   0.867   0.487
  219SOL    HW3  907   4.093   0.733   0.465
  219SOL    MW4  908   4.091   0.811   0.503
  220SOL     OW  909   0.599   1.553   0.431
  220SOL    HW2  910   0.517   1.531   0.475
  220SOL    HW3  911   0.645   1.470   0.424
  220SOL    MW4  912   0.594   1.539   0.436
  221SOL     OW  913   4.304   0.400   0.453
  221SOL    HW2  914   4.365   0.326   0.446
  221SOL    HW3  915   4.351   0.473   0.414
  221SOL    MW4  916   4.319   0.400   0.447
  222SOL     OW  917   4.396   1.152   0.380
  222SOL    HW2  918   4.403   1.060   0.407
  222SOL    HW3  919   4.308   1.178   0.408
  222SOL    MW4  920   4.385   1.143   0.388
  223SOL     OW  921   3.613   0.059   0.473
  223SOL    HW2  922   3.612  -0.030   0.438
  223SOL    HW3  923   3.701   0.092   0.453
  223SOL    MW4  924   3.624   0.052   0.466
  224SOL     OW  925   4.151   1.280   0.512
  224SOL    HW2  926   4.141   1.373   0.490
  224SOL    HW3  927   4.178   1.279   0.603
  224SOL    MW4  928   4.153   1.292   0.521
  225SOL     OW  929   0.113   1.313   0.311
  225SOL    HW2  930   0.098   1.299   0.217
  225SOL    HW3  931   0.036   1.275   0.353
  225SOL    MW4  932   0.101   1.306   0.304
  226SOL     OW  933   4.143   2.359   0.305
  226SOL    HW2  934   4.124   2.315   0.387
  226SOL    HW3  935   4.197   2.434   0.331
  226SOL    MW4  936   4.148   2.363   0.319
  227SOL     OW  937   4.384   1.667   0.530
  227SOL    HW2  938   4.390   1.676   0.625
  227SOL    HW3  939   4.380   1.757   0.498
  227SOL    MW4  940   4.385   1.680   0.538
  228SOL     OW  941   0.285   2.344   0.404
  228SOL    HW2  942   0.233   2.266   0.385
  228SOL    HW3  943   0.222   2.407   0.438
  228SOL    MW4  944   0.270   2.342   0.406
  229SOL     OW  945   4.187   1.935   0.461
  229SOL    HW2  946   4.113   1.897   0.414
  229SOL    HW3  947   4.225   1.998   0.400
  229SOL    MW4  948   4.182   1.938   0.447
  230SOL     OW  949   0.081   2.521   0.479
  230SOL    HW2  950   0.122   2.608   0.473
  230SOL    HW3  951   0.063   2.510   0.572
  230SOL    MW4  952   0.084   2.531   0.491
  231SOL     OW  953   4.280   3.543   0.408
  231SOL    HW2  954   4.361   3.541   0.356
  231SOL    HW3  955   4.247   3.453   0.405
  231SOL    MW4  956   4.287   3.531   0.400
  232SOL     OW  957   4.284   2.564   0.417
  232SOL    HW2  958   4.258   2.544   0.507
  232SOL    HW3  959   4.378   2.546   0.415
  232SOL    MW4  960   4.293   2.559   0.429
  233SOL     OW  961   0.336   3.887   0.325
  233SOL    HW2  962   0.288   3.964   0.356
  233SOL    HW3  963   0.426   3.903   0.351
  233SOL    MW4  964   0.341   3.899   0.332
  234SOL     OW  965   0.050   3.552   0.265
  234SOL    HW2  966   0.043   3.611   0.189
  234SOL    HW3  967   0.095   3.604   0.331
  234SOL    MW4  968   0.055   3.567   0.264
  235SOL     OW  969   0.162   3.292   0.292
  235SOL    HW2  970   0.122   3.377   0.272
  235SOL    HW3  971   0.231   3.313   0.355
  235SOL    MW4  972   0.166   3.306   0.298
  236SOL     OW  973   3.962   3.789   0.526
  236SOL    HW2  974   3.926   3.701   0.533
  236SOL    HW3  975   4.045   3.778   0.480
  236SOL    MW4  976   3.968   3.776   0.521
  237SOL     OW  977   3.961   3.138   0.443
  237SOL    HW2  978   4.002   3.144   0.529
  237SOL    HW3  979   3.870   3.162   0.458
  237SOL    MW4  980   3.955   3.142   0.456
  238SOL     OW  981   0.149   4.109   0.399
  238SOL    HW2  982   0.118   4.080   0.485
  238SOL    HW3  983   0.078   4.086   0.339
  238SOL    MW4  984   0.136   4.102   0.403
  239SOL     OW  985   4.053   4.214   0.436
  239SOL    HW2  986   3.984   4.148   0.429
  239SOL    HW3  987   4.008   4.297   0.417
  239SOL    MW4  988   4.038   4.216   0.433
  240SOL     OW  989   4.202   4.208   0.653
  240SOL    HW2  990   4.244   4.294   0.660
  240SOL    HW3  991   4.149   4.214   0.574
  240SOL    MW4  992   4.201   4.220   0.644
  241SOL     OW  993   3.937   4.454   0.446
  241SOL    HW2  994   3.922   4.438   0.539
  241SOL    HW3  995   3.850   4.451   0.407
  241SOL    MW4  996   3.923   4.452   0.453
  242SOL     OW  997   0.249   0.016   0.833
  242SOL    HW2  998   0.263  -0.070   0.794
  242SOL    HW3  999   0.169   0.048   0.791
  242SOL    MW4 1000   0.240   0.009   0.822
  243SOL     OW 1001   0.010   0.088   0.740
  243SOL    HW2 1002  -0.057   0.023   0.762
  243SOL    HW3 1003  -0.012   0.164   0.795
  243SOL    MW4 1004  -0.002   0.090   0.750
  244SOL     OW 1005   0.009   0.340   0.844
  244SOL    HW2 1006   0.015   0.358   0.937
  244SOL    HW3 1007   0.076   0.396   0.804
  244SOL    MW4 1008   0.019   0.350   0.851
  245SOL     OW 1009   0.211   0.524   0.733
  245SOL    HW2 1010   0.290   0.502   0.782
  245SOL    HW3 1011   0.193   0.615   0.755
  245SOL    MW4 1012   0.219   0.533   0.742
  246SOL     OW 1013   0.211   0.794   0.803
  246SOL    HW2 1014   0.213   0.785   0.898
  246SOL    HW3 1015   0.125   0.831   0.783
  246SOL    MW4 1016   0.200   0.798   0.813
  247SOL     OW 1017   4.456   0.913   0.768
  247SOL    HW2 1018   4.389   0.856   0.804
  247SOL    HW3 1019   4.437   0.918   0.674
  247SOL    MW4 1020   4.445   0.906   0.760
  248SOL     OW 1021   4.485   1.177   0.833
  248SOL    HW2 1022   4.478   1.156   0.926
  248SOL    HW3 1023   4.471   1.094   0.788
  248SOL    MW4 1024   4.483   1.163   0.839
  249SOL     OW 1025   0.257   1.247   0.751
  249SOL    HW2 1026   0.173   1.226   0.793
  249SOL    HW3 1027   0.247   1.218   0.661
  249SOL    MW4 1028   0.245   1.240   0.745
  250SOL     OW 1029   0.185   1.528   0.839
  250SOL    HW2 1030   0.267   1.576   0.823
  250SOL    HW3 1031   0.203   1.440   0.807
  250SOL    MW4 1032   0.198   1.523   0.833
  251SOL     OW 1033   4.461   1.723   0.792
  251SOL    HW2 1034   4.384   1.674   0.823
  251SOL    HW3 1035   4.536   1.676   0.828
  251SOL    MW4 1036   4.460   1.710   0.801
  252SOL     OW 1037   4.462   2.000   0.810
  252SOL    HW2 1038   4.529   2.011   0.742
  252SOL    HW3 1039   4.452   1.905   0.819
  252SOL    MW4 1040   4.469   1.989   0.802
  253SOL     OW 1041   0.167   2.095   0.655
  253SOL    HW2 1042   0.193   2.175   0.701
  253SOL    HW3 1043   0.130   2.126   0.572
  253SOL    MW4 1044   0.165   2.110   0.650
  254SOL     OW 1045   0.242   2.314   0.818
  254SOL    HW2 1046   0.247   2.289   0.910
  254SOL    HW3 1047   0.312   2.378   0.806
  254SOL    MW4 1048   0.252   2.319   0.829
  255SOL     OW 1049   0.019   2.470   0.747
  255SOL    HW2 1050  -0.062   2.432   0.781
  255SOL    HW3 1051   0.089   2.414   0.781
  255SOL    MW4 1052   0.018   2.458   0.756
  256SOL     OW 1053   0.015   2.725   0.842
  256SOL    HW2 1054   0.016   2.715   0.937
  256SOL    HW3 1055   0.031   2.636   0.809
  256SOL    MW4 1056   0.017   2.712   0.850
  257SOL     OW 1057   0.253   2.852   0.721
  257SOL    HW2 1058   0.180   2.811   0.765
  257SOL    HW3 1059   0.244   2.826   0.629
  257SOL    MW4 1060   0.242   2.843   0.714
  258SOL     OW 1061   0.233   3.117   0.841
  258SOL    HW2 1062   0.250   3.110   0.935
  258SOL    HW3 1063   0.235   3.027   0.809
  258SOL    MW4 1064   0.235   3.104   0.849
  259SOL     OW 1065   4.469   3.219   0.763
  259SOL    HW2 1066   4.558   3.192   0.787
  259SOL    HW3 1067   4.450   3.169   0.683
  259SOL    MW4 1068   4.479   3.209   0.756
  260SOL     OW 1069   0.021   3.490   0.830
  260SOL    HW2 1070  -0.058   3.530   0.793
  260SOL    HW3 1071   0.019   3.399   0.801
  260SOL    MW4 1072   0.010   3.483   0.822
  261SOL     OW 1073   0.256   3.596   0.719
  261SOL    HW2 1074   0.177   3.556   0.756
  261SOL    HW3 1075   0.234   3.614   0.628
  261SOL    MW4 1076   0.243   3.593   0.712
  262SOL     OW 1077   0.277   3.871   0.778
  262SOL    HW2 1078   0.274   3.869   0.874
  262SOL    HW3 1079   0.289   3.780   0.752
  262SOL    MW4 1080   0.278   3.859   0.787
  263SOL     OW 1081   0.058   3.998   0.641
  263SOL    HW2 1082  -0.029   3.960   0.656
  263SOL    HW3 1083   0.119   3.937   0.684
  263SOL    MW4 1084   0.055   3.985   0.649
  264SOL     OW 1085   0.052   4.255   0.809
  264SOL    HW2 1086   0.025   4.265   0.900
  264SOL    HW3 1087   0.050   4.161   0.794
  264SOL    MW4 1088   0.048   4.244   0.819
  265SOL     OW 1089   0.262   4.434   0.714
  265SOL    HW2 1090   0.219   4.374   0.775
  265SOL    HW3 1091   0.232   4.405   0.627
  265SOL    MW4 1092   0.252   4.422   0.710
  266SOL     OW 1093   0.671   0.011   0.878
  266SOL    HW2 1094   0.666   0.017   0.973
  266SOL    HW3 1095   0.596   0.062   0.846
  266SOL    MW4 1096   0.660   0.018   0.886
  267SOL     OW 1097   0.471   0.171   0.761
  267SOL    HW2 1098   0.397   0.115   0.784
  267SOL    HW3 1099   0.481   0.159   0.666
  267SOL    MW4 1100   0.463   0.162   0.751
  268SOL     OW 1101   0.443   0.423   0.875
  268SOL    HW2 1102   0.521   0.464   0.837
  268SOL    HW3 1103   0.436   0.338   0.830
  268SOL    MW4 1104   0.452   0.417   0.864
  269SOL     OW 1105   0.673   0.521   0.759
  269SOL    HW2 1106   0.746   0.482   0.806
  269SOL    HW3 1107   0.693   0.506   0.666
  269SOL    MW4 1108   0.685   0.514   0.753
  270SOL     OW 1109   0.683   0.799   0.827
  270SOL    HW2 1110   0.615   0.834   0.769
  270SOL    HW3 1111   0.681   0.704   0.812
  270SOL    MW4 1112   0.674   0.791   0.818
  271SOL     OW 1113   0.449   0.906   0.701
  271SOL    HW2 1114   0.459   0.984   0.756
  271SOL    HW3 1115   0.367   0.866   0.730
  271SOL    MW4 1116   0.439   0.911   0.712
  272SOL     OW 1117   0.504   1.150   0.840
  272SOL    HW2 1118   0.574   1.205   0.805
  272SOL    HW3 1119   0.424   1.189   0.807
  272SOL    MW4 1120   0.503   1.162   0.831
  273SOL     OW 1121   0.709   1.316   0.775
  273SOL    HW2 1122   0.711   1.407   0.805
  273SOL    HW3 1123   0.699   1.322   0.680
  273SOL    MW4 1124   0.708   1.328   0.766
  274SOL     OW 1125   0.677   1.577   0.840
  274SOL    HW2 1126   0.690   1.597   0.933
  274SOL    HW3 1127   0.586   1.602   0.823
  274SOL    MW4 1128   0.667   1.583   0.850
  275SOL     OW 1129   0.437   1.681   0.756
  275SOL    HW2 1130   0.420   1.771   0.728
  275SOL    HW3 1131   0.410   1.627   0.682
  275SOL    MW4 1132   0.431   1.685   0.743
  276SOL     OW 1133   0.391   1.940   0.658
  276SOL    HW2 1134   0.304   1.979   0.669
  276SOL    HW3 1135   0.400   1.929   0.563
  276SOL    MW4 1136   0.381   1.943   0.647
  277SOL     OW 1137   0.570   2.010   0.878
  277SOL    HW2 1138   0.523   1.998   0.961
  277SOL    HW3 1139   0.507   1.985   0.811
  277SOL    MW4 1140   0.556   2.005   0.880
  278SOL     OW 1141   0.597   2.300   0.894
  278SOL    HW2 1142   0.624   2.307   0.985
  278SOL    HW3 1143   0.594   2.206   0.877
  278SOL    MW4 1144   0.600   2.289   0.904
  279SOL     OW 1145   0.463   2.473   0.736
  279SOL    HW2 1146   0.520   2.419   0.790
  279SOL    HW3 1147   0.501   2.468   0.648
  279SOL    MW4 1148   0.475   2.465   0.731
  280SOL     OW 1149   0.460   2.712   0.849
  280SOL    HW2 1150   0.458   2.623   0.813
  280SOL    HW3 1151   0.385   2.756   0.810
  280SOL    MW4 1152   0.450   2.706   0.839
  281SOL     OW 1153   0.657   2.815   0.688
  281SOL    HW2 1154   0.725   2.769   0.737
  281SOL    HW3 1155   0.577   2.798   0.736
  281SOL    MW4 1156   0.656   2.807   0.701
  282SOL     OW 1157   0.676   3.054   0.824
  282SOL    HW2 1158   0.592   3.092   0.797
  282SOL    HW3 1159   0.679   2.969   0.781
  282SOL    MW4 1160   0.665   3.048   0.815
  283SOL     OW 1161   0.462   3.212   0.755
  283SOL    HW2 1162   0.471   3.301   0.788
  283SOL    HW3 1163   0.376   3.183   0.786
  283SOL    MW4 1164   0.452   3.220   0.763
  284SOL     OW 1165   0.460   3.481   0.849
  284SOL    HW2 1166   0.428   3.467   0.938
  284SOL    HW3 1167   0.385   3.517   0.802
  284SOL    MW4 1168   0.446   3.484   0.855
  285SOL     OW 1169   0.676   3.626   0.763
  285SOL    HW2 1170   0.607   3.569   0.798
  285SOL    HW3 1171   0.676   3.702   0.821
  285SOL    MW4 1172   0.667   3.628   0.775
  286SOL     OW 1173   0.705   3.857   0.916
  286SOL    HW2 1174   0.795   3.883   0.896
  286SOL    HW3 1175   0.652   3.933   0.892
  286SOL    MW4 1176   0.710   3.870   0.910
  287SOL     OW 1177   0.529   4.016   0.767
  287SOL    HW2 1178   0.504   4.106   0.788
  287SOL    HW3 1179   0.447   3.967   0.774
  287SOL    MW4 1180   0.515   4.022   0.771
  288SOL     OW 1181   0.477   4.285   0.803
  288SOL    HW2 1182   0.462   4.297   0.897
  288SOL    HW3 1183   0.401   4.324   0.761
  288SOL    MW4 1184   0.465   4.292   0.810
  289SOL     OW 1185   0.712   4.408   0.777
  289SOL    HW2 1186   0.636   4.357   0.804
  289SOL    HW3 1187   0.696   4.496   0.812
  289SOL    MW4 1188   0.700   4.413   0.785
  290SOL     OW 1189   1.141   0.040   0.855
  290SOL    HW2 1190   1.208   0.070   0.794
  290SOL    HW3 1191   1.060   0.079   0.822
  290SOL    MW4 1192   1.139   0.049   0.843
  291SOL     OW 1193   0.897   0.155   0.789
  291SOL    HW2 1194   0.902   0.248   0.812
  291SOL    HW3 1195   0.815   0.125   0.828
  291SOL    MW4 1196   0.887   0.163   0.797
  292SOL     OW 1197   0.911   0.429   0.852
  292SOL    HW2 1198   0.924   0.440   0.946
  292SOL    HW3 1199   0.995   0.452   0.813
  292SOL    MW4 1200   0.924   0.433   0.859
  293SOL     OW 1201   1.150   0.534   0.731
  293SOL    HW2 1202   1.224   0.490   0.772
  293SOL    HW3 1203   1.176   0.544   0.639
  293SOL    MW4 1204   1.163   0.530   0.724
  294SOL     OW 1205   1.134   0.798   0.793
  294SOL    HW2 1206   1.161   0.809   0.884
  294SOL    HW3 1207   1.143   0.704   0.777
  294SOL    MW4 1208   1.138   0.787   0.803
  295SOL     OW 1209   0.912   0.924   0.697
  295SOL    HW2 1210   0.980   0.886   0.752
  295SOL    HW3 1211   0.830   0.890   0.732
  295SOL    MW4 1212   0.910   0.915   0.709
  296SOL     OW 1213   0.916   1.173   0.846
  296SOL    HW2 1214   0.913   1.093   0.795
  296SOL    HW3 1215   0.841   1.224   0.814
  296SOL    MW4 1216   0.906   1.169   0.835
  297SOL     OW 1217   1.116   1.345   0.727
  297SOL    HW2 1218   1.062   1.277   0.768
  297SOL    HW3 1219   1.091   1.344   0.635
  297SOL    MW4 1220   1.106   1.336   0.720
  298SOL     OW 1221   1.066   1.581   0.889
  298SOL    HW2 1222   0.992   1.625   0.847
  298SOL    HW3 1223   1.066   1.493   0.852
  298SOL    MW4 1224   1.056   1.575   0.879
  299SOL     OW 1225   0.862   1.725   0.713
  299SOL    HW2 1226   0.865   1.814   0.747
  299SOL    HW3 1227   0.786   1.685   0.756
  299SOL    MW4 1228   0.852   1.731   0.723
  300SOL     OW 1229   0.839   1.984   0.832
  300SOL    HW2 1230   0.873   1.965   0.919
  300SOL    HW3 1231   0.743   1.985   0.843
  300SOL    MW4 1232   0.831   1.982   0.845
  301SOL     OW 1233   1.071   2.083   0.741
  301SOL    HW2 1234   1.098   2.172   0.765
  301SOL    HW3 1235   0.977   2.082   0.755
  301SOL    MW4 1236   1.062   2.095   0.746
  302SOL     OW 1237   1.088   2.342   0.841
  302SOL    HW2 1238   1.099   2.328   0.935
  302SOL    HW3 1239   1.164   2.396   0.817
  302SOL    MW4 1240   1.100   2.348   0.850
  303SOL     OW 1241   0.835   2.424   0.754
  303SOL    HW2 1242   0.915   2.394   0.798
  303SOL    HW3 1243   0.765   2.371   0.791
  303SOL    MW4 1244   0.837   2.413   0.765
  304SOL     OW 1245   0.854   2.694   0.842
  304SOL    HW2 1246   0.858   2.683   0.937
  304SOL    HW3 1247   0.849   2.605   0.808
  304SOL    MW4 1248   0.854   2.681   0.850
  305SOL     OW 1249   1.092   2.838   0.759
  305SOL    HW2 1250   1.023   2.784   0.798
  305SOL    HW3 1251   1.068   2.845   0.667
  305SOL    MW4 1252   1.080   2.831   0.752
  306SOL     OW 1253   1.128   3.099   0.811
  306SOL    HW2 1254   1.043   3.138   0.791
  306SOL    HW3 1255   1.115   3.005   0.799
  306SOL    MW4 1256   1.115   3.092   0.807
  307SOL     OW 1257   0.887   3.227   0.711
  307SOL    HW2 1258   0.893   3.312   0.754
  307SOL    HW3 1259   0.819   3.180   0.758
  307SOL    MW4 1260   0.879   3.232   0.723
  308SOL     OW 1261   0.889   3.462   0.852
  308SOL    HW2 1262   0.971   3.511   0.841
  308SOL    HW3 1263   0.821   3.525   0.830
  308SOL    MW4 1264   0.891   3.477   0.847
  309SOL     OW 1265   1.116   3.614   0.830
  309SOL    HW2 1266   1.203   3.584   0.854
  309SOL    HW3 1267   1.115   3.612   0.734
  309SOL    MW4 1268   1.127   3.610   0.820
  310SOL     OW 1269   1.148   3.886   0.881
  310SOL    HW2 1270   1.152   3.907   0.975
  310SOL    HW3 1271   1.133   3.792   0.879
  310SOL    MW4 1272   1.147   3.877   0.893
  311SOL     OW 1273   0.915   4.011   0.834
  311SOL    HW2 1274   0.938   4.101   0.856
  311SOL    HW3 1275   0.995   3.961   0.850
  311SOL    MW4 1276   0.929   4.017   0.839
  312SOL     OW 1277   0.952   4.288   0.863
  312SOL    HW2 1278   1.022   4.329   0.812
  312SOL    HW3 1279   0.871   4.321   0.824
  312SOL    MW4 1280   0.950   4.297   0.851
  313SOL     OW 1281   1.126   4.445   0.711
  313SOL    HW2 1282   1.200   4.386   0.728
  313SOL    HW3 1283   1.148   4.525   0.758
  313SOL    MW4 1284   1.139   4.448   0.719
  314SOL     OW 1285   1.617   0.042   0.831
  314SOL    HW2 1286   1.579   0.042   0.919
  314SOL    HW3 1287   1.544   0.066   0.774
  314SOL    MW4 1288   1.602   0.045   0.835
  315SOL     OW 1289   1.361   0.139   0.713
  315SOL    HW2 1290   1.367   0.222   0.761
  315SOL    HW3 1291   1.378   0.164   0.622
  315SOL    MW4 1292   1.364   0.153   0.707
  316SOL     OW 1293   1.373   0.399   0.826
  316SOL    HW2 1294   1.380   0.395   0.921
  316SOL    HW3 1295   1.450   0.449   0.798
  316SOL    MW4 1296   1.384   0.405   0.835
  317SOL     OW 1297   1.583   0.552   0.701
  317SOL    HW2 1298   1.615   0.635   0.736
  317SOL    HW3 1299   1.650   0.488   0.726
  317SOL    MW4 1300   1.596   0.554   0.709
  318SOL     OW 1301   1.583   0.825   0.800
  318SOL    HW2 1302   1.662   0.869   0.766
  318SOL    HW3 1303   1.512   0.859   0.745
  318SOL    MW4 1304   1.584   0.835   0.788
  319SOL     OW 1305   1.346   0.940   0.679
  319SOL    HW2 1306   1.345   1.025   0.723
  319SOL    HW3 1307   1.272   0.893   0.717
  319SOL    MW4 1308   1.336   0.945   0.689
  320SOL     OW 1309   1.356   1.179   0.808
  320SOL    HW2 1310   1.439   1.220   0.782
  320SOL    HW3 1311   1.290   1.246   0.789
  320SOL    MW4 1312   1.358   1.193   0.802
  321SOL     OW 1313   1.612   1.271   0.709
  321SOL    HW2 1314   1.607   1.366   0.702
  321SOL    HW3 1315   1.618   1.240   0.619
  321SOL    MW4 1316   1.612   1.279   0.696
  322SOL     OW 1317   1.741   1.647   0.875
  322SOL    HW2 1318   1.699   1.615   0.954
  322SOL    HW3 1319   1.833   1.623   0.886
  322SOL    MW4 1320   1.748   1.640   0.887
  323SOL     OW 1321   1.325   1.662   0.772
  323SOL    HW2 1322   1.311   1.753   0.795
  323SOL    HW3 1323   1.240   1.620   0.788
  323SOL    MW4 1324   1.312   1.668   0.777
  324SOL     OW 1325   1.301   1.928   0.827
  324SOL    HW2 1326   1.289   1.943   0.921
  324SOL    HW3 1327   1.231   1.978   0.785
  324SOL    MW4 1328   1.290   1.936   0.834
  325SOL     OW 1329   1.557   2.054   0.745
  325SOL    HW2 1330   1.471   2.027   0.778
  325SOL    HW3 1331   1.546   2.057   0.650
  325SOL    MW4 1332   1.544   2.051   0.737
  326SOL     OW 1333   1.545   2.313   0.826
  326SOL    HW2 1334   1.476   2.359   0.779
  326SOL    HW3 1335   1.538   2.222   0.795
  326SOL    MW4 1336   1.535   2.307   0.816
  327SOL     OW 1337   1.325   2.485   0.747
  327SOL    HW2 1338   1.339   2.575   0.778
  327SOL    HW3 1339   1.324   2.493   0.652
  327SOL    MW4 1340   1.327   2.498   0.739
  328SOL     OW 1341   1.363   2.756   0.840
  328SOL    HW2 1342   1.362   2.744   0.935
  328SOL    HW3 1343   1.281   2.802   0.821
  328SOL    MW4 1344   1.352   2.760   0.850
  329SOL     OW 1345   1.561   2.896   0.698
  329SOL    HW2 1346   1.573   2.985   0.730
  329SOL    HW3 1347   1.493   2.859   0.754
  329SOL    MW4 1348   1.553   2.902   0.710
  330SOL     OW 1349   1.581   3.145   0.813
  330SOL    HW2 1350   1.569   3.147   0.908
  330SOL    HW3 1351   1.506   3.194   0.778
  330SOL    MW4 1352   1.570   3.152   0.821
  331SOL     OW 1353   1.347   3.274   0.749
  331SOL    HW2 1354   1.279   3.216   0.785
  331SOL    HW3 1355   1.328   3.278   0.656
  331SOL    MW4 1356   1.335   3.267   0.742
  332SOL     OW 1357   1.372   3.523   0.892
  332SOL    HW2 1358   1.419   3.572   0.826
  332SOL    HW3 1359   1.361   3.435   0.854
  332SOL    MW4 1360   1.376   3.518   0.879
  333SOL     OW 1361   1.563   3.664   0.761
  333SOL    HW2 1362   1.647   3.624   0.787
  333SOL    HW3 1363   1.574   3.682   0.667
  333SOL    MW4 1364   1.576   3.661   0.752
  334SOL     OW 1365   1.596   3.917   0.838
  334SOL    HW2 1366   1.508   3.945   0.812
  334SOL    HW3 1367   1.599   3.824   0.816
  334SOL    MW4 1368   1.585   3.908   0.832
  335SOL     OW 1369   1.364   3.990   0.733
  335SOL    HW2 1370   1.291   3.954   0.783
  335SOL    HW3 1371   1.353   3.953   0.645
  335SOL    MW4 1372   1.353   3.980   0.728
  336SOL     OW 1373   1.311   4.260   0.813
  336SOL    HW2 1374   1.391   4.312   0.809
  336SOL    HW3 1375   1.337   4.176   0.775
  336SOL    MW4 1376   1.325   4.256   0.807
  337SOL     OW 1377   1.543   4.432   0.778
  337SOL    HW2 1378   1.626   4.386   0.793
  337SOL    HW3 1379   1.560   4.522   0.806
  337SOL    MW4 1380   1.557   4.438   0.783
  338SOL     OW 1381   1.871   0.078   0.870
  338SOL    HW2 1382   1.918   0.063   0.788
  338SOL    HW3 1383   1.780   0.057   0.850
  338SOL    MW4 1384   1.865   0.073   0.857
  339SOL     OW 1385   1.754   0.314   0.547
  339SOL    HW2 1386   1.692   0.244   0.523
  339SOL    HW3 1387   1.771   0.300   0.641
  339SOL    MW4 1388   1.748   0.303   0.556
  340SOL     OW 1389   1.814   0.340   0.814
  340SOL    HW2 1390   1.831   0.247   0.830
  340SOL    HW3 1391   1.901   0.378   0.800
  340SOL    MW4 1392   1.828   0.332   0.814
  341SOL     OW 1393   2.029   0.502   0.737
  341SOL    HW2 1394   2.032   0.525   0.644
  341SOL    HW3 1395   2.117   0.470   0.757
  341SOL    MW4 1396   2.041   0.501   0.727
  342SOL     OW 1397   2.045   0.779   0.820
  342SOL    HW2 1398   2.123   0.824   0.786
  342SOL    HW3 1399   2.048   0.692   0.779
  342SOL    MW4 1400   2.056   0.774   0.810
  343SOL     OW 1401   1.820   0.916   0.700
  343SOL    HW2 1402   1.833   0.999   0.745
  343SOL    HW3 1403   1.869   0.852   0.752
  343SOL    MW4 1404   1.828   0.918   0.713
  344SOL     OW 1405   1.844   1.167   0.823
  344SOL    HW2 1406   1.913   1.212   0.774
  344SOL    HW3 1407   1.762   1.200   0.785
  344SOL    MW4 1408   1.842   1.177   0.811
  345SOL     OW 1409   2.046   1.319   0.747
  345SOL    HW2 1410   2.113   1.269   0.794
  345SOL    HW3 1411   2.078   1.325   0.657
  345SOL    MW4 1412   2.059   1.313   0.742
  346SOL     OW 1413   2.008   1.563   0.852
  346SOL    HW2 1414   2.086   1.607   0.817
  346SOL    HW3 1415   2.011   1.475   0.813
  346SOL    MW4 1416   2.019   1.557   0.842
  347SOL     OW 1417   2.304   1.450   0.455
  347SOL    HW2 1418   2.316   1.528   0.402
  347SOL    HW3 1419   2.388   1.404   0.451
  347SOL    MW4 1420   2.317   1.454   0.448
  348SOL     OW 1421   1.772   1.943   0.863
  348SOL    HW2 1422   1.774   1.848   0.861
  348SOL    HW3 1423   1.684   1.966   0.833
  348SOL    MW4 1424   1.761   1.934   0.859
  349SOL     OW 1425   1.985   2.092   0.730
  349SOL    HW2 1426   1.982   2.178   0.773
  349SOL    HW3 1427   1.927   2.037   0.782
  349SOL    MW4 1428   1.977   2.096   0.742
  350SOL     OW 1429   2.018   2.350   0.825
  350SOL    HW2 1430   2.035   2.363   0.919
  350SOL    HW3 1431   1.947   2.412   0.805
  350SOL    MW4 1432   2.011   2.360   0.835
  351SOL     OW 1433   1.771   2.458   0.756
  351SOL    HW2 1434   1.686   2.424   0.785
  351SOL    HW3 1435   1.766   2.456   0.660
  351SOL    MW4 1436   1.759   2.453   0.747
  352SOL     OW 1437   1.790   2.741   0.803
  352SOL    HW2 1438   1.760   2.655   0.775
  352SOL    HW3 1439   1.717   2.800   0.783
  352SOL    MW4 1440   1.777   2.738   0.797
  353SOL     OW 1441   2.015   2.871   0.707
  353SOL    HW2 1442   2.097   2.830   0.733
  353SOL    HW3 1443   1.947   2.814   0.743
  353SOL    MW4 1444   2.017   2.858   0.715
  354SOL     OW 1445   2.056   3.146   0.747
  354SOL    HW2 1446   1.970   3.182   0.727
  354SOL    HW3 1447   2.046   3.052   0.735
  354SOL    MW4 1448   2.044   3.138   0.743
  355SOL     OW 1449   1.808   3.297   0.713
  355SOL    HW2 1450   1.737   3.247   0.753
  355SOL    HW3 1451   1.782   3.308   0.622
  355SOL    MW4 1452   1.795   3.292   0.706
  356SOL     OW 1453   1.795   3.531   0.837
  356SOL    HW2 1454   1.810   3.522   0.932
  356SOL    HW3 1455   1.801   3.441   0.804
  356SOL    MW4 1456   1.798   3.518   0.845
  357SOL     OW 1457   2.031   3.654   0.743
  357SOL    HW2 1458   2.010   3.743   0.772
  357SOL    HW3 1459   1.960   3.600   0.776
  357SOL    MW4 1460   2.019   3.659   0.751
  358SOL     OW 1461   1.987   3.917   0.822
  358SOL    HW2 1462   1.969   3.924   0.916
  358SOL    HW3 1463   1.914   3.963   0.780
  358SOL    MW4 1464   1.975   3.924   0.829
  359SOL     OW 1465   1.796   4.045   0.710
  359SOL    HW2 1466   1.727   3.991   0.750
  359SOL    HW3 1467   1.797   4.017   0.618
  359SOL    MW4 1468   1.787   4.034   0.703
  360SOL     OW 1469   1.774   4.293   0.835
  360SOL    HW2 1470   1.786   4.279   0.929
  360SOL    HW3 1471   1.778   4.206   0.796
  360SOL    MW4 1472   1.776   4.280   0.842
  361SOL     OW 1473   2.014   4.411   0.771
  361SOL    HW2 1474   1.928   4.371   0.786
  361SOL    HW3 1475   2.037   4.386   0.681
  361SOL    MW4 1476   2.006   4.402   0.761
  362SOL     OW 1477   2.441   4.650   0.774
  362SOL    HW2 1478   2.465   4.639   0.866
  362SOL    HW3 1479   2.519   4.687   0.733
  362SOL    MW4 1480   2.455   4.653   0.781
  363SOL     OW 1481   2.271   0.175   0.680
  363SOL    HW2 1482   2.329   0.110   0.719
  363SOL    HW3 1483   2.191   0.126   0.659
  363SOL    MW4 1484   2.268   0.160   0.682
  364SOL     OW 1485   2.300   0.430   0.834
  364SOL    HW2 1486   2.390   0.463   0.837
  364SOL    HW3 1487   2.304   0.357   0.773
  364SOL    MW4 1488   2.313   0.425   0.826
  365SOL     OW 1489   2.562   0.551   0.800
  365SOL    HW2 1490   2.578   0.549   0.705
  365SOL    HW3 1491   2.618   0.482   0.835
  365SOL    MW4 1492   2.571   0.542   0.792
  366SOL     OW 1493   2.511   0.859   0.659
  366SOL    HW2 1494   2.499   0.912   0.580
  366SOL    HW3 1495   2.536   0.773   0.626
  366SOL    MW4 1496   2.513   0.855   0.644
  367SOL     OW 1497   2.250   0.953   0.742
  367SOL    HW2 1498   2.331   0.904   0.730
  367SOL    HW3 1499   2.220   0.971   0.653
  367SOL    MW4 1500   2.256   0.949   0.728
  368SOL     OW 1501   2.273   1.197   0.870
  368SOL    HW2 1502   2.284   1.183   0.964
  368SOL    HW3 1503   2.277   1.109   0.832
  368SOL    MW4 1504   2.275   1.183   0.877
  369SOL     OW 1505   2.494   1.289   0.728
  369SOL    HW2 1506   2.411   1.257   0.764
  369SOL    HW3 1507   2.491   1.265   0.636
  369SOL    MW4 1508   2.482   1.282   0.721
  370SOL     OW 1509   2.463   1.547   0.811
  370SOL    HW2 1510   2.543   1.578   0.769
  370SOL    HW3 1511   2.454   1.457   0.781
  370SOL    MW4 1512   2.472   1.539   0.802
  371SOL     OW 1513   2.233   1.680   0.724
  371SOL    HW2 1514   2.307   1.637   0.767
  371SOL    HW3 1515   2.243   1.658   0.631
  371SOL    MW4 1516   2.244   1.672   0.717
  372SOL     OW 1517   2.213   1.943   0.835
  372SOL    HW2 1518   2.202   1.856   0.796
  372SOL    HW3 1519   2.142   1.995   0.797
  372SOL    MW4 1520   2.202   1.938   0.825
  373SOL     OW 1521   2.455   2.036   0.751
  373SOL    HW2 1522   2.379   2.002   0.799
  373SOL    HW3 1523   2.424   2.046   0.661
  373SOL    MW4 1524   2.441   2.033   0.746
  374SOL     OW 1525   2.488   2.301   0.834
  374SOL    HW2 1526   2.567   2.344   0.800
  374SOL    HW3 1527   2.497   2.210   0.805
  374SOL    MW4 1528   2.500   2.295   0.826
  375SOL     OW 1529   2.272   2.430   0.712
  375SOL    HW2 1530   2.342   2.382   0.756
  375SOL    HW3 1531   2.192   2.400   0.755
  375SOL    MW4 1532   2.270   2.420   0.723
  376SOL     OW 1533   2.251   2.721   0.746
  376SOL    HW2 1534   2.251   2.725   0.841
  376SOL    HW3 1535   2.260   2.628   0.726
  376SOL    MW4 1536   2.252   2.709   0.756
  377SOL     OW 1537   2.496   2.869   0.724
  377SOL    HW2 1538   2.559   2.810   0.766
  377SOL    HW3 1539   2.412   2.824   0.731
  377SOL    MW4 1540   2.493   2.855   0.730
  378SOL     OW 1541   2.480   3.130   0.806
  378SOL    HW2 1542   2.489   3.137   0.901
  378SOL    HW3 1543   2.488   3.037   0.787
  378SOL    MW4 1544   2.482   3.119   0.816
  379SOL     OW 1545   2.279   3.288   0.691
  379SOL    HW2 1546   2.197   3.243   0.712
  379SOL    HW3 1547   2.346   3.240   0.739
  379SOL    MW4 1548   2.277   3.276   0.700
  380SOL     OW 1549   2.251   3.516   0.833
  380SOL    HW2 1550   2.249   3.437   0.779
  380SOL    HW3 1551   2.173   3.565   0.806
  380SOL    MW4 1552   2.240   3.512   0.822
  381SOL     OW 1553   2.467   3.632   0.732
  381SOL    HW2 1554   2.539   3.602   0.787
  381SOL    HW3 1555   2.389   3.593   0.771
  381SOL    MW4 1556   2.466   3.623   0.744
  382SOL     OW 1557   2.437   3.893   0.828
  382SOL    HW2 1558   2.367   3.941   0.785
  382SOL    HW3 1559   2.433   3.805   0.792
  382SOL    MW4 1560   2.427   3.887   0.818
  383SOL     OW 1561   2.215   4.010   0.723
  383SOL    HW2 1562   2.132   3.982   0.760
  383SOL    HW3 1563   2.220   3.967   0.638
  383SOL    MW4 1564   2.205   4.001   0.717
  384SOL     OW 1565   2.236   4.267   0.846
  384SOL    HW2 1566   2.211   4.177   0.825
  384SOL    HW3 1567   2.155   4.317   0.836
  384SOL    MW4 1568   2.222   4.262   0.842
  385SOL     OW 1569   2.517   4.271   0.836
  385SOL    HW2 1570   2.422   4.257   0.830
  385SOL    HW3 1571   2.536   4.269   0.930
  385SOL    MW4 1572   2.507   4.269   0.848
  386SOL     OW 1573   2.848   4.586   0.856
  386SOL    HW2 1574   2.825   4.499   0.822
  386SOL    HW3 1575   2.784   4.645   0.816
  386SOL    MW4 1576   2.836   4.582   0.846
  387SOL     OW 1577   2.757   4.461   0.590
  387SOL    HW2 1578   2.852   4.456   0.579
  387SOL    HW3 1579   2.731   4.539   0.541
  387SOL    MW4 1580   2.766   4.471   0.582
  388SOL     OW 1581   2.724   0.344   0.874
  388SOL    HW2 1582   2.722   0.335   0.969
  388SOL    HW3 1583   2.810   0.382   0.856
  388SOL    MW4 1584   2.735   0.348   0.884
  389SOL     OW 1585   2.968   0.436   0.772
  389SOL    HW2 1586   3.049   0.393   0.797
  389SOL    HW3 1587   2.964   0.429   0.677
  389SOL    MW4 1588   2.978   0.430   0.763
  390SOL     OW 1589   2.912   0.724   0.821
  390SOL    HW2 1590   2.893   0.740   0.913
  390SOL    HW3 1591   2.954   0.637   0.819
  390SOL    MW4 1592   2.915   0.714   0.833
  391SOL     OW 1593   2.764   0.928   0.732
  391SOL    HW2 1594   2.824   0.856   0.748
  391SOL    HW3 1595   2.678   0.888   0.726
  391SOL    MW4 1596   2.760   0.913   0.733
  392SOL     OW 1597   2.733   1.178   0.849
  392SOL    HW2 1598   2.736   1.089   0.813
  392SOL    HW3 1599   2.654   1.216   0.813
  392SOL    MW4 1600   2.723   1.171   0.839
  393SOL     OW 1601   2.952   1.275   0.737
  393SOL    HW2 1602   3.029   1.226   0.765
  393SOL    HW3 1603   2.882   1.245   0.795
  393SOL    MW4 1604   2.953   1.265   0.748
  394SOL     OW 1605   2.889   1.526   0.836
  394SOL    HW2 1606   2.968   1.577   0.815
  394SOL    HW3 1607   2.897   1.447   0.783
  394SOL    MW4 1608   2.901   1.523   0.826
  395SOL     OW 1609   2.709   1.664   0.675
  395SOL    HW2 1610   2.704   1.753   0.709
  395SOL    HW3 1611   2.775   1.621   0.729
  395SOL    MW4 1612   2.717   1.670   0.687
  396SOL     OW 1613   2.703   1.918   0.767
  396SOL    HW2 1614   2.724   1.928   0.860
  396SOL    HW3 1615   2.619   1.962   0.756
  396SOL    MW4 1616   2.695   1.925   0.778
  397SOL     OW 1617   2.855   2.136   0.639
  397SOL    HW2 1618   2.881   2.209   0.694
  397SOL    HW3 1619   2.818   2.072   0.699
  397SOL    MW4 1620   2.854   2.137   0.654
  398SOL     OW 1621   2.953   2.348   0.803
  398SOL    HW2 1622   2.976   2.346   0.896
  398SOL    HW3 1623   2.865   2.384   0.801
  398SOL    MW4 1624   2.945   2.353   0.815
  399SOL     OW 1625   2.704   2.447   0.734
  399SOL    HW2 1626   2.717   2.429   0.641
  399SOL    HW3 1627   2.713   2.542   0.743
  399SOL    MW4 1628   2.707   2.457   0.723
  400SOL     OW 1629   2.716   2.731   0.829
  400SOL    HW2 1630   2.695   2.740   0.922
  400SOL    HW3 1631   2.779   2.800   0.812
  400SOL    MW4 1632   2.721   2.742   0.839
  401SOL     OW 1633   2.915   2.837   0.462
  401SOL    HW2 1634   2.924   2.743   0.448
  401SOL    HW3 1635   2.821   2.854   0.451
  401SOL    MW4 1636   2.904   2.827   0.459
  402SOL     OW 1637   2.916   3.148   0.855
  402SOL    HW2 1638   2.848   3.196   0.807
  402SOL    HW3 1639   2.911   3.059   0.819
  402SOL    MW4 1640   2.906   3.142   0.844
  403SOL     OW 1641   2.705   3.312   0.689
  403SOL    HW2 1642   2.697   3.381   0.755
  403SOL    HW3 1643   2.642   3.246   0.715
  403SOL    MW4 1644   2.696   3.312   0.701
  404SOL     OW 1645   2.673   3.534   0.873
  404SOL    HW2 1646   2.678   3.523   0.968
  404SOL    HW3 1647   2.764   3.551   0.847
  404SOL    MW4 1648   2.686   3.535   0.882
  405SOL     OW 1649   2.931   3.611   0.763
  405SOL    HW2 1650   2.943   3.701   0.795
  405SOL    HW3 1651   2.922   3.622   0.668
  405SOL    MW4 1652   2.931   3.625   0.755
  406SOL     OW 1653   2.905   3.893   0.816
  406SOL    HW2 1654   2.884   3.872   0.907
  406SOL    HW3 1655   2.820   3.908   0.775
  406SOL    MW4 1656   2.891   3.892   0.823
  407SOL     OW 1657   2.677   4.003   0.695
  407SOL    HW2 1658   2.596   3.968   0.730
  407SOL    HW3 1659   2.691   3.956   0.612
  407SOL    MW4 1660   2.668   3.993   0.688
  408SOL     OW 1661   2.832   4.292   0.860
  408SOL    HW2 1662   2.919   4.252   0.853
  408SOL    HW3 1663   2.807   4.279   0.952
  408SOL    MW4 1664   2.840   4.285   0.871
  409SOL     OW 1665   3.060   4.393   0.551
  409SOL    HW2 1666   3.132   4.389   0.614
  409SOL    HW3 1667   3.012   4.310   0.563
  409SOL    MW4 1668   3.063   4.381   0.561
  410SOL     OW 1669   3.342   4.636   0.855
  410SOL    HW2 1670   3.334   4.655   0.949
  410SOL    HW3 1671   3.277   4.692   0.814
  410SOL    MW4 1672   3.333   4.646   0.862
  411SOL     OW 1673   3.098   0.047   0.756
  411SOL    HW2 1674   3.099   0.136   0.791
  411SOL    HW3 1675   3.027   0.004   0.804
  411SOL    MW4 1676   3.088   0.053   0.767
  412SOL     OW 1677   3.199   0.302   0.853
  412SOL    HW2 1678   3.200   0.351   0.935
  412SOL    HW3 1679   3.271   0.339   0.802
  412SOL    MW4 1680   3.209   0.313   0.857
  413SOL     OW 1681   3.391   0.473   0.758
  413SOL    HW2 1682   3.482   0.446   0.772
  413SOL    HW3 1683   3.380   0.469   0.663
  413SOL    MW4 1684   3.401   0.469   0.747
  414SOL     OW 1685   3.381   0.732   0.847
  414SOL    HW2 1686   3.299   0.777   0.827
  414SOL    HW3 1687   3.367   0.642   0.818
  414SOL    MW4 1688   3.368   0.726   0.840
  415SOL     OW 1689   3.155   0.869   0.762
  415SOL    HW2 1690   3.154   0.957   0.801
  415SOL    HW3 1691   3.069   0.833   0.782
  415SOL    MW4 1692   3.143   0.876   0.770
  416SOL     OW 1693   3.167   1.150   0.844
  416SOL    HW2 1694   3.183   1.150   0.938
  416SOL    HW3 1695   3.249   1.180   0.805
  416SOL    MW4 1696   3.180   1.154   0.851
  417SOL     OW 1697   3.366   1.270   0.701
  417SOL    HW2 1698   3.452   1.235   0.727
  417SOL    HW3 1699   3.368   1.361   0.731
  417SOL    MW4 1700   3.378   1.277   0.708
  418SOL     OW 1701   3.363   1.530   0.807
  418SOL    HW2 1702   3.362   1.528   0.902
  418SOL    HW3 1703   3.415   1.607   0.785
  418SOL    MW4 1704   3.370   1.540   0.816
  419SOL     OW 1705   3.123   1.679   0.776
  419SOL    HW2 1706   3.199   1.627   0.800
  419SOL    HW3 1707   3.124   1.682   0.680
  419SOL    MW4 1708   3.133   1.672   0.767
  420SOL     OW 1709   3.170   1.939   0.826
  420SOL    HW2 1710   3.160   1.958   0.919
  420SOL    HW3 1711   3.143   1.848   0.817
  420SOL    MW4 1712   3.165   1.930   0.837
  421SOL     OW 1713   3.570   1.994   0.868
  421SOL    HW2 1714   3.527   2.079   0.863
  421SOL    HW3 1715   3.513   1.936   0.817
  421SOL    MW4 1716   3.557   1.997   0.861
  422SOL     OW 1717   3.441   2.232   0.859
  422SOL    HW2 1718   3.407   2.234   0.949
  422SOL    HW3 1719   3.523   2.282   0.864
  422SOL    MW4 1720   3.447   2.239   0.872
  423SOL     OW 1721   3.112   2.499   0.648
  423SOL    HW2 1722   3.172   2.425   0.635
  423SOL    HW3 1723   3.045   2.465   0.707
  423SOL    MW4 1724   3.111   2.485   0.654
  424SOL     OW 1725   3.135   2.729   0.798
  424SOL    HW2 1726   3.149   2.650   0.745
  424SOL    HW3 1727   3.204   2.789   0.769
  424SOL    MW4 1728   3.146   2.727   0.787
  425SOL     OW 1729   3.325   2.890   0.668
  425SOL    HW2 1730   3.271   2.893   0.589
  425SOL    HW3 1731   3.401   2.838   0.643
  425SOL    MW4 1732   3.328   2.884   0.655
  426SOL     OW 1733   3.367   3.115   0.799
  426SOL    HW2 1734   3.365   3.096   0.893
  426SOL    HW3 1735   3.338   3.034   0.757
  426SOL    MW4 1736   3.363   3.102   0.806
  427SOL     OW 1737   3.132   3.235   0.726
  427SOL    HW2 1738   3.208   3.196   0.768
  427SOL    HW3 1739   3.057   3.199   0.774
  427SOL    MW4 1740   3.132   3.225   0.738
  428SOL     OW 1741   3.172   3.501   0.814
  428SOL    HW2 1742   3.159   3.411   0.785
  428SOL    HW3 1743   3.089   3.545   0.794
  428SOL    MW4 1744   3.159   3.495   0.808
  429SOL     OW 1745   3.664   4.186   0.619
  429SOL    HW2 1746   3.703   4.123   0.559
  429SOL    HW3 1747   3.738   4.240   0.648
  429SOL    MW4 1748   3.679   4.185   0.615
  430SOL     OW 1749   3.483   3.907   0.828
  430SOL    HW2 1750   3.474   4.003   0.829
  430SOL    HW3 1751   3.429   3.878   0.902
  430SOL    MW4 1752   3.475   3.916   0.838
  431SOL     OW 1753   3.092   3.997   0.647
  431SOL    HW2 1754   3.162   3.937   0.625
  431SOL    HW3 1755   3.030   3.944   0.698
  431SOL    MW4 1756   3.093   3.982   0.651
  432SOL     OW 1757   3.122   4.196   0.859
  432SOL    HW2 1758   3.172   4.261   0.809
  432SOL    HW3 1759   3.139   4.113   0.814
  432SOL    MW4 1760   3.131   4.194   0.846
  433SOL     OW 1761   3.289   4.388   0.712
  433SOL    HW2 1762   3.324   4.468   0.751
  433SOL    HW3 1763   3.350   4.368   0.641
  433SOL    MW4 1764   3.302   4.396   0.708
  434SOL     OW 1765   3.797   4.595   0.815
  434SOL    HW2 1766   3.874   4.640   0.782
  434SOL    HW3 1767   3.723   4.646   0.781
  434SOL    MW4 1768   3.797   4.608   0.807
  435SOL     OW 1769   3.583   0.092   0.750
  435SOL    HW2 1770   3.498   0.065   0.783
  435SOL    HW3 1771   3.574   0.086   0.655
  435SOL    MW4 1772   3.571   0.087   0.742
  436SOL     OW 1773   3.637   0.358   0.833
  436SOL    HW2 1774   3.637   0.352   0.928
  436SOL    HW3 1775   3.615   0.270   0.803
  436SOL    MW4 1776   3.634   0.346   0.841
  437SOL     OW 1777   3.865   0.483   0.732
  437SOL    HW2 1778   3.841   0.574   0.752
  437SOL    HW3 1779   3.791   0.432   0.765
  437SOL    MW4 1780   3.852   0.489   0.739
  438SOL     OW 1781   3.811   0.738   0.825
  438SOL    HW2 1782   3.792   0.755   0.917
  438SOL    HW3 1783   3.893   0.785   0.808
  438SOL    MW4 1784   3.820   0.746   0.835
  439SOL     OW 1785   3.587   0.866   0.726
  439SOL    HW2 1786   3.668   0.819   0.749
  439SOL    HW3 1787   3.518   0.818   0.772
  439SOL    MW4 1788   3.589   0.853   0.735
  440SOL     OW 1789   3.588   1.131   0.791
  440SOL    HW2 1790   3.579   1.138   0.887
  440SOL    HW3 1791   3.586   1.036   0.774
  440SOL    MW4 1792   3.586   1.119   0.802
  441SOL     OW 1793   3.808   1.283   0.729
  441SOL    HW2 1794   3.738   1.221   0.748
  441SOL    HW3 1795   3.841   1.256   0.643
  441SOL    MW4 1796   3.803   1.272   0.720
  442SOL     OW 1797   3.798   1.541   0.844
  442SOL    HW2 1798   3.867   1.589   0.797
  442SOL    HW3 1799   3.795   1.456   0.800
  442SOL    MW4 1800   3.807   1.536   0.832
  443SOL     OW 1801   3.624   1.570   0.564
  443SOL    HW2 1802   3.539   1.565   0.521
  443SOL    HW3 1803   3.615   1.518   0.643
  443SOL    MW4 1804   3.612   1.563   0.569
  444SOL     OW 1805   3.790   1.967   0.712
  444SOL    HW2 1806   3.872   1.966   0.761
  444SOL    HW3 1807   3.722   1.978   0.778
  444SOL    MW4 1808   3.792   1.968   0.727
  445SOL     OW 1809   3.766   2.220   0.595
  445SOL    HW2 1810   3.722   2.258   0.671
  445SOL    HW3 1811   3.769   2.126   0.613
  445SOL    MW4 1812   3.761   2.213   0.607
  446SOL     OW 1813   3.731   1.813   0.488
  446SOL    HW2 1814   3.754   1.868   0.563
  446SOL    HW3 1815   3.703   1.730   0.528
  446SOL    MW4 1816   3.731   1.809   0.503
  447SOL     OW 1817   3.690   2.353   0.845
  447SOL    HW2 1818   3.660   2.444   0.837
  447SOL    HW3 1819   3.732   2.348   0.930
  447SOL    MW4 1820   3.691   2.364   0.855
  448SOL     OW 1821   3.603   2.614   0.862
  448SOL    HW2 1822   3.565   2.602   0.949
  448SOL    HW3 1823   3.679   2.671   0.876
  448SOL    MW4 1824   3.608   2.620   0.875
  449SOL     OW 1825   3.827   2.766   0.803
  449SOL    HW2 1826   3.805   2.854   0.832
  449SOL    HW3 1827   3.804   2.764   0.710
  449SOL    MW4 1828   3.821   2.777   0.795
  450SOL     OW 1829   3.810   3.058   0.844
  450SOL    HW2 1830   3.880   3.086   0.785
  450SOL    HW3 1831   3.738   3.119   0.826
  450SOL    MW4 1832   3.810   3.070   0.834
  451SOL     OW 1833   3.608   3.258   0.778
  451SOL    HW2 1834   3.527   3.207   0.774
  451SOL    HW3 1835   3.638   3.262   0.687
  451SOL    MW4 1836   3.601   3.252   0.765
  452SOL     OW 1837   3.630   3.534   0.832
  452SOL    HW2 1838   3.637   3.438   0.823
  452SOL    HW3 1839   3.558   3.557   0.773
  452SOL    MW4 1840   3.621   3.524   0.823
  453SOL     OW 1841   3.831   3.532   0.623
  453SOL    HW2 1842   3.764   3.537   0.690
  453SOL    HW3 1843   3.911   3.508   0.670
  453SOL    MW4 1844   3.833   3.529   0.638
  454SOL     OW 1845   3.742   3.804   0.897
  454SOL    HW2 1846   3.670   3.842   0.846
  454SOL    HW3 1847   3.715   3.713   0.912
  454SOL    MW4 1848   3.729   3.797   0.892
  455SOL     OW 1849   2.613   4.317   0.265
  455SOL    HW2 1850   2.660   4.401   0.260
  455SOL    HW3 1851   2.600   4.303   0.359
  455SOL    MW4 1852   2.617   4.326   0.277
  456SOL     OW 1853   3.465   4.187   0.829
  456SOL    HW2 1854   3.537   4.193   0.767
  456SOL    HW3 1855   3.402   4.253   0.799
  456SOL    MW4 1856   3.466   4.197   0.817
  457SOL     OW 1857   3.859   4.363   0.700
  457SOL    HW2 1858   3.895   4.304   0.765
  457SOL    HW3 1859   3.848   4.446   0.746
  457SOL    MW4 1860   3.862   4.366   0.714
  458SOL     OW 1861   4.264   4.613   0.826
  458SOL    HW2 1862   4.270   4.611   0.921
  458SOL    HW3 1863   4.193   4.674   0.807
  458SOL    MW4 1864   4.255   4.621   0.836
  459SOL     OW 1865   4.022   0.085   0.748
  459SOL    HW2 1866   4.030   0.177   0.773
  459SOL    HW3 1867   4.051   0.083   0.657
  459SOL    MW4 1868   4.027   0.097   0.739
  460SOL     OW 1869   4.063   0.351   0.865
  460SOL    HW2 1870   4.138   0.388   0.820
  460SOL    HW3 1871   3.987   0.394   0.825
  460SOL    MW4 1872   4.063   0.361   0.854
  461SOL     OW 1873   4.277   0.454   0.735
  461SOL    HW2 1874   4.351   0.405   0.770
  461SOL    HW3 1875   4.277   0.436   0.642
  461SOL    MW4 1876   4.287   0.445   0.728
  462SOL     OW 1877   4.293   0.699   0.887
  462SOL    HW2 1878   4.208   0.736   0.863
  462SOL    HW3 1879   4.295   0.614   0.844
  462SOL    MW4 1880   4.282   0.693   0.879
  463SOL     OW 1881   4.062   0.853   0.792
  463SOL    HW2 1882   4.061   0.944   0.820
  463SOL    HW3 1883   4.077   0.856   0.698
  463SOL    MW4 1884   4.064   0.865   0.783
  464SOL     OW 1885   4.053   1.114   0.891
  464SOL    HW2 1886   4.058   1.106   0.986
  464SOL    HW3 1887   3.973   1.165   0.875
  464SOL    MW4 1888   4.043   1.120   0.901
  465SOL     OW 1889   4.246   1.289   0.779
  465SOL    HW2 1890   4.189   1.229   0.825
  465SOL    HW3 1891   4.333   1.249   0.784
  465SOL    MW4 1892   4.250   1.276   0.786
  466SOL     OW 1893   4.232   1.573   0.863
  466SOL    HW2 1894   4.250   1.581   0.957
  466SOL    HW3 1895   4.254   1.482   0.842
  466SOL    MW4 1896   4.237   1.562   0.873
  467SOL     OW 1897   4.021   1.672   0.718
  467SOL    HW2 1898   4.086   1.636   0.779
  467SOL    HW3 1899   4.035   1.625   0.636
  467SOL    MW4 1900   4.031   1.661   0.715
  468SOL     OW 1901   4.020   1.908   0.859
  468SOL    HW2 1902   4.028   1.832   0.803
  468SOL    HW3 1903   4.076   1.974   0.819
  468SOL    MW4 1904   4.029   1.907   0.846
  469SOL     OW 1905   4.228   2.095   0.693
  469SOL    HW2 1906   4.306   2.062   0.738
  469SOL    HW3 1907   4.217   2.035   0.619
  469SOL    MW4 1908   4.237   2.083   0.689
  470SOL     OW 1909   4.275   2.362   0.807
  470SOL    HW2 1910   4.221   2.419   0.752
  470SOL    HW3 1911   4.276   2.278   0.761
  470SOL    MW4 1912   4.268   2.359   0.794
  471SOL     OW 1913   4.128   2.526   0.640
  471SOL    HW2 1914   4.095   2.582   0.710
  471SOL    HW3 1915   4.050   2.498   0.592
  471SOL    MW4 1916   4.114   2.530   0.643
  472SOL     OW 1917   4.057   2.647   0.889
  472SOL    HW2 1918   4.127   2.712   0.880
  472SOL    HW3 1919   3.982   2.688   0.846
  472SOL    MW4 1920   4.057   2.661   0.882
  473SOL     OW 1921   4.258   2.816   0.828
  473SOL    HW2 1922   4.345   2.780   0.848
  473SOL    HW3 1923   4.253   2.816   0.733
  473SOL    MW4 1924   4.269   2.811   0.818
  474SOL     OW 1925   4.238   3.097   0.861
  474SOL    HW2 1926   4.243   3.001   0.853
  474SOL    HW3 1927   4.321   3.127   0.824
  474SOL    MW4 1928   4.250   3.088   0.855
  475SOL     OW 1929   4.025   3.166   0.693
  475SOL    HW2 1930   4.013   3.258   0.718
  475SOL    HW3 1931   4.104   3.139   0.741
  475SOL    MW4 1932   4.034   3.175   0.703
  476SOL     OW 1933   4.048   3.444   0.783
  476SOL    HW2 1934   4.043   3.466   0.876
  476SOL    HW3 1935   4.132   3.479   0.755
  476SOL    MW4 1936   4.058   3.452   0.792
  477SOL     OW 1937   4.279   3.574   0.708
  477SOL    HW2 1938   4.226   3.644   0.745
  477SOL    HW3 1939   4.271   3.585   0.614
  477SOL    MW4 1940   4.271   3.584   0.701
  478SOL     OW 1941   4.160   3.806   0.850
  478SOL    HW2 1942   4.187   3.845   0.933
  478SOL    HW3 1943   4.074   3.844   0.832
  478SOL    MW4 1944   4.152   3.816   0.858
  479SOL     OW 1945   3.929   3.942   0.760
  479SOL    HW2 1946   3.861   3.889   0.802
  479SOL    HW3 1947   3.933   3.909   0.671
  479SOL    MW4 1948   3.921   3.931   0.754
  480SOL     OW 1949   4.013   4.178   0.864
  480SOL    HW2 1950   4.087   4.193   0.804
  480SOL    HW3 1951   3.976   4.094   0.836
  480SOL    MW4 1952   4.018   4.169   0.852
  481SOL     OW 1953   4.398   4.438   0.661
  481SOL    HW2 1954   4.357   4.493   0.727
  481SOL    HW3 1955   4.444   4.371   0.711
  481SOL    MW4 1956   4.399   4.436   0.676
  482SOL     OW 1957   0.223   4.653   1.120
  482SOL    HW2 1958   0.276   4.708   1.178
  482SOL    HW3 1959   0.254   4.675   1.032
  482SOL    MW4 1960   0.234   4.663   1.116
  483SOL     OW 1961   4.482   0.145   1.228
  483SOL    HW2 1962   4.406   0.102   1.189
  483SOL    HW3 1963   4.558   0.105   1.185
  483SOL    MW4 1964   4.482   0.134   1.217
  484SOL     OW 1965   0.017   0.373   1.129
  484SOL    HW2 1966  -0.069   0.413   1.140
  484SOL    HW3 1967   0.013   0.291   1.178
  484SOL    MW4 1968   0.005   0.368   1.137
  485SOL     OW 1969   0.236   0.536   1.206
  485SOL    HW2 1970   0.230   0.625   1.173
  485SOL    HW3 1971   0.165   0.489   1.162
  485SOL    MW4 1972   0.226   0.541   1.196
  486SOL     OW 1973   0.217   0.782   1.084
  486SOL    HW2 1974   0.295   0.827   1.117
  486SOL    HW3 1975   0.145   0.816   1.137
  486SOL    MW4 1976   0.218   0.793   1.095
  487SOL     OW 1977   4.481   0.890   1.225
  487SOL    HW2 1978   4.497   0.870   1.317
  487SOL    HW3 1979   4.401   0.841   1.203
  487SOL    MW4 1980   4.472   0.881   1.234
  488SOL     OW 1981   4.486   1.171   1.109
  488SOL    HW2 1982   4.405   1.212   1.140
  488SOL    HW3 1983   4.480   1.080   1.139
  488SOL    MW4 1984   4.474   1.164   1.117
  489SOL     OW 1985   0.238   1.272   1.235
  489SOL    HW2 1986   0.319   1.245   1.192
  489SOL    HW3 1987   0.168   1.245   1.175
  489SOL    MW4 1988   0.239   1.265   1.221
  490SOL     OW 1989   0.233   1.544   1.134
  490SOL    HW2 1990   0.238   1.454   1.167
  490SOL    HW3 1991   0.201   1.536   1.044
  490SOL    MW4 1992   0.230   1.531   1.126
  491SOL     OW 1993   4.487   1.712   1.211
  491SOL    HW2 1994   4.494   1.790   1.156
  491SOL    HW3 1995   4.567   1.662   1.190
  491SOL    MW4 1996   4.499   1.716   1.201
  492SOL     OW 1997   4.480   1.953   1.081
  492SOL    HW2 1998   4.395   1.975   1.119
  492SOL    HW3 1999   4.472   1.981   0.989
  492SOL    MW4 2000   4.467   1.960   1.074
  493SOL     OW 2001   0.233   2.026   1.217
  493SOL    HW2 2002   0.232   2.112   1.175
  493SOL    HW3 2003   0.150   1.985   1.192
  493SOL    MW4 2004   0.222   2.032   1.208
  494SOL     OW 2005   0.222   2.278   1.090
  494SOL    HW2 2006   0.296   2.320   1.133
  494SOL    HW3 2007   0.145   2.327   1.120
  494SOL    MW4 2008   0.222   2.290   1.099
  495SOL     OW 2009   0.015   2.424   1.194
  495SOL    HW2 2010   0.013   2.430   1.290
  495SOL    HW3 2011  -0.072   2.391   1.170
  495SOL    MW4 2012   0.003   2.420   1.204
  496SOL     OW 2013   0.019   2.692   1.112
  496SOL    HW2 2014  -0.051   2.736   1.161
  496SOL    HW3 2015   0.019   2.603   1.147
  496SOL    MW4 2016   0.009   2.686   1.123
  497SOL     OW 2017   0.252   2.830   1.222
  497SOL    HW2 2018   0.242   2.844   1.316
  497SOL    HW3 2019   0.174   2.780   1.197
  497SOL    MW4 2020   0.240   2.825   1.231
  498SOL     OW 2021   0.251   3.079   1.111
  498SOL    HW2 2022   0.316   3.125   1.164
  498SOL    HW3 2023   0.250   2.990   1.147
  498SOL    MW4 2024   0.259   3.073   1.123
  499SOL     OW 2025   0.004   3.221   1.210
  499SOL    HW2 2026  -0.073   3.179   1.171
  499SOL    HW3 2027   0.079   3.172   1.175
  499SOL    MW4 2028   0.004   3.209   1.200
  500SOL     OW 2029   0.021   3.493   1.126
  500SOL    HW2 2030   0.018   3.404   1.161
  500SOL    HW3 2031   0.004   3.483   1.032
  500SOL    MW4 2032   0.018   3.480   1.118
  501SOL     OW 2033   0.252   3.615   1.186
  501SOL    HW2 2034   0.255   3.611   1.282
  501SOL    HW3 2035   0.170   3.572   1.163
  501SOL    MW4 2036   0.242   3.609   1.196
  502SOL     OW 2037   0.295   3.865   1.069
  502SOL    HW2 2038   0.215   3.905   1.105
  502SOL    HW3 2039   0.300   3.779   1.111
  502SOL    MW4 2040   0.285   3.859   1.080
  503SOL     OW 2041   0.052   3.975   1.162
  503SOL    HW2 2042   0.022   3.973   1.253
  503SOL    HW3 2043  -0.011   3.921   1.114
  503SOL    MW4 2044   0.040   3.967   1.168
  504SOL     OW 2045   4.485   4.247   1.085
  504SOL    HW2 2046   4.560   4.298   1.118
  504SOL    HW3 2047   4.504   4.157   1.112
  504SOL    MW4 2048   4.498   4.242   1.093
  505SOL     OW 2049   0.242   4.380   1.158
  505SOL    HW2 2050   0.240   4.374   1.254
  505SOL    HW3 2051   0.240   4.474   1.140
  505SOL    MW4 2052   0.241   4.392   1.168
  506SOL     OW 2053   0.681   0.032   1.156
  506SOL    HW2 2054   0.758   0.078   1.190
  506SOL    HW3 2055   0.695  -0.059   1.184
  506SOL    MW4 2056   0.693   0.026   1.164
  507SOL     OW 2057   0.431   0.147   1.227
  507SOL    HW2 2058   0.437   0.238   1.200
  507SOL    HW3 2059   0.515   0.109   1.204
  507SOL    MW4 2060   0.443   0.154   1.221
  508SOL     OW 2061   0.463   0.399   1.154
  508SOL    HW2 2062   0.394   0.455   1.191
  508SOL    HW3 2063   0.461   0.418   1.060
  508SOL    MW4 2064   0.453   0.409   1.147
  509SOL     OW 2065   0.668   0.546   1.235
  509SOL    HW2 2066   0.647   0.631   1.196
  509SOL    HW3 2067   0.606   0.485   1.195
  509SOL    MW4 2068   0.657   0.549   1.225
  510SOL     OW 2069   0.655   0.793   1.102
  510SOL    HW2 2070   0.581   0.849   1.124
  510SOL    HW3 2071   0.656   0.790   1.007
  510SOL    MW4 2072   0.645   0.800   1.093
  511SOL     OW 2073   0.420   0.918   1.206
  511SOL    HW2 2074   0.423   0.920   1.302
  511SOL    HW3 2075   0.419   1.010   1.180
  511SOL    MW4 2076   0.420   0.930   1.216
  512SOL     OW 2077   0.445   1.169   1.103
  512SOL    HW2 2078   0.512   1.230   1.134
  512SOL    HW3 2079   0.465   1.156   1.011
  512SOL    MW4 2080   0.456   1.176   1.095
  513SOL     OW 2081   0.653   1.319   1.209
  513SOL    HW2 2082   0.735   1.284   1.173
  513SOL    HW3 2083   0.656   1.413   1.191
  513SOL    MW4 2084   0.664   1.326   1.202
  514SOL     OW 2085   0.688   1.596   1.118
  514SOL    HW2 2086   0.768   1.627   1.160
  514SOL    HW3 2087   0.618   1.635   1.170
  514SOL    MW4 2088   0.689   1.605   1.131
  515SOL     OW 2089   0.447   1.681   1.239
  515SOL    HW2 2090   0.424   1.687   1.332
  515SOL    HW3 2091   0.376   1.630   1.200
  515SOL    MW4 2092   0.435   1.676   1.246
  516SOL     OW 2093   0.462   1.923   1.097
  516SOL    HW2 2094   0.457   1.834   1.130
  516SOL    HW3 2095   0.391   1.970   1.141
  516SOL    MW4 2096   0.452   1.918   1.107
  517SOL     OW 2097   0.686   2.023   1.242
  517SOL    HW2 2098   0.662   2.046   1.332
  517SOL    HW3 2099   0.611   1.974   1.209
  517SOL    MW4 2100   0.673   2.020   1.250
  518SOL     OW 2101   0.662   2.282   1.166
  518SOL    HW2 2102   0.572   2.305   1.188
  518SOL    HW3 2103   0.675   2.195   1.205
  518SOL    MW4 2104   0.652   2.274   1.174
  519SOL     OW 2105   0.424   2.426   1.211
  519SOL    HW2 2106   0.416   2.432   1.307
  519SOL    HW3 2107   0.418   2.516   1.180
  519SOL    MW4 2108   0.422   2.438   1.220
  520SOL     OW 2109   0.465   2.682   1.124
  520SOL    HW2 2110   0.389   2.724   1.163
  520SOL    HW3 2111   0.460   2.704   1.031
  520SOL    MW4 2112   0.454   2.690   1.117
  521SOL     OW 2113   0.697   2.830   1.225
  521SOL    HW2 2114   0.697   2.921   1.197
  521SOL    HW3 2115   0.618   2.792   1.186
  521SOL    MW4 2116   0.686   2.837   1.216
  522SOL     OW 2117   0.687   3.077   1.120
  522SOL    HW2 2118   0.758   3.137   1.144
  522SOL    HW3 2119   0.699   3.063   1.026
  522SOL    MW4 2120   0.698   3.083   1.111
  523SOL     OW 2121   0.460   3.189   1.262
  523SOL    HW2 2122   0.461   3.279   1.230
  523SOL    HW3 2123   0.535   3.147   1.219
  523SOL    MW4 2124   0.470   3.195   1.252
  524SOL     OW 2125   0.446   3.433   1.135
  524SOL    HW2 2126   0.529   3.466   1.171
  524SOL    HW3 2127   0.383   3.503   1.149
  524SOL    MW4 2128   0.449   3.446   1.142
  525SOL     OW 2129   0.656   3.563   1.247
  525SOL    HW2 2130   0.664   3.568   1.342
  525SOL    HW3 2131   0.682   3.649   1.216
  525SOL    MW4 2132   0.661   3.575   1.256
  526SOL     OW 2133   0.707   3.813   1.181
  526SOL    HW2 2134   0.638   3.868   1.217
  526SOL    HW3 2135   0.699   3.824   1.086
  526SOL    MW4 2136   0.697   3.822   1.173
  527SOL     OW 2137   0.508   4.009   1.197
  527SOL    HW2 2138   0.504   4.100   1.167
  527SOL    HW3 2139   0.423   3.973   1.172
  527SOL    MW4 2140   0.497   4.017   1.189
  528SOL     OW 2141   0.480   4.286   1.091
  528SOL    HW2 2142   0.548   4.343   1.125
  528SOL    HW3 2143   0.398   4.324   1.122
  528SOL    MW4 2144   0.478   4.299   1.099
  529SOL     OW 2145   0.686   4.434   1.221
  529SOL    HW2 2146   0.687   4.409   1.314
  529SOL    HW3 2147   0.762   4.389   1.184
  529SOL    MW4 2148   0.696   4.425   1.228
  530SOL     OW 2149   1.088   0.007   1.150
  530SOL    HW2 2150   1.082  -0.082   1.186
  530SOL    HW3 2151   1.124  -0.006   1.062
  530SOL    MW4 2152   1.092  -0.006   1.143
  531SOL     OW 2153   0.906   0.175   1.268
  531SOL    HW2 2154   0.896   0.164   1.362
  531SOL    HW3 2155   0.977   0.116   1.244
  531SOL    MW4 2156   0.914   0.166   1.277
  532SOL     OW 2157   0.914   0.440   1.147
  532SOL    HW2 2158   0.900   0.349   1.175
  532SOL    HW3 2159   0.829   0.482   1.159
  532SOL    MW4 2160   0.901   0.433   1.152
  533SOL     OW 2161   1.140   0.572   1.232
  533SOL    HW2 2162   1.151   0.558   1.326
  533SOL    HW3 2163   1.056   0.530   1.211
  533SOL    MW4 2164   1.130   0.565   1.242
  534SOL     OW 2165   1.138   0.810   1.078
  534SOL    HW2 2166   1.070   0.861   1.122
  534SOL    HW3 2167   1.143   0.728   1.127
  534SOL    MW4 2168   1.130   0.806   1.090
  535SOL     OW 2169   0.902   0.942   1.182
  535SOL    HW2 2170   0.902   1.034   1.154
  535SOL    HW3 2171   0.829   0.903   1.134
  535SOL    MW4 2172   0.892   0.949   1.172
  536SOL     OW 2173   0.894   1.220   1.115
  536SOL    HW2 2174   0.971   1.262   1.155
  536SOL    HW3 2175   0.918   1.209   1.023
  536SOL    MW4 2176   0.908   1.224   1.108
  537SOL     OW 2177   1.138   1.296   1.238
  537SOL    HW2 2178   1.164   1.321   1.327
  537SOL    HW3 2179   1.221   1.276   1.194
  537SOL    MW4 2180   1.153   1.297   1.244
  538SOL     OW 2181   1.124   1.565   1.161
  538SOL    HW2 2182   1.115   1.471   1.174
  538SOL    HW3 2183   1.094   1.579   1.071
  538SOL    MW4 2184   1.119   1.555   1.151
  539SOL     OW 2185   0.888   1.717   1.275
  539SOL    HW2 2186   0.915   1.792   1.222
  539SOL    HW3 2187   0.970   1.669   1.292
  539SOL    MW4 2188   0.903   1.721   1.270
  540SOL     OW 2189   0.921   1.940   1.102
  540SOL    HW2 2190   0.989   1.997   1.139
  540SOL    HW3 2191   0.840   1.968   1.144
  540SOL    MW4 2192   0.920   1.951   1.113
  541SOL     OW 2193   1.131   2.084   1.245
  541SOL    HW2 2194   1.111   2.086   1.339
  541SOL    HW3 2195   1.140   2.176   1.220
  541SOL    MW4 2196   1.129   2.096   1.254
  542SOL     OW 2197   1.096   2.318   1.135
  542SOL    HW2 2198   1.169   2.376   1.160
  542SOL    HW3 2199   1.019   2.357   1.177
  542SOL    MW4 2200   1.096   2.331   1.144
  543SOL     OW 2201   0.857   2.452   1.244
  543SOL    HW2 2202   0.871   2.452   1.339
  543SOL    HW3 2203   0.782   2.394   1.231
  543SOL    MW4 2204   0.849   2.444   1.255
  544SOL     OW 2205   0.915   2.709   1.108
  544SOL    HW2 2206   0.907   2.623   1.149
  544SOL    HW3 2207   0.846   2.762   1.148
  544SOL    MW4 2208   0.905   2.705   1.119
  545SOL     OW 2209   1.129   2.859   1.209
  545SOL    HW2 2210   1.139   2.844   1.303
  545SOL    HW3 2211   1.060   2.798   1.182
  545SOL    MW4 2212   1.121   2.849   1.218
  546SOL     OW 2213   1.120   3.117   1.092
  546SOL    HW2 2214   1.112   3.028   1.127
  546SOL    HW3 2215   1.123   3.105   0.997
  546SOL    MW4 2216   1.119   3.103   1.084
  547SOL     OW 2217   0.904   3.234   1.237
  547SOL    HW2 2218   0.913   3.325   1.209
  547SOL    HW3 2219   0.975   3.188   1.191
  547SOL    MW4 2220   0.915   3.240   1.227
  548SOL     OW 2221   0.917   3.521   1.143
  548SOL    HW2 2222   0.827   3.529   1.173
  548SOL    HW3 2223   0.910   3.503   1.049
  548SOL    MW4 2224   0.904   3.520   1.135
  549SOL     OW 2225   1.147   3.635   1.271
  549SOL    HW2 2226   1.224   3.580   1.255
  549SOL    HW3 2227   1.078   3.597   1.217
  549SOL    MW4 2228   1.148   3.623   1.262
  550SOL     OW 2229   1.161   3.932   1.153
  550SOL    HW2 2230   1.069   3.953   1.167
  550SOL    HW3 2231   1.169   3.840   1.178
  550SOL    MW4 2232   1.150   3.923   1.158
  551SOL     OW 2233   0.908   4.010   1.197
  551SOL    HW2 2234   0.920   4.007   1.292
  551SOL    HW3 2235   0.834   3.952   1.180
  551SOL    MW4 2236   0.900   4.002   1.207
  552SOL     OW 2237   0.915   4.278   1.134
  552SOL    HW2 2238   0.884   4.188   1.142
  552SOL    HW3 2239   0.941   4.287   1.042
  552SOL    MW4 2240   0.915   4.267   1.123
  553SOL     OW 2241   1.135   4.382   1.249
  553SOL    HW2 2242   1.138   4.373   1.345
  553SOL    HW3 2243   1.046   4.353   1.226
  553SOL    MW4 2244   1.123   4.377   1.259
  554SOL     OW 2245   1.528   0.052   1.099
  554SOL    HW2 2246   1.589   0.108   1.147
  554SOL    HW3 2247   1.545  -0.036   1.133
  554SOL    MW4 2248   1.539   0.048   1.110
  555SOL     OW 2249   1.312   0.160   1.229
  555SOL    HW2 2250   1.380   0.112   1.182
  555SOL    HW3 2251   1.230   0.123   1.195
  555SOL    MW4 2252   1.310   0.148   1.218
  556SOL     OW 2253   1.346   0.408   1.110
  556SOL    HW2 2254   1.343   0.319   1.143
  556SOL    HW3 2255   1.275   0.453   1.156
  556SOL    MW4 2256   1.336   0.402   1.120
  557SOL     OW 2257   1.581   0.549   1.207
  557SOL    HW2 2258   1.574   0.643   1.190
  557SOL    HW3 2259   1.498   0.512   1.177
  557SOL    MW4 2260   1.569   0.557   1.201
  558SOL     OW 2261   1.559   0.815   1.096
  558SOL    HW2 2262   1.635   0.859   1.135
  558SOL    HW3 2263   1.580   0.811   1.002
  558SOL    MW4 2264   1.572   0.820   1.088
  559SOL     OW 2265   1.341   0.937   1.222
  559SOL    HW2 2266   1.415   0.887   1.188
  559SOL    HW3 2267   1.264   0.896   1.183
  559SOL    MW4 2268   1.341   0.925   1.212
  560SOL     OW 2269   1.397   1.186   1.098
  560SOL    HW2 2270   1.364   1.104   1.134
  560SOL    HW3 2271   1.394   1.174   1.003
  560SOL    MW4 2272   1.392   1.174   1.090
  561SOL     OW 2273   1.588   1.321   1.244
  561SOL    HW2 2274   1.664   1.276   1.207
  561SOL    HW3 2275   1.513   1.274   1.207
  561SOL    MW4 2276   1.588   1.309   1.235
  562SOL     OW 2277   1.593   1.575   1.125
  562SOL    HW2 2278   1.656   1.608   1.189
  562SOL    HW3 2279   1.579   1.484   1.149
  562SOL    MW4 2280   1.599   1.567   1.137
  563SOL     OW 2281   1.362   1.724   1.190
  563SOL    HW2 2282   1.432   1.675   1.147
  563SOL    HW3 2283   1.283   1.672   1.175
  563SOL    MW4 2284   1.361   1.711   1.183
  564SOL     OW 2285   1.335   1.978   1.116
  564SOL    HW2 2286   1.349   1.888   1.147
  564SOL    HW3 2287   1.260   2.009   1.165
  564SOL    MW4 2288   1.327   1.970   1.127
  565SOL     OW 2289   1.556   2.080   1.240
  565SOL    HW2 2290   1.547   2.165   1.197
  565SOL    HW3 2291   1.486   2.026   1.202
  565SOL    MW4 2292   1.545   2.084   1.229
  566SOL     OW 2293   1.548   2.335   1.117
  566SOL    HW2 2294   1.471   2.387   1.137
  566SOL    HW3 2295   1.545   2.324   1.022
  566SOL    MW4 2296   1.537   2.340   1.107
  567SOL     OW 2297   1.328   2.454   1.204
  567SOL    HW2 2298   1.348   2.456   1.297
  567SOL    HW3 2299   1.344   2.544   1.175
  567SOL    MW4 2300   1.333   2.466   1.212
  568SOL     OW 2301   1.357   2.721   1.114
  568SOL    HW2 2302   1.436   2.768   1.141
  568SOL    HW3 2303   1.286   2.767   1.158
  568SOL    MW4 2304   1.358   2.733   1.124
  569SOL     OW 2305   1.597   2.865   1.145
  569SOL    HW2 2306   1.678   2.819   1.126
  569SOL    HW3 2307   1.614   2.955   1.120
  569SOL    MW4 2308   1.610   2.871   1.139
  570SOL     OW 2309   1.595   3.134   1.081
  570SOL    HW2 2310   1.671   3.175   1.121
  570SOL    HW3 2311   1.521   3.162   1.135
  570SOL    MW4 2312   1.595   3.143   1.093
  571SOL     OW 2313   1.360   3.205   1.212
  571SOL    HW2 2314   1.351   3.182   1.304
  571SOL    HW3 2315   1.280   3.172   1.171
  571SOL    MW4 2316   1.348   3.198   1.219
  572SOL     OW 2317   1.362   3.493   1.186
  572SOL    HW2 2318   1.348   3.400   1.202
  572SOL    HW3 2319   1.371   3.499   1.091
  572SOL    MW4 2320   1.362   3.481   1.175
  573SOL     OW 2321   1.605   3.628   1.246
  573SOL    HW2 2322   1.597   3.714   1.204
  573SOL    HW3 2323   1.524   3.583   1.223
  573SOL    MW4 2324   1.593   3.634   1.237
  574SOL     OW 2325   1.580   3.883   1.108
  574SOL    HW2 2326   1.517   3.949   1.137
  574SOL    HW3 2327   1.588   3.898   1.014
  574SOL    MW4 2328   1.573   3.894   1.099
  575SOL     OW 2329   1.410   4.059   1.230
  575SOL    HW2 2330   1.401   4.143   1.184
  575SOL    HW3 2331   1.333   4.009   1.203
  575SOL    MW4 2332   1.399   4.063   1.220
  576SOL     OW 2333   1.338   4.288   1.102
  576SOL    HW2 2334   1.264   4.319   1.153
  576SOL    HW3 2335   1.316   4.310   1.011
  576SOL    MW4 2336   1.326   4.295   1.096
  577SOL     OW 2337   1.563   4.444   1.188
  577SOL    HW2 2338   1.579   4.428   1.281
  577SOL    HW3 2339   1.503   4.374   1.162
  577SOL    MW4 2340   1.557   4.433   1.197
  578SOL     OW 2341   2.018   0.013   1.104
  578SOL    HW2 2342   2.021  -0.080   1.126
  578SOL    HW3 2343   1.967   0.018   1.024
  578SOL    MW4 2344   2.012   0.001   1.096
  579SOL     OW 2345   1.774   0.150   1.190
  579SOL    HW2 2346   1.794   0.241   1.168
  579SOL    HW3 2347   1.852   0.101   1.162
  579SOL    MW4 2348   1.787   0.156   1.183
  580SOL     OW 2349   1.804   0.405   1.071
  580SOL    HW2 2350   1.723   0.451   1.093
  580SOL    HW3 2351   1.795   0.383   0.978
  580SOL    MW4 2352   1.792   0.408   1.061
  581SOL     OW 2353   1.999   0.546   1.206
  581SOL    HW2 2354   2.001   0.539   1.301
  581SOL    HW3 2355   1.927   0.487   1.179
  581SOL    MW4 2356   1.989   0.537   1.215
  582SOL     OW 2357   2.053   0.804   1.098
  582SOL    HW2 2358   2.027   0.721   1.137
  582SOL    HW3 2359   2.036   0.792   1.004
  582SOL    MW4 2360   2.047   0.791   1.091
  583SOL     OW 2361   1.809   0.913   1.196
  583SOL    HW2 2362   1.799   0.917   1.291
  583SOL    HW3 2363   1.901   0.893   1.182
  583SOL    MW4 2364   1.820   0.911   1.206
  584SOL     OW 2365   1.827   1.189   1.110
  584SOL    HW2 2366   1.819   1.099   1.142
  584SOL    HW3 2367   1.852   1.179   1.018
  584SOL    MW4 2368   1.829   1.176   1.102
  585SOL     OW 2369   2.056   1.276   1.245
  585SOL    HW2 2370   2.130   1.234   1.201
  585SOL    HW3 2371   1.979   1.243   1.199
  585SOL    MW4 2372   2.055   1.266   1.233
  586SOL     OW 2373   2.028   1.552   1.164
  586SOL    HW2 2374   2.041   1.461   1.191
  586SOL    HW3 2375   2.007   1.546   1.071
  586SOL    MW4 2376   2.027   1.539   1.155
  587SOL     OW 2377   1.814   1.684   1.288
  587SOL    HW2 2378   1.810   1.772   1.252
  587SOL    HW3 2379   1.895   1.646   1.253
  587SOL    MW4 2380   1.824   1.690   1.279
  588SOL     OW 2381   1.796   1.951   1.184
  588SOL    HW2 2382   1.716   1.994   1.216
  588SOL    HW3 2383   1.785   1.949   1.089
  588SOL    MW4 2384   1.784   1.957   1.176
  589SOL     OW 2385   2.036   2.091   1.218
  589SOL    HW2 2386   2.033   2.096   1.313
  589SOL    HW3 2387   1.953   2.051   1.193
  589SOL    MW4 2388   2.025   2.086   1.227
  590SOL     OW 2389   2.031   2.352   1.103
  590SOL    HW2 2390   2.099   2.410   1.139
  590SOL    HW3 2391   2.047   2.268   1.145
  590SOL    MW4 2392   2.042   2.349   1.114
  591SOL     OW 2393   1.798   2.465   1.168
  591SOL    HW2 2394   1.875   2.414   1.142
  591SOL    HW3 2395   1.724   2.416   1.132
  591SOL    MW4 2396   1.799   2.452   1.160
  592SOL     OW 2397   1.833   2.727   1.076
  592SOL    HW2 2398   1.831   2.638   1.111
  592SOL    HW3 2399   1.813   2.716   0.983
  592SOL    MW4 2400   1.830   2.714   1.068
  593SOL     OW 2401   2.066   2.849   1.149
  593SOL    HW2 2402   2.061   2.939   1.117
  593SOL    HW3 2403   1.991   2.805   1.108
  593SOL    MW4 2404   2.055   2.855   1.139
  594SOL     OW 2405   2.051   3.100   1.036
  594SOL    HW2 2406   1.974   3.149   1.066
  594SOL    HW3 2407   2.058   3.123   0.943
  594SOL    MW4 2408   2.042   3.110   1.027
  595SOL     OW 2409   1.844   3.247   1.133
  595SOL    HW2 2410   1.846   3.230   1.227
  595SOL    HW3 2411   1.851   3.342   1.126
  595SOL    MW4 2412   1.845   3.257   1.144
  596SOL     OW 2413   1.821   3.522   1.108
  596SOL    HW2 2414   1.894   3.574   1.143
  596SOL    HW3 2415   1.745   3.552   1.158
  596SOL    MW4 2416   1.821   3.533   1.119
  597SOL     OW 2417   2.056   3.663   1.247
  597SOL    HW2 2418   2.053   3.640   1.340
  597SOL    HW3 2419   2.115   3.598   1.209
  597SOL    MW4 2420   2.063   3.651   1.255
  598SOL     OW 2421   2.008   3.916   1.116
  598SOL    HW2 2422   1.943   3.973   1.157
  598SOL    HW3 2423   1.997   3.831   1.159
  598SOL    MW4 2424   1.998   3.912   1.127
  599SOL     OW 2425   1.796   4.035   1.235
  599SOL    HW2 2426   1.787   4.031   1.330
  599SOL    HW3 2427   1.728   3.976   1.203
  599SOL    MW4 2428   1.786   4.026   1.244
  600SOL     OW 2429   1.794   4.273   1.110
  600SOL    HW2 2430   1.785   4.185   1.148
  600SOL    HW3 2431   1.712   4.317   1.133
  600SOL    MW4 2432   1.782   4.267   1.118
  601SOL     OW 2433   2.003   4.426   1.205
  601SOL    HW2 2434   1.994   4.430   1.300
  601SOL    HW3 2435   1.933   4.367   1.177
  601SOL    MW4 2436   1.992   4.419   1.213
  602SOL     OW 2437   2.471   4.647   1.056
  602SOL    HW2 2438   2.542   4.693   1.101
  602SOL    HW3 2439   2.393   4.699   1.075
  602SOL    MW4 2440   2.470   4.660   1.065
  603SOL     OW 2441   2.268   0.132   1.191
  603SOL    HW2 2442   2.267   0.226   1.175
  603SOL    HW3 2443   2.180   0.103   1.170
  603SOL    MW4 2444   2.256   0.140   1.186
  604SOL     OW 2445   2.218   0.398   1.096
  604SOL    HW2 2446   2.146   0.454   1.126
  604SOL    HW3 2447   2.231   0.423   1.004
  604SOL    MW4 2448   2.210   0.409   1.088
  605SOL     OW 2449   2.453   0.496   1.204
  605SOL    HW2 2450   2.460   0.503   1.300
  605SOL    HW3 2451   2.365   0.464   1.189
  605SOL    MW4 2452   2.443   0.493   1.215
  606SOL     OW 2453   2.489   0.732   1.054
  606SOL    HW2 2454   2.477   0.657   1.113
  606SOL    HW3 2455   2.525   0.693   0.974
  606SOL    MW4 2456   2.492   0.717   1.051
  607SOL     OW 2457   2.302   0.879   1.196
  607SOL    HW2 2458   2.370   0.826   1.154
  607SOL    HW3 2459   2.219   0.845   1.160
  607SOL    MW4 2460   2.300   0.867   1.186
  608SOL     OW 2461   2.287   1.155   1.154
  608SOL    HW2 2462   2.365   1.194   1.194
  608SOL    HW3 2463   2.291   1.062   1.177
  608SOL    MW4 2464   2.298   1.148   1.162
  609SOL     OW 2465   2.502   1.272   1.266
  609SOL    HW2 2466   2.585   1.232   1.241
  609SOL    HW3 2467   2.501   1.356   1.220
  609SOL    MW4 2468   2.513   1.278   1.256
  610SOL     OW 2469   2.476   1.519   1.101
  610SOL    HW2 2470   2.402   1.571   1.133
  610SOL    HW3 2471   2.478   1.536   1.007
  610SOL    MW4 2472   2.467   1.528   1.093
  611SOL     OW 2473   2.277   1.664   1.225
  611SOL    HW2 2474   2.276   1.742   1.169
  611SOL    HW3 2475   2.193   1.621   1.208
  611SOL    MW4 2476   2.266   1.669   1.216
  612SOL     OW 2477   2.255   1.918   1.108
  612SOL    HW2 2478   2.188   1.960   1.162
  612SOL    HW3 2479   2.226   1.930   1.018
  612SOL    MW4 2480   2.242   1.925   1.103
  613SOL     OW 2481   2.489   2.051   1.203
  613SOL    HW2 2482   2.560   2.002   1.160
  613SOL    HW3 2483   2.410   2.011   1.169
  613SOL    MW4 2484   2.488   2.039   1.193
  614SOL     OW 2485   2.508   2.335   1.104
  614SOL    HW2 2486   2.511   2.244   1.134
  614SOL    HW3 2487   2.495   2.328   1.009
  614SOL    MW4 2488   2.507   2.322   1.096
  615SOL     OW 2489   2.259   2.497   1.163
  615SOL    HW2 2490   2.263   2.511   1.258
  615SOL    HW3 2491   2.332   2.438   1.145
  615SOL    MW4 2492   2.269   2.491   1.173
  616SOL     OW 2493   2.291   2.739   1.030
  616SOL    HW2 2494   2.284   2.646   1.053
  616SOL    HW3 2495   2.211   2.779   1.064
  616SOL    MW4 2496   2.279   2.732   1.038
  617SOL     OW 2497   2.485   2.862   1.211
  617SOL    HW2 2498   2.488   2.843   1.305
  617SOL    HW3 2499   2.405   2.821   1.180
  617SOL    MW4 2500   2.475   2.854   1.219
  618SOL     OW 2501   2.498   3.110   1.074
  618SOL    HW2 2502   2.416   3.151   1.101
  618SOL    HW3 2503   2.498   3.026   1.120
  618SOL    MW4 2504   2.487   3.105   1.084
  619SOL     OW 2505   2.258   3.226   1.168
  619SOL    HW2 2506   2.244   3.317   1.140
  619SOL    HW3 2507   2.199   3.175   1.112
  619SOL    MW4 2508   2.248   3.231   1.157
  620SOL     OW 2509   2.223   3.488   1.099
  620SOL    HW2 2510   2.310   3.519   1.125
  620SOL    HW3 2511   2.222   3.497   1.004
  620SOL    MW4 2512   2.235   3.494   1.090
  621SOL     OW 2513   2.454   3.581   1.221
  621SOL    HW2 2514   2.453   3.585   1.316
  621SOL    HW3 2515   2.455   3.673   1.193
  621SOL    MW4 2516   2.454   3.594   1.230
  622SOL     OW 2517   2.457   3.869   1.127
  622SOL    HW2 2518   2.384   3.920   1.161
  622SOL    HW3 2519   2.447   3.871   1.032
  622SOL    MW4 2520   2.446   3.876   1.119
  623SOL     OW 2521   2.256   4.022   1.227
  623SOL    HW2 2522   2.240   4.108   1.190
  623SOL    HW3 2523   2.185   3.967   1.194
  623SOL    MW4 2524   2.244   4.026   1.218
  624SOL     OW 2525   2.231   4.272   1.139
  624SOL    HW2 2526   2.164   4.333   1.170
  624SOL    HW3 2527   2.226   4.276   1.044
  624SOL    MW4 2528   2.222   4.281   1.131
  625SOL     OW 2529   2.475   4.397   1.203
  625SOL    HW2 2530   2.394   4.357   1.172
  625SOL    HW3 2531   2.473   4.486   1.166
  625SOL    MW4 2532   2.464   4.404   1.194
  626SOL     OW 2533   2.926   4.620   1.132
  626SOL    HW2 2534   2.919   4.531   1.167
  626SOL    HW3 2535   2.917   4.610   1.037
  626SOL    MW4 2536   2.924   4.607   1.124
  627SOL     OW 2537   2.677   0.082   1.197
  627SOL    HW2 2538   2.684   0.081   1.293
  627SOL    HW3 2539   2.760   0.046   1.166
  627SOL    MW4 2540   2.689   0.077   1.206
  628SOL     OW 2541   2.694   0.356   1.141
  628SOL    HW2 2542   2.689   0.274   1.190
  628SOL    HW3 2543   2.612   0.401   1.160
  628SOL    MW4 2544   2.683   0.351   1.150
  629SOL     OW 2545   2.904   0.512   1.209
  629SOL    HW2 2546   2.886   0.599   1.174
  629SOL    HW3 2547   2.838   0.456   1.169
  629SOL    MW4 2548   2.893   0.516   1.199
  630SOL     OW 2549   2.928   0.769   1.085
  630SOL    HW2 2550   2.998   0.800   1.142
  630SOL    HW3 2551   2.849   0.811   1.120
  630SOL    MW4 2552   2.927   0.779   1.097
  631SOL     OW 2553   2.706   0.885   1.194
  631SOL    HW2 2554   2.713   0.977   1.168
  631SOL    HW3 2555   2.632   0.852   1.143
  631SOL    MW4 2556   2.697   0.893   1.184
  632SOL     OW 2557   2.731   1.163   1.142
  632SOL    HW2 2558   2.811   1.209   1.167
  632SOL    HW3 2559   2.725   1.177   1.047
  632SOL    MW4 2560   2.741   1.171   1.132
  633SOL     OW 2561   2.952   1.307   1.208
  633SOL    HW2 2562   2.960   1.297   1.303
  633SOL    HW3 2563   2.944   1.401   1.194
  633SOL    MW4 2564   2.952   1.318   1.219
  634SOL     OW 2565   2.918   1.548   1.111
  634SOL    HW2 2566   3.001   1.590   1.135
  634SOL    HW3 2567   2.924   1.535   1.016
  634SOL    MW4 2568   2.929   1.552   1.101
  635SOL     OW 2569   2.687   1.684   1.178
  635SOL    HW2 2570   2.757   1.622   1.160
  635SOL    HW3 2571   2.606   1.636   1.161
  635SOL    MW4 2572   2.685   1.669   1.174
  636SOL     OW 2573   2.698   1.949   1.037
  636SOL    HW2 2574   2.777   1.978   1.082
  636SOL    HW3 2575   2.699   1.854   1.047
  636SOL    MW4 2576   2.709   1.940   1.045
  637SOL     OW 2577   2.896   2.069   1.175
  637SOL    HW2 2578   2.902   2.073   1.271
  637SOL    HW3 2579   2.897   2.160   1.147
  637SOL    MW4 2580   2.897   2.081   1.184
  638SOL     OW 2581   2.952   2.323   1.089
  638SOL    HW2 2582   3.029   2.350   1.139
  638SOL    HW3 2583   2.878   2.365   1.133
  638SOL    MW4 2584   2.953   2.332   1.101
  639SOL     OW 2585   2.729   2.465   1.188
  639SOL    HW2 2586   2.731   2.453   1.283
  639SOL    HW3 2587   2.649   2.421   1.159
  639SOL    MW4 2588   2.719   2.458   1.197
  640SOL     OW 2589   2.699   2.738   1.090
  640SOL    HW2 2590   2.684   2.647   1.116
  640SOL    HW3 2591   2.626   2.786   1.128
  640SOL    MW4 2592   2.688   2.732   1.099
  641SOL     OW 2593   2.948   2.840   1.185
  641SOL    HW2 2594   2.945   2.816   1.278
  641SOL    HW3 2595   2.863   2.814   1.150
  641SOL    MW4 2596   2.936   2.834   1.193
  642SOL     OW 2597   2.941   3.122   1.126
  642SOL    HW2 2598   2.961   3.029   1.138
  642SOL    HW3 2599   2.942   3.135   1.031
  642SOL    MW4 2600   2.943   3.112   1.115
  643SOL     OW 2601   2.704   3.204   1.253
  643SOL    HW2 2602   2.785   3.176   1.210
  643SOL    HW3 2603   2.634   3.170   1.197
  643SOL    MW4 2604   2.706   3.196   1.240
  644SOL     OW 2605   2.710   3.477   1.136
  644SOL    HW2 2606   2.710   3.385   1.163
  644SOL    HW3 2607   2.625   3.511   1.164
  644SOL    MW4 2608   2.699   3.470   1.143
  645SOL     OW 2609   2.936   3.586   1.256
  645SOL    HW2 2610   3.001   3.553   1.195
  645SOL    HW3 2611   2.852   3.559   1.218
  645SOL    MW4 2612   2.933   3.578   1.243
  646SOL     OW 2613   2.886   3.822   1.083
  646SOL    HW2 2614   2.959   3.875   1.114
  646SOL    HW3 2615   2.899   3.737   1.125
  646SOL    MW4 2616   2.897   3.818   1.093
  647SOL     OW 2617   2.684   4.008   1.189
  647SOL    HW2 2618   2.756   3.946   1.176
  647SOL    HW3 2619   2.605   3.957   1.170
  647SOL    MW4 2620   2.683   3.993   1.185
  648SOL     OW 2621   2.693   4.270   1.095
  648SOL    HW2 2622   2.691   4.186   1.140
  648SOL    HW3 2623   2.630   4.324   1.142
  648SOL    MW4 2624   2.684   4.266   1.107
  649SOL     OW 2625   2.916   4.368   1.231
  649SOL    HW2 2626   2.990   4.316   1.201
  649SOL    HW3 2627   2.841   4.334   1.183
  649SOL    MW4 2628   2.916   4.357   1.221
  650SOL     OW 2629   3.326   0.015   1.138
  650SOL    HW2 2630   3.406   0.045   1.181
  650SOL    HW3 2631   3.255   0.053   1.190
  650SOL    MW4 2632   3.327   0.024   1.151
  651SOL     OW 2633   3.107   0.137   1.262
  651SOL    HW2 2634   3.113   0.106   1.352
  651SOL    HW3 2635   3.054   0.071   1.217
  651SOL    MW4 2636   3.101   0.124   1.268
  652SOL     OW 2637   3.154   0.381   1.130
  652SOL    HW2 2638   3.131   0.303   1.180
  652SOL    HW3 2639   3.072   0.432   1.126
  652SOL    MW4 2640   3.140   0.378   1.136
  653SOL     OW 2641   3.399   0.493   1.229
  653SOL    HW2 2642   3.401   0.588   1.216
  653SOL    HW3 2643   3.316   0.465   1.190
  653SOL    MW4 2644   3.388   0.502   1.222
  654SOL     OW 2645   3.364   0.744   1.127
  654SOL    HW2 2646   3.285   0.796   1.144
  654SOL    HW3 2647   3.378   0.752   1.033
  654SOL    MW4 2648   3.356   0.752   1.117
  655SOL     OW 2649   3.153   0.902   1.230
  655SOL    HW2 2650   3.170   0.897   1.324
  655SOL    HW3 2651   3.143   0.996   1.213
  655SOL    MW4 2652   3.154   0.914   1.240
  656SOL     OW 2653   3.165   1.166   1.115
  656SOL    HW2 2654   3.232   1.221   1.156
  656SOL    HW3 2655   3.082   1.206   1.142
  656SOL    MW4 2656   3.163   1.179   1.124
  657SOL     OW 2657   3.377   1.298   1.221
  657SOL    HW2 2658   3.380   1.308   1.316
  657SOL    HW3 2659   3.375   1.387   1.187
  657SOL    MW4 2660   3.377   1.311   1.229
  658SOL     OW 2661   3.349   1.537   1.101
  658SOL    HW2 2662   3.429   1.577   1.134
  658SOL    HW3 2663   3.278   1.589   1.139
  658SOL    MW4 2664   3.350   1.549   1.110
  659SOL     OW 2665   3.140   1.676   1.223
  659SOL    HW2 2666   3.144   1.677   1.318
  659SOL    HW3 2667   3.125   1.768   1.198
  659SOL    MW4 2668   3.138   1.688   1.232
  660SOL     OW 2669   3.134   1.934   1.106
  660SOL    HW2 2670   3.216   1.953   1.152
  660SOL    HW3 2671   3.068   1.985   1.152
  660SOL    MW4 2672   3.136   1.943   1.118
  661SOL     OW 2673   3.364   2.009   1.247
  661SOL    HW2 2674   3.435   1.972   1.194
  661SOL    HW3 2675   3.348   2.095   1.211
  661SOL    MW4 2676   3.371   2.015   1.235
  662SOL     OW 2677   3.367   2.250   1.120
  662SOL    HW2 2678   3.436   2.301   1.162
  662SOL    HW3 2679   3.286   2.281   1.161
  662SOL    MW4 2680   3.365   2.261   1.131
  663SOL     OW 2681   3.163   2.407   1.236
  663SOL    HW2 2682   3.159   2.424   1.330
  663SOL    HW3 2683   3.184   2.492   1.197
  663SOL    MW4 2684   3.165   2.420   1.243
  664SOL     OW 2685   3.160   2.681   1.071
  664SOL    HW2 2686   3.073   2.704   1.104
  664SOL    HW3 2687   3.159   2.711   0.980
  664SOL    MW4 2688   3.148   2.688   1.064
  665SOL     OW 2689   3.341   2.826   1.199
  665SOL    HW2 2690   3.343   2.904   1.144
  665SOL    HW3 2691   3.275   2.770   1.158
  665SOL    MW4 2692   3.333   2.829   1.186
  666SOL     OW 2693   3.349   3.065   1.067
  666SOL    HW2 2694   3.434   3.100   1.093
  666SOL    HW3 2695   3.285   3.122   1.111
  666SOL    MW4 2696   3.352   3.077   1.076
  667SOL     OW 2697   3.173   3.244   1.209
  667SOL    HW2 2698   3.169   3.334   1.178
  667SOL    HW3 2699   3.086   3.208   1.192
  667SOL    MW4 2700   3.161   3.251   1.203
  668SOL     OW 2701   3.134   3.506   1.091
  668SOL    HW2 2702   3.214   3.543   1.128
  668SOL    HW3 2703   3.147   3.512   0.996
  668SOL    MW4 2704   3.147   3.512   1.083
  669SOL     OW 2705   3.366   3.601   1.213
  669SOL    HW2 2706   3.376   3.613   1.308
  669SOL    HW3 2707   3.440   3.545   1.189
  669SOL    MW4 2708   3.377   3.595   1.222
  670SOL     OW 2709   3.353   3.856   1.081
  670SOL    HW2 2710   3.261   3.878   1.097
  670SOL    HW3 2711   3.361   3.765   1.109
  670SOL    MW4 2712   3.342   3.847   1.087
  671SOL     OW 2713   3.131   3.957   1.218
  671SOL    HW2 2714   3.134   3.939   1.312
  671SOL    HW3 2715   3.145   4.052   1.211
  671SOL    MW4 2716   3.134   3.967   1.230
  672SOL     OW 2717   3.132   4.243   1.130
  672SOL    HW2 2718   3.194   4.315   1.141
  672SOL    HW3 2719   3.142   4.216   1.039
  672SOL    MW4 2720   3.142   4.249   1.120
  673SOL     OW 2721   3.330   4.420   1.208
  673SOL    HW2 2722   3.393   4.379   1.148
  673SOL    HW3 2723   3.330   4.512   1.183
  673SOL    MW4 2724   3.339   4.426   1.197
  674SOL     OW 2725   3.798   4.615   1.128
  674SOL    HW2 2726   3.794   4.521   1.146
  674SOL    HW3 2727   3.782   4.622   1.034
  674SOL    MW4 2728   3.795   4.604   1.118
  675SOL     OW 2729   3.577   0.069   1.260
  675SOL    HW2 2730   3.577   0.157   1.223
  675SOL    HW3 2731   3.655   0.027   1.224
  675SOL    MW4 2732   3.588   0.075   1.250
  676SOL     OW 2733   3.620   0.333   1.144
  676SOL    HW2 2734   3.691   0.386   1.179
  676SOL    HW3 2735   3.540   0.378   1.171
  676SOL    MW4 2736   3.619   0.346   1.152
  677SOL     OW 2737   3.820   0.493   1.261
  677SOL    HW2 2738   3.884   0.442   1.210
  677SOL    HW3 2739   3.816   0.578   1.217
  677SOL    MW4 2740   3.828   0.497   1.249
  678SOL     OW 2741   3.782   0.761   1.102
  678SOL    HW2 2742   3.868   0.788   1.136
  678SOL    HW3 2743   3.720   0.821   1.143
  678SOL    MW4 2744   3.785   0.773   1.112
  679SOL     OW 2745   3.545   0.918   1.221
  679SOL    HW2 2746   3.515   1.002   1.184
  679SOL    HW3 2747   3.483   0.853   1.187
  679SOL    MW4 2748   3.533   0.921   1.211
  680SOL     OW 2749   3.583   1.149   1.075
  680SOL    HW2 2750   3.665   1.157   1.124
  680SOL    HW3 2751   3.528   1.221   1.107
  680SOL    MW4 2752   3.586   1.160   1.086
  681SOL     OW 2753   3.834   1.199   1.196
  681SOL    HW2 2754   3.811   1.198   1.289
  681SOL    HW3 2755   3.818   1.289   1.168
  681SOL    MW4 2756   3.829   1.211   1.204
  682SOL     OW 2757   3.784   1.452   1.114
  682SOL    HW2 2758   3.864   1.495   1.146
  682SOL    HW3 2759   3.779   1.478   1.022
  682SOL    MW4 2760   3.794   1.461   1.106
  683SOL     OW 2761   3.590   1.634   1.192
  683SOL    HW2 2762   3.594   1.722   1.153
  683SOL    HW3 2763   3.672   1.593   1.165
  683SOL    MW4 2764   3.601   1.640   1.183
  684SOL     OW 2765   3.588   1.887   1.117
  684SOL    HW2 2766   3.658   1.941   1.154
  684SOL    HW3 2767   3.581   1.915   1.026
  684SOL    MW4 2768   3.596   1.898   1.110
  685SOL     OW 2769   3.815   2.057   1.198
  685SOL    HW2 2770   3.807   2.065   1.293
  685SOL    HW3 2771   3.890   1.999   1.185
  685SOL    MW4 2772   3.824   2.051   1.209
  686SOL     OW 2773   3.809   2.303   1.096
  686SOL    HW2 2774   3.886   2.351   1.127
  686SOL    HW3 2775   3.825   2.213   1.123
  686SOL    MW4 2776   3.822   2.298   1.104
  687SOL     OW 2777   3.565   2.385   1.240
  687SOL    HW2 2778   3.587   2.405   1.330
  687SOL    HW3 2779   3.650   2.377   1.195
  687SOL    MW4 2780   3.579   2.387   1.246
  688SOL     OW 2781   3.566   2.659   1.140
  688SOL    HW2 2782   3.545   2.586   1.198
  688SOL    HW3 2783   3.488   2.715   1.142
  688SOL    MW4 2784   3.553   2.657   1.148
  689SOL     OW 2785   3.798   2.808   1.183
  689SOL    HW2 2786   3.801   2.800   1.279
  689SOL    HW3 2787   3.731   2.745   1.156
  689SOL    MW4 2788   3.790   2.798   1.192
  690SOL     OW 2789   3.846   3.092   1.124
  690SOL    HW2 2790   3.846   2.998   1.142
  690SOL    HW3 2791   3.837   3.098   1.029
  690SOL    MW4 2792   3.845   3.080   1.114
  691SOL     OW 2793   3.570   3.212   1.164
  691SOL    HW2 2794   3.600   3.301   1.146
  691SOL    HW3 2795   3.651   3.159   1.166
  691SOL    MW4 2796   3.585   3.217   1.162
  692SOL     OW 2797   3.587   3.477   1.113
  692SOL    HW2 2798   3.671   3.513   1.143
  692SOL    HW3 2799   3.585   3.496   1.019
  692SOL    MW4 2800   3.598   3.484   1.104
  693SOL     OW 2801   3.836   3.601   1.203
  693SOL    HW2 2802   3.837   3.579   1.296
  693SOL    HW3 2803   3.809   3.693   1.201
  693SOL    MW4 2804   3.833   3.610   1.215
  694SOL     OW 2805   3.790   3.863   1.164
  694SOL    HW2 2806   3.719   3.916   1.200
  694SOL    HW3 2807   3.777   3.866   1.069
  694SOL    MW4 2808   3.779   3.870   1.156
  695SOL     OW 2809   3.542   4.014   1.248
  695SOL    HW2 2810   3.549   4.002   1.343
  695SOL    HW3 2811   3.463   3.966   1.224
  695SOL    MW4 2812   3.533   4.006   1.257
  696SOL     OW 2813   3.532   4.253   1.088
  696SOL    HW2 2814   3.530   4.170   1.135
  696SOL    HW3 2815   3.507   4.231   0.998
  696SOL    MW4 2816   3.528   4.239   1.083
  697SOL     OW 2817   3.769   4.349   1.205
  697SOL    HW2 2818   3.752   4.356   1.299
  697SOL    HW3 2819   3.689   4.311   1.169
  697SOL    MW4 2820   3.756   4.345   1.213
  698SOL     OW 2821   4.290   4.657   1.114
  698SOL    HW2 2822   4.286   4.564   1.139
  698SOL    HW3 2823   4.200   4.687   1.119
  698SOL    MW4 2824   4.278   4.648   1.118
  699SOL     OW 2825   4.040   0.084   1.186
  699SOL    HW2 2826   4.050   0.093   1.281
  699SOL    HW3 2827   3.961   0.032   1.175
  699SOL    MW4 2828   4.031   0.078   1.197
  700SOL     OW 2829   4.013   0.353   1.128
  700SOL    HW2 2830   4.012   0.260   1.152
  700SOL    HW3 2831   4.023   0.353   1.033
  700SOL    MW4 2832   4.014   0.340   1.118
  701SOL     OW 2833   4.253   0.451   1.236
  701SOL    HW2 2834   4.241   0.452   1.331
  701SOL    HW3 2835   4.174   0.408   1.203
  701SOL    MW4 2836   4.241   0.445   1.244
  702SOL     OW 2837   4.267   0.734   1.150
  702SOL    HW2 2838   4.270   0.647   1.190
  702SOL    HW3 2839   4.287   0.719   1.057
  702SOL    MW4 2840   4.270   0.721   1.143
  703SOL     OW 2841   4.026   0.849   1.231
  703SOL    HW2 2842   4.022   0.831   1.325
  703SOL    HW3 2843   4.109   0.811   1.203
  703SOL    MW4 2844   4.036   0.842   1.239
  704SOL     OW 2845   4.089   1.115   1.167
  704SOL    HW2 2846   4.098   1.023   1.193
  704SOL    HW3 2847   3.997   1.134   1.181
  704SOL    MW4 2848   4.078   1.105   1.172
  705SOL     OW 2849   4.267   1.301   1.241
  705SOL    HW2 2850   4.283   1.288   1.334
  705SOL    HW3 2851   4.195   1.241   1.220
  705SOL    MW4 2852   4.259   1.291   1.250
  706SOL     OW 2853   4.261   1.566   1.134
  706SOL    HW2 2854   4.281   1.477   1.165
  706SOL    HW3 2855   4.337   1.618   1.161
  706SOL    MW4 2856   4.274   1.561   1.142
  707SOL     OW 2857   3.979   1.611   1.192
  707SOL    HW2 2858   3.976   1.610   1.288
  707SOL    HW3 2859   4.067   1.583   1.171
  707SOL    MW4 2860   3.990   1.607   1.202
  708SOL     OW 2861   4.036   1.885   1.129
  708SOL    HW2 2862   3.995   1.801   1.151
  708SOL    HW3 2863   4.037   1.887   1.033
  708SOL    MW4 2864   4.031   1.874   1.119
  709SOL     OW 2865   4.270   2.048   1.239
  709SOL    HW2 2866   4.270   2.121   1.178
  709SOL    HW3 2867   4.201   1.990   1.207
  709SOL    MW4 2868   4.261   2.050   1.227
  710SOL     OW 2869   4.265   2.288   1.093
  710SOL    HW2 2870   4.196   2.322   1.150
  710SOL    HW3 2871   4.231   2.303   1.004
  710SOL    MW4 2872   4.251   2.295   1.089
  711SOL     OW 2873   4.030   2.430   1.231
  711SOL    HW2 2874   4.021   2.427   1.327
  711SOL    HW3 2875   4.041   2.523   1.211
  711SOL    MW4 2876   4.031   2.442   1.241
  712SOL     OW 2877   4.057   2.691   1.154
  712SOL    HW2 2878   3.967   2.720   1.168
  712SOL    HW3 2879   4.060   2.661   1.063
  712SOL    MW4 2880   4.046   2.691   1.144
  713SOL     OW 2881   4.279   2.838   1.206
  713SOL    HW2 2882   4.265   2.929   1.181
  713SOL    HW3 2883   4.198   2.794   1.180
  713SOL    MW4 2884   4.266   2.844   1.199
  714SOL     OW 2885   4.254   3.117   1.135
  714SOL    HW2 2886   4.182   3.176   1.156
  714SOL    HW3 2887   4.260   3.119   1.039
  714SOL    MW4 2888   4.245   3.125   1.125
  715SOL     OW 2889   4.021   3.287   1.212
  715SOL    HW2 2890   3.991   3.282   1.303
  715SOL    HW3 2891   3.969   3.221   1.166
  715SOL    MW4 2892   4.010   3.278   1.218
  716SOL     OW 2893   4.076   3.522   1.086
  716SOL    HW2 2894   4.070   3.434   1.123
  716SOL    HW3 2895   3.995   3.565   1.113
  716SOL    MW4 2896   4.065   3.516   1.095
  717SOL     OW 2897   4.288   3.642   1.212
  717SOL    HW2 2898   4.213   3.616   1.158
  717SOL    HW3 2899   4.360   3.587   1.181
  717SOL    MW4 2900   4.288   3.631   1.201
  718SOL     OW 2901   4.284   3.884   1.095
  718SOL    HW2 2902   4.205   3.914   1.141
  718SOL    HW3 2903   4.308   3.802   1.139
  718SOL    MW4 2904   4.277   3.877   1.107
  719SOL     OW 2905   4.042   3.966   1.216
  719SOL    HW2 2906   4.021   4.058   1.203
  719SOL    HW3 2907   3.962   3.919   1.191
  719SOL    MW4 2908   4.028   3.972   1.211
  720SOL     OW 2909   4.022   4.237   1.140
  720SOL    HW2 2910   3.936   4.275   1.157
  720SOL    HW3 2911   4.019   4.210   1.048
  720SOL    MW4 2912   4.011   4.238   1.130
  721SOL     OW 2913   4.257   4.380   1.202
  721SOL    HW2 2914   4.181   4.322   1.200
  721SOL    HW3 2915   4.326   4.332   1.156
  721SOL    MW4 2916   4.256   4.366   1.195
  722SOL     OW 2917   0.232   4.615   1.595
  722SOL    HW2 2918   0.308   4.658   1.555
  722SOL    HW3 2919   0.157   4.666   1.565
  722SOL    MW4 2920   0.232   4.627   1.585
  723SOL     OW 2921   4.488   0.086   1.504
  723SOL    HW2 2922   4.413   0.042   1.544
  723SOL    HW3 2923   4.466   0.090   1.411
  723SOL    MW4 2924   4.475   0.081   1.497
  724SOL     OW 2925   0.010   0.360   1.545
  724SOL    HW2 2926   0.017   0.337   1.638
  724SOL    HW3 2927   0.033   0.280   1.498
  724SOL    MW4 2928   0.014   0.346   1.551
  725SOL     OW 2929   0.240   0.516   1.480
  725SOL    HW2 2930   0.162   0.468   1.509
  725SOL    HW3 2931   0.233   0.516   1.384
  725SOL    MW4 2932   0.228   0.510   1.471
  726SOL     OW 2933   0.272   0.761   1.626
  726SOL    HW2 2934   0.339   0.817   1.585
  726SOL    HW3 2935   0.269   0.683   1.570
  726SOL    MW4 2936   0.281   0.758   1.613
  727SOL     OW 2937   0.036   0.843   1.498
  727SOL    HW2 2938   0.026   0.929   1.538
  727SOL    HW3 2939   0.111   0.804   1.543
  727SOL    MW4 2940   0.045   0.849   1.509
  728SOL     OW 2941   4.490   1.109   1.571
  728SOL    HW2 2942   4.497   1.103   1.666
  728SOL    HW3 2943   4.569   1.157   1.545
  728SOL    MW4 2944   4.502   1.115   1.580
  729SOL     OW 2945   0.212   1.272   1.520
  729SOL    HW2 2946   0.192   1.364   1.538
  729SOL    HW3 2947   0.224   1.267   1.426
  729SOL    MW4 2948   0.211   1.283   1.510
  730SOL     OW 2949   0.175   1.546   1.586
  730SOL    HW2 2950   0.161   1.547   1.681
  730SOL    HW3 2951   0.102   1.596   1.551
  730SOL    MW4 2952   0.164   1.553   1.594
  731SOL     OW 2953   4.436   1.704   1.495
  731SOL    HW2 2954   4.442   1.787   1.542
  731SOL    HW3 2955   4.449   1.727   1.403
  731SOL    MW4 2956   4.438   1.718   1.489
  732SOL     OW 2957   0.006   1.932   1.629
  732SOL    HW2 2958   0.025   1.926   1.723
  732SOL    HW3 2959  -0.079   1.976   1.624
  732SOL    MW4 2960  -0.003   1.937   1.641
  733SOL     OW 2961   0.226   2.098   1.494
  733SOL    HW2 2962   0.141   2.067   1.525
  733SOL    HW3 2963   0.222   2.087   1.399
  733SOL    MW4 2964   0.214   2.092   1.486
  734SOL     OW 2965   0.160   2.360   1.623
  734SOL    HW2 2966   0.188   2.350   1.714
  734SOL    HW3 2967   0.176   2.274   1.583
  734SOL    MW4 2968   0.166   2.347   1.630
  735SOL     OW 2969   4.449   2.462   1.485
  735SOL    HW2 2970   4.372   2.410   1.508
  735SOL    HW3 2971   4.520   2.429   1.540
  735SOL    MW4 2972   4.448   2.451   1.495
  736SOL     OW 2973   4.483   2.717   1.585
  736SOL    HW2 2974   4.401   2.765   1.576
  736SOL    HW3 2975   4.462   2.627   1.559
  736SOL    MW4 2976   4.470   2.711   1.580
  737SOL     OW 2977   0.230   2.853   1.500
  737SOL    HW2 2978   0.305   2.811   1.541
  737SOL    HW3 2979   0.154   2.802   1.529
  737SOL    MW4 2980   0.230   2.841   1.509
  738SOL     OW 2981   0.214   3.120   1.591
  738SOL    HW2 2982   0.131   3.151   1.555
  738SOL    HW3 2983   0.217   3.027   1.566
  738SOL    MW4 2984   0.203   3.112   1.583
  739SOL     OW 2985   4.471   3.206   1.485
  739SOL    HW2 2986   4.481   3.296   1.519
  739SOL    HW3 2987   4.482   3.215   1.391
  739SOL    MW4 2988   4.474   3.219   1.477
  740SOL     OW 2989   0.032   3.457   1.584
  740SOL    HW2 2990   0.015   3.456   1.678
  740SOL    HW3 2991  -0.035   3.515   1.548
  740SOL    MW4 2992   0.021   3.465   1.592
  741SOL     OW 2993   0.240   3.608   1.469
  741SOL    HW2 2994   0.236   3.699   1.496
  741SOL    HW3 2995   0.169   3.566   1.518
  741SOL    MW4 2996   0.230   3.614   1.479
  742SOL     OW 2997   0.216   3.867   1.546
  742SOL    HW2 2998   0.223   3.862   1.642
  742SOL    HW3 2999   0.289   3.923   1.520
  742SOL    MW4 3000   0.227   3.874   1.555
  743SOL     OW 3001   4.490   3.993   1.442
  743SOL    HW2 3002   4.488   4.079   1.484
  743SOL    HW3 3003   4.567   3.950   1.478
  743SOL    MW4 3004   4.500   3.999   1.452
  744SOL     OW 3005   4.468   4.234   1.607
  744SOL    HW2 3006   4.481   4.244   1.702
  744SOL    HW3 3007   4.398   4.296   1.586
  744SOL    MW4 3008   4.460   4.243   1.617
  745SOL     OW 3009   0.197   4.382   1.461
  745SOL    HW2 3010   0.117   4.336   1.485
  745SOL    HW3 3011   0.203   4.454   1.524
  745SOL    MW4 3012   0.187   4.385   1.472
  746SOL     OW 3013   0.661   4.620   1.562
  746SOL    HW2 3014   0.733   4.683   1.561
  746SOL    HW3 3015   0.583   4.673   1.546
  746SOL    MW4 3016   0.660   4.635   1.560
  747SOL     OW 3017   0.448   0.098   1.503
  747SOL    HW2 3018   0.481   0.178   1.544
  747SOL    HW3 3019   0.455   0.115   1.409
  747SOL    MW4 3020   0.453   0.111   1.496
  748SOL     OW 3021   0.477   0.371   1.584
  748SOL    HW2 3022   0.539   0.444   1.580
  748SOL    HW3 3023   0.401   0.402   1.534
  748SOL    MW4 3024   0.475   0.385   1.577
  749SOL     OW 3025   0.693   0.545   1.527
  749SOL    HW2 3026   0.703   0.638   1.548
  749SOL    HW3 3027   0.678   0.543   1.432
  749SOL    MW4 3028   0.692   0.557   1.517
  750SOL     OW 3029   0.685   0.808   1.569
  750SOL    HW2 3030   0.678   0.832   1.661
  750SOL    HW3 3031   0.757   0.860   1.535
  750SOL    MW4 3032   0.693   0.818   1.577
  751SOL     OW 3033   0.441   0.917   1.485
  751SOL    HW2 3034   0.430   1.005   1.521
  751SOL    HW3 3035   0.522   0.885   1.524
  751SOL    MW4 3036   0.450   0.925   1.495
  752SOL     OW 3037   0.440   1.174   1.637
  752SOL    HW2 3038   0.506   1.229   1.595
  752SOL    HW3 3039   0.357   1.210   1.608
  752SOL    MW4 3040   0.438   1.186   1.628
  753SOL     OW 3041   0.638   1.310   1.482
  753SOL    HW2 3042   0.626   1.402   1.507
  753SOL    HW3 3043   0.646   1.311   1.387
  753SOL    MW4 3044   0.638   1.322   1.473
  754SOL     OW 3045   0.651   1.556   1.596
  754SOL    HW2 3046   0.729   1.612   1.598
  754SOL    HW3 3047   0.578   1.616   1.580
  754SOL    MW4 3048   0.652   1.571   1.594
  755SOL     OW 3049   0.433   1.679   1.505
  755SOL    HW2 3050   0.435   1.772   1.529
  755SOL    HW3 3051   0.347   1.649   1.534
  755SOL    MW4 3052   0.422   1.688   1.512
  756SOL     OW 3053   0.409   1.940   1.595
  756SOL    HW2 3054   0.407   1.940   1.690
  756SOL    HW3 3055   0.346   2.008   1.569
  756SOL    MW4 3056   0.400   1.949   1.604
  757SOL     OW 3057   0.622   2.089   1.501
  757SOL    HW2 3058   0.698   2.045   1.538
  757SOL    HW3 3059   0.547   2.035   1.528
  757SOL    MW4 3060   0.622   2.076   1.510
  758SOL     OW 3061   0.653   2.376   1.569
  758SOL    HW2 3062   0.572   2.417   1.538
  758SOL    HW3 3063   0.643   2.283   1.547
  758SOL    MW4 3064   0.641   2.369   1.562
  759SOL     OW 3065   0.395   2.481   1.478
  759SOL    HW2 3066   0.432   2.567   1.497
  759SOL    HW3 3067   0.321   2.473   1.538
  759SOL    MW4 3068   0.390   2.492   1.488
  760SOL     OW 3069   0.474   2.724   1.578
  760SOL    HW2 3070   0.466   2.722   1.673
  760SOL    HW3 3071   0.564   2.754   1.563
  760SOL    MW4 3072   0.485   2.728   1.589
  761SOL     OW 3073   0.725   2.831   1.499
  761SOL    HW2 3074   0.712   2.922   1.523
  761SOL    HW3 3075   0.707   2.828   1.405
  761SOL    MW4 3076   0.721   2.842   1.489
  762SOL     OW 3077   0.687   3.088   1.587
  762SOL    HW2 3078   0.764   3.140   1.563
  762SOL    HW3 3079   0.612   3.142   1.559
  762SOL    MW4 3080   0.687   3.102   1.580
  763SOL     OW 3081   0.457   3.215   1.532
  763SOL    HW2 3082   0.364   3.201   1.545
  763SOL    HW3 3083   0.470   3.207   1.438
  763SOL    MW4 3084   0.447   3.212   1.522
  764SOL     OW 3085   0.445   3.492   1.614
  764SOL    HW2 3086   0.420   3.400   1.619
  764SOL    HW3 3087   0.379   3.531   1.557
  764SOL    MW4 3088   0.433   3.485   1.607
  765SOL     OW 3089   0.682   3.616   1.514
  765SOL    HW2 3090   0.757   3.579   1.560
  765SOL    HW3 3091   0.605   3.574   1.553
  765SOL    MW4 3092   0.682   3.606   1.525
  766SOL     OW 3093   0.686   3.888   1.559
  766SOL    HW2 3094   0.770   3.920   1.526
  766SOL    HW3 3095   0.680   3.799   1.525
  766SOL    MW4 3096   0.696   3.881   1.550
  767SOL     OW 3097   0.440   4.000   1.458
  767SOL    HW2 3098   0.525   3.970   1.490
  767SOL    HW3 3099   0.454   4.016   1.365
  767SOL    MW4 3100   0.453   3.998   1.450
  768SOL     OW 3101   0.435   4.246   1.558
  768SOL    HW2 3102   0.438   4.157   1.523
  768SOL    HW3 3103   0.348   4.278   1.534
  768SOL    MW4 3104   0.424   4.238   1.550
  769SOL     OW 3105   0.702   4.351   1.480
  769SOL    HW2 3106   0.620   4.300   1.483
  769SOL    HW3 3107   0.681   4.432   1.526
  769SOL    MW4 3108   0.688   4.355   1.487
  770SOL     OW 3109   1.118   4.647   1.599
  770SOL    HW2 3110   1.112   4.658   1.694
  770SOL    HW3 3111   1.194   4.699   1.573
  770SOL    MW4 3112   1.127   4.656   1.608
  771SOL     OW 3113   0.885   0.127   1.543
  771SOL    HW2 3114   0.889   0.219   1.569
  771SOL    HW3 3115   0.974   0.095   1.558
  771SOL    MW4 3116   0.897   0.135   1.548
  772SOL     OW 3117   0.909   0.392   1.605
  772SOL    HW2 3118   0.909   0.417   1.697
  772SOL    HW3 3119   0.832   0.436   1.568
  772SOL    MW4 3120   0.899   0.402   1.612
  773SOL     OW 3121   1.138   0.525   1.509
  773SOL    HW2 3122   1.131   0.617   1.535
  773SOL    HW3 3123   1.054   0.487   1.531
  773SOL    MW4 3124   1.126   0.532   1.515
  774SOL     OW 3125   1.125   0.800   1.567
  774SOL    HW2 3126   1.105   0.811   1.660
  774SOL    HW3 3127   1.202   0.856   1.552
  774SOL    MW4 3128   1.133   0.809   1.577
  775SOL     OW 3129   0.908   0.943   1.454
  775SOL    HW2 3130   0.989   0.900   1.479
  775SOL    HW3 3131   0.901   0.929   1.360
  775SOL    MW4 3132   0.918   0.936   1.445
  776SOL     OW 3133   0.873   1.201   1.594
  776SOL    HW2 3134   0.873   1.114   1.554
  776SOL    HW3 3135   0.804   1.249   1.548
  776SOL    MW4 3136   0.864   1.196   1.583
  777SOL     OW 3137   1.111   1.358   1.515
  777SOL    HW2 3138   1.187   1.301   1.526
  777SOL    HW3 3139   1.036   1.302   1.539
  777SOL    MW4 3140   1.111   1.343   1.520
  778SOL     OW 3141   1.108   1.615   1.587
  778SOL    HW2 3142   1.189   1.651   1.552
  778SOL    HW3 3143   1.107   1.524   1.557
  778SOL    MW4 3144   1.118   1.608   1.578
  779SOL     OW 3145   0.849   1.742   1.563
  779SOL    HW2 3146   0.935   1.701   1.567
  779SOL    HW3 3147   0.829   1.747   1.470
  779SOL    MW4 3148   0.857   1.737   1.551
  780SOL     OW 3149   0.864   2.003   1.601
  780SOL    HW2 3150   0.950   2.028   1.569
  780SOL    HW3 3151   0.864   1.907   1.600
  780SOL    MW4 3152   0.875   1.994   1.597
  781SOL     OW 3153   1.121   2.080   1.534
  781SOL    HW2 3154   1.203   2.033   1.545
  781SOL    HW3 3155   1.140   2.169   1.564
  781SOL    MW4 3156   1.134   2.086   1.539
  782SOL     OW 3157   1.151   2.339   1.623
  782SOL    HW2 3158   1.219   2.378   1.567
  782SOL    HW3 3159   1.069   2.375   1.588
  782SOL    MW4 3160   1.149   2.349   1.611
  783SOL     OW 3161   0.908   2.446   1.508
  783SOL    HW2 3162   0.916   2.540   1.521
  783SOL    HW3 3163   0.815   2.427   1.520
  783SOL    MW4 3164   0.897   2.456   1.511
  784SOL     OW 3165   0.959   2.701   1.594
  784SOL    HW2 3166   0.969   2.728   1.686
  784SOL    HW3 3167   0.883   2.751   1.563
  784SOL    MW4 3168   0.950   2.711   1.602
  785SOL     OW 3169   1.171   2.846   1.485
  785SOL    HW2 3170   1.174   2.936   1.517
  785SOL    HW3 3171   1.096   2.808   1.530
  785SOL    MW4 3172   1.162   2.853   1.496
  786SOL     OW 3173   1.147   3.123   1.564
  786SOL    HW2 3174   1.165   3.120   1.658
  786SOL    HW3 3175   1.226   3.161   1.525
  786SOL    MW4 3176   1.160   3.127   1.571
  787SOL     OW 3177   0.909   3.246   1.513
  787SOL    HW2 3178   0.988   3.196   1.536
  787SOL    HW3 3179   0.911   3.250   1.417
  787SOL    MW4 3180   0.920   3.240   1.503
  788SOL     OW 3181   0.888   3.488   1.661
  788SOL    HW2 3182   0.968   3.529   1.629
  788SOL    HW3 3183   0.880   3.408   1.609
  788SOL    MW4 3184   0.897   3.483   1.650
  789SOL     OW 3185   1.121   3.574   1.551
  789SOL    HW2 3186   1.203   3.530   1.575
  789SOL    HW3 3187   1.138   3.610   1.464
  789SOL    MW4 3188   1.134   3.573   1.543
  790SOL     OW 3189   1.143   3.862   1.616
  790SOL    HW2 3190   1.218   3.906   1.577
  790SOL    HW3 3191   1.162   3.768   1.607
  790SOL    MW4 3192   1.155   3.855   1.610
  791SOL     OW 3193   0.933   3.994   1.470
  791SOL    HW2 3194   0.931   4.076   1.518
  791SOL    HW3 3195   0.997   3.940   1.518
  791SOL    MW4 3196   0.941   3.997   1.483
  792SOL     OW 3197   0.912   4.223   1.597
  792SOL    HW2 3198   0.913   4.229   1.692
  792SOL    HW3 3199   0.826   4.257   1.572
  792SOL    MW4 3200   0.901   4.228   1.606
  793SOL     OW 3201   1.148   4.377   1.519
  793SOL    HW2 3202   1.059   4.344   1.533
  793SOL    HW3 3203   1.149   4.462   1.562
  793SOL    MW4 3204   1.136   4.384   1.527
  794SOL     OW 3205   1.603   4.664   1.564
  794SOL    HW2 3206   1.604   4.676   1.659
  794SOL    HW3 3207   1.524   4.710   1.536
  794SOL    MW4 3208   1.593   4.672   1.573
  795SOL     OW 3209   1.346   0.116   1.506
  795SOL    HW2 3210   1.330   0.204   1.540
  795SOL    HW3 3211   1.337   0.125   1.412
  795SOL    MW4 3212   1.343   0.129   1.498
  796SOL     OW 3213   1.360   0.386   1.608
  796SOL    HW2 3214   1.436   0.422   1.561
  796SOL    HW3 3215   1.285   0.434   1.572
  796SOL    MW4 3216   1.360   0.397   1.597
  797SOL     OW 3217   1.554   0.527   1.477
  797SOL    HW2 3218   1.634   0.483   1.509
  797SOL    HW3 3219   1.564   0.527   1.382
  797SOL    MW4 3220   1.566   0.521   1.469
  798SOL     OW 3221   1.544   0.808   1.586
  798SOL    HW2 3222   1.543   0.803   1.682
  798SOL    HW3 3223   1.553   0.717   1.558
  798SOL    MW4 3224   1.545   0.795   1.595
  799SOL     OW 3225   1.330   0.967   1.507
  799SOL    HW2 3226   1.404   0.912   1.534
  799SOL    HW3 3227   1.329   0.961   1.411
  799SOL    MW4 3228   1.340   0.959   1.498
  800SOL     OW 3229   1.341   1.229   1.568
  800SOL    HW2 3230   1.353   1.225   1.663
  800SOL    HW3 3231   1.328   1.138   1.541
  800SOL    MW4 3232   1.341   1.216   1.577
  801SOL     OW 3233   1.612   1.282   1.511
  801SOL    HW2 3234   1.520   1.264   1.530
  801SOL    HW3 3235   1.615   1.293   1.416
  801SOL    MW4 3236   1.601   1.281   1.501
  802SOL     OW 3237   1.568   1.572   1.596
  802SOL    HW2 3238   1.550   1.578   1.690
  802SOL    HW3 3239   1.562   1.479   1.576
  802SOL    MW4 3240   1.565   1.560   1.606
  803SOL     OW 3241   1.365   1.719   1.497
  803SOL    HW2 3242   1.439   1.671   1.534
  803SOL    HW3 3243   1.375   1.710   1.403
  803SOL    MW4 3244   1.376   1.712   1.490
  804SOL     OW 3245   1.380   1.976   1.607
  804SOL    HW2 3246   1.355   1.955   1.697
  804SOL    HW3 3247   1.386   1.892   1.563
  804SOL    MW4 3248   1.377   1.962   1.613
  805SOL     OW 3249   1.612   2.082   1.511
  805SOL    HW2 3250   1.526   2.052   1.542
  805SOL    HW3 3251   1.602   2.091   1.416
  805SOL    MW4 3252   1.599   2.079   1.503
  806SOL     OW 3253   1.583   2.341   1.589
  806SOL    HW2 3254   1.659   2.385   1.551
  806SOL    HW3 3255   1.597   2.248   1.569
  806SOL    MW4 3256   1.595   2.335   1.581
  807SOL     OW 3257   1.363   2.453   1.484
  807SOL    HW2 3258   1.366   2.544   1.512
  807SOL    HW3 3259   1.441   2.413   1.521
  807SOL    MW4 3260   1.373   2.460   1.492
  808SOL     OW 3261   1.398   2.719   1.577
  808SOL    HW2 3262   1.467   2.764   1.529
  808SOL    HW3 3263   1.319   2.772   1.561
  808SOL    MW4 3264   1.396   2.732   1.568
  809SOL     OW 3265   1.577   2.862   1.421
  809SOL    HW2 3266   1.649   2.809   1.455
  809SOL    HW3 3267   1.584   2.853   1.326
  809SOL    MW4 3268   1.587   2.854   1.413
  810SOL     OW 3269   1.635   3.102   1.552
  810SOL    HW2 3270   1.697   3.151   1.499
  810SOL    HW3 3271   1.625   3.018   1.508
  810SOL    MW4 3272   1.642   3.098   1.540
  811SOL     OW 3273   1.385   3.224   1.481
  811SOL    HW2 3274   1.377   3.302   1.535
  811SOL    HW3 3275   1.464   3.180   1.513
  811SOL    MW4 3276   1.394   3.228   1.493
  812SOL     OW 3277   1.386   3.471   1.622
  812SOL    HW2 3278   1.386   3.496   1.714
  812SOL    HW3 3279   1.464   3.512   1.585
  812SOL    MW4 3280   1.396   3.480   1.629
  813SOL     OW 3281   1.588   3.624   1.524
  813SOL    HW2 3282   1.589   3.717   1.547
  813SOL    HW3 3283   1.591   3.623   1.429
  813SOL    MW4 3284   1.588   3.636   1.515
  814SOL     OW 3285   1.577   3.889   1.629
  814SOL    HW2 3286   1.557   3.891   1.722
  814SOL    HW3 3287   1.509   3.942   1.588
  814SOL    MW4 3288   1.565   3.896   1.636
  815SOL     OW 3289   1.366   3.989   1.496
  815SOL    HW2 3290   1.357   4.078   1.530
  815SOL    HW3 3291   1.380   4.001   1.402
  815SOL    MW4 3292   1.367   4.002   1.488
  816SOL     OW 3293   1.398   4.254   1.615
  816SOL    HW2 3294   1.474   4.297   1.575
  816SOL    HW3 3295   1.322   4.294   1.572
  816SOL    MW4 3296   1.398   4.265   1.604
  817SOL     OW 3297   1.613   4.403   1.468
  817SOL    HW2 3298   1.694   4.366   1.503
  817SOL    HW3 3299   1.606   4.489   1.509
  817SOL    MW4 3300   1.623   4.409   1.478
  818SOL     OW 3301   2.043   0.024   1.596
  818SOL    HW2 3302   2.041   0.039   1.690
  818SOL    HW3 3303   1.959   0.059   1.565
  818SOL    MW4 3304   2.032   0.031   1.604
  819SOL     OW 3305   1.831   0.118   1.458
  819SOL    HW2 3306   1.761   0.064   1.494
  819SOL    HW3 3307   1.818   0.113   1.363
  819SOL    MW4 3308   1.820   0.110   1.450
  820SOL     OW 3309   1.791   0.382   1.557
  820SOL    HW2 3310   1.870   0.432   1.532
  820SOL    HW3 3311   1.805   0.295   1.518
  820SOL    MW4 3312   1.804   0.377   1.548
  821SOL     OW 3313   2.034   0.524   1.498
  821SOL    HW2 3314   2.117   0.487   1.529
  821SOL    HW3 3315   2.035   0.614   1.530
  821SOL    MW4 3316   2.045   0.531   1.506
  822SOL     OW 3317   2.018   0.795   1.590
  822SOL    HW2 3318   2.089   0.846   1.550
  822SOL    HW3 3319   1.938   0.836   1.557
  822SOL    MW4 3320   2.017   0.807   1.580
  823SOL     OW 3321   1.773   0.915   1.466
  823SOL    HW2 3322   1.791   0.996   1.514
  823SOL    HW3 3323   1.696   0.878   1.509
  823SOL    MW4 3324   1.766   0.921   1.478
  824SOL     OW 3325   1.813   1.128   1.634
  824SOL    HW2 3326   1.892   1.164   1.594
  824SOL    HW3 3327   1.742   1.179   1.597
  824SOL    MW4 3328   1.814   1.139   1.624
  825SOL     OW 3329   2.001   1.262   1.504
  825SOL    HW2 3330   2.013   1.352   1.532
  825SOL    HW3 3331   2.023   1.261   1.411
  825SOL    MW4 3332   2.005   1.274   1.496
  826SOL     OW 3333   2.030   1.504   1.607
  826SOL    HW2 3334   2.109   1.554   1.585
  826SOL    HW3 3335   1.960   1.569   1.603
  826SOL    MW4 3336   2.031   1.519   1.604
  827SOL     OW 3337   1.819   1.679   1.564
  827SOL    HW2 3338   1.737   1.635   1.588
  827SOL    HW3 3339   1.819   1.678   1.468
  827SOL    MW4 3340   1.808   1.673   1.554
  828SOL     OW 3341   1.834   1.942   1.604
  828SOL    HW2 3342   1.842   1.849   1.586
  828SOL    HW3 3343   1.758   1.971   1.554
  828SOL    MW4 3344   1.825   1.933   1.595
  829SOL     OW 3345   2.038   2.065   1.485
  829SOL    HW2 3346   2.117   2.015   1.509
  829SOL    HW3 3347   1.967   2.018   1.529
  829SOL    MW4 3348   2.039   2.052   1.494
  830SOL     OW 3349   2.024   2.324   1.568
  830SOL    HW2 3350   2.023   2.319   1.664
  830SOL    HW3 3351   2.031   2.233   1.539
  830SOL    MW4 3352   2.025   2.311   1.577
  831SOL     OW 3353   1.812   2.484   1.454
  831SOL    HW2 3354   1.894   2.439   1.473
  831SOL    HW3 3355   1.800   2.475   1.360
  831SOL    MW4 3356   1.821   2.477   1.444
  832SOL     OW 3357   1.783   2.738   1.573
  832SOL    HW2 3358   1.854   2.780   1.524
  832SOL    HW3 3359   1.792   2.645   1.554
  832SOL    MW4 3360   1.793   2.732   1.564
  833SOL     OW 3361   2.007   2.838   1.436
  833SOL    HW2 3362   2.018   2.929   1.464
  833SOL    HW3 3363   2.033   2.838   1.344
  833SOL    MW4 3364   2.012   2.850   1.428
  834SOL     OW 3365   2.024   3.092   1.545
  834SOL    HW2 3366   2.022   3.056   1.633
  834SOL    HW3 3367   2.103   3.146   1.543
  834SOL    MW4 3368   2.035   3.095   1.556
  835SOL     OW 3369   1.842   3.243   1.412
  835SOL    HW2 3370   1.838   3.328   1.456
  835SOL    HW3 3371   1.911   3.195   1.459
  835SOL    MW4 3372   1.851   3.248   1.424
  836SOL     OW 3373   1.799   3.442   1.614
  836SOL    HW2 3374   1.808   3.432   1.709
  836SOL    HW3 3375   1.739   3.516   1.603
  836SOL    MW4 3376   1.792   3.451   1.625
  837SOL     OW 3377   2.032   3.587   1.513
  837SOL    HW2 3378   2.115   3.542   1.530
  837SOL    HW3 3379   1.966   3.534   1.557
  837SOL    MW4 3380   2.034   3.574   1.521
  838SOL     OW 3381   2.032   3.860   1.587
  838SOL    HW2 3382   2.115   3.883   1.544
  838SOL    HW3 3383   2.019   3.768   1.566
  838SOL    MW4 3384   2.042   3.851   1.579
  839SOL     OW 3385   1.812   4.012   1.511
  839SOL    HW2 3386   1.896   3.970   1.530
  839SOL    HW3 3387   1.747   3.959   1.558
  839SOL    MW4 3388   1.814   3.999   1.519
  840SOL     OW 3389   1.813   4.277   1.620
  840SOL    HW2 3390   1.885   4.321   1.575
  840SOL    HW3 3391   1.806   4.192   1.576
  840SOL    MW4 3392   1.822   4.272   1.608
  841SOL     OW 3393   2.028   4.409   1.501
  841SOL    HW2 3394   2.096   4.346   1.524
  841SOL    HW3 3395   2.050   4.488   1.549
  841SOL    MW4 3396   2.040   4.411   1.510
  842SOL     OW 3397   2.469   4.632   1.622
  842SOL    HW2 3398   2.469   4.653   1.715
  842SOL    HW3 3399   2.404   4.691   1.584
  842SOL    MW4 3400   2.460   4.642   1.629
  843SOL     OW 3401   2.285   0.133   1.496
  843SOL    HW2 3402   2.207   0.085   1.524
  843SOL    HW3 3403   2.277   0.138   1.401
  843SOL    MW4 3404   2.274   0.127   1.487
  844SOL     OW 3405   2.274   0.406   1.598
  844SOL    HW2 3406   2.273   0.399   1.694
  844SOL    HW3 3407   2.264   0.316   1.567
  844SOL    MW4 3408   2.272   0.393   1.607
  845SOL     OW 3409   2.503   0.530   1.481
  845SOL    HW2 3410   2.582   0.491   1.518
  845SOL    HW3 3411   2.431   0.477   1.515
  845SOL    MW4 3412   2.504   0.518   1.490
  846SOL     OW 3413   2.468   0.796   1.597
  846SOL    HW2 3414   2.391   0.820   1.546
  846SOL    HW3 3415   2.478   0.702   1.582
  846SOL    MW4 3416   2.459   0.787   1.588
  847SOL     OW 3417   2.242   0.906   1.477
  847SOL    HW2 3418   2.264   0.991   1.515
  847SOL    HW3 3419   2.267   0.913   1.385
  847SOL    MW4 3420   2.248   0.918   1.470
  848SOL     OW 3421   2.264   1.169   1.587
  848SOL    HW2 3422   2.251   1.150   1.680
  848SOL    HW3 3423   2.176   1.184   1.553
  848SOL    MW4 3424   2.251   1.168   1.595
  849SOL     OW 3425   2.507   1.300   1.527
  849SOL    HW2 3426   2.432   1.246   1.550
  849SOL    HW3 3427   2.508   1.299   1.431
  849SOL    MW4 3428   2.497   1.293   1.517
  850SOL     OW 3429   2.516   1.550   1.632
  850SOL    HW2 3430   2.599   1.572   1.589
  850SOL    HW3 3431   2.502   1.458   1.612
  850SOL    MW4 3432   2.525   1.541   1.624
  851SOL     OW 3433   2.266   1.643   1.519
  851SOL    HW2 3434   2.354   1.619   1.546
  851SOL    HW3 3435   2.266   1.632   1.424
  851SOL    MW4 3436   2.277   1.638   1.510
  852SOL     OW 3437   2.244   1.941   1.594
  852SOL    HW2 3438   2.247   1.962   1.688
  852SOL    HW3 3439   2.261   1.847   1.590
  852SOL    MW4 3440   2.247   1.931   1.606
  853SOL     OW 3441   2.472   2.056   1.489
  853SOL    HW2 3442   2.385   2.026   1.516
  853SOL    HW3 3443   2.472   2.049   1.394
  853SOL    MW4 3444   2.461   2.051   1.480
  854SOL     OW 3445   2.465   2.317   1.555
  854SOL    HW2 3446   2.474   2.318   1.650
  854SOL    HW3 3447   2.472   2.225   1.531
  854SOL    MW4 3448   2.467   2.305   1.564
  855SOL     OW 3449   2.256   2.461   1.453
  855SOL    HW2 3450   2.337   2.415   1.474
  855SOL    HW3 3451   2.187   2.409   1.494
  855SOL    MW4 3452   2.257   2.448   1.461
  856SOL     OW 3453   2.241   2.713   1.583
  856SOL    HW2 3454   2.234   2.622   1.553
  856SOL    HW3 3455   2.169   2.759   1.540
  856SOL    MW4 3456   2.231   2.707   1.574
  857SOL     OW 3457   2.466   2.854   1.493
  857SOL    HW2 3458   2.456   2.936   1.541
  857SOL    HW3 3459   2.387   2.804   1.516
  857SOL    MW4 3460   2.454   2.858   1.502
  858SOL     OW 3461   2.443   3.084   1.627
  858SOL    HW2 3462   2.523   3.126   1.595
  858SOL    HW3 3463   2.373   3.124   1.576
  858SOL    MW4 3464   2.444   3.095   1.616
  859SOL     OW 3465   2.268   3.212   1.453
  859SOL    HW2 3466   2.284   3.303   1.475
  859SOL    HW3 3467   2.267   3.210   1.357
  859SOL    MW4 3468   2.270   3.224   1.443
  860SOL     OW 3469   2.271   3.465   1.582
  860SOL    HW2 3470   2.273   3.460   1.678
  860SOL    HW3 3471   2.346   3.518   1.558
  860SOL    MW4 3472   2.281   3.471   1.592
  861SOL     OW 3473   2.497   3.588   1.513
  861SOL    HW2 3474   2.580   3.555   1.548
  861SOL    HW3 3475   2.492   3.679   1.545
  861SOL    MW4 3476   2.507   3.596   1.522
  862SOL     OW 3477   2.487   3.848   1.596
  862SOL    HW2 3478   2.493   3.858   1.691
  862SOL    HW3 3479   2.554   3.908   1.562
  862SOL    MW4 3480   2.497   3.857   1.604
  863SOL     OW 3481   2.261   3.963   1.509
  863SOL    HW2 3482   2.338   3.910   1.532
  863SOL    HW3 3483   2.272   3.982   1.416
  863SOL    MW4 3484   2.273   3.959   1.500
  864SOL     OW 3485   2.238   4.226   1.556
  864SOL    HW2 3486   2.323   4.264   1.535
  864SOL    HW3 3487   2.248   4.133   1.539
  864SOL    MW4 3488   2.251   4.219   1.551
  865SOL     OW 3489   2.473   4.377   1.487
  865SOL    HW2 3490   2.461   4.464   1.525
  865SOL    HW3 3491   2.462   4.392   1.393
  865SOL    MW4 3492   2.470   4.391   1.479
  866SOL     OW 3493   2.897   4.633   1.604
  866SOL    HW2 3494   2.883   4.645   1.698
  866SOL    HW3 3495   2.830   4.688   1.563
  866SOL    MW4 3496   2.886   4.642   1.611
  867SOL     OW 3497   2.685   0.099   1.483
  867SOL    HW2 3498   2.694   0.190   1.513
  867SOL    HW3 3499   2.605   0.068   1.525
  867SOL    MW4 3500   2.676   0.107   1.492
  868SOL     OW 3501   2.697   0.360   1.574
  868SOL    HW2 3502   2.710   0.365   1.668
  868SOL    HW3 3503   2.773   0.404   1.536
  868SOL    MW4 3504   2.709   0.367   1.581
  869SOL     OW 3505   2.938   0.482   1.484
  869SOL    HW2 3506   2.929   0.567   1.528
  869SOL    HW3 3507   2.939   0.503   1.390
  869SOL    MW4 3508   2.937   0.496   1.477
  870SOL     OW 3509   2.922   0.753   1.605
  870SOL    HW2 3510   2.903   0.736   1.697
  870SOL    HW3 3511   2.847   0.805   1.575
  870SOL    MW4 3512   2.909   0.758   1.613
  871SOL     OW 3513   2.702   0.898   1.489
  871SOL    HW2 3514   2.622   0.860   1.523
  871SOL    HW3 3515   2.689   0.900   1.394
  871SOL    MW4 3516   2.690   0.893   1.481
  872SOL     OW 3517   2.738   1.150   1.607
  872SOL    HW2 3518   2.725   1.057   1.588
  872SOL    HW3 3519   2.655   1.191   1.586
  872SOL    MW4 3520   2.726   1.143   1.602
  873SOL     OW 3521   2.941   1.290   1.479
  873SOL    HW2 3522   3.012   1.239   1.519
  873SOL    HW3 3523   2.862   1.258   1.522
  873SOL    MW4 3524   2.940   1.279   1.490
  874SOL     OW 3525   2.932   1.543   1.618
  874SOL    HW2 3526   2.872   1.578   1.552
  874SOL    HW3 3527   2.960   1.459   1.583
  874SOL    MW4 3528   2.928   1.537   1.605
  875SOL     OW 3529   2.733   1.675   1.464
  875SOL    HW2 3530   2.720   1.766   1.490
  875SOL    HW3 3531   2.713   1.674   1.370
  875SOL    MW4 3532   2.728   1.687   1.455
  876SOL     OW 3533   2.718   1.934   1.594
  876SOL    HW2 3534   2.708   1.942   1.689
  876SOL    HW3 3535   2.640   1.977   1.559
  876SOL    MW4 3536   2.706   1.941   1.602
  877SOL     OW 3537   2.938   2.066   1.453
  877SOL    HW2 3538   2.952   2.156   1.483
  877SOL    HW3 3539   2.856   2.039   1.495
  877SOL    MW4 3540   2.929   2.074   1.463
  878SOL     OW 3541   2.930   2.323   1.584
  878SOL    HW2 3542   2.928   2.316   1.680
  878SOL    HW3 3543   2.854   2.376   1.563
  878SOL    MW4 3544   2.920   2.329   1.594
  879SOL     OW 3545   2.702   2.472   1.482
  879SOL    HW2 3546   2.699   2.558   1.523
  879SOL    HW3 3547   2.625   2.426   1.517
  879SOL    MW4 3548   2.691   2.478   1.492
  880SOL     OW 3549   2.682   2.713   1.588
  880SOL    HW2 3550   2.754   2.750   1.538
  880SOL    HW3 3551   2.611   2.776   1.578
  880SOL    MW4 3552   2.682   2.726   1.580
  881SOL     OW 3553   2.904   2.820   1.460
  881SOL    HW2 3554   2.974   2.773   1.505
  881SOL    HW3 3555   2.911   2.910   1.492
  881SOL    MW4 3556   2.914   2.826   1.470
  882SOL     OW 3557   2.934   3.073   1.582
  882SOL    HW2 3558   2.937   3.081   1.677
  882SOL    HW3 3559   3.015   3.114   1.551
  882SOL    MW4 3560   2.945   3.079   1.590
  883SOL     OW 3561   2.691   3.186   1.526
  883SOL    HW2 3562   2.773   3.146   1.555
  883SOL    HW3 3563   2.702   3.197   1.432
  883SOL    MW4 3564   2.703   3.182   1.518
  884SOL     OW 3565   2.721   3.453   1.637
  884SOL    HW2 3566   2.692   3.468   1.727
  884SOL    HW3 3567   2.713   3.358   1.625
  884SOL    MW4 3568   2.716   3.442   1.648
  885SOL     OW 3569   2.908   3.623   1.544
  885SOL    HW2 3570   2.845   3.565   1.585
  885SOL    HW3 3571   2.915   3.591   1.454
  885SOL    MW4 3572   2.901   3.612   1.537
  886SOL     OW 3573   2.906   3.873   1.612
  886SOL    HW2 3574   2.829   3.911   1.569
  886SOL    HW3 3575   2.904   3.781   1.586
  886SOL    MW4 3576   2.895   3.866   1.603
  887SOL     OW 3577   2.682   3.980   1.469
  887SOL    HW2 3578   2.685   4.068   1.508
  887SOL    HW3 3579   2.675   3.995   1.375
  887SOL    MW4 3580   2.682   3.994   1.462
  888SOL     OW 3581   2.688   4.232   1.572
  888SOL    HW2 3582   2.766   4.280   1.542
  888SOL    HW3 3583   2.615   4.291   1.554
  888SOL    MW4 3584   2.689   4.246   1.566
  889SOL     OW 3585   2.914   4.374   1.509
  889SOL    HW2 3586   2.915   4.469   1.524
  889SOL    HW3 3587   2.921   4.364   1.414
  889SOL    MW4 3588   2.915   4.385   1.499
  890SOL     OW 3589   3.367   4.610   1.639
  890SOL    HW2 3590   3.447   4.653   1.612
  890SOL    HW3 3591   3.370   4.524   1.597
  890SOL    MW4 3592   3.378   4.604   1.630
  891SOL     OW 3593   3.151   0.075   1.533
  891SOL    HW2 3594   3.223   0.025   1.572
  891SOL    HW3 3595   3.072   0.034   1.569
  891SOL    MW4 3596   3.150   0.063   1.543
  892SOL     OW 3597   3.142   0.338   1.609
  892SOL    HW2 3598   3.150   0.247   1.582
  892SOL    HW3 3599   3.062   0.369   1.564
  892SOL    MW4 3600   3.132   0.330   1.599
  893SOL     OW 3601   3.361   0.474   1.510
  893SOL    HW2 3602   3.285   0.438   1.556
  893SOL    HW3 3603   3.356   0.435   1.422
  893SOL    MW4 3604   3.350   0.464   1.504
  894SOL     OW 3605   3.404   0.734   1.589
  894SOL    HW2 3606   3.403   0.732   1.684
  894SOL    HW3 3607   3.397   0.642   1.562
  894SOL    MW4 3608   3.403   0.721   1.598
  895SOL     OW 3609   3.167   0.880   1.509
  895SOL    HW2 3610   3.235   0.833   1.556
  895SOL    HW3 3611   3.085   0.842   1.542
  895SOL    MW4 3612   3.165   0.869   1.520
  896SOL     OW 3613   3.147   1.140   1.584
  896SOL    HW2 3614   3.146   1.129   1.679
  896SOL    HW3 3615   3.159   1.052   1.549
  896SOL    MW4 3616   3.149   1.127   1.592
  897SOL     OW 3617   3.366   1.311   1.496
  897SOL    HW2 3618   3.441   1.258   1.524
  897SOL    HW3 3619   3.290   1.262   1.527
  897SOL    MW4 3620   3.366   1.297   1.504
  898SOL     OW 3621   3.346   1.577   1.591
  898SOL    HW2 3622   3.354   1.576   1.687
  898SOL    HW3 3623   3.370   1.489   1.564
  898SOL    MW4 3624   3.350   1.566   1.600
  899SOL     OW 3625   3.113   1.698   1.501
  899SOL    HW2 3626   3.196   1.661   1.531
  899SOL    HW3 3627   3.046   1.645   1.544
  899SOL    MW4 3628   3.115   1.686   1.511
  900SOL     OW 3629   3.140   1.954   1.594
  900SOL    HW2 3630   3.124   1.863   1.568
  900SOL    HW3 3631   3.071   2.004   1.551
  900SOL    MW4 3632   3.129   1.948   1.585
  901SOL     OW 3633   3.404   2.053   1.524
  901SOL    HW2 3634   3.321   2.025   1.563
  901SOL    HW3 3635   3.391   2.044   1.430
  901SOL    MW4 3636   3.391   2.048   1.517
  902SOL     OW 3637   3.363   2.326   1.604
  902SOL    HW2 3638   3.439   2.365   1.562
  902SOL    HW3 3639   3.377   2.232   1.596
  902SOL    MW4 3640   3.375   2.319   1.598
  903SOL     OW 3641   3.154   2.478   1.501
  903SOL    HW2 3642   3.227   2.431   1.541
  903SOL    HW3 3643   3.077   2.423   1.517
  903SOL    MW4 3644   3.153   2.465   1.508
  904SOL     OW 3645   3.138   2.736   1.591
  904SOL    HW2 3646   3.211   2.790   1.560
  904SOL    HW3 3647   3.157   2.648   1.557
  904SOL    MW4 3648   3.150   2.731   1.583
  905SOL     OW 3649   3.357   2.860   1.476
  905SOL    HW2 3650   3.340   2.948   1.509
  905SOL    HW3 3651   3.355   2.869   1.381
  905SOL    MW4 3652   3.355   2.873   1.468
  906SOL     OW 3653   3.368   3.133   1.575
  906SOL    HW2 3654   3.378   3.148   1.669
  906SOL    HW3 3655   3.442   3.177   1.534
  906SOL    MW4 3656   3.379   3.141   1.582
  907SOL     OW 3657   3.141   3.247   1.486
  907SOL    HW2 3658   3.223   3.207   1.512
  907SOL    HW3 3659   3.150   3.261   1.392
  907SOL    MW4 3660   3.153   3.243   1.477
  908SOL     OW 3661   3.176   3.514   1.598
  908SOL    HW2 3662   3.161   3.420   1.585
  908SOL    HW3 3663   3.091   3.554   1.584
  908SOL    MW4 3664   3.163   3.507   1.594
  909SOL     OW 3665   3.387   3.635   1.486
  909SOL    HW2 3666   3.462   3.582   1.514
  909SOL    HW3 3667   3.310   3.588   1.518
  909SOL    MW4 3668   3.387   3.622   1.494
  910SOL     OW 3669   3.378   3.856   1.646
  910SOL    HW2 3670   3.306   3.902   1.604
  910SOL    HW3 3671   3.383   3.772   1.599
  910SOL    MW4 3672   3.369   3.851   1.634
  911SOL     OW 3673   3.137   3.982   1.497
  911SOL    HW2 3674   3.137   4.074   1.523
  911SOL    HW3 3675   3.054   3.947   1.531
  911SOL    MW4 3676   3.126   3.989   1.505
  912SOL     OW 3677   3.141   4.240   1.599
  912SOL    HW2 3678   3.145   4.252   1.694
  912SOL    HW3 3679   3.063   4.288   1.571
  912SOL    MW4 3680   3.131   4.248   1.608
  913SOL     OW 3681   3.339   4.380   1.493
  913SOL    HW2 3682   3.281   4.310   1.525
  913SOL    HW3 3683   3.337   4.371   1.398
  913SOL    MW4 3684   3.331   4.370   1.485
  914SOL     OW 3685   3.814   4.620   1.589
  914SOL    HW2 3686   3.818   4.644   1.682
  914SOL    HW3 3687   3.886   4.668   1.549
  914SOL    MW4 3688   3.824   4.630   1.596
  915SOL     OW 3689   3.575   0.089   1.540
  915SOL    HW2 3690   3.659   0.048   1.561
  915SOL    HW3 3691   3.572   0.088   1.444
  915SOL    MW4 3692   3.586   0.083   1.530
  916SOL     OW 3693   3.578   0.354   1.653
  916SOL    HW2 3694   3.583   0.265   1.618
  916SOL    HW3 3695   3.503   0.393   1.608
  916SOL    MW4 3696   3.569   0.348   1.642
  917SOL     OW 3697   3.798   0.465   1.547
  917SOL    HW2 3698   3.710   0.439   1.571
  917SOL    HW3 3699   3.797   0.469   1.451
  917SOL    MW4 3700   3.786   0.462   1.537
  918SOL     OW 3701   3.836   0.723   1.648
  918SOL    HW2 3702   3.772   0.776   1.600
  918SOL    HW3 3703   3.823   0.634   1.617
  918SOL    MW4 3704   3.826   0.719   1.638
  919SOL     OW 3705   3.639   0.845   1.485
  919SOL    HW2 3706   3.555   0.815   1.517
  919SOL    HW3 3707   3.623   0.872   1.395
  919SOL    MW4 3708   3.626   0.845   1.477
  920SOL     OW 3709   3.584   1.143   1.578
  920SOL    HW2 3710   3.665   1.181   1.543
  920SOL    HW3 3711   3.577   1.058   1.535
  920SOL    MW4 3712   3.594   1.137   1.568
  921SOL     OW 3713   3.825   1.235   1.458
  921SOL    HW2 3714   3.899   1.198   1.506
  921SOL    HW3 3715   3.831   1.329   1.476
  921SOL    MW4 3716   3.836   1.243   1.467
  922SOL     OW 3717   3.793   1.488   1.568
  922SOL    HW2 3718   3.805   1.516   1.658
  922SOL    HW3 3719   3.724   1.545   1.534
  922SOL    MW4 3720   3.786   1.499   1.575
  923SOL     OW 3721   3.605   1.668   1.478
  923SOL    HW2 3722   3.516   1.637   1.494
  923SOL    HW3 3723   3.619   1.655   1.384
  923SOL    MW4 3724   3.595   1.662   1.468
  924SOL     OW 3725   3.608   1.903   1.628
  924SOL    HW2 3726   3.618   1.817   1.586
  924SOL    HW3 3727   3.526   1.937   1.592
  924SOL    MW4 3728   3.598   1.896   1.617
  925SOL     OW 3729   3.794   2.035   1.484
  925SOL    HW2 3730   3.785   2.126   1.510
  925SOL    HW3 3731   3.723   1.990   1.530
  925SOL    MW4 3732   3.783   2.041   1.494
  926SOL     OW 3733   3.810   2.281   1.605
  926SOL    HW2 3734   3.829   2.260   1.697
  926SOL    HW3 3735   3.888   2.328   1.575
  926SOL    MW4 3736   3.823   2.285   1.613
  927SOL     OW 3737   3.591   2.444   1.506
  927SOL    HW2 3738   3.598   2.538   1.524
  927SOL    HW3 3739   3.662   2.405   1.555
  927SOL    MW4 3740   3.601   2.451   1.515
  928SOL     OW 3741   3.577   2.711   1.553
  928SOL    HW2 3742   3.576   2.717   1.648
  928SOL    HW3 3743   3.494   2.752   1.526
  928SOL    MW4 3744   3.566   2.717   1.562
  929SOL     OW 3745   3.810   2.801   1.453
  929SOL    HW2 3746   3.874   2.757   1.509
  929SOL    HW3 3747   3.725   2.776   1.490
  929SOL    MW4 3748   3.807   2.792   1.465
  930SOL     OW 3749   3.784   3.077   1.547
  930SOL    HW2 3750   3.874   3.109   1.536
  930SOL    HW3 3751   3.790   2.983   1.532
  930SOL    MW4 3752   3.797   3.069   1.544
  931SOL     OW 3753   3.577   3.236   1.447
  931SOL    HW2 3754   3.645   3.172   1.466
  931SOL    HW3 3755   3.558   3.224   1.354
  931SOL    MW4 3756   3.583   3.226   1.438
  932SOL     OW 3757   3.594   3.495   1.564
  932SOL    HW2 3758   3.682   3.528   1.548
  932SOL    HW3 3759   3.596   3.404   1.535
  932SOL    MW4 3760   3.606   3.487   1.558
  933SOL     OW 3761   3.831   3.599   1.493
  933SOL    HW2 3762   3.903   3.561   1.544
  933SOL    HW3 3763   3.816   3.684   1.534
  933SOL    MW4 3764   3.839   3.605   1.505
  934SOL     OW 3765   3.794   3.862   1.611
  934SOL    HW2 3766   3.871   3.906   1.576
  934SOL    HW3 3767   3.720   3.913   1.579
  934SOL    MW4 3768   3.795   3.875   1.602
  935SOL     OW 3769   3.574   3.998   1.514
  935SOL    HW2 3770   3.587   4.084   1.552
  935SOL    HW3 3771   3.500   3.961   1.564
  935SOL    MW4 3772   3.566   4.004   1.526
  936SOL     OW 3773   3.562   4.259   1.604
  936SOL    HW2 3774   3.565   4.265   1.699
  936SOL    HW3 3775   3.481   4.305   1.579
  936SOL    MW4 3776   3.552   4.266   1.613
  937SOL     OW 3777   3.776   4.369   1.488
  937SOL    HW2 3778   3.700   4.332   1.533
  937SOL    HW3 3779   3.788   4.455   1.530
  937SOL    MW4 3780   3.767   4.376   1.500
  938SOL     OW 3781   4.261   4.646   1.593
  938SOL    HW2 3782   4.240   4.647   1.687
  938SOL    HW3 3783   4.265   4.553   1.571
  938SOL    MW4 3784   4.258   4.634   1.603
  939SOL     OW 3785   4.044   0.084   1.480
  939SOL    HW2 3786   4.043   0.165   1.531
  939SOL    HW3 3787   4.116   0.033   1.517
  939SOL    MW4 3788   4.053   0.088   1.492
  940SOL     OW 3789   4.022   0.314   1.618
  940SOL    HW2 3790   4.016   0.322   1.713
  940SOL    HW3 3791   3.938   0.345   1.585
  940SOL    MW4 3792   4.010   0.319   1.626
  941SOL     OW 3793   4.235   0.486   1.513
  941SOL    HW2 3794   4.168   0.437   1.561
  941SOL    HW3 3795   4.316   0.435   1.526
  941SOL    MW4 3796   4.237   0.473   1.521
  942SOL     OW 3797   4.285   0.745   1.589
  942SOL    HW2 3798   4.271   0.652   1.570
  942SOL    HW3 3799   4.370   0.765   1.550
  942SOL    MW4 3800   4.294   0.735   1.581
  943SOL     OW 3801   4.040   0.864   1.517
  943SOL    HW2 3802   4.120   0.818   1.542
  943SOL    HW3 3803   3.969   0.810   1.552
  943SOL    MW4 3804   4.041   0.851   1.525
  944SOL     OW 3805   4.059   1.139   1.559
  944SOL    HW2 3806   4.054   1.144   1.654
  944SOL    HW3 3807   4.061   1.046   1.539
  944SOL    MW4 3808   4.059   1.128   1.569
  945SOL     OW 3809   4.291   1.260   1.501
  945SOL    HW2 3810   4.209   1.214   1.519
  945SOL    HW3 3811   4.360   1.199   1.529
  945SOL    MW4 3812   4.290   1.246   1.507
  946SOL     OW 3813   4.226   1.526   1.601
  946SOL    HW2 3814   4.236   1.431   1.589
  946SOL    HW3 3815   4.303   1.564   1.559
  946SOL    MW4 3816   4.238   1.518   1.594
  947SOL     OW 3817   3.995   1.617   1.480
  947SOL    HW2 3818   4.080   1.590   1.516
  947SOL    HW3 3819   3.932   1.565   1.530
  947SOL    MW4 3820   3.998   1.606   1.491
  948SOL     OW 3821   4.009   1.878   1.589
  948SOL    HW2 3822   3.999   1.798   1.538
  948SOL    HW3 3823   3.936   1.934   1.561
  948SOL    MW4 3824   3.998   1.875   1.578
  949SOL     OW 3825   4.242   2.034   1.523
  949SOL    HW2 3826   4.156   1.993   1.534
  949SOL    HW3 3827   4.258   2.028   1.429
  949SOL    MW4 3828   4.232   2.028   1.512
  950SOL     OW 3829   4.241   2.306   1.577
  950SOL    HW2 3830   4.241   2.304   1.673
  950SOL    HW3 3831   4.240   2.214   1.551
  950SOL    MW4 3832   4.241   2.294   1.587
  951SOL     OW 3833   4.013   2.437   1.523
  951SOL    HW2 3834   4.023   2.527   1.556
  951SOL    HW3 3835   4.096   2.394   1.545
  951SOL    MW4 3836   4.025   2.444   1.531
  952SOL     OW 3837   4.019   2.717   1.614
  952SOL    HW2 3838   4.029   2.704   1.708
  952SOL    HW3 3839   4.095   2.770   1.589
  952SOL    MW4 3840   4.031   2.722   1.623
  953SOL     OW 3841   4.243   2.846   1.522
  953SOL    HW2 3842   4.230   2.941   1.530
  953SOL    HW3 3843   4.251   2.831   1.428
  953SOL    MW4 3844   4.242   2.857   1.511
  954SOL     OW 3845   4.225   3.109   1.573
  954SOL    HW2 3846   4.235   3.103   1.668
  954SOL    HW3 3847   4.304   3.153   1.543
  954SOL    MW4 3848   4.236   3.114   1.582
  955SOL     OW 3849   4.000   3.246   1.489
  955SOL    HW2 3850   4.014   3.334   1.523
  955SOL    HW3 3851   4.065   3.192   1.534
  955SOL    MW4 3852   4.011   3.251   1.499
  956SOL     OW 3853   4.058   3.501   1.596
  956SOL    HW2 3854   4.051   3.522   1.689
  956SOL    HW3 3855   4.149   3.519   1.574
  956SOL    MW4 3856   4.069   3.506   1.605
  957SOL     OW 3857   4.308   3.586   1.493
  957SOL    HW2 3858   4.305   3.676   1.527
  957SOL    HW3 3859   4.284   3.596   1.400
  957SOL    MW4 3860   4.304   3.599   1.485
  958SOL     OW 3861   4.290   3.857   1.564
  958SOL    HW2 3862   4.206   3.896   1.541
  958SOL    HW3 3863   4.355   3.915   1.525
  958SOL    MW4 3864   4.287   3.870   1.556
  959SOL     OW 3865   4.018   3.987   1.498
  959SOL    HW2 3866   4.037   4.077   1.525
  959SOL    HW3 3867   4.037   3.985   1.405
  959SOL    MW4 3868   4.023   3.999   1.490
  960SOL     OW 3869   4.017   4.264   1.550
  960SOL    HW2 3870   4.025   4.270   1.645
  960SOL    HW3 3871   3.931   4.302   1.531
  960SOL    MW4 3872   4.007   4.270   1.560
  961SOL     OW 3873   4.258   4.391   1.483
  961SOL    HW2 3874   4.169   4.369   1.510
  961SOL    HW3 3875   4.258   4.377   1.388
  961SOL    MW4 3876   4.246   4.386   1.474
  962SOL     OW 3877   0.218   4.643   1.860
  962SOL    HW2 3878   0.297   4.693   1.883
  962SOL    HW3 3879   0.215   4.645   1.765
  962SOL    MW4 3880   0.228   4.650   1.851
  963SOL     OW 3881   4.480   0.094   1.975
  963SOL    HW2 3882   4.472   0.174   1.923
  963SOL    HW3 3883   4.562   0.054   1.945
  963SOL    MW4 3884   4.490   0.099   1.964
  964SOL     OW 3885   0.011   0.342   1.845
  964SOL    HW2 3886  -0.066   0.396   1.858
  964SOL    HW3 3887   0.081   0.387   1.894
  964SOL    MW4 3888   0.010   0.355   1.853
  965SOL     OW 3889   0.188   0.510   1.975
  965SOL    HW2 3890   0.275   0.476   1.951
  965SOL    HW3 3891   0.195   0.605   1.964
  965SOL    MW4 3892   0.200   0.518   1.970
  966SOL     OW 3893   0.251   0.766   1.888
  966SOL    HW2 3894   0.325   0.818   1.921
  966SOL    HW3 3895   0.261   0.768   1.793
  966SOL    MW4 3896   0.262   0.773   1.880
  967SOL     OW 3897   0.037   0.898   1.995
  967SOL    HW2 3898  -0.041   0.848   1.968
  967SOL    HW3 3899   0.111   0.851   1.958
  967SOL    MW4 3900   0.036   0.886   1.987
  968SOL     OW 3901   0.002   1.121   1.850
  968SOL    HW2 3902  -0.071   1.173   1.884
  968SOL    HW3 3903   0.001   1.041   1.904
  968SOL    MW4 3904  -0.008   1.117   1.862
  969SOL     OW 3905   0.184   1.300   1.989
  969SOL    HW2 3906   0.179   1.389   1.955
  969SOL    HW3 3907   0.123   1.249   1.934
  969SOL    MW4 3908   0.175   1.305   1.977
  970SOL     OW 3909   0.183   1.554   1.869
  970SOL    HW2 3910   0.251   1.594   1.923
  970SOL    HW3 3911   0.101   1.588   1.905
  970SOL    MW4 3912   0.182   1.564   1.881
  971SOL     OW 3913   4.476   1.710   1.972
  971SOL    HW2 3914   4.474   1.695   2.066
  971SOL    HW3 3915   4.398   1.666   1.938
  971SOL    MW4 3916   4.465   1.702   1.980
  972SOL     OW 3917   0.017   1.978   1.911
  972SOL    HW2 3918  -0.063   2.027   1.927
  972SOL    HW3 3919  -0.003   1.888   1.938
  972SOL    MW4 3920   0.004   1.973   1.917
  973SOL     OW 3921   0.220   2.112   2.038
  973SOL    HW2 3922   0.228   2.199   1.998
  973SOL    HW3 3923   0.144   2.073   1.994
  973SOL    MW4 3924   0.211   2.118   2.027
  974SOL     OW 3925   0.234   2.337   1.884
  974SOL    HW2 3926   0.309   2.390   1.911
  974SOL    HW3 3927   0.158   2.384   1.919
  974SOL    MW4 3928   0.234   2.351   1.892
  975SOL     OW 3929   0.003   2.474   1.964
  975SOL    HW2 3930   0.010   2.470   2.060
  975SOL    HW3 3931   0.005   2.568   1.944
  975SOL    MW4 3932   0.004   2.486   1.974
  976SOL     OW 3933   0.015   2.736   1.889
  976SOL    HW2 3934  -0.074   2.765   1.909
  976SOL    HW3 3935   0.019   2.731   1.794
  976SOL    MW4 3936   0.004   2.739   1.879
  977SOL     OW 3937   0.232   2.871   1.990
  977SOL    HW2 3938   0.216   2.956   1.950
  977SOL    HW3 3939   0.169   2.813   1.949
  977SOL    MW4 3940   0.222   2.875   1.980
  978SOL     OW 3941   0.214   3.145   1.862
  978SOL    HW2 3942   0.297   3.179   1.896
  978SOL    HW3 3943   0.225   3.146   1.767
  978SOL    MW4 3944   0.227   3.150   1.854
  979SOL     OW 3945   4.466   3.232   1.968
  979SOL    HW2 3946   4.395   3.195   1.917
  979SOL    HW3 3947   4.544   3.185   1.939
  979SOL    MW4 3948   4.467   3.221   1.957
  980SOL     OW 3949   0.004   3.479   1.844
  980SOL    HW2 3950   0.088   3.516   1.869
  980SOL    HW3 3951  -0.001   3.396   1.891
  980SOL    MW4 3952   0.014   3.473   1.853
  981SOL     OW 3953   0.241   3.603   1.956
  981SOL    HW2 3954   0.231   3.589   2.050
  981SOL    HW3 3955   0.332   3.580   1.937
  981SOL    MW4 3956   0.251   3.598   1.966
  982SOL     OW 3957   0.241   3.856   1.813
  982SOL    HW2 3958   0.317   3.904   1.845
  982SOL    HW3 3959   0.242   3.774   1.863
  982SOL    MW4 3960   0.251   3.851   1.824
  983SOL     OW 3961   0.044   3.964   1.968
  983SOL    HW2 3962   0.042   4.058   1.947
  983SOL    HW3 3963   0.123   3.932   1.924
  983SOL    MW4 3964   0.054   3.972   1.959
  984SOL     OW 3965   0.019   4.260   1.883
  984SOL    HW2 3966  -0.043   4.315   1.932
  984SOL    HW3 3967   0.103   4.305   1.891
  984SOL    MW4 3968   0.022   4.273   1.891
  985SOL     OW 3969   0.260   4.387   1.939
  985SOL    HW2 3970   0.265   4.395   2.034
  985SOL    HW3 3971   0.235   4.475   1.909
  985SOL    MW4 3972   0.257   4.400   1.947
  986SOL     OW 3973   0.674   0.000   1.834
  986SOL    HW2 3974   0.665  -0.088   1.871
  986SOL    HW3 3975   0.657  -0.011   1.740
  986SOL    MW4 3976   0.671  -0.013   1.826
  987SOL     OW 3977   0.438   0.164   1.933
  987SOL    HW2 3978   0.424   0.257   1.915
  987SOL    HW3 3979   0.531   0.150   1.914
  987SOL    MW4 3980   0.449   0.174   1.928
  988SOL     OW 3981   0.428   0.437   1.859
  988SOL    HW2 3982   0.510   0.485   1.870
  988SOL    HW3 3983   0.410   0.443   1.765
  988SOL    MW4 3984   0.436   0.444   1.848
  989SOL     OW 3985   0.663   0.570   1.949
  989SOL    HW2 3986   0.644   0.535   2.036
  989SOL    HW3 3987   0.745   0.529   1.922
  989SOL    MW4 3988   0.671   0.560   1.957
  990SOL     OW 3989   0.685   0.837   1.840
  990SOL    HW2 3990   0.767   0.866   1.879
  990SOL    HW3 3991   0.676   0.746   1.869
  990SOL    MW4 3992   0.695   0.829   1.849
  991SOL     OW 3993   0.471   0.912   1.990
  991SOL    HW2 3994   0.467   1.006   1.974
  991SOL    HW3 3995   0.554   0.884   1.950
  991SOL    MW4 3996   0.481   0.920   1.982
  992SOL     OW 3997   0.421   1.174   1.919
  992SOL    HW2 3998   0.337   1.213   1.944
  992SOL    HW3 3999   0.420   1.176   1.823
  992SOL    MW4 4000   0.410   1.179   1.910
  993SOL     OW 4001   0.658   1.298   2.002
  993SOL    HW2 4002   0.672   1.305   2.096
  993SOL    HW3 4003   0.584   1.238   1.994
  993SOL    MW4 4004   0.650   1.291   2.013
  994SOL     OW 4005   0.602   1.540   1.867
  994SOL    HW2 4006   0.620   1.452   1.899
  994SOL    HW3 4007   0.624   1.536   1.774
  994SOL    MW4 4008   0.607   1.528   1.859
  995SOL     OW 4009   0.397   1.666   1.998
  995SOL    HW2 4010   0.440   1.664   2.083
  995SOL    HW3 4011   0.458   1.622   1.939
  995SOL    MW4 4012   0.411   1.660   2.001
  996SOL     OW 4013   0.395   1.954   1.894
  996SOL    HW2 4014   0.384   1.863   1.922
  996SOL    HW3 4015   0.333   2.004   1.948
  996SOL    MW4 4016   0.386   1.949   1.905
  997SOL     OW 4017   0.626   2.095   1.940
  997SOL    HW2 4018   0.644   2.082   2.033
  997SOL    HW3 4019   0.551   2.039   1.922
  997SOL    MW4 4020   0.619   2.086   1.950
  998SOL     OW 4021   0.686   2.353   1.847
  998SOL    HW2 4022   0.665   2.261   1.865
  998SOL    HW3 4023   0.681   2.361   1.752
  998SOL    MW4 4024   0.682   2.342   1.837
  999SOL     OW 4025   0.454   2.474   1.964
  999SOL    HW2 4026   0.474   2.447   2.053
  999SOL    HW3 4027   0.532   2.450   1.914
  999SOL    MW4 4028   0.467   2.467   1.969
 1000SOL     OW 4029   0.428   2.724   1.852
 1000SOL    HW2 4030   0.439   2.642   1.901
 1000SOL    HW3 4031   0.360   2.772   1.900
 1000SOL    MW4 4032   0.420   2.720   1.865
 1001SOL     OW 4033   0.684   2.804   1.935
 1001SOL    HW2 4034   0.670   2.807   2.030
 1001SOL    HW3 4035   0.598   2.784   1.899
 1001SOL    MW4 4036   0.671   2.802   1.943
 1002SOL     OW 4037   0.654   3.099   1.864
 1002SOL    HW2 4038   0.662   3.008   1.891
 1002SOL    HW3 4039   0.657   3.096   1.768
 1002SOL    MW4 4040   0.656   3.086   1.855
 1003SOL     OW 4041   0.455   3.235   1.998
 1003SOL    HW2 4042   0.476   3.326   1.977
 1003SOL    HW3 4043   0.524   3.184   1.955
 1003SOL    MW4 4044   0.467   3.240   1.990
 1004SOL     OW 4045   0.486   3.488   1.902
 1004SOL    HW2 4046   0.570   3.530   1.920
 1004SOL    HW3 4047   0.483   3.481   1.807
 1004SOL    MW4 4048   0.497   3.492   1.892
 1005SOL     OW 4049   0.730   3.590   1.966
 1005SOL    HW2 4050   0.802   3.536   1.931
 1005SOL    HW3 4051   0.733   3.670   1.914
 1005SOL    MW4 4052   0.740   3.593   1.954
 1006SOL     OW 4053   0.672   3.846   1.852
 1006SOL    HW2 4054   0.733   3.908   1.893
 1006SOL    HW3 4055   0.675   3.868   1.759
 1006SOL    MW4 4056   0.681   3.857   1.845
 1007SOL     OW 4057   0.438   3.989   1.929
 1007SOL    HW2 4058   0.458   4.079   1.906
 1007SOL    HW3 4059   0.516   3.940   1.905
 1007SOL    MW4 4060   0.451   3.994   1.923
 1008SOL     OW 4061   0.481   4.252   1.860
 1008SOL    HW2 4062   0.411   4.313   1.881
 1008SOL    HW3 4063   0.490   4.257   1.765
 1008SOL    MW4 4064   0.473   4.260   1.850
 1009SOL     OW 4065   0.686   4.418   1.941
 1009SOL    HW2 4066   0.765   4.369   1.921
 1009SOL    HW3 4067   0.614   4.359   1.916
 1009SOL    MW4 4068   0.687   4.404   1.935
 1010SOL     OW 4069   1.117   0.015   1.895
 1010SOL    HW2 4070   1.194   0.060   1.930
 1010SOL    HW3 4071   1.121  -0.073   1.933
 1010SOL    MW4 4072   1.127   0.010   1.905
 1011SOL     OW 4073   0.888   0.139   1.956
 1011SOL    HW2 4074   0.962   0.083   1.931
 1011SOL    HW3 4075   0.812   0.097   1.917
 1011SOL    MW4 4076   0.888   0.126   1.948
 1012SOL     OW 4077   0.884   0.425   1.884
 1012SOL    HW2 4078   0.958   0.467   1.928
 1012SOL    HW3 4079   0.879   0.337   1.922
 1012SOL    MW4 4080   0.893   0.419   1.895
 1013SOL     OW 4081   1.142   0.532   1.992
 1013SOL    HW2 4082   1.199   0.479   1.937
 1013SOL    HW3 4083   1.155   0.622   1.961
 1013SOL    MW4 4084   1.151   0.537   1.981
 1014SOL     OW 4085   1.105   0.790   1.856
 1014SOL    HW2 4086   1.182   0.844   1.875
 1014SOL    HW3 4087   1.032   0.836   1.897
 1014SOL    MW4 4088   1.106   0.803   1.864
 1015SOL     OW 4089   0.895   0.925   1.965
 1015SOL    HW2 4090   0.883   0.910   2.058
 1015SOL    HW3 4091   0.885   1.020   1.955
 1015SOL    MW4 4092   0.892   0.936   1.976
 1016SOL     OW 4093   0.871   1.197   1.871
 1016SOL    HW2 4094   0.804   1.244   1.921
 1016SOL    HW3 4095   0.859   1.227   1.781
 1016SOL    MW4 4096   0.861   1.207   1.866
 1017SOL     OW 4097   1.107   1.322   1.979
 1017SOL    HW2 4098   1.118   1.416   1.965
 1017SOL    HW3 4099   1.023   1.302   1.938
 1017SOL    MW4 4100   1.097   1.332   1.972
 1018SOL     OW 4101   1.067   1.589   1.867
 1018SOL    HW2 4102   0.983   1.624   1.894
 1018SOL    HW3 4103   1.077   1.617   1.776
 1018SOL    MW4 4104   1.057   1.597   1.858
 1019SOL     OW 4105   0.822   1.715   1.961
 1019SOL    HW2 4106   0.810   1.810   1.952
 1019SOL    HW3 4107   0.737   1.678   1.938
 1019SOL    MW4 4108   0.809   1.723   1.957
 1020SOL     OW 4109   0.870   1.993   1.882
 1020SOL    HW2 4110   0.779   2.019   1.896
 1020SOL    HW3 4111   0.879   1.988   1.786
 1020SOL    MW4 4112   0.860   1.996   1.871
 1021SOL     OW 4113   1.097   2.068   2.011
 1021SOL    HW2 4114   1.115   2.159   1.987
 1021SOL    HW3 4115   1.011   2.050   1.972
 1021SOL    MW4 4116   1.088   2.077   2.003
 1022SOL     OW 4117   1.134   2.333   1.914
 1022SOL    HW2 4118   1.218   2.375   1.936
 1022SOL    HW3 4119   1.138   2.319   1.820
 1022SOL    MW4 4120   1.146   2.337   1.905
 1023SOL     OW 4121   0.908   2.466   1.995
 1023SOL    HW2 4122   0.990   2.425   1.966
 1023SOL    HW3 4123   0.841   2.421   1.944
 1023SOL    MW4 4124   0.910   2.454   1.984
 1024SOL     OW 4125   0.942   2.717   1.872
 1024SOL    HW2 4126   0.943   2.634   1.919
 1024SOL    HW3 4127   0.853   2.751   1.885
 1024SOL    MW4 4128   0.930   2.711   1.880
 1025SOL     OW 4129   1.167   2.821   1.962
 1025SOL    HW2 4130   1.158   2.827   2.057
 1025SOL    HW3 4131   1.101   2.758   1.935
 1025SOL    MW4 4132   1.157   2.814   1.971
 1026SOL     OW 4133   1.118   3.069   1.837
 1026SOL    HW2 4134   1.044   3.112   1.880
 1026SOL    HW3 4135   1.138   2.994   1.894
 1026SOL    MW4 4136   1.111   3.064   1.850
 1027SOL     OW 4137   0.902   3.179   1.975
 1027SOL    HW2 4138   0.904   3.195   2.070
 1027SOL    HW3 4139   0.811   3.158   1.956
 1027SOL    MW4 4140   0.890   3.179   1.985
 1028SOL     OW 4141   0.962   3.437   1.908
 1028SOL    HW2 4142   0.926   3.353   1.936
 1028SOL    HW3 4143   0.943   3.442   1.815
 1028SOL    MW4 4144   0.955   3.427   1.900
 1029SOL     OW 4145   1.148   3.626   1.985
 1029SOL    HW2 4146   1.148   3.636   2.080
 1029SOL    HW3 4147   1.075   3.567   1.967
 1029SOL    MW4 4148   1.138   3.620   1.995
 1030SOL     OW 4149   1.135   3.901   1.896
 1030SOL    HW2 4150   1.135   3.815   1.938
 1030SOL    HW3 4151   1.129   3.882   1.803
 1030SOL    MW4 4152   1.134   3.887   1.890
 1031SOL     OW 4153   0.878   3.993   1.971
 1031SOL    HW2 4154   0.869   3.990   2.066
 1031SOL    HW3 4155   0.965   3.957   1.954
 1031SOL    MW4 4156   0.889   3.988   1.981
 1032SOL     OW 4157   0.908   4.269   1.878
 1032SOL    HW2 4158   0.979   4.328   1.903
 1032SOL    HW3 4159   0.922   4.191   1.930
 1032SOL    MW4 4160   0.919   4.267   1.888
 1033SOL     OW 4161   1.128   4.426   1.975
 1033SOL    HW2 4162   1.122   4.399   2.067
 1033SOL    HW3 4163   1.211   4.390   1.944
 1033SOL    MW4 4164   1.138   4.418   1.983
 1034SOL     OW 4165   1.581   0.020   1.860
 1034SOL    HW2 4166   1.649   0.067   1.908
 1034SOL    HW3 4167   1.580  -0.067   1.899
 1034SOL    MW4 4168   1.590   0.015   1.871
 1035SOL     OW 4169   1.352   0.136   1.964
 1035SOL    HW2 4170   1.375   0.145   2.057
 1035SOL    HW3 4171   1.429   0.096   1.924
 1035SOL    MW4 4172   1.365   0.132   1.971
 1036SOL     OW 4173   1.339   0.384   1.879
 1036SOL    HW2 4174   1.345   0.294   1.914
 1036SOL    HW3 4175   1.357   0.374   1.785
 1036SOL    MW4 4176   1.342   0.370   1.871
 1037SOL     OW 4177   1.560   0.527   1.957
 1037SOL    HW2 4178   1.637   0.481   1.925
 1037SOL    HW3 4179   1.487   0.469   1.938
 1037SOL    MW4 4180   1.561   0.513   1.950
 1038SOL     OW 4181   1.536   0.777   1.869
 1038SOL    HW2 4182   1.606   0.808   1.926
 1038SOL    HW3 4183   1.537   0.682   1.879
 1038SOL    MW4 4184   1.545   0.768   1.878
 1039SOL     OW 4185   1.323   0.954   1.929
 1039SOL    HW2 4186   1.314   0.957   2.025
 1039SOL    HW3 4187   1.409   0.916   1.914
 1039SOL    MW4 4188   1.333   0.950   1.940
 1040SOL     OW 4189   1.328   1.203   1.844
 1040SOL    HW2 4190   1.320   1.110   1.863
 1040SOL    HW3 4191   1.245   1.241   1.871
 1040SOL    MW4 4192   1.316   1.196   1.850
 1041SOL     OW 4193   1.539   1.317   1.994
 1041SOL    HW2 4194   1.544   1.401   1.949
 1041SOL    HW3 4195   1.455   1.280   1.966
 1041SOL    MW4 4196   1.528   1.323   1.984
 1042SOL     OW 4197   1.519   1.573   1.886
 1042SOL    HW2 4198   1.601   1.615   1.910
 1042SOL    HW3 4199   1.453   1.615   1.941
 1042SOL    MW4 4200   1.521   1.584   1.896
 1043SOL     OW 4201   1.294   1.714   1.996
 1043SOL    HW2 4202   1.281   1.724   2.090
 1043SOL    HW3 4203   1.215   1.671   1.965
 1043SOL    MW4 4204   1.282   1.710   2.004
 1044SOL     OW 4205   1.332   1.968   1.886
 1044SOL    HW2 4206   1.341   1.878   1.917
 1044SOL    HW3 4207   1.249   1.998   1.923
 1044SOL    MW4 4208   1.323   1.960   1.895
 1045SOL     OW 4209   1.588   2.071   2.005
 1045SOL    HW2 4210   1.580   2.159   1.970
 1045SOL    HW3 4211   1.514   2.023   1.967
 1045SOL    MW4 4212   1.577   2.076   1.996
 1046SOL     OW 4213   1.572   2.320   1.876
 1046SOL    HW2 4214   1.649   2.376   1.889
 1046SOL    HW3 4215   1.559   2.318   1.782
 1046SOL    MW4 4216   1.580   2.327   1.865
 1047SOL     OW 4217   1.370   2.466   1.974
 1047SOL    HW2 4218   1.370   2.557   1.944
 1047SOL    HW3 4219   1.452   2.429   1.941
 1047SOL    MW4 4220   1.381   2.473   1.966
 1048SOL     OW 4221   1.402   2.731   1.842
 1048SOL    HW2 4222   1.313   2.755   1.869
 1048SOL    HW3 4223   1.408   2.760   1.751
 1048SOL    MW4 4224   1.391   2.738   1.833
 1049SOL     OW 4225   1.614   2.859   1.963
 1049SOL    HW2 4226   1.693   2.818   1.929
 1049SOL    HW3 4227   1.543   2.813   1.919
 1049SOL    MW4 4228   1.615   2.848   1.953
 1050SOL     OW 4229   1.567   3.090   1.829
 1050SOL    HW2 4230   1.589   3.006   1.867
 1050SOL    HW3 4231   1.594   3.083   1.737
 1050SOL    MW4 4232   1.573   3.078   1.822
 1051SOL     OW 4233   1.339   3.202   1.952
 1051SOL    HW2 4234   1.405   3.163   1.895
 1051SOL    HW3 4235   1.258   3.155   1.931
 1051SOL    MW4 4236   1.337   3.191   1.941
 1052SOL     OW 4237   1.371   3.502   1.897
 1052SOL    HW2 4238   1.343   3.411   1.904
 1052SOL    HW3 4239   1.298   3.552   1.931
 1052SOL    MW4 4240   1.358   3.497   1.902
 1053SOL     OW 4241   1.597   3.609   1.990
 1053SOL    HW2 4242   1.598   3.594   2.084
 1053SOL    HW3 4243   1.511   3.578   1.962
 1053SOL    MW4 4244   1.586   3.603   1.999
 1054SOL     OW 4245   1.542   3.882   1.910
 1054SOL    HW2 4246   1.624   3.925   1.935
 1054SOL    HW3 4247   1.554   3.791   1.938
 1054SOL    MW4 4248   1.555   3.875   1.917
 1055SOL     OW 4249   1.337   4.049   2.028
 1055SOL    HW2 4250   1.417   4.004   2.002
 1055SOL    HW3 4251   1.267   3.998   1.988
 1055SOL    MW4 4252   1.338   4.036   2.019
 1056SOL     OW 4253   1.360   4.290   1.882
 1056SOL    HW2 4254   1.338   4.209   1.928
 1056SOL    HW3 4255   1.364   4.264   1.790
 1056SOL    MW4 4256   1.358   4.276   1.876
 1057SOL     OW 4257   1.580   4.431   1.954
 1057SOL    HW2 4258   1.581   4.420   2.049
 1057SOL    HW3 4259   1.501   4.385   1.925
 1057SOL    MW4 4260   1.570   4.423   1.963
 1058SOL     OW 4261   2.016   0.008   1.877
 1058SOL    HW2 4262   2.081   0.071   1.908
 1058SOL    HW3 4263   2.036  -0.072   1.926
 1058SOL    MW4 4264   2.028   0.006   1.888
 1059SOL     OW 4265   1.796   0.155   1.958
 1059SOL    HW2 4266   1.785   0.159   2.053
 1059SOL    HW3 4267   1.873   0.099   1.945
 1059SOL    MW4 4268   1.805   0.148   1.969
 1060SOL     OW 4269   1.778   0.398   1.843
 1060SOL    HW2 4270   1.770   0.308   1.874
 1060SOL    HW3 4271   1.779   0.392   1.748
 1060SOL    MW4 4272   1.777   0.386   1.835
 1061SOL     OW 4273   2.017   0.539   1.966
 1061SOL    HW2 4274   2.005   0.623   1.922
 1061SOL    HW3 4275   1.938   0.489   1.946
 1061SOL    MW4 4276   2.005   0.544   1.958
 1062SOL     OW 4277   2.010   0.803   1.882
 1062SOL    HW2 4278   2.089   0.828   1.930
 1062SOL    HW3 4279   2.037   0.802   1.790
 1062SOL    MW4 4280   2.024   0.806   1.876
 1063SOL     OW 4281   1.765   0.883   1.981
 1063SOL    HW2 4282   1.770   0.970   1.943
 1063SOL    HW3 4283   1.842   0.837   1.945
 1063SOL    MW4 4284   1.776   0.888   1.971
 1064SOL     OW 4285   1.764   1.157   1.918
 1064SOL    HW2 4286   1.688   1.207   1.948
 1064SOL    HW3 4287   1.763   1.168   1.823
 1064SOL    MW4 4288   1.754   1.165   1.909
 1065SOL     OW 4289   2.010   1.254   1.987
 1065SOL    HW2 4290   2.073   1.200   1.939
 1065SOL    HW3 4291   1.925   1.216   1.965
 1065SOL    MW4 4292   2.007   1.242   1.978
 1066SOL     OW 4293   2.024   1.498   1.880
 1066SOL    HW2 4294   2.022   1.410   1.918
 1066SOL    HW3 4295   2.037   1.483   1.786
 1066SOL    MW4 4296   2.026   1.484   1.873
 1067SOL     OW 4297   1.797   1.650   1.962
 1067SOL    HW2 4298   1.818   1.728   1.911
 1067SOL    HW3 4299   1.871   1.592   1.948
 1067SOL    MW4 4300   1.809   1.653   1.953
 1068SOL     OW 4301   1.771   1.915   1.855
 1068SOL    HW2 4302   1.705   1.982   1.869
 1068SOL    HW3 4303   1.796   1.923   1.763
 1068SOL    MW4 4304   1.766   1.925   1.845
 1069SOL     OW 4305   1.981   2.044   1.962
 1069SOL    HW2 4306   2.059   1.996   1.935
 1069SOL    HW3 4307   1.908   1.992   1.929
 1069SOL    MW4 4308   1.982   2.031   1.954
 1070SOL     OW 4309   2.012   2.303   1.872
 1070SOL    HW2 4310   2.101   2.335   1.889
 1070SOL    HW3 4311   2.006   2.222   1.923
 1070SOL    MW4 4312   2.023   2.296   1.881
 1071SOL     OW 4313   1.804   2.469   1.941
 1071SOL    HW2 4314   1.813   2.471   2.036
 1071SOL    HW3 4315   1.883   2.425   1.910
 1071SOL    MW4 4316   1.815   2.463   1.949
 1072SOL     OW 4317   1.824   2.730   1.845
 1072SOL    HW2 4318   1.802   2.640   1.871
 1072SOL    HW3 4319   1.793   2.737   1.755
 1072SOL    MW4 4320   1.817   2.719   1.837
 1073SOL     OW 4321   2.079   2.806   1.972
 1073SOL    HW2 4322   2.058   2.809   2.065
 1073SOL    HW3 4323   2.002   2.765   1.932
 1073SOL    MW4 4324   2.066   2.801   1.979
 1074SOL     OW 4325   2.025   3.039   1.824
 1074SOL    HW2 4326   1.952   3.085   1.864
 1074SOL    HW3 4327   2.042   2.965   1.882
 1074SOL    MW4 4328   2.018   3.035   1.837
 1075SOL     OW 4329   1.810   3.185   1.933
 1075SOL    HW2 4330   1.814   3.180   2.028
 1075SOL    HW3 4331   1.725   3.146   1.911
 1075SOL    MW4 4332   1.799   3.179   1.943
 1076SOL     OW 4333   1.816   3.470   1.888
 1076SOL    HW2 4334   1.818   3.383   1.929
 1076SOL    HW3 4335   1.736   3.510   1.923
 1076SOL    MW4 4336   1.805   3.464   1.898
 1077SOL     OW 4337   2.032   3.626   1.938
 1077SOL    HW2 4338   2.011   3.715   1.911
 1077SOL    HW3 4339   1.951   3.577   1.923
 1077SOL    MW4 4340   2.019   3.631   1.933
 1078SOL     OW 4341   1.979   3.893   1.861
 1078SOL    HW2 4342   2.052   3.947   1.890
 1078SOL    HW3 4343   1.996   3.877   1.769
 1078SOL    MW4 4344   1.991   3.898   1.853
 1079SOL     OW 4345   1.772   4.038   1.980
 1079SOL    HW2 4346   1.787   4.130   1.958
 1079SOL    HW3 4347   1.842   3.991   1.935
 1079SOL    MW4 4348   1.783   4.044   1.971
 1080SOL     OW 4349   1.807   4.292   1.899
 1080SOL    HW2 4350   1.719   4.327   1.916
 1080SOL    HW3 4351   1.812   4.286   1.804
 1080SOL    MW4 4352   1.796   4.296   1.889
 1081SOL     OW 4353   2.038   4.403   1.995
 1081SOL    HW2 4354   2.100   4.353   1.941
 1081SOL    HW3 4355   1.952   4.377   1.963
 1081SOL    MW4 4356   2.035   4.393   1.984
 1082SOL     OW 4357   2.439   4.663   1.897
 1082SOL    HW2 4358   2.515   4.706   1.936
 1082SOL    HW3 4359   2.451   4.570   1.917
 1082SOL    MW4 4360   2.450   4.656   1.905
 1083SOL     OW 4361   2.220   0.143   2.000
 1083SOL    HW2 4362   2.230   0.138   2.095
 1083SOL    HW3 4363   2.290   0.087   1.966
 1083SOL    MW4 4364   2.230   0.135   2.008
 1084SOL     OW 4365   2.253   0.403   1.873
 1084SOL    HW2 4366   2.235   0.319   1.915
 1084SOL    HW3 4367   2.188   0.463   1.911
 1084SOL    MW4 4368   2.242   0.400   1.884
 1085SOL     OW 4369   2.488   0.526   1.934
 1085SOL    HW2 4370   2.556   0.469   1.900
 1085SOL    HW3 4371   2.406   0.477   1.921
 1085SOL    MW4 4372   2.486   0.512   1.928
 1086SOL     OW 4373   2.483   0.793   1.892
 1086SOL    HW2 4374   2.495   0.699   1.904
 1086SOL    HW3 4375   2.475   0.804   1.797
 1086SOL    MW4 4376   2.483   0.782   1.881
 1087SOL     OW 4377   2.254   0.902   2.012
 1087SOL    HW2 4378   2.260   0.908   2.107
 1087SOL    HW3 4379   2.330   0.851   1.986
 1087SOL    MW4 4380   2.265   0.896   2.021
 1088SOL     OW 4381   2.227   1.133   1.868
 1088SOL    HW2 4382   2.304   1.184   1.891
 1088SOL    HW3 4383   2.224   1.062   1.932
 1088SOL    MW4 4384   2.236   1.130   1.879
 1089SOL     OW 4385   2.449   1.256   1.943
 1089SOL    HW2 4386   2.439   1.244   2.037
 1089SOL    HW3 4387   2.464   1.350   1.932
 1089SOL    MW4 4388   2.450   1.267   1.954
 1090SOL     OW 4389   2.515   1.544   1.906
 1090SOL    HW2 4390   2.439   1.600   1.922
 1090SOL    HW3 4391   2.523   1.541   1.811
 1090SOL    MW4 4392   2.506   1.551   1.895
 1091SOL     OW 4393   2.253   1.663   1.949
 1091SOL    HW2 4394   2.248   1.674   2.043
 1091SOL    HW3 4395   2.184   1.601   1.928
 1091SOL    MW4 4396   2.243   1.656   1.958
 1092SOL     OW 4397   2.220   1.920   1.884
 1092SOL    HW2 4398   2.301   1.970   1.899
 1092SOL    HW3 4399   2.245   1.829   1.900
 1092SOL    MW4 4400   2.234   1.915   1.888
 1093SOL     OW 4401   2.458   2.081   1.936
 1093SOL    HW2 4402   2.532   2.020   1.924
 1093SOL    HW3 4403   2.482   2.158   1.884
 1093SOL    MW4 4404   2.471   2.083   1.927
 1094SOL     OW 4405   2.479   2.334   1.829
 1094SOL    HW2 4406   2.545   2.367   1.889
 1094SOL    HW3 4407   2.396   2.346   1.874
 1094SOL    MW4 4408   2.477   2.340   1.843
 1095SOL     OW 4409   2.252   2.420   1.955
 1095SOL    HW2 4410   2.249   2.426   2.050
 1095SOL    HW3 4411   2.262   2.511   1.926
 1095SOL    MW4 4412   2.253   2.433   1.964
 1096SOL     OW 4413   2.318   2.697   1.862
 1096SOL    HW2 4414   2.239   2.734   1.900
 1096SOL    HW3 4415   2.305   2.704   1.767
 1096SOL    MW4 4416   2.306   2.703   1.854
 1097SOL     OW 4417   2.531   2.807   1.999
 1097SOL    HW2 4418   2.516   2.896   1.967
 1097SOL    HW3 4419   2.457   2.756   1.964
 1097SOL    MW4 4420   2.519   2.812   1.991
 1098SOL     OW 4421   2.463   3.071   1.908
 1098SOL    HW2 4422   2.378   3.106   1.936
 1098SOL    HW3 4423   2.462   3.079   1.813
 1098SOL    MW4 4424   2.451   3.077   1.899
 1099SOL     OW 4425   2.221   3.196   1.955
 1099SOL    HW2 4426   2.208   3.194   2.050
 1099SOL    HW3 4427   2.161   3.129   1.922
 1099SOL    MW4 4428   2.211   3.187   1.963
 1100SOL     OW 4429   2.252   3.472   1.851
 1100SOL    HW2 4430   2.219   3.387   1.880
 1100SOL    HW3 4431   2.178   3.532   1.865
 1100SOL    MW4 4432   2.237   3.469   1.857
 1101SOL     OW 4433   2.423   3.659   1.998
 1101SOL    HW2 4434   2.424   3.639   2.091
 1101SOL    HW3 4435   2.348   3.610   1.964
 1101SOL    MW4 4436   2.413   3.650   2.006
 1102SOL     OW 4437   2.466   3.900   1.860
 1102SOL    HW2 4438   2.383   3.942   1.881
 1102SOL    HW3 4439   2.470   3.823   1.917
 1102SOL    MW4 4440   2.456   3.896   1.870
 1103SOL     OW 4441   2.226   4.015   1.941
 1103SOL    HW2 4442   2.223   4.031   2.036
 1103SOL    HW3 4443   2.254   4.098   1.903
 1103SOL    MW4 4444   2.230   4.028   1.949
 1104SOL     OW 4445   2.253   4.269   1.843
 1104SOL    HW2 4446   2.343   4.295   1.860
 1104SOL    HW3 4447   2.248   4.258   1.748
 1104SOL    MW4 4448   2.264   4.271   1.833
 1105SOL     OW 4449   2.479   4.397   1.967
 1105SOL    HW2 4450   2.501   4.418   2.058
 1105SOL    HW3 4451   2.555   4.349   1.935
 1105SOL    MW4 4452   2.492   4.394   1.975
 1106SOL     OW 4453   2.851   4.659   1.875
 1106SOL    HW2 4454   2.932   4.703   1.900
 1106SOL    HW3 4455   2.869   4.566   1.891
 1106SOL    MW4 4456   2.864   4.652   1.880
 1107SOL     OW 4457   2.645   0.137   1.989
 1107SOL    HW2 4458   2.655   0.126   2.084
 1107SOL    HW3 4459   2.709   0.076   1.951
 1107SOL    MW4 4460   2.655   0.127   1.997
 1108SOL     OW 4461   2.710   0.377   1.851
 1108SOL    HW2 4462   2.769   0.427   1.909
 1108SOL    HW3 4463   2.686   0.300   1.902
 1108SOL    MW4 4464   2.715   0.373   1.865
 1109SOL     OW 4465   2.901   0.499   2.018
 1109SOL    HW2 4466   2.968   0.450   1.972
 1109SOL    HW3 4467   2.896   0.583   1.972
 1109SOL    MW4 4468   2.909   0.503   2.006
 1110SOL     OW 4469   2.916   0.743   1.885
 1110SOL    HW2 4470   3.002   0.776   1.910
 1110SOL    HW3 4471   2.854   0.809   1.918
 1110SOL    MW4 4472   2.919   0.756   1.893
 1111SOL     OW 4473   2.731   0.902   1.991
 1111SOL    HW2 4474   2.728   0.994   1.964
 1111SOL    HW3 4475   2.645   0.867   1.969
 1111SOL    MW4 4476   2.719   0.910   1.985
 1112SOL     OW 4477   2.705   1.147   1.872
 1112SOL    HW2 4478   2.619   1.186   1.886
 1112SOL    HW3 4479   2.724   1.163   1.780
 1112SOL    MW4 4480   2.696   1.155   1.862
 1113SOL     OW 4481   2.927   1.257   2.024
 1113SOL    HW2 4482   2.957   1.337   1.983
 1113SOL    HW3 4483   2.841   1.240   1.984
 1113SOL    MW4 4484   2.919   1.265   2.013
 1114SOL     OW 4485   2.942   1.509   1.898
 1114SOL    HW2 4486   3.024   1.550   1.926
 1114SOL    HW3 4487   2.924   1.548   1.812
 1114SOL    MW4 4488   2.951   1.519   1.890
 1115SOL     OW 4489   2.741   1.669   1.995
 1115SOL    HW2 4490   2.812   1.613   1.963
 1115SOL    HW3 4491   2.661   1.620   1.974
 1115SOL    MW4 4492   2.740   1.655   1.988
 1116SOL     OW 4493   2.690   1.937   1.884
 1116SOL    HW2 4494   2.764   1.991   1.912
 1116SOL    HW3 4495   2.710   1.849   1.915
 1116SOL    MW4 4496   2.702   1.933   1.892
 1117SOL     OW 4497   2.929   2.058   1.961
 1117SOL    HW2 4498   2.926   2.046   2.056
 1117SOL    HW3 4499   3.012   2.017   1.935
 1117SOL    MW4 4500   2.940   2.051   1.970
 1118SOL     OW 4501   2.917   2.306   1.866
 1118SOL    HW2 4502   2.989   2.355   1.908
 1118SOL    HW3 4503   2.924   2.218   1.903
 1118SOL    MW4 4504   2.928   2.301   1.877
 1119SOL     OW 4505   2.702   2.434   1.964
 1119SOL    HW2 4506   2.711   2.524   1.935
 1119SOL    HW3 4507   2.777   2.389   1.927
 1119SOL    MW4 4508   2.713   2.440   1.955
 1120SOL     OW 4509   2.742   2.699   1.863
 1120SOL    HW2 4510   2.658   2.729   1.898
 1120SOL    HW3 4511   2.731   2.702   1.768
 1120SOL    MW4 4512   2.730   2.703   1.855
 1121SOL     OW 4513   2.937   2.855   1.997
 1121SOL    HW2 4514   2.933   2.943   1.960
 1121SOL    HW3 4515   2.861   2.810   1.962
 1121SOL    MW4 4516   2.927   2.861   1.988
 1122SOL     OW 4517   2.912   3.109   1.865
 1122SOL    HW2 4518   2.985   3.169   1.881
 1122SOL    HW3 4519   2.836   3.155   1.899
 1122SOL    MW4 4520   2.912   3.123   1.871
 1123SOL     OW 4521   2.685   3.222   1.988
 1123SOL    HW2 4522   2.673   3.310   1.953
 1123SOL    HW3 4523   2.602   3.178   1.974
 1123SOL    MW4 4524   2.673   3.228   1.982
 1124SOL     OW 4525   2.658   3.471   1.908
 1124SOL    HW2 4526   2.726   3.513   1.961
 1124SOL    HW3 4527   2.578   3.519   1.930
 1124SOL    MW4 4528   2.657   3.483   1.918
 1125SOL     OW 4529   2.892   3.594   2.000
 1125SOL    HW2 4530   2.901   3.600   2.095
 1125SOL    HW3 4531   2.979   3.572   1.969
 1125SOL    MW4 4532   2.904   3.592   2.009
 1126SOL     OW 4533   2.913   3.860   1.902
 1126SOL    HW2 4534   2.919   3.768   1.926
 1126SOL    HW3 4535   2.915   3.860   1.806
 1126SOL    MW4 4536   2.914   3.848   1.892
 1127SOL     OW 4537   2.692   4.009   1.954
 1127SOL    HW2 4538   2.754   3.936   1.953
 1127SOL    HW3 4539   2.613   3.974   1.914
 1127SOL    MW4 4540   2.690   3.995   1.949
 1128SOL     OW 4541   2.694   4.251   1.845
 1128SOL    HW2 4542   2.692   4.162   1.881
 1128SOL    HW3 4543   2.694   4.238   1.750
 1128SOL    MW4 4544   2.693   4.237   1.837
 1129SOL     OW 4545   2.907   4.384   1.940
 1129SOL    HW2 4546   2.888   4.388   2.034
 1129SOL    HW3 4547   2.838   4.328   1.905
 1129SOL    MW4 4548   2.895   4.377   1.948
 1130SOL     OW 4549   3.346   4.667   1.908
 1130SOL    HW2 4550   3.352   4.580   1.948
 1130SOL    HW3 4551   3.358   4.651   1.814
 1130SOL    MW4 4552   3.348   4.653   1.901
 1131SOL     OW 4553   3.090   0.103   1.962
 1131SOL    HW2 4554   3.089   0.102   2.058
 1131SOL    HW3 4555   3.174   0.063   1.939
 1131SOL    MW4 4556   3.101   0.097   1.972
 1132SOL     OW 4557   3.106   0.374   1.895
 1132SOL    HW2 4558   3.123   0.287   1.929
 1132SOL    HW3 4559   3.123   0.368   1.801
 1132SOL    MW4 4560   3.110   0.362   1.887
 1133SOL     OW 4561   3.335   0.521   1.999
 1133SOL    HW2 4562   3.414   0.473   1.977
 1133SOL    HW3 4563   3.263   0.466   1.967
 1133SOL    MW4 4564   3.336   0.507   1.992
 1134SOL     OW 4565   3.378   0.760   1.856
 1134SOL    HW2 4566   3.295   0.796   1.887
 1134SOL    HW3 4567   3.379   0.670   1.888
 1134SOL    MW4 4568   3.367   0.753   1.864
 1135SOL     OW 4569   3.151   0.878   1.967
 1135SOL    HW2 4570   3.157   0.891   2.061
 1135SOL    HW3 4571   3.134   0.965   1.932
 1135SOL    MW4 4572   3.149   0.891   1.975
 1136SOL     OW 4573   3.121   1.136   1.864
 1136SOL    HW2 4574   3.202   1.167   1.905
 1136SOL    HW3 4575   3.052   1.161   1.926
 1136SOL    MW4 4576   3.122   1.143   1.878
 1137SOL     OW 4577   3.381   1.259   1.927
 1137SOL    HW2 4578   3.389   1.249   2.022
 1137SOL    HW3 4579   3.359   1.351   1.914
 1137SOL    MW4 4580   3.379   1.270   1.938
 1138SOL     OW 4581   3.351   1.540   1.860
 1138SOL    HW2 4582   3.432   1.579   1.896
 1138SOL    HW3 4583   3.281   1.591   1.900
 1138SOL    MW4 4584   3.353   1.552   1.870
 1139SOL     OW 4585   3.153   1.679   2.000
 1139SOL    HW2 4586   3.142   1.674   2.095
 1139SOL    HW3 4587   3.175   1.770   1.983
 1139SOL    MW4 4588   3.154   1.690   2.010
 1140SOL     OW 4589   3.163   1.939   1.878
 1140SOL    HW2 4590   3.241   1.985   1.910
 1140SOL    HW3 4591   3.174   1.937   1.783
 1140SOL    MW4 4592   3.175   1.945   1.869
 1141SOL     OW 4593   3.381   2.094   1.978
 1141SOL    HW2 4594   3.453   2.045   1.937
 1141SOL    HW3 4595   3.389   2.182   1.943
 1141SOL    MW4 4596   3.392   2.099   1.968
 1142SOL     OW 4597   3.382   2.356   1.889
 1142SOL    HW2 4598   3.319   2.416   1.927
 1142SOL    HW3 4599   3.366   2.361   1.794
 1142SOL    MW4 4600   3.372   2.365   1.881
 1143SOL     OW 4601   3.132   2.481   1.960
 1143SOL    HW2 4602   3.160   2.493   2.051
 1143SOL    HW3 4603   3.134   2.569   1.923
 1143SOL    MW4 4604   3.136   2.494   1.967
 1144SOL     OW 4605   3.161   2.743   1.874
 1144SOL    HW2 4606   3.086   2.778   1.922
 1144SOL    HW3 4607   3.137   2.752   1.782
 1144SOL    MW4 4608   3.148   2.749   1.868
 1145SOL     OW 4609   3.366   2.901   1.947
 1145SOL    HW2 4610   3.355   2.908   2.042
 1145SOL    HW3 4611   3.294   2.844   1.920
 1145SOL    MW4 4612   3.355   2.894   1.956
 1146SOL     OW 4613   3.359   3.149   1.845
 1146SOL    HW2 4614   3.442   3.183   1.878
 1146SOL    HW3 4615   3.351   3.062   1.885
 1146SOL    MW4 4616   3.369   3.142   1.855
 1147SOL     OW 4617   3.118   3.269   1.945
 1147SOL    HW2 4618   3.136   3.364   1.943
 1147SOL    HW3 4619   3.200   3.229   1.915
 1147SOL    MW4 4620   3.131   3.277   1.941
 1148SOL     OW 4621   3.134   3.536   1.881
 1148SOL    HW2 4622   3.215   3.578   1.911
 1148SOL    HW3 4623   3.149   3.523   1.787
 1148SOL    MW4 4624   3.147   3.540   1.872
 1149SOL     OW 4625   3.374   3.630   2.001
 1149SOL    HW2 4626   3.440   3.577   1.955
 1149SOL    HW3 4627   3.385   3.718   1.964
 1149SOL    MW4 4628   3.384   3.634   1.990
 1150SOL     OW 4629   3.383   3.888   1.918
 1150SOL    HW2 4630   3.308   3.933   1.957
 1150SOL    HW3 4631   3.354   3.863   1.831
 1150SOL    MW4 4632   3.370   3.891   1.912
 1151SOL     OW 4633   3.128   3.993   1.990
 1151SOL    HW2 4634   3.143   3.989   2.085
 1151SOL    HW3 4635   3.046   3.946   1.977
 1151SOL    MW4 4636   3.119   3.987   2.001
 1152SOL     OW 4637   3.156   4.256   1.892
 1152SOL    HW2 4638   3.142   4.166   1.922
 1152SOL    HW3 4639   3.077   4.303   1.917
 1152SOL    MW4 4640   3.144   4.250   1.899
 1153SOL     OW 4641   3.389   4.413   2.000
 1153SOL    HW2 4642   3.464   4.371   1.959
 1153SOL    HW3 4643   3.314   4.358   1.977
 1153SOL    MW4 4644   3.389   4.400   1.992
 1154SOL     OW 4645   3.802   4.653   1.875
 1154SOL    HW2 4646   3.794   4.567   1.916
 1154SOL    HW3 4647   3.737   4.708   1.921
 1154SOL    MW4 4648   3.792   4.649   1.887
 1155SOL     OW 4649   3.588   0.122   2.008
 1155SOL    HW2 4650   3.600   0.107   2.102
 1155SOL    HW3 4651   3.511   0.071   1.986
 1155SOL    MW4 4652   3.580   0.113   2.018
 1156SOL     OW 4653   3.569   0.386   1.951
 1156SOL    HW2 4654   3.562   0.293   1.973
 1156SOL    HW3 4655   3.591   0.387   1.858
 1156SOL    MW4 4656   3.571   0.374   1.942
 1157SOL     OW 4657   3.821   0.466   2.044
 1157SOL    HW2 4658   3.840   0.554   2.011
 1157SOL    HW3 4659   3.734   0.446   2.010
 1157SOL    MW4 4660   3.812   0.475   2.035
 1158SOL     OW 4661   3.849   0.723   1.923
 1158SOL    HW2 4662   3.775   0.779   1.945
 1158SOL    HW3 4663   3.845   0.713   1.828
 1158SOL    MW4 4664   3.839   0.729   1.913
 1159SOL     OW 4665   3.604   0.883   1.971
 1159SOL    HW2 4666   3.598   0.971   1.933
 1159SOL    HW3 4667   3.530   0.836   1.932
 1159SOL    MW4 4668   3.593   0.889   1.961
 1160SOL     OW 4669   3.616   1.136   1.848
 1160SOL    HW2 4670   3.532   1.181   1.858
 1160SOL    HW3 4671   3.623   1.119   1.754
 1160SOL    MW4 4672   3.606   1.140   1.837
 1161SOL     OW 4673   3.832   1.289   1.965
 1161SOL    HW2 4674   3.814   1.289   2.060
 1161SOL    HW3 4675   3.765   1.230   1.929
 1161SOL    MW4 4676   3.821   1.281   1.973
 1162SOL     OW 4677   3.830   1.532   1.838
 1162SOL    HW2 4678   3.903   1.567   1.889
 1162SOL    HW3 4679   3.818   1.443   1.871
 1162SOL    MW4 4680   3.838   1.525   1.849
 1163SOL     OW 4681   3.609   1.651   1.959
 1163SOL    HW2 4682   3.614   1.745   1.939
 1163SOL    HW3 4683   3.689   1.614   1.920
 1163SOL    MW4 4684   3.620   1.659   1.951
 1164SOL     OW 4685   3.570   1.918   1.904
 1164SOL    HW2 4686   3.633   1.971   1.952
 1164SOL    HW3 4687   3.591   1.932   1.812
 1164SOL    MW4 4688   3.581   1.927   1.898
 1165SOL     OW 4689   3.802   2.035   1.992
 1165SOL    HW2 4690   3.871   1.983   1.952
 1165SOL    HW3 4691   3.817   2.124   1.961
 1165SOL    MW4 4692   3.813   2.040   1.983
 1166SOL     OW 4693   3.817   2.315   1.901
 1166SOL    HW2 4694   3.897   2.361   1.928
 1166SOL    HW3 4695   3.746   2.374   1.928
 1166SOL    MW4 4696   3.818   2.329   1.908
 1167SOL     OW 4697   3.611   2.488   1.949
 1167SOL    HW2 4698   3.602   2.579   1.921
 1167SOL    HW3 4699   3.534   2.444   1.914
 1167SOL    MW4 4700   3.600   2.494   1.941
 1168SOL     OW 4701   3.594   2.740   1.843
 1168SOL    HW2 4702   3.671   2.768   1.893
 1168SOL    HW3 4703   3.525   2.801   1.871
 1168SOL    MW4 4704   3.595   2.752   1.854
 1169SOL     OW 4705   3.791   2.859   1.983
 1169SOL    HW2 4706   3.794   2.875   2.077
 1169SOL    HW3 4707   3.767   2.943   1.945
 1169SOL    MW4 4708   3.789   2.872   1.991
 1170SOL     OW 4709   3.795   3.092   1.835
 1170SOL    HW2 4710   3.715   3.139   1.860
 1170SOL    HW3 4711   3.791   3.089   1.739
 1170SOL    MW4 4712   3.784   3.098   1.825
 1171SOL     OW 4713   3.597   3.265   1.924
 1171SOL    HW2 4714   3.621   3.269   2.017
 1171SOL    HW3 4715   3.592   3.357   1.897
 1171SOL    MW4 4716   3.600   3.278   1.933
 1172SOL     OW 4717   3.589   3.523   1.852
 1172SOL    HW2 4718   3.675   3.553   1.883
 1172SOL    HW3 4719   3.598   3.523   1.756
 1172SOL    MW4 4720   3.602   3.527   1.843
 1173SOL     OW 4721   3.834   3.634   1.947
 1173SOL    HW2 4722   3.921   3.597   1.934
 1173SOL    HW3 4723   3.841   3.724   1.916
 1173SOL    MW4 4724   3.846   3.641   1.941
 1174SOL     OW 4725   3.844   3.907   1.877
 1174SOL    HW2 4726   3.769   3.947   1.920
 1174SOL    HW3 4727   3.817   3.896   1.786
 1174SOL    MW4 4728   3.831   3.911   1.871
 1175SOL     OW 4729   3.617   4.035   1.963
 1175SOL    HW2 4730   3.615   4.035   2.059
 1175SOL    HW3 4731   3.552   3.970   1.937
 1175SOL    MW4 4732   3.609   4.026   1.972
 1176SOL     OW 4733   3.604   4.292   1.876
 1176SOL    HW2 4734   3.689   4.334   1.882
 1176SOL    HW3 4735   3.615   4.207   1.917
 1176SOL    MW4 4736   3.616   4.287   1.882
 1177SOL     OW 4737   3.829   4.390   1.967
 1177SOL    HW2 4738   3.822   4.361   2.058
 1177SOL    HW3 4739   3.897   4.334   1.930
 1177SOL    MW4 4740   3.837   4.379   1.975
 1178SOL     OW 4741   4.239   4.640   1.875
 1178SOL    HW2 4742   4.167   4.677   1.926
 1178SOL    HW3 4743   4.318   4.680   1.912
 1178SOL    MW4 4744   4.240   4.650   1.887
 1179SOL     OW 4745   4.028   0.094   2.011
 1179SOL    HW2 4746   4.008   0.084   2.104
 1179SOL    HW3 4747   3.959   0.044   1.966
 1179SOL    MW4 4748   4.016   0.086   2.017
 1180SOL     OW 4749   4.017   0.344   1.892
 1180SOL    HW2 4750   4.021   0.260   1.939
 1180SOL    HW3 4751   3.951   0.394   1.939
 1180SOL    MW4 4752   4.009   0.340   1.905
 1181SOL     OW 4753   4.278   0.466   1.933
 1181SOL    HW2 4754   4.260   0.456   2.027
 1181SOL    HW3 4755   4.197   0.439   1.890
 1181SOL    MW4 4756   4.265   0.461   1.940
 1182SOL     OW 4757   4.290   0.746   1.895
 1182SOL    HW2 4758   4.260   0.657   1.913
 1182SOL    HW3 4759   4.302   0.747   1.800
 1182SOL    MW4 4760   4.287   0.734   1.885
 1183SOL     OW 4761   4.072   0.895   1.929
 1183SOL    HW2 4762   4.153   0.849   1.909
 1183SOL    HW3 4763   4.003   0.829   1.921
 1183SOL    MW4 4764   4.073   0.880   1.926
 1184SOL     OW 4765   4.049   1.153   1.842
 1184SOL    HW2 4766   4.050   1.063   1.872
 1184SOL    HW3 4767   3.986   1.197   1.898
 1184SOL    MW4 4768   4.041   1.147   1.853
 1185SOL     OW 4769   4.269   1.296   1.927
 1185SOL    HW2 4770   4.273   1.289   2.022
 1185SOL    HW3 4771   4.194   1.243   1.902
 1185SOL    MW4 4772   4.260   1.288   1.936
 1186SOL     OW 4773   4.259   1.568   1.874
 1186SOL    HW2 4774   4.248   1.480   1.912
 1186SOL    HW3 4775   4.259   1.554   1.779
 1186SOL    MW4 4776   4.257   1.554   1.867
 1187SOL     OW 4777   4.029   1.680   1.988
 1187SOL    HW2 4778   4.045   1.664   2.081
 1187SOL    HW3 4779   4.111   1.656   1.945
 1187SOL    MW4 4780   4.042   1.675   1.995
 1188SOL     OW 4781   4.036   1.934   1.861
 1188SOL    HW2 4782   4.028   1.852   1.910
 1188SOL    HW3 4783   4.032   1.908   1.769
 1188SOL    MW4 4784   4.034   1.919   1.855
 1189SOL     OW 4785   4.270   2.080   1.932
 1189SOL    HW2 4786   4.258   2.077   2.027
 1189SOL    HW3 4787   4.193   2.034   1.898
 1189SOL    MW4 4788   4.258   2.073   1.940
 1190SOL     OW 4789   4.245   2.341   1.861
 1190SOL    HW2 4790   4.249   2.249   1.888
 1190SOL    HW3 4791   4.323   2.380   1.901
 1190SOL    MW4 4792   4.256   2.334   1.870
 1191SOL     OW 4793   4.032   2.464   1.982
 1191SOL    HW2 4794   4.043   2.453   2.076
 1191SOL    HW3 4795   4.106   2.416   1.944
 1191SOL    MW4 4796   4.043   2.456   1.989
 1192SOL     OW 4797   4.012   2.726   1.902
 1192SOL    HW2 4798   4.001   2.640   1.942
 1192SOL    HW3 4799   3.936   2.776   1.930
 1192SOL    MW4 4800   4.001   2.721   1.911
 1193SOL     OW 4801   4.265   2.832   1.957
 1193SOL    HW2 4802   4.277   2.839   2.051
 1193SOL    HW3 4803   4.183   2.784   1.947
 1193SOL    MW4 4804   4.256   2.826   1.968
 1194SOL     OW 4805   4.266   3.087   1.831
 1194SOL    HW2 4806   4.183   3.123   1.862
 1194SOL    HW3 4807   4.265   2.996   1.859
 1194SOL    MW4 4808   4.255   3.080   1.839
 1195SOL     OW 4809   4.033   3.203   1.959
 1195SOL    HW2 4810   4.031   3.206   2.055
 1195SOL    HW3 4811   3.955   3.154   1.935
 1195SOL    MW4 4812   4.023   3.197   1.968
 1196SOL     OW 4813   4.079   3.506   1.900
 1196SOL    HW2 4814   4.148   3.551   1.949
 1196SOL    HW3 4815   4.099   3.413   1.912
 1196SOL    MW4 4816   4.091   3.500   1.908
 1197SOL     OW 4817   4.295   3.638   2.009
 1197SOL    HW2 4818   4.283   3.724   1.968
 1197SOL    HW3 4819   4.360   3.595   1.953
 1197SOL    MW4 4820   4.302   3.644   1.996
 1198SOL     OW 4821   4.301   3.875   1.869
 1198SOL    HW2 4822   4.383   3.906   1.908
 1198SOL    HW3 4823   4.319   3.873   1.775
 1198SOL    MW4 4824   4.315   3.879   1.861
 1199SOL     OW 4825   4.085   4.007   1.935
 1199SOL    HW2 4826   4.156   3.947   1.911
 1199SOL    HW3 4827   4.005   3.964   1.903
 1199SOL    MW4 4828   4.084   3.993   1.928
 1200SOL     OW 4829   4.041   4.265   1.824
 1200SOL    HW2 4830   4.110   4.320   1.861
 1200SOL    HW3 4831   4.065   4.176   1.851
 1200SOL    MW4 4832   4.054   4.260   1.832
 1201SOL     OW 4833   4.256   4.380   1.948
 1201SOL    HW2 4834   4.243   4.368   2.042
 1201SOL    HW3 4835   4.257   4.475   1.936
 1201SOL    MW4 4836   4.255   4.391   1.959
 1202SOL     OW 4837   0.217   4.636   2.321
 1202SOL    HW2 4838   0.238   4.628   2.414
 1202SOL    HW3 4839   0.280   4.700   2.287
 1202SOL    MW4 4840   0.228   4.643   2.329
 1203SOL     OW 4841   4.472   0.091   2.257
 1203SOL    HW2 4842   4.558   0.050   2.272
 1203SOL    HW3 4843   4.469   0.106   2.163
 1203SOL    MW4 4844   4.483   0.087   2.247
 1204SOL     OW 4845   4.467   0.342   2.380
 1204SOL    HW2 4846   4.531   0.400   2.338
 1204SOL    HW3 4847   4.484   0.256   2.343
 1204SOL    MW4 4848   4.477   0.339   2.370
 1205SOL     OW 4849   0.186   0.474   2.280
 1205SOL    HW2 4850   0.263   0.422   2.304
 1205SOL    HW3 4851   0.185   0.472   2.185
 1205SOL    MW4 4852   0.196   0.467   2.271
 1206SOL     OW 4853   0.230   0.754   2.362
 1206SOL    HW2 4854   0.224   0.747   2.457
 1206SOL    HW3 4855   0.216   0.664   2.330
 1206SOL    MW4 4856   0.227   0.741   2.370
 1207SOL     OW 4857   4.478   0.836   2.253
 1207SOL    HW2 4858   4.559   0.816   2.300
 1207SOL    HW3 4859   4.507   0.878   2.172
 1207SOL    MW4 4860   4.493   0.839   2.249
 1208SOL     OW 4861   0.008   1.130   2.328
 1208SOL    HW2 4862   0.006   1.141   2.423
 1208SOL    HW3 4863   0.004   1.036   2.314
 1208SOL    MW4 4864   0.007   1.119   2.339
 1209SOL     OW 4865   0.223   1.293   2.257
 1209SOL    HW2 4866   0.154   1.237   2.291
 1209SOL    HW3 4867   0.209   1.295   2.163
 1209SOL    MW4 4868   0.212   1.286   2.249
 1210SOL     OW 4869   0.232   1.543   2.358
 1210SOL    HW2 4870   0.259   1.524   2.448
 1210SOL    HW3 4871   0.228   1.457   2.315
 1210SOL    MW4 4872   0.235   1.529   2.364
 1211SOL     OW 4873   0.013   1.663   2.240
 1211SOL    HW2 4874   0.002   1.734   2.304
 1211SOL    HW3 4875   0.093   1.618   2.267
 1211SOL    MW4 4876   0.022   1.667   2.252
 1212SOL     OW 4877   4.439   1.939   2.377
 1212SOL    HW2 4878   4.367   1.982   2.330
 1212SOL    HW3 4879   4.514   1.998   2.365
 1212SOL    MW4 4880   4.439   1.953   2.369
 1213SOL     OW 4881   0.180   2.074   2.319
 1213SOL    HW2 4882   0.265   2.033   2.335
 1213SOL    HW3 4883   0.176   2.083   2.224
 1213SOL    MW4 4884   0.191   2.070   2.308
 1214SOL     OW 4885   0.226   2.349   2.380
 1214SOL    HW2 4886   0.242   2.349   2.475
 1214SOL    HW3 4887   0.204   2.259   2.360
 1214SOL    MW4 4888   0.225   2.337   2.390
 1215SOL     OW 4889   0.015   2.463   2.230
 1215SOL    HW2 4890  -0.004   2.545   2.276
 1215SOL    HW3 4891   0.089   2.425   2.276
 1215SOL    MW4 4892   0.022   2.469   2.242
 1216SOL     OW 4893   4.462   2.706   2.349
 1216SOL    HW2 4894   4.459   2.693   2.444
 1216SOL    HW3 4895   4.552   2.734   2.332
 1216SOL    MW4 4896   4.474   2.708   2.359
 1217SOL     OW 4897   0.212   2.816   2.272
 1217SOL    HW2 4898   0.301   2.781   2.283
 1217SOL    HW3 4899   0.205   2.834   2.178
 1217SOL    MW4 4900   0.223   2.814   2.261
 1218SOL     OW 4901   0.196   3.087   2.363
 1218SOL    HW2 4902   0.125   3.126   2.311
 1218SOL    HW3 4903   0.198   2.995   2.335
 1218SOL    MW4 4904   0.187   3.080   2.353
 1219SOL     OW 4905   4.464   3.221   2.263
 1219SOL    HW2 4906   4.455   3.312   2.293
 1219SOL    HW3 4907   4.457   3.226   2.168
 1219SOL    MW4 4908   4.462   3.234   2.255
 1220SOL     OW 4909   4.459   3.464   2.368
 1220SOL    HW2 4910   4.460   3.463   2.463
 1220SOL    HW3 4911   4.375   3.504   2.344
 1220SOL    MW4 4912   4.448   3.469   2.377
 1221SOL     OW 4913   0.220   3.559   2.254
 1221SOL    HW2 4914   0.293   3.505   2.284
 1221SOL    HW3 4915   0.142   3.513   2.287
 1221SOL    MW4 4916   0.219   3.546   2.263
 1222SOL     OW 4917   0.260   3.832   2.330
 1222SOL    HW2 4918   0.173   3.869   2.316
 1222SOL    HW3 4919   0.252   3.740   2.307
 1222SOL    MW4 4920   0.247   3.825   2.325
 1223SOL     OW 4921   0.018   3.942   2.239
 1223SOL    HW2 4922   0.010   4.034   2.261
 1223SOL    HW3 4923   0.008   3.939   2.143
 1223SOL    MW4 4924   0.016   3.954   2.229
 1224SOL     OW 4925   0.010   4.222   2.299
 1224SOL    HW2 4926   0.014   4.214   2.394
 1224SOL    HW3 4927   0.087   4.273   2.275
 1224SOL    MW4 4928   0.021   4.227   2.308
 1225SOL     OW 4929   0.218   4.380   2.210
 1225SOL    HW2 4930   0.301   4.339   2.235
 1225SOL    HW3 4931   0.224   4.469   2.243
 1225SOL    MW4 4932   0.229   4.386   2.218
 1226SOL     OW 4933   0.651   4.640   2.302
 1226SOL    HW2 4934   0.655   4.643   2.398
 1226SOL    HW3 4935   0.725   4.693   2.273
 1226SOL    MW4 4936   0.661   4.647   2.311
 1227SOL     OW 4937   0.422   0.092   2.202
 1227SOL    HW2 4938   0.504   0.049   2.227
 1227SOL    HW3 4939   0.433   0.111   2.109
 1227SOL    MW4 4940   0.435   0.089   2.193
 1228SOL     OW 4941   0.430   0.332   2.341
 1228SOL    HW2 4942   0.440   0.325   2.436
 1228SOL    HW3 4943   0.428   0.241   2.310
 1228SOL    MW4 4944   0.431   0.319   2.350
 1229SOL     OW 4945   0.620   0.493   2.205
 1229SOL    HW2 4946   0.637   0.578   2.245
 1229SOL    HW3 4947   0.553   0.453   2.260
 1229SOL    MW4 4948   0.613   0.499   2.218
 1230SOL     OW 4949   0.670   0.718   2.338
 1230SOL    HW2 4950   0.678   0.738   2.432
 1230SOL    HW3 4951   0.588   0.759   2.312
 1230SOL    MW4 4952   0.660   0.726   2.347
 1231SOL     OW 4953   0.458   0.876   2.269
 1231SOL    HW2 4954   0.380   0.835   2.306
 1231SOL    HW3 4955   0.441   0.881   2.175
 1231SOL    MW4 4956   0.446   0.871   2.262
 1232SOL     OW 4957   0.458   1.138   2.351
 1232SOL    HW2 4958   0.461   1.053   2.308
 1232SOL    HW3 4959   0.373   1.175   2.324
 1232SOL    MW4 4960   0.447   1.132   2.341
 1233SOL     OW 4961   0.697   1.261   2.276
 1233SOL    HW2 4962   0.698   1.351   2.307
 1233SOL    HW3 4963   0.608   1.231   2.289
 1233SOL    MW4 4964   0.686   1.269   2.282
 1234SOL     OW 4965   0.694   1.523   2.339
 1234SOL    HW2 4966   0.708   1.521   2.434
 1234SOL    HW3 4967   0.763   1.580   2.306
 1234SOL    MW4 4968   0.705   1.530   2.347
 1235SOL     OW 4969   0.466   1.681   2.282
 1235SOL    HW2 4970   0.542   1.626   2.301
 1235SOL    HW3 4971   0.393   1.638   2.326
 1235SOL    MW4 4972   0.467   1.668   2.290
 1236SOL     OW 4973   0.420   1.946   2.354
 1236SOL    HW2 4974   0.478   1.994   2.294
 1236SOL    HW3 4975   0.443   1.854   2.340
 1236SOL    MW4 4976   0.431   1.941   2.344
 1237SOL     OW 4977   0.658   2.059   2.222
 1237SOL    HW2 4978   0.729   2.006   2.258
 1237SOL    HW3 4979   0.672   2.146   2.260
 1237SOL    MW4 4980   0.669   2.064   2.232
 1238SOL     OW 4981   0.669   2.305   2.351
 1238SOL    HW2 4982   0.666   2.295   2.446
 1238SOL    HW3 4983   0.747   2.358   2.335
 1238SOL    MW4 4984   0.679   2.311   2.361
 1239SOL     OW 4985   0.458   2.445   2.253
 1239SOL    HW2 4986   0.523   2.391   2.298
 1239SOL    HW3 4987   0.376   2.429   2.300
 1239SOL    MW4 4988   0.456   2.436   2.265
 1240SOL     OW 4989   0.464   2.708   2.347
 1240SOL    HW2 4990   0.451   2.704   2.442
 1240SOL    HW3 4991   0.459   2.617   2.318
 1240SOL    MW4 4992   0.462   2.696   2.356
 1241SOL     OW 4993   0.682   2.836   2.212
 1241SOL    HW2 4994   0.765   2.793   2.231
 1241SOL    HW3 4995   0.616   2.782   2.256
 1241SOL    MW4 4996   0.684   2.824   2.220
 1242SOL     OW 4997   0.681   3.111   2.334
 1242SOL    HW2 4998   0.595   3.135   2.301
 1242SOL    HW3 4999   0.692   3.019   2.310
 1242SOL    MW4 5000   0.671   3.102   2.326
 1243SOL     OW 5001   0.436   3.210   2.262
 1243SOL    HW2 5002   0.361   3.163   2.300
 1243SOL    HW3 5003   0.420   3.210   2.168
 1243SOL    MW4 5004   0.424   3.204   2.255
 1244SOL     OW 5005   0.470   3.487   2.333
 1244SOL    HW2 5006   0.540   3.537   2.291
 1244SOL    HW3 5007   0.476   3.399   2.294
 1244SOL    MW4 5008   0.480   3.482   2.322
 1245SOL     OW 5009   0.714   3.566   2.237
 1245SOL    HW2 5010   0.702   3.658   2.258
 1245SOL    HW3 5011   0.710   3.561   2.142
 1245SOL    MW4 5012   0.712   3.577   2.227
 1246SOL     OW 5013   0.692   3.843   2.309
 1246SOL    HW2 5014   0.694   3.862   2.403
 1246SOL    HW3 5015   0.623   3.899   2.275
 1246SOL    MW4 5016   0.683   3.853   2.317
 1247SOL     OW 5017   0.462   3.995   2.222
 1247SOL    HW2 5018   0.400   3.939   2.269
 1247SOL    HW3 5019   0.426   4.003   2.134
 1247SOL    MW4 5020   0.449   3.989   2.217
 1248SOL     OW 5021   0.465   4.258   2.296
 1248SOL    HW2 5022   0.546   4.301   2.268
 1248SOL    HW3 5023   0.484   4.164   2.290
 1248SOL    MW4 5024   0.478   4.251   2.292
 1249SOL     OW 5025   0.703   4.387   2.215
 1249SOL    HW2 5026   0.681   4.473   2.251
 1249SOL    HW3 5027   0.699   4.398   2.120
 1249SOL    MW4 5028   0.700   4.400   2.207
 1250SOL     OW 5029   1.123   0.012   2.345
 1250SOL    HW2 5030   1.106  -0.009   2.436
 1250SOL    HW3 5031   1.039   0.047   2.313
 1250SOL    MW4 5032   1.109   0.014   2.352
 1251SOL     OW 5033   0.875   0.102   2.246
 1251SOL    HW2 5034   0.850   0.190   2.272
 1251SOL    HW3 5035   0.886   0.107   2.151
 1251SOL    MW4 5036   0.873   0.114   2.237
 1252SOL     OW 5037   0.842   0.353   2.343
 1252SOL    HW2 5038   0.925   0.396   2.324
 1252SOL    HW3 5039   0.777   0.402   2.292
 1252SOL    MW4 5040   0.845   0.365   2.334
 1253SOL     OW 5041   1.089   0.484   2.269
 1253SOL    HW2 5042   1.170   0.452   2.309
 1253SOL    HW3 5043   1.112   0.498   2.177
 1253SOL    MW4 5044   1.103   0.482   2.262
 1254SOL     OW 5045   1.157   0.741   2.293
 1254SOL    HW2 5046   1.075   0.765   2.251
 1254SOL    HW3 5047   1.158   0.645   2.289
 1254SOL    MW4 5048   1.146   0.732   2.287
 1255SOL     OW 5049   0.899   0.828   2.222
 1255SOL    HW2 5050   0.898   0.918   2.256
 1255SOL    HW3 5051   0.818   0.789   2.253
 1255SOL    MW4 5052   0.888   0.835   2.231
 1256SOL     OW 5053   0.905   1.069   2.331
 1256SOL    HW2 5054   0.985   1.110   2.299
 1256SOL    HW3 5055   0.836   1.132   2.308
 1256SOL    MW4 5056   0.906   1.083   2.324
 1257SOL     OW 5057   1.116   1.234   2.244
 1257SOL    HW2 5058   1.205   1.230   2.280
 1257SOL    HW3 5059   1.128   1.262   2.153
 1257SOL    MW4 5060   1.129   1.237   2.236
 1258SOL     OW 5061   1.090   1.493   2.360
 1258SOL    HW2 5062   1.027   1.540   2.306
 1258SOL    HW3 5063   1.068   1.401   2.348
 1258SOL    MW4 5064   1.079   1.487   2.351
 1259SOL     OW 5065   0.910   1.672   2.232
 1259SOL    HW2 5066   0.926   1.763   2.259
 1259SOL    HW3 5067   0.879   1.679   2.141
 1259SOL    MW4 5068   0.908   1.685   2.223
 1260SOL     OW 5069   0.907   1.964   2.336
 1260SOL    HW2 5070   0.907   1.956   2.431
 1260SOL    HW3 5071   0.986   2.015   2.316
 1260SOL    MW4 5072   0.918   1.970   2.346
 1261SOL     OW 5073   1.145   2.089   2.289
 1261SOL    HW2 5074   1.226   2.039   2.304
 1261SOL    HW3 5075   1.131   2.084   2.195
 1261SOL    MW4 5076   1.154   2.081   2.279
 1262SOL     OW 5077   1.111   2.348   2.375
 1262SOL    HW2 5078   1.188   2.393   2.341
 1262SOL    HW3 5079   1.125   2.256   2.353
 1262SOL    MW4 5080   1.123   2.342   2.367
 1263SOL     OW 5081   0.879   2.467   2.265
 1263SOL    HW2 5082   0.952   2.412   2.296
 1263SOL    HW3 5083   0.876   2.449   2.170
 1263SOL    MW4 5084   0.888   2.457   2.256
 1264SOL     OW 5085   0.907   2.733   2.345
 1264SOL    HW2 5086   0.881   2.727   2.437
 1264SOL    HW3 5087   0.910   2.642   2.316
 1264SOL    MW4 5088   0.904   2.720   2.354
 1265SOL     OW 5089   1.153   2.843   2.236
 1265SOL    HW2 5090   1.223   2.798   2.284
 1265SOL    HW3 5091   1.072   2.815   2.278
 1265SOL    MW4 5092   1.152   2.834   2.248
 1266SOL     OW 5093   1.123   3.104   2.340
 1266SOL    HW2 5094   1.051   3.149   2.295
 1266SOL    HW3 5095   1.120   3.015   2.306
 1266SOL    MW4 5096   1.113   3.099   2.329
 1267SOL     OW 5097   0.901   3.237   2.240
 1267SOL    HW2 5098   0.920   3.317   2.290
 1267SOL    HW3 5099   0.820   3.204   2.279
 1267SOL    MW4 5100   0.893   3.243   2.252
 1268SOL     OW 5101   0.951   3.474   2.361
 1268SOL    HW2 5102   0.929   3.457   2.452
 1268SOL    HW3 5103   0.876   3.523   2.327
 1268SOL    MW4 5104   0.938   3.478   2.368
 1269SOL     OW 5105   1.146   3.642   2.258
 1269SOL    HW2 5106   1.222   3.594   2.289
 1269SOL    HW3 5107   1.071   3.589   2.286
 1269SOL    MW4 5108   1.146   3.629   2.266
 1270SOL     OW 5109   1.146   3.901   2.336
 1270SOL    HW2 5110   1.227   3.941   2.303
 1270SOL    HW3 5111   1.147   3.812   2.302
 1270SOL    MW4 5112   1.156   3.895   2.327
 1271SOL     OW 5113   0.896   4.003   2.230
 1271SOL    HW2 5114   0.970   3.964   2.276
 1271SOL    HW3 5115   0.820   3.951   2.257
 1271SOL    MW4 5116   0.896   3.991   2.239
 1272SOL     OW 5117   0.900   4.262   2.348
 1272SOL    HW2 5118   0.902   4.173   2.312
 1272SOL    HW3 5119   0.829   4.305   2.300
 1272SOL    MW4 5120   0.890   4.256   2.337
 1273SOL     OW 5121   1.122   4.412   2.256
 1273SOL    HW2 5122   1.061   4.374   2.319
 1273SOL    HW3 5123   1.128   4.504   2.281
 1273SOL    MW4 5124   1.115   4.419   2.267
 1274SOL     OW 5125   1.588   4.665   2.345
 1274SOL    HW2 5126   1.650   4.724   2.302
 1274SOL    HW3 5127   1.502   4.703   2.328
 1274SOL    MW4 5128   1.585   4.678   2.337
 1275SOL     OW 5129   1.366   0.148   2.252
 1275SOL    HW2 5130   1.360   0.239   2.278
 1275SOL    HW3 5131   1.289   0.106   2.291
 1275SOL    MW4 5132   1.355   0.154   2.261
 1276SOL     OW 5133   1.354   0.425   2.321
 1276SOL    HW2 5134   1.366   0.414   2.416
 1276SOL    HW3 5135   1.426   0.482   2.295
 1276SOL    MW4 5136   1.365   0.431   2.330
 1277SOL     OW 5137   1.578   0.571   2.236
 1277SOL    HW2 5138   1.646   0.508   2.260
 1277SOL    HW3 5139   1.573   0.565   2.141
 1277SOL    MW4 5140   1.586   0.562   2.226
 1278SOL     OW 5141   1.562   0.831   2.326
 1278SOL    HW2 5142   1.647   0.873   2.315
 1278SOL    HW3 5143   1.575   0.741   2.294
 1278SOL    MW4 5144   1.575   0.824   2.320
 1279SOL     OW 5145   1.320   0.932   2.213
 1279SOL    HW2 5146   1.406   0.896   2.237
 1279SOL    HW3 5147   1.258   0.867   2.246
 1279SOL    MW4 5148   1.323   0.918   2.221
 1280SOL     OW 5149   1.346   1.167   2.360
 1280SOL    HW2 5150   1.334   1.148   2.453
 1280SOL    HW3 5151   1.333   1.082   2.316
 1280SOL    MW4 5152   1.343   1.153   2.366
 1281SOL     OW 5153   1.565   1.298   2.267
 1281SOL    HW2 5154   1.487   1.253   2.301
 1281SOL    HW3 5155   1.548   1.307   2.173
 1281SOL    MW4 5156   1.552   1.293   2.259
 1282SOL     OW 5157   1.551   1.553   2.337
 1282SOL    HW2 5158   1.637   1.574   2.300
 1282SOL    HW3 5159   1.536   1.462   2.309
 1282SOL    MW4 5160   1.561   1.544   2.328
 1283SOL     OW 5161   1.321   1.685   2.285
 1283SOL    HW2 5162   1.395   1.629   2.307
 1283SOL    HW3 5163   1.244   1.634   2.311
 1283SOL    MW4 5164   1.320   1.671   2.291
 1284SOL     OW 5165   1.369   1.940   2.386
 1284SOL    HW2 5166   1.443   1.987   2.346
 1284SOL    HW3 5167   1.379   1.850   2.357
 1284SOL    MW4 5168   1.380   1.935   2.377
 1285SOL     OW 5169   1.609   2.053   2.279
 1285SOL    HW2 5170   1.690   2.002   2.292
 1285SOL    HW3 5171   1.592   2.047   2.186
 1285SOL    MW4 5172   1.618   2.045   2.269
 1286SOL     OW 5173   1.600   2.331   2.340
 1286SOL    HW2 5174   1.584   2.329   2.435
 1286SOL    HW3 5175   1.627   2.241   2.319
 1286SOL    MW4 5176   1.601   2.319   2.350
 1287SOL     OW 5177   1.348   2.442   2.272
 1287SOL    HW2 5178   1.420   2.388   2.305
 1287SOL    HW3 5179   1.352   2.431   2.177
 1287SOL    MW4 5180   1.358   2.433   2.264
 1288SOL     OW 5181   1.385   2.703   2.352
 1288SOL    HW2 5182   1.459   2.744   2.307
 1288SOL    HW3 5183   1.391   2.611   2.328
 1288SOL    MW4 5184   1.396   2.696   2.343
 1289SOL     OW 5185   1.599   2.829   2.231
 1289SOL    HW2 5186   1.609   2.922   2.250
 1289SOL    HW3 5187   1.604   2.823   2.136
 1289SOL    MW4 5188   1.601   2.840   2.221
 1290SOL     OW 5189   1.588   3.085   2.321
 1290SOL    HW2 5190   1.599   3.065   2.414
 1290SOL    HW3 5191   1.504   3.131   2.316
 1290SOL    MW4 5192   1.578   3.088   2.333
 1291SOL     OW 5193   1.350   3.227   2.234
 1291SOL    HW2 5194   1.273   3.174   2.255
 1291SOL    HW3 5195   1.359   3.221   2.139
 1291SOL    MW4 5196   1.341   3.219   2.224
 1292SOL     OW 5197   1.355   3.480   2.382
 1292SOL    HW2 5198   1.332   3.474   2.474
 1292SOL    HW3 5199   1.336   3.393   2.347
 1292SOL    MW4 5200   1.350   3.468   2.389
 1293SOL     OW 5201   1.569   3.579   2.266
 1293SOL    HW2 5202   1.569   3.670   2.296
 1293SOL    HW3 5203   1.501   3.537   2.318
 1293SOL    MW4 5204   1.560   3.586   2.277
 1294SOL     OW 5205   1.603   3.848   2.346
 1294SOL    HW2 5206   1.599   3.842   2.442
 1294SOL    HW3 5207   1.666   3.917   2.329
 1294SOL    MW4 5208   1.610   3.856   2.357
 1295SOL     OW 5209   1.401   4.012   2.283
 1295SOL    HW2 5210   1.466   3.943   2.298
 1295SOL    HW3 5211   1.393   4.018   2.188
 1295SOL    MW4 5212   1.409   4.004   2.273
 1296SOL     OW 5213   1.359   4.267   2.377
 1296SOL    HW2 5214   1.377   4.185   2.330
 1296SOL    HW3 5215   1.286   4.306   2.329
 1296SOL    MW4 5216   1.352   4.262   2.364
 1297SOL     OW 5217   1.565   4.407   2.240
 1297SOL    HW2 5218   1.496   4.353   2.280
 1297SOL    HW3 5219   1.553   4.494   2.279
 1297SOL    MW4 5220   1.554   4.412   2.250
 1298SOL     OW 5221   2.015   0.052   2.352
 1298SOL    HW2 5222   2.095   0.099   2.329
 1298SOL    HW3 5223   2.034  -0.040   2.332
 1298SOL    MW4 5224   2.028   0.046   2.346
 1299SOL     OW 5225   1.793   0.149   2.221
 1299SOL    HW2 5226   1.771   0.236   2.254
 1299SOL    HW3 5227   1.870   0.123   2.272
 1299SOL    MW4 5228   1.800   0.157   2.232
 1300SOL     OW 5229   1.794   0.414   2.298
 1300SOL    HW2 5230   1.787   0.403   2.393
 1300SOL    HW3 5231   1.885   0.440   2.283
 1300SOL    MW4 5232   1.805   0.416   2.308
 1301SOL     OW 5233   2.045   0.502   2.237
 1301SOL    HW2 5234   2.037   0.590   2.275
 1301SOL    HW3 5235   2.044   0.516   2.143
 1301SOL    MW4 5236   2.044   0.516   2.230
 1302SOL     OW 5237   2.039   0.763   2.369
 1302SOL    HW2 5238   2.119   0.811   2.350
 1302SOL    HW3 5239   1.970   0.815   2.327
 1302SOL    MW4 5240   2.040   0.776   2.361
 1303SOL     OW 5241   1.840   0.909   2.260
 1303SOL    HW2 5242   1.827   1.001   2.284
 1303SOL    HW3 5243   1.830   0.908   2.165
 1303SOL    MW4 5244   1.837   0.921   2.250
 1304SOL     OW 5245   1.792   1.165   2.345
 1304SOL    HW2 5246   1.873   1.211   2.324
 1304SOL    HW3 5247   1.723   1.229   2.329
 1304SOL    MW4 5248   1.794   1.179   2.340
 1305SOL     OW 5249   2.019   1.283   2.261
 1305SOL    HW2 5250   2.031   1.378   2.268
 1305SOL    HW3 5251   2.011   1.267   2.167
 1305SOL    MW4 5252   2.020   1.294   2.250
 1306SOL     OW 5253   2.029   1.551   2.344
 1306SOL    HW2 5254   2.013   1.549   2.439
 1306SOL    HW3 5255   1.949   1.587   2.307
 1306SOL    MW4 5256   2.016   1.556   2.352
 1307SOL     OW 5257   1.794   1.653   2.242
 1307SOL    HW2 5258   1.783   1.743   2.272
 1307SOL    HW3 5259   1.788   1.658   2.147
 1307SOL    MW4 5260   1.792   1.665   2.234
 1308SOL     OW 5261   1.844   1.908   2.335
 1308SOL    HW2 5262   1.837   1.934   2.427
 1308SOL    HW3 5263   1.909   1.968   2.297
 1308SOL    MW4 5264   1.852   1.919   2.342
 1309SOL     OW 5265   2.020   2.086   2.236
 1309SOL    HW2 5266   2.102   2.048   2.268
 1309SOL    HW3 5267   2.019   2.064   2.143
 1309SOL    MW4 5268   2.031   2.078   2.228
 1310SOL     OW 5269   2.028   2.341   2.350
 1310SOL    HW2 5270   2.116   2.366   2.322
 1310SOL    HW3 5271   2.017   2.252   2.317
 1310SOL    MW4 5272   2.038   2.332   2.342
 1311SOL     OW 5273   1.816   2.450   2.222
 1311SOL    HW2 5274   1.895   2.416   2.263
 1311SOL    HW3 5275   1.744   2.409   2.271
 1311SOL    MW4 5276   1.817   2.440   2.234
 1312SOL     OW 5277   1.802   2.693   2.350
 1312SOL    HW2 5278   1.803   2.607   2.308
 1312SOL    HW3 5279   1.718   2.732   2.325
 1312SOL    MW4 5280   1.791   2.687   2.341
 1313SOL     OW 5281   2.044   2.814   2.248
 1313SOL    HW2 5282   2.099   2.757   2.301
 1313SOL    HW3 5283   1.954   2.788   2.269
 1313SOL    MW4 5284   2.039   2.803   2.257
 1314SOL     OW 5285   2.005   3.067   2.372
 1314SOL    HW2 5286   2.089   3.109   2.350
 1314SOL    HW3 5287   2.015   2.977   2.341
 1314SOL    MW4 5288   2.018   3.060   2.365
 1315SOL     OW 5289   1.826   3.217   2.224
 1315SOL    HW2 5290   1.894   3.161   2.262
 1315SOL    HW3 5291   1.744   3.181   2.256
 1315SOL    MW4 5292   1.824   3.205   2.233
 1316SOL     OW 5293   1.814   3.479   2.298
 1316SOL    HW2 5294   1.824   3.390   2.263
 1316SOL    HW3 5295   1.727   3.506   2.268
 1316SOL    MW4 5296   1.804   3.471   2.289
 1317SOL     OW 5297   1.999   3.658   2.226
 1317SOL    HW2 5298   1.922   3.602   2.237
 1317SOL    HW3 5299   2.009   3.665   2.131
 1317SOL    MW4 5300   1.990   3.651   2.215
 1318SOL     OW 5301   2.029   3.897   2.353
 1318SOL    HW2 5302   2.002   3.877   2.442
 1318SOL    HW3 5303   2.030   3.812   2.309
 1318SOL    MW4 5304   2.026   3.883   2.359
 1319SOL     OW 5305   1.792   4.020   2.253
 1319SOL    HW2 5306   1.879   3.984   2.271
 1319SOL    HW3 5307   1.794   4.041   2.160
 1319SOL    MW4 5308   1.804   4.018   2.243
 1320SOL     OW 5309   1.806   4.282   2.319
 1320SOL    HW2 5310   1.801   4.186   2.316
 1320SOL    HW3 5311   1.720   4.312   2.290
 1320SOL    MW4 5312   1.794   4.273   2.314
 1321SOL     OW 5313   2.041   4.446   2.275
 1321SOL    HW2 5314   1.954   4.412   2.296
 1321SOL    HW3 5315   2.049   4.435   2.181
 1321SOL    MW4 5316   2.030   4.440   2.266
 1322SOL     OW 5317   2.478   0.028   2.396
 1322SOL    HW2 5318   2.562   0.064   2.368
 1322SOL    HW3 5319   2.478  -0.062   2.362
 1322SOL    MW4 5320   2.489   0.021   2.388
 1323SOL     OW 5321   2.268   0.163   2.273
 1323SOL    HW2 5322   2.282   0.251   2.308
 1323SOL    HW3 5323   2.337   0.110   2.313
 1323SOL    MW4 5324   2.279   0.167   2.283
 1324SOL     OW 5325   2.253   0.409   2.382
 1324SOL    HW2 5326   2.323   0.462   2.345
 1324SOL    HW3 5327   2.174   0.439   2.337
 1324SOL    MW4 5328   2.251   0.420   2.372
 1325SOL     OW 5329   2.493   0.517   2.220
 1325SOL    HW2 5330   2.573   0.473   2.248
 1325SOL    HW3 5331   2.506   0.534   2.127
 1325SOL    MW4 5332   2.505   0.513   2.212
 1326SOL     OW 5333   2.475   0.761   2.379
 1326SOL    HW2 5334   2.561   0.796   2.357
 1326SOL    HW3 5335   2.470   0.679   2.330
 1326SOL    MW4 5336   2.486   0.755   2.370
 1327SOL     OW 5337   2.272   0.917   2.291
 1327SOL    HW2 5338   2.281   1.006   2.325
 1327SOL    HW3 5339   2.348   0.870   2.326
 1327SOL    MW4 5340   2.283   0.922   2.300
 1328SOL     OW 5341   2.266   1.172   2.378
 1328SOL    HW2 5342   2.331   1.216   2.323
 1328SOL    HW3 5343   2.182   1.211   2.351
 1328SOL    MW4 5344   2.263   1.183   2.367
 1329SOL     OW 5345   2.472   1.271   2.231
 1329SOL    HW2 5346   2.547   1.228   2.272
 1329SOL    HW3 5347   2.476   1.361   2.264
 1329SOL    MW4 5348   2.483   1.277   2.241
 1330SOL     OW 5349   2.467   1.527   2.327
 1330SOL    HW2 5350   2.463   1.528   2.423
 1330SOL    HW3 5351   2.542   1.583   2.306
 1330SOL    MW4 5352   2.477   1.535   2.337
 1331SOL     OW 5353   2.244   1.679   2.230
 1331SOL    HW2 5354   2.320   1.624   2.254
 1331SOL    HW3 5355   2.170   1.636   2.273
 1331SOL    MW4 5356   2.245   1.666   2.239
 1332SOL     OW 5357   2.262   1.970   2.339
 1332SOL    HW2 5358   2.333   2.021   2.300
 1332SOL    HW3 5359   2.268   1.885   2.296
 1332SOL    MW4 5360   2.272   1.966   2.328
 1333SOL     OW 5361   2.488   2.100   2.218
 1333SOL    HW2 5362   2.564   2.048   2.244
 1333SOL    HW3 5363   2.484   2.090   2.123
 1333SOL    MW4 5364   2.497   2.092   2.209
 1334SOL     OW 5365   2.486   2.338   2.343
 1334SOL    HW2 5366   2.569   2.378   2.316
 1334SOL    HW3 5367   2.492   2.247   2.314
 1334SOL    MW4 5368   2.498   2.332   2.336
 1335SOL     OW 5369   2.264   2.466   2.224
 1335SOL    HW2 5370   2.254   2.546   2.277
 1335SOL    HW3 5371   2.342   2.423   2.259
 1335SOL    MW4 5372   2.273   2.471   2.236
 1336SOL     OW 5373   2.268   2.693   2.369
 1336SOL    HW2 5374   2.264   2.710   2.463
 1336SOL    HW3 5375   2.337   2.750   2.337
 1336SOL    MW4 5376   2.277   2.703   2.377
 1337SOL     OW 5377   2.511   2.818   2.275
 1337SOL    HW2 5378   2.588   2.777   2.315
 1337SOL    HW3 5379   2.527   2.813   2.181
 1337SOL    MW4 5380   2.523   2.812   2.268
 1338SOL     OW 5381   2.435   3.073   2.354
 1338SOL    HW2 5382   2.512   3.116   2.317
 1338SOL    HW3 5383   2.445   2.981   2.329
 1338SOL    MW4 5384   2.447   3.066   2.346
 1339SOL     OW 5385   2.216   3.174   2.235
 1339SOL    HW2 5386   2.209   3.266   2.263
 1339SOL    HW3 5387   2.302   3.147   2.266
 1339SOL    MW4 5388   2.226   3.183   2.243
 1340SOL     OW 5389   2.178   3.458   2.315
 1340SOL    HW2 5390   2.185   3.484   2.407
 1340SOL    HW3 5391   2.116   3.521   2.278
 1340SOL    MW4 5392   2.171   3.470   2.323
 1341SOL     OW 5393   2.453   3.580   2.263
 1341SOL    HW2 5394   2.446   3.673   2.285
 1341SOL    HW3 5395   2.367   3.544   2.282
 1341SOL    MW4 5396   2.441   3.587   2.268
 1342SOL     OW 5397   2.469   3.856   2.291
 1342SOL    HW2 5398   2.475   3.878   2.384
 1342SOL    HW3 5399   2.393   3.905   2.260
 1342SOL    MW4 5400   2.460   3.865   2.299
 1343SOL     OW 5401   2.245   4.021   2.235
 1343SOL    HW2 5402   2.249   4.113   2.261
 1343SOL    HW3 5403   2.175   3.984   2.289
 1343SOL    MW4 5404   2.236   4.028   2.246
 1344SOL     OW 5405   2.269   4.285   2.320
 1344SOL    HW2 5406   2.281   4.287   2.415
 1344SOL    HW3 5407   2.184   4.328   2.306
 1344SOL    MW4 5408   2.259   4.291   2.331
 1345SOL     OW 5409   2.488   4.438   2.235
 1345SOL    HW2 5410   2.557   4.381   2.266
 1345SOL    HW3 5411   2.407   4.394   2.260
 1345SOL    MW4 5412   2.486   4.425   2.242
 1346SOL     OW 5413   2.907   4.667   2.393
 1346SOL    HW2 5414   2.989   4.706   2.363
 1346SOL    HW3 5415   2.898   4.587   2.340
 1346SOL    MW4 5416   2.917   4.661   2.382
 1347SOL     OW 5417   2.702   0.122   2.274
 1347SOL    HW2 5418   2.713   0.210   2.311
 1347SOL    HW3 5419   2.773   0.071   2.312
 1347SOL    MW4 5420   2.713   0.127   2.284
 1348SOL     OW 5421   2.704   0.411   2.369
 1348SOL    HW2 5422   2.708   0.398   2.464
 1348SOL    HW3 5423   2.790   0.447   2.346
 1348SOL    MW4 5424   2.716   0.414   2.379
 1349SOL     OW 5425   2.956   0.521   2.316
 1349SOL    HW2 5426   2.949   0.611   2.346
 1349SOL    HW3 5427   2.962   0.527   2.220
 1349SOL    MW4 5428   2.956   0.534   2.307
 1350SOL     OW 5429   2.948   0.782   2.373
 1350SOL    HW2 5430   2.934   0.769   2.467
 1350SOL    HW3 5431   2.868   0.825   2.343
 1350SOL    MW4 5432   2.936   0.786   2.382
 1351SOL     OW 5433   2.707   0.897   2.284
 1351SOL    HW2 5434   2.698   0.987   2.316
 1351SOL    HW3 5435   2.719   0.906   2.190
 1351SOL    MW4 5436   2.707   0.910   2.276
 1352SOL     OW 5437   2.680   1.156   2.360
 1352SOL    HW2 5438   2.686   1.154   2.455
 1352SOL    HW3 5439   2.764   1.193   2.332
 1352SOL    MW4 5440   2.692   1.161   2.369
 1353SOL     OW 5441   2.913   1.273   2.298
 1353SOL    HW2 5442   3.001   1.241   2.318
 1353SOL    HW3 5443   2.909   1.275   2.202
 1353SOL    MW4 5444   2.924   1.269   2.288
 1354SOL     OW 5445   2.920   1.537   2.394
 1354SOL    HW2 5446   2.918   1.551   2.488
 1354SOL    HW3 5447   2.916   1.442   2.383
 1354SOL    MW4 5448   2.919   1.526   2.405
 1355SOL     OW 5449   2.699   1.680   2.274
 1355SOL    HW2 5450   2.770   1.646   2.328
 1355SOL    HW3 5451   2.728   1.665   2.184
 1355SOL    MW4 5452   2.712   1.674   2.269
 1356SOL     OW 5453   2.682   1.944   2.329
 1356SOL    HW2 5454   2.697   1.953   2.423
 1356SOL    HW3 5455   2.682   1.849   2.314
 1356SOL    MW4 5456   2.684   1.933   2.339
 1357SOL     OW 5457   2.919   2.059   2.217
 1357SOL    HW2 5458   2.983   2.005   2.264
 1357SOL    HW3 5459   2.836   2.013   2.229
 1357SOL    MW4 5460   2.917   2.046   2.225
 1358SOL     OW 5461   2.969   2.320   2.309
 1358SOL    HW2 5462   2.954   2.318   2.403
 1358SOL    HW3 5463   2.955   2.230   2.280
 1358SOL    MW4 5464   2.965   2.308   2.317
 1359SOL     OW 5465   2.724   2.443   2.235
 1359SOL    HW2 5466   2.797   2.381   2.243
 1359SOL    HW3 5467   2.707   2.447   2.141
 1359SOL    MW4 5468   2.731   2.435   2.224
 1360SOL     OW 5469   2.733   2.679   2.399
 1360SOL    HW2 5470   2.804   2.733   2.364
 1360SOL    HW3 5471   2.744   2.595   2.354
 1360SOL    MW4 5472   2.744   2.675   2.388
 1361SOL     OW 5473   2.946   2.828   2.306
 1361SOL    HW2 5474   2.926   2.919   2.328
 1361SOL    HW3 5475   2.951   2.827   2.210
 1361SOL    MW4 5476   2.944   2.840   2.296
 1362SOL     OW 5477   2.898   3.101   2.376
 1362SOL    HW2 5478   2.966   3.148   2.328
 1362SOL    HW3 5479   2.817   3.145   2.353
 1362SOL    MW4 5480   2.897   3.113   2.367
 1363SOL     OW 5481   2.668   3.221   2.284
 1363SOL    HW2 5482   2.667   3.309   2.321
 1363SOL    HW3 5483   2.679   3.234   2.190
 1363SOL    MW4 5484   2.669   3.234   2.277
 1364SOL     OW 5485   2.684   3.481   2.402
 1364SOL    HW2 5486   2.759   3.526   2.363
 1364SOL    HW3 5487   2.608   3.517   2.355
 1364SOL    MW4 5488   2.684   3.492   2.390
 1365SOL     OW 5489   2.887   3.630   2.285
 1365SOL    HW2 5490   2.968   3.586   2.310
 1365SOL    HW3 5491   2.901   3.722   2.307
 1365SOL    MW4 5492   2.899   3.636   2.291
 1366SOL     OW 5493   2.926   3.895   2.358
 1366SOL    HW2 5494   2.905   3.887   2.451
 1366SOL    HW3 5495   2.847   3.932   2.319
 1366SOL    MW4 5496   2.913   3.899   2.365
 1367SOL     OW 5497   2.702   3.994   2.255
 1367SOL    HW2 5498   2.615   3.957   2.270
 1367SOL    HW3 5499   2.711   3.997   2.160
 1367SOL    MW4 5500   2.691   3.989   2.244
 1368SOL     OW 5501   2.704   4.293   2.345
 1368SOL    HW2 5502   2.711   4.294   2.441
 1368SOL    HW3 5503   2.696   4.200   2.323
 1368SOL    MW4 5504   2.704   4.281   2.355
 1369SOL     OW 5505   2.921   4.417   2.227
 1369SOL    HW2 5506   2.993   4.366   2.266
 1369SOL    HW3 5507   2.842   4.373   2.258
 1369SOL    MW4 5508   2.920   4.404   2.236
 1370SOL     OW 5509   3.346   4.650   2.388
 1370SOL    HW2 5510   3.345   4.663   2.483
 1370SOL    HW3 5511   3.425   4.695   2.358
 1370SOL    MW4 5512   3.356   4.657   2.397
 1371SOL     OW 5513   3.138   0.105   2.255
 1371SOL    HW2 5514   3.139   0.184   2.310
 1371SOL    HW3 5515   3.205   0.048   2.293
 1371SOL    MW4 5516   3.147   0.108   2.268
 1372SOL     OW 5517   3.132   0.332   2.396
 1372SOL    HW2 5518   3.211   0.377   2.365
 1372SOL    HW3 5519   3.060   0.389   2.368
 1372SOL    MW4 5520   3.133   0.346   2.388
 1373SOL     OW 5521   3.344   0.493   2.301
 1373SOL    HW2 5522   3.418   0.437   2.325
 1373SOL    HW3 5523   3.361   0.518   2.210
 1373SOL    MW4 5524   3.356   0.489   2.292
 1374SOL     OW 5525   3.365   0.748   2.385
 1374SOL    HW2 5526   3.441   0.794   2.348
 1374SOL    HW3 5527   3.373   0.658   2.353
 1374SOL    MW4 5528   3.376   0.742   2.376
 1375SOL     OW 5529   3.175   0.876   2.251
 1375SOL    HW2 5530   3.249   0.839   2.298
 1375SOL    HW3 5531   3.098   0.832   2.287
 1375SOL    MW4 5532   3.175   0.866   2.262
 1376SOL     OW 5533   3.160   1.158   2.344
 1376SOL    HW2 5534   3.238   1.201   2.308
 1376SOL    HW3 5535   3.167   1.068   2.314
 1376SOL    MW4 5536   3.172   1.152   2.335
 1377SOL     OW 5537   3.393   1.235   2.208
 1377SOL    HW2 5538   3.447   1.181   2.265
 1377SOL    HW3 5539   3.386   1.318   2.255
 1377SOL    MW4 5540   3.399   1.239   2.222
 1378SOL     OW 5541   3.362   1.484   2.331
 1378SOL    HW2 5542   3.353   1.499   2.425
 1378SOL    HW3 5543   3.298   1.543   2.291
 1378SOL    MW4 5544   3.352   1.494   2.338
 1379SOL     OW 5545   3.144   1.644   2.275
 1379SOL    HW2 5546   3.135   1.737   2.295
 1379SOL    HW3 5547   3.077   1.601   2.329
 1379SOL    MW4 5548   3.134   1.650   2.285
 1380SOL     OW 5549   3.134   1.901   2.345
 1380SOL    HW2 5550   3.120   1.918   2.439
 1380SOL    HW3 5551   3.202   1.964   2.319
 1380SOL    MW4 5552   3.141   1.912   2.354
 1381SOL     OW 5553   3.364   2.069   2.256
 1381SOL    HW2 5554   3.446   2.034   2.290
 1381SOL    HW3 5555   3.374   2.068   2.161
 1381SOL    MW4 5556   3.376   2.064   2.248
 1382SOL     OW 5557   3.385   2.345   2.347
 1382SOL    HW2 5558   3.307   2.390   2.315
 1382SOL    HW3 5559   3.378   2.257   2.311
 1382SOL    MW4 5560   3.374   2.340   2.338
 1383SOL     OW 5561   3.182   2.480   2.238
 1383SOL    HW2 5562   3.178   2.552   2.301
 1383SOL    HW3 5563   3.106   2.426   2.258
 1383SOL    MW4 5564   3.172   2.482   2.249
 1384SOL     OW 5565   3.202   2.714   2.365
 1384SOL    HW2 5566   3.192   2.704   2.460
 1384SOL    HW3 5567   3.122   2.760   2.338
 1384SOL    MW4 5568   3.190   2.719   2.374
 1385SOL     OW 5569   3.386   2.880   2.246
 1385SOL    HW2 5570   3.377   2.960   2.297
 1385SOL    HW3 5571   3.329   2.817   2.289
 1385SOL    MW4 5572   3.377   2.883   2.258
 1386SOL     OW 5573   3.382   3.182   2.348
 1386SOL    HW2 5574   3.435   3.225   2.281
 1386SOL    HW3 5575   3.292   3.211   2.329
 1386SOL    MW4 5576   3.377   3.192   2.337
 1387SOL     OW 5577   3.113   3.240   2.248
 1387SOL    HW2 5578   3.104   3.334   2.268
 1387SOL    HW3 5579   3.120   3.237   2.153
 1387SOL    MW4 5580   3.113   3.252   2.239
 1388SOL     OW 5581   3.119   3.505   2.340
 1388SOL    HW2 5582   3.120   3.505   2.436
 1388SOL    HW3 5583   3.198   3.552   2.315
 1388SOL    MW4 5584   3.129   3.511   2.350
 1389SOL     OW 5585   3.358   3.655   2.289
 1389SOL    HW2 5586   3.421   3.596   2.330
 1389SOL    HW3 5587   3.371   3.643   2.195
 1389SOL    MW4 5588   3.368   3.646   2.282
 1390SOL     OW 5589   3.386   3.905   2.385
 1390SOL    HW2 5590   3.459   3.951   2.344
 1390SOL    HW3 5591   3.374   3.826   2.333
 1390SOL    MW4 5592   3.394   3.901   2.373
 1391SOL     OW 5593   3.166   4.015   2.274
 1391SOL    HW2 5594   3.233   3.981   2.333
 1391SOL    HW3 5595   3.085   3.973   2.303
 1391SOL    MW4 5596   3.164   4.005   2.286
 1392SOL     OW 5597   3.124   4.264   2.382
 1392SOL    HW2 5598   3.200   4.309   2.344
 1392SOL    HW3 5599   3.139   4.172   2.363
 1392SOL    MW4 5600   3.136   4.258   2.374
 1393SOL     OW 5601   3.354   4.396   2.274
 1393SOL    HW2 5602   3.369   4.482   2.314
 1393SOL    HW3 5603   3.377   4.408   2.182
 1393SOL    MW4 5604   3.359   4.409   2.267
 1394SOL     OW 5605   3.792   4.607   2.426
 1394SOL    HW2 5606   3.790   4.608   2.522
 1394SOL    HW3 5607   3.862   4.668   2.403
 1394SOL    MW4 5608   3.801   4.615   2.436
 1395SOL     OW 5609   3.592   0.081   2.277
 1395SOL    HW2 5610   3.603   0.166   2.321
 1395SOL    HW3 5611   3.650   0.022   2.325
 1395SOL    MW4 5612   3.601   0.084   2.289
 1396SOL     OW 5613   3.573   0.347   2.371
 1396SOL    HW2 5614   3.572   0.345   2.467
 1396SOL    HW3 5615   3.646   0.405   2.349
 1396SOL    MW4 5616   3.582   0.354   2.381
 1397SOL     OW 5617   3.823   0.478   2.315
 1397SOL    HW2 5618   3.835   0.569   2.341
 1397SOL    HW3 5619   3.826   0.479   2.220
 1397SOL    MW4 5620   3.825   0.490   2.306
 1398SOL     OW 5621   3.830   0.745   2.348
 1398SOL    HW2 5622   3.814   0.758   2.441
 1398SOL    HW3 5623   3.913   0.790   2.331
 1398SOL    MW4 5624   3.839   0.753   2.358
 1399SOL     OW 5625   3.605   0.865   2.254
 1399SOL    HW2 5626   3.680   0.809   2.276
 1399SOL    HW3 5627   3.596   0.857   2.159
 1399SOL    MW4 5628   3.614   0.857   2.244
 1400SOL     OW 5629   3.600   1.119   2.360
 1400SOL    HW2 5630   3.602   1.114   2.455
 1400SOL    HW3 5631   3.603   1.028   2.330
 1400SOL    MW4 5632   3.601   1.106   2.368
 1401SOL     OW 5633   3.815   1.256   2.245
 1401SOL    HW2 5634   3.808   1.348   2.270
 1401SOL    HW3 5635   3.736   1.216   2.281
 1401SOL    MW4 5636   3.803   1.263   2.253
 1402SOL     OW 5637   3.834   1.528   2.338
 1402SOL    HW2 5638   3.823   1.540   2.433
 1402SOL    HW3 5639   3.755   1.566   2.300
 1402SOL    MW4 5640   3.822   1.535   2.346
 1403SOL     OW 5641   3.602   1.633   2.249
 1403SOL    HW2 5642   3.528   1.579   2.278
 1403SOL    HW3 5643   3.588   1.644   2.155
 1403SOL    MW4 5644   3.590   1.627   2.241
 1404SOL     OW 5645   3.583   1.897   2.327
 1404SOL    HW2 5646   3.671   1.932   2.320
 1404SOL    HW3 5647   3.594   1.802   2.316
 1404SOL    MW4 5648   3.596   1.889   2.325
 1405SOL     OW 5649   3.808   2.041   2.273
 1405SOL    HW2 5650   3.887   1.994   2.300
 1405SOL    HW3 5651   3.818   2.050   2.178
 1405SOL    MW4 5652   3.820   2.036   2.264
 1406SOL     OW 5653   3.825   2.316   2.364
 1406SOL    HW2 5654   3.749   2.356   2.322
 1406SOL    HW3 5655   3.825   2.225   2.333
 1406SOL    MW4 5656   3.815   2.309   2.354
 1407SOL     OW 5657   3.603   2.451   2.233
 1407SOL    HW2 5658   3.522   2.413   2.266
 1407SOL    HW3 5659   3.589   2.462   2.139
 1407SOL    MW4 5660   3.591   2.448   2.225
 1408SOL     OW 5661   3.618   2.712   2.346
 1408SOL    HW2 5662   3.604   2.624   2.311
 1408SOL    HW3 5663   3.549   2.765   2.306
 1408SOL    MW4 5664   3.607   2.708   2.336
 1409SOL     OW 5665   3.817   2.884   2.259
 1409SOL    HW2 5666   3.807   2.966   2.308
 1409SOL    HW3 5667   3.748   2.827   2.293
 1409SOL    MW4 5668   3.807   2.887   2.270
 1410SOL     OW 5669   3.775   3.131   2.359
 1410SOL    HW2 5670   3.788   3.133   2.454
 1410SOL    HW3 5671   3.860   3.155   2.323
 1410SOL    MW4 5672   3.788   3.134   2.367
 1411SOL     OW 5673   3.590   3.269   2.203
 1411SOL    HW2 5674   3.575   3.362   2.218
 1411SOL    HW3 5675   3.648   3.242   2.274
 1411SOL    MW4 5676   3.595   3.277   2.214
 1412SOL     OW 5677   3.578   3.508   2.365
 1412SOL    HW2 5678   3.593   3.525   2.458
 1412SOL    HW3 5679   3.645   3.560   2.320
 1412SOL    MW4 5680   3.589   3.517   2.371
 1413SOL     OW 5681   3.764   3.658   2.223
 1413SOL    HW2 5682   3.771   3.749   2.253
 1413SOL    HW3 5683   3.766   3.664   2.128
 1413SOL    MW4 5684   3.765   3.671   2.215
 1414SOL     OW 5685   3.836   3.932   2.326
 1414SOL    HW2 5686   3.851   3.930   2.420
 1414SOL    HW3 5687   3.920   3.960   2.289
 1414SOL    MW4 5688   3.849   3.935   2.333
 1415SOL     OW 5689   3.602   4.034   2.231
 1415SOL    HW2 5690   3.585   4.117   2.277
 1415SOL    HW3 5691   3.687   4.005   2.265
 1415SOL    MW4 5692   3.611   4.041   2.242
 1416SOL     OW 5693   3.571   4.254   2.383
 1416SOL    HW2 5694   3.636   4.304   2.332
 1416SOL    HW3 5695   3.487   4.289   2.355
 1416SOL    MW4 5696   3.569   4.265   2.372
 1417SOL     OW 5697   3.786   4.378   2.272
 1417SOL    HW2 5698   3.858   4.331   2.314
 1417SOL    HW3 5699   3.791   4.466   2.308
 1417SOL    MW4 5700   3.796   4.383   2.282
 1418SOL     OW 5701   4.248   4.644   2.386
 1418SOL    HW2 5702   4.269   4.630   2.478
 1418SOL    HW3 5703   4.330   4.674   2.347
 1418SOL    MW4 5704   4.261   4.646   2.393
 1419SOL     OW 5705   4.011   0.070   2.307
 1419SOL    HW2 5706   4.017   0.163   2.326
 1419SOL    HW3 5707   4.095   0.034   2.334
 1419SOL    MW4 5708   4.023   0.077   2.313
 1420SOL     OW 5709   4.051   0.342   2.398
 1420SOL    HW2 5710   4.130   0.384   2.365
 1420SOL    HW3 5711   3.979   0.398   2.369
 1420SOL    MW4 5712   4.052   0.355   2.390
 1421SOL     OW 5713   4.238   0.455   2.232
 1421SOL    HW2 5714   4.239   0.542   2.271
 1421SOL    HW3 5715   4.322   0.417   2.256
 1421SOL    MW4 5716   4.249   0.461   2.240
 1422SOL     OW 5717   4.247   0.710   2.340
 1422SOL    HW2 5718   4.173   0.760   2.305
 1422SOL    HW3 5719   4.324   0.750   2.302
 1422SOL    MW4 5720   4.247   0.722   2.331
 1423SOL     OW 5721   4.048   0.888   2.229
 1423SOL    HW2 5722   4.052   0.972   2.276
 1423SOL    HW3 5723   4.049   0.912   2.137
 1423SOL    MW4 5724   4.049   0.903   2.223
 1424SOL     OW 5725   4.064   1.160   2.342
 1424SOL    HW2 5726   4.079   1.161   2.437
 1424SOL    HW3 5727   3.973   1.185   2.332
 1424SOL    MW4 5728   4.054   1.163   2.354
 1425SOL     OW 5729   4.285   1.268   2.192
 1425SOL    HW2 5730   4.203   1.236   2.231
 1425SOL    HW3 5731   4.354   1.218   2.235
 1425SOL    MW4 5732   4.283   1.257   2.203
 1426SOL     OW 5733   4.299   1.516   2.344
 1426SOL    HW2 5734   4.286   1.433   2.298
 1426SOL    HW3 5735   4.373   1.556   2.299
 1426SOL    MW4 5736   4.307   1.510   2.332
 1427SOL     OW 5737   4.075   1.663   2.259
 1427SOL    HW2 5738   4.155   1.622   2.292
 1427SOL    HW3 5739   4.005   1.605   2.286
 1427SOL    MW4 5740   4.076   1.650   2.267
 1428SOL     OW 5741   4.048   1.953   2.358
 1428SOL    HW2 5742   4.037   1.942   2.453
 1428SOL    HW3 5743   4.064   1.864   2.326
 1428SOL    MW4 5744   4.048   1.940   2.366
 1429SOL     OW 5745   4.247   2.072   2.207
 1429SOL    HW2 5746   4.262   2.160   2.242
 1429SOL    HW3 5747   4.175   2.038   2.261
 1429SOL    MW4 5748   4.239   2.079   2.219
 1430SOL     OW 5749   4.300   2.315   2.331
 1430SOL    HW2 5750   4.222   2.369   2.316
 1430SOL    HW3 5751   4.373   2.369   2.300
 1430SOL    MW4 5752   4.299   2.329   2.325
 1431SOL     OW 5753   4.051   2.459   2.263
 1431SOL    HW2 5754   4.041   2.551   2.287
 1431SOL    HW3 5755   3.973   2.416   2.298
 1431SOL    MW4 5756   4.039   2.465   2.271
 1432SOL     OW 5757   4.022   2.721   2.341
 1432SOL    HW2 5758   4.040   2.744   2.433
 1432SOL    HW3 5759   3.963   2.791   2.311
 1432SOL    MW4 5760   4.017   2.733   2.349
 1433SOL     OW 5761   4.248   2.845   2.238
 1433SOL    HW2 5762   4.173   2.794   2.271
 1433SOL    HW3 5763   4.325   2.795   2.267
 1433SOL    MW4 5764   4.248   2.832   2.246
 1434SOL     OW 5765   4.241   3.109   2.368
 1434SOL    HW2 5766   4.250   3.020   2.333
 1434SOL    HW3 5767   4.327   3.149   2.355
 1434SOL    MW4 5768   4.254   3.103   2.362
 1435SOL     OW 5769   4.012   3.218   2.245
 1435SOL    HW2 5770   4.009   3.309   2.272
 1435SOL    HW3 5771   4.086   3.180   2.293
 1435SOL    MW4 5772   4.022   3.225   2.255
 1436SOL     OW 5773   3.982   3.497   2.301
 1436SOL    HW2 5774   4.058   3.549   2.275
 1436SOL    HW3 5775   3.907   3.551   2.278
 1436SOL    MW4 5776   3.982   3.511   2.294
 1437SOL     OW 5777   4.244   3.590   2.272
 1437SOL    HW2 5778   4.240   3.677   2.311
 1437SOL    HW3 5779   4.245   3.606   2.177
 1437SOL    MW4 5780   4.243   3.604   2.264
 1438SOL     OW 5781   4.265   3.854   2.344
 1438SOL    HW2 5782   4.259   3.871   2.438
 1438SOL    HW3 5783   4.346   3.898   2.317
 1438SOL    MW4 5784   4.275   3.862   2.353
 1439SOL     OW 5785   4.071   4.017   2.225
 1439SOL    HW2 5786   4.143   3.971   2.269
 1439SOL    HW3 5787   4.087   4.003   2.132
 1439SOL    MW4 5788   4.083   4.009   2.219
 1440SOL     OW 5789   4.029   4.235   2.380
 1440SOL    HW2 5790   4.099   4.291   2.349
 1440SOL    HW3 5791   4.041   4.153   2.333
 1440SOL    MW4 5792   4.039   4.231   2.370
 1441SOL     OW 5793   4.263   4.389   2.241
 1441SOL    HW2 5794   4.246   4.466   2.295
 1441SOL    HW3 5795   4.338   4.346   2.283
 1441SOL    MW4 5796   4.270   4.394   2.254
 1442SOL     OW 5797   0.198   4.637   2.607
 1442SOL    HW2 5798   0.204   4.549   2.643
 1442SOL    HW3 5799   0.124   4.677   2.653
 1442SOL    MW4 5800   0.189   4.631   2.617
 1443SOL     OW 5801   4.481   0.107   2.732
 1443SOL    HW2 5802   4.481   0.106   2.828
 1443SOL    HW3 5803   4.484   0.200   2.710
 1443SOL    MW4 5804   4.481   0.119   2.742
 1444SOL     OW 5805   0.004   0.373   2.656
 1444SOL    HW2 5806   0.086   0.421   2.673
 1444SOL    HW3 5807  -0.002   0.369   2.560
 1444SOL    MW4 5808   0.014   0.379   2.645
 1445SOL     OW 5809   0.250   0.507   2.700
 1445SOL    HW2 5810   0.243   0.495   2.795
 1445SOL    HW3 5811   0.319   0.447   2.673
 1445SOL    MW4 5812   0.258   0.498   2.709
 1446SOL     OW 5813   0.229   0.776   2.650
 1446SOL    HW2 5814   0.311   0.819   2.671
 1446SOL    HW3 5815   0.243   0.684   2.673
 1446SOL    MW4 5816   0.241   0.769   2.656
 1447SOL     OW 5817   0.001   0.911   2.754
 1447SOL    HW2 5818  -0.067   0.847   2.734
 1447SOL    HW3 5819   0.082   0.871   2.724
 1447SOL    MW4 5820   0.003   0.897   2.748
 1448SOL     OW 5821   4.490   1.145   2.596
 1448SOL    HW2 5822   4.562   1.184   2.646
 1448SOL    HW3 5823   4.478   1.058   2.636
 1448SOL    MW4 5824   4.498   1.139   2.608
 1449SOL     OW 5825   0.198   1.286   2.731
 1449SOL    HW2 5826   0.272   1.234   2.698
 1449SOL    HW3 5827   0.203   1.368   2.682
 1449SOL    MW4 5828   0.208   1.290   2.720
 1450SOL     OW 5829   0.299   1.535   2.625
 1450SOL    HW2 5830   0.378   1.577   2.660
 1450SOL    HW3 5831   0.227   1.576   2.673
 1450SOL    MW4 5832   0.300   1.546   2.636
 1451SOL     OW 5833   0.053   1.643   2.760
 1451SOL    HW2 5834   0.020   1.633   2.849
 1451SOL    HW3 5835   0.017   1.726   2.730
 1451SOL    MW4 5836   0.044   1.652   2.768
 1452SOL     OW 5837   4.474   1.896   2.664
 1452SOL    HW2 5838   4.544   1.960   2.678
 1452SOL    HW3 5839   4.449   1.906   2.572
 1452SOL    MW4 5840   4.480   1.905   2.654
 1453SOL     OW 5841   0.223   2.035   2.729
 1453SOL    HW2 5842   0.302   1.999   2.690
 1453SOL    HW3 5843   0.224   2.128   2.705
 1453SOL    MW4 5844   0.233   2.043   2.721
 1454SOL     OW 5845   0.224   2.317   2.643
 1454SOL    HW2 5846   0.285   2.344   2.713
 1454SOL    HW3 5847   0.145   2.369   2.659
 1454SOL    MW4 5848   0.222   2.327   2.655
 1455SOL     OW 5849   4.475   2.467   2.706
 1455SOL    HW2 5850   4.472   2.454   2.800
 1455SOL    HW3 5851   4.409   2.407   2.671
 1455SOL    MW4 5852   4.466   2.458   2.713
 1456SOL     OW 5853   4.473   2.733   2.634
 1456SOL    HW2 5854   4.409   2.785   2.682
 1456SOL    HW3 5855   4.478   2.650   2.683
 1456SOL    MW4 5856   4.465   2.729   2.647
 1457SOL     OW 5857   0.216   2.796   2.787
 1457SOL    HW2 5858   0.226   2.886   2.756
 1457SOL    HW3 5859   0.135   2.765   2.747
 1457SOL    MW4 5860   0.207   2.804   2.778
 1458SOL     OW 5861   0.240   3.040   2.656
 1458SOL    HW2 5862   0.323   3.087   2.666
 1458SOL    HW3 5863   0.228   3.034   2.561
 1458SOL    MW4 5864   0.249   3.045   2.645
 1459SOL     OW 5865   0.035   3.218   2.765
 1459SOL    HW2 5866  -0.035   3.171   2.718
 1459SOL    HW3 5867   0.115   3.174   2.739
 1459SOL    MW4 5868   0.036   3.206   2.755
 1460SOL     OW 5869   4.476   3.478   2.643
 1460SOL    HW2 5870   4.556   3.526   2.667
 1460SOL    HW3 5871   4.492   3.390   2.676
 1460SOL    MW4 5872   4.489   3.473   2.650
 1461SOL     OW 5873   0.214   3.599   2.754
 1461SOL    HW2 5874   0.214   3.589   2.849
 1461SOL    HW3 5875   0.291   3.551   2.724
 1461SOL    MW4 5876   0.224   3.591   2.762
 1462SOL     OW 5877   0.230   3.843   2.605
 1462SOL    HW2 5878   0.216   3.756   2.642
 1462SOL    HW3 5879   0.237   3.829   2.511
 1462SOL    MW4 5880   0.229   3.830   2.598
 1463SOL     OW 5881   0.019   4.011   2.720
 1463SOL    HW2 5882   0.026   4.097   2.677
 1463SOL    HW3 5883   0.104   3.970   2.705
 1463SOL    MW4 5884   0.031   4.017   2.712
 1464SOL     OW 5885   0.006   4.249   2.586
 1464SOL    HW2 5886  -0.049   4.309   2.637
 1464SOL    HW3 5887   0.095   4.284   2.594
 1464SOL    MW4 5888   0.011   4.261   2.594
 1465SOL     OW 5889   0.234   4.377   2.686
 1465SOL    HW2 5890   0.253   4.381   2.780
 1465SOL    HW3 5891   0.311   4.335   2.647
 1465SOL    MW4 5892   0.247   4.372   2.693
 1466SOL     OW 5893   0.652   4.642   2.576
 1466SOL    HW2 5894   0.715   4.696   2.624
 1466SOL    HW3 5895   0.566   4.670   2.609
 1466SOL    MW4 5896   0.649   4.653   2.587
 1467SOL     OW 5897   0.425   0.072   2.715
 1467SOL    HW2 5898   0.413   0.061   2.809
 1467SOL    HW3 5899   0.343   0.039   2.677
 1467SOL    MW4 5900   0.412   0.066   2.722
 1468SOL     OW 5901   0.469   0.354   2.605
 1468SOL    HW2 5902   0.534   0.408   2.649
 1468SOL    HW3 5903   0.453   0.281   2.665
 1468SOL    MW4 5904   0.475   0.352   2.618
 1469SOL     OW 5905   0.662   0.501   2.741
 1469SOL    HW2 5906   0.662   0.491   2.836
 1469SOL    HW3 5907   0.746   0.463   2.713
 1469SOL    MW4 5908   0.673   0.495   2.750
 1470SOL     OW 5909   0.658   0.744   2.610
 1470SOL    HW2 5910   0.729   0.793   2.651
 1470SOL    HW3 5911   0.658   0.659   2.654
 1470SOL    MW4 5912   0.667   0.739   2.621
 1471SOL     OW 5913   0.469   0.903   2.735
 1471SOL    HW2 5914   0.467   0.992   2.702
 1471SOL    HW3 5915   0.531   0.857   2.677
 1471SOL    MW4 5916   0.477   0.909   2.723
 1472SOL     OW 5917   0.458   1.164   2.630
 1472SOL    HW2 5918   0.536   1.208   2.664
 1472SOL    HW3 5919   0.474   1.156   2.536
 1472SOL    MW4 5920   0.470   1.168   2.622
 1473SOL     OW 5921   0.685   1.286   2.709
 1473SOL    HW2 5922   0.704   1.280   2.803
 1473SOL    HW3 5923   0.751   1.230   2.668
 1473SOL    MW4 5924   0.697   1.278   2.716
 1474SOL     OW 5925   0.723   1.531   2.614
 1474SOL    HW2 5926   0.648   1.581   2.646
 1474SOL    HW3 5927   0.713   1.444   2.652
 1474SOL    MW4 5928   0.712   1.527   2.623
 1475SOL     OW 5929   0.505   1.673   2.728
 1475SOL    HW2 5930   0.497   1.672   2.823
 1475SOL    HW3 5931   0.487   1.763   2.703
 1475SOL    MW4 5932   0.502   1.685   2.737
 1476SOL     OW 5933   0.451   1.927   2.634
 1476SOL    HW2 5934   0.531   1.973   2.659
 1476SOL    HW3 5935   0.455   1.923   2.538
 1476SOL    MW4 5936   0.462   1.932   2.624
 1477SOL     OW 5937   0.703   2.044   2.744
 1477SOL    HW2 5938   0.701   2.055   2.839
 1477SOL    HW3 5939   0.773   1.981   2.729
 1477SOL    MW4 5940   0.712   2.037   2.755
 1478SOL     OW 5941   0.656   2.288   2.629
 1478SOL    HW2 5942   0.729   2.343   2.658
 1478SOL    HW3 5943   0.676   2.201   2.663
 1478SOL    MW4 5944   0.668   2.284   2.637
 1479SOL     OW 5945   0.455   2.444   2.764
 1479SOL    HW2 5946   0.435   2.519   2.708
 1479SOL    HW3 5947   0.524   2.397   2.718
 1479SOL    MW4 5948   0.461   2.448   2.751
 1480SOL     OW 5949   0.407   2.682   2.625
 1480SOL    HW2 5950   0.474   2.742   2.656
 1480SOL    HW3 5951   0.328   2.709   2.671
 1480SOL    MW4 5952   0.405   2.694   2.635
 1481SOL     OW 5953   0.647   2.818   2.705
 1481SOL    HW2 5954   0.656   2.810   2.800
 1481SOL    HW3 5955   0.680   2.906   2.685
 1481SOL    MW4 5956   0.652   2.829   2.715
 1482SOL     OW 5957   0.728   3.058   2.598
 1482SOL    HW2 5958   0.795   3.103   2.649
 1482SOL    HW3 5959   0.738   3.093   2.510
 1482SOL    MW4 5960   0.738   3.069   2.593
 1483SOL     OW 5961   0.491   3.161   2.691
 1483SOL    HW2 5962   0.497   3.195   2.780
 1483SOL    HW3 5963   0.577   3.120   2.676
 1483SOL    MW4 5964   0.503   3.160   2.701
 1484SOL     OW 5965   0.439   3.455   2.618
 1484SOL    HW2 5966   0.466   3.364   2.616
 1484SOL    HW3 5967   0.450   3.486   2.528
 1484SOL    MW4 5968   0.444   3.447   2.606
 1485SOL     OW 5969   0.651   3.618   2.715
 1485SOL    HW2 5970   0.649   3.617   2.811
 1485SOL    HW3 5971   0.579   3.560   2.689
 1485SOL    MW4 5972   0.641   3.610   2.724
 1486SOL     OW 5973   0.666   3.878   2.593
 1486SOL    HW2 5974   0.595   3.925   2.637
 1486SOL    HW3 5975   0.656   3.787   2.622
 1486SOL    MW4 5976   0.656   3.872   2.603
 1487SOL     OW 5977   0.445   3.995   2.712
 1487SOL    HW2 5978   0.414   4.081   2.687
 1487SOL    HW3 5979   0.377   3.935   2.683
 1487SOL    MW4 5980   0.432   3.998   2.705
 1488SOL     OW 5981   0.449   4.245   2.586
 1488SOL    HW2 5982   0.518   4.296   2.630
 1488SOL    HW3 5983   0.464   4.260   2.493
 1488SOL    MW4 5984   0.460   4.254   2.579
 1489SOL     OW 5985   0.663   4.386   2.724
 1489SOL    HW2 5986   0.743   4.339   2.702
 1489SOL    HW3 5987   0.670   4.469   2.677
 1489SOL    MW4 5988   0.675   4.391   2.715
 1490SOL     OW 5989   1.104   4.638   2.625
 1490SOL    HW2 5990   1.178   4.689   2.658
 1490SOL    HW3 5991   1.130   4.547   2.638
 1490SOL    MW4 5992   1.117   4.633   2.631
 1491SOL     OW 5993   0.869   0.096   2.724
 1491SOL    HW2 5994   0.878   0.087   2.819
 1491SOL    HW3 5995   0.943   0.046   2.688
 1491SOL    MW4 5996   0.880   0.088   2.731
 1492SOL     OW 5997   0.883   0.372   2.638
 1492SOL    HW2 5998   0.876   0.281   2.666
 1492SOL    HW3 5999   0.854   0.371   2.546
 1492SOL    MW4 6000   0.878   0.360   2.629
 1493SOL     OW 6001   1.123   0.514   2.696
 1493SOL    HW2 6002   1.120   0.594   2.644
 1493SOL    HW3 6003   1.047   0.464   2.667
 1493SOL    MW4 6004   1.113   0.518   2.685
 1494SOL     OW 6005   1.118   0.766   2.566
 1494SOL    HW2 6006   1.178   0.825   2.612
 1494SOL    HW3 6007   1.138   0.779   2.473
 1494SOL    MW4 6008   1.128   0.776   2.560
 1495SOL     OW 6009   0.878   0.862   2.709
 1495SOL    HW2 6010   0.895   0.866   2.803
 1495SOL    HW3 6011   0.956   0.820   2.673
 1495SOL    MW4 6012   0.891   0.857   2.717
 1496SOL     OW 6013   0.896   1.123   2.610
 1496SOL    HW2 6014   0.886   1.038   2.652
 1496SOL    HW3 6015   0.904   1.104   2.517
 1496SOL    MW4 6016   0.896   1.109   2.604
 1497SOL     OW 6017   1.128   1.259   2.718
 1497SOL    HW2 6018   1.123   1.351   2.692
 1497SOL    HW3 6019   1.042   1.223   2.694
 1497SOL    MW4 6020   1.116   1.266   2.711
 1498SOL     OW 6021   1.110   1.518   2.642
 1498SOL    HW2 6022   1.033   1.566   2.674
 1498SOL    HW3 6023   1.096   1.511   2.548
 1498SOL    MW4 6024   1.098   1.523   2.634
 1499SOL     OW 6025   0.923   1.669   2.752
 1499SOL    HW2 6026   0.921   1.664   2.847
 1499SOL    HW3 6027   0.847   1.618   2.724
 1499SOL    MW4 6028   0.913   1.662   2.761
 1500SOL     OW 6029   0.914   1.912   2.606
 1500SOL    HW2 6030   0.991   1.950   2.648
 1500SOL    HW3 6031   0.900   1.829   2.651
 1500SOL    MW4 6032   0.922   1.906   2.617
 1501SOL     OW 6033   1.124   2.064   2.728
 1501SOL    HW2 6034   1.209   2.035   2.697
 1501SOL    HW3 6035   1.124   2.158   2.714
 1501SOL    MW4 6036   1.135   2.072   2.722
 1502SOL     OW 6037   1.119   2.335   2.653
 1502SOL    HW2 6038   1.181   2.398   2.690
 1502SOL    HW3 6039   1.116   2.357   2.560
 1502SOL    MW4 6040   1.127   2.346   2.646
 1503SOL     OW 6041   0.884   2.437   2.722
 1503SOL    HW2 6042   0.877   2.516   2.669
 1503SOL    HW3 6043   0.969   2.400   2.700
 1503SOL    MW4 6044   0.894   2.443   2.712
 1504SOL     OW 6045   0.856   2.678   2.609
 1504SOL    HW2 6046   0.934   2.724   2.642
 1504SOL    HW3 6047   0.782   2.728   2.643
 1504SOL    MW4 6048   0.857   2.691   2.618
 1505SOL     OW 6049   1.083   2.832   2.689
 1505SOL    HW2 6050   1.106   2.825   2.782
 1505SOL    HW3 6051   1.159   2.795   2.643
 1505SOL    MW4 6052   1.096   2.826   2.695
 1506SOL     OW 6053   1.148   3.096   2.638
 1506SOL    HW2 6054   1.122   3.007   2.661
 1506SOL    HW3 6055   1.136   3.101   2.543
 1506SOL    MW4 6056   1.143   3.085   2.628
 1507SOL     OW 6057   0.919   3.208   2.733
 1507SOL    HW2 6058   0.903   3.286   2.680
 1507SOL    HW3 6059   1.006   3.179   2.705
 1507SOL    MW4 6060   0.928   3.215   2.722
 1508SOL     OW 6061   0.887   3.462   2.622
 1508SOL    HW2 6062   0.961   3.508   2.664
 1508SOL    HW3 6063   0.810   3.512   2.650
 1508SOL    MW4 6064   0.887   3.475   2.631
 1509SOL     OW 6065   1.102   3.599   2.742
 1509SOL    HW2 6066   1.101   3.626   2.834
 1509SOL    HW3 6067   1.100   3.681   2.693
 1509SOL    MW4 6068   1.102   3.613   2.748
 1510SOL     OW 6069   1.098   3.851   2.608
 1510SOL    HW2 6070   1.178   3.889   2.645
 1510SOL    HW3 6071   1.110   3.859   2.513
 1510SOL    MW4 6072   1.110   3.857   2.600
 1511SOL     OW 6073   0.893   4.008   2.722
 1511SOL    HW2 6074   0.958   3.963   2.668
 1511SOL    HW3 6075   0.809   3.970   2.695
 1511SOL    MW4 6076   0.890   3.997   2.712
 1512SOL     OW 6077   0.888   4.266   2.633
 1512SOL    HW2 6078   0.892   4.174   2.658
 1512SOL    HW3 6079   0.884   4.265   2.537
 1512SOL    MW4 6080   0.888   4.254   2.624
 1513SOL     OW 6081   1.144   4.351   2.734
 1513SOL    HW2 6082   1.137   4.378   2.826
 1513SOL    HW3 6083   1.055   4.327   2.709
 1513SOL    MW4 6084   1.131   4.351   2.743
 1514SOL     OW 6085   1.564   0.025   2.627
 1514SOL    HW2 6086   1.555  -0.064   2.663
 1514SOL    HW3 6087   1.589   0.010   2.535
 1514SOL    MW4 6088   1.566   0.011   2.619
 1515SOL     OW 6089   1.314   0.112   2.725
 1515SOL    HW2 6090   1.298   0.200   2.691
 1515SOL    HW3 6091   1.397   0.085   2.686
 1515SOL    MW4 6092   1.323   0.120   2.716
 1516SOL     OW 6093   1.353   0.362   2.608
 1516SOL    HW2 6094   1.437   0.383   2.650
 1516SOL    HW3 6095   1.294   0.432   2.637
 1516SOL    MW4 6096   1.356   0.374   2.617
 1517SOL     OW 6097   1.573   0.492   2.750
 1517SOL    HW2 6098   1.656   0.462   2.713
 1517SOL    HW3 6099   1.554   0.573   2.703
 1517SOL    MW4 6100   1.582   0.499   2.739
 1518SOL     OW 6101   1.524   0.738   2.612
 1518SOL    HW2 6102   1.453   0.787   2.654
 1518SOL    HW3 6103   1.519   0.762   2.520
 1518SOL    MW4 6104   1.514   0.748   2.606
 1519SOL     OW 6105   1.330   0.885   2.715
 1519SOL    HW2 6106   1.317   0.868   2.809
 1519SOL    HW3 6107   1.337   0.980   2.709
 1519SOL    MW4 6108   1.329   0.895   2.727
 1520SOL     OW 6109   1.362   1.147   2.639
 1520SOL    HW2 6110   1.437   1.202   2.660
 1520SOL    HW3 6111   1.287   1.195   2.674
 1520SOL    MW4 6112   1.362   1.161   2.646
 1521SOL     OW 6113   1.594   1.288   2.691
 1521SOL    HW2 6114   1.611   1.281   2.785
 1521SOL    HW3 6115   1.654   1.224   2.652
 1521SOL    MW4 6116   1.604   1.279   2.699
 1522SOL     OW 6117   1.568   1.555   2.626
 1522SOL    HW2 6118   1.580   1.465   2.654
 1522SOL    HW3 6119   1.554   1.550   2.532
 1522SOL    MW4 6120   1.567   1.543   2.618
 1523SOL     OW 6121   1.326   1.680   2.718
 1523SOL    HW2 6122   1.404   1.637   2.684
 1523SOL    HW3 6123   1.253   1.627   2.686
 1523SOL    MW4 6124   1.327   1.667   2.709
 1524SOL     OW 6125   1.365   1.958   2.670
 1524SOL    HW2 6126   1.359   1.865   2.693
 1524SOL    HW3 6127   1.362   1.959   2.574
 1524SOL    MW4 6128   1.364   1.946   2.660
 1525SOL     OW 6129   1.591   2.092   2.709
 1525SOL    HW2 6130   1.662   2.032   2.687
 1525SOL    HW3 6131   1.512   2.040   2.700
 1525SOL    MW4 6132   1.590   2.078   2.705
 1526SOL     OW 6133   1.523   2.334   2.602
 1526SOL    HW2 6134   1.599   2.382   2.636
 1526SOL    HW3 6135   1.541   2.243   2.624
 1526SOL    MW4 6136   1.536   2.328   2.610
 1527SOL     OW 6137   1.331   2.483   2.730
 1527SOL    HW2 6138   1.322   2.568   2.686
 1527SOL    HW3 6139   1.400   2.439   2.682
 1527SOL    MW4 6140   1.339   2.489   2.718
 1528SOL     OW 6141   1.324   2.733   2.610
 1528SOL    HW2 6142   1.394   2.784   2.650
 1528SOL    HW3 6143   1.359   2.707   2.525
 1528SOL    MW4 6144   1.338   2.736   2.604
 1529SOL     OW 6145   1.575   2.824   2.730
 1529SOL    HW2 6146   1.579   2.816   2.825
 1529SOL    HW3 6147   1.663   2.800   2.699
 1529SOL    MW4 6148   1.587   2.820   2.738
 1530SOL     OW 6149   1.568   3.056   2.591
 1530SOL    HW2 6150   1.631   3.107   2.643
 1530SOL    HW3 6151   1.563   2.972   2.637
 1530SOL    MW4 6152   1.576   3.052   2.604
 1531SOL     OW 6153   1.378   3.213   2.732
 1531SOL    HW2 6154   1.454   3.176   2.688
 1531SOL    HW3 6155   1.304   3.164   2.697
 1531SOL    MW4 6156   1.378   3.201   2.722
 1532SOL     OW 6157   1.344   3.487   2.660
 1532SOL    HW2 6158   1.343   3.397   2.693
 1532SOL    HW3 6159   1.258   3.521   2.684
 1532SOL    MW4 6160   1.332   3.479   2.668
 1533SOL     OW 6161   1.591   3.611   2.731
 1533SOL    HW2 6162   1.655   3.570   2.674
 1533SOL    HW3 6163   1.507   3.575   2.703
 1533SOL    MW4 6164   1.588   3.601   2.720
 1534SOL     OW 6165   1.546   3.863   2.609
 1534SOL    HW2 6166   1.464   3.904   2.636
 1534SOL    HW3 6167   1.550   3.782   2.660
 1534SOL    MW4 6168   1.535   3.858   2.619
 1535SOL     OW 6169   1.332   3.969   2.726
 1535SOL    HW2 6170   1.329   3.977   2.822
 1535SOL    HW3 6171   1.337   4.059   2.695
 1535SOL    MW4 6172   1.332   3.982   2.735
 1536SOL     OW 6173   1.360   4.218   2.641
 1536SOL    HW2 6174   1.281   4.249   2.687
 1536SOL    HW3 6175   1.345   4.241   2.549
 1536SOL    MW4 6176   1.347   4.225   2.635
 1537SOL     OW 6177   1.531   4.423   2.714
 1537SOL    HW2 6178   1.539   4.405   2.808
 1537SOL    HW3 6179   1.461   4.365   2.685
 1537SOL    MW4 6180   1.523   4.413   2.723
 1538SOL     OW 6181   2.004   0.043   2.633
 1538SOL    HW2 6182   2.085   0.068   2.678
 1538SOL    HW3 6183   2.025   0.050   2.540
 1538SOL    MW4 6184   2.017   0.047   2.627
 1539SOL     OW 6185   1.764   0.163   2.754
 1539SOL    HW2 6186   1.839   0.112   2.724
 1539SOL    HW3 6187   1.688   0.116   2.720
 1539SOL    MW4 6188   1.764   0.150   2.746
 1540SOL     OW 6189   1.798   0.396   2.618
 1540SOL    HW2 6190   1.867   0.444   2.665
 1540SOL    HW3 6191   1.796   0.310   2.659
 1540SOL    MW4 6192   1.807   0.391   2.630
 1541SOL     OW 6193   1.991   0.511   2.766
 1541SOL    HW2 6194   2.067   0.464   2.731
 1541SOL    HW3 6195   2.000   0.599   2.728
 1541SOL    MW4 6196   2.003   0.517   2.756
 1542SOL     OW 6197   1.991   0.765   2.643
 1542SOL    HW2 6198   1.905   0.807   2.656
 1542SOL    HW3 6199   2.009   0.778   2.550
 1542SOL    MW4 6200   1.982   0.773   2.633
 1543SOL     OW 6201   1.752   0.854   2.705
 1543SOL    HW2 6202   1.756   0.943   2.672
 1543SOL    HW3 6203   1.670   0.818   2.672
 1543SOL    MW4 6204   1.742   0.861   2.697
 1544SOL     OW 6205   1.812   1.120   2.616
 1544SOL    HW2 6206   1.889   1.170   2.641
 1544SOL    HW3 6207   1.794   1.146   2.526
 1544SOL    MW4 6208   1.819   1.130   2.607
 1545SOL     OW 6209   2.022   1.286   2.691
 1545SOL    HW2 6210   2.008   1.305   2.784
 1545SOL    HW3 6211   2.105   1.238   2.689
 1545SOL    MW4 6212   2.031   1.282   2.703
 1546SOL     OW 6213   2.038   1.550   2.622
 1546SOL    HW2 6214   1.962   1.596   2.657
 1546SOL    HW3 6215   2.032   1.462   2.659
 1546SOL    MW4 6216   2.027   1.545   2.631
 1547SOL     OW 6217   1.818   1.687   2.719
 1547SOL    HW2 6218   1.821   1.685   2.815
 1547SOL    HW3 6219   1.734   1.648   2.697
 1547SOL    MW4 6220   1.807   1.681   2.729
 1548SOL     OW 6221   1.819   1.955   2.603
 1548SOL    HW2 6222   1.894   1.996   2.647
 1548SOL    HW3 6223   1.831   1.862   2.620
 1548SOL    MW4 6224   1.830   1.948   2.611
 1549SOL     OW 6225   2.021   2.083   2.731
 1549SOL    HW2 6226   2.008   2.090   2.826
 1549SOL    HW3 6227   1.998   2.170   2.698
 1549SOL    MW4 6228   2.016   2.096   2.739
 1550SOL     OW 6229   1.992   2.348   2.631
 1550SOL    HW2 6230   2.070   2.379   2.678
 1550SOL    HW3 6231   2.017   2.349   2.539
 1550SOL    MW4 6232   2.005   2.352   2.625
 1551SOL     OW 6233   1.753   2.459   2.701
 1551SOL    HW2 6234   1.733   2.445   2.793
 1551SOL    HW3 6235   1.830   2.406   2.684
 1551SOL    MW4 6236   1.760   2.450   2.711
 1552SOL     OW 6237   1.814   2.714   2.626
 1552SOL    HW2 6238   1.794   2.622   2.640
 1552SOL    HW3 6239   1.819   2.724   2.531
 1552SOL    MW4 6240   1.812   2.704   2.615
 1553SOL     OW 6241   2.003   2.853   2.770
 1553SOL    HW2 6242   2.078   2.807   2.732
 1553SOL    HW3 6243   1.927   2.819   2.722
 1553SOL    MW4 6244   2.003   2.842   2.759
 1554SOL     OW 6245   2.001   3.088   2.647
 1554SOL    HW2 6246   2.021   3.009   2.697
 1554SOL    HW3 6247   2.007   3.061   2.555
 1554SOL    MW4 6248   2.005   3.074   2.642
 1555SOL     OW 6249   1.757   3.228   2.710
 1555SOL    HW2 6250   1.750   3.313   2.667
 1555SOL    HW3 6251   1.838   3.191   2.676
 1555SOL    MW4 6252   1.767   3.234   2.700
 1556SOL     OW 6253   1.764   3.470   2.578
 1556SOL    HW2 6254   1.840   3.509   2.621
 1556SOL    HW3 6255   1.786   3.471   2.484
 1556SOL    MW4 6256   1.777   3.476   2.571
 1557SOL     OW 6257   1.993   3.597   2.728
 1557SOL    HW2 6258   2.017   3.583   2.819
 1557SOL    HW3 6259   2.069   3.569   2.678
 1557SOL    MW4 6260   2.006   3.592   2.733
 1558SOL     OW 6261   1.978   3.895   2.629
 1558SOL    HW2 6262   1.897   3.947   2.629
 1558SOL    HW3 6263   1.961   3.825   2.693
 1558SOL    MW4 6264   1.965   3.893   2.637
 1559SOL     OW 6265   1.750   4.046   2.669
 1559SOL    HW2 6266   1.731   4.140   2.664
 1559SOL    HW3 6267   1.668   4.004   2.642
 1559SOL    MW4 6268   1.736   4.053   2.665
 1560SOL     OW 6269   1.766   4.325   2.594
 1560SOL    HW2 6270   1.675   4.338   2.621
 1560SOL    HW3 6271   1.760   4.309   2.500
 1560SOL    MW4 6272   1.753   4.325   2.585
 1561SOL     OW 6273   2.001   4.427   2.712
 1561SOL    HW2 6274   1.921   4.388   2.677
 1561SOL    HW3 6275   2.001   4.517   2.679
 1561SOL    MW4 6276   1.991   4.433   2.703
 1562SOL     OW 6277   2.471   4.664   2.669
 1562SOL    HW2 6278   2.552   4.709   2.693
 1562SOL    HW3 6279   2.467   4.670   2.574
 1562SOL    MW4 6280   2.481   4.671   2.660
 1563SOL     OW 6281   2.248   0.123   2.735
 1563SOL    HW2 6282   2.258   0.120   2.830
 1563SOL    HW3 6283   2.331   0.090   2.700
 1563SOL    MW4 6284   2.260   0.118   2.743
 1564SOL     OW 6285   2.209   0.385   2.653
 1564SOL    HW2 6286   2.216   0.297   2.691
 1564SOL    HW3 6287   2.236   0.374   2.562
 1564SOL    MW4 6288   2.214   0.372   2.646
 1565SOL     OW 6289   2.446   0.493   2.749
 1565SOL    HW2 6290   2.442   0.583   2.717
 1565SOL    HW3 6291   2.359   0.458   2.731
 1565SOL    MW4 6292   2.434   0.500   2.742
 1566SOL     OW 6293   2.433   0.746   2.655
 1566SOL    HW2 6294   2.353   0.790   2.682
 1566SOL    HW3 6295   2.438   0.762   2.560
 1566SOL    MW4 6296   2.423   0.754   2.646
 1567SOL     OW 6297   2.223   0.889   2.754
 1567SOL    HW2 6298   2.211   0.890   2.849
 1567SOL    HW3 6299   2.144   0.846   2.720
 1567SOL    MW4 6300   2.211   0.884   2.762
 1568SOL     OW 6301   2.266   1.151   2.661
 1568SOL    HW2 6302   2.266   1.063   2.699
 1568SOL    HW3 6303   2.306   1.140   2.575
 1568SOL    MW4 6304   2.271   1.138   2.655
 1569SOL     OW 6305   2.484   1.301   2.753
 1569SOL    HW2 6306   2.559   1.262   2.708
 1569SOL    HW3 6307   2.410   1.247   2.726
 1569SOL    MW4 6308   2.484   1.289   2.743
 1570SOL     OW 6309   2.474   1.531   2.614
 1570SOL    HW2 6310   2.403   1.576   2.660
 1570SOL    HW3 6311   2.485   1.449   2.660
 1570SOL    MW4 6312   2.466   1.526   2.626
 1571SOL     OW 6313   2.269   1.681   2.723
 1571SOL    HW2 6314   2.266   1.771   2.690
 1571SOL    HW3 6315   2.189   1.641   2.691
 1571SOL    MW4 6316   2.258   1.688   2.714
 1572SOL     OW 6317   2.268   1.972   2.633
 1572SOL    HW2 6318   2.181   1.998   2.664
 1572SOL    HW3 6319   2.260   1.973   2.537
 1572SOL    MW4 6320   2.255   1.975   2.624
 1573SOL     OW 6321   2.500   2.093   2.781
 1573SOL    HW2 6322   2.497   2.183   2.751
 1573SOL    HW3 6323   2.433   2.048   2.730
 1573SOL    MW4 6324   2.491   2.099   2.770
 1574SOL     OW 6325   2.486   2.346   2.664
 1574SOL    HW2 6326   2.563   2.388   2.703
 1574SOL    HW3 6327   2.510   2.335   2.572
 1574SOL    MW4 6328   2.500   2.350   2.657
 1575SOL     OW 6329   2.236   2.436   2.728
 1575SOL    HW2 6330   2.234   2.446   2.823
 1575SOL    HW3 6331   2.326   2.409   2.709
 1575SOL    MW4 6332   2.248   2.434   2.738
 1576SOL     OW 6333   2.204   2.697   2.647
 1576SOL    HW2 6334   2.279   2.741   2.686
 1576SOL    HW3 6335   2.209   2.607   2.679
 1576SOL    MW4 6336   2.214   2.691   2.656
 1577SOL     OW 6337   2.447   2.840   2.715
 1577SOL    HW2 6338   2.536   2.804   2.707
 1577SOL    HW3 6339   2.456   2.932   2.692
 1577SOL    MW4 6340   2.460   2.847   2.711
 1578SOL     OW 6341   2.438   3.132   2.639
 1578SOL    HW2 6342   2.349   3.156   2.666
 1578SOL    HW3 6343   2.432   3.122   2.544
 1578SOL    MW4 6344   2.425   3.134   2.630
 1579SOL     OW 6345   2.204   3.265   2.739
 1579SOL    HW2 6346   2.221   3.257   2.833
 1579SOL    HW3 6347   2.134   3.202   2.722
 1579SOL    MW4 6348   2.197   3.256   2.749
 1580SOL     OW 6349   2.192   3.495   2.587
 1580SOL    HW2 6350   2.267   3.539   2.628
 1580SOL    HW3 6351   2.195   3.405   2.619
 1580SOL    MW4 6352   2.202   3.489   2.597
 1581SOL     OW 6353   2.410   3.648   2.716
 1581SOL    HW2 6354   2.412   3.670   2.809
 1581SOL    HW3 6355   2.439   3.728   2.672
 1581SOL    MW4 6356   2.414   3.661   2.722
 1582SOL     OW 6357   2.450   3.880   2.557
 1582SOL    HW2 6358   2.520   3.915   2.613
 1582SOL    HW3 6359   2.370   3.922   2.588
 1582SOL    MW4 6360   2.449   3.890   2.568
 1583SOL     OW 6361   2.227   4.017   2.665
 1583SOL    HW2 6362   2.249   4.007   2.758
 1583SOL    HW3 6363   2.143   3.972   2.656
 1583SOL    MW4 6364   2.219   4.009   2.676
 1584SOL     OW 6365   2.244   4.294   2.605
 1584SOL    HW2 6366   2.229   4.203   2.629
 1584SOL    HW3 6367   2.168   4.341   2.639
 1584SOL    MW4 6368   2.232   4.288   2.613
 1585SOL     OW 6369   2.462   4.392   2.750
 1585SOL    HW2 6370   2.392   4.359   2.694
 1585SOL    HW3 6371   2.475   4.483   2.720
 1585SOL    MW4 6372   2.455   4.400   2.738
 1586SOL     OW 6373   2.881   4.648   2.670
 1586SOL    HW2 6374   2.964   4.688   2.697
 1586SOL    HW3 6375   2.874   4.668   2.577
 1586SOL    MW4 6376   2.891   4.656   2.661
 1587SOL     OW 6377   2.689   0.141   2.755
 1587SOL    HW2 6378   2.672   0.142   2.850
 1587SOL    HW3 6379   2.754   0.073   2.743
 1587SOL    MW4 6380   2.695   0.132   2.766
 1588SOL     OW 6381   2.705   0.390   2.658
 1588SOL    HW2 6382   2.701   0.299   2.687
 1588SOL    HW3 6383   2.616   0.423   2.672
 1588SOL    MW4 6384   2.692   0.383   2.663
 1589SOL     OW 6385   2.931   0.515   2.721
 1589SOL    HW2 6386   2.935   0.608   2.697
 1589SOL    HW3 6387   2.842   0.489   2.698
 1589SOL    MW4 6388   2.920   0.524   2.715
 1590SOL     OW 6389   2.921   0.784   2.660
 1590SOL    HW2 6390   2.989   0.839   2.698
 1590SOL    HW3 6391   2.839   0.819   2.695
 1590SOL    MW4 6392   2.919   0.796   2.669
 1591SOL     OW 6393   2.653   0.881   2.748
 1591SOL    HW2 6394   2.657   0.849   2.839
 1591SOL    HW3 6395   2.590   0.823   2.705
 1591SOL    MW4 6396   2.645   0.869   2.755
 1592SOL     OW 6397   2.670   1.147   2.631
 1592SOL    HW2 6398   2.748   1.186   2.672
 1592SOL    HW3 6399   2.655   1.066   2.679
 1592SOL    MW4 6400   2.679   1.142   2.643
 1593SOL     OW 6401   2.882   1.291   2.744
 1593SOL    HW2 6402   2.888   1.280   2.839
 1593SOL    HW3 6403   2.972   1.280   2.713
 1593SOL    MW4 6404   2.895   1.288   2.752
 1594SOL     OW 6405   2.903   1.562   2.679
 1594SOL    HW2 6406   2.823   1.610   2.704
 1594SOL    HW3 6407   2.886   1.472   2.708
 1594SOL    MW4 6408   2.890   1.557   2.686
 1595SOL     OW 6409   2.678   1.713   2.714
 1595SOL    HW2 6410   2.689   1.696   2.808
 1595SOL    HW3 6411   2.605   1.657   2.688
 1595SOL    MW4 6412   2.670   1.703   2.723
 1596SOL     OW 6413   2.681   1.963   2.621
 1596SOL    HW2 6414   2.684   1.873   2.653
 1596SOL    HW3 6415   2.620   2.007   2.680
 1596SOL    MW4 6416   2.673   1.957   2.633
 1597SOL     OW 6417   2.907   2.098   2.686
 1597SOL    HW2 6418   2.916   2.183   2.643
 1597SOL    HW3 6419   2.827   2.061   2.650
 1597SOL    MW4 6420   2.898   2.104   2.676
 1598SOL     OW 6421   2.924   2.351   2.576
 1598SOL    HW2 6422   3.004   2.376   2.623
 1598SOL    HW3 6423   2.853   2.384   2.630
 1598SOL    MW4 6424   2.925   2.358   2.589
 1599SOL     OW 6425   2.740   2.454   2.753
 1599SOL    HW2 6426   2.739   2.439   2.847
 1599SOL    HW3 6427   2.721   2.547   2.742
 1599SOL    MW4 6428   2.738   2.464   2.764
 1600SOL     OW 6429   2.712   2.737   2.680
 1600SOL    HW2 6430   2.790   2.793   2.684
 1600SOL    HW3 6431   2.701   2.718   2.587
 1600SOL    MW4 6432   2.721   2.742   2.668
 1601SOL     OW 6433   2.966   2.864   2.723
 1601SOL    HW2 6434   2.963   2.872   2.819
 1601SOL    HW3 6435   2.959   2.954   2.692
 1601SOL    MW4 6436   2.964   2.877   2.732
 1602SOL     OW 6437   2.938   3.127   2.647
 1602SOL    HW2 6438   2.852   3.162   2.668
 1602SOL    HW3 6439   2.937   3.115   2.552
 1602SOL    MW4 6440   2.927   3.130   2.637
 1603SOL     OW 6441   2.676   3.262   2.694
 1603SOL    HW2 6442   2.680   3.355   2.670
 1603SOL    HW3 6443   2.589   3.233   2.663
 1603SOL    MW4 6444   2.665   3.270   2.687
 1604SOL     OW 6445   2.667   3.533   2.666
 1604SOL    HW2 6446   2.589   3.575   2.703
 1604SOL    HW3 6447   2.649   3.530   2.572
 1604SOL    MW4 6448   2.655   3.538   2.658
 1605SOL     OW 6449   2.899   3.637   2.762
 1605SOL    HW2 6450   2.907   3.640   2.858
 1605SOL    HW3 6451   2.813   3.598   2.746
 1605SOL    MW4 6452   2.889   3.632   2.773
 1606SOL     OW 6453   2.911   3.876   2.641
 1606SOL    HW2 6454   2.984   3.928   2.675
 1606SOL    HW3 6455   2.920   3.792   2.686
 1606SOL    MW4 6456   2.922   3.872   2.651
 1607SOL     OW 6457   2.667   3.977   2.710
 1607SOL    HW2 6458   2.678   4.068   2.682
 1607SOL    HW3 6459   2.754   3.938   2.698
 1607SOL    MW4 6460   2.680   3.984   2.704
 1608SOL     OW 6461   2.677   4.249   2.624
 1608SOL    HW2 6462   2.741   4.284   2.686
 1608SOL    HW3 6463   2.596   4.295   2.646
 1608SOL    MW4 6464   2.674   4.260   2.635
 1609SOL     OW 6465   2.899   4.379   2.737
 1609SOL    HW2 6466   2.912   4.391   2.831
 1609SOL    HW3 6467   2.887   4.468   2.704
 1609SOL    MW4 6468   2.899   4.393   2.745
 1610SOL     OW 6469   3.337   0.024   2.652
 1610SOL    HW2 6470   3.317  -0.065   2.682
 1610SOL    HW3 6471   3.274   0.079   2.698
 1610SOL    MW4 6472   3.326   0.019   2.662
 1611SOL     OW 6473   3.093   0.127   2.771
 1611SOL    HW2 6474   3.105   0.129   2.866
 1611SOL    HW3 6475   3.086   0.219   2.746
 1611SOL    MW4 6476   3.094   0.140   2.780
 1612SOL     OW 6477   3.166   0.360   2.659
 1612SOL    HW2 6478   3.100   0.425   2.686
 1612SOL    HW3 6479   3.157   0.355   2.564
 1612SOL    MW4 6480   3.156   0.368   2.650
 1613SOL     OW 6481   3.371   0.496   2.764
 1613SOL    HW2 6482   3.354   0.583   2.728
 1613SOL    HW3 6483   3.299   0.442   2.730
 1613SOL    MW4 6484   3.359   0.500   2.755
 1614SOL     OW 6485   3.332   0.754   2.671
 1614SOL    HW2 6486   3.407   0.803   2.704
 1614SOL    HW3 6487   3.335   0.766   2.576
 1614SOL    MW4 6488   3.342   0.762   2.663
 1615SOL     OW 6489   3.144   0.937   2.750
 1615SOL    HW2 6490   3.135   0.931   2.845
 1615SOL    HW3 6491   3.213   0.874   2.728
 1615SOL    MW4 6492   3.152   0.928   2.759
 1616SOL     OW 6493   3.130   1.204   2.621
 1616SOL    HW2 6494   3.122   1.115   2.656
 1616SOL    HW3 6495   3.138   1.193   2.526
 1616SOL    MW4 6496   3.130   1.191   2.613
 1617SOL     OW 6497   3.364   1.292   2.733
 1617SOL    HW2 6498   3.366   1.296   2.829
 1617SOL    HW3 6499   3.273   1.269   2.713
 1617SOL    MW4 6500   3.352   1.289   2.743
 1618SOL     OW 6501   3.347   1.537   2.598
 1618SOL    HW2 6502   3.281   1.589   2.646
 1618SOL    HW3 6503   3.356   1.457   2.649
 1618SOL    MW4 6504   3.339   1.533   2.611
 1619SOL     OW 6505   3.162   1.676   2.724
 1619SOL    HW2 6506   3.159   1.768   2.697
 1619SOL    HW3 6507   3.071   1.647   2.717
 1619SOL    MW4 6508   3.150   1.684   2.719
 1620SOL     OW 6509   3.132   1.941   2.638
 1620SOL    HW2 6510   3.212   1.991   2.654
 1620SOL    HW3 6511   3.062   1.997   2.672
 1620SOL    MW4 6512   3.133   1.955   2.645
 1621SOL     OW 6513   3.382   2.038   2.709
 1621SOL    HW2 6514   3.372   2.048   2.803
 1621SOL    HW3 6515   3.395   2.128   2.677
 1621SOL    MW4 6516   3.383   2.052   2.717
 1622SOL     OW 6517   3.391   2.298   2.648
 1622SOL    HW2 6518   3.472   2.332   2.688
 1622SOL    HW3 6519   3.404   2.310   2.554
 1622SOL    MW4 6520   3.404   2.304   2.641
 1623SOL     OW 6521   3.153   2.442   2.693
 1623SOL    HW2 6522   3.175   2.534   2.678
 1623SOL    HW3 6523   3.238   2.397   2.693
 1623SOL    MW4 6524   3.167   2.448   2.691
 1624SOL     OW 6525   3.169   2.708   2.643
 1624SOL    HW2 6526   3.248   2.761   2.648
 1624SOL    HW3 6527   3.098   2.772   2.651
 1624SOL    MW4 6528   3.170   2.723   2.644
 1625SOL     OW 6529   3.419   2.866   2.673
 1625SOL    HW2 6530   3.399   2.861   2.766
 1625SOL    HW3 6531   3.499   2.815   2.663
 1625SOL    MW4 6532   3.427   2.859   2.684
 1626SOL     OW 6533   3.397   3.137   2.618
 1626SOL    HW2 6534   3.398   3.041   2.622
 1626SOL    HW3 6535   3.398   3.156   2.524
 1626SOL    MW4 6536   3.398   3.127   2.606
 1627SOL     OW 6537   3.160   3.249   2.740
 1627SOL    HW2 6538   3.243   3.218   2.705
 1627SOL    HW3 6539   3.094   3.191   2.703
 1627SOL    MW4 6540   3.162   3.238   2.731
 1628SOL     OW 6541   3.122   3.513   2.612
 1628SOL    HW2 6542   3.138   3.421   2.636
 1628SOL    HW3 6543   3.042   3.536   2.661
 1628SOL    MW4 6544   3.113   3.504   2.622
 1629SOL     OW 6545   3.361   3.616   2.717
 1629SOL    HW2 6546   3.358   3.598   2.811
 1629SOL    HW3 6547   3.279   3.579   2.683
 1629SOL    MW4 6548   3.350   3.609   2.725
 1630SOL     OW 6549   3.365   3.893   2.673
 1630SOL    HW2 6550   3.364   3.799   2.694
 1630SOL    HW3 6551   3.356   3.896   2.578
 1630SOL    MW4 6552   3.364   3.881   2.663
 1631SOL     OW 6553   3.136   4.017   2.735
 1631SOL    HW2 6554   3.151   4.105   2.700
 1631SOL    HW3 6555   3.213   3.967   2.707
 1631SOL    MW4 6556   3.148   4.022   2.727
 1632SOL     OW 6557   3.159   4.285   2.649
 1632SOL    HW2 6558   3.076   4.308   2.690
 1632SOL    HW3 6559   3.138   4.278   2.556
 1632SOL    MW4 6560   3.146   4.287   2.642
 1633SOL     OW 6561   3.400   4.410   2.738
 1633SOL    HW2 6562   3.396   4.397   2.833
 1633SOL    HW3 6563   3.315   4.380   2.707
 1633SOL    MW4 6564   3.388   4.404   2.746
 1634SOL     OW 6565   3.840   4.637   2.707
 1634SOL    HW2 6566   3.829   4.549   2.742
 1634SOL    HW3 6567   3.764   4.685   2.738
 1634SOL    MW4 6568   3.829   4.632   2.715
 1635SOL     OW 6569   3.606   0.110   2.754
 1635SOL    HW2 6570   3.620   0.197   2.716
 1635SOL    HW3 6571   3.531   0.075   2.706
 1635SOL    MW4 6572   3.598   0.117   2.742
 1636SOL     OW 6573   3.598   0.367   2.643
 1636SOL    HW2 6574   3.670   0.407   2.692
 1636SOL    HW3 6575   3.519   0.389   2.693
 1636SOL    MW4 6576   3.597   0.375   2.656
 1637SOL     OW 6577   3.814   0.498   2.733
 1637SOL    HW2 6578   3.821   0.513   2.828
 1637SOL    HW3 6579   3.895   0.452   2.711
 1637SOL    MW4 6580   3.826   0.494   2.743
 1638SOL     OW 6581   3.804   0.751   2.633
 1638SOL    HW2 6582   3.725   0.784   2.674
 1638SOL    HW3 6583   3.816   0.663   2.671
 1638SOL    MW4 6584   3.795   0.744   2.644
 1639SOL     OW 6585   3.556   0.890   2.740
 1639SOL    HW2 6586   3.569   0.894   2.834
 1639SOL    HW3 6587   3.577   0.978   2.709
 1639SOL    MW4 6588   3.560   0.902   2.748
 1640SOL     OW 6589   3.595   1.161   2.648
 1640SOL    HW2 6590   3.671   1.206   2.686
 1640SOL    HW3 6591   3.520   1.214   2.676
 1640SOL    MW4 6592   3.595   1.174   2.657
 1641SOL     OW 6593   3.844   1.274   2.722
 1641SOL    HW2 6594   3.932   1.242   2.702
 1641SOL    HW3 6595   3.842   1.364   2.689
 1641SOL    MW4 6596   3.855   1.281   2.715
 1642SOL     OW 6597   3.830   1.555   2.632
 1642SOL    HW2 6598   3.897   1.589   2.691
 1642SOL    HW3 6599   3.748   1.597   2.661
 1642SOL    MW4 6600   3.828   1.565   2.644
 1643SOL     OW 6601   3.578   1.653   2.699
 1643SOL    HW2 6602   3.567   1.744   2.670
 1643SOL    HW3 6603   3.503   1.607   2.662
 1643SOL    MW4 6604   3.567   1.659   2.690
 1644SOL     OW 6605   3.612   1.910   2.598
 1644SOL    HW2 6606   3.529   1.949   2.624
 1644SOL    HW3 6607   3.603   1.895   2.504
 1644SOL    MW4 6608   3.600   1.913   2.589
 1645SOL     OW 6609   3.824   2.056   2.731
 1645SOL    HW2 6610   3.899   2.020   2.683
 1645SOL    HW3 6611   3.747   2.021   2.686
 1645SOL    MW4 6612   3.824   2.047   2.718
 1646SOL     OW 6613   3.841   2.315   2.632
 1646SOL    HW2 6614   3.809   2.230   2.661
 1646SOL    HW3 6615   3.819   2.320   2.539
 1646SOL    MW4 6616   3.834   2.305   2.624
 1647SOL     OW 6617   3.622   2.435   2.751
 1647SOL    HW2 6618   3.615   2.445   2.846
 1647SOL    HW3 6619   3.712   2.407   2.736
 1647SOL    MW4 6620   3.633   2.433   2.761
 1648SOL     OW 6621   3.639   2.721   2.616
 1648SOL    HW2 6622   3.632   2.628   2.638
 1648SOL    HW3 6623   3.639   2.723   2.521
 1648SOL    MW4 6624   3.638   2.709   2.607
 1649SOL     OW 6625   3.841   2.859   2.714
 1649SOL    HW2 6626   3.924   2.824   2.682
 1649SOL    HW3 6627   3.774   2.801   2.676
 1649SOL    MW4 6628   3.843   2.846   2.705
 1650SOL     OW 6629   3.828   3.132   2.636
 1650SOL    HW2 6630   3.753   3.170   2.681
 1650SOL    HW3 6631   3.833   3.042   2.667
 1650SOL    MW4 6632   3.819   3.125   2.646
 1651SOL     OW 6633   3.618   3.249   2.758
 1651SOL    HW2 6634   3.617   3.341   2.733
 1651SOL    HW3 6635   3.543   3.211   2.712
 1651SOL    MW4 6636   3.608   3.256   2.749
 1652SOL     OW 6637   3.613   3.512   2.651
 1652SOL    HW2 6638   3.683   3.570   2.681
 1652SOL    HW3 6639   3.534   3.543   2.695
 1652SOL    MW4 6640   3.612   3.523   2.661
 1653SOL     OW 6641   3.846   3.672   2.688
 1653SOL    HW2 6642   3.919   3.624   2.650
 1653SOL    HW3 6643   3.864   3.764   2.668
 1653SOL    MW4 6644   3.858   3.678   2.680
 1654SOL     OW 6645   3.861   3.944   2.592
 1654SOL    HW2 6646   3.926   3.988   2.647
 1654SOL    HW3 6647   3.779   3.950   2.642
 1654SOL    MW4 6648   3.859   3.951   2.606
 1655SOL     OW 6649   3.628   3.985   2.764
 1655SOL    HW2 6650   3.621   4.074   2.729
 1655SOL    HW3 6651   3.549   3.941   2.733
 1655SOL    MW4 6652   3.616   3.991   2.756
 1656SOL     OW 6653   3.622   4.245   2.648
 1656SOL    HW2 6654   3.562   4.317   2.665
 1656SOL    HW3 6655   3.624   4.236   2.553
 1656SOL    MW4 6656   3.615   4.253   2.638
 1657SOL     OW 6657   3.820   4.373   2.783
 1657SOL    HW2 6658   3.907   4.344   2.757
 1657SOL    HW3 6659   3.760   4.316   2.734
 1657SOL    MW4 6660   3.823   4.362   2.773
 1658SOL     OW 6661   4.286   4.623   2.648
 1658SOL    HW2 6662   4.201   4.654   2.679
 1658SOL    HW3 6663   4.349   4.690   2.675
 1658SOL    MW4 6664   4.283   4.636   2.656
 1659SOL     OW 6665   4.088   0.095   2.762
 1659SOL    HW2 6666   4.066   0.107   2.854
 1659SOL    HW3 6667   4.007   0.065   2.721
 1659SOL    MW4 6668   4.075   0.092   2.769
 1660SOL     OW 6669   4.032   0.348   2.675
 1660SOL    HW2 6670   4.054   0.260   2.707
 1660SOL    HW3 6671   4.042   0.342   2.580
 1660SOL    MW4 6672   4.037   0.336   2.667
 1661SOL     OW 6673   4.250   0.497   2.739
 1661SOL    HW2 6674   4.184   0.437   2.705
 1661SOL    HW3 6675   4.333   0.463   2.706
 1661SOL    MW4 6676   4.252   0.485   2.730
 1662SOL     OW 6677   4.266   0.744   2.625
 1662SOL    HW2 6678   4.248   0.661   2.670
 1662SOL    HW3 6679   4.265   0.723   2.532
 1662SOL    MW4 6680   4.264   0.731   2.619
 1663SOL     OW 6681   4.030   0.890   2.704
 1663SOL    HW2 6682   4.101   0.828   2.688
 1663SOL    HW3 6683   3.950   0.841   2.686
 1663SOL    MW4 6684   4.029   0.875   2.700
 1664SOL     OW 6685   4.090   1.170   2.620
 1664SOL    HW2 6686   4.174   1.203   2.651
 1664SOL    HW3 6687   4.086   1.080   2.652
 1664SOL    MW4 6688   4.100   1.162   2.628
 1665SOL     OW 6689   4.306   1.313   2.737
 1665SOL    HW2 6690   4.306   1.393   2.685
 1665SOL    HW3 6691   4.368   1.255   2.692
 1665SOL    MW4 6692   4.314   1.315   2.724
 1666SOL     OW 6693   4.306   1.565   2.621
 1666SOL    HW2 6694   4.397   1.574   2.651
 1666SOL    HW3 6695   4.312   1.565   2.525
 1666SOL    MW4 6696   4.319   1.566   2.612
 1667SOL     OW 6697   4.076   1.680   2.729
 1667SOL    HW2 6698   4.079   1.665   2.824
 1667SOL    HW3 6699   4.157   1.642   2.696
 1667SOL    MW4 6700   4.087   1.673   2.737
 1668SOL     OW 6701   4.054   1.926   2.628
 1668SOL    HW2 6702   4.125   1.967   2.677
 1668SOL    HW3 6703   4.042   1.840   2.669
 1668SOL    MW4 6704   4.061   1.920   2.640
 1669SOL     OW 6705   4.242   2.050   2.773
 1669SOL    HW2 6706   4.262   2.116   2.706
 1669SOL    HW3 6707   4.308   1.982   2.758
 1669SOL    MW4 6708   4.254   2.050   2.762
 1670SOL     OW 6709   4.269   2.287   2.621
 1670SOL    HW2 6710   4.200   2.346   2.651
 1670SOL    HW3 6711   4.262   2.288   2.525
 1670SOL    MW4 6712   4.259   2.295   2.612
 1671SOL     OW 6713   4.073   2.457   2.729
 1671SOL    HW2 6714   4.072   2.437   2.823
 1671SOL    HW3 6715   3.998   2.409   2.693
 1671SOL    MW4 6716   4.063   2.448   2.737
 1672SOL     OW 6717   4.085   2.721   2.618
 1672SOL    HW2 6718   4.154   2.758   2.674
 1672SOL    HW3 6719   4.085   2.628   2.638
 1672SOL    MW4 6720   4.094   2.714   2.628
 1673SOL     OW 6721   4.278   2.866   2.773
 1673SOL    HW2 6722   4.282   2.851   2.867
 1673SOL    HW3 6723   4.292   2.961   2.763
 1673SOL    MW4 6724   4.280   2.877   2.784
 1674SOL     OW 6725   4.274   3.138   2.649
 1674SOL    HW2 6726   4.203   3.198   2.673
 1674SOL    HW3 6727   4.267   3.129   2.554
 1674SOL    MW4 6728   4.264   3.145   2.640
 1675SOL     OW 6729   4.045   3.263   2.738
 1675SOL    HW2 6730   4.046   3.347   2.692
 1675SOL    HW3 6731   3.964   3.221   2.709
 1675SOL    MW4 6732   4.035   3.269   2.728
 1676SOL     OW 6733   4.035   3.495   2.597
 1676SOL    HW2 6734   4.112   3.550   2.609
 1676SOL    HW3 6735   4.028   3.483   2.503
 1676SOL    MW4 6736   4.044   3.500   2.586
 1677SOL     OW 6737   4.253   3.648   2.696
 1677SOL    HW2 6738   4.241   3.653   2.791
 1677SOL    HW3 6739   4.333   3.598   2.684
 1677SOL    MW4 6740   4.262   3.642   2.707
 1678SOL     OW 6741   4.278   3.912   2.611
 1678SOL    HW2 6742   4.269   3.821   2.638
 1678SOL    HW3 6743   4.364   3.938   2.643
 1678SOL    MW4 6744   4.288   3.903   2.619
 1679SOL     OW 6745   4.070   4.035   2.752
 1679SOL    HW2 6746   4.066   4.033   2.848
 1679SOL    HW3 6747   4.154   3.994   2.731
 1679SOL    MW4 6748   4.081   4.029   2.762
 1680SOL     OW 6749   4.060   4.296   2.664
 1680SOL    HW2 6750   4.069   4.210   2.705
 1680SOL    HW3 6751   4.070   4.278   2.570
 1680SOL    MW4 6752   4.063   4.282   2.657
 1681SOL     OW 6753   4.338   4.381   2.757
 1681SOL    HW2 6754   4.252   4.342   2.739
 1681SOL    HW3 6755   4.330   4.471   2.723
 1681SOL    MW4 6756   4.325   4.388   2.750
 1682SOL     OW 6757   0.230   4.619   3.130
 1682SOL    HW2 6758   0.225   4.610   3.226
 1682SOL    HW3 6759   0.155   4.673   3.107
 1682SOL    MW4 6760   0.220   4.625   3.140
 1683SOL     OW 6761   0.009   0.094   3.038
 1683SOL    HW2 6762  -0.064   0.067   3.094
 1683SOL    HW3 6763   0.018   0.188   3.055
 1683SOL    MW4 6764   0.000   0.103   3.048
 1684SOL     OW 6765   4.478   0.357   3.092
 1684SOL    HW2 6766   4.490   0.366   3.186
 1684SOL    HW3 6767   4.391   0.391   3.075
 1684SOL    MW4 6768   4.468   0.363   3.102
 1685SOL     OW 6769   0.190   0.496   2.972
 1685SOL    HW2 6770   0.273   0.465   3.008
 1685SOL    HW3 6771   0.124   0.441   3.014
 1685SOL    MW4 6772   0.193   0.485   2.982
 1686SOL     OW 6773   0.255   0.759   3.076
 1686SOL    HW2 6774   0.225   0.753   3.167
 1686SOL    HW3 6775   0.232   0.675   3.037
 1686SOL    MW4 6776   0.248   0.747   3.083
 1687SOL     OW 6777   0.020   0.886   3.038
 1687SOL    HW2 6778   0.105   0.845   3.053
 1687SOL    HW3 6779   0.018   0.903   2.944
 1687SOL    MW4 6780   0.031   0.883   3.028
 1688SOL     OW 6781   0.034   1.149   3.130
 1688SOL    HW2 6782  -0.050   1.188   3.106
 1688SOL    HW3 6783   0.023   1.056   3.108
 1688SOL    MW4 6784   0.021   1.142   3.124
 1689SOL     OW 6785   0.248   1.287   3.007
 1689SOL    HW2 6786   0.174   1.236   3.041
 1689SOL    HW3 6787   0.232   1.292   2.913
 1689SOL    MW4 6788   0.236   1.281   2.999
 1690SOL     OW 6789   0.255   1.553   3.112
 1690SOL    HW2 6790   0.175   1.595   3.082
 1690SOL    HW3 6791   0.245   1.462   3.087
 1690SOL    MW4 6792   0.243   1.547   3.105
 1691SOL     OW 6793   4.480   1.612   3.036
 1691SOL    HW2 6794   4.412   1.560   3.080
 1691SOL    HW3 6795   4.460   1.702   3.059
 1691SOL    MW4 6796   4.468   1.617   3.045
 1692SOL     OW 6797   4.461   1.889   3.095
 1692SOL    HW2 6798   4.392   1.954   3.083
 1692SOL    HW3 6799   4.542   1.935   3.071
 1692SOL    MW4 6800   4.463   1.904   3.090
 1693SOL     OW 6801   0.197   2.035   3.022
 1693SOL    HW2 6802   0.205   2.126   3.052
 1693SOL    HW3 6803   0.214   2.040   2.928
 1693SOL    MW4 6804   0.200   2.048   3.014
 1694SOL     OW 6805   0.226   2.313   3.098
 1694SOL    HW2 6806   0.218   2.296   3.192
 1694SOL    HW3 6807   0.313   2.352   3.088
 1694SOL    MW4 6808   0.236   2.316   3.109
 1695SOL     OW 6809   0.008   2.446   2.976
 1695SOL    HW2 6810   0.020   2.522   3.033
 1695SOL    HW3 6811   0.069   2.381   3.010
 1695SOL    MW4 6812   0.018   2.448   2.988
 1696SOL     OW 6813   0.023   2.671   3.130
 1696SOL    HW2 6814   0.006   2.681   3.224
 1696SOL    HW3 6815   0.081   2.744   3.108
 1696SOL    MW4 6816   0.028   2.682   3.140
 1697SOL     OW 6817   0.201   2.882   3.059
 1697SOL    HW2 6818   0.278   2.835   3.090
 1697SOL    HW3 6819   0.200   2.868   2.964
 1697SOL    MW4 6820   0.211   2.874   3.051
 1698SOL     OW 6821   0.243   3.147   3.114
 1698SOL    HW2 6822   0.166   3.192   3.079
 1698SOL    HW3 6823   0.226   3.054   3.097
 1698SOL    MW4 6824   0.231   3.141   3.107
 1699SOL     OW 6825   0.005   3.270   3.026
 1699SOL    HW2 6826  -0.055   3.203   3.058
 1699SOL    HW3 6827   0.011   3.255   2.932
 1699SOL    MW4 6828  -0.002   3.259   3.018
 1700SOL     OW 6829   4.477   3.538   3.112
 1700SOL    HW2 6830   4.403   3.583   3.071
 1700SOL    HW3 6831   4.472   3.448   3.080
 1700SOL    MW4 6832   4.466   3.532   3.103
 1701SOL     OW 6833   0.238   3.650   3.031
 1701SOL    HW2 6834   0.229   3.736   3.071
 1701SOL    HW3 6835   0.159   3.603   3.058
 1701SOL    MW4 6836   0.226   3.655   3.040
 1702SOL     OW 6837   0.201   3.923   3.119
 1702SOL    HW2 6838   0.211   3.917   3.214
 1702SOL    HW3 6839   0.289   3.942   3.087
 1702SOL    MW4 6840   0.214   3.925   3.127
 1703SOL     OW 6841   4.464   4.017   2.994
 1703SOL    HW2 6842   4.549   3.989   3.030
 1703SOL    HW3 6843   4.476   4.014   2.899
 1703SOL    MW4 6844   4.477   4.013   2.986
 1704SOL     OW 6845   0.009   4.259   3.110
 1704SOL    HW2 6846   0.007   4.244   3.205
 1704SOL    HW3 6847  -0.019   4.175   3.073
 1704SOL    MW4 6848   0.005   4.246   3.118
 1705SOL     OW 6849   0.221   4.374   2.987
 1705SOL    HW2 6850   0.151   4.318   3.019
 1705SOL    HW3 6851   0.222   4.448   3.048
 1705SOL    MW4 6852   0.212   4.377   3.000
 1706SOL     OW 6853   0.682   4.642   3.068
 1706SOL    HW2 6854   0.681   4.546   3.063
 1706SOL    HW3 6855   0.597   4.669   3.033
 1706SOL    MW4 6856   0.671   4.633   3.063
 1707SOL     OW 6857   0.437   0.080   2.988
 1707SOL    HW2 6858   0.414   0.171   3.005
 1707SOL    HW3 6859   0.378   0.030   3.044
 1707SOL    MW4 6860   0.426   0.086   2.997
 1708SOL     OW 6861   0.407   0.353   3.074
 1708SOL    HW2 6862   0.407   0.336   3.168
 1708SOL    HW3 6863   0.495   0.387   3.055
 1708SOL    MW4 6864   0.418   0.355   3.084
 1709SOL     OW 6865   0.640   0.470   3.012
 1709SOL    HW2 6866   0.727   0.443   3.043
 1709SOL    HW3 6867   0.632   0.561   3.040
 1709SOL    MW4 6868   0.651   0.478   3.020
 1710SOL     OW 6869   0.685   0.741   3.057
 1710SOL    HW2 6870   0.693   0.748   3.153
 1710SOL    HW3 6871   0.606   0.791   3.037
 1710SOL    MW4 6872   0.676   0.749   3.067
 1711SOL     OW 6873   0.480   0.902   3.008
 1711SOL    HW2 6874   0.400   0.861   3.042
 1711SOL    HW3 6875   0.477   0.886   2.914
 1711SOL    MW4 6876   0.469   0.895   3.000
 1712SOL     OW 6877   0.507   1.180   3.090
 1712SOL    HW2 6878   0.506   1.085   3.077
 1712SOL    HW3 6879   0.428   1.211   3.047
 1712SOL    MW4 6880   0.496   1.171   3.083
 1713SOL     OW 6881   0.728   1.271   2.978
 1713SOL    HW2 6882   0.790   1.216   3.025
 1713SOL    HW3 6883   0.642   1.245   3.011
 1713SOL    MW4 6884   0.724   1.260   2.988
 1714SOL     OW 6885   0.706   1.522   3.072
 1714SOL    HW2 6886   0.676   1.510   3.161
 1714SOL    HW3 6887   0.696   1.437   3.030
 1714SOL    MW4 6888   0.701   1.509   3.078
 1715SOL     OW 6889   0.467   1.683   2.994
 1715SOL    HW2 6890   0.539   1.628   3.026
 1715SOL    HW3 6891   0.389   1.647   3.035
 1715SOL    MW4 6892   0.466   1.671   3.003
 1716SOL     OW 6893   0.454   1.944   3.113
 1716SOL    HW2 6894   0.459   1.856   3.075
 1716SOL    HW3 6895   0.362   1.969   3.102
 1716SOL    MW4 6896   0.443   1.936   3.106
 1717SOL     OW 6897   0.685   2.068   3.020
 1717SOL    HW2 6898   0.759   2.014   3.045
 1717SOL    HW3 6899   0.608   2.019   3.049
 1717SOL    MW4 6900   0.684   2.055   3.027
 1718SOL     OW 6901   0.684   2.333   3.122
 1718SOL    HW2 6902   0.686   2.323   3.218
 1718SOL    HW3 6903   0.704   2.246   3.089
 1718SOL    MW4 6904   0.687   2.320   3.131
 1719SOL     OW 6905   0.446   2.460   3.040
 1719SOL    HW2 6906   0.525   2.418   3.073
 1719SOL    HW3 6907   0.454   2.454   2.945
 1719SOL    MW4 6908   0.457   2.454   3.032
 1720SOL     OW 6909   0.429   2.727   3.134
 1720SOL    HW2 6910   0.499   2.752   3.073
 1720SOL    HW3 6911   0.417   2.633   3.120
 1720SOL    MW4 6912   0.437   2.718   3.124
 1721SOL     OW 6913   0.655   2.809   2.979
 1721SOL    HW2 6914   0.733   2.759   3.002
 1721SOL    HW3 6915   0.673   2.897   3.012
 1721SOL    MW4 6916   0.668   2.814   2.986
 1722SOL     OW 6917   0.672   3.072   3.084
 1722SOL    HW2 6918   0.658   3.067   3.178
 1722SOL    HW3 6919   0.600   3.127   3.051
 1722SOL    MW4 6920   0.660   3.078   3.092
 1723SOL     OW 6921   0.449   3.236   2.950
 1723SOL    HW2 6922   0.453   3.327   2.979
 1723SOL    HW3 6923   0.390   3.194   3.012
 1723SOL    MW4 6924   0.441   3.243   2.962
 1724SOL     OW 6925   0.457   3.475   3.088
 1724SOL    HW2 6926   0.454   3.457   3.182
 1724SOL    HW3 6927   0.386   3.537   3.073
 1724SOL    MW4 6928   0.447   3.481   3.099
 1725SOL     OW 6929   0.687   3.601   2.996
 1725SOL    HW2 6930   0.761   3.569   3.048
 1725SOL    HW3 6931   0.612   3.550   3.027
 1725SOL    MW4 6932   0.687   3.590   3.007
 1726SOL     OW 6933   0.700   3.892   3.089
 1726SOL    HW2 6934   0.699   3.884   3.185
 1726SOL    HW3 6935   0.709   3.802   3.058
 1726SOL    MW4 6936   0.701   3.879   3.098
 1727SOL     OW 6937   0.456   3.991   2.990
 1727SOL    HW2 6938   0.543   3.961   3.018
 1727SOL    HW3 6939   0.455   3.976   2.895
 1727SOL    MW4 6940   0.468   3.985   2.981
 1728SOL     OW 6941   0.447   4.266   3.093
 1728SOL    HW2 6942   0.452   4.172   3.075
 1728SOL    HW3 6943   0.365   4.294   3.052
 1728SOL    MW4 6944   0.437   4.257   3.085
 1729SOL     OW 6945   0.687   4.367   2.992
 1729SOL    HW2 6946   0.606   4.332   3.031
 1729SOL    HW3 6947   0.667   4.373   2.899
 1729SOL    MW4 6948   0.673   4.364   2.985
 1730SOL     OW 6949   1.148   0.007   3.126
 1730SOL    HW2 6950   1.224   0.039   3.076
 1730SOL    HW3 6951   1.073   0.028   3.070
 1730SOL    MW4 6952   1.148   0.014   3.112
 1731SOL     OW 6953   0.924   0.113   2.992
 1731SOL    HW2 6954   0.912   0.207   3.003
 1731SOL    HW3 6955   0.860   0.073   3.051
 1731SOL    MW4 6956   0.914   0.120   3.001
 1732SOL     OW 6957   0.879   0.367   3.108
 1732SOL    HW2 6958   0.895   0.364   3.202
 1732SOL    HW3 6959   0.952   0.417   3.072
 1732SOL    MW4 6960   0.891   0.373   3.115
 1733SOL     OW 6961   1.095   0.481   2.984
 1733SOL    HW2 6962   1.171   0.427   3.005
 1733SOL    HW3 6963   1.108   0.505   2.892
 1733SOL    MW4 6964   1.107   0.477   2.975
 1734SOL     OW 6965   1.123   0.729   3.067
 1734SOL    HW2 6966   1.112   0.741   3.162
 1734SOL    HW3 6967   1.098   0.637   3.052
 1734SOL    MW4 6968   1.118   0.718   3.078
 1735SOL     OW 6969   0.909   0.865   2.978
 1735SOL    HW2 6970   0.982   0.810   3.006
 1735SOL    HW3 6971   0.832   0.827   3.020
 1735SOL    MW4 6972   0.909   0.853   2.987
 1736SOL     OW 6973   0.907   1.121   3.101
 1736SOL    HW2 6974   0.980   1.180   3.084
 1736SOL    HW3 6975   0.927   1.042   3.051
 1736SOL    MW4 6976   0.919   1.118   3.092
 1737SOL     OW 6977   1.123   1.273   3.006
 1737SOL    HW2 6978   1.205   1.228   3.027
 1737SOL    HW3 6979   1.118   1.270   2.911
 1737SOL    MW4 6980   1.133   1.267   2.996
 1738SOL     OW 6981   1.133   1.536   3.103
 1738SOL    HW2 6982   1.212   1.570   3.060
 1738SOL    HW3 6983   1.129   1.444   3.075
 1738SOL    MW4 6984   1.143   1.528   3.093
 1739SOL     OW 6985   0.921   1.678   3.034
 1739SOL    HW2 6986   0.997   1.622   3.050
 1739SOL    HW3 6987   0.846   1.622   3.054
 1739SOL    MW4 6988   0.921   1.663   3.039
 1740SOL     OW 6989   0.920   1.939   3.130
 1740SOL    HW2 6990   0.908   1.944   3.225
 1740SOL    HW3 6991   0.912   1.845   3.111
 1740SOL    MW4 6992   0.917   1.927   3.140
 1741SOL     OW 6993   1.120   2.083   3.022
 1741SOL    HW2 6994   1.044   2.040   3.060
 1741SOL    HW3 6995   1.108   2.075   2.927
 1741SOL    MW4 6996   1.109   2.077   3.015
 1742SOL     OW 6997   1.152   2.341   3.107
 1742SOL    HW2 6998   1.071   2.380   3.074
 1742SOL    HW3 6999   1.141   2.247   3.093
 1742SOL    MW4 7000   1.140   2.334   3.101
 1743SOL     OW 7001   0.908   2.448   3.006
 1743SOL    HW2 7002   0.829   2.417   3.050
 1743SOL    HW3 7003   0.888   2.441   2.912
 1743SOL    MW4 7004   0.895   2.443   2.999
 1744SOL     OW 7005   0.928   2.707   3.103
 1744SOL    HW2 7006   0.923   2.699   3.198
 1744SOL    HW3 7007   0.936   2.617   3.071
 1744SOL    MW4 7008   0.928   2.694   3.111
 1745SOL     OW 7009   1.119   2.829   2.965
 1745SOL    HW2 7010   1.125   2.918   2.998
 1745SOL    HW3 7011   1.046   2.790   3.013
 1745SOL    MW4 7012   1.110   2.835   2.975
 1746SOL     OW 7013   1.120   3.099   3.117
 1746SOL    HW2 7014   1.192   3.151   3.079
 1746SOL    HW3 7015   1.041   3.132   3.073
 1746SOL    MW4 7016   1.119   3.111   3.106
 1747SOL     OW 7017   0.892   3.222   3.017
 1747SOL    HW2 7018   0.810   3.175   3.034
 1747SOL    HW3 7019   0.902   3.218   2.921
 1747SOL    MW4 7020   0.882   3.215   3.006
 1748SOL     OW 7021   0.892   3.484   3.126
 1748SOL    HW2 7022   0.973   3.531   3.106
 1748SOL    HW3 7023   0.898   3.404   3.075
 1748SOL    MW4 7024   0.904   3.480   3.117
 1749SOL     OW 7025   1.109   3.618   3.033
 1749SOL    HW2 7026   1.188   3.572   3.061
 1749SOL    HW3 7027   1.119   3.706   3.071
 1749SOL    MW4 7028   1.121   3.624   3.041
 1750SOL     OW 7029   1.126   3.865   3.156
 1750SOL    HW2 7030   1.112   3.890   3.247
 1750SOL    HW3 7031   1.061   3.914   3.107
 1750SOL    MW4 7032   1.116   3.875   3.162
 1751SOL     OW 7033   0.939   3.997   3.011
 1751SOL    HW2 7034   0.854   3.959   3.032
 1751SOL    HW3 7035   0.937   4.008   2.916
 1751SOL    MW4 7036   0.928   3.993   3.002
 1752SOL     OW 7037   0.894   4.254   3.119
 1752SOL    HW2 7038   0.905   4.165   3.086
 1752SOL    HW3 7039   0.816   4.286   3.074
 1752SOL    MW4 7040   0.885   4.246   3.109
 1753SOL     OW 7041   1.113   4.385   3.013
 1753SOL    HW2 7042   1.032   4.343   3.042
 1753SOL    HW3 7043   1.116   4.468   3.061
 1753SOL    MW4 7044   1.103   4.390   3.023
 1754SOL     OW 7045   1.592   4.622   3.090
 1754SOL    HW2 7046   1.587   4.630   3.185
 1754SOL    HW3 7047   1.519   4.676   3.058
 1754SOL    MW4 7048   1.582   4.630   3.098
 1755SOL     OW 7049   1.380   0.103   2.998
 1755SOL    HW2 7050   1.349   0.181   3.043
 1755SOL    HW3 7051   1.356   0.116   2.906
 1755SOL    MW4 7052   1.373   0.115   2.992
 1756SOL     OW 7053   1.331   0.357   3.086
 1756SOL    HW2 7054   1.328   0.372   3.180
 1756SOL    HW3 7055   1.414   0.396   3.058
 1756SOL    MW4 7056   1.342   0.364   3.095
 1757SOL     OW 7057   1.578   0.472   3.019
 1757SOL    HW2 7058   1.581   0.559   3.058
 1757SOL    HW3 7059   1.583   0.488   2.925
 1757SOL    MW4 7060   1.579   0.485   3.012
 1758SOL     OW 7061   1.590   0.730   3.117
 1758SOL    HW2 7062   1.582   0.738   3.212
 1758SOL    HW3 7063   1.510   0.771   3.083
 1758SOL    MW4 7064   1.578   0.737   3.125
 1759SOL     OW 7065   1.357   0.868   2.990
 1759SOL    HW2 7066   1.364   0.959   3.022
 1759SOL    HW3 7067   1.282   0.833   3.038
 1759SOL    MW4 7068   1.348   0.876   3.001
 1760SOL     OW 7069   1.358   1.140   3.059
 1760SOL    HW2 7070   1.361   1.141   3.155
 1760SOL    HW3 7071   1.434   1.191   3.032
 1760SOL    MW4 7072   1.368   1.147   3.068
 1761SOL     OW 7073   1.587   1.290   2.973
 1761SOL    HW2 7074   1.652   1.229   3.009
 1761SOL    HW3 7075   1.604   1.372   3.019
 1761SOL    MW4 7076   1.598   1.293   2.984
 1762SOL     OW 7077   1.614   1.514   3.098
 1762SOL    HW2 7078   1.692   1.553   3.058
 1762SOL    HW3 7079   1.541   1.563   3.060
 1762SOL    MW4 7080   1.615   1.526   3.088
 1763SOL     OW 7081   1.392   1.662   3.002
 1763SOL    HW2 7082   1.398   1.747   3.045
 1763SOL    HW3 7083   1.358   1.681   2.915
 1763SOL    MW4 7084   1.388   1.675   2.996
 1764SOL     OW 7085   1.346   1.940   3.100
 1764SOL    HW2 7086   1.348   1.921   3.194
 1764SOL    HW3 7087   1.271   1.998   3.089
 1764SOL    MW4 7088   1.337   1.945   3.111
 1765SOL     OW 7089   1.585   2.070   2.997
 1765SOL    HW2 7090   1.512   2.012   3.018
 1765SOL    HW3 7091   1.586   2.075   2.901
 1765SOL    MW4 7092   1.576   2.063   2.987
 1766SOL     OW 7093   1.566   2.320   3.134
 1766SOL    HW2 7094   1.505   2.383   3.096
 1766SOL    HW3 7095   1.552   2.240   3.085
 1766SOL    MW4 7096   1.556   2.318   3.123
 1767SOL     OW 7097   1.370   2.481   3.013
 1767SOL    HW2 7098   1.296   2.426   3.041
 1767SOL    HW3 7099   1.369   2.476   2.918
 1767SOL    MW4 7100   1.360   2.473   3.004
 1768SOL     OW 7101   1.336   2.720   3.125
 1768SOL    HW2 7102   1.355   2.636   3.084
 1768SOL    HW3 7103   1.266   2.758   3.071
 1768SOL    MW4 7104   1.329   2.714   3.112
 1769SOL     OW 7105   1.559   2.824   3.014
 1769SOL    HW2 7106   1.629   2.769   3.048
 1769SOL    HW3 7107   1.479   2.785   3.048
 1769SOL    MW4 7108   1.558   2.812   3.023
 1770SOL     OW 7109   1.574   3.088   3.095
 1770SOL    HW2 7110   1.574   3.097   3.191
 1770SOL    HW3 7111   1.577   2.994   3.080
 1770SOL    MW4 7112   1.574   3.077   3.106
 1771SOL     OW 7113   1.344   3.228   3.011
 1771SOL    HW2 7114   1.408   3.172   3.053
 1771SOL    HW3 7115   1.363   3.222   2.917
 1771SOL    MW4 7116   1.355   3.220   3.004
 1772SOL     OW 7117   1.345   3.496   3.120
 1772SOL    HW2 7118   1.338   3.482   3.215
 1772SOL    HW3 7119   1.339   3.409   3.083
 1772SOL    MW4 7120   1.344   3.483   3.128
 1773SOL     OW 7121   1.577   3.605   3.004
 1773SOL    HW2 7122   1.489   3.571   3.020
 1773SOL    HW3 7123   1.593   3.588   2.911
 1773SOL    MW4 7124   1.567   3.598   2.994
 1774SOL     OW 7125   1.584   3.872   3.048
 1774SOL    HW2 7126   1.657   3.920   3.010
 1774SOL    HW3 7127   1.602   3.780   3.028
 1774SOL    MW4 7128   1.596   3.866   3.040
 1775SOL     OW 7129   1.326   3.986   3.010
 1775SOL    HW2 7130   1.414   3.953   3.029
 1775SOL    HW3 7131   1.269   3.937   3.068
 1775SOL    MW4 7132   1.330   3.975   3.020
 1776SOL     OW 7133   1.347   4.247   3.072
 1776SOL    HW2 7134   1.341   4.157   3.040
 1776SOL    HW3 7135   1.264   4.287   3.047
 1776SOL    MW4 7136   1.336   4.240   3.064
 1777SOL     OW 7137   1.574   4.375   2.979
 1777SOL    HW2 7138   1.499   4.334   3.023
 1777SOL    HW3 7139   1.580   4.462   3.018
 1777SOL    MW4 7140   1.565   4.381   2.990
 1778SOL     OW 7141   2.038   4.652   3.082
 1778SOL    HW2 7142   2.043   4.634   3.176
 1778SOL    HW3 7143   1.954   4.696   3.070
 1778SOL    MW4 7144   2.028   4.655   3.093
 1779SOL     OW 7145   1.803   0.126   3.039
 1779SOL    HW2 7146   1.728   0.068   3.053
 1779SOL    HW3 7147   1.798   0.150   2.947
 1779SOL    MW4 7148   1.793   0.122   3.029
 1780SOL     OW 7149   1.805   0.389   3.128
 1780SOL    HW2 7150   1.813   0.298   3.100
 1780SOL    HW3 7151   1.729   0.422   3.079
 1780SOL    MW4 7152   1.796   0.381   3.118
 1781SOL     OW 7153   2.031   0.506   3.028
 1781SOL    HW2 7154   1.956   0.465   3.070
 1781SOL    HW3 7155   2.009   0.505   2.935
 1781SOL    MW4 7156   2.018   0.500   3.021
 1782SOL     OW 7157   2.011   0.753   3.133
 1782SOL    HW2 7158   1.937   0.793   3.087
 1782SOL    HW3 7159   2.027   0.671   3.087
 1782SOL    MW4 7160   2.003   0.747   3.121
 1783SOL     OW 7161   1.790   0.860   2.978
 1783SOL    HW2 7162   1.713   0.826   3.023
 1783SOL    HW3 7163   1.764   0.868   2.887
 1783SOL    MW4 7164   1.776   0.857   2.972
 1784SOL     OW 7165   1.826   1.123   3.078
 1784SOL    HW2 7166   1.820   1.122   3.173
 1784SOL    HW3 7167   1.817   1.032   3.052
 1784SOL    MW4 7168   1.824   1.111   3.087
 1785SOL     OW 7169   2.001   1.303   2.976
 1785SOL    HW2 7170   2.083   1.274   3.016
 1785SOL    HW3 7171   1.935   1.246   3.014
 1785SOL    MW4 7172   2.003   1.292   2.987
 1786SOL     OW 7173   2.043   1.548   3.074
 1786SOL    HW2 7174   2.012   1.553   3.164
 1786SOL    HW3 7175   2.036   1.455   3.052
 1786SOL    MW4 7176   2.038   1.536   3.083
 1787SOL     OW 7177   1.819   1.678   3.005
 1787SOL    HW2 7178   1.814   1.758   3.057
 1787SOL    HW3 7179   1.905   1.642   3.026
 1787SOL    MW4 7180   1.830   1.684   3.015
 1788SOL     OW 7181   1.800   1.944   3.137
 1788SOL    HW2 7182   1.874   1.998   3.108
 1788SOL    HW3 7183   1.722   1.997   3.117
 1788SOL    MW4 7184   1.799   1.958   3.131
 1789SOL     OW 7185   2.008   2.060   3.011
 1789SOL    HW2 7186   2.079   2.011   3.053
 1789SOL    HW3 7187   2.013   2.147   3.051
 1789SOL    MW4 7188   2.018   2.065   3.022
 1790SOL     OW 7189   2.001   2.310   3.115
 1790SOL    HW2 7190   2.068   2.368   3.079
 1790SOL    HW3 7191   1.918   2.354   3.095
 1790SOL    MW4 7192   1.999   2.324   3.108
 1791SOL     OW 7193   1.772   2.431   2.983
 1791SOL    HW2 7194   1.770   2.522   3.014
 1791SOL    HW3 7195   1.697   2.389   3.025
 1791SOL    MW4 7196   1.762   2.438   2.993
 1792SOL     OW 7197   1.789   2.706   3.108
 1792SOL    HW2 7198   1.771   2.702   3.202
 1792SOL    HW3 7199   1.872   2.753   3.101
 1792SOL    MW4 7200   1.797   2.711   3.120
 1793SOL     OW 7201   2.031   2.813   3.022
 1793SOL    HW2 7202   2.044   2.906   3.044
 1793SOL    HW3 7203   2.010   2.813   2.928
 1793SOL    MW4 7204   2.030   2.825   3.012
 1794SOL     OW 7205   2.042   3.089   3.087
 1794SOL    HW2 7206   2.023   3.069   3.179
 1794SOL    HW3 7207   1.957   3.114   3.051
 1794SOL    MW4 7208   2.028   3.090   3.094
 1795SOL     OW 7209   1.799   3.180   2.980
 1795SOL    HW2 7210   1.717   3.153   3.020
 1795SOL    HW3 7211   1.780   3.185   2.886
 1795SOL    MW4 7212   1.786   3.177   2.973
 1796SOL     OW 7213   1.800   3.462   3.096
 1796SOL    HW2 7214   1.803   3.382   3.042
 1796SOL    HW3 7215   1.718   3.505   3.070
 1796SOL    MW4 7216   1.790   3.457   3.085
 1797SOL     OW 7217   2.005   3.625   2.999
 1797SOL    HW2 7218   2.002   3.714   3.034
 1797SOL    HW3 7219   1.918   3.589   3.017
 1797SOL    MW4 7220   1.993   3.632   3.006
 1798SOL     OW 7221   2.019   3.888   3.076
 1798SOL    HW2 7222   2.001   3.896   3.169
 1798SOL    HW3 7223   1.944   3.929   3.033
 1798SOL    MW4 7224   2.007   3.894   3.082
 1799SOL     OW 7225   1.803   4.000   2.952
 1799SOL    HW2 7226   1.794   4.085   2.997
 1799SOL    HW3 7227   1.792   4.021   2.859
 1799SOL    MW4 7228   1.800   4.014   2.946
 1800SOL     OW 7229   1.799   4.228   3.082
 1800SOL    HW2 7230   1.874   4.284   3.065
 1800SOL    HW3 7231   1.723   4.281   3.057
 1800SOL    MW4 7232   1.799   4.242   3.077
 1801SOL     OW 7233   2.022   4.388   2.981
 1801SOL    HW2 7234   2.030   4.479   3.009
 1801SOL    HW3 7235   2.020   4.392   2.885
 1801SOL    MW4 7236   2.023   4.400   2.972
 1802SOL     OW 7237   2.468   4.657   3.074
 1802SOL    HW2 7238   2.463   4.566   3.046
 1802SOL    HW3 7239   2.387   4.697   3.042
 1802SOL    MW4 7240   2.456   4.650   3.066
 1803SOL     OW 7241   2.253   0.142   3.004
 1803SOL    HW2 7242   2.258   0.227   3.048
 1803SOL    HW3 7243   2.169   0.105   3.032
 1803SOL    MW4 7244   2.242   0.148   3.014
 1804SOL     OW 7245   2.271   0.391   3.131
 1804SOL    HW2 7246   2.275   0.386   3.227
 1804SOL    HW3 7247   2.189   0.437   3.113
 1804SOL    MW4 7248   2.261   0.397   3.142
 1805SOL     OW 7249   2.493   0.509   3.016
 1805SOL    HW2 7250   2.418   0.466   3.057
 1805SOL    HW3 7251   2.473   0.509   2.923
 1805SOL    MW4 7252   2.480   0.504   3.010
 1806SOL     OW 7253   2.412   0.771   3.108
 1806SOL    HW2 7254   2.487   0.819   3.071
 1806SOL    HW3 7255   2.424   0.681   3.079
 1806SOL    MW4 7256   2.423   0.766   3.099
 1807SOL     OW 7257   2.201   0.927   3.045
 1807SOL    HW2 7258   2.281   0.883   3.072
 1807SOL    HW3 7259   2.131   0.877   3.085
 1807SOL    MW4 7260   2.203   0.915   3.054
 1808SOL     OW 7261   2.214   1.180   3.102
 1808SOL    HW2 7262   2.198   1.180   3.196
 1808SOL    HW3 7263   2.213   1.087   3.078
 1808SOL    MW4 7264   2.212   1.167   3.111
 1809SOL     OW 7265   2.462   1.289   3.019
 1809SOL    HW2 7266   2.371   1.268   3.038
 1809SOL    HW3 7267   2.467   1.288   2.923
 1809SOL    MW4 7268   2.451   1.286   3.008
 1810SOL     OW 7269   2.508   1.547   3.099
 1810SOL    HW2 7270   2.426   1.594   3.082
 1810SOL    HW3 7271   2.486   1.455   3.086
 1810SOL    MW4 7272   2.494   1.541   3.095
 1811SOL     OW 7273   2.280   1.682   3.008
 1811SOL    HW2 7274   2.214   1.618   3.034
 1811SOL    HW3 7275   2.272   1.689   2.913
 1811SOL    MW4 7276   2.270   1.674   2.999
 1812SOL     OW 7277   2.241   1.940   3.111
 1812SOL    HW2 7278   2.317   1.996   3.094
 1812SOL    HW3 7279   2.269   1.853   3.081
 1812SOL    MW4 7280   2.255   1.936   3.104
 1813SOL     OW 7281   2.480   2.080   3.047
 1813SOL    HW2 7282   2.551   2.019   3.063
 1813SOL    HW3 7283   2.479   2.091   2.952
 1813SOL    MW4 7284   2.489   2.073   3.036
 1814SOL     OW 7285   2.479   2.341   3.087
 1814SOL    HW2 7286   2.486   2.363   3.180
 1814SOL    HW3 7287   2.482   2.246   3.085
 1814SOL    MW4 7288   2.480   2.332   3.099
 1815SOL     OW 7289   2.221   2.456   2.998
 1815SOL    HW2 7290   2.241   2.541   3.038
 1815SOL    HW3 7291   2.295   2.400   3.022
 1815SOL    MW4 7292   2.234   2.460   3.007
 1816SOL     OW 7293   2.264   2.680   3.127
 1816SOL    HW2 7294   2.346   2.723   3.105
 1816SOL    HW3 7295   2.197   2.734   3.087
 1816SOL    MW4 7296   2.266   2.692   3.119
 1817SOL     OW 7297   2.484   2.827   3.002
 1817SOL    HW2 7298   2.491   2.915   3.038
 1817SOL    HW3 7299   2.473   2.841   2.908
 1817SOL    MW4 7300   2.484   2.840   2.994
 1818SOL     OW 7301   2.507   3.104   3.098
 1818SOL    HW2 7302   2.582   3.152   3.064
 1818SOL    HW3 7303   2.431   3.148   3.060
 1818SOL    MW4 7304   2.506   3.116   3.089
 1819SOL     OW 7305   2.278   3.239   3.014
 1819SOL    HW2 7306   2.274   3.330   3.041
 1819SOL    HW3 7307   2.200   3.199   3.052
 1819SOL    MW4 7308   2.267   3.245   3.022
 1820SOL     OW 7309   2.238   3.500   3.105
 1820SOL    HW2 7310   2.304   3.562   3.075
 1820SOL    HW3 7311   2.155   3.537   3.076
 1820SOL    MW4 7312   2.236   3.513   3.097
 1821SOL     OW 7313   2.429   3.651   2.999
 1821SOL    HW2 7314   2.505   3.599   3.027
 1821SOL    HW3 7315   2.439   3.735   3.044
 1821SOL    MW4 7316   2.440   3.655   3.009
 1822SOL     OW 7317   2.460   3.913   3.106
 1822SOL    HW2 7318   2.466   3.883   3.197
 1822SOL    HW3 7319   2.547   3.950   3.088
 1822SOL    MW4 7320   2.473   3.914   3.116
 1823SOL     OW 7321   2.251   3.972   2.942
 1823SOL    HW2 7322   2.318   3.948   3.005
 1823SOL    HW3 7323   2.175   3.921   2.967
 1823SOL    MW4 7324   2.250   3.962   2.953
 1824SOL     OW 7325   2.221   4.223   3.080
 1824SOL    HW2 7326   2.220   4.141   3.032
 1824SOL    HW3 7327   2.159   4.279   3.033
 1824SOL    MW4 7328   2.213   4.220   3.067
 1825SOL     OW 7329   2.448   4.387   3.024
 1825SOL    HW2 7330   2.366   4.337   3.028
 1825SOL    HW3 7331   2.468   4.391   2.930
 1825SOL    MW4 7332   2.440   4.381   3.012
 1826SOL     OW 7333   2.916   0.004   3.143
 1826SOL    HW2 7334   2.993   0.056   3.122
 1826SOL    HW3 7335   2.923  -0.073   3.086
 1826SOL    MW4 7336   2.927   0.001   3.133
 1827SOL     OW 7337   2.691   0.144   3.033
 1827SOL    HW2 7338   2.765   0.094   3.067
 1827SOL    HW3 7339   2.615   0.089   3.051
 1827SOL    MW4 7340   2.691   0.130   3.040
 1828SOL     OW 7341   2.715   0.386   3.153
 1828SOL    HW2 7342   2.692   0.296   3.135
 1828SOL    HW3 7343   2.644   0.438   3.115
 1828SOL    MW4 7344   2.703   0.381   3.146
 1829SOL     OW 7345   2.943   0.489   3.018
 1829SOL    HW2 7346   2.868   0.437   3.048
 1829SOL    HW3 7347   2.938   0.485   2.922
 1829SOL    MW4 7348   2.932   0.482   3.009
 1830SOL     OW 7349   2.902   0.757   3.102
 1830SOL    HW2 7350   2.886   0.756   3.196
 1830SOL    HW3 7351   2.914   0.664   3.078
 1830SOL    MW4 7352   2.902   0.744   3.111
 1831SOL     OW 7353   2.658   0.885   3.037
 1831SOL    HW2 7354   2.681   0.966   3.083
 1831SOL    HW3 7355   2.728   0.824   3.060
 1831SOL    MW4 7356   2.670   0.887   3.046
 1832SOL     OW 7357   2.704   1.151   3.118
 1832SOL    HW2 7358   2.778   1.203   3.086
 1832SOL    HW3 7359   2.630   1.179   3.064
 1832SOL    MW4 7360   2.704   1.162   3.107
 1833SOL     OW 7361   2.916   1.310   3.014
 1833SOL    HW2 7362   2.993   1.269   3.054
 1833SOL    HW3 7363   2.902   1.390   3.064
 1833SOL    MW4 7364   2.924   1.315   3.026
 1834SOL     OW 7365   2.914   1.552   3.129
 1834SOL    HW2 7366   2.922   1.557   3.224
 1834SOL    HW3 7367   2.993   1.596   3.096
 1834SOL    MW4 7368   2.925   1.559   3.137
 1835SOL     OW 7369   2.720   1.663   2.966
 1835SOL    HW2 7370   2.789   1.624   3.020
 1835SOL    HW3 7371   2.644   1.607   2.980
 1835SOL    MW4 7372   2.719   1.650   2.975
 1836SOL     OW 7373   2.699   1.915   3.094
 1836SOL    HW2 7374   2.762   1.956   3.035
 1836SOL    HW3 7375   2.690   1.826   3.062
 1836SOL    MW4 7376   2.706   1.909   3.082
 1837SOL     OW 7377   2.892   2.061   2.962
 1837SOL    HW2 7378   2.919   2.141   3.008
 1837SOL    HW3 7379   2.875   2.090   2.872
 1837SOL    MW4 7380   2.894   2.076   2.956
 1838SOL     OW 7381   2.961   2.285   3.128
 1838SOL    HW2 7382   3.034   2.337   3.094
 1838SOL    HW3 7383   2.883   2.336   3.106
 1838SOL    MW4 7384   2.961   2.299   3.121
 1839SOL     OW 7385   2.733   2.447   3.029
 1839SOL    HW2 7386   2.737   2.541   3.047
 1839SOL    HW3 7387   2.644   2.422   3.054
 1839SOL    MW4 7388   2.722   2.456   3.035
 1840SOL     OW 7389   2.720   2.712   3.109
 1840SOL    HW2 7390   2.710   2.733   3.202
 1840SOL    HW3 7391   2.640   2.744   3.068
 1840SOL    MW4 7392   2.708   2.719   3.116
 1841SOL     OW 7393   2.932   2.849   2.997
 1841SOL    HW2 7394   3.006   2.789   3.010
 1841SOL    HW3 7395   2.857   2.804   3.037
 1841SOL    MW4 7396   2.932   2.835   3.004
 1842SOL     OW 7397   2.909   3.093   3.140
 1842SOL    HW2 7398   2.836   3.133   3.092
 1842SOL    HW3 7399   2.912   3.003   3.108
 1842SOL    MW4 7400   2.899   3.086   3.130
 1843SOL     OW 7401   2.710   3.251   2.984
 1843SOL    HW2 7402   2.680   3.339   3.007
 1843SOL    HW3 7403   2.698   3.245   2.889
 1843SOL    MW4 7404   2.704   3.261   2.974
 1844SOL     OW 7405   2.670   3.526   3.092
 1844SOL    HW2 7406   2.667   3.491   3.181
 1844SOL    HW3 7407   2.761   3.555   3.081
 1844SOL    MW4 7408   2.682   3.525   3.102
 1845SOL     OW 7409   2.937   3.613   3.040
 1845SOL    HW2 7410   3.020   3.567   3.057
 1845SOL    HW3 7411   2.942   3.692   3.094
 1845SOL    MW4 7412   2.949   3.617   3.050
 1846SOL     OW 7413   2.963   3.894   3.103
 1846SOL    HW2 7414   2.948   3.914   3.196
 1846SOL    HW3 7415   2.882   3.919   3.060
 1846SOL    MW4 7416   2.950   3.900   3.110
 1847SOL     OW 7417   2.691   3.993   2.980
 1847SOL    HW2 7418   2.670   4.086   2.991
 1847SOL    HW3 7419   2.680   3.976   2.886
 1847SOL    MW4 7420   2.687   4.003   2.969
 1848SOL     OW 7421   2.680   4.279   3.109
 1848SOL    HW2 7422   2.686   4.285   3.204
 1848SOL    HW3 7423   2.595   4.316   3.087
 1848SOL    MW4 7424   2.670   4.285   3.119
 1849SOL     OW 7425   2.904   4.426   3.009
 1849SOL    HW2 7426   2.966   4.365   3.049
 1849SOL    HW3 7427   2.818   4.397   3.041
 1849SOL    MW4 7428   2.901   4.414   3.019
 1850SOL     OW 7429   3.369   4.642   3.163
 1850SOL    HW2 7430   3.447   4.672   3.116
 1850SOL    HW3 7431   3.354   4.553   3.129
 1850SOL    MW4 7432   3.377   4.634   3.152
 1851SOL     OW 7433   3.137   0.141   3.058
 1851SOL    HW2 7434   3.142   0.224   3.105
 1851SOL    HW3 7435   3.210   0.089   3.092
 1851SOL    MW4 7436   3.147   0.145   3.069
 1852SOL     OW 7437   3.154   0.399   3.158
 1852SOL    HW2 7438   3.235   0.427   3.116
 1852SOL    HW3 7439   3.085   0.439   3.107
 1852SOL    MW4 7440   3.156   0.408   3.146
 1853SOL     OW 7441   3.379   0.497   3.041
 1853SOL    HW2 7442   3.444   0.438   3.078
 1853SOL    HW3 7443   3.393   0.493   2.947
 1853SOL    MW4 7444   3.389   0.489   3.034
 1854SOL     OW 7445   3.368   0.788   3.124
 1854SOL    HW2 7446   3.362   0.789   3.219
 1854SOL    HW3 7447   3.370   0.696   3.100
 1854SOL    MW4 7448   3.368   0.776   3.133
 1855SOL     OW 7449   3.135   0.903   3.051
 1855SOL    HW2 7450   3.213   0.858   3.082
 1855SOL    HW3 7451   3.062   0.852   3.088
 1855SOL    MW4 7452   3.135   0.890   3.060
 1856SOL     OW 7453   3.141   1.173   3.102
 1856SOL    HW2 7454   3.225   1.198   3.064
 1856SOL    HW3 7455   3.143   1.077   3.104
 1856SOL    MW4 7456   3.152   1.163   3.097
 1857SOL     OW 7457   3.391   1.283   3.009
 1857SOL    HW2 7458   3.475   1.244   3.033
 1857SOL    HW3 7459   3.384   1.361   3.064
 1857SOL    MW4 7460   3.401   1.288   3.019
 1858SOL     OW 7461   3.368   1.543   3.127
 1858SOL    HW2 7462   3.385   1.557   3.220
 1858SOL    HW3 7463   3.452   1.560   3.084
 1858SOL    MW4 7464   3.382   1.547   3.133
 1859SOL     OW 7465   3.137   1.651   3.024
 1859SOL    HW2 7466   3.214   1.611   3.064
 1859SOL    HW3 7467   3.162   1.665   2.933
 1859SOL    MW4 7468   3.150   1.647   3.017
 1860SOL     OW 7469   3.110   1.924   3.077
 1860SOL    HW2 7470   3.108   1.829   3.065
 1860SOL    HW3 7471   3.028   1.954   3.037
 1860SOL    MW4 7472   3.099   1.915   3.070
 1861SOL     OW 7473   3.367   2.019   3.008
 1861SOL    HW2 7474   3.429   1.956   3.046
 1861SOL    HW3 7475   3.281   1.979   3.023
 1861SOL    MW4 7476   3.364   2.005   3.015
 1862SOL     OW 7477   3.369   2.292   3.132
 1862SOL    HW2 7478   3.358   2.292   3.227
 1862SOL    HW3 7479   3.347   2.202   3.106
 1862SOL    MW4 7480   3.364   2.280   3.141
 1863SOL     OW 7481   3.165   2.451   3.003
 1863SOL    HW2 7482   3.238   2.399   3.034
 1863SOL    HW3 7483   3.169   2.446   2.908
 1863SOL    MW4 7484   3.175   2.444   2.995
 1864SOL     OW 7485   3.183   2.725   3.043
 1864SOL    HW2 7486   3.175   2.729   3.138
 1864SOL    HW3 7487   3.185   2.632   3.023
 1864SOL    MW4 7488   3.182   2.713   3.053
 1865SOL     OW 7489   3.417   2.853   2.956
 1865SOL    HW2 7490   3.423   2.939   2.997
 1865SOL    HW3 7491   3.330   2.822   2.981
 1865SOL    MW4 7492   3.406   2.860   2.965
 1866SOL     OW 7493   3.400   3.107   3.108
 1866SOL    HW2 7494   3.399   3.097   3.203
 1866SOL    HW3 7495   3.321   3.157   3.088
 1866SOL    MW4 7496   3.389   3.112   3.118
 1867SOL     OW 7497   3.156   3.215   3.033
 1867SOL    HW2 7498   3.073   3.198   3.078
 1867SOL    HW3 7499   3.136   3.200   2.941
 1867SOL    MW4 7500   3.142   3.211   3.027
 1868SOL     OW 7501   3.179   3.472   3.095
 1868SOL    HW2 7502   3.259   3.497   3.048
 1868SOL    HW3 7503   3.165   3.381   3.071
 1868SOL    MW4 7504   3.188   3.464   3.085
 1869SOL     OW 7505   3.402   3.600   2.996
 1869SOL    HW2 7506   3.472   3.567   3.053
 1869SOL    HW3 7507   3.372   3.680   3.039
 1869SOL    MW4 7508   3.407   3.606   3.009
 1870SOL     OW 7509   3.365   3.860   3.113
 1870SOL    HW2 7510   3.368   3.855   3.208
 1870SOL    HW3 7511   3.290   3.917   3.095
 1870SOL    MW4 7512   3.355   3.867   3.123
 1871SOL     OW 7513   3.181   4.027   3.014
 1871SOL    HW2 7514   3.100   3.984   3.043
 1871SOL    HW3 7515   3.169   4.039   2.919
 1871SOL    MW4 7516   3.169   4.023   3.005
 1872SOL     OW 7517   3.102   4.258   3.119
 1872SOL    HW2 7518   3.116   4.256   3.213
 1872SOL    HW3 7519   3.132   4.172   3.088
 1872SOL    MW4 7520   3.108   4.246   3.127
 1873SOL     OW 7521   3.366   4.389   3.021
 1873SOL    HW2 7522   3.439   4.344   3.063
 1873SOL    HW3 7523   3.289   4.339   3.046
 1873SOL    MW4 7524   3.366   4.377   3.030
 1874SOL     OW 7525   3.812   4.655   3.155
 1874SOL    HW2 7526   3.806   4.573   3.107
 1874SOL    HW3 7527   3.733   4.704   3.131
 1874SOL    MW4 7528   3.801   4.651   3.146
 1875SOL     OW 7529   3.578   0.096   3.031
 1875SOL    HW2 7530   3.573   0.190   3.045
 1875SOL    HW3 7531   3.586   0.086   2.936
 1875SOL    MW4 7532   3.578   0.107   3.021
 1876SOL     OW 7533   3.614   0.363   3.108
 1876SOL    HW2 7534   3.613   0.374   3.203
 1876SOL    HW3 7535   3.678   0.427   3.077
 1876SOL    MW4 7536   3.623   0.373   3.117
 1877SOL     OW 7537   3.811   0.522   3.013
 1877SOL    HW2 7538   3.883   0.468   3.048
 1877SOL    HW3 7539   3.814   0.602   3.064
 1877SOL    MW4 7540   3.821   0.525   3.024
 1878SOL     OW 7541   3.823   0.765   3.146
 1878SOL    HW2 7542   3.840   0.791   3.236
 1878SOL    HW3 7543   3.900   0.797   3.098
 1878SOL    MW4 7544   3.836   0.773   3.151
 1879SOL     OW 7545   3.611   0.884   3.010
 1879SOL    HW2 7546   3.678   0.836   3.059
 1879SOL    HW3 7547   3.528   0.856   3.049
 1879SOL    MW4 7548   3.609   0.874   3.022
 1880SOL     OW 7549   3.641   1.149   3.094
 1880SOL    HW2 7550   3.721   1.183   3.054
 1880SOL    HW3 7551   3.637   1.058   3.065
 1880SOL    MW4 7552   3.651   1.142   3.085
 1881SOL     OW 7553   3.841   1.286   2.987
 1881SOL    HW2 7554   3.860   1.380   2.984
 1881SOL    HW3 7555   3.832   1.261   2.895
 1881SOL    MW4 7556   3.842   1.295   2.974
 1882SOL     OW 7557   3.853   1.555   3.091
 1882SOL    HW2 7558   3.844   1.535   3.185
 1882SOL    HW3 7559   3.770   1.597   3.068
 1882SOL    MW4 7560   3.841   1.558   3.101
 1883SOL     OW 7561   3.606   1.638   2.996
 1883SOL    HW2 7562   3.600   1.724   3.038
 1883SOL    HW3 7563   3.603   1.658   2.902
 1883SOL    MW4 7564   3.605   1.652   2.989
 1884SOL     OW 7565   3.579   1.876   3.111
 1884SOL    HW2 7566   3.583   1.888   3.206
 1884SOL    HW3 7567   3.658   1.920   3.078
 1884SOL    MW4 7568   3.590   1.883   3.119
 1885SOL     OW 7569   3.806   1.987   2.998
 1885SOL    HW2 7570   3.807   2.071   3.044
 1885SOL    HW3 7571   3.804   2.011   2.905
 1885SOL    MW4 7572   3.806   2.001   2.991
 1886SOL     OW 7573   3.816   2.248   3.117
 1886SOL    HW2 7574   3.838   2.265   3.208
 1886SOL    HW3 7575   3.757   2.319   3.093
 1886SOL    MW4 7576   3.811   2.259   3.126
 1887SOL     OW 7577   3.604   2.416   3.032
 1887SOL    HW2 7578   3.592   2.498   3.079
 1887SOL    HW3 7579   3.542   2.356   3.073
 1887SOL    MW4 7580   3.594   2.419   3.043
 1888SOL     OW 7581   3.603   2.689   3.090
 1888SOL    HW2 7582   3.684   2.720   3.049
 1888SOL    HW3 7583   3.533   2.732   3.041
 1888SOL    MW4 7584   3.605   2.698   3.078
 1889SOL     OW 7585   3.848   2.802   3.008
 1889SOL    HW2 7586   3.848   2.888   3.050
 1889SOL    HW3 7587   3.847   2.821   2.914
 1889SOL    MW4 7588   3.848   2.816   3.001
 1890SOL     OW 7589   3.838   3.078   3.089
 1890SOL    HW2 7590   3.917   3.123   3.058
 1890SOL    HW3 7591   3.767   3.139   3.072
 1890SOL    MW4 7592   3.839   3.092   3.082
 1891SOL     OW 7593   3.635   3.260   3.046
 1891SOL    HW2 7594   3.549   3.224   3.069
 1891SOL    HW3 7595   3.631   3.273   2.951
 1891SOL    MW4 7596   3.623   3.257   3.036
 1892SOL     OW 7597   3.608   3.518   3.155
 1892SOL    HW2 7598   3.675   3.565   3.105
 1892SOL    HW3 7599   3.619   3.426   3.131
 1892SOL    MW4 7600   3.618   3.512   3.145
 1893SOL     OW 7601   3.806   3.637   2.985
 1893SOL    HW2 7602   3.806   3.725   3.024
 1893SOL    HW3 7603   3.803   3.653   2.891
 1893SOL    MW4 7604   3.806   3.651   2.978
 1894SOL     OW 7605   3.808   3.891   3.116
 1894SOL    HW2 7606   3.801   3.896   3.211
 1894SOL    HW3 7607   3.736   3.947   3.084
 1894SOL    MW4 7608   3.797   3.899   3.124
 1895SOL     OW 7609   3.591   4.016   3.020
 1895SOL    HW2 7610   3.516   3.964   3.049
 1895SOL    HW3 7611   3.608   3.985   2.931
 1895SOL    MW4 7612   3.583   4.005   3.012
 1896SOL     OW 7613   3.585   4.280   3.167
 1896SOL    HW2 7614   3.669   4.325   3.160
 1896SOL    HW3 7615   3.599   4.195   3.126
 1896SOL    MW4 7616   3.598   4.275   3.161
 1897SOL     OW 7617   3.808   4.396   3.062
 1897SOL    HW2 7618   3.889   4.353   3.088
 1897SOL    HW3 7619   3.799   4.379   2.969
 1897SOL    MW4 7620   3.817   4.388   3.053
 1898SOL     OW 7621   4.285   4.658   3.169
 1898SOL    HW2 7622   4.288   4.648   3.264
 1898SOL    HW3 7623   4.277   4.568   3.136
 1898SOL    MW4 7624   4.285   4.645   3.177
 1899SOL     OW 7625   4.049   0.113   3.056
 1899SOL    HW2 7626   4.114   0.067   3.109
 1899SOL    HW3 7627   3.966   0.072   3.079
 1899SOL    MW4 7628   4.047   0.101   3.066
 1900SOL     OW 7629   3.999   0.368   3.126
 1900SOL    HW2 7630   4.076   0.421   3.105
 1900SOL    HW3 7631   4.027   0.278   3.111
 1900SOL    MW4 7632   4.013   0.363   3.121
 1901SOL     OW 7633   4.237   0.487   3.052
 1901SOL    HW2 7634   4.258   0.574   3.086
 1901SOL    HW3 7635   4.274   0.486   2.964
 1901SOL    MW4 7636   4.245   0.498   3.045
 1902SOL     OW 7637   4.263   0.756   3.118
 1902SOL    HW2 7638   4.193   0.815   3.091
 1902SOL    HW3 7639   4.344   0.803   3.096
 1902SOL    MW4 7640   4.265   0.770   3.111
 1903SOL     OW 7641   4.041   0.894   3.012
 1903SOL    HW2 7642   4.045   0.984   3.042
 1903SOL    HW3 7643   4.038   0.901   2.917
 1903SOL    MW4 7644   4.041   0.907   3.003
 1904SOL     OW 7645   4.064   1.148   3.098
 1904SOL    HW2 7646   4.046   1.141   3.191
 1904SOL    HW3 7647   3.992   1.199   3.062
 1904SOL    MW4 7648   4.052   1.154   3.105
 1905SOL     OW 7649   4.294   1.252   3.005
 1905SOL    HW2 7650   4.206   1.223   3.030
 1905SOL    HW3 7651   4.288   1.266   2.910
 1905SOL    MW4 7652   4.281   1.250   2.996
 1906SOL     OW 7653   4.274   1.477   3.167
 1906SOL    HW2 7654   4.213   1.532   3.119
 1906SOL    HW3 7655   4.282   1.398   3.113
 1906SOL    MW4 7656   4.267   1.474   3.154
 1907SOL     OW 7657   4.101   1.647   3.031
 1907SOL    HW2 7658   4.093   1.742   3.040
 1907SOL    HW3 7659   4.015   1.613   3.058
 1907SOL    MW4 7660   4.089   1.655   3.036
 1908SOL     OW 7661   4.035   1.897   3.130
 1908SOL    HW2 7662   4.097   1.969   3.129
 1908SOL    HW3 7663   3.960   1.929   3.080
 1908SOL    MW4 7664   4.033   1.911   3.123
 1909SOL     OW 7665   4.245   2.072   3.053
 1909SOL    HW2 7666   4.251   2.160   3.088
 1909SOL    HW3 7667   4.250   2.083   2.959
 1909SOL    MW4 7668   4.246   2.085   3.046
 1910SOL     OW 7669   4.288   2.341   3.124
 1910SOL    HW2 7670   4.204   2.354   3.078
 1910SOL    HW3 7671   4.352   2.384   3.068
 1910SOL    MW4 7672   4.285   2.348   3.110
 1911SOL     OW 7673   4.042   2.368   3.006
 1911SOL    HW2 7674   4.027   2.454   3.046
 1911SOL    HW3 7675   3.960   2.320   3.020
 1911SOL    MW4 7676   4.029   2.373   3.013
 1912SOL     OW 7677   4.056   2.629   3.110
 1912SOL    HW2 7678   4.057   2.628   3.206
 1912SOL    HW3 7679   3.971   2.667   3.087
 1912SOL    MW4 7680   4.045   2.634   3.120
 1913SOL     OW 7681   4.286   2.813   3.031
 1913SOL    HW2 7682   4.224   2.741   3.044
 1913SOL    HW3 7683   4.371   2.775   3.053
 1913SOL    MW4 7684   4.289   2.798   3.036
 1914SOL     OW 7685   4.294   3.098   3.091
 1914SOL    HW2 7686   4.225   3.155   3.056
 1914SOL    HW3 7687   4.265   3.010   3.069
 1914SOL    MW4 7688   4.281   3.094   3.084
 1915SOL     OW 7689   4.060   3.245   3.013
 1915SOL    HW2 7690   4.055   3.336   3.042
 1915SOL    HW3 7691   4.068   3.250   2.918
 1915SOL    MW4 7692   4.060   3.257   3.005
 1916SOL     OW 7693   4.034   3.524   3.095
 1916SOL    HW2 7694   4.004   3.506   3.184
 1916SOL    HW3 7695   3.956   3.555   3.049
 1916SOL    MW4 7696   4.020   3.526   3.101
 1917SOL     OW 7697   4.250   3.642   2.977
 1917SOL    HW2 7698   4.264   3.722   3.027
 1917SOL    HW3 7699   4.173   3.601   3.017
 1917SOL    MW4 7700   4.241   3.647   2.989
 1918SOL     OW 7701   4.268   3.865   3.126
 1918SOL    HW2 7702   4.184   3.901   3.096
 1918SOL    HW3 7703   4.334   3.919   3.083
 1918SOL    MW4 7704   4.266   3.877   3.116
 1919SOL     OW 7705   4.054   3.995   3.022
 1919SOL    HW2 7706   4.064   4.080   3.064
 1919SOL    HW3 7707   3.966   3.965   3.046
 1919SOL    MW4 7708   4.044   4.002   3.030
 1920SOL     OW 7709   4.035   4.266   3.123
 1920SOL    HW2 7710   4.042   4.274   3.218
 1920SOL    HW3 7711   4.107   4.319   3.089
 1920SOL    MW4 7712   4.045   4.274   3.131
 1921SOL     OW 7713   4.275   4.414   3.035
 1921SOL    HW2 7714   4.350   4.368   3.072
 1921SOL    HW3 7715   4.292   4.418   2.941
 1921SOL    MW4 7716   4.287   4.409   3.028
 1922SOL     OW 7717   0.182   4.610   3.402
 1922SOL    HW2 7718   0.251   4.672   3.428
 1922SOL    HW3 7719   0.216   4.524   3.428
 1922SOL    MW4 7720   0.196   4.607   3.409
 1923SOL     OW 7721   4.487   0.120   3.508
 1923SOL    HW2 7722   4.506   0.203   3.465
 1923SOL    HW3 7723   4.555   0.060   3.475
 1923SOL    MW4 7724   4.499   0.123   3.498
 1924SOL     OW 7725   4.486   0.381   3.366
 1924SOL    HW2 7726   4.407   0.404   3.416
 1924SOL    HW3 7727   4.555   0.436   3.402
 1924SOL    MW4 7728   4.484   0.391   3.377
 1925SOL     OW 7729   0.236   0.520   3.452
 1925SOL    HW2 7730   0.318   0.482   3.420
 1925SOL    HW3 7731   0.232   0.606   3.410
 1925SOL    MW4 7732   0.247   0.526   3.442
 1926SOL     OW 7733   0.241   0.775   3.353
 1926SOL    HW2 7734   0.319   0.825   3.375
 1926SOL    HW3 7735   0.171   0.816   3.405
 1926SOL    MW4 7736   0.242   0.787   3.363
 1927SOL     OW 7737   0.019   0.877   3.496
 1927SOL    HW2 7738   0.009   0.879   3.591
 1927SOL    HW3 7739   0.030   0.969   3.471
 1927SOL    MW4 7740   0.019   0.890   3.505
 1928SOL     OW 7741   0.027   1.145   3.429
 1928SOL    HW2 7742   0.102   1.198   3.456
 1928SOL    HW3 7743   0.043   1.128   3.336
 1928SOL    MW4 7744   0.039   1.150   3.420
 1929SOL     OW 7745   0.247   1.282   3.508
 1929SOL    HW2 7746   0.323   1.234   3.476
 1929SOL    HW3 7747   0.249   1.365   3.459
 1929SOL    MW4 7748   0.258   1.287   3.498
 1930SOL     OW 7749   0.224   1.531   3.370
 1930SOL    HW2 7750   0.285   1.596   3.407
 1930SOL    HW3 7751   0.238   1.538   3.275
 1930SOL    MW4 7752   0.234   1.541   3.362
 1931SOL     OW 7753   4.467   1.656   3.447
 1931SOL    HW2 7754   4.395   1.593   3.444
 1931SOL    HW3 7755   4.544   1.605   3.424
 1931SOL    MW4 7756   4.467   1.641   3.444
 1932SOL     OW 7757   4.474   1.913   3.393
 1932SOL    HW2 7758   4.472   1.826   3.431
 1932SOL    HW3 7759   4.451   1.900   3.301
 1932SOL    MW4 7760   4.471   1.900   3.386
 1933SOL     OW 7761   0.208   2.040   3.473
 1933SOL    HW2 7762   0.222   2.026   3.567
 1933SOL    HW3 7763   0.134   1.984   3.451
 1933SOL    MW4 7764   0.200   2.031   3.483
 1934SOL     OW 7765   0.247   2.293   3.387
 1934SOL    HW2 7766   0.172   2.342   3.422
 1934SOL    HW3 7767   0.235   2.204   3.418
 1934SOL    MW4 7768   0.235   2.288   3.396
 1935SOL     OW 7769   0.009   2.448   3.484
 1935SOL    HW2 7770   0.017   2.454   3.579
 1935SOL    HW3 7771  -0.071   2.398   3.469
 1935SOL    MW4 7772  -0.001   2.442   3.495
 1936SOL     OW 7773   0.007   2.711   3.403
 1936SOL    HW2 7774   0.073   2.749   3.460
 1936SOL    HW3 7775   0.016   2.617   3.415
 1936SOL    MW4 7776   0.017   2.704   3.412
 1937SOL     OW 7777   0.224   2.867   3.521
 1937SOL    HW2 7778   0.297   2.814   3.489
 1937SOL    HW3 7779   0.230   2.948   3.470
 1937SOL    MW4 7780   0.234   2.871   3.510
 1938SOL     OW 7781   0.227   3.119   3.394
 1938SOL    HW2 7782   0.149   3.171   3.413
 1938SOL    HW3 7783   0.244   3.133   3.301
 1938SOL    MW4 7784   0.219   3.127   3.384
 1939SOL     OW 7785   0.001   3.236   3.492
 1939SOL    HW2 7786  -0.076   3.195   3.452
 1939SOL    HW3 7787  -0.009   3.329   3.472
 1939SOL    MW4 7788  -0.011   3.243   3.484
 1940SOL     OW 7789   4.476   3.483   3.400
 1940SOL    HW2 7790   4.402   3.529   3.437
 1940SOL    HW3 7791   4.472   3.501   3.306
 1940SOL    MW4 7792   4.466   3.491   3.392
 1941SOL     OW 7793   0.233   3.588   3.446
 1941SOL    HW2 7794   0.225   3.610   3.538
 1941SOL    HW3 7795   0.151   3.544   3.424
 1941SOL    MW4 7796   0.221   3.585   3.455
 1942SOL     OW 7797   0.253   3.858   3.387
 1942SOL    HW2 7798   0.167   3.888   3.415
 1942SOL    HW3 7799   0.253   3.764   3.405
 1942SOL    MW4 7800   0.242   3.850   3.393
 1943SOL     OW 7801   4.478   3.987   3.481
 1943SOL    HW2 7802   4.491   3.992   3.576
 1943SOL    HW3 7803   4.481   4.079   3.452
 1943SOL    MW4 7804   4.480   4.000   3.490
 1944SOL     OW 7805   0.038   4.229   3.388
 1944SOL    HW2 7806  -0.036   4.277   3.426
 1944SOL    HW3 7807   0.116   4.268   3.429
 1944SOL    MW4 7808   0.039   4.241   3.398
 1945SOL     OW 7809   0.253   4.367   3.493
 1945SOL    HW2 7810   0.244   4.358   3.588
 1945SOL    HW3 7811   0.332   4.317   3.471
 1945SOL    MW4 7812   0.262   4.359   3.503
 1946SOL     OW 7813   0.660   4.619   3.362
 1946SOL    HW2 7814   0.728   4.680   3.389
 1946SOL    HW3 7815   0.666   4.617   3.266
 1946SOL    MW4 7816   0.670   4.626   3.353
 1947SOL     OW 7817   0.399   0.094   3.474
 1947SOL    HW2 7818   0.413   0.116   3.566
 1947SOL    HW3 7819   0.486   0.077   3.439
 1947SOL    MW4 7820   0.412   0.095   3.481
 1948SOL     OW 7821   0.454   0.364   3.340
 1948SOL    HW2 7822   0.526   0.411   3.383
 1948SOL    HW3 7823   0.450   0.280   3.385
 1948SOL    MW4 7824   0.463   0.359   3.352
 1949SOL     OW 7825   0.659   0.501   3.439
 1949SOL    HW2 7826   0.662   0.500   3.535
 1949SOL    HW3 7827   0.744   0.465   3.412
 1949SOL    MW4 7828   0.671   0.496   3.448
 1950SOL     OW 7829   0.687   0.743   3.325
 1950SOL    HW2 7830   0.636   0.806   3.376
 1950SOL    HW3 7831   0.658   0.657   3.356
 1950SOL    MW4 7832   0.677   0.740   3.336
 1951SOL     OW 7833   0.478   0.900   3.454
 1951SOL    HW2 7834   0.480   0.892   3.550
 1951SOL    HW3 7835   0.458   0.993   3.439
 1951SOL    MW4 7836   0.476   0.911   3.465
 1952SOL     OW 7837   0.444   1.168   3.371
 1952SOL    HW2 7838   0.514   1.210   3.420
 1952SOL    HW3 7839   0.466   1.183   3.279
 1952SOL    MW4 7840   0.456   1.175   3.365
 1953SOL     OW 7841   0.666   1.292   3.494
 1953SOL    HW2 7842   0.731   1.236   3.452
 1953SOL    HW3 7843   0.668   1.373   3.442
 1953SOL    MW4 7844   0.675   1.295   3.482
 1954SOL     OW 7845   0.640   1.529   3.355
 1954SOL    HW2 7846   0.719   1.582   3.366
 1954SOL    HW3 7847   0.570   1.582   3.392
 1954SOL    MW4 7848   0.641   1.543   3.361
 1955SOL     OW 7849   0.420   1.682   3.489
 1955SOL    HW2 7850   0.406   1.689   3.584
 1955SOL    HW3 7851   0.439   1.772   3.462
 1955SOL    MW4 7852   0.421   1.695   3.498
 1956SOL     OW 7853   0.463   1.947   3.406
 1956SOL    HW2 7854   0.378   1.982   3.431
 1956SOL    HW3 7855   0.463   1.950   3.310
 1956SOL    MW4 7856   0.452   1.952   3.397
 1957SOL     OW 7857   0.681   2.064   3.522
 1957SOL    HW2 7858   0.667   2.072   3.616
 1957SOL    HW3 7859   0.607   2.011   3.491
 1957SOL    MW4 7860   0.669   2.058   3.530
 1958SOL     OW 7861   0.692   2.304   3.399
 1958SOL    HW2 7862   0.762   2.348   3.449
 1958SOL    HW3 7863   0.683   2.218   3.441
 1958SOL    MW4 7864   0.700   2.299   3.411
 1959SOL     OW 7865   0.462   2.425   3.489
 1959SOL    HW2 7866   0.539   2.383   3.451
 1959SOL    HW3 7867   0.387   2.377   3.453
 1959SOL    MW4 7868   0.462   2.413   3.480
 1960SOL     OW 7869   0.420   2.711   3.410
 1960SOL    HW2 7870   0.432   2.617   3.424
 1960SOL    HW3 7871   0.419   2.721   3.315
 1960SOL    MW4 7872   0.421   2.700   3.399
 1961SOL     OW 7873   0.669   2.828   3.484
 1961SOL    HW2 7874   0.733   2.780   3.432
 1961SOL    HW3 7875   0.589   2.775   3.480
 1961SOL    MW4 7876   0.667   2.815   3.477
 1962SOL     OW 7877   0.683   3.077   3.352
 1962SOL    HW2 7878   0.604   3.122   3.381
 1962SOL    HW3 7879   0.688   2.998   3.406
 1962SOL    MW4 7880   0.673   3.073   3.363
 1963SOL     OW 7881   0.469   3.236   3.469
 1963SOL    HW2 7882   0.485   3.225   3.562
 1963SOL    HW3 7883   0.382   3.199   3.454
 1963SOL    MW4 7884   0.460   3.229   3.479
 1964SOL     OW 7885   0.472   3.478   3.369
 1964SOL    HW2 7886   0.471   3.391   3.410
 1964SOL    HW3 7887   0.384   3.512   3.384
 1964SOL    MW4 7888   0.460   3.471   3.376
 1965SOL     OW 7889   0.651   3.617   3.549
 1965SOL    HW2 7890   0.726   3.563   3.524
 1965SOL    HW3 7891   0.575   3.572   3.511
 1965SOL    MW4 7892   0.651   3.604   3.541
 1966SOL     OW 7893   0.684   3.863   3.379
 1966SOL    HW2 7894   0.605   3.900   3.418
 1966SOL    HW3 7895   0.690   3.775   3.416
 1966SOL    MW4 7896   0.674   3.856   3.389
 1967SOL     OW 7897   0.465   3.974   3.511
 1967SOL    HW2 7898   0.474   4.064   3.481
 1967SOL    HW3 7899   0.383   3.944   3.473
 1967SOL    MW4 7900   0.455   3.982   3.502
 1968SOL     OW 7901   0.478   4.233   3.385
 1968SOL    HW2 7902   0.543   4.296   3.417
 1968SOL    HW3 7903   0.460   4.261   3.295
 1968SOL    MW4 7904   0.484   4.245   3.378
 1969SOL     OW 7905   0.652   4.396   3.523
 1969SOL    HW2 7906   0.735   4.353   3.500
 1969SOL    HW3 7907   0.657   4.482   3.481
 1969SOL    MW4 7908   0.664   4.401   3.514
 1970SOL     OW 7909   1.111   4.640   3.399
 1970SOL    HW2 7910   1.169   4.705   3.440
 1970SOL    HW3 7911   1.116   4.659   3.305
 1970SOL    MW4 7912   1.119   4.651   3.392
 1971SOL     OW 7913   0.873   0.109   3.444
 1971SOL    HW2 7914   0.864   0.109   3.539
 1971SOL    HW3 7915   0.946   0.049   3.427
 1971SOL    MW4 7916   0.882   0.101   3.454
 1972SOL     OW 7917   0.913   0.378   3.377
 1972SOL    HW2 7918   0.989   0.412   3.424
 1972SOL    HW3 7919   0.901   0.289   3.410
 1972SOL    MW4 7920   0.921   0.371   3.387
 1973SOL     OW 7921   1.128   0.500   3.484
 1973SOL    HW2 7922   1.112   0.512   3.578
 1973SOL    HW3 7923   1.120   0.588   3.447
 1973SOL    MW4 7924   1.125   0.513   3.492
 1974SOL     OW 7925   1.112   0.743   3.335
 1974SOL    HW2 7926   1.188   0.788   3.373
 1974SOL    HW3 7927   1.037   0.781   3.381
 1974SOL    MW4 7928   1.112   0.754   3.346
 1975SOL     OW 7929   0.886   0.873   3.450
 1975SOL    HW2 7930   0.879   0.961   3.412
 1975SOL    HW3 7931   0.818   0.822   3.405
 1975SOL    MW4 7932   0.876   0.878   3.439
 1976SOL     OW 7933   0.869   1.135   3.372
 1976SOL    HW2 7934   0.946   1.180   3.408
 1976SOL    HW3 7935   0.893   1.117   3.281
 1976SOL    MW4 7936   0.882   1.139   3.364
 1977SOL     OW 7937   1.134   1.246   3.423
 1977SOL    HW2 7938   1.117   1.251   3.517
 1977SOL    HW3 7939   1.133   1.337   3.394
 1977SOL    MW4 7940   1.131   1.259   3.432
 1978SOL     OW 7941   1.133   1.507   3.380
 1978SOL    HW2 7942   1.217   1.543   3.409
 1978SOL    HW3 7943   1.135   1.513   3.285
 1978SOL    MW4 7944   1.144   1.512   3.372
 1979SOL     OW 7945   0.891   1.655   3.408
 1979SOL    HW2 7946   0.916   1.747   3.419
 1979SOL    HW3 7947   0.974   1.608   3.401
 1979SOL    MW4 7948   0.905   1.661   3.409
 1980SOL     OW 7949   0.890   1.926   3.405
 1980SOL    HW2 7950   0.971   1.949   3.450
 1980SOL    HW3 7951   0.822   1.977   3.449
 1980SOL    MW4 7952   0.891   1.936   3.416
 1981SOL     OW 7953   1.122   2.040   3.509
 1981SOL    HW2 7954   1.188   1.973   3.492
 1981SOL    HW3 7955   1.147   2.114   3.454
 1981SOL    MW4 7956   1.134   2.041   3.500
 1982SOL     OW 7957   1.159   2.285   3.389
 1982SOL    HW2 7958   1.216   2.343   3.439
 1982SOL    HW3 7959   1.168   2.314   3.298
 1982SOL    MW4 7960   1.168   2.296   3.383
 1983SOL     OW 7961   0.922   2.417   3.520
 1983SOL    HW2 7962   0.924   2.407   3.615
 1983SOL    HW3 7963   1.003   2.376   3.490
 1983SOL    MW4 7964   0.933   2.410   3.528
 1984SOL     OW 7965   0.901   2.699   3.387
 1984SOL    HW2 7966   0.958   2.761   3.432
 1984SOL    HW3 7967   0.925   2.614   3.425
 1984SOL    MW4 7968   0.912   2.696   3.398
 1985SOL     OW 7969   1.106   2.867   3.477
 1985SOL    HW2 7970   1.110   2.861   3.572
 1985SOL    HW3 7971   1.181   2.816   3.447
 1985SOL    MW4 7972   1.116   2.859   3.486
 1986SOL     OW 7973   1.130   3.133   3.403
 1986SOL    HW2 7974   1.103   3.046   3.433
 1986SOL    HW3 7975   1.137   3.125   3.308
 1986SOL    MW4 7976   1.127   3.121   3.395
 1987SOL     OW 7977   0.883   3.216   3.497
 1987SOL    HW2 7978   0.972   3.220   3.462
 1987SOL    HW3 7979   0.832   3.170   3.431
 1987SOL    MW4 7980   0.888   3.211   3.484
 1988SOL     OW 7981   0.858   3.480   3.416
 1988SOL    HW2 7982   0.865   3.385   3.425
 1988SOL    HW3 7983   0.866   3.496   3.322
 1988SOL    MW4 7984   0.860   3.470   3.405
 1989SOL     OW 7985   1.113   3.596   3.486
 1989SOL    HW2 7986   1.117   3.606   3.581
 1989SOL    HW3 7987   1.023   3.566   3.470
 1989SOL    MW4 7988   1.102   3.593   3.497
 1990SOL     OW 7989   1.089   3.884   3.426
 1990SOL    HW2 7990   1.172   3.924   3.450
 1990SOL    HW3 7991   1.096   3.794   3.457
 1990SOL    MW4 7992   1.101   3.878   3.433
 1991SOL     OW 7993   0.884   4.055   3.519
 1991SOL    HW2 7994   0.964   4.014   3.487
 1991SOL    HW3 7995   0.813   4.007   3.478
 1991SOL    MW4 7996   0.885   4.043   3.510
 1992SOL     OW 7997   0.879   4.290   3.399
 1992SOL    HW2 7998   0.887   4.211   3.453
 1992SOL    HW3 7999   0.908   4.262   3.312
 1992SOL    MW4 8000   0.884   4.276   3.394
 1993SOL     OW 8001   1.133   4.381   3.488
 1993SOL    HW2 8002   1.048   4.348   3.460
 1993SOL    HW3 8003   1.129   4.475   3.473
 1993SOL    MW4 8004   1.122   4.389   3.482
 1994SOL     OW 8005   1.554   0.006   3.352
 1994SOL    HW2 8006   1.544  -0.085   3.380
 1994SOL    HW3 8007   1.480   0.052   3.393
 1994SOL    MW4 8008   1.543   0.000   3.361
 1995SOL     OW 8009   1.324   0.126   3.473
 1995SOL    HW2 8010   1.330   0.140   3.568
 1995SOL    HW3 8011   1.325   0.215   3.436
 1995SOL    MW4 8012   1.325   0.140   3.481
 1996SOL     OW 8013   1.345   0.381   3.365
 1996SOL    HW2 8014   1.416   0.430   3.406
 1996SOL    HW3 8015   1.266   0.413   3.408
 1996SOL    MW4 8016   1.344   0.392   3.376
 1997SOL     OW 8017   1.536   0.547   3.477
 1997SOL    HW2 8018   1.520   0.549   3.571
 1997SOL    HW3 8019   1.622   0.506   3.468
 1997SOL    MW4 8020   1.545   0.542   3.488
 1998SOL     OW 8021   1.618   0.791   3.412
 1998SOL    HW2 8022   1.535   0.833   3.434
 1998SOL    HW3 8023   1.604   0.698   3.430
 1998SOL    MW4 8024   1.605   0.784   3.417
 1999SOL     OW 8025   1.338   0.859   3.452
 1999SOL    HW2 8026   1.347   0.873   3.547
 1999SOL    HW3 8027   1.339   0.947   3.415
 1999SOL    MW4 8028   1.339   0.872   3.460
 2000SOL     OW 8029   1.373   1.117   3.344
 2000SOL    HW2 8030   1.450   1.160   3.383
 2000SOL    HW3 8031   1.298   1.157   3.388
 2000SOL    MW4 8032   1.374   1.128   3.355
 2001SOL     OW 8033   1.584   1.265   3.437
 2001SOL    HW2 8034   1.581   1.274   3.532
 2001SOL    HW3 8035   1.671   1.230   3.418
 2001SOL    MW4 8036   1.595   1.262   3.447
 2002SOL     OW 8037   1.609   1.556   3.363
 2002SOL    HW2 8038   1.576   1.470   3.388
 2002SOL    HW3 8039   1.626   1.549   3.269
 2002SOL    MW4 8040   1.607   1.544   3.353
 2003SOL     OW 8041   1.366   1.652   3.455
 2003SOL    HW2 8042   1.372   1.644   3.550
 2003SOL    HW3 8043   1.454   1.631   3.424
 2003SOL    MW4 8044   1.379   1.648   3.463
 2004SOL     OW 8045   1.346   1.905   3.381
 2004SOL    HW2 8046   1.408   1.949   3.439
 2004SOL    HW3 8047   1.360   1.812   3.398
 2004SOL    MW4 8048   1.356   1.898   3.391
 2005SOL     OW 8049   1.525   2.060   3.492
 2005SOL    HW2 8050   1.609   2.027   3.460
 2005SOL    HW3 8051   1.514   2.144   3.448
 2005SOL    MW4 8052   1.534   2.067   3.482
 2006SOL     OW 8053   1.519   2.321   3.403
 2006SOL    HW2 8054   1.457   2.393   3.416
 2006SOL    HW3 8055   1.546   2.329   3.311
 2006SOL    MW4 8056   1.515   2.332   3.393
 2007SOL     OW 8057   1.325   2.479   3.520
 2007SOL    HW2 8058   1.340   2.472   3.614
 2007SOL    HW3 8059   1.320   2.573   3.502
 2007SOL    MW4 8060   1.326   2.490   3.530
 2008SOL     OW 8061   1.334   2.729   3.399
 2008SOL    HW2 8062   1.410   2.776   3.432
 2008SOL    HW3 8063   1.341   2.738   3.304
 2008SOL    MW4 8064   1.345   2.736   3.391
 2009SOL     OW 8065   1.578   2.860   3.513
 2009SOL    HW2 8066   1.646   2.806   3.472
 2009SOL    HW3 8067   1.584   2.944   3.467
 2009SOL    MW4 8068   1.588   2.864   3.502
 2010SOL     OW 8069   1.583   3.107   3.378
 2010SOL    HW2 8070   1.661   3.155   3.406
 2010SOL    HW3 8071   1.511   3.152   3.421
 2010SOL    MW4 8072   1.584   3.119   3.388
 2011SOL     OW 8073   1.366   3.219   3.506
 2011SOL    HW2 8074   1.361   3.219   3.601
 2011SOL    HW3 8075   1.280   3.186   3.478
 2011SOL    MW4 8076   1.354   3.214   3.515
 2012SOL     OW 8077   1.314   3.455   3.384
 2012SOL    HW2 8078   1.316   3.372   3.432
 2012SOL    HW3 8079   1.236   3.500   3.417
 2012SOL    MW4 8080   1.304   3.450   3.395
 2013SOL     OW 8081   1.552   3.593   3.450
 2013SOL    HW2 8082   1.572   3.579   3.543
 2013SOL    HW3 8083   1.471   3.543   3.436
 2013SOL    MW4 8084   1.544   3.584   3.461
 2014SOL     OW 8085   1.579   3.888   3.323
 2014SOL    HW2 8086   1.580   3.794   3.343
 2014SOL    HW3 8087   1.583   3.892   3.228
 2014SOL    MW4 8088   1.580   3.876   3.313
 2015SOL     OW 8089   1.351   3.998   3.429
 2015SOL    HW2 8090   1.350   4.090   3.403
 2015SOL    HW3 8091   1.429   3.962   3.388
 2015SOL    MW4 8092   1.361   4.005   3.420
 2016SOL     OW 8093   1.362   4.273   3.366
 2016SOL    HW2 8094   1.284   4.314   3.406
 2016SOL    HW3 8095   1.346   4.279   3.272
 2016SOL    MW4 8096   1.349   4.279   3.359
 2017SOL     OW 8097   1.546   4.438   3.476
 2017SOL    HW2 8098   1.629   4.398   3.452
 2017SOL    HW3 8099   1.479   4.381   3.438
 2017SOL    MW4 8100   1.548   4.425   3.468
 2018SOL     OW 8101   2.013   4.621   3.364
 2018SOL    HW2 8102   2.085   4.672   3.400
 2018SOL    HW3 8103   1.937   4.680   3.369
 2018SOL    MW4 8104   2.012   4.635   3.369
 2019SOL     OW 8105   1.798   0.110   3.447
 2019SOL    HW2 8106   1.806   0.100   3.542
 2019SOL    HW3 8107   1.707   0.089   3.428
 2019SOL    MW4 8108   1.787   0.106   3.457
 2020SOL     OW 8109   1.747   0.376   3.414
 2020SOL    HW2 8110   1.759   0.282   3.430
 2020SOL    HW3 8111   1.774   0.388   3.323
 2020SOL    MW4 8112   1.752   0.365   3.404
 2021SOL     OW 8113   1.991   0.500   3.461
 2021SOL    HW2 8114   1.987   0.592   3.438
 2021SOL    HW3 8115   1.903   0.467   3.444
 2021SOL    MW4 8116   1.979   0.508   3.456
 2022SOL     OW 8117   2.019   0.771   3.407
 2022SOL    HW2 8118   2.092   0.827   3.434
 2022SOL    HW3 8119   2.025   0.770   3.311
 2022SOL    MW4 8120   2.030   0.778   3.398
 2023SOL     OW 8121   1.830   0.916   3.536
 2023SOL    HW2 8122   1.896   0.867   3.486
 2023SOL    HW3 8123   1.746   0.882   3.504
 2023SOL    MW4 8124   1.828   0.905   3.525
 2024SOL     OW 8125   1.812   1.140   3.357
 2024SOL    HW2 8126   1.875   1.198   3.400
 2024SOL    HW3 8127   1.810   1.062   3.412
 2024SOL    MW4 8128   1.820   1.138   3.370
 2025SOL     OW 8129   1.995   1.338   3.458
 2025SOL    HW2 8130   2.008   1.336   3.553
 2025SOL    HW3 8131   2.038   1.418   3.430
 2025SOL    MW4 8132   2.003   1.348   3.467
 2026SOL     OW 8133   1.998   1.595   3.351
 2026SOL    HW2 8134   2.082   1.635   3.370
 2026SOL    HW3 8135   1.942   1.619   3.425
 2026SOL    MW4 8136   2.002   1.603   3.363
 2027SOL     OW 8137   1.805   1.687   3.531
 2027SOL    HW2 8138   1.796   1.781   3.511
 2027SOL    HW3 8139   1.740   1.645   3.474
 2027SOL    MW4 8140   1.795   1.694   3.521
 2028SOL     OW 8141   1.756   1.960   3.410
 2028SOL    HW2 8142   1.837   2.007   3.430
 2028SOL    HW3 8143   1.766   1.934   3.318
 2028SOL    MW4 8144   1.768   1.963   3.401
 2029SOL     OW 8145   2.012   2.064   3.482
 2029SOL    HW2 8146   2.092   2.025   3.449
 2029SOL    HW3 8147   2.014   2.154   3.452
 2029SOL    MW4 8148   2.023   2.071   3.474
 2030SOL     OW 8149   1.998   2.307   3.381
 2030SOL    HW2 8150   2.087   2.336   3.397
 2030SOL    HW3 8151   1.992   2.300   3.286
 2030SOL    MW4 8152   2.009   2.310   3.370
 2031SOL     OW 8153   1.773   2.410   3.512
 2031SOL    HW2 8154   1.840   2.374   3.453
 2031SOL    HW3 8155   1.692   2.364   3.487
 2031SOL    MW4 8156   1.771   2.399   3.501
 2032SOL     OW 8157   1.748   2.677   3.396
 2032SOL    HW2 8158   1.841   2.702   3.395
 2032SOL    HW3 8159   1.747   2.587   3.429
 2032SOL    MW4 8160   1.760   2.669   3.400
 2033SOL     OW 8161   1.977   2.809   3.448
 2033SOL    HW2 8162   1.963   2.824   3.542
 2033SOL    HW3 8163   2.004   2.895   3.414
 2033SOL    MW4 8164   1.979   2.822   3.456
 2034SOL     OW 8165   2.013   3.058   3.369
 2034SOL    HW2 8166   2.097   3.092   3.400
 2034SOL    HW3 8167   1.948   3.120   3.403
 2034SOL    MW4 8168   2.016   3.071   3.377
 2035SOL     OW 8169   1.809   3.230   3.463
 2035SOL    HW2 8170   1.781   3.239   3.554
 2035SOL    HW3 8171   1.816   3.320   3.431
 2035SOL    MW4 8172   1.807   3.243   3.471
 2036SOL     OW 8173   1.800   3.490   3.366
 2036SOL    HW2 8174   1.709   3.514   3.384
 2036SOL    HW3 8175   1.804   3.476   3.272
 2036SOL    MW4 8176   1.788   3.492   3.356
 2037SOL     OW 8177   2.001   3.626   3.468
 2037SOL    HW2 8178   2.082   3.577   3.452
 2037SOL    HW3 8179   1.932   3.573   3.428
 2037SOL    MW4 8180   2.003   3.613   3.461
 2038SOL     OW 8181   1.999   3.876   3.357
 2038SOL    HW2 8182   1.952   3.923   3.426
 2038SOL    HW3 8183   2.005   3.786   3.390
 2038SOL    MW4 8184   1.994   3.870   3.371
 2039SOL     OW 8185   1.776   4.017   3.490
 2039SOL    HW2 8186   1.785   3.984   3.580
 2039SOL    HW3 8187   1.706   3.964   3.453
 2039SOL    MW4 8188   1.768   4.005   3.497
 2040SOL     OW 8189   1.792   4.275   3.372
 2040SOL    HW2 8190   1.787   4.187   3.409
 2040SOL    HW3 8191   1.790   4.261   3.277
 2040SOL    MW4 8192   1.791   4.262   3.364
 2041SOL     OW 8193   2.025   4.371   3.480
 2041SOL    HW2 8194   1.945   4.338   3.439
 2041SOL    HW3 8195   2.033   4.461   3.448
 2041SOL    MW4 8196   2.015   4.378   3.470
 2042SOL     OW 8197   2.431   0.024   3.366
 2042SOL    HW2 8198   2.422  -0.065   3.400
 2042SOL    HW3 8199   2.436   0.014   3.271
 2042SOL    MW4 8200   2.430   0.011   3.358
 2043SOL     OW 8201   2.201   0.126   3.463
 2043SOL    HW2 8202   2.193   0.219   3.441
 2043SOL    HW3 8203   2.282   0.098   3.419
 2043SOL    MW4 8204   2.211   0.135   3.455
 2044SOL     OW 8205   2.234   0.395   3.403
 2044SOL    HW2 8206   2.292   0.452   3.454
 2044SOL    HW3 8207   2.147   0.432   3.417
 2044SOL    MW4 8208   2.230   0.407   3.412
 2045SOL     OW 8209   2.438   0.536   3.522
 2045SOL    HW2 8210   2.514   0.485   3.495
 2045SOL    HW3 8211   2.447   0.619   3.476
 2045SOL    MW4 8212   2.449   0.540   3.513
 2046SOL     OW 8213   2.458   0.780   3.384
 2046SOL    HW2 8214   2.541   0.823   3.409
 2046SOL    HW3 8215   2.461   0.777   3.289
 2046SOL    MW4 8216   2.470   0.785   3.375
 2047SOL     OW 8217   2.253   0.924   3.486
 2047SOL    HW2 8218   2.244   1.003   3.432
 2047SOL    HW3 8219   2.317   0.871   3.440
 2047SOL    MW4 8220   2.260   0.927   3.473
 2048SOL     OW 8221   2.213   1.187   3.379
 2048SOL    HW2 8222   2.297   1.212   3.418
 2048SOL    HW3 8223   2.149   1.242   3.423
 2048SOL    MW4 8224   2.216   1.198   3.390
 2049SOL     OW 8225   2.444   1.296   3.477
 2049SOL    HW2 8226   2.451   1.290   3.572
 2049SOL    HW3 8227   2.514   1.241   3.443
 2049SOL    MW4 8228   2.454   1.288   3.485
 2050SOL     OW 8229   2.508   1.550   3.396
 2050SOL    HW2 8230   2.487   1.460   3.421
 2050SOL    HW3 8231   2.508   1.549   3.301
 2050SOL    MW4 8232   2.505   1.538   3.387
 2051SOL     OW 8233   2.265   1.681   3.452
 2051SOL    HW2 8234   2.255   1.678   3.547
 2051SOL    HW3 8235   2.341   1.625   3.435
 2051SOL    MW4 8236   2.274   1.673   3.463
 2052SOL     OW 8237   2.247   1.956   3.402
 2052SOL    HW2 8238   2.261   1.864   3.426
 2052SOL    HW3 8239   2.239   1.955   3.307
 2052SOL    MW4 8240   2.248   1.944   3.393
 2053SOL     OW 8241   2.468   2.109   3.507
 2053SOL    HW2 8242   2.471   2.094   3.601
 2053SOL    HW3 8243   2.382   2.076   3.480
 2053SOL    MW4 8244   2.457   2.102   3.516
 2054SOL     OW 8245   2.506   2.345   3.376
 2054SOL    HW2 8246   2.584   2.380   3.420
 2054SOL    HW3 8247   2.482   2.268   3.428
 2054SOL    MW4 8248   2.513   2.340   3.389
 2055SOL     OW 8249   2.242   2.415   3.474
 2055SOL    HW2 8250   2.241   2.511   3.465
 2055SOL    HW3 8251   2.328   2.389   3.442
 2055SOL    MW4 8252   2.253   2.424   3.469
 2056SOL     OW 8253   2.223   2.697   3.400
 2056SOL    HW2 8254   2.137   2.728   3.428
 2056SOL    HW3 8255   2.219   2.699   3.304
 2056SOL    MW4 8256   2.211   2.701   3.391
 2057SOL     OW 8257   2.453   2.802   3.497
 2057SOL    HW2 8258   2.442   2.886   3.453
 2057SOL    HW3 8259   2.382   2.748   3.464
 2057SOL    MW4 8260   2.443   2.806   3.487
 2058SOL     OW 8261   2.468   3.057   3.370
 2058SOL    HW2 8262   2.547   3.097   3.406
 2058SOL    HW3 8263   2.475   3.070   3.276
 2058SOL    MW4 8264   2.479   3.064   3.362
 2059SOL     OW 8265   2.233   3.182   3.463
 2059SOL    HW2 8266   2.232   3.210   3.555
 2059SOL    HW3 8267   2.323   3.153   3.449
 2059SOL    MW4 8268   2.245   3.182   3.473
 2060SOL     OW 8269   2.233   3.464   3.400
 2060SOL    HW2 8270   2.232   3.368   3.407
 2060SOL    HW3 8271   2.235   3.482   3.306
 2060SOL    MW4 8272   2.233   3.453   3.389
 2061SOL     OW 8273   2.482   3.565   3.495
 2061SOL    HW2 8274   2.474   3.648   3.449
 2061SOL    HW3 8275   2.396   3.523   3.486
 2061SOL    MW4 8276   2.470   3.570   3.488
 2062SOL     OW 8277   2.481   3.814   3.360
 2062SOL    HW2 8278   2.545   3.874   3.399
 2062SOL    HW3 8279   2.396   3.853   3.381
 2062SOL    MW4 8280   2.478   3.827   3.368
 2063SOL     OW 8281   2.229   3.978   3.437
 2063SOL    HW2 8282   2.240   4.070   3.414
 2063SOL    HW3 8283   2.145   3.953   3.398
 2063SOL    MW4 8284   2.219   3.987   3.429
 2064SOL     OW 8285   2.226   4.230   3.357
 2064SOL    HW2 8286   2.147   4.271   3.391
 2064SOL    HW3 8287   2.217   4.236   3.262
 2064SOL    MW4 8288   2.215   4.236   3.349
 2065SOL     OW 8289   2.425   4.412   3.435
 2065SOL    HW2 8290   2.413   4.406   3.530
 2065SOL    HW3 8291   2.354   4.360   3.398
 2065SOL    MW4 8292   2.414   4.404   3.442
 2066SOL     OW 8293   2.902   4.647   3.416
 2066SOL    HW2 8294   2.821   4.696   3.431
 2066SOL    HW3 8295   2.917   4.653   3.321
 2066SOL    MW4 8296   2.894   4.654   3.405
 2067SOL     OW 8297   2.678   0.121   3.495
 2067SOL    HW2 8298   2.676   0.210   3.459
 2067SOL    HW3 8299   2.590   0.088   3.482
 2067SOL    MW4 8300   2.666   0.128   3.488
 2068SOL     OW 8301   2.674   0.404   3.420
 2068SOL    HW2 8302   2.759   0.437   3.448
 2068SOL    HW3 8303   2.679   0.403   3.324
 2068SOL    MW4 8304   2.686   0.409   3.411
 2069SOL     OW 8305   2.909   0.524   3.472
 2069SOL    HW2 8306   2.912   0.546   3.565
 2069SOL    HW3 8307   2.909   0.609   3.427
 2069SOL    MW4 8308   2.909   0.538   3.478
 2070SOL     OW 8309   2.893   0.772   3.373
 2070SOL    HW2 8310   2.963   0.832   3.395
 2070SOL    HW3 8311   2.815   0.810   3.413
 2070SOL    MW4 8312   2.892   0.785   3.381
 2071SOL     OW 8313   2.678   0.918   3.483
 2071SOL    HW2 8314   2.675   0.915   3.578
 2071SOL    HW3 8315   2.658   1.009   3.462
 2071SOL    MW4 8316   2.675   0.930   3.493
 2072SOL     OW 8317   2.662   1.170   3.383
 2072SOL    HW2 8318   2.742   1.212   3.414
 2072SOL    HW3 8319   2.674   1.163   3.289
 2072SOL    MW4 8320   2.674   1.175   3.375
 2073SOL     OW 8321   2.912   1.298   3.457
 2073SOL    HW2 8322   2.901   1.287   3.552
 2073SOL    HW3 8323   2.992   1.251   3.437
 2073SOL    MW4 8324   2.921   1.290   3.467
 2074SOL     OW 8325   2.971   1.567   3.418
 2074SOL    HW2 8326   2.894   1.613   3.451
 2074SOL    HW3 8327   2.951   1.474   3.433
 2074SOL    MW4 8328   2.958   1.561   3.424
 2075SOL     OW 8329   2.728   1.706   3.486
 2075SOL    HW2 8330   2.700   1.795   3.464
 2075SOL    HW3 8331   2.657   1.650   3.454
 2075SOL    MW4 8332   2.715   1.710   3.478
 2076SOL     OW 8333   2.656   1.955   3.385
 2076SOL    HW2 8334   2.587   2.011   3.423
 2076SOL    HW3 8335   2.641   1.960   3.291
 2076SOL    MW4 8336   2.645   1.963   3.378
 2077SOL     OW 8337   2.922   2.041   3.481
 2077SOL    HW2 8338   2.924   2.037   3.576
 2077SOL    HW3 8339   2.834   2.012   3.457
 2077SOL    MW4 8340   2.911   2.037   3.490
 2078SOL     OW 8341   2.958   2.304   3.403
 2078SOL    HW2 8342   2.945   2.214   3.433
 2078SOL    HW3 8343   2.958   2.298   3.307
 2078SOL    MW4 8344   2.956   2.291   3.394
 2079SOL     OW 8345   2.725   2.476   3.485
 2079SOL    HW2 8346   2.704   2.462   3.577
 2079SOL    HW3 8347   2.806   2.426   3.472
 2079SOL    MW4 8348   2.733   2.467   3.496
 2080SOL     OW 8349   2.688   2.719   3.371
 2080SOL    HW2 8350   2.700   2.628   3.398
 2080SOL    HW3 8351   2.611   2.749   3.419
 2080SOL    MW4 8352   2.680   2.711   3.381
 2081SOL     OW 8353   2.921   2.837   3.471
 2081SOL    HW2 8354   2.934   2.827   3.566
 2081SOL    HW3 8355   2.839   2.793   3.453
 2081SOL    MW4 8356   2.912   2.830   3.481
 2082SOL     OW 8357   2.920   3.099   3.410
 2082SOL    HW2 8358   2.923   3.005   3.430
 2082SOL    HW3 8359   2.894   3.102   3.317
 2082SOL    MW4 8360   2.917   3.087   3.400
 2083SOL     OW 8361   2.677   3.184   3.480
 2083SOL    HW2 8362   2.685   3.197   3.575
 2083SOL    HW3 8363   2.760   3.146   3.454
 2083SOL    MW4 8364   2.689   3.181   3.489
 2084SOL     OW 8365   2.688   3.445   3.363
 2084SOL    HW2 8366   2.681   3.354   3.393
 2084SOL    HW3 8367   2.630   3.494   3.420
 2084SOL    MW4 8368   2.680   3.440   3.374
 2085SOL     OW 8369   2.908   3.604   3.435
 2085SOL    HW2 8370   2.896   3.695   3.408
 2085SOL    HW3 8371   2.825   3.562   3.412
 2085SOL    MW4 8372   2.895   3.610   3.428
 2086SOL     OW 8373   2.910   3.889   3.368
 2086SOL    HW2 8374   2.983   3.939   3.405
 2086SOL    HW3 8375   2.832   3.934   3.399
 2086SOL    MW4 8376   2.910   3.901   3.377
 2087SOL     OW 8377   2.661   4.005   3.457
 2087SOL    HW2 8378   2.667   4.002   3.553
 2087SOL    HW3 8379   2.643   4.097   3.437
 2087SOL    MW4 8380   2.659   4.017   3.467
 2088SOL     OW 8381   2.638   4.267   3.389
 2088SOL    HW2 8382   2.712   4.310   3.430
 2088SOL    HW3 8383   2.562   4.321   3.414
 2088SOL    MW4 8384   2.638   4.280   3.398
 2089SOL     OW 8385   2.880   4.369   3.476
 2089SOL    HW2 8386   2.883   4.365   3.572
 2089SOL    HW3 8387   2.885   4.462   3.456
 2089SOL    MW4 8388   2.881   4.381   3.486
 2090SOL     OW 8389   3.361   4.629   3.449
 2090SOL    HW2 8390   3.277   4.670   3.471
 2090SOL    HW3 8391   3.374   4.648   3.356
 2090SOL    MW4 8392   3.352   4.637   3.440
 2091SOL     OW 8393   3.124   0.120   3.532
 2091SOL    HW2 8394   3.131   0.198   3.476
 2091SOL    HW3 8395   3.047   0.074   3.498
 2091SOL    MW4 8396   3.115   0.125   3.520
 2092SOL     OW 8397   3.150   0.373   3.425
 2092SOL    HW2 8398   3.070   0.418   3.453
 2092SOL    HW3 8399   3.163   0.403   3.335
 2092SOL    MW4 8400   3.141   0.383   3.417
 2093SOL     OW 8401   3.372   0.524   3.491
 2093SOL    HW2 8402   3.377   0.516   3.586
 2093SOL    HW3 8403   3.294   0.475   3.467
 2093SOL    MW4 8404   3.362   0.517   3.501
 2094SOL     OW 8405   3.349   0.789   3.403
 2094SOL    HW2 8406   3.426   0.835   3.437
 2094SOL    HW3 8407   3.352   0.703   3.445
 2094SOL    MW4 8408   3.360   0.784   3.413
 2095SOL     OW 8409   3.110   0.924   3.470
 2095SOL    HW2 8410   3.117   1.019   3.461
 2095SOL    HW3 8411   3.197   0.891   3.445
 2095SOL    MW4 8412   3.123   0.932   3.465
 2096SOL     OW 8413   3.155   1.188   3.385
 2096SOL    HW2 8414   3.234   1.225   3.424
 2096SOL    HW3 8415   3.169   1.193   3.290
 2096SOL    MW4 8416   3.167   1.193   3.378
 2097SOL     OW 8417   3.371   1.320   3.471
 2097SOL    HW2 8418   3.447   1.265   3.448
 2097SOL    HW3 8419   3.393   1.406   3.435
 2097SOL    MW4 8420   3.384   1.324   3.463
 2098SOL     OW 8421   3.394   1.584   3.388
 2098SOL    HW2 8422   3.465   1.623   3.438
 2098SOL    HW3 8423   3.315   1.629   3.419
 2098SOL    MW4 8424   3.393   1.595   3.398
 2099SOL     OW 8425   3.189   1.723   3.491
 2099SOL    HW2 8426   3.178   1.810   3.453
 2099SOL    HW3 8427   3.120   1.671   3.449
 2099SOL    MW4 8428   3.178   1.728   3.480
 2100SOL     OW 8429   3.160   1.966   3.353
 2100SOL    HW2 8430   3.075   1.997   3.385
 2100SOL    HW3 8431   3.150   1.963   3.258
 2100SOL    MW4 8432   3.147   1.970   3.345
 2101SOL     OW 8433   3.389   2.044   3.494
 2101SOL    HW2 8434   3.386   2.137   3.472
 2101SOL    HW3 8435   3.312   2.007   3.452
 2101SOL    MW4 8436   3.379   2.051   3.486
 2102SOL     OW 8437   3.366   2.310   3.410
 2102SOL    HW2 8438   3.445   2.362   3.429
 2102SOL    HW3 8439   3.295   2.358   3.451
 2102SOL    MW4 8440   3.367   2.323   3.418
 2103SOL     OW 8441   3.146   2.485   3.494
 2103SOL    HW2 8442   3.151   2.560   3.435
 2103SOL    HW3 8443   3.073   2.433   3.461
 2103SOL    MW4 8444   3.137   2.488   3.482
 2104SOL     OW 8445   3.158   2.741   3.328
 2104SOL    HW2 8446   3.228   2.781   3.379
 2104SOL    HW3 8447   3.077   2.766   3.374
 2104SOL    MW4 8448   3.156   2.750   3.341
 2105SOL     OW 8449   3.375   2.817   3.469
 2105SOL    HW2 8450   3.446   2.764   3.433
 2105SOL    HW3 8451   3.400   2.907   3.450
 2105SOL    MW4 8452   3.388   2.822   3.461
 2106SOL     OW 8453   3.404   3.083   3.388
 2106SOL    HW2 8454   3.470   3.132   3.436
 2106SOL    HW3 8455   3.321   3.111   3.426
 2106SOL    MW4 8456   3.402   3.093   3.399
 2107SOL     OW 8457   3.163   3.222   3.494
 2107SOL    HW2 8458   3.157   3.310   3.458
 2107SOL    HW3 8459   3.082   3.179   3.467
 2107SOL    MW4 8460   3.152   3.228   3.485
 2108SOL     OW 8461   3.156   3.464   3.379
 2108SOL    HW2 8462   3.080   3.522   3.383
 2108SOL    HW3 8463   3.172   3.450   3.286
 2108SOL    MW4 8464   3.148   3.470   3.368
 2109SOL     OW 8465   3.373   3.593   3.504
 2109SOL    HW2 8466   3.366   3.684   3.474
 2109SOL    HW3 8467   3.304   3.547   3.456
 2109SOL    MW4 8468   3.363   3.599   3.494
 2110SOL     OW 8469   3.348   3.871   3.411
 2110SOL    HW2 8470   3.425   3.913   3.448
 2110SOL    HW3 8471   3.275   3.928   3.435
 2110SOL    MW4 8472   3.349   3.884   3.419
 2111SOL     OW 8473   3.132   4.003   3.503
 2111SOL    HW2 8474   3.122   3.989   3.597
 2111SOL    HW3 8475   3.112   4.096   3.491
 2111SOL    MW4 8476   3.128   4.014   3.513
 2112SOL     OW 8477   3.120   4.269   3.397
 2112SOL    HW2 8478   3.190   4.311   3.446
 2112SOL    HW3 8479   3.039   4.307   3.433
 2112SOL    MW4 8480   3.118   4.280   3.408
 2113SOL     OW 8481   3.336   4.376   3.527
 2113SOL    HW2 8482   3.342   4.390   3.622
 2113SOL    HW3 8483   3.337   4.465   3.490
 2113SOL    MW4 8484   3.337   4.390   3.535
 2114SOL     OW 8485   3.810   4.651   3.435
 2114SOL    HW2 8486   3.732   4.703   3.454
 2114SOL    HW3 8487   3.806   4.634   3.341
 2114SOL    MW4 8488   3.799   4.655   3.425
 2115SOL     OW 8489   3.618   0.144   3.512
 2115SOL    HW2 8490   3.623   0.219   3.453
 2115SOL    HW3 8491   3.531   0.108   3.495
 2115SOL    MW4 8492   3.607   0.149   3.502
 2116SOL     OW 8493   3.592   0.389   3.384
 2116SOL    HW2 8494   3.661   0.436   3.431
 2116SOL    HW3 8495   3.510   0.426   3.418
 2116SOL    MW4 8496   3.590   0.400   3.394
 2117SOL     OW 8497   3.801   0.508   3.517
 2117SOL    HW2 8498   3.799   0.502   3.613
 2117SOL    HW3 8499   3.877   0.458   3.490
 2117SOL    MW4 8500   3.811   0.501   3.526
 2118SOL     OW 8501   3.796   0.767   3.439
 2118SOL    HW2 8502   3.881   0.800   3.468
 2118SOL    HW3 8503   3.795   0.675   3.466
 2118SOL    MW4 8504   3.807   0.759   3.446
 2119SOL     OW 8505   3.573   0.920   3.506
 2119SOL    HW2 8506   3.578   0.925   3.601
 2119SOL    HW3 8507   3.653   0.874   3.480
 2119SOL    MW4 8508   3.584   0.914   3.515
 2120SOL     OW 8509   3.599   1.186   3.374
 2120SOL    HW2 8510   3.603   1.094   3.401
 2120SOL    HW3 8511   3.604   1.182   3.278
 2120SOL    MW4 8512   3.600   1.173   3.365
 2121SOL     OW 8513   3.842   1.247   3.501
 2121SOL    HW2 8514   3.825   1.265   3.593
 2121SOL    HW3 8515   3.756   1.227   3.464
 2121SOL    MW4 8516   3.828   1.247   3.508
 2122SOL     OW 8517   3.832   1.498   3.379
 2122SOL    HW2 8518   3.888   1.541   3.444
 2122SOL    HW3 8519   3.830   1.406   3.406
 2122SOL    MW4 8520   3.839   1.491   3.391
 2123SOL     OW 8521   3.626   1.678   3.524
 2123SOL    HW2 8522   3.608   1.760   3.477
 2123SOL    HW3 8523   3.689   1.632   3.468
 2123SOL    MW4 8524   3.632   1.683   3.510
 2124SOL     OW 8525   3.607   1.922   3.392
 2124SOL    HW2 8526   3.682   1.967   3.431
 2124SOL    HW3 8527   3.531   1.975   3.419
 2124SOL    MW4 8528   3.607   1.935   3.401
 2125SOL     OW 8529   3.818   2.052   3.509
 2125SOL    HW2 8530   3.808   2.053   3.605
 2125SOL    HW3 8531   3.884   1.985   3.492
 2125SOL    MW4 8532   3.825   2.044   3.520
 2126SOL     OW 8533   3.807   2.288   3.380
 2126SOL    HW2 8534   3.873   2.343   3.421
 2126SOL    HW3 8535   3.817   2.203   3.422
 2126SOL    MW4 8536   3.817   2.284   3.391
 2127SOL     OW 8537   3.602   2.448   3.483
 2127SOL    HW2 8538   3.609   2.535   3.443
 2127SOL    HW3 8539   3.671   2.397   3.441
 2127SOL    MW4 8540   3.612   2.453   3.472
 2128SOL     OW 8541   3.603   2.696   3.361
 2128SOL    HW2 8542   3.683   2.739   3.391
 2128SOL    HW3 8543   3.608   2.699   3.266
 2128SOL    MW4 8544   3.614   2.702   3.353
 2129SOL     OW 8545   3.844   2.819   3.470
 2129SOL    HW2 8546   3.848   2.822   3.565
 2129SOL    HW3 8547   3.838   2.910   3.442
 2129SOL    MW4 8548   3.844   2.831   3.479
 2130SOL     OW 8549   3.840   3.072   3.372
 2130SOL    HW2 8550   3.911   3.121   3.413
 2130SOL    HW3 8551   3.863   3.071   3.279
 2130SOL    MW4 8552   3.852   3.078   3.365
 2131SOL     OW 8553   3.629   3.204   3.504
 2131SOL    HW2 8554   3.618   3.295   3.477
 2131SOL    HW3 8555   3.703   3.172   3.453
 2131SOL    MW4 8556   3.637   3.211   3.494
 2132SOL     OW 8557   3.593   3.457   3.423
 2132SOL    HW2 8558   3.506   3.491   3.443
 2132SOL    HW3 8559   3.600   3.465   3.327
 2132SOL    MW4 8560   3.582   3.462   3.413
 2133SOL     OW 8561   3.822   3.623   3.481
 2133SOL    HW2 8562   3.828   3.631   3.576
 2133SOL    HW3 8563   3.740   3.576   3.465
 2133SOL    MW4 8564   3.812   3.618   3.492
 2134SOL     OW 8565   3.792   3.885   3.397
 2134SOL    HW2 8566   3.710   3.916   3.436
 2134SOL    HW3 8567   3.795   3.792   3.418
 2134SOL    MW4 8568   3.781   3.877   3.405
 2135SOL     OW 8569   3.566   4.001   3.506
 2135SOL    HW2 8570   3.573   4.002   3.601
 2135SOL    HW3 8571   3.557   4.093   3.481
 2135SOL    MW4 8572   3.566   4.013   3.515
 2136SOL     OW 8573   3.571   4.269   3.434
 2136SOL    HW2 8574   3.491   4.311   3.465
 2136SOL    HW3 8575   3.564   4.271   3.338
 2136SOL    MW4 8576   3.559   4.275   3.425
 2137SOL     OW 8577   3.816   4.367   3.528
 2137SOL    HW2 8578   3.735   4.327   3.494
 2137SOL    HW3 8579   3.808   4.459   3.504
 2137SOL    MW4 8580   3.804   4.374   3.520
 2138SOL     OW 8581   4.265   4.632   3.447
 2138SOL    HW2 8582   4.289   4.541   3.464
 2138SOL    HW3 8583   4.343   4.682   3.470
 2138SOL    MW4 8584   4.278   4.626   3.452
 2139SOL     OW 8585   4.058   0.107   3.529
 2139SOL    HW2 8586   4.136   0.066   3.492
 2139SOL    HW3 8587   3.985   0.057   3.492
 2139SOL    MW4 8588   4.059   0.095   3.519
 2140SOL     OW 8589   4.019   0.374   3.421
 2140SOL    HW2 8590   4.015   0.285   3.457
 2140SOL    HW3 8591   4.027   0.361   3.326
 2140SOL    MW4 8592   4.020   0.360   3.413
 2141SOL     OW 8593   4.263   0.479   3.525
 2141SOL    HW2 8594   4.271   0.553   3.465
 2141SOL    HW3 8595   4.180   0.437   3.501
 2141SOL    MW4 8596   4.253   0.483   3.514
 2142SOL     OW 8597   4.291   0.735   3.402
 2142SOL    HW2 8598   4.361   0.792   3.432
 2142SOL    HW3 8599   4.287   0.750   3.307
 2142SOL    MW4 8600   4.300   0.744   3.393
 2143SOL     OW 8601   4.047   0.860   3.489
 2143SOL    HW2 8602   4.048   0.947   3.448
 2143SOL    HW3 8603   4.130   0.821   3.464
 2143SOL    MW4 8604   4.058   0.867   3.480
 2144SOL     OW 8605   4.045   1.117   3.381
 2144SOL    HW2 8606   4.125   1.135   3.430
 2144SOL    HW3 8607   3.975   1.156   3.434
 2144SOL    MW4 8608   4.046   1.124   3.394
 2145SOL     OW 8609   4.268   1.226   3.518
 2145SOL    HW2 8610   4.251   1.319   3.503
 2145SOL    HW3 8611   4.359   1.213   3.490
 2145SOL    MW4 8612   4.278   1.236   3.512
 2146SOL     OW 8613   4.220   1.486   3.442
 2146SOL    HW2 8614   4.152   1.550   3.460
 2146SOL    HW3 8615   4.232   1.491   3.347
 2146SOL    MW4 8616   4.213   1.495   3.432
 2147SOL     OW 8617   4.008   1.636   3.536
 2147SOL    HW2 8618   4.011   1.649   3.630
 2147SOL    HW3 8619   4.028   1.722   3.498
 2147SOL    MW4 8620   4.011   1.649   3.543
 2148SOL     OW 8621   4.028   1.884   3.417
 2148SOL    HW2 8622   4.114   1.920   3.439
 2148SOL    HW3 8623   4.032   1.868   3.322
 2148SOL    MW4 8624   4.040   1.887   3.407
 2149SOL     OW 8625   4.246   2.027   3.475
 2149SOL    HW2 8626   4.250   2.121   3.461
 2149SOL    HW3 8627   4.335   1.996   3.456
 2149SOL    MW4 8628   4.258   2.035   3.471
 2150SOL     OW 8629   4.274   2.292   3.403
 2150SOL    HW2 8630   4.189   2.326   3.429
 2150SOL    HW3 8631   4.271   2.291   3.307
 2150SOL    MW4 8632   4.263   2.296   3.394
 2151SOL     OW 8633   4.017   2.431   3.481
 2151SOL    HW2 8634   3.998   2.445   3.574
 2151SOL    HW3 8635   4.044   2.517   3.449
 2151SOL    MW4 8636   4.018   2.444   3.489
 2152SOL     OW 8637   4.071   2.691   3.403
 2152SOL    HW2 8638   4.145   2.748   3.426
 2152SOL    HW3 8639   3.993   2.741   3.429
 2152SOL    MW4 8640   4.070   2.705   3.409
 2153SOL     OW 8641   4.277   2.846   3.498
 2153SOL    HW2 8642   4.281   2.841   3.594
 2153SOL    HW3 8643   4.356   2.800   3.469
 2153SOL    MW4 8644   4.288   2.839   3.507
 2154SOL     OW 8645   4.289   3.097   3.377
 2154SOL    HW2 8646   4.300   3.004   3.398
 2154SOL    HW3 8647   4.293   3.102   3.282
 2154SOL    MW4 8648   4.291   3.086   3.368
 2155SOL     OW 8649   4.050   3.216   3.479
 2155SOL    HW2 8650   4.048   3.299   3.432
 2155SOL    HW3 8651   4.134   3.176   3.455
 2155SOL    MW4 8652   4.061   3.222   3.470
 2156SOL     OW 8653   4.027   3.476   3.374
 2156SOL    HW2 8654   4.102   3.530   3.396
 2156SOL    HW3 8655   3.951   3.524   3.408
 2156SOL    MW4 8656   4.027   3.489   3.382
 2157SOL     OW 8657   4.253   3.606   3.472
 2157SOL    HW2 8658   4.238   3.616   3.566
 2157SOL    HW3 8659   4.254   3.695   3.439
 2157SOL    MW4 8660   4.251   3.619   3.480
 2158SOL     OW 8661   4.241   3.861   3.399
 2158SOL    HW2 8662   4.319   3.909   3.429
 2158SOL    HW3 8663   4.247   3.860   3.304
 2158SOL    MW4 8664   4.252   3.867   3.391
 2159SOL     OW 8665   4.016   3.982   3.533
 2159SOL    HW2 8666   4.091   3.942   3.488
 2159SOL    HW3 8667   3.941   3.960   3.478
 2159SOL    MW4 8668   4.016   3.974   3.520
 2160SOL     OW 8669   4.025   4.218   3.391
 2160SOL    HW2 8670   4.024   4.137   3.441
 2160SOL    HW3 8671   3.961   4.274   3.436
 2160SOL    MW4 8672   4.016   4.215   3.404
 2161SOL     OW 8673   4.285   4.351   3.479
 2161SOL    HW2 8674   4.284   4.357   3.574
 2161SOL    HW3 8675   4.198   4.317   3.456
 2161SOL    MW4 8676   4.273   4.347   3.489
 2162SOL     OW 8677   0.235   4.634   3.849
 2162SOL    HW2 8678   0.236   4.640   3.945
 2162SOL    HW3 8679   0.155   4.681   3.824
 2162SOL    MW4 8680   0.224   4.641   3.858
 2163SOL     OW 8681   4.477   0.097   3.807
 2163SOL    HW2 8682   4.507   0.184   3.831
 2163SOL    HW3 8683   4.465   0.101   3.712
 2163SOL    MW4 8684   4.479   0.109   3.797
 2164SOL     OW 8685   0.041   0.353   3.886
 2164SOL    HW2 8686  -0.036   0.406   3.863
 2164SOL    HW3 8687   0.115   0.400   3.846
 2164SOL    MW4 8688   0.041   0.366   3.877
 2165SOL     OW 8689   0.222   0.507   3.760
 2165SOL    HW2 8690   0.215   0.600   3.782
 2165SOL    HW3 8691   0.231   0.505   3.665
 2165SOL    MW4 8692   0.222   0.519   3.750
 2166SOL     OW 8693   0.194   0.784   3.846
 2166SOL    HW2 8694   0.193   0.798   3.941
 2166SOL    HW3 8695   0.107   0.813   3.817
 2166SOL    MW4 8696   0.182   0.790   3.855
 2167SOL     OW 8697   4.454   0.912   3.783
 2167SOL    HW2 8698   4.377   0.871   3.820
 2167SOL    HW3 8699   4.464   0.994   3.832
 2167SOL    MW4 8700   4.445   0.918   3.794
 2168SOL     OW 8701   0.001   1.125   3.953
 2168SOL    HW2 8702  -0.079   1.162   3.914
 2168SOL    HW3 8703   0.072   1.159   3.899
 2168SOL    MW4 8704  -0.001   1.134   3.941
 2169SOL     OW 8705   0.215   1.228   3.805
 2169SOL    HW2 8706   0.228   1.315   3.844
 2169SOL    HW3 8707   0.218   1.244   3.710
 2169SOL    MW4 8708   0.217   1.242   3.797
 2170SOL     OW 8709   0.228   1.489   3.882
 2170SOL    HW2 8710   0.230   1.510   3.976
 2170SOL    HW3 8711   0.143   1.520   3.853
 2170SOL    MW4 8712   0.217   1.496   3.891
 2171SOL     OW 8713   0.010   1.602   3.758
 2171SOL    HW2 8714  -0.003   1.689   3.798
 2171SOL    HW3 8715  -0.005   1.616   3.665
 2171SOL    MW4 8716   0.006   1.616   3.751
 2172SOL     OW 8717   4.485   1.879   3.871
 2172SOL    HW2 8718   4.491   1.899   3.965
 2172SOL    HW3 8719   4.415   1.936   3.839
 2172SOL    MW4 8720   4.477   1.890   3.879
 2173SOL     OW 8721   0.200   2.006   3.746
 2173SOL    HW2 8722   0.191   2.093   3.786
 2173SOL    HW3 8723   0.134   1.952   3.790
 2173SOL    MW4 8724   0.190   2.011   3.757
 2174SOL     OW 8725   0.220   2.277   3.860
 2174SOL    HW2 8726   0.224   2.277   3.956
 2174SOL    HW3 8727   0.140   2.325   3.839
 2174SOL    MW4 8728   0.210   2.283   3.870
 2175SOL     OW 8729   0.001   2.433   3.768
 2175SOL    HW2 8730  -0.080   2.387   3.794
 2175SOL    HW3 8731   0.003   2.511   3.823
 2175SOL    MW4 8732  -0.010   2.437   3.778
 2176SOL     OW 8733   4.490   2.701   3.906
 2176SOL    HW2 8734   4.473   2.719   3.998
 2176SOL    HW3 8735   4.568   2.754   3.886
 2176SOL    MW4 8736   4.498   2.711   3.915
 2177SOL     OW 8737   0.232   2.825   3.812
 2177SOL    HW2 8738   0.315   2.778   3.825
 2177SOL    HW3 8739   0.221   2.828   3.717
 2177SOL    MW4 8740   0.242   2.819   3.802
 2178SOL     OW 8741   0.268   3.077   3.879
 2178SOL    HW2 8742   0.257   3.078   3.974
 2178SOL    HW3 8743   0.266   2.984   3.856
 2178SOL    MW4 8744   0.266   3.065   3.889
 2179SOL     OW 8745   0.017   3.167   3.783
 2179SOL    HW2 8746   0.106   3.141   3.808
 2179SOL    HW3 8747   0.021   3.178   3.688
 2179SOL    MW4 8748   0.029   3.165   3.774
 2180SOL     OW 8749   0.008   3.440   3.849
 2180SOL    HW2 8750   0.084   3.494   3.831
 2180SOL    HW3 8751   0.036   3.351   3.827
 2180SOL    MW4 8752   0.022   3.435   3.844
 2181SOL     OW 8753   0.217   3.578   3.722
 2181SOL    HW2 8754   0.295   3.532   3.751
 2181SOL    HW3 8755   0.223   3.664   3.763
 2181SOL    MW4 8756   0.228   3.583   3.731
 2182SOL     OW 8757   0.189   3.814   3.855
 2182SOL    HW2 8758   0.181   3.829   3.949
 2182SOL    HW3 8759   0.268   3.862   3.830
 2182SOL    MW4 8760   0.198   3.823   3.864
 2183SOL     OW 8761   0.019   3.999   3.759
 2183SOL    HW2 8762  -0.068   3.964   3.775
 2183SOL    HW3 8763   0.079   3.931   3.789
 2183SOL    MW4 8764   0.016   3.986   3.765
 2184SOL     OW 8765   0.003   4.221   3.899
 2184SOL    HW2 8766   0.077   4.268   3.859
 2184SOL    HW3 8767   0.005   4.135   3.857
 2184SOL    MW4 8768   0.013   4.216   3.888
 2185SOL     OW 8769   0.196   4.369   3.761
 2185SOL    HW2 8770   0.281   4.340   3.792
 2185SOL    HW3 8771   0.186   4.457   3.797
 2185SOL    MW4 8772   0.206   4.377   3.770
 2186SOL     OW 8773   0.649   4.663   3.857
 2186SOL    HW2 8774   0.627   4.570   3.849
 2186SOL    HW3 8775   0.575   4.709   3.817
 2186SOL    MW4 8776   0.636   4.657   3.851
 2187SOL     OW 8777   0.436   0.125   3.743
 2187SOL    HW2 8778   0.421   0.196   3.805
 2187SOL    HW3 8779   0.383   0.053   3.775
 2187SOL    MW4 8780   0.427   0.125   3.755
 2188SOL     OW 8781   0.435   0.379   3.876
 2188SOL    HW2 8782   0.510   0.425   3.838
 2188SOL    HW3 8783   0.358   0.423   3.837
 2188SOL    MW4 8784   0.434   0.391   3.866
 2189SOL     OW 8785   0.638   0.476   3.716
 2189SOL    HW2 8786   0.710   0.435   3.765
 2189SOL    HW3 8787   0.631   0.564   3.754
 2189SOL    MW4 8788   0.647   0.482   3.728
 2190SOL     OW 8789   0.646   0.729   3.857
 2190SOL    HW2 8790   0.721   0.774   3.819
 2190SOL    HW3 8791   0.570   0.771   3.817
 2190SOL    MW4 8792   0.646   0.741   3.847
 2191SOL     OW 8793   0.442   0.859   3.735
 2191SOL    HW2 8794   0.455   0.946   3.771
 2191SOL    HW3 8795   0.357   0.831   3.769
 2191SOL    MW4 8796   0.432   0.866   3.744
 2192SOL     OW 8797   0.465   1.102   3.856
 2192SOL    HW2 8798   0.533   1.165   3.833
 2192SOL    HW3 8799   0.383   1.149   3.840
 2192SOL    MW4 8800   0.463   1.117   3.851
 2193SOL     OW 8801   0.661   1.278   3.787
 2193SOL    HW2 8802   0.737   1.231   3.820
 2193SOL    HW3 8803   0.670   1.274   3.691
 2193SOL    MW4 8804   0.672   1.271   3.778
 2194SOL     OW 8805   0.626   1.542   3.832
 2194SOL    HW2 8806   0.698   1.574   3.778
 2194SOL    HW3 8807   0.620   1.449   3.811
 2194SOL    MW4 8808   0.635   1.534   3.822
 2195SOL     OW 8809   0.397   1.672   3.792
 2195SOL    HW2 8810   0.482   1.629   3.803
 2195SOL    HW3 8811   0.334   1.611   3.830
 2195SOL    MW4 8812   0.400   1.658   3.799
 2196SOL     OW 8813   0.412   1.913   3.909
 2196SOL    HW2 8814   0.416   1.825   3.871
 2196SOL    HW3 8815   0.343   1.958   3.861
 2196SOL    MW4 8816   0.404   1.907   3.898
 2197SOL     OW 8817   0.638   2.030   3.803
 2197SOL    HW2 8818   0.651   2.115   3.844
 2197SOL    HW3 8819   0.557   1.996   3.842
 2197SOL    MW4 8820   0.629   2.036   3.814
 2198SOL     OW 8821   0.671   2.296   3.871
 2198SOL    HW2 8822   0.752   2.336   3.839
 2198SOL    HW3 8823   0.602   2.356   3.842
 2198SOL    MW4 8824   0.673   2.310   3.863
 2199SOL     OW 8825   0.426   2.433   3.765
 2199SOL    HW2 8826   0.369   2.362   3.795
 2199SOL    HW3 8827   0.427   2.425   3.669
 2199SOL    MW4 8828   0.418   2.423   3.756
 2200SOL     OW 8829   0.462   2.670   3.888
 2200SOL    HW2 8830   0.533   2.709   3.836
 2200SOL    HW3 8831   0.436   2.592   3.839
 2200SOL    MW4 8832   0.468   2.665   3.875
 2201SOL     OW 8833   0.654   2.840   3.772
 2201SOL    HW2 8834   0.724   2.777   3.786
 2201SOL    HW3 8835   0.654   2.856   3.678
 2201SOL    MW4 8836   0.663   2.834   3.762
 2202SOL     OW 8837   0.695   3.072   3.903
 2202SOL    HW2 8838   0.684   3.069   3.998
 2202SOL    HW3 8839   0.680   2.982   3.874
 2202SOL    MW4 8840   0.691   3.060   3.911
 2203SOL     OW 8841   0.492   3.189   3.752
 2203SOL    HW2 8842   0.564   3.154   3.804
 2203SOL    HW3 8843   0.414   3.148   3.788
 2203SOL    MW4 8844   0.491   3.179   3.764
 2204SOL     OW 8845   0.437   3.452   3.836
 2204SOL    HW2 8846   0.522   3.487   3.808
 2204SOL    HW3 8847   0.439   3.360   3.808
 2204SOL    MW4 8848   0.448   3.444   3.828
 2205SOL     OW 8849   0.675   3.599   3.819
 2205SOL    HW2 8850   0.663   3.684   3.862
 2205SOL    HW3 8851   0.668   3.618   3.725
 2205SOL    MW4 8852   0.672   3.612   3.812
 2206SOL     OW 8853   0.631   3.870   3.885
 2206SOL    HW2 8854   0.639   3.877   3.980
 2206SOL    HW3 8855   0.714   3.903   3.851
 2206SOL    MW4 8856   0.643   3.875   3.893
 2207SOL     OW 8857   0.396   3.979   3.786
 2207SOL    HW2 8858   0.475   3.942   3.825
 2207SOL    HW3 8859   0.415   3.983   3.692
 2207SOL    MW4 8860   0.409   3.974   3.779
 2208SOL     OW 8861   0.423   4.234   3.860
 2208SOL    HW2 8862   0.515   4.262   3.862
 2208SOL    HW3 8863   0.427   4.142   3.835
 2208SOL    MW4 8864   0.436   4.226   3.857
 2209SOL     OW 8865   0.650   4.368   3.806
 2209SOL    HW2 8866   0.738   4.335   3.823
 2209SOL    HW3 8867   0.645   4.374   3.710
 2209SOL    MW4 8868   0.661   4.364   3.795
 2210SOL     OW 8869   1.105   0.000   3.865
 2210SOL    HW2 8870   1.176   0.061   3.841
 2210SOL    HW3 8871   1.142  -0.087   3.848
 2210SOL    MW4 8872   1.119  -0.004   3.859
 2211SOL     OW 8873   0.882   0.102   3.743
 2211SOL    HW2 8874   0.953   0.060   3.790
 2211SOL    HW3 8875   0.802   0.061   3.777
 2211SOL    MW4 8876   0.881   0.091   3.754
 2212SOL     OW 8877   0.853   0.360   3.848
 2212SOL    HW2 8878   0.851   0.348   3.943
 2212SOL    HW3 8879   0.857   0.272   3.813
 2212SOL    MW4 8880   0.853   0.347   3.856
 2213SOL     OW 8881   1.075   0.503   3.758
 2213SOL    HW2 8882   1.147   0.464   3.807
 2213SOL    HW3 8883   0.998   0.453   3.785
 2213SOL    MW4 8884   1.074   0.491   3.768
 2214SOL     OW 8885   1.134   0.762   3.827
 2214SOL    HW2 8886   1.130   0.772   3.922
 2214SOL    HW3 8887   1.110   0.670   3.812
 2214SOL    MW4 8888   1.130   0.751   3.838
 2215SOL     OW 8889   0.876   0.872   3.739
 2215SOL    HW2 8890   0.953   0.825   3.772
 2215SOL    HW3 8891   0.886   0.869   3.644
 2215SOL    MW4 8892   0.887   0.865   3.731
 2216SOL     OW 8893   0.892   1.128   3.849
 2216SOL    HW2 8894   0.917   1.117   3.941
 2216SOL    HW3 8895   0.887   1.039   3.815
 2216SOL    MW4 8896   0.895   1.115   3.856
 2217SOL     OW 8897   1.099   1.263   3.697
 2217SOL    HW2 8898   1.087   1.352   3.730
 2217SOL    HW3 8899   1.026   1.214   3.735
 2217SOL    MW4 8900   1.088   1.269   3.706
 2218SOL     OW 8901   1.069   1.538   3.782
 2218SOL    HW2 8902   1.070   1.537   3.878
 2218SOL    HW3 8903   1.158   1.561   3.758
 2218SOL    MW4 8904   1.081   1.541   3.792
 2219SOL     OW 8905   0.841   1.657   3.691
 2219SOL    HW2 8906   0.922   1.616   3.722
 2219SOL    HW3 8907   0.849   1.655   3.595
 2219SOL    MW4 8908   0.853   1.651   3.682
 2220SOL     OW 8909   0.869   1.881   3.837
 2220SOL    HW2 8910   0.855   1.807   3.778
 2220SOL    HW3 8911   0.790   1.934   3.827
 2220SOL    MW4 8912   0.857   1.879   3.828
 2221SOL     OW 8913   1.105   2.035   3.780
 2221SOL    HW2 8914   1.029   1.990   3.818
 2221SOL    HW3 8915   1.079   2.054   3.690
 2221SOL    MW4 8916   1.092   2.032   3.773
 2222SOL     OW 8917   1.146   2.302   3.853
 2222SOL    HW2 8918   1.142   2.312   3.949
 2222SOL    HW3 8919   1.164   2.209   3.840
 2222SOL    MW4 8920   1.148   2.291   3.864
 2223SOL     OW 8921   0.908   2.405   3.799
 2223SOL    HW2 8922   0.929   2.497   3.813
 2223SOL    HW3 8923   0.990   2.359   3.815
 2223SOL    MW4 8924   0.922   2.411   3.803
 2224SOL     OW 8925   0.883   2.669   3.859
 2224SOL    HW2 8926   0.895   2.700   3.949
 2224SOL    HW3 8927   0.941   2.724   3.806
 2224SOL    MW4 8928   0.892   2.680   3.864
 2225SOL     OW 8929   1.119   2.835   3.765
 2225SOL    HW2 8930   1.188   2.798   3.821
 2225SOL    HW3 8931   1.106   2.924   3.798
 2225SOL    MW4 8932   1.127   2.842   3.777
 2226SOL     OW 8933   1.119   3.081   3.868
 2226SOL    HW2 8934   1.194   3.128   3.833
 2226SOL    HW3 8935   1.044   3.138   3.849
 2226SOL    MW4 8936   1.119   3.095   3.861
 2227SOL     OW 8937   0.916   3.216   3.773
 2227SOL    HW2 8938   0.841   3.169   3.810
 2227SOL    HW3 8939   0.895   3.225   3.680
 2227SOL    MW4 8940   0.904   3.211   3.766
 2228SOL     OW 8941   0.932   3.490   3.887
 2228SOL    HW2 8942   0.942   3.400   3.854
 2228SOL    HW3 8943   0.849   3.520   3.850
 2228SOL    MW4 8944   0.922   3.482   3.878
 2229SOL     OW 8945   1.145   3.626   3.764
 2229SOL    HW2 8946   1.119   3.711   3.801
 2229SOL    HW3 8947   1.086   3.563   3.806
 2229SOL    MW4 8948   1.134   3.629   3.775
 2230SOL     OW 8949   1.127   3.884   3.852
 2230SOL    HW2 8950   1.127   3.871   3.946
 2230SOL    HW3 8951   1.215   3.915   3.831
 2230SOL    MW4 8952   1.138   3.886   3.861
 2231SOL     OW 8953   0.873   3.977   3.803
 2231SOL    HW2 8954   0.963   3.946   3.811
 2231SOL    HW3 8955   0.863   3.999   3.710
 2231SOL    MW4 8956   0.883   3.976   3.792
 2232SOL     OW 8957   0.892   4.248   3.861
 2232SOL    HW2 8958   0.907   4.270   3.953
 2232SOL    HW3 8959   0.889   4.152   3.860
 2232SOL    MW4 8960   0.894   4.238   3.873
 2233SOL     OW 8961   1.121   4.408   3.768
 2233SOL    HW2 8962   1.043   4.355   3.784
 2233SOL    HW3 8963   1.130   4.410   3.673
 2233SOL    MW4 8964   1.112   4.401   3.758
 2234SOL     OW 8965   1.552   0.018   3.852
 2234SOL    HW2 8966   1.530   0.023   3.945
 2234SOL    HW3 8967   1.536  -0.073   3.828
 2234SOL    MW4 8968   1.547   0.007   3.861
 2235SOL     OW 8969   1.324   0.145   3.768
 2235SOL    HW2 8970   1.324   0.235   3.800
 2235SOL    HW3 8971   1.406   0.107   3.800
 2235SOL    MW4 8972   1.335   0.152   3.776
 2236SOL     OW 8973   1.316   0.406   3.847
 2236SOL    HW2 8974   1.326   0.425   3.941
 2236SOL    HW3 8975   1.383   0.460   3.805
 2236SOL    MW4 8976   1.326   0.415   3.854
 2237SOL     OW 8977   1.534   0.524   3.747
 2237SOL    HW2 8978   1.604   0.471   3.784
 2237SOL    HW3 8979   1.552   0.613   3.779
 2237SOL    MW4 8980   1.546   0.529   3.756
 2238SOL     OW 8981   1.573   0.765   3.867
 2238SOL    HW2 8982   1.655   0.813   3.861
 2238SOL    HW3 8983   1.509   0.821   3.822
 2238SOL    MW4 8984   1.575   0.779   3.860
 2239SOL     OW 8985   1.354   0.898   3.735
 2239SOL    HW2 8986   1.343   0.988   3.766
 2239SOL    HW3 8987   1.274   0.853   3.762
 2239SOL    MW4 8988   1.342   0.904   3.743
 2240SOL     OW 8989   1.344   1.166   3.821
 2240SOL    HW2 8990   1.422   1.201   3.778
 2240SOL    HW3 8991   1.272   1.220   3.787
 2240SOL    MW4 8992   1.344   1.178   3.811
 2241SOL     OW 8993   1.582   1.272   3.732
 2241SOL    HW2 8994   1.637   1.222   3.792
 2241SOL    HW3 8995   1.575   1.359   3.771
 2241SOL    MW4 8996   1.588   1.277   3.745
 2242SOL     OW 8997   1.542   1.508   3.844
 2242SOL    HW2 8998   1.539   1.503   3.939
 2242SOL    HW3 8999   1.614   1.569   3.826
 2242SOL    MW4 9000   1.551   1.516   3.854
 2243SOL     OW 9001   1.322   1.631   3.751
 2243SOL    HW2 9002   1.317   1.722   3.780
 2243SOL    HW3 9003   1.397   1.596   3.799
 2243SOL    MW4 9004   1.331   1.638   3.761
 2244SOL     OW 9005   1.337   1.897   3.846
 2244SOL    HW2 9006   1.338   1.900   3.942
 2244SOL    HW3 9007   1.252   1.933   3.821
 2244SOL    MW4 9008   1.326   1.902   3.855
 2245SOL     OW 9009   1.537   2.065   3.781
 2245SOL    HW2 9010   1.458   2.010   3.787
 2245SOL    HW3 9011   1.549   2.080   3.688
 2245SOL    MW4 9012   1.528   2.060   3.770
 2246SOL     OW 9013   1.565   2.313   3.913
 2246SOL    HW2 9014   1.646   2.340   3.870
 2246SOL    HW3 9015   1.549   2.225   3.880
 2246SOL    MW4 9016   1.574   2.305   3.903
 2247SOL     OW 9017   1.363   2.471   3.798
 2247SOL    HW2 9018   1.445   2.427   3.823
 2247SOL    HW3 9019   1.295   2.407   3.817
 2247SOL    MW4 9020   1.365   2.457   3.804
 2248SOL     OW 9021   1.330   2.720   3.934
 2248SOL    HW2 9022   1.343   2.719   4.029
 2248SOL    HW3 9023   1.342   2.628   3.908
 2248SOL    MW4 9024   1.333   2.707   3.943
 2249SOL     OW 9025   1.545   2.807   3.784
 2249SOL    HW2 9026   1.465   2.775   3.826
 2249SOL    HW3 9027   1.527   2.803   3.690
 2249SOL    MW4 9028   1.532   2.802   3.777
 2250SOL     OW 9029   1.571   3.075   3.890
 2250SOL    HW2 9030   1.585   3.064   3.984
 2250SOL    HW3 9031   1.564   2.985   3.857
 2250SOL    MW4 9032   1.572   3.061   3.898
 2251SOL     OW 9033   1.340   3.225   3.785
 2251SOL    HW2 9034   1.343   3.306   3.836
 2251SOL    HW3 9035   1.423   3.181   3.804
 2251SOL    MW4 9036   1.351   3.230   3.794
 2252SOL     OW 9037   1.361   3.487   3.870
 2252SOL    HW2 9038   1.441   3.515   3.826
 2252SOL    HW3 9039   1.291   3.537   3.828
 2252SOL    MW4 9040   1.362   3.497   3.858
 2253SOL     OW 9041   1.606   3.537   3.734
 2253SOL    HW2 9042   1.675   3.504   3.792
 2253SOL    HW3 9043   1.601   3.631   3.755
 2253SOL    MW4 9044   1.615   3.545   3.744
 2254SOL     OW 9045   1.583   3.802   3.791
 2254SOL    HW2 9046   1.558   3.810   3.883
 2254SOL    HW3 9047   1.516   3.851   3.744
 2254SOL    MW4 9048   1.570   3.809   3.797
 2255SOL     OW 9049   1.388   3.965   3.698
 2255SOL    HW2 9050   1.392   4.053   3.735
 2255SOL    HW3 9051   1.366   3.980   3.606
 2255SOL    MW4 9052   1.385   3.979   3.691
 2256SOL     OW 9053   1.329   4.229   3.835
 2256SOL    HW2 9054   1.387   4.297   3.801
 2256SOL    HW3 9055   1.241   4.266   3.828
 2256SOL    MW4 9056   1.325   4.243   3.830
 2257SOL     OW 9057   1.508   4.414   3.743
 2257SOL    HW2 9058   1.573   4.348   3.769
 2257SOL    HW3 9059   1.527   4.431   3.651
 2257SOL    MW4 9060   1.519   4.408   3.735
 2258SOL     OW 9061   1.977   4.657   3.889
 2258SOL    HW2 9062   2.046   4.713   3.853
 2258SOL    HW3 9063   2.000   4.569   3.860
 2258SOL    MW4 9064   1.990   4.653   3.880
 2259SOL     OW 9065   1.789   0.116   3.731
 2259SOL    HW2 9066   1.853   0.064   3.779
 2259SOL    HW3 9067   1.706   0.100   3.776
 2259SOL    MW4 9068   1.786   0.107   3.743
 2260SOL     OW 9069   1.760   0.392   3.842
 2260SOL    HW2 9070   1.780   0.379   3.935
 2260SOL    HW3 9071   1.779   0.307   3.801
 2260SOL    MW4 9072   1.765   0.379   3.849
 2261SOL     OW 9073   2.007   0.517   3.750
 2261SOL    HW2 9074   1.926   0.481   3.786
 2261SOL    HW3 9075   2.001   0.500   3.656
 2261SOL    MW4 9076   1.995   0.510   3.742
 2262SOL     OW 9077   2.057   0.790   3.870
 2262SOL    HW2 9078   2.042   0.783   3.964
 2262SOL    HW3 9079   2.033   0.704   3.835
 2262SOL    MW4 9080   2.052   0.778   3.877
 2263SOL     OW 9081   1.797   0.896   3.832
 2263SOL    HW2 9082   1.880   0.856   3.860
 2263SOL    HW3 9083   1.802   0.897   3.737
 2263SOL    MW4 9084   1.809   0.891   3.823
 2264SOL     OW 9085   1.821   1.171   3.887
 2264SOL    HW2 9086   1.821   1.188   3.981
 2264SOL    HW3 9087   1.815   1.076   3.880
 2264SOL    MW4 9088   1.820   1.161   3.898
 2265SOL     OW 9089   2.007   1.297   3.741
 2265SOL    HW2 9090   2.087   1.263   3.783
 2265SOL    HW3 9091   1.936   1.251   3.785
 2265SOL    MW4 9092   2.008   1.287   3.752
 2266SOL     OW 9093   2.020   1.574   3.823
 2266SOL    HW2 9094   1.937   1.615   3.803
 2266SOL    HW3 9095   2.010   1.483   3.795
 2266SOL    MW4 9096   2.008   1.567   3.817
 2267SOL     OW 9097   1.748   1.679   3.794
 2267SOL    HW2 9098   1.761   1.769   3.822
 2267SOL    HW3 9099   1.770   1.679   3.701
 2267SOL    MW4 9100   1.753   1.691   3.785
 2268SOL     OW 9101   1.788   1.957   3.854
 2268SOL    HW2 9102   1.773   1.959   3.948
 2268SOL    HW3 9103   1.711   1.998   3.816
 2268SOL    MW4 9104   1.776   1.963   3.861
 2269SOL     OW 9105   2.038   2.011   3.757
 2269SOL    HW2 9106   1.952   1.988   3.792
 2269SOL    HW3 9107   2.026   2.014   3.662
 2269SOL    MW4 9108   2.025   2.009   3.749
 2270SOL     OW 9109   2.037   2.262   3.896
 2270SOL    HW2 9110   1.967   2.314   3.857
 2270SOL    HW3 9111   2.032   2.177   3.851
 2270SOL    MW4 9112   2.027   2.257   3.885
 2271SOL     OW 9113   1.824   2.413   3.792
 2271SOL    HW2 9114   1.811   2.506   3.810
 2271SOL    HW3 9115   1.813   2.406   3.697
 2271SOL    MW4 9116   1.820   2.424   3.782
 2272SOL     OW 9117   1.772   2.683   3.840
 2272SOL    HW2 9118   1.796   2.695   3.932
 2272SOL    HW3 9119   1.688   2.729   3.830
 2272SOL    MW4 9120   1.764   2.690   3.851
 2273SOL     OW 9121   1.992   2.804   3.727
 2273SOL    HW2 9122   2.066   2.766   3.776
 2273SOL    HW3 9123   1.916   2.757   3.760
 2273SOL    MW4 9124   1.992   2.792   3.738
 2274SOL     OW 9125   1.971   3.082   3.810
 2274SOL    HW2 9126   1.976   3.000   3.761
 2274SOL    HW3 9127   2.059   3.118   3.806
 2274SOL    MW4 9128   1.983   3.076   3.803
 2275SOL     OW 9129   1.741   3.218   3.746
 2275SOL    HW2 9130   1.823   3.175   3.769
 2275SOL    HW3 9131   1.673   3.164   3.787
 2275SOL    MW4 9132   1.743   3.205   3.754
 2276SOL     OW 9133   1.806   3.434   3.886
 2276SOL    HW2 9134   1.867   3.472   3.823
 2276SOL    HW3 9135   1.772   3.356   3.842
 2276SOL    MW4 9136   1.810   3.428   3.872
 2277SOL     OW 9137   1.992   3.568   3.735
 2277SOL    HW2 9138   2.083   3.546   3.755
 2277SOL    HW3 9139   1.991   3.576   3.639
 2277SOL    MW4 9140   2.004   3.566   3.725
 2278SOL     OW 9141   2.013   3.817   3.871
 2278SOL    HW2 9142   2.083   3.869   3.831
 2278SOL    HW3 9143   2.022   3.730   3.832
 2278SOL    MW4 9144   2.023   3.812   3.860
 2279SOL     OW 9145   1.801   3.955   3.756
 2279SOL    HW2 9146   1.871   3.906   3.798
 2279SOL    HW3 9147   1.721   3.907   3.777
 2279SOL    MW4 9148   1.800   3.942   3.764
 2280SOL     OW 9149   1.728   4.225   3.762
 2280SOL    HW2 9150   1.811   4.255   3.723
 2280SOL    HW3 9151   1.739   4.130   3.770
 2280SOL    MW4 9152   1.741   4.217   3.758
 2281SOL     OW 9153   2.018   4.412   3.750
 2281SOL    HW2 9154   2.093   4.361   3.782
 2281SOL    HW3 9155   2.023   4.404   3.655
 2281SOL    MW4 9156   2.029   4.404   3.742
 2282SOL     OW 9157   2.405   4.664   3.836
 2282SOL    HW2 9158   2.402   4.640   3.929
 2282SOL    HW3 9159   2.495   4.694   3.822
 2282SOL    MW4 9160   2.416   4.665   3.847
 2283SOL     OW 9161   2.177   0.128   3.762
 2283SOL    HW2 9162   2.261   0.090   3.790
 2283SOL    HW3 9163   2.181   0.126   3.666
 2283SOL    MW4 9164   2.189   0.123   3.753
 2284SOL     OW 9165   2.231   0.383   3.863
 2284SOL    HW2 9166   2.219   0.293   3.832
 2284SOL    HW3 9167   2.153   0.429   3.832
 2284SOL    MW4 9168   2.219   0.377   3.855
 2285SOL     OW 9169   2.460   0.518   3.801
 2285SOL    HW2 9170   2.379   0.480   3.836
 2285SOL    HW3 9171   2.443   0.530   3.708
 2285SOL    MW4 9172   2.447   0.514   3.794
 2286SOL     OW 9173   2.483   0.796   3.875
 2286SOL    HW2 9174   2.413   0.848   3.835
 2286SOL    HW3 9175   2.461   0.706   3.853
 2286SOL    MW4 9176   2.471   0.791   3.867
 2287SOL     OW 9177   2.276   0.932   3.766
 2287SOL    HW2 9178   2.204   0.884   3.807
 2287SOL    HW3 9179   2.264   0.918   3.672
 2287SOL    MW4 9180   2.265   0.923   3.759
 2288SOL     OW 9181   2.250   1.198   3.833
 2288SOL    HW2 9182   2.253   1.204   3.928
 2288SOL    HW3 9183   2.246   1.104   3.815
 2288SOL    MW4 9184   2.250   1.187   3.843
 2289SOL     OW 9185   2.506   1.271   3.738
 2289SOL    HW2 9186   2.520   1.356   3.781
 2289SOL    HW3 9187   2.420   1.243   3.769
 2289SOL    MW4 9188   2.497   1.279   3.747
 2290SOL     OW 9189   2.487   1.536   3.837
 2290SOL    HW2 9190   2.566   1.583   3.809
 2290SOL    HW3 9191   2.415   1.589   3.805
 2290SOL    MW4 9192   2.488   1.549   3.829
 2291SOL     OW 9193   2.264   1.689   3.751
 2291SOL    HW2 9194   2.277   1.756   3.819
 2291SOL    HW3 9195   2.183   1.645   3.776
 2291SOL    MW4 9196   2.255   1.692   3.764
 2292SOL     OW 9197   2.274   1.908   3.895
 2292SOL    HW2 9198   2.307   1.958   3.970
 2292SOL    HW3 9199   2.194   1.954   3.869
 2292SOL    MW4 9200   2.267   1.921   3.902
 2293SOL     OW 9201   2.479   2.045   3.762
 2293SOL    HW2 9202   2.472   2.130   3.806
 2293SOL    HW3 9203   2.402   1.996   3.792
 2293SOL    MW4 9204   2.468   2.050   3.772
 2294SOL     OW 9205   2.444   2.310   3.861
 2294SOL    HW2 9206   2.518   2.352   3.818
 2294SOL    HW3 9207   2.369   2.366   3.840
 2294SOL    MW4 9208   2.444   2.322   3.852
 2295SOL     OW 9209   2.207   2.427   3.771
 2295SOL    HW2 9210   2.150   2.362   3.811
 2295SOL    HW3 9211   2.220   2.396   3.681
 2295SOL    MW4 9212   2.201   2.414   3.764
 2296SOL     OW 9213   2.220   2.683   3.850
 2296SOL    HW2 9214   2.222   2.682   3.946
 2296SOL    HW3 9215   2.209   2.591   3.825
 2296SOL    MW4 9216   2.219   2.671   3.859
 2297SOL     OW 9217   2.447   2.832   3.780
 2297SOL    HW2 9218   2.365   2.785   3.792
 2297SOL    HW3 9219   2.469   2.820   3.688
 2297SOL    MW4 9220   2.439   2.824   3.770
 2298SOL     OW 9221   2.476   3.110   3.786
 2298SOL    HW2 9222   2.469   3.120   3.881
 2298SOL    HW3 9223   2.464   3.017   3.770
 2298SOL    MW4 9224   2.473   3.099   3.796
 2299SOL     OW 9225   2.231   3.234   3.746
 2299SOL    HW2 9226   2.230   3.324   3.777
 2299SOL    HW3 9227   2.318   3.201   3.769
 2299SOL    MW4 9228   2.242   3.241   3.753
 2300SOL     OW 9229   2.252   3.495   3.834
 2300SOL    HW2 9230   2.242   3.487   3.929
 2300SOL    HW3 9231   2.327   3.554   3.824
 2300SOL    MW4 9232   2.261   3.502   3.845
 2301SOL     OW 9233   2.484   3.654   3.756
 2301SOL    HW2 9234   2.544   3.600   3.807
 2301SOL    HW3 9235   2.474   3.607   3.673
 2301SOL    MW4 9236   2.490   3.641   3.752
 2302SOL     OW 9237   2.419   3.908   3.791
 2302SOL    HW2 9238   2.499   3.960   3.788
 2302SOL    HW3 9239   2.449   3.817   3.786
 2302SOL    MW4 9240   2.433   3.903   3.790
 2303SOL     OW 9241   2.164   4.016   3.722
 2303SOL    HW2 9242   2.249   3.974   3.732
 2303SOL    HW3 9243   2.159   4.038   3.629
 2303SOL    MW4 9244   2.175   4.014   3.711
 2304SOL     OW 9245   2.243   4.252   3.840
 2304SOL    HW2 9246   2.236   4.239   3.934
 2304SOL    HW3 9247   2.219   4.167   3.802
 2304SOL    MW4 9248   2.239   4.239   3.847
 2305SOL     OW 9249   2.424   4.419   3.726
 2305SOL    HW2 9250   2.358   4.363   3.767
 2305SOL    HW3 9251   2.408   4.506   3.764
 2305SOL    MW4 9252   2.413   4.423   3.736
 2306SOL     OW 9253   2.907   4.651   3.849
 2306SOL    HW2 9254   2.907   4.655   3.945
 2306SOL    HW3 9255   2.981   4.705   3.823
 2306SOL    MW4 9256   2.916   4.658   3.858
 2307SOL     OW 9257   2.657   0.124   3.775
 2307SOL    HW2 9258   2.729   0.065   3.799
 2307SOL    HW3 9259   2.662   0.131   3.680
 2307SOL    MW4 9260   2.667   0.117   3.766
 2308SOL     OW 9261   2.702   0.393   3.862
 2308SOL    HW2 9262   2.689   0.299   3.846
 2308SOL    HW3 9263   2.620   0.433   3.836
 2308SOL    MW4 9264   2.690   0.386   3.857
 2309SOL     OW 9265   2.915   0.549   3.759
 2309SOL    HW2 9266   3.001   0.521   3.790
 2309SOL    HW3 9267   2.854   0.484   3.795
 2309SOL    MW4 9268   2.918   0.537   3.768
 2310SOL     OW 9269   2.887   0.791   3.917
 2310SOL    HW2 9270   2.949   0.830   3.855
 2310SOL    HW3 9271   2.880   0.700   3.889
 2310SOL    MW4 9272   2.894   0.784   3.905
 2311SOL     OW 9273   2.695   0.892   3.754
 2311SOL    HW2 9274   2.763   0.846   3.803
 2311SOL    HW3 9275   2.613   0.865   3.796
 2311SOL    MW4 9276   2.693   0.883   3.766
 2312SOL     OW 9277   2.690   1.133   3.889
 2312SOL    HW2 9278   2.693   1.048   3.847
 2312SOL    HW3 9279   2.623   1.182   3.842
 2312SOL    MW4 9280   2.682   1.128   3.878
 2313SOL     OW 9281   2.909   1.252   3.750
 2313SOL    HW2 9282   2.917   1.338   3.790
 2313SOL    HW3 9283   2.829   1.215   3.787
 2313SOL    MW4 9284   2.900   1.258   3.760
 2314SOL     OW 9285   2.954   1.513   3.826
 2314SOL    HW2 9286   2.942   1.530   3.919
 2314SOL    HW3 9287   3.026   1.571   3.800
 2314SOL    MW4 9288   2.962   1.523   3.835
 2315SOL     OW 9289   2.736   1.676   3.768
 2315SOL    HW2 9290   2.796   1.604   3.786
 2315SOL    HW3 9291   2.735   1.684   3.673
 2315SOL    MW4 9292   2.744   1.668   3.758
 2316SOL     OW 9293   2.670   1.905   3.893
 2316SOL    HW2 9294   2.694   1.823   3.852
 2316SOL    HW3 9295   2.614   1.949   3.829
 2316SOL    MW4 9296   2.666   1.900   3.879
 2317SOL     OW 9297   2.887   2.051   3.764
 2317SOL    HW2 9298   2.874   2.139   3.798
 2317SOL    HW3 9299   2.822   1.997   3.809
 2317SOL    MW4 9300   2.877   2.055   3.774
 2318SOL     OW 9301   2.893   2.320   3.852
 2318SOL    HW2 9302   2.912   2.311   3.945
 2318SOL    HW3 9303   2.977   2.345   3.813
 2318SOL    MW4 9304   2.907   2.322   3.859
 2319SOL     OW 9305   2.661   2.456   3.750
 2319SOL    HW2 9306   2.669   2.542   3.792
 2319SOL    HW3 9307   2.721   2.400   3.800
 2319SOL    MW4 9308   2.670   2.460   3.762
 2320SOL     OW 9309   2.678   2.703   3.866
 2320SOL    HW2 9310   2.703   2.714   3.958
 2320SOL    HW3 9311   2.606   2.764   3.853
 2320SOL    MW4 9312   2.672   2.713   3.876
 2321SOL     OW 9313   2.933   2.802   3.741
 2321SOL    HW2 9314   2.934   2.896   3.760
 2321SOL    HW3 9315   2.847   2.773   3.771
 2321SOL    MW4 9316   2.922   2.811   3.747
 2322SOL     OW 9317   2.929   3.067   3.822
 2322SOL    HW2 9318   3.006   3.122   3.813
 2322SOL    HW3 9319   2.855   3.126   3.804
 2322SOL    MW4 9320   2.929   3.082   3.819
 2323SOL     OW 9321   2.726   3.230   3.745
 2323SOL    HW2 9322   2.720   3.322   3.774
 2323SOL    HW3 9323   2.644   3.191   3.773
 2323SOL    MW4 9324   2.714   3.237   3.753
 2324SOL     OW 9325   2.673   3.484   3.855
 2324SOL    HW2 9326   2.700   3.484   3.947
 2324SOL    HW3 9327   2.736   3.542   3.812
 2324SOL    MW4 9328   2.685   3.492   3.862
 2325SOL     OW 9329   2.888   3.620   3.714
 2325SOL    HW2 9330   2.967   3.580   3.749
 2325SOL    HW3 9331   2.894   3.605   3.619
 2325SOL    MW4 9332   2.899   3.613   3.706
 2326SOL     OW 9333   2.868   3.890   3.856
 2326SOL    HW2 9334   2.870   3.886   3.951
 2326SOL    HW3 9335   2.871   3.799   3.827
 2326SOL    MW4 9336   2.869   3.878   3.864
 2327SOL     OW 9337   2.682   4.017   3.734
 2327SOL    HW2 9338   2.693   4.108   3.760
 2327SOL    HW3 9339   2.747   3.969   3.786
 2327SOL    MW4 9340   2.692   4.023   3.744
 2328SOL     OW 9341   2.670   4.276   3.818
 2328SOL    HW2 9342   2.752   4.323   3.805
 2328SOL    HW3 9343   2.604   4.333   3.778
 2328SOL    MW4 9344   2.672   4.290   3.811
 2329SOL     OW 9345   2.917   4.399   3.760
 2329SOL    HW2 9346   2.995   4.357   3.798
 2329SOL    HW3 9347   2.926   4.491   3.785
 2329SOL    MW4 9348   2.929   4.405   3.768
 2330SOL     OW 9349   3.345   4.667   3.897
 2330SOL    HW2 9350   3.357   4.660   3.991
 2330SOL    HW3 9351   3.425   4.709   3.865
 2330SOL    MW4 9352   3.357   4.671   3.905
 2331SOL     OW 9353   3.133   0.140   3.806
 2331SOL    HW2 9354   3.212   0.089   3.826
 2331SOL    HW3 9355   3.124   0.134   3.711
 2331SOL    MW4 9356   3.142   0.133   3.797
 2332SOL     OW 9357   3.134   0.402   3.880
 2332SOL    HW2 9358   3.125   0.400   3.975
 2332SOL    HW3 9359   3.131   0.310   3.853
 2332SOL    MW4 9360   3.132   0.389   3.889
 2333SOL     OW 9361   3.389   0.502   3.786
 2333SOL    HW2 9362   3.464   0.446   3.806
 2333SOL    HW3 9363   3.314   0.454   3.819
 2333SOL    MW4 9364   3.389   0.488   3.793
 2334SOL     OW 9365   3.313   0.757   3.868
 2334SOL    HW2 9366   3.274   0.756   3.955
 2334SOL    HW3 9367   3.340   0.666   3.854
 2334SOL    MW4 9368   3.312   0.745   3.878
 2335SOL     OW 9369   3.089   0.877   3.744
 2335SOL    HW2 9370   3.175   0.836   3.751
 2335SOL    HW3 9371   3.066   0.870   3.651
 2335SOL    MW4 9372   3.097   0.871   3.733
 2336SOL     OW 9373   3.138   1.131   3.826
 2336SOL    HW2 9374   3.142   1.042   3.789
 2336SOL    HW3 9375   3.054   1.165   3.796
 2336SOL    MW4 9376   3.127   1.123   3.817
 2337SOL     OW 9377   3.329   1.325   3.745
 2337SOL    HW2 9378   3.256   1.266   3.763
 2337SOL    HW3 9379   3.339   1.323   3.650
 2337SOL    MW4 9380   3.321   1.317   3.735
 2338SOL     OW 9381   3.383   1.586   3.867
 2338SOL    HW2 9382   3.302   1.632   3.842
 2338SOL    HW3 9383   3.366   1.494   3.845
 2338SOL    MW4 9384   3.370   1.580   3.861
 2339SOL     OW 9385   3.160   1.699   3.763
 2339SOL    HW2 9386   3.131   1.786   3.790
 2339SOL    HW3 9387   3.179   1.707   3.670
 2339SOL    MW4 9388   3.159   1.711   3.755
 2340SOL     OW 9389   3.110   1.940   3.873
 2340SOL    HW2 9390   3.104   1.934   3.969
 2340SOL    HW3 9391   3.037   1.996   3.848
 2340SOL    MW4 9392   3.100   1.946   3.882
 2341SOL     OW 9393   3.376   2.054   3.794
 2341SOL    HW2 9394   3.287   2.029   3.819
 2341SOL    HW3 9395   3.378   2.041   3.699
 2341SOL    MW4 9396   3.365   2.049   3.784
 2342SOL     OW 9397   3.398   2.341   3.863
 2342SOL    HW2 9398   3.313   2.357   3.823
 2342SOL    HW3 9399   3.407   2.246   3.864
 2342SOL    MW4 9400   3.388   2.331   3.858
 2343SOL     OW 9401   3.153   2.386   3.760
 2343SOL    HW2 9402   3.153   2.473   3.799
 2343SOL    HW3 9403   3.171   2.401   3.668
 2343SOL    MW4 9404   3.155   2.400   3.753
 2344SOL     OW 9405   3.178   2.632   3.872
 2344SOL    HW2 9406   3.199   2.657   3.961
 2344SOL    HW3 9407   3.098   2.682   3.852
 2344SOL    MW4 9408   3.170   2.642   3.881
 2345SOL     OW 9409   3.392   2.809   3.774
 2345SOL    HW2 9410   3.337   2.737   3.806
 2345SOL    HW3 9411   3.371   2.816   3.681
 2345SOL    MW4 9412   3.382   2.800   3.766
 2346SOL     OW 9413   3.338   3.070   3.886
 2346SOL    HW2 9414   3.415   3.114   3.851
 2346SOL    HW3 9415   3.351   2.978   3.865
 2346SOL    MW4 9416   3.350   3.064   3.879
 2347SOL     OW 9417   3.146   3.242   3.775
 2347SOL    HW2 9418   3.221   3.191   3.806
 2347SOL    HW3 9419   3.147   3.231   3.680
 2347SOL    MW4 9420   3.156   3.234   3.767
 2348SOL     OW 9421   3.122   3.503   3.858
 2348SOL    HW2 9422   3.208   3.533   3.828
 2348SOL    HW3 9423   3.123   3.409   3.840
 2348SOL    MW4 9424   3.133   3.494   3.852
 2349SOL     OW 9425   3.374   3.592   3.786
 2349SOL    HW2 9426   3.382   3.684   3.809
 2349SOL    HW3 9427   3.386   3.590   3.691
 2349SOL    MW4 9428   3.377   3.604   3.776
 2350SOL     OW 9429   3.364   3.850   3.869
 2350SOL    HW2 9430   3.422   3.920   3.837
 2350SOL    HW3 9431   3.277   3.877   3.839
 2350SOL    MW4 9432   3.360   3.863   3.861
 2351SOL     OW 9433   3.137   3.966   3.772
 2351SOL    HW2 9434   3.156   4.053   3.807
 2351SOL    HW3 9435   3.050   3.945   3.804
 2351SOL    MW4 9436   3.128   3.975   3.781
 2352SOL     OW 9437   3.152   4.225   3.874
 2352SOL    HW2 9438   3.152   4.230   3.970
 2352SOL    HW3 9439   3.202   4.302   3.846
 2352SOL    MW4 9440   3.159   4.236   3.883
 2353SOL     OW 9441   3.333   4.407   3.795
 2353SOL    HW2 9442   3.399   4.354   3.839
 2353SOL    HW3 9443   3.352   4.497   3.821
 2353SOL    MW4 9444   3.344   4.412   3.804
 2354SOL     OW 9445   3.808   4.633   3.933
 2354SOL    HW2 9446   3.892   4.662   3.898
 2354SOL    HW3 9447   3.788   4.552   3.886
 2354SOL    MW4 9448   3.816   4.626   3.922
 2355SOL     OW 9449   3.588   0.080   3.796
 2355SOL    HW2 9450   3.674   0.058   3.831
 2355SOL    HW3 9451   3.605   0.111   3.707
 2355SOL    MW4 9452   3.602   0.082   3.789
 2356SOL     OW 9453   3.603   0.343   3.886
 2356SOL    HW2 9454   3.684   0.380   3.852
 2356SOL    HW3 9455   3.601   0.254   3.851
 2356SOL    MW4 9456   3.614   0.336   3.877
 2357SOL     OW 9457   3.836   0.449   3.790
 2357SOL    HW2 9458   3.926   0.421   3.807
 2357SOL    HW3 9459   3.824   0.526   3.845
 2357SOL    MW4 9460   3.846   0.455   3.799
 2358SOL     OW 9461   3.773   0.725   3.875
 2358SOL    HW2 9462   3.844   0.774   3.834
 2358SOL    HW3 9463   3.694   0.774   3.851
 2358SOL    MW4 9464   3.772   0.738   3.866
 2359SOL     OW 9465   3.564   0.899   3.810
 2359SOL    HW2 9466   3.549   0.991   3.833
 2359SOL    HW3 9467   3.483   0.855   3.835
 2359SOL    MW4 9468   3.551   0.906   3.816
 2360SOL     OW 9469   3.544   1.173   3.869
 2360SOL    HW2 9470   3.617   1.209   3.817
 2360SOL    HW3 9471   3.475   1.239   3.862
 2360SOL    MW4 9472   3.545   1.187   3.861
 2361SOL     OW 9473   3.776   1.278   3.774
 2361SOL    HW2 9474   3.851   1.241   3.819
 2361SOL    HW3 9475   3.775   1.371   3.799
 2361SOL    MW4 9476   3.786   1.286   3.783
 2362SOL     OW 9477   3.815   1.519   3.917
 2362SOL    HW2 9478   3.813   1.529   4.013
 2362SOL    HW3 9479   3.740   1.569   3.887
 2362SOL    MW4 9480   3.805   1.527   3.926
 2363SOL     OW 9481   3.627   1.682   3.793
 2363SOL    HW2 9482   3.537   1.660   3.818
 2363SOL    HW3 9483   3.624   1.688   3.698
 2363SOL    MW4 9484   3.614   1.680   3.784
 2364SOL     OW 9485   3.599   1.930   3.882
 2364SOL    HW2 9486   3.603   1.839   3.852
 2364SOL    HW3 9487   3.519   1.964   3.843
 2364SOL    MW4 9488   3.589   1.922   3.873
 2365SOL     OW 9489   3.811   2.078   3.787
 2365SOL    HW2 9490   3.884   2.017   3.795
 2365SOL    HW3 9491   3.734   2.027   3.810
 2365SOL    MW4 9492   3.810   2.064   3.791
 2366SOL     OW 9493   3.815   2.326   3.916
 2366SOL    HW2 9494   3.747   2.372   3.866
 2366SOL    HW3 9495   3.810   2.236   3.885
 2366SOL    MW4 9496   3.806   2.320   3.905
 2367SOL     OW 9497   3.632   2.480   3.750
 2367SOL    HW2 9498   3.552   2.445   3.789
 2367SOL    HW3 9499   3.618   2.469   3.655
 2367SOL    MW4 9500   3.619   2.474   3.742
 2368SOL     OW 9501   3.628   2.713   3.890
 2368SOL    HW2 9502   3.636   2.625   3.854
 2368SOL    HW3 9503   3.552   2.751   3.846
 2368SOL    MW4 9504   3.619   2.707   3.880
 2369SOL     OW 9505   3.832   2.817   3.737
 2369SOL    HW2 9506   3.907   2.773   3.778
 2369SOL    HW3 9507   3.756   2.787   3.786
 2369SOL    MW4 9508   3.832   2.807   3.749
 2370SOL     OW 9509   3.831   3.072   3.869
 2370SOL    HW2 9510   3.741   3.097   3.848
 2370SOL    HW3 9511   3.846   2.991   3.821
 2370SOL    MW4 9512   3.821   3.065   3.860
 2371SOL     OW 9513   3.588   3.170   3.803
 2371SOL    HW2 9514   3.583   3.263   3.824
 2371SOL    HW3 9515   3.611   3.168   3.710
 2371SOL    MW4 9516   3.590   3.182   3.793
 2372SOL     OW 9517   3.626   3.446   3.850
 2372SOL    HW2 9518   3.627   3.457   3.945
 2372SOL    HW3 9519   3.553   3.501   3.820
 2372SOL    MW4 9520   3.616   3.455   3.858
 2373SOL     OW 9521   3.813   3.631   3.754
 2373SOL    HW2 9522   3.810   3.708   3.810
 2373SOL    HW3 9523   3.743   3.574   3.787
 2373SOL    MW4 9524   3.803   3.634   3.765
 2374SOL     OW 9525   3.791   3.866   3.898
 2374SOL    HW2 9526   3.787   3.870   3.994
 2374SOL    HW3 9527   3.875   3.907   3.877
 2374SOL    MW4 9528   3.802   3.872   3.908
 2375SOL     OW 9529   3.567   4.011   3.782
 2375SOL    HW2 9530   3.559   4.097   3.823
 2375SOL    HW3 9531   3.625   3.962   3.841
 2375SOL    MW4 9532   3.574   4.016   3.796
 2376SOL     OW 9533   3.539   4.257   3.901
 2376SOL    HW2 9534   3.540   4.268   3.996
 2376SOL    HW3 9535   3.620   4.299   3.871
 2376SOL    MW4 9536   3.550   4.264   3.910
 2377SOL     OW 9537   3.781   4.382   3.800
 2377SOL    HW2 9538   3.861   4.340   3.832
 2377SOL    HW3 9539   3.791   4.384   3.705
 2377SOL    MW4 9540   3.793   4.376   3.792
 2378SOL     OW 9541   4.266   4.607   3.897
 2378SOL    HW2 9542   4.253   4.621   3.990
 2378SOL    HW3 9543   4.338   4.667   3.874
 2378SOL    MW4 9544   4.274   4.617   3.906
 2379SOL     OW 9545   4.022   0.086   3.795
 2379SOL    HW2 9546   4.098   0.038   3.828
 2379SOL    HW3 9547   4.030   0.081   3.700
 2379SOL    MW4 9548   4.034   0.079   3.787
 2380SOL     OW 9549   4.075   0.347   3.884
 2380SOL    HW2 9550   4.055   0.353   3.977
 2380SOL    HW3 9551   4.062   0.255   3.862
 2380SOL    MW4 9552   4.070   0.336   3.893
 2381SOL     OW 9553   4.295   0.486   3.801
 2381SOL    HW2 9554   4.222   0.440   3.841
 2381SOL    HW3 9555   4.283   0.475   3.707
 2381SOL    MW4 9556   4.284   0.479   3.794
 2382SOL     OW 9557   4.241   0.767   3.873
 2382SOL    HW2 9558   4.163   0.819   3.853
 2382SOL    HW3 9559   4.226   0.683   3.828
 2382SOL    MW4 9560   4.228   0.763   3.865
 2383SOL     OW 9561   3.987   0.875   3.778
 2383SOL    HW2 9562   3.976   0.964   3.813
 2383SOL    HW3 9563   4.013   0.888   3.687
 2383SOL    MW4 9564   3.989   0.888   3.771
 2384SOL     OW 9565   4.000   1.152   3.858
 2384SOL    HW2 9566   4.017   1.138   3.951
 2384SOL    HW3 9567   4.086   1.168   3.820
 2384SOL    MW4 9568   4.013   1.153   3.866
 2385SOL     OW 9569   4.271   1.205   3.791
 2385SOL    HW2 9570   4.271   1.298   3.815
 2385SOL    HW3 9571   4.261   1.206   3.695
 2385SOL    MW4 9572   4.270   1.218   3.781
 2386SOL     OW 9573   4.266   1.468   3.871
 2386SOL    HW2 9574   4.186   1.520   3.862
 2386SOL    HW3 9575   4.333   1.522   3.828
 2386SOL    MW4 9576   4.264   1.482   3.864
 2387SOL     OW 9577   4.042   1.628   3.824
 2387SOL    HW2 9578   4.037   1.721   3.847
 2387SOL    HW3 9579   3.958   1.591   3.852
 2387SOL    MW4 9580   4.030   1.636   3.831
 2388SOL     OW 9581   4.015   1.918   3.863
 2388SOL    HW2 9582   4.017   1.936   3.957
 2388SOL    HW3 9583   4.104   1.939   3.833
 2388SOL    MW4 9584   4.027   1.923   3.871
 2389SOL     OW 9585   4.261   2.009   3.754
 2389SOL    HW2 9586   4.274   2.100   3.780
 2389SOL    HW3 9587   4.267   2.011   3.659
 2389SOL    MW4 9588   4.263   2.021   3.745
 2390SOL     OW 9589   4.272   2.274   3.841
 2390SOL    HW2 9590   4.264   2.287   3.936
 2390SOL    HW3 9591   4.195   2.316   3.804
 2390SOL    MW4 9592   4.261   2.281   3.849
 2391SOL     OW 9593   4.055   2.418   3.765
 2391SOL    HW2 9594   4.061   2.510   3.791
 2391SOL    HW3 9595   3.988   2.382   3.822
 2391SOL    MW4 9596   4.047   2.426   3.776
 2392SOL     OW 9597   4.044   2.687   3.849
 2392SOL    HW2 9598   4.034   2.691   3.944
 2392SOL    HW3 9599   4.114   2.750   3.829
 2392SOL    MW4 9600   4.052   2.696   3.859
 2393SOL     OW 9601   4.270   2.823   3.769
 2393SOL    HW2 9602   4.274   2.913   3.801
 2393SOL    HW3 9603   4.344   2.779   3.810
 2393SOL    MW4 9604   4.280   2.829   3.778
 2394SOL     OW 9605   4.236   3.084   3.859
 2394SOL    HW2 9606   4.166   3.136   3.820
 2394SOL    HW3 9607   4.315   3.136   3.846
 2394SOL    MW4 9608   4.237   3.098   3.852
 2395SOL     OW 9609   4.024   3.244   3.762
 2395SOL    HW2 9610   3.954   3.187   3.796
 2395SOL    HW3 9611   4.018   3.235   3.667
 2395SOL    MW4 9612   4.014   3.235   3.754
 2396SOL     OW 9613   4.023   3.483   3.891
 2396SOL    HW2 9614   4.033   3.396   3.850
 2396SOL    HW3 9615   3.953   3.524   3.840
 2396SOL    MW4 9616   4.015   3.477   3.879
 2397SOL     OW 9617   4.261   3.578   3.745
 2397SOL    HW2 9618   4.191   3.555   3.806
 2397SOL    HW3 9619   4.335   3.522   3.770
 2397SOL    MW4 9620   4.262   3.568   3.756
 2398SOL     OW 9621   4.278   3.863   3.837
 2398SOL    HW2 9622   4.188   3.894   3.824
 2398SOL    HW3 9623   4.280   3.777   3.795
 2398SOL    MW4 9624   4.266   3.856   3.830
 2399SOL     OW 9625   4.021   3.974   3.803
 2399SOL    HW2 9626   4.013   4.066   3.827
 2399SOL    HW3 9627   4.035   3.974   3.709
 2399SOL    MW4 9628   4.022   3.986   3.794
 2400SOL     OW 9629   4.034   4.263   3.839
 2400SOL    HW2 9630   4.028   4.286   3.932
 2400SOL    HW3 9631   4.122   4.291   3.813
 2400SOL    MW4 9632   4.045   4.270   3.848
 2401SOL     OW 9633   4.287   4.360   3.759
 2401SOL    HW2 9634   4.275   4.437   3.814
 2401SOL    HW3 9635   4.352   4.307   3.806
 2401SOL    MW4 9636   4.294   4.363   3.772
 2402SOL     OW 9637   0.185   0.006   4.127
 2402SOL    HW2 9638   0.271   0.021   4.166
 2402SOL    HW3 9639   0.169  -0.087   4.141
 2402SOL    MW4 9640   0.195  -0.004   4.134
 2403SOL     OW 9641   4.461   0.099   4.270
 2403SOL    HW2 9642   4.475   0.087   4.363
 2403SOL    HW3 9643   4.542   0.067   4.229
 2403SOL    MW4 9644   4.473   0.093   4.277
 2404SOL     OW 9645   0.032   0.366   4.182
 2404SOL    HW2 9646   0.016   0.281   4.223
 2404SOL    HW3 9647   0.047   0.345   4.090
 2404SOL    MW4 9648   0.032   0.352   4.175
 2405SOL     OW 9649   0.262   0.499   4.241
 2405SOL    HW2 9650   0.322   0.440   4.196
 2405SOL    HW3 9651   0.175   0.462   4.225
 2405SOL    MW4 9652   0.259   0.487   4.233
 2406SOL     OW 9653   0.218   0.767   4.124
 2406SOL    HW2 9654   0.145   0.799   4.177
 2406SOL    HW3 9655   0.231   0.677   4.152
 2406SOL    MW4 9656   0.210   0.760   4.134
 2407SOL     OW 9657   0.026   0.879   4.320
 2407SOL    HW2 9658  -0.049   0.844   4.271
 2407SOL    HW3 9659   0.018   0.974   4.310
 2407SOL    MW4 9660   0.015   0.887   4.312
 2408SOL     OW 9661   0.033   1.146   4.235
 2408SOL    HW2 9662   0.105   1.208   4.235
 2408SOL    HW3 9663   0.019   1.124   4.143
 2408SOL    MW4 9664   0.040   1.151   4.223
 2409SOL     OW 9665   0.260   1.329   4.222
 2409SOL    HW2 9666   0.265   1.327   4.318
 2409SOL    HW3 9667   0.315   1.257   4.194
 2409SOL    MW4 9668   0.268   1.319   4.231
 2410SOL     OW 9669   0.335   1.824   4.799
 2410SOL    HW2 9670   0.324   1.741   4.845
 2410SOL    HW3 9671   0.428   1.845   4.808
 2410SOL    MW4 9672   0.346   1.815   4.806
 2411SOL     OW 9673   4.490   1.669   4.242
 2411SOL    HW2 9674   4.425   1.611   4.202
 2411SOL    HW3 9675   4.472   1.756   4.205
 2411SOL    MW4 9676   4.479   1.673   4.232
 2412SOL     OW 9677   0.209   2.038   4.243
 2412SOL    HW2 9678   0.212   2.061   4.336
 2412SOL    HW3 9679   0.288   1.985   4.229
 2412SOL    MW4 9680   0.220   2.034   4.253
 2413SOL     OW 9681   0.476   1.450   4.626
 2413SOL    HW2 9682   0.498   1.542   4.610
 2413SOL    HW3 9683   0.448   1.449   4.718
 2413SOL    MW4 9684   0.475   1.462   4.636
 2414SOL     OW 9685   0.229   2.289   4.137
 2414SOL    HW2 9686   0.304   2.341   4.165
 2414SOL    HW3 9687   0.241   2.205   4.180
 2414SOL    MW4 9688   0.241   2.285   4.146
 2415SOL     OW 9689   0.005   2.427   4.218
 2415SOL    HW2 9690  -0.071   2.392   4.172
 2415SOL    HW3 9691   0.080   2.387   4.174
 2415SOL    MW4 9692   0.005   2.417   4.206
 2416SOL     OW 9693   4.475   2.719   4.183
 2416SOL    HW2 9694   4.555   2.761   4.215
 2416SOL    HW3 9695   4.489   2.625   4.197
 2416SOL    MW4 9696   4.487   2.712   4.189
 2417SOL     OW 9697   0.217   2.848   4.259
 2417SOL    HW2 9698   0.272   2.781   4.216
 2417SOL    HW3 9699   0.241   2.930   4.215
 2417SOL    MW4 9700   0.228   2.850   4.248
 2418SOL     OW 9701   0.236   3.110   4.149
 2418SOL    HW2 9702   0.308   3.159   4.189
 2418SOL    HW3 9703   0.157   3.147   4.187
 2418SOL    MW4 9704   0.235   3.121   4.159
 2419SOL     OW 9705   4.491   3.252   4.213
 2419SOL    HW2 9706   4.415   3.212   4.170
 2419SOL    HW3 9707   4.483   3.345   4.191
 2419SOL    MW4 9708   4.480   3.259   4.204
 2420SOL     OW 9709   4.488   3.501   4.111
 2420SOL    HW2 9710   4.404   3.524   4.149
 2420SOL    HW3 9711   4.471   3.491   4.017
 2420SOL    MW4 9712   4.475   3.503   4.103
 2421SOL     OW 9713   0.208   3.641   4.201
 2421SOL    HW2 9714   0.290   3.594   4.184
 2421SOL    HW3 9715   0.140   3.587   4.161
 2421SOL    MW4 9716   0.210   3.628   4.193
 2422SOL     OW 9717   0.180   3.901   4.124
 2422SOL    HW2 9718   0.129   3.958   4.182
 2422SOL    HW3 9719   0.173   3.814   4.163
 2422SOL    MW4 9720   0.172   3.897   4.137
 2423SOL     OW 9721   4.452   4.037   4.269
 2423SOL    HW2 9722   4.460   4.014   4.361
 2423SOL    HW3 9723   4.398   3.968   4.231
 2423SOL    MW4 9724   4.446   4.025   4.276
 2424SOL     OW 9725   4.426   4.279   4.169
 2424SOL    HW2 9726   4.448   4.195   4.209
 2424SOL    HW3 9727   4.435   4.264   4.075
 2424SOL    MW4 9728   4.430   4.266   4.162
 2425SOL     OW 9729   0.193   4.391   4.199
 2425SOL    HW2 9730   0.195   4.410   4.293
 2425SOL    HW3 9731   0.107   4.352   4.184
 2425SOL    MW4 9732   0.182   4.389   4.210
 2426SOL     OW 9733   0.667   4.630   4.125
 2426SOL    HW2 9734   0.601   4.686   4.167
 2426SOL    HW3 9735   0.661   4.652   4.032
 2426SOL    MW4 9736   0.657   4.641   4.119
 2427SOL     OW 9737   0.421   0.057   4.250
 2427SOL    HW2 9738   0.430   0.052   4.346
 2427SOL    HW3 9739   0.423   0.150   4.231
 2427SOL    MW4 9740   0.423   0.069   4.260
 2428SOL     OW 9741   0.451   0.313   4.138
 2428SOL    HW2 9742   0.525   0.363   4.175
 2428SOL    HW3 9743   0.452   0.336   4.045
 2428SOL    MW4 9744   0.461   0.323   4.131
 2429SOL     OW 9745   0.670   0.460   4.266
 2429SOL    HW2 9746   0.746   0.428   4.217
 2429SOL    HW3 9747   0.659   0.550   4.237
 2429SOL    MW4 9748   0.678   0.467   4.255
 2430SOL     OW 9749   0.641   0.720   4.141
 2430SOL    HW2 9750   0.571   0.778   4.170
 2430SOL    HW3 9751   0.645   0.733   4.046
 2430SOL    MW4 9752   0.632   0.730   4.132
 2431SOL     OW 9753   0.433   0.873   4.244
 2431SOL    HW2 9754   0.424   0.963   4.214
 2431SOL    HW3 9755   0.365   0.825   4.196
 2431SOL    MW4 9756   0.423   0.878   4.233
 2432SOL     OW 9757   0.422   1.119   4.127
 2432SOL    HW2 9758   0.510   1.146   4.153
 2432SOL    HW3 9759   0.427   1.109   4.032
 2432SOL    MW4 9760   0.434   1.121   4.118
 2433SOL     OW 9761   0.652   1.233   4.232
 2433SOL    HW2 9762   0.670   1.251   4.325
 2433SOL    HW3 9763   0.665   1.318   4.189
 2433SOL    MW4 9764   0.656   1.247   4.239
 2434SOL     OW 9765   0.695   1.493   4.120
 2434SOL    HW2 9766   0.769   1.546   4.152
 2434SOL    HW3 9767   0.683   1.521   4.029
 2434SOL    MW4 9768   0.703   1.504   4.112
 2435SOL     OW 9769   0.240   1.585   4.145
 2435SOL    HW2 9770   0.239   1.492   4.169
 2435SOL    HW3 9771   0.155   1.618   4.173
 2435SOL    MW4 9772   0.228   1.577   4.152
 2436SOL     OW 9773   0.434   1.918   4.179
 2436SOL    HW2 9774   0.447   1.828   4.209
 2436SOL    HW3 9775   0.407   1.910   4.087
 2436SOL    MW4 9776   0.432   1.905   4.170
 2437SOL     OW 9777   0.685   2.041   4.229
 2437SOL    HW2 9778   0.690   2.072   4.320
 2437SOL    HW3 9779   0.596   2.007   4.220
 2437SOL    MW4 9780   0.673   2.041   4.240
 2438SOL     OW 9781   0.705   2.305   4.134
 2438SOL    HW2 9782   0.702   2.216   4.169
 2438SOL    HW3 9783   0.682   2.296   4.042
 2438SOL    MW4 9784   0.701   2.292   4.127
 2439SOL     OW 9785   0.465   2.395   4.240
 2439SOL    HW2 9786   0.453   2.490   4.232
 2439SOL    HW3 9787   0.548   2.377   4.196
 2439SOL    MW4 9788   0.474   2.405   4.233
 2440SOL     OW 9789   0.416   2.662   4.159
 2440SOL    HW2 9790   0.495   2.699   4.198
 2440SOL    HW3 9791   0.431   2.669   4.064
 2440SOL    MW4 9792   0.428   2.668   4.151
 2441SOL     OW 9793   0.654   2.805   4.235
 2441SOL    HW2 9794   0.676   2.805   4.328
 2441SOL    HW3 9795   0.648   2.897   4.212
 2441SOL    MW4 9796   0.656   2.817   4.244
 2442SOL     OW 9797   0.650   3.078   4.177
 2442SOL    HW2 9798   0.735   3.114   4.201
 2442SOL    HW3 9799   0.587   3.132   4.225
 2442SOL    MW4 9800   0.653   3.090   4.187
 2443SOL     OW 9801   0.445   3.239   4.270
 2443SOL    HW2 9802   0.447   3.243   4.366
 2443SOL    HW3 9803   0.440   3.331   4.243
 2443SOL    MW4 9804   0.445   3.252   4.279
 2444SOL     OW 9805   0.432   3.487   4.144
 2444SOL    HW2 9806   0.515   3.520   4.178
 2444SOL    HW3 9807   0.449   3.470   4.051
 2444SOL    MW4 9808   0.445   3.489   4.136
 2445SOL     OW 9809   0.667   3.568   4.229
 2445SOL    HW2 9810   0.650   3.551   4.322
 2445SOL    HW3 9811   0.742   3.512   4.209
 2445SOL    MW4 9812   0.675   3.558   4.239
 2446SOL     OW 9813   0.667   3.842   4.160
 2446SOL    HW2 9814   0.590   3.883   4.199
 2446SOL    HW3 9815   0.669   3.754   4.197
 2446SOL    MW4 9816   0.657   3.836   4.170
 2447SOL     OW 9817   0.438   3.961   4.248
 2447SOL    HW2 9818   0.457   4.050   4.220
 2447SOL    HW3 9819   0.368   3.932   4.190
 2447SOL    MW4 9820   0.431   3.969   4.237
 2448SOL     OW 9821   0.440   4.226   4.155
 2448SOL    HW2 9822   0.366   4.277   4.189
 2448SOL    HW3 9823   0.428   4.227   4.060
 2448SOL    MW4 9824   0.429   4.233   4.147
 2449SOL     OW 9825   0.652   4.393   4.252
 2449SOL    HW2 9826   0.575   4.351   4.214
 2449SOL    HW3 9827   0.667   4.471   4.199
 2449SOL    MW4 9828   0.644   4.398   4.240
 2450SOL     OW 9829   1.095   0.002   4.133
 2450SOL    HW2 9830   1.117  -0.085   4.165
 2450SOL    HW3 9831   1.107  -0.004   4.039
 2450SOL    MW4 9832   1.099  -0.010   4.125
 2451SOL     OW 9833   0.869   0.099   4.258
 2451SOL    HW2 9834   0.949   0.065   4.219
 2451SOL    HW3 9835   0.799   0.047   4.220
 2451SOL    MW4 9836   0.870   0.088   4.248
 2452SOL     OW 9837   0.866   0.348   4.131
 2452SOL    HW2 9838   0.947   0.396   4.149
 2452SOL    HW3 9839   0.879   0.263   4.173
 2452SOL    MW4 9840   0.878   0.343   4.139
 2453SOL     OW 9841   1.094   0.490   4.231
 2453SOL    HW2 9842   1.078   0.457   4.319
 2453SOL    HW3 9843   1.187   0.473   4.216
 2453SOL    MW4 9844   1.104   0.483   4.240
 2454SOL     OW 9845   1.118   0.731   4.109
 2454SOL    HW2 9846   1.180   0.783   4.160
 2454SOL    HW3 9847   1.119   0.645   4.151
 2454SOL    MW4 9848   1.126   0.727   4.121
 2455SOL     OW 9849   0.883   0.847   4.210
 2455SOL    HW2 9850   0.951   0.792   4.170
 2455SOL    HW3 9851   0.801   0.802   4.190
 2455SOL    MW4 9852   0.881   0.834   4.202
 2456SOL     OW 9853   0.886   1.112   4.136
 2456SOL    HW2 9854   0.883   1.021   4.165
 2456SOL    HW3 9855   0.808   1.152   4.174
 2456SOL    MW4 9856   0.875   1.105   4.144
 2457SOL     OW 9857   1.107   1.269   4.204
 2457SOL    HW2 9858   1.124   1.259   4.298
 2457SOL    HW3 9859   1.032   1.212   4.188
 2457SOL    MW4 9860   1.099   1.260   4.214
 2458SOL     OW 9861   1.102   1.507   4.058
 2458SOL    HW2 9862   1.028   1.540   4.108
 2458SOL    HW3 9863   1.126   1.425   4.101
 2458SOL    MW4 9864   1.096   1.501   4.070
 2459SOL     OW 9865   0.909   1.624   4.220
 2459SOL    HW2 9866   0.883   1.632   4.312
 2459SOL    HW3 9867   0.905   1.714   4.187
 2459SOL    MW4 9868   0.905   1.637   4.228
 2460SOL     OW 9869   0.894   1.884   4.117
 2460SOL    HW2 9870   0.836   1.944   4.164
 2460SOL    HW3 9871   0.863   1.886   4.027
 2460SOL    MW4 9872   0.882   1.892   4.112
 2461SOL     OW 9873   1.115   2.049   4.172
 2461SOL    HW2 9874   1.123   2.039   4.266
 2461SOL    HW3 9875   1.035   2.001   4.149
 2461SOL    MW4 9876   1.105   2.041   4.181
 2462SOL     OW 9877   1.168   2.313   4.126
 2462SOL    HW2 9878   1.237   2.352   4.179
 2462SOL    HW3 9879   1.165   2.221   4.153
 2462SOL    MW4 9880   1.177   2.306   4.136
 2463SOL     OW 9881   0.915   2.437   4.244
 2463SOL    HW2 9882   0.992   2.404   4.200
 2463SOL    HW3 9883   0.841   2.396   4.199
 2463SOL    MW4 9884   0.915   2.427   4.233
 2464SOL     OW 9885   0.900   2.690   4.141
 2464SOL    HW2 9886   0.903   2.601   4.177
 2464SOL    HW3 9887   0.809   2.718   4.153
 2464SOL    MW4 9888   0.888   2.682   4.147
 2465SOL     OW 9889   1.120   2.806   4.285
 2465SOL    HW2 9890   1.138   2.896   4.259
 2465SOL    HW3 9891   1.045   2.780   4.232
 2465SOL    MW4 9892   1.112   2.814   4.275
 2466SOL     OW 9893   1.163   3.046   4.130
 2466SOL    HW2 9894   1.248   3.086   4.149
 2466SOL    HW3 9895   1.157   3.045   4.035
 2466SOL    MW4 9896   1.174   3.051   4.120
 2467SOL     OW 9897   0.908   3.165   4.210
 2467SOL    HW2 9898   0.917   3.166   4.305
 2467SOL    HW3 9899   0.983   3.115   4.179
 2467SOL    MW4 9900   0.919   3.158   4.218
 2468SOL     OW 9901   0.910   3.438   4.157
 2468SOL    HW2 9902   0.916   3.344   4.171
 2468SOL    HW3 9903   0.901   3.448   4.063
 2468SOL    MW4 9904   0.910   3.427   4.147
 2469SOL     OW 9905   1.138   3.573   4.223
 2469SOL    HW2 9906   1.124   3.660   4.187
 2469SOL    HW3 9907   1.062   3.522   4.194
 2469SOL    MW4 9908   1.126   3.578   4.214
 2470SOL     OW 9909   1.136   3.838   4.132
 2470SOL    HW2 9910   1.206   3.892   4.168
 2470SOL    HW3 9911   1.056   3.887   4.154
 2470SOL    MW4 9912   1.134   3.852   4.140
 2471SOL     OW 9913   0.898   3.985   4.225
 2471SOL    HW2 9914   0.886   4.079   4.235
 2471SOL    HW3 9915   0.809   3.950   4.217
 2471SOL    MW4 9916   0.885   3.993   4.225
 2472SOL     OW 9917   0.894   4.283   4.157
 2472SOL    HW2 9918   0.956   4.351   4.180
 2472SOL    HW3 9919   0.809   4.317   4.186
 2472SOL    MW4 9920   0.891   4.296   4.164
 2473SOL     OW 9921   1.134   4.413   4.224
 2473SOL    HW2 9922   1.157   4.431   4.315
 2473SOL    HW3 9923   1.201   4.351   4.194
 2473SOL    MW4 9924   1.145   4.407   4.232
 2474SOL     OW 9925   1.509   4.652   4.128
 2474SOL    HW2 9926   1.594   4.678   4.164
 2474SOL    HW3 9927   1.445   4.693   4.186
 2474SOL    MW4 9928   1.512   4.661   4.140
 2475SOL     OW 9929   1.305   0.137   4.250
 2475SOL    HW2 9930   1.289   0.121   4.343
 2475SOL    HW3 9931   1.234   0.089   4.206
 2475SOL    MW4 9932   1.293   0.128   4.256
 2476SOL     OW 9933   1.335   0.394   4.139
 2476SOL    HW2 9934   1.417   0.427   4.173
 2476SOL    HW3 9935   1.331   0.303   4.170
 2476SOL    MW4 9936   1.345   0.386   4.148
 2477SOL     OW 9937   1.586   0.486   4.212
 2477SOL    HW2 9938   1.587   0.498   4.307
 2477SOL    HW3 9939   1.588   0.575   4.176
 2477SOL    MW4 9940   1.587   0.499   4.219
 2478SOL     OW 9941   1.554   0.748   4.141
 2478SOL    HW2 9942   1.623   0.808   4.168
 2478SOL    HW3 9943   1.544   0.764   4.047
 2478SOL    MW4 9944   1.562   0.758   4.132
 2479SOL     OW 9945   1.314   0.872   4.237
 2479SOL    HW2 9946   1.315   0.959   4.196
 2479SOL    HW3 9947   1.401   0.836   4.220
 2479SOL    MW4 9948   1.326   0.879   4.229
 2480SOL     OW 9949   1.327   1.132   4.112
 2480SOL    HW2 9950   1.239   1.166   4.125
 2480SOL    HW3 9951   1.343   1.142   4.018
 2480SOL    MW4 9952   1.318   1.138   4.101
 2481SOL     OW 9953   1.535   1.266   4.232
 2481SOL    HW2 9954   1.522   1.277   4.326
 2481SOL    HW3 9955   1.468   1.202   4.206
 2481SOL    MW4 9956   1.525   1.259   4.241
 2482SOL     OW 9957   1.540   1.512   4.119
 2482SOL    HW2 9958   1.486   1.565   4.178
 2482SOL    HW3 9959   1.543   1.425   4.160
 2482SOL    MW4 9960   1.534   1.507   4.133
 2483SOL     OW 9961   1.304   1.639   4.250
 2483SOL    HW2 9962   1.310   1.725   4.208
 2483SOL    HW3 9963   1.247   1.588   4.191
 2483SOL    MW4 9964   1.297   1.643   4.237
 2484SOL     OW 9965   1.331   1.872   4.119
 2484SOL    HW2 9966   1.394   1.937   4.149
 2484SOL    HW3 9967   1.246   1.909   4.142
 2484SOL    MW4 9968   1.328   1.886   4.126
 2485SOL     OW 9969   1.524   2.040   4.239
 2485SOL    HW2 9970   1.614   2.019   4.211
 2485SOL    HW3 9971   1.516   2.134   4.224
 2485SOL    MW4 9972   1.535   2.050   4.233
 2486SOL     OW 9973   1.510   2.292   4.191
 2486SOL    HW2 9974   1.590   2.333   4.226
 2486SOL    HW3 9975   1.520   2.298   4.096
 2486SOL    MW4 9976   1.522   2.298   4.183
 2487SOL     OW 9977   1.535   2.875   4.344
 2487SOL    HW2 9978   1.508   2.889   4.435
 2487SOL    HW3 9979   1.619   2.830   4.350
 2487SOL    MW4 9980   1.542   2.871   4.357
 2488SOL     OW 9981   1.354   2.706   4.201
 2488SOL    HW2 9982   1.421   2.768   4.228
 2488SOL    HW3 9983   1.272   2.744   4.232
 2488SOL    MW4 9984   1.352   2.719   4.209
 2489SOL     OW 9985   1.576   2.311   4.682
 2489SOL    HW2 9986   1.591   2.365   4.759
 2489SOL    HW3 9987   1.655   2.257   4.674
 2489SOL    MW4 9988   1.589   2.311   4.691
 2490SOL     OW 9989   1.636   3.059   4.182
 2490SOL    HW2 9990   1.693   3.106   4.243
 2490SOL    HW3 9991   1.601   2.986   4.234
 2490SOL    MW4 9992   1.639   3.055   4.197
 2491SOL     OW 9993   1.380   3.175   4.229
 2491SOL    HW2 9994   1.474   3.157   4.228
 2491SOL    HW3 9995   1.375   3.270   4.217
 2491SOL    MW4 9996   1.392   3.186   4.227
 2492SOL     OW 9997   1.371   3.447   4.144
 2492SOL    HW2 9998   1.286   3.483   4.169
 2492SOL    HW3 9999   1.375   3.459   4.049
 2492SOL    MW410000   1.360   3.454   4.135
 2493SOL     OW10001   1.565   3.638   4.188
 2493SOL    HW210002   1.584   3.636   4.282
 2493SOL    HW310003   1.484   3.588   4.179
 2493SOL    MW410004   1.557   3.631   4.199
 2494SOL     OW10005   1.558   3.875   4.062
 2494SOL    HW210006   1.485   3.923   4.101
 2494SOL    HW310007   1.564   3.795   4.114
 2494SOL    MW410008   1.550   3.871   4.074
 2495SOL     OW10009   1.355   3.974   4.210
 2495SOL    HW210010   1.373   3.953   4.302
 2495SOL    HW310011   1.328   4.065   4.211
 2495SOL    MW410012   1.353   3.983   4.222
 2496SOL     OW10013   1.331   4.243   4.137
 2496SOL    HW210014   1.414   4.289   4.151
 2496SOL    HW310015   1.334   4.216   4.045
 2496SOL    MW410016   1.342   4.246   4.126
 2497SOL     OW10017   1.556   4.390   4.195
 2497SOL    HW210018   1.557   4.485   4.188
 2497SOL    HW310019   1.625   4.360   4.137
 2497SOL    MW410020   1.565   4.398   4.186
 2498SOL     OW10021   1.991   4.623   4.158
 2498SOL    HW210022   1.916   4.663   4.203
 2498SOL    HW310023   1.970   4.632   4.065
 2498SOL    MW410024   1.978   4.630   4.152
 2499SOL     OW10025   1.771   0.098   4.233
 2499SOL    HW210026   1.743   0.131   4.319
 2499SOL    HW310027   1.788   0.176   4.182
 2499SOL    MW410028   1.769   0.112   4.238
 2500SOL     OW10029   1.833   0.367   4.115
 2500SOL    HW210030   1.900   0.418   4.160
 2500SOL    HW310031   1.750   0.404   4.145
 2500SOL    MW410032   1.831   0.378   4.125
 2501SOL     OW10033   2.034   0.486   4.251
 2501SOL    HW210034   2.019   0.438   4.333
 2501SOL    HW310035   2.107   0.439   4.209
 2501SOL    MW410036   2.042   0.473   4.256
 2502SOL     OW10037   2.007   0.766   4.144
 2502SOL    HW210038   2.082   0.811   4.183
 2502SOL    HW310039   2.004   0.682   4.190
 2502SOL    MW410040   2.017   0.761   4.155
 2503SOL     OW10041   1.775   0.914   4.227
 2503SOL    HW210042   1.776   1.008   4.209
 2503SOL    HW310043   1.864   0.885   4.209
 2503SOL    MW410044   1.787   0.923   4.222
 2504SOL     OW10045   1.791   1.182   4.152
 2504SOL    HW210046   1.862   1.221   4.203
 2504SOL    HW310047   1.711   1.215   4.194
 2504SOL    MW410048   1.790   1.192   4.165
 2505SOL     OW10049   2.017   1.309   4.260
 2505SOL    HW210050   2.082   1.274   4.199
 2505SOL    HW310051   1.979   1.383   4.214
 2505SOL    MW410052   2.021   1.314   4.246
 2506SOL     OW10053   1.979   1.536   4.103
 2506SOL    HW210054   2.061   1.565   4.144
 2506SOL    HW310055   1.994   1.547   4.009
 2506SOL    MW410056   1.992   1.541   4.096
 2507SOL     OW10057   1.743   1.677   4.185
 2507SOL    HW210058   1.820   1.626   4.160
 2507SOL    HW310059   1.669   1.625   4.154
 2507SOL    MW410060   1.744   1.663   4.178
 2508SOL     OW10061   1.764   1.949   4.143
 2508SOL    HW210062   1.751   1.858   4.170
 2508SOL    HW310063   1.835   1.981   4.198
 2508SOL    MW410064   1.771   1.941   4.154
 2509SOL     OW10065   1.733   2.373   4.330
 2509SOL    HW210066   1.708   2.431   4.402
 2509SOL    HW310067   1.806   2.417   4.288
 2509SOL    MW410068   1.739   2.386   4.334
 2510SOL     OW10069   2.351   2.087   4.122
 2510SOL    HW210070   2.431   2.097   4.174
 2510SOL    HW310071   2.308   2.173   4.127
 2510SOL    MW410072   2.356   2.100   4.129
 2511SOL     OW10073   1.814   2.818   4.355
 2511SOL    HW210074   1.817   2.787   4.265
 2511SOL    HW310075   1.906   2.831   4.379
 2511SOL    MW410076   1.826   2.816   4.346
 2512SOL     OW10077   1.831   2.726   4.095
 2512SOL    HW210078   1.884   2.653   4.128
 2512SOL    HW310079   1.895   2.796   4.079
 2512SOL    MW410080   1.847   2.726   4.097
 2513SOL     OW10081   2.002   3.077   4.251
 2513SOL    HW210082   2.029   3.013   4.316
 2513SOL    HW310083   1.993   3.027   4.170
 2513SOL    MW410084   2.005   3.062   4.249
 2514SOL     OW10085   2.238   2.734   4.119
 2514SOL    HW210086   2.325   2.775   4.123
 2514SOL    HW310087   2.211   2.727   4.210
 2514SOL    MW410088   2.246   2.738   4.131
 2515SOL     OW10089   1.787   3.246   4.334
 2515SOL    HW210090   1.792   3.310   4.263
 2515SOL    HW310091   1.861   3.187   4.318
 2515SOL    MW410092   1.797   3.247   4.322
 2516SOL     OW10093   1.792   3.474   4.164
 2516SOL    HW210094   1.706   3.515   4.168
 2516SOL    HW310095   1.819   3.483   4.073
 2516SOL    MW410096   1.785   3.481   4.153
 2517SOL     OW10097   2.018   3.598   4.259
 2517SOL    HW210098   2.023   3.683   4.215
 2517SOL    HW310099   1.936   3.560   4.230
 2517SOL    MW410100   2.008   3.604   4.250
 2518SOL     OW10101   2.012   3.862   4.164
 2518SOL    HW210102   1.924   3.894   4.184
 2518SOL    HW310103   2.011   3.849   4.069
 2518SOL    MW410104   2.000   3.864   4.154
 2519SOL     OW10105   1.767   4.001   4.188
 2519SOL    HW210106   1.765   4.089   4.151
 2519SOL    HW310107   1.687   3.959   4.154
 2519SOL    MW410108   1.756   4.007   4.179
 2520SOL     OW10109   1.757   4.237   4.043
 2520SOL    HW210110   1.835   4.287   4.067
 2520SOL    HW310111   1.756   4.241   3.947
 2520SOL    MW410112   1.767   4.244   4.033
 2521SOL     OW10113   1.958   4.351   4.185
 2521SOL    HW210114   1.959   4.331   4.279
 2521SOL    HW310115   1.967   4.446   4.181
 2521SOL    MW410116   1.960   4.361   4.197
 2522SOL     OW10117   2.407   4.620   4.110
 2522SOL    HW210118   2.489   4.653   4.145
 2522SOL    HW310119   2.398   4.532   4.148
 2522SOL    MW410120   2.416   4.612   4.120
 2523SOL     OW10121   2.212   0.114   4.218
 2523SOL    HW210122   2.282   0.063   4.178
 2523SOL    HW310123   2.133   0.061   4.206
 2523SOL    MW410124   2.211   0.101   4.211
 2524SOL     OW10125   2.258   0.371   4.138
 2524SOL    HW210126   2.231   0.284   4.167
 2524SOL    HW310127   2.243   0.370   4.043
 2524SOL    MW410128   2.252   0.360   4.129
 2525SOL     OW10129   2.454   0.527   4.232
 2525SOL    HW210130   2.429   0.522   4.325
 2525SOL    HW310131   2.382   0.485   4.186
 2525SOL    MW410132   2.441   0.521   4.239
 2526SOL     OW10133   2.456   0.789   4.142
 2526SOL    HW210134   2.453   0.702   4.180
 2526SOL    HW310135   2.481   0.775   4.051
 2526SOL    MW410136   2.459   0.776   4.135
 2527SOL     OW10137   2.228   0.921   4.204
 2527SOL    HW210138   2.227   0.939   4.298
 2527SOL    HW310139   2.310   0.873   4.190
 2527SOL    MW410140   2.239   0.917   4.214
 2528SOL     OW10141   2.210   1.182   4.115
 2528SOL    HW210142   2.293   1.212   4.152
 2528SOL    HW310143   2.209   1.087   4.131
 2528SOL    MW410144   2.221   1.173   4.122
 2529SOL     OW10145   2.452   1.296   4.213
 2529SOL    HW210146   2.437   1.312   4.306
 2529SOL    HW310147   2.544   1.269   4.208
 2529SOL    MW410148   2.462   1.295   4.224
 2530SOL     OW10149   2.466   1.553   4.110
 2530SOL    HW210150   2.472   1.466   4.150
 2530SOL    HW310151   2.470   1.536   4.016
 2530SOL    MW410152   2.467   1.539   4.103
 2531SOL     OW10153   2.218   1.617   4.209
 2531SOL    HW210154   2.297   1.595   4.159
 2531SOL    HW310155   2.223   1.712   4.222
 2531SOL    MW410156   2.229   1.627   4.204
 2532SOL     OW10157   2.232   1.889   4.272
 2532SOL    HW210158   2.275   1.959   4.225
 2532SOL    HW310159   2.139   1.912   4.270
 2532SOL    MW410160   2.225   1.901   4.266
 2533SOL     OW10161   2.542   2.111   4.318
 2533SOL    HW210162   2.512   2.073   4.400
 2533SOL    HW310163   2.604   2.046   4.283
 2533SOL    MW410164   2.546   2.097   4.324
 2534SOL     OW10165   2.760   2.508   4.249
 2534SOL    HW210166   2.684   2.456   4.275
 2534SOL    HW310167   2.803   2.531   4.332
 2534SOL    MW410168   2.756   2.504   4.263
 2535SOL     OW10169   2.419   2.407   4.595
 2535SOL    HW210170   2.393   2.441   4.509
 2535SOL    HW310171   2.420   2.485   4.652
 2535SOL    MW410172   2.416   2.422   4.592
 2536SOL     OW10173   1.980   2.530   4.224
 2536SOL    HW210174   2.041   2.569   4.286
 2536SOL    HW310175   2.035   2.473   4.169
 2536SOL    MW410176   1.995   2.527   4.225
 2537SOL     OW10177   2.466   2.703   4.392
 2537SOL    HW210178   2.429   2.632   4.340
 2537SOL    HW310179   2.391   2.744   4.435
 2537SOL    MW410180   2.451   2.699   4.391
 2538SOL     OW10181   2.465   3.134   4.069
 2538SOL    HW210182   2.380   3.160   4.103
 2538SOL    HW310183   2.528   3.169   4.132
 2538SOL    MW410184   2.462   3.142   4.081
 2539SOL     OW10185   2.030   2.912   4.026
 2539SOL    HW210186   2.014   2.961   3.945
 2539SOL    HW310187   2.118   2.877   4.015
 2539SOL    MW410188   2.039   2.913   4.014
 2540SOL     OW10189   2.225   3.490   4.116
 2540SOL    HW210190   2.232   3.395   4.127
 2540SOL    HW310191   2.152   3.516   4.171
 2540SOL    MW410192   2.217   3.481   4.125
 2541SOL     OW10193   2.478   3.610   4.167
 2541SOL    HW210194   2.388   3.578   4.172
 2541SOL    HW310195   2.468   3.703   4.145
 2541SOL    MW410196   2.465   3.618   4.165
 2542SOL     OW10197   2.448   3.863   4.066
 2542SOL    HW210198   2.522   3.917   4.093
 2542SOL    HW310199   2.430   3.892   3.976
 2542SOL    MW410200   2.455   3.874   4.058
 2543SOL     OW10201   2.233   3.993   4.254
 2543SOL    HW210202   2.302   3.944   4.208
 2543SOL    HW310203   2.152   3.947   4.232
 2543SOL    MW410204   2.232   3.980   4.245
 2544SOL     OW10205   2.206   4.219   4.109
 2544SOL    HW210206   2.208   4.138   4.159
 2544SOL    HW310207   2.123   4.260   4.133
 2544SOL    MW410208   2.195   4.214   4.118
 2545SOL     OW10209   2.399   4.371   4.222
 2545SOL    HW210210   2.476   4.326   4.188
 2545SOL    HW310211   2.325   4.319   4.189
 2545SOL    MW410212   2.399   4.358   4.213
 2546SOL     OW10213   2.891   0.010   4.114
 2546SOL    HW210214   2.956   0.068   4.152
 2546SOL    HW310215   2.913  -0.077   4.149
 2546SOL    MW410216   2.902   0.006   4.124
 2547SOL     OW10217   2.636   0.099   4.190
 2547SOL    HW210218   2.639   0.192   4.169
 2547SOL    HW310219   2.720   0.065   4.159
 2547SOL    MW410220   2.648   0.106   4.183
 2548SOL     OW10221   2.692   0.404   4.134
 2548SOL    HW210222   2.603   0.431   4.154
 2548SOL    HW310223   2.694   0.397   4.039
 2548SOL    MW410224   2.681   0.406   4.124
 2549SOL     OW10225   3.225   0.768   4.122
 2549SOL    HW210226   3.275   0.717   4.185
 2549SOL    HW310227   3.137   0.771   4.157
 2549SOL    MW410228   3.220   0.762   4.135
 2550SOL     OW10229   2.944   0.822   4.189
 2550SOL    HW210230   2.983   0.906   4.168
 2550SOL    HW310231   2.916   0.786   4.105
 2550SOL    MW410232   2.945   0.828   4.175
 2551SOL     OW10233   2.674   0.913   4.272
 2551SOL    HW210234   2.753   0.867   4.242
 2551SOL    HW310235   2.602   0.866   4.231
 2551SOL    MW410236   2.675   0.901   4.263
 2552SOL     OW10237   2.711   1.172   4.173
 2552SOL    HW210238   2.703   1.087   4.216
 2552SOL    HW310239   2.712   1.152   4.080
 2552SOL    MW410240   2.710   1.158   4.166
 2553SOL     OW10241   2.950   1.287   4.265
 2553SOL    HW210242   3.004   1.219   4.225
 2553SOL    HW310243   2.860   1.262   4.242
 2553SOL    MW410244   2.945   1.275   4.256
 2554SOL     OW10245   2.921   1.510   4.114
 2554SOL    HW210246   2.987   1.568   4.154
 2554SOL    HW310247   2.931   1.427   4.160
 2554SOL    MW410248   2.931   1.507   4.125
 2555SOL     OW10249   2.701   1.656   4.208
 2555SOL    HW210250   2.762   1.594   4.168
 2555SOL    HW310251   2.616   1.632   4.171
 2555SOL    MW410252   2.698   1.645   4.197
 2556SOL     OW10253   2.702   1.927   4.166
 2556SOL    HW210254   2.700   1.833   4.184
 2556SOL    HW310255   2.675   1.934   4.075
 2556SOL    MW410256   2.698   1.916   4.156
 2557SOL     OW10257   2.909   2.084   4.259
 2557SOL    HW210258   2.903   2.159   4.200
 2557SOL    HW310259   2.841   2.024   4.229
 2557SOL    MW410260   2.899   2.086   4.247
 2558SOL     OW10261   2.921   2.323   4.137
 2558SOL    HW210262   3.001   2.354   4.180
 2558SOL    HW310263   2.855   2.389   4.160
 2558SOL    MW410264   2.923   2.336   4.146
 2559SOL     OW10265   2.760   2.764   4.131
 2559SOL    HW210266   2.668   2.792   4.132
 2559SOL    HW310267   2.759   2.677   4.171
 2559SOL    MW410268   2.747   2.756   4.136
 2560SOL     OW10269   2.489   2.861   4.127
 2560SOL    HW210270   2.494   2.842   4.220
 2560SOL    HW310271   2.465   2.954   4.123
 2560SOL    MW410272   2.486   2.871   4.139
 2561SOL     OW10273   3.010   2.901   4.082
 2561SOL    HW210274   2.928   2.852   4.087
 2561SOL    HW310275   2.993   2.969   4.017
 2561SOL    MW410276   2.997   2.904   4.074
 2562SOL     OW10277   2.932   3.091   4.249
 2562SOL    HW210278   2.927   3.051   4.336
 2562SOL    HW310279   2.971   3.023   4.194
 2562SOL    MW410280   2.936   3.077   4.253
 2563SOL     OW10281   2.682   3.216   4.232
 2563SOL    HW210282   2.685   3.243   4.324
 2563SOL    HW310283   2.760   3.162   4.221
 2563SOL    MW410284   2.692   3.212   4.243
 2564SOL     OW10285   2.720   3.469   4.132
 2564SOL    HW210286   2.702   3.380   4.164
 2564SOL    HW310287   2.635   3.513   4.136
 2564SOL    MW410288   2.706   3.463   4.137
 2565SOL     OW10289   2.921   3.619   4.238
 2565SOL    HW210290   2.920   3.619   4.333
 2565SOL    HW310291   2.838   3.578   4.213
 2565SOL    MW410292   2.910   3.614   4.247
 2566SOL     OW10293   2.890   3.880   4.116
 2566SOL    HW210294   2.972   3.923   4.143
 2566SOL    HW310295   2.882   3.805   4.175
 2566SOL    MW410296   2.900   3.876   4.127
 2567SOL     OW10297   2.634   4.035   4.176
 2567SOL    HW210298   2.652   4.128   4.163
 2567SOL    HW310299   2.718   3.992   4.160
 2567SOL    MW410300   2.648   4.042   4.172
 2568SOL     OW10301   2.662   4.295   4.108
 2568SOL    HW210302   2.734   4.343   4.147
 2568SOL    HW310303   2.679   4.297   4.014
 2568SOL    MW410304   2.674   4.302   4.101
 2569SOL     OW10305   2.902   4.410   4.208
 2569SOL    HW210306   2.917   4.398   4.301
 2569SOL    HW310307   2.974   4.363   4.166
 2569SOL    MW410308   2.913   4.402   4.214
 2570SOL     OW10309   3.354   4.622   4.190
 2570SOL    HW210310   3.434   4.662   4.224
 2570SOL    HW310311   3.348   4.538   4.236
 2570SOL    MW410312   3.364   4.616   4.201
 2571SOL     OW10313   3.127   0.125   4.239
 2571SOL    HW210314   3.106   0.140   4.332
 2571SOL    HW310315   3.193   0.056   4.241
 2571SOL    MW410316   3.133   0.118   4.252
 2572SOL     OW10317   3.110   0.386   4.162
 2572SOL    HW210318   3.116   0.292   4.177
 2572SOL    HW310319   3.042   0.416   4.222
 2572SOL    MW410320   3.102   0.377   4.172
 2573SOL     OW10321   3.328   0.373   4.358
 2573SOL    HW210322   3.399   0.350   4.299
 2573SOL    HW310323   3.248   0.369   4.305
 2573SOL    MW410324   3.326   0.370   4.343
 2574SOL     OW10325   3.394   0.665   4.349
 2574SOL    HW210326   3.331   0.704   4.410
 2574SOL    HW310327   3.378   0.571   4.355
 2574SOL    MW410328   3.383   0.658   4.357
 2575SOL     OW10329   3.177   0.745   4.494
 2575SOL    HW210330   3.135   0.668   4.456
 2575SOL    HW310331   3.105   0.803   4.518
 2575SOL    MW410332   3.162   0.742   4.492
 2576SOL     OW10333   3.094   1.080   4.124
 2576SOL    HW210334   3.180   1.073   4.164
 2576SOL    HW310335   3.111   1.086   4.030
 2576SOL    MW410336   3.107   1.080   4.117
 2577SOL     OW10337   3.358   1.071   4.257
 2577SOL    HW210338   3.335   1.021   4.335
 2577SOL    HW310339   3.367   1.161   4.288
 2577SOL    MW410340   3.357   1.076   4.271
 2578SOL     OW10341   3.344   1.352   4.317
 2578SOL    HW210342   3.319   1.423   4.258
 2578SOL    HW310343   3.429   1.378   4.352
 2578SOL    MW410344   3.352   1.365   4.314
 2579SOL     OW10345   3.115   1.697   4.195
 2579SOL    HW210346   3.082   1.682   4.284
 2579SOL    HW310347   3.092   1.787   4.176
 2579SOL    MW410348   3.108   1.707   4.204
 2580SOL     OW10349   3.130   1.964   4.147
 2580SOL    HW210350   3.206   1.995   4.197
 2580SOL    HW310351   3.056   2.014   4.180
 2580SOL    MW410352   3.130   1.974   4.158
 2581SOL     OW10353   3.345   2.105   4.285
 2581SOL    HW210354   3.413   2.063   4.233
 2581SOL    HW310355   3.342   2.195   4.252
 2581SOL    MW410356   3.354   2.111   4.274
 2582SOL     OW10357   3.339   2.340   4.129
 2582SOL    HW210358   3.412   2.391   4.165
 2582SOL    HW310359   3.340   2.360   4.036
 2582SOL    MW410360   3.349   2.349   4.122
 2583SOL     OW10361   3.142   2.445   4.291
 2583SOL    HW210362   3.146   2.539   4.273
 2583SOL    HW310363   3.205   2.406   4.230
 2583SOL    MW410364   3.151   2.453   4.280
 2584SOL     OW10365   3.210   2.693   4.145
 2584SOL    HW210366   3.289   2.722   4.189
 2584SOL    HW310367   3.149   2.766   4.152
 2584SOL    MW410368   3.212   2.706   4.152
 2585SOL     OW10369   3.405   2.844   4.280
 2585SOL    HW210370   3.490   2.820   4.242
 2585SOL    HW310371   3.386   2.930   4.244
 2585SOL    MW410372   3.414   2.852   4.270
 2586SOL     OW10373   3.363   3.098   4.178
 2586SOL    HW210374   3.294   3.155   4.213
 2586SOL    HW310375   3.347   3.097   4.083
 2586SOL    MW410376   3.352   3.106   4.170
 2587SOL     OW10377   3.152   3.254   4.273
 2587SOL    HW210378   3.125   3.325   4.215
 2587SOL    HW310379   3.079   3.193   4.273
 2587SOL    MW410380   3.139   3.255   4.266
 2588SOL     OW10381   3.135   3.496   4.139
 2588SOL    HW210382   3.063   3.542   4.183
 2588SOL    HW310383   3.112   3.500   4.046
 2588SOL    MW410384   3.122   3.502   4.132
 2589SOL     OW10385   3.397   3.589   4.217
 2589SOL    HW210386   3.401   3.582   4.313
 2589SOL    HW310387   3.309   3.561   4.195
 2589SOL    MW410388   3.386   3.584   4.227
 2590SOL     OW10389   3.380   3.859   4.162
 2590SOL    HW210390   3.382   3.765   4.180
 2590SOL    HW310391   3.383   3.866   4.067
 2590SOL    MW410392   3.381   3.848   4.152
 2591SOL     OW10393   3.121   3.981   4.208
 2591SOL    HW210394   3.109   3.983   4.303
 2591SOL    HW310395   3.206   3.938   4.196
 2591SOL    MW410396   3.131   3.976   4.219
 2592SOL     OW10397   3.144   4.244   4.146
 2592SOL    HW210398   3.209   4.285   4.204
 2592SOL    HW310399   3.143   4.152   4.172
 2592SOL    MW410400   3.153   4.238   4.157
 2593SOL     OW10401   3.349   4.363   4.293
 2593SOL    HW210402   3.361   4.366   4.388
 2593SOL    HW310403   3.430   4.322   4.260
 2593SOL    MW410404   3.361   4.358   4.301
 2594SOL     OW10405   3.830   0.023   4.204
 2594SOL    HW210406   3.884   0.102   4.213
 2594SOL    HW310407   3.834   0.002   4.110
 2594SOL    MW410408   3.838   0.031   4.193
 2595SOL     OW10409   3.583   0.058   4.306
 2595SOL    HW210410   3.565   0.143   4.266
 2595SOL    HW310411   3.671   0.036   4.274
 2595SOL    MW410412   3.592   0.067   4.296
 2596SOL     OW10413   3.550   0.324   4.183
 2596SOL    HW210414   3.624   0.378   4.209
 2596SOL    HW310415   3.547   0.332   4.087
 2596SOL    MW410416   3.560   0.332   4.174
 2597SOL     OW10417   3.758   0.492   4.293
 2597SOL    HW210418   3.768   0.450   4.378
 2597SOL    HW310419   3.710   0.572   4.311
 2597SOL    MW410420   3.753   0.497   4.306
 2598SOL     OW10421   3.751   0.858   4.122
 2598SOL    HW210422   3.686   0.928   4.113
 2598SOL    HW310423   3.732   0.798   4.049
 2598SOL    MW410424   3.740   0.859   4.111
 2599SOL     OW10425   3.658   0.760   4.359
 2599SOL    HW210426   3.569   0.739   4.332
 2599SOL    HW310427   3.702   0.786   4.278
 2599SOL    MW410428   3.652   0.760   4.345
 2600SOL     OW10429   3.598   1.097   4.134
 2600SOL    HW210430   3.517   1.074   4.180
 2600SOL    HW310431   3.570   1.119   4.045
 2600SOL    MW410432   3.584   1.097   4.128
 2601SOL     OW10433   3.823   1.186   4.269
 2601SOL    HW210434   3.743   1.146   4.234
 2601SOL    HW310435   3.811   1.184   4.364
 2601SOL    MW410436   3.811   1.181   4.277
 2602SOL     OW10437   3.780   1.503   4.194
 2602SOL    HW210438   3.787   1.408   4.203
 2602SOL    HW310439   3.816   1.537   4.275
 2602SOL    MW410440   3.786   1.495   4.206
 2603SOL     OW10441   3.584   1.970   4.167
 2603SOL    HW210442   3.609   1.970   4.075
 2603SOL    HW310443   3.583   1.878   4.192
 2603SOL    MW410444   3.588   1.958   4.158
 2604SOL     OW10445   3.335   1.563   4.152
 2604SOL    HW210446   3.350   1.558   4.057
 2604SOL    HW310447   3.260   1.621   4.162
 2604SOL    MW410448   3.327   1.570   4.141
 2605SOL     OW10449   3.819   2.063   4.270
 2605SOL    HW210450   3.829   2.056   4.365
 2605SOL    HW310451   3.732   2.027   4.253
 2605SOL    MW410452   3.809   2.057   4.281
 2606SOL     OW10453   3.794   2.332   4.196
 2606SOL    HW210454   3.806   2.244   4.232
 2606SOL    HW310455   3.802   2.320   4.101
 2606SOL    MW410456   3.797   2.318   4.188
 2607SOL     OW10457   3.575   2.478   4.253
 2607SOL    HW210458   3.550   2.468   4.344
 2607SOL    HW310459   3.654   2.426   4.243
 2607SOL    MW410460   3.582   2.470   4.263
 2608SOL     OW10461   3.631   2.736   4.173
 2608SOL    HW210462   3.617   2.646   4.203
 2608SOL    HW310463   3.633   2.730   4.078
 2608SOL    MW410464   3.629   2.723   4.165
 2609SOL     OW10465   3.855   2.838   4.304
 2609SOL    HW210466   3.849   2.838   4.400
 2609SOL    HW310467   3.775   2.794   4.275
 2609SOL    MW410468   3.844   2.832   4.313
 2610SOL     OW10469   3.825   3.066   4.143
 2610SOL    HW210470   3.827   2.979   4.183
 2610SOL    HW310471   3.809   3.049   4.050
 2610SOL    MW410472   3.823   3.052   4.136
 2611SOL     OW10473   3.617   3.207   4.285
 2611SOL    HW210474   3.688   3.159   4.243
 2611SOL    HW310475   3.537   3.168   4.248
 2611SOL    MW410476   3.616   3.195   4.275
 2612SOL     OW10477   3.623   3.439   4.126
 2612SOL    HW210478   3.615   3.354   4.169
 2612SOL    HW310479   3.548   3.489   4.157
 2612SOL    MW410480   3.612   3.434   4.135
 2613SOL     OW10481   3.814   3.604   4.272
 2613SOL    HW210482   3.893   3.558   4.244
 2613SOL    HW310483   3.742   3.555   4.231
 2613SOL    MW410484   3.815   3.591   4.263
 2614SOL     OW10485   3.790   3.871   4.175
 2614SOL    HW210486   3.722   3.911   4.228
 2614SOL    HW310487   3.792   3.779   4.202
 2614SOL    MW410488   3.782   3.864   4.185
 2615SOL     OW10489   3.572   3.995   4.317
 2615SOL    HW210490   3.556   4.006   4.410
 2615SOL    HW310491   3.493   3.952   4.283
 2615SOL    MW410492   3.559   3.991   4.325
 2616SOL     OW10493   3.576   4.242   4.179
 2616SOL    HW210494   3.659   4.270   4.218
 2616SOL    HW310495   3.565   4.152   4.209
 2616SOL    MW410496   3.585   4.234   4.188
 2617SOL     OW10497   3.803   4.389   4.277
 2617SOL    HW210498   3.871   4.356   4.219
 2617SOL    HW310499   3.812   4.484   4.273
 2617SOL    MW410500   3.813   4.397   4.269
 2618SOL     OW10501   4.225   4.657   4.166
 2618SOL    HW210502   4.225   4.573   4.211
 2618SOL    HW310503   4.305   4.701   4.195
 2618SOL    MW410504   4.235   4.652   4.176
 2619SOL     OW10505   4.054   0.170   4.313
 2619SOL    HW210506   4.043   0.250   4.262
 2619SOL    HW310507   4.119   0.120   4.266
 2619SOL    MW410508   4.061   0.174   4.300
 2620SOL     OW10509   4.010   0.397   4.167
 2620SOL    HW210510   4.084   0.444   4.205
 2620SOL    HW310511   3.934   0.451   4.191
 2620SOL    MW410512   4.010   0.411   4.175
 2621SOL     OW10513   4.269   0.523   4.200
 2621SOL    HW210514   4.272   0.615   4.175
 2621SOL    HW310515   4.357   0.490   4.184
 2621SOL    MW410516   4.281   0.530   4.195
 2622SOL     OW10517   4.297   0.784   4.140
 2622SOL    HW210518   4.209   0.802   4.172
 2622SOL    HW310519   4.288   0.786   4.044
 2622SOL    MW410520   4.284   0.786   4.131
 2623SOL     OW10521   4.041   0.847   4.228
 2623SOL    HW210522   4.032   0.938   4.201
 2623SOL    HW310523   3.952   0.811   4.220
 2623SOL    MW410524   4.028   0.854   4.223
 2624SOL     OW10525   4.035   1.101   4.130
 2624SOL    HW210526   4.112   1.150   4.161
 2624SOL    HW310527   3.963   1.135   4.183
 2624SOL    MW410528   4.036   1.112   4.141
 2625SOL     OW10529   4.258   1.237   4.247
 2625SOL    HW210530   4.231   1.237   4.339
 2625SOL    HW310531   4.351   1.215   4.250
 2625SOL    MW410532   4.266   1.234   4.260
 2626SOL     OW10533   4.277   1.507   4.157
 2626SOL    HW210534   4.274   1.422   4.201
 2626SOL    HW310535   4.286   1.486   4.064
 2626SOL    MW410536   4.278   1.493   4.150
 2627SOL     OW10537   4.137   1.713   4.290
 2627SOL    HW210538   4.185   1.718   4.373
 2627SOL    HW310539   4.187   1.650   4.237
 2627SOL    MW410540   4.150   1.705   4.294
 2628SOL     OW10541   4.036   1.957   4.137
 2628SOL    HW210542   4.049   1.881   4.193
 2628SOL    HW310543   3.964   2.005   4.177
 2628SOL    MW410544   4.028   1.953   4.150
 2629SOL     OW10545   4.461   1.943   4.153
 2629SOL    HW210546   4.548   1.974   4.180
 2629SOL    HW310547   4.400   2.000   4.199
 2629SOL    MW410548   4.465   1.955   4.162
 2630SOL     OW10549   4.265   2.311   4.120
 2630SOL    HW210550   4.192   2.358   4.159
 2630SOL    HW310551   4.284   2.240   4.182
 2630SOL    MW410552   4.258   2.308   4.133
 2631SOL     OW10553   4.039   2.438   4.236
 2631SOL    HW210554   4.032   2.467   4.327
 2631SOL    HW310555   3.955   2.397   4.217
 2631SOL    MW410556   4.027   2.436   4.246
 2632SOL     OW10557   4.038   2.703   4.142
 2632SOL    HW210558   4.040   2.614   4.178
 2632SOL    HW310559   3.971   2.748   4.194
 2632SOL    MW410560   4.029   2.697   4.154
 2633SOL     OW10561   4.234   2.856   4.295
 2633SOL    HW210562   4.168   2.806   4.248
 2633SOL    HW310563   4.316   2.811   4.275
 2633SOL    MW410564   4.236   2.844   4.286
 2634SOL     OW10565   4.282   3.093   4.138
 2634SOL    HW210566   4.270   3.011   4.186
 2634SOL    HW310567   4.252   3.072   4.049
 2634SOL    MW410568   4.276   3.079   4.132
 2635SOL     OW10569   4.045   3.196   4.272
 2635SOL    HW210570   4.119   3.164   4.221
 2635SOL    HW310571   3.968   3.158   4.228
 2635SOL    MW410572   4.044   3.186   4.259
 2636SOL     OW10573   4.038   3.476   4.166
 2636SOL    HW210574   4.047   3.383   4.185
 2636SOL    HW310575   4.021   3.480   4.072
 2636SOL    MW410576   4.037   3.464   4.156
 2637SOL     OW10577   4.259   3.612   4.222
 2637SOL    HW210578   4.244   3.703   4.197
 2637SOL    HW310579   4.175   3.569   4.208
 2637SOL    MW410580   4.246   3.618   4.217
 2638SOL     OW10581   4.274   3.877   4.127
 2638SOL    HW210582   4.188   3.919   4.137
 2638SOL    HW310583   4.288   3.876   4.032
 2638SOL    MW410584   4.264   3.883   4.116
 2639SOL     OW10585   4.029   3.997   4.207
 2639SOL    HW210586   4.039   3.981   4.301
 2639SOL    HW310587   3.946   3.955   4.184
 2639SOL    MW410588   4.019   3.989   4.216
 2640SOL     OW10589   4.022   4.289   4.113
 2640SOL    HW210590   4.100   4.333   4.147
 2640SOL    HW310591   4.022   4.204   4.155
 2640SOL    MW410592   4.032   4.284   4.123
 2641SOL     OW10593   3.997   4.159   4.581
 2641SOL    HW210594   4.006   4.132   4.673
 2641SOL    HW310595   3.918   4.212   4.579
 2641SOL    MW410596   3.988   4.162   4.593
 2642SOL     OW10597   4.000   4.144   4.858
 2642SOL    HW210598   3.911   4.144   4.894
 2642SOL    HW310599   4.043   4.217   4.901
 2642SOL    MW410600   3.994   4.154   4.868
 2643SOL     OW10601   4.213   4.319   4.551
 2643SOL    HW210602   4.188   4.411   4.554
 2643SOL    HW310603   4.130   4.271   4.558
 2643SOL    MW410604   4.198   4.325   4.552
 2644SOL     OW10605   4.146   4.574   4.630
 2644SOL    HW210606   4.191   4.652   4.662
 2644SOL    HW310607   4.059   4.604   4.607
 2644SOL    MW410608   4.141   4.588   4.631
 2645SOL     OW10609   4.250   1.747   4.569
 2645SOL    HW210610   4.341   1.719   4.571
 2645SOL    HW310611   4.207   1.697   4.638
 2645SOL    MW410612   4.256   1.737   4.578
 2646SOL     OW10613   0.431   0.007   4.512
 2646SOL    HW210614   0.360  -0.020   4.569
 2646SOL    HW310615   0.493  -0.067   4.514
 2646SOL    MW410616   0.430  -0.006   4.520
 2647SOL     OW10617   0.285   0.759   4.665
 2647SOL    HW210618   0.288   0.678   4.615
 2647SOL    HW310619   0.312   0.734   4.753
 2647SOL    MW410620   0.289   0.745   4.670
 2648SOL     OW10621   4.245   0.767   4.623
 2648SOL    HW210622   4.268   0.685   4.578
 2648SOL    HW310623   4.327   0.817   4.626
 2648SOL    MW410624   4.259   0.763   4.617
 2649SOL     OW10625   0.723   1.356   4.501
 2649SOL    HW210626   0.766   1.438   4.474
 2649SOL    HW310627   0.634   1.382   4.525
 2649SOL    MW410628   0.717   1.370   4.500
 2650SOL     OW10629   1.149   1.989   4.429
 2650SOL    HW210630   1.243   1.971   4.429
 2650SOL    HW310631   1.135   2.040   4.509
 2650SOL    MW410632   1.159   1.993   4.439
 2651SOL     OW10633   4.211   1.237   4.520
 2651SOL    HW210634   4.188   1.145   4.529
 2651SOL    HW310635   4.306   1.240   4.536
 2651SOL    MW410636   4.221   1.225   4.523
 2652SOL     OW10637   0.014   1.658   4.525
 2652SOL    HW210638   0.027   1.645   4.431
 2652SOL    HW310639   0.062   1.738   4.545
 2652SOL    MW410640   0.022   1.667   4.515
 2653SOL     OW10641   0.481   1.653   4.239
 2653SOL    HW210642   0.395   1.620   4.211
 2653SOL    HW310643   0.543   1.590   4.203
 2653SOL    MW410644   0.478   1.640   4.231
 2654SOL     OW10645   0.240   1.846   4.554
 2654SOL    HW210646   0.226   1.940   4.542
 2654SOL    HW310647   0.263   1.837   4.646
 2654SOL    MW410648   0.241   1.857   4.564
 2655SOL     OW10649   4.274   2.301   4.596
 2655SOL    HW210650   4.357   2.319   4.552
 2655SOL    HW310651   4.217   2.374   4.574
 2655SOL    MW410652   4.277   2.313   4.588
 2656SOL     OW10653   0.711   3.047   4.653
 2656SOL    HW210654   0.731   2.969   4.601
 2656SOL    HW310655   0.750   3.029   4.739
 2656SOL    MW410656   0.719   3.034   4.657
 2657SOL     OW10657   0.461   3.242   4.550
 2657SOL    HW210658   0.501   3.166   4.593
 2657SOL    HW310659   0.518   3.315   4.575
 2657SOL    MW410660   0.474   3.241   4.559
 2658SOL     OW10661   0.050   2.352   4.474
 2658SOL    HW210662   0.038   2.384   4.384
 2658SOL    HW310663   0.100   2.421   4.517
 2658SOL    MW410664   0.055   2.365   4.468
 2659SOL     OW10665   4.065   3.436   4.589
 2659SOL    HW210666   4.049   3.343   4.602
 2659SOL    HW310667   4.076   3.472   4.677
 2659SOL    MW410668   4.064   3.429   4.602
 2660SOL     OW10669   0.536   3.517   4.513
 2660SOL    HW210670   0.565   3.604   4.539
 2660SOL    HW310671   0.441   3.525   4.504
 2660SOL    MW410672   0.528   3.529   4.515
 2661SOL     OW10673   4.246   3.800   4.612
 2661SOL    HW210674   4.178   3.821   4.549
 2661SOL    HW310675   4.296   3.729   4.572
 2661SOL    MW410676   4.244   3.793   4.598
 2662SOL     OW10677   0.023   0.101   4.544
 2662SOL    HW210678  -0.058   0.103   4.596
 2662SOL    HW310679   0.036   0.191   4.517
 2662SOL    MW410680   0.014   0.113   4.548
 2663SOL     OW10681   3.846   0.386   4.543
 2663SOL    HW210682   3.812   0.301   4.571
 2663SOL    HW310683   3.800   0.450   4.598
 2663SOL    MW410684   3.836   0.384   4.554
 2664SOL     OW10685   4.101   3.526   4.855
 2664SOL    HW210686   4.075   3.612   4.888
 2664SOL    HW310687   4.144   3.484   4.930
 2664SOL    MW410688   4.103   3.532   4.869
 2665SOL     OW10689   3.792   3.836   4.658
 2665SOL    HW210690   3.781   3.746   4.629
 2665SOL    HW310691   3.874   3.836   4.707
 2665SOL    MW410692   3.802   3.824   4.660
 2666SOL     OW10693   0.619   4.470   4.508
 2666SOL    HW210694   0.627   4.431   4.421
 2666SOL    HW310695   0.576   4.403   4.561
 2666SOL    MW410696   0.614   4.456   4.504
 2667SOL     OW10697   3.994   0.729   4.781
 2667SOL    HW210698   4.079   0.711   4.739
 2667SOL    HW310699   3.980   0.822   4.766
 2667SOL    MW410700   4.004   0.739   4.773
 2668SOL     OW10701   1.082   0.750   4.607
 2668SOL    HW210702   1.013   0.809   4.576
 2668SOL    HW310703   1.035   0.680   4.653
 2668SOL    MW410704   1.067   0.748   4.609
 2669SOL     OW10705   0.875   0.286   4.813
 2669SOL    HW210706   0.940   0.229   4.771
 2669SOL    HW310707   0.794   0.235   4.813
 2669SOL    MW410708   0.873   0.272   4.808
 2670SOL     OW10709   0.888   0.908   4.499
 2670SOL    HW210710   0.885   0.885   4.407
 2670SOL    HW310711   0.804   0.879   4.534
 2670SOL    MW410712   0.876   0.901   4.492
 2671SOL     OW10713   0.395   0.994   4.518
 2671SOL    HW210714   0.344   0.930   4.569
 2671SOL    HW310715   0.404   0.954   4.431
 2671SOL    MW410716   0.389   0.980   4.513
 2672SOL     OW10717   2.121   1.292   4.511
 2672SOL    HW210718   2.098   1.284   4.419
 2672SOL    HW310719   2.216   1.305   4.511
 2672SOL    MW410720   2.131   1.293   4.499
 2673SOL     OW10721   0.505   1.717   4.516
 2673SOL    HW210722   0.419   1.753   4.536
 2673SOL    HW310723   0.505   1.708   4.420
 2673SOL    MW410724   0.494   1.720   4.506
 2674SOL     OW10725   1.391   1.116   4.504
 2674SOL    HW210726   1.373   1.024   4.522
 2674SOL    HW310727   1.306   1.158   4.508
 2674SOL    MW410728   1.378   1.109   4.507
 2675SOL     OW10729   0.787   1.620   4.454
 2675SOL    HW210730   0.699   1.655   4.470
 2675SOL    HW310731   0.846   1.686   4.490
 2675SOL    MW410732   0.783   1.633   4.461
 2676SOL     OW10733   0.701   2.161   4.476
 2676SOL    HW210734   0.749   2.242   4.489
 2676SOL    HW310735   0.745   2.097   4.534
 2676SOL    MW410736   0.713   2.163   4.486
 2677SOL     OW10737   1.009   1.757   4.551
 2677SOL    HW210738   1.059   1.675   4.557
 2677SOL    HW310739   1.065   1.814   4.498
 2677SOL    MW410740   1.023   1.754   4.545
 2678SOL     OW10741   0.469   2.318   4.508
 2678SOL    HW210742   0.536   2.250   4.498
 2678SOL    HW310743   0.461   2.357   4.420
 2678SOL    MW410744   0.477   2.315   4.495
 2679SOL     OW10745   0.980   2.663   4.781
 2679SOL    HW210746   1.004   2.710   4.701
 2679SOL    HW310747   0.889   2.637   4.767
 2679SOL    MW410748   0.971   2.666   4.769
 2680SOL     OW10749   0.703   2.593   4.693
 2680SOL    HW210750   0.615   2.561   4.713
 2680SOL    HW310751   0.747   2.520   4.650
 2680SOL    MW410752   0.697   2.579   4.690
 2681SOL     OW10753   0.885   3.178   4.484
 2681SOL    HW210754   0.867   3.272   4.493
 2681SOL    HW310755   0.815   3.135   4.534
 2681SOL    MW410756   0.873   3.185   4.492
 2682SOL     OW10757   0.875   3.465   4.513
 2682SOL    HW210758   0.807   3.528   4.535
 2682SOL    HW310759   0.948   3.518   4.481
 2682SOL    MW410760   0.876   3.480   4.512
 2683SOL     OW10761   1.292   0.051   4.521
 2683SOL    HW210762   1.286  -0.042   4.500
 2683SOL    HW310763   1.386   0.069   4.527
 2683SOL    MW410764   1.303   0.041   4.519
 2684SOL     OW10765   0.209   2.581   4.614
 2684SOL    HW210766   0.301   2.575   4.641
 2684SOL    HW310767   0.204   2.665   4.568
 2684SOL    MW410768   0.221   2.591   4.611
 2685SOL     OW10769   0.055   3.354   4.498
 2685SOL    HW210770  -0.013   3.421   4.491
 2685SOL    HW310771   0.024   3.284   4.441
 2685SOL    MW410772   0.042   3.353   4.490
 2686SOL     OW10773   1.343   3.474   4.620
 2686SOL    HW210774   1.438   3.485   4.623
 2686SOL    HW310775   1.329   3.380   4.629
 2686SOL    MW410776   1.354   3.463   4.621
 2687SOL     OW10777   4.486   4.251   4.636
 2687SOL    HW210778   4.484   4.156   4.622
 2687SOL    HW310779   4.403   4.282   4.600
 2687SOL    MW410780   4.475   4.243   4.630
 2688SOL     OW10781   4.454   3.981   4.558
 2688SOL    HW210782   4.532   3.926   4.567
 2688SOL    HW310783   4.381   3.924   4.581
 2688SOL    MW410784   4.455   3.966   4.562
 2689SOL     OW10785   0.204   4.590   4.650
 2689SOL    HW210786   0.141   4.657   4.624
 2689SOL    HW310787   0.156   4.534   4.711
 2689SOL    MW410788   0.189   4.591   4.655
 2690SOL     OW10789   0.640   0.173   4.641
 2690SOL    HW210790   0.710   0.112   4.616
 2690SOL    HW310791   0.559   0.126   4.620
 2690SOL    MW410792   0.639   0.158   4.635
 2691SOL     OW10793   1.258   4.428   4.485
 2691SOL    HW210794   1.352   4.412   4.490
 2691SOL    HW310795   1.222   4.379   4.559
 2691SOL    MW410796   1.265   4.419   4.495
 2692SOL     OW10797   0.585   0.461   4.550
 2692SOL    HW210798   0.601   0.454   4.456
 2692SOL    HW310799   0.599   0.373   4.583
 2692SOL    MW410800   0.589   0.448   4.542
 2693SOL     OW10801   1.322   0.826   4.506
 2693SOL    HW210802   1.306   0.835   4.412
 2693SOL    HW310803   1.235   0.814   4.544
 2693SOL    MW410804   1.309   0.826   4.498
 2694SOL     OW10805   1.593   0.785   4.579
 2694SOL    HW210806   1.606   0.813   4.669
 2694SOL    HW310807   1.503   0.811   4.558
 2694SOL    MW410808   1.583   0.792   4.588
 2695SOL     OW10809   0.297   1.268   4.492
 2695SOL    HW210810   0.339   1.189   4.525
 2695SOL    HW310811   0.352   1.340   4.523
 2695SOL    MW410812   0.310   1.267   4.501
 2696SOL     OW10813   0.850   1.991   4.635
 2696SOL    HW210814   0.878   1.903   4.609
 2696SOL    HW310815   0.931   2.039   4.651
 2696SOL    MW410816   0.864   1.986   4.633
 2697SOL     OW10817   0.905   1.180   4.628
 2697SOL    HW210818   0.833   1.232   4.595
 2697SOL    HW310819   0.893   1.093   4.590
 2697SOL    MW410820   0.894   1.175   4.619
 2698SOL     OW10821   1.810   1.237   4.580
 2698SOL    HW210822   1.810   1.141   4.579
 2698SOL    HW310823   1.901   1.261   4.560
 2698SOL    MW410824   1.822   1.227   4.577
 2699SOL     OW10825   1.147   1.261   4.486
 2699SOL    HW210826   1.076   1.230   4.543
 2699SOL    HW310827   1.147   1.356   4.497
 2699SOL    MW410828   1.138   1.269   4.495
 2700SOL     OW10829   1.105   2.427   4.698
 2700SOL    HW210830   1.060   2.507   4.726
 2700SOL    HW310831   1.195   2.454   4.682
 2700SOL    MW410832   1.111   2.441   4.700
 2701SOL     OW10833   1.659   2.489   4.883
 2701SOL    HW210834   1.702   2.524   4.961
 2701SOL    HW310835   1.627   2.566   4.837
 2701SOL    MW410836   1.661   2.504   4.887
 2702SOL     OW10837   1.485   2.933   4.625
 2702SOL    HW210838   1.490   2.844   4.659
 2702SOL    HW310839   1.575   2.964   4.624
 2702SOL    MW410840   1.497   2.925   4.629
 2703SOL     OW10841   1.606   3.368   4.525
 2703SOL    HW210842   1.541   3.302   4.549
 2703SOL    HW310843   1.681   3.317   4.493
 2703SOL    MW410844   1.607   3.352   4.524
 2704SOL     OW10845   0.730   2.814   4.510
 2704SOL    HW210846   0.825   2.804   4.509
 2704SOL    HW310847   0.700   2.750   4.574
 2704SOL    MW410848   0.739   2.804   4.518
 2705SOL     OW10849   0.431   4.248   4.587
 2705SOL    HW210850   0.349   4.255   4.538
 2705SOL    HW310851   0.406   4.255   4.679
 2705SOL    MW410852   0.417   4.250   4.592
 2706SOL     OW10853   1.015   2.813   4.545
 2706SOL    HW210854   1.075   2.795   4.473
 2706SOL    HW310855   1.044   2.898   4.579
 2706SOL    MW410856   1.027   2.822   4.540
 2707SOL     OW10857   0.909   2.960   4.854
 2707SOL    HW210858   0.977   3.003   4.803
 2707SOL    HW310859   0.923   2.866   4.838
 2707SOL    MW410860   0.920   2.953   4.845
 2708SOL     OW10861   1.595   3.629   4.469
 2708SOL    HW210862   1.657   3.685   4.515
 2708SOL    HW310863   1.628   3.540   4.482
 2708SOL    MW410864   1.608   3.625   4.477
 2709SOL     OW10865   0.428   3.960   4.533
 2709SOL    HW210866   0.428   4.052   4.558
 2709SOL    HW310867   0.415   3.961   4.438
 2709SOL    MW410868   0.426   3.972   4.523
 2710SOL     OW10869   0.195   3.826   4.506
 2710SOL    HW210870   0.208   3.740   4.468
 2710SOL    HW310871   0.284   3.861   4.516
 2710SOL    MW410872   0.209   3.819   4.503
 2711SOL     OW10873   0.845   4.655   4.539
 2711SOL    HW210874   0.851   4.698   4.454
 2711SOL    HW310875   0.789   4.579   4.524
 2711SOL    MW410876   0.838   4.651   4.526
 2712SOL     OW10877   0.195   4.369   4.477
 2712SOL    HW210878   0.199   4.449   4.530
 2712SOL    HW310879   0.127   4.317   4.517
 2712SOL    MW410880   0.187   4.373   4.489
 2713SOL     OW10881   2.341   4.026   4.526
 2713SOL    HW210882   2.300   4.027   4.439
 2713SOL    HW310883   2.332   3.935   4.555
 2713SOL    MW410884   2.335   4.014   4.518
 2714SOL     OW10885   1.761   4.468   4.554
 2714SOL    HW210886   1.830   4.422   4.507
 2714SOL    HW310887   1.681   4.419   4.534
 2714SOL    MW410888   1.759   4.456   4.545
 2715SOL     OW10889   1.518   4.346   4.465
 2715SOL    HW210890   1.509   4.253   4.481
 2715SOL    HW310891   1.525   4.353   4.369
 2715SOL    MW410892   1.518   4.335   4.454
 2716SOL     OW10893   0.849   0.532   4.667
 2716SOL    HW210894   0.774   0.509   4.611
 2716SOL    HW310895   0.859   0.456   4.725
 2716SOL    MW410896   0.840   0.519   4.667
 2717SOL     OW10897   1.583   0.018   4.496
 2717SOL    HW210898   1.659  -0.038   4.514
 2717SOL    HW310899   1.614   0.107   4.511
 2717SOL    MW410900   1.597   0.022   4.501
 2718SOL     OW10901   1.058   0.395   4.505
 2718SOL    HW210902   1.000   0.453   4.554
 2718SOL    HW310903   1.065   0.316   4.558
 2718SOL    MW410904   1.051   0.392   4.518
 2719SOL     OW10905   1.573   1.712   4.581
 2719SOL    HW210906   1.531   1.631   4.611
 2719SOL    HW310907   1.646   1.683   4.527
 2719SOL    MW410908   1.577   1.698   4.578
 2720SOL     OW10909   0.624   0.868   4.590
 2720SOL    HW210910   0.543   0.917   4.576
 2720SOL    HW310911   0.595   0.779   4.610
 2720SOL    MW410912   0.610   0.863   4.591
 2721SOL     OW10913   1.598   0.520   4.478
 2721SOL    HW210914   1.624   0.606   4.510
 2721SOL    HW310915   1.506   0.512   4.504
 2721SOL    MW410916   1.589   0.531   4.486
 2722SOL     OW10917   1.542   1.334   4.495
 2722SOL    HW210918   1.490   1.255   4.509
 2722SOL    HW310919   1.632   1.307   4.510
 2722SOL    MW410920   1.547   1.320   4.499
 2723SOL     OW10921   1.188   1.545   4.499
 2723SOL    HW210922   1.262   1.544   4.559
 2723SOL    HW310923   1.226   1.568   4.414
 2723SOL    MW410924   1.203   1.548   4.496
 2724SOL     OW10925   1.557   2.682   4.719
 2724SOL    HW210926   1.489   2.620   4.696
 2724SOL    HW310927   1.627   2.666   4.656
 2724SOL    MW410928   1.557   2.672   4.708
 2725SOL     OW10929   2.331   2.482   4.321
 2725SOL    HW210930   2.280   2.424   4.264
 2725SOL    HW310931   2.279   2.563   4.325
 2725SOL    MW410932   2.318   2.485   4.314
 2726SOL     OW10933   0.872   2.414   4.543
 2726SOL    HW210934   0.959   2.411   4.583
 2726SOL    HW310935   0.888   2.441   4.452
 2726SOL    MW410936   0.886   2.417   4.536
 2727SOL     OW10937   1.396   3.830   4.482
 2727SOL    HW210938   1.308   3.805   4.512
 2727SOL    HW310939   1.444   3.747   4.478
 2727SOL    MW410940   1.391   3.815   4.486
 2728SOL     OW10941   1.315   2.442   4.324
 2728SOL    HW210942   1.335   2.532   4.298
 2728SOL    HW310943   1.388   2.390   4.290
 2728SOL    MW410944   1.327   2.447   4.316
 2729SOL     OW10945   1.369   2.478   4.606
 2729SOL    HW210946   1.354   2.456   4.514
 2729SOL    HW310947   1.434   2.414   4.635
 2729SOL    MW410948   1.375   2.467   4.597
 2730SOL     OW10949   1.336   3.166   4.545
 2730SOL    HW210950   1.387   3.090   4.573
 2730SOL    HW310951   1.353   3.173   4.451
 2730SOL    MW410952   1.345   3.157   4.536
 2731SOL     OW10953   1.090   3.085   4.646
 2731SOL    HW210954   1.176   3.118   4.619
 2731SOL    HW310955   1.027   3.132   4.592
 2731SOL    MW410956   1.093   3.095   4.636
 2732SOL     OW10957   0.655   3.767   4.532
 2732SOL    HW210958   0.579   3.824   4.542
 2732SOL    HW310959   0.730   3.827   4.530
 2732SOL    MW410960   0.655   3.782   4.533
 2733SOL     OW10961   2.285   3.331   4.460
 2733SOL    HW210962   2.191   3.344   4.475
 2733SOL    HW310963   2.313   3.273   4.531
 2733SOL    MW410964   2.276   3.325   4.472
 2734SOL     OW10965   2.001   3.329   4.515
 2734SOL    HW210966   2.011   3.252   4.570
 2734SOL    HW310967   1.936   3.304   4.450
 2734SOL    MW410968   1.994   3.316   4.514
 2735SOL     OW10969   2.239   3.235   4.197
 2735SOL    HW210970   2.161   3.182   4.219
 2735SOL    HW310971   2.281   3.250   4.281
 2735SOL    MW410972   2.234   3.230   4.211
 2736SOL     OW10973   0.909   3.880   4.490
 2736SOL    HW210974   0.898   3.892   4.396
 2736SOL    HW310975   0.976   3.812   4.498
 2736SOL    MW410976   0.916   3.872   4.479
 2737SOL     OW10977   1.809   4.045   4.484
 2737SOL    HW210978   1.789   4.031   4.392
 2737SOL    HW310979   1.834   3.959   4.517
 2737SOL    MW410980   1.809   4.032   4.477
 2738SOL     OW10981   2.010   0.338   4.480
 2738SOL    HW210982   2.072   0.264   4.485
 2738SOL    HW310983   2.036   0.395   4.552
 2738SOL    MW410984   2.022   0.335   4.490
 2739SOL     OW10985   1.066   0.145   4.641
 2739SOL    HW210986   1.006   0.076   4.614
 2739SOL    HW310987   1.152   0.113   4.617
 2739SOL    MW410988   1.069   0.132   4.635
 2740SOL     OW10989   1.744   0.254   4.525
 2740SOL    HW210990   1.834   0.285   4.522
 2740SOL    HW310991   1.691   0.333   4.515
 2740SOL    MW410992   1.749   0.268   4.524
 2741SOL     OW10993   2.492   0.015   4.624
 2741SOL    HW210994   2.479  -0.074   4.592
 2741SOL    HW310995   2.407   0.058   4.610
 2741SOL    MW410996   2.479   0.009   4.618
 2742SOL     OW10997   1.791   0.954   4.500
 2742SOL    HW210998   1.728   0.890   4.532
 2742SOL    HW310999   1.796   0.938   4.406
 2742SOL    MW411000   1.783   0.944   4.492
 2743SOL     OW11001   1.316   0.511   4.539
 2743SOL    HW211002   1.292   0.604   4.533
 2743SOL    HW311003   1.235   0.464   4.520
 2743SOL    MW411004   1.302   0.517   4.535
 2744SOL     OW11005   1.823   1.669   4.452
 2744SOL    HW211006   1.912   1.637   4.469
 2744SOL    HW311007   1.814   1.666   4.357
 2744SOL    MW411008   1.834   1.665   4.442
 2745SOL     OW11009   0.601   1.890   4.743
 2745SOL    HW211010   0.601   1.839   4.662
 2745SOL    HW311011   0.676   1.949   4.735
 2745SOL    MW411012   0.611   1.891   4.731
 2746SOL     OW11013   1.422   1.498   4.664
 2746SOL    HW211014   1.487   1.449   4.613
 2746SOL    HW311015   1.404   1.443   4.740
 2746SOL    MW411016   1.429   1.484   4.667
 2747SOL     OW11017   1.103   2.140   4.660
 2747SOL    HW211018   1.188   2.116   4.696
 2747SOL    HW311019   1.094   2.233   4.682
 2747SOL    MW411020   1.113   2.149   4.668
 2748SOL     OW11021   1.422   1.926   4.468
 2748SOL    HW211022   1.477   1.936   4.390
 2748SOL    HW311023   1.462   1.853   4.516
 2748SOL    MW411024   1.435   1.918   4.464
 2749SOL     OW11025   2.164   2.334   4.138
 2749SOL    HW211026   2.116   2.310   4.059
 2749SOL    HW311027   2.112   2.298   4.210
 2749SOL    MW411028   2.151   2.326   4.137
 2750SOL     OW11029   1.393   2.090   4.692
 2750SOL    HW211030   1.413   2.030   4.620
 2750SOL    HW311031   1.446   2.167   4.674
 2750SOL    MW411032   1.403   2.092   4.680
 2751SOL     OW11033   2.430   3.005   4.458
 2751SOL    HW211034   2.521   2.976   4.467
 2751SOL    HW311035   2.378   2.934   4.495
 2751SOL    MW411036   2.435   2.992   4.464
 2752SOL     OW11037   1.750   3.009   4.567
 2752SOL    HW211038   1.777   2.965   4.487
 2752SOL    HW311039   1.831   3.021   4.616
 2752SOL    MW411040   1.764   3.005   4.563
 2753SOL     OW11041   1.827   3.754   4.572
 2753SOL    HW211042   1.802   3.740   4.664
 2753SOL    HW311043   1.911   3.709   4.563
 2753SOL    MW411044   1.835   3.746   4.583
 2754SOL     OW11045   2.701   2.959   4.577
 2754SOL    HW211046   2.794   2.944   4.556
 2754SOL    HW311047   2.668   2.874   4.604
 2754SOL    MW411048   2.709   2.946   4.577
 2755SOL     OW11049   2.410   3.180   4.671
 2755SOL    HW211050   2.420   3.111   4.605
 2755SOL    HW311051   2.500   3.202   4.696
 2755SOL    MW411052   2.423   3.174   4.665
 2756SOL     OW11053   2.627   4.032   4.461
 2756SOL    HW211054   2.615   4.026   4.366
 2756SOL    HW311055   2.539   4.024   4.497
 2756SOL    MW411056   2.614   4.030   4.453
 2757SOL     OW11057   2.324   3.751   4.606
 2757SOL    HW211058   2.384   3.704   4.548
 2757SOL    HW311059   2.245   3.696   4.607
 2757SOL    MW411060   2.322   3.737   4.598
 2758SOL     OW11061   2.485   3.541   4.462
 2758SOL    HW211062   2.417   3.474   4.452
 2758SOL    HW311063   2.515   3.559   4.373
 2758SOL    MW411064   2.480   3.534   4.449
 2759SOL     OW11065   2.067   3.613   4.527
 2759SOL    HW211066   2.062   3.519   4.546
 2759SOL    HW311067   2.049   3.619   4.433
 2759SOL    MW411068   2.064   3.601   4.517
 2760SOL     OW11069   1.953   4.274   4.456
 2760SOL    HW211070   1.903   4.193   4.467
 2760SOL    HW311071   2.029   4.263   4.514
 2760SOL    MW411072   1.956   4.262   4.465
 2761SOL     OW11073   1.115   3.660   4.483
 2761SOL    HW211074   1.164   3.598   4.537
 2761SOL    HW311075   1.140   3.639   4.393
 2761SOL    MW411076   1.125   3.649   4.478
 2762SOL     OW11077   2.288   0.163   4.478
 2762SOL    HW211078   2.267   0.141   4.387
 2762SOL    HW311079   2.326   0.251   4.474
 2762SOL    MW411080   2.290   0.171   4.466
 2763SOL     OW11081   2.146   0.534   4.610
 2763SOL    HW211082   2.152   0.551   4.704
 2763SOL    HW311083   2.100   0.610   4.574
 2763SOL    MW411084   2.140   0.546   4.618
 2764SOL     OW11085   2.076   1.582   4.454
 2764SOL    HW211086   2.093   1.494   4.487
 2764SOL    HW311087   2.137   1.592   4.381
 2764SOL    MW411088   2.087   1.572   4.449
 2765SOL     OW11089   2.674   0.147   4.465
 2765SOL    HW211090   2.602   0.103   4.510
 2765SOL    HW311091   2.652   0.139   4.372
 2765SOL    MW411092   2.661   0.140   4.459
 2766SOL     OW11093   2.716   0.837   4.545
 2766SOL    HW211094   2.705   0.744   4.527
 2766SOL    HW311095   2.721   0.878   4.458
 2766SOL    MW411096   2.715   0.830   4.531
 2767SOL     OW11097   3.225   0.922   4.741
 2767SOL    HW211098   3.288   0.970   4.687
 2767SOL    HW311099   3.271   0.843   4.768
 2767SOL    MW411100   3.239   0.918   4.738
 2768SOL     OW11101   2.395   1.348   4.477
 2768SOL    HW211102   2.451   1.287   4.523
 2768SOL    HW311103   2.439   1.432   4.484
 2768SOL    MW411104   2.408   1.351   4.484
 2769SOL     OW11105   2.670   1.273   4.612
 2769SOL    HW211106   2.665   1.360   4.650
 2769SOL    HW311107   2.763   1.258   4.596
 2769SOL    MW411108   2.681   1.282   4.615
 2770SOL     OW11109   2.544   1.573   4.526
 2770SOL    HW211110   2.624   1.626   4.517
 2770SOL    HW311111   2.473   1.636   4.521
 2770SOL    MW411112   2.545   1.588   4.524
 2771SOL     OW11113   2.320   1.743   4.497
 2771SOL    HW211114   2.239   1.697   4.517
 2771SOL    HW311115   2.299   1.796   4.420
 2771SOL    MW411116   2.307   1.744   4.489
 2772SOL     OW11117   2.240   2.181   4.616
 2772SOL    HW211118   2.304   2.251   4.604
 2772SOL    HW311119   2.189   2.180   4.535
 2772SOL    MW411120   2.242   2.190   4.604
 2773SOL     OW11121   2.442   1.986   4.557
 2773SOL    HW211122   2.402   1.899   4.557
 2773SOL    HW311123   2.375   2.043   4.596
 2773SOL    MW411124   2.428   1.982   4.562
 2774SOL     OW11125   2.664   2.336   4.442
 2774SOL    HW211126   2.588   2.368   4.489
 2774SOL    HW311127   2.633   2.257   4.397
 2774SOL    MW411128   2.650   2.329   4.442
 2775SOL     OW11129   1.705   2.609   4.493
 2775SOL    HW211130   1.757   2.674   4.444
 2775SOL    HW311131   1.767   2.568   4.552
 2775SOL    MW411132   1.720   2.612   4.494
 2776SOL     OW11133   2.253   2.972   4.770
 2776SOL    HW211134   2.319   3.040   4.757
 2776SOL    HW311135   2.246   2.928   4.685
 2776SOL    MW411136   2.260   2.975   4.757
 2777SOL     OW11137   2.694   3.363   4.471
 2777SOL    HW211138   2.684   3.321   4.556
 2777SOL    HW311139   2.625   3.429   4.468
 2777SOL    MW411140   2.684   3.366   4.482
 2778SOL     OW11141   2.697   3.196   4.718
 2778SOL    HW211142   2.726   3.193   4.809
 2778SOL    HW311143   2.705   3.106   4.687
 2778SOL    MW411144   2.702   3.184   4.726
 2779SOL     OW11145   1.519   4.088   4.528
 2779SOL    HW211146   1.484   3.999   4.530
 2779SOL    HW311147   1.614   4.076   4.537
 2779SOL    MW411148   1.527   4.075   4.529
 2780SOL     OW11149   2.674   4.299   4.508
 2780SOL    HW211150   2.585   4.334   4.515
 2780SOL    HW311151   2.662   4.204   4.509
 2780SOL    MW411152   2.661   4.291   4.509
 2781SOL     OW11153   2.015   3.060   4.672
 2781SOL    HW211154   2.030   3.018   4.587
 2781SOL    HW311155   2.089   3.032   4.725
 2781SOL    MW411156   2.027   3.051   4.668
 2782SOL     OW11157   3.336   3.852   4.613
 2782SOL    HW211158   3.253   3.892   4.584
 2782SOL    HW311159   3.342   3.771   4.563
 2782SOL    MW411160   3.326   3.847   4.602
 2783SOL     OW11161   3.098   3.982   4.479
 2783SOL    HW211162   3.014   3.936   4.494
 2783SOL    HW311163   3.091   4.062   4.532
 2783SOL    MW411164   3.086   3.986   4.488
 2784SOL     OW11165   2.202   4.256   4.606
 2784SOL    HW211166   2.171   4.271   4.695
 2784SOL    HW311167   2.237   4.167   4.607
 2784SOL    MW411168   2.202   4.246   4.618
 2785SOL     OW11169   2.441   4.449   4.512
 2785SOL    HW211170   2.357   4.411   4.539
 2785SOL    HW311171   2.446   4.430   4.419
 2785SOL    MW411172   2.430   4.441   4.504
 2786SOL     OW11173   2.782   0.548   4.392
 2786SOL    HW211174   2.759   0.524   4.302
 2786SOL    HW311175   2.734   0.486   4.446
 2786SOL    MW411176   2.772   0.537   4.387
 2787SOL     OW11177   2.654   0.384   4.608
 2787SOL    HW211178   2.664   0.294   4.578
 2787SOL    HW311179   2.694   0.384   4.695
 2787SOL    MW411180   2.661   0.372   4.616
 2788SOL     OW11181   2.716   0.052   4.825
 2788SOL    HW211182   2.777   0.045   4.752
 2788SOL    HW311183   2.630   0.038   4.786
 2788SOL    MW411184   2.713   0.049   4.810
 2789SOL     OW11185   2.988   0.963   4.591
 2789SOL    HW211186   3.041   0.928   4.663
 2789SOL    HW311187   2.912   0.906   4.587
 2789SOL    MW411188   2.985   0.951   4.600
 2790SOL     OW11189   3.609   0.323   4.866
 2790SOL    HW211190   3.517   0.342   4.845
 2790SOL    HW311191   3.650   0.409   4.871
 2790SOL    MW411192   3.602   0.337   4.864
 2791SOL     OW11193   2.031   0.790   4.535
 2791SOL    HW211194   2.108   0.847   4.524
 2791SOL    HW311195   1.956   0.850   4.533
 2791SOL    MW411196   2.031   0.805   4.533
 2792SOL     OW11197   2.515   1.027   4.585
 2792SOL    HW211198   2.576   1.100   4.597
 2792SOL    HW311199   2.570   0.951   4.572
 2792SOL    MW411200   2.530   1.027   4.585
 2793SOL     OW11201   3.176   1.366   4.543
 2793SOL    HW211202   3.086   1.338   4.529
 2793SOL    HW311203   3.219   1.357   4.458
 2793SOL    MW411204   3.170   1.361   4.530
 2794SOL     OW11205   3.083   1.614   4.457
 2794SOL    HW211206   3.001   1.613   4.507
 2794SOL    HW311207   3.125   1.531   4.478
 2794SOL    MW411208   3.078   1.603   4.467
 2795SOL     OW11209   2.803   1.684   4.480
 2795SOL    HW211210   2.791   1.768   4.525
 2795SOL    HW311211   2.764   1.697   4.394
 2795SOL    MW411212   2.796   1.697   4.475
 2796SOL     OW11213   2.755   1.941   4.559
 2796SOL    HW211214   2.812   2.017   4.552
 2796SOL    HW311215   2.666   1.977   4.552
 2796SOL    MW411216   2.751   1.955   4.557
 2797SOL     OW11217   2.894   2.189   4.541
 2797SOL    HW211218   2.829   2.258   4.532
 2797SOL    HW311219   2.914   2.163   4.451
 2797SOL    MW411220   2.888   2.195   4.528
 2798SOL     OW11221   3.139   2.227   4.654
 2798SOL    HW211222   3.136   2.229   4.750
 2798SOL    HW311223   3.048   2.211   4.628
 2798SOL    MW411224   3.126   2.225   4.663
 2799SOL     OW11225   2.374   2.669   4.749
 2799SOL    HW211226   2.358   2.724   4.825
 2799SOL    HW311227   2.328   2.713   4.677
 2799SOL    MW411228   2.366   2.682   4.750
 2800SOL     OW11229   3.284   3.230   4.704
 2800SOL    HW211230   3.349   3.288   4.744
 2800SOL    HW311231   3.323   3.204   4.621
 2800SOL    MW411232   3.298   3.234   4.698
 2801SOL     OW11233   2.613   2.714   4.629
 2801SOL    HW211234   2.539   2.713   4.690
 2801SOL    HW311235   2.573   2.701   4.543
 2801SOL    MW411236   2.598   2.712   4.626
 2802SOL     OW11237   2.867   3.587   4.522
 2802SOL    HW211238   2.939   3.550   4.572
 2802SOL    HW311239   2.809   3.513   4.505
 2802SOL    MW411240   2.869   3.572   4.527
 2803SOL     OW11241   2.950   2.913   4.481
 2803SOL    HW211242   3.014   2.914   4.552
 2803SOL    HW311243   2.924   2.821   4.473
 2803SOL    MW411244   2.955   2.901   4.490
 2804SOL     OW11245   3.086   0.174   4.519
 2804SOL    HW211246   3.017   0.122   4.560
 2804SOL    HW311247   3.069   0.264   4.547
 2804SOL    MW411248   3.075   0.179   4.528
 2805SOL     OW11249   4.038   3.849   4.809
 2805SOL    HW211250   4.046   3.941   4.836
 2805SOL    HW311251   4.115   3.833   4.755
 2805SOL    MW411252   4.049   3.859   4.806
 2806SOL     OW11253   3.818   3.570   4.550
 2806SOL    HW211254   3.899   3.524   4.574
 2806SOL    HW311255   3.821   3.575   4.454
 2806SOL    MW411256   3.829   3.565   4.540
 2807SOL     OW11257   2.847   3.867   4.487
 2807SOL    HW211258   2.762   3.911   4.475
 2807SOL    HW311259   2.824   3.779   4.515
 2807SOL    MW411260   2.833   3.861   4.489
 2808SOL     OW11261   2.939   4.417   4.485
 2808SOL    HW211262   2.858   4.368   4.500
 2808SOL    HW311263   3.009   4.357   4.511
 2808SOL    MW411264   2.938   4.403   4.490
 2809SOL     OW11265   3.045   0.512   4.415
 2809SOL    HW211266   3.054   0.479   4.505
 2809SOL    HW311267   2.953   0.534   4.407
 2809SOL    MW411268   3.034   0.511   4.426
 2810SOL     OW11269   3.398   0.674   4.670
 2810SOL    HW211270   3.473   0.726   4.641
 2810SOL    HW311271   3.326   0.702   4.612
 2810SOL    MW411272   3.398   0.685   4.658
 2811SOL     OW11273   2.398   0.435   4.484
 2811SOL    HW211274   2.467   0.437   4.549
 2811SOL    HW311275   2.319   0.465   4.530
 2811SOL    MW411276   2.396   0.439   4.498
 2812SOL     OW11277   2.226   1.004   4.494
 2812SOL    HW211278   2.312   0.998   4.535
 2812SOL    HW311279   2.190   1.087   4.527
 2812SOL    MW411280   2.233   1.014   4.504
 2813SOL     OW11281   2.887   0.007   4.585
 2813SOL    HW211282   2.906  -0.082   4.554
 2813SOL    HW311283   2.816   0.037   4.528
 2813SOL    MW411284   2.880  -0.001   4.573
 2814SOL     OW11285   3.054   0.398   4.678
 2814SOL    HW211286   3.133   0.425   4.724
 2814SOL    HW311287   2.987   0.391   4.747
 2814SOL    MW411288   3.055   0.401   4.693
 2815SOL     OW11289   3.378   1.259   4.717
 2815SOL    HW211290   3.292   1.276   4.678
 2815SOL    HW311291   3.360   1.245   4.810
 2815SOL    MW411292   3.364   1.259   4.724
 2816SOL     OW11293   2.926   1.228   4.546
 2816SOL    HW211294   2.948   1.139   4.573
 2816SOL    HW311295   2.915   1.222   4.451
 2816SOL    MW411296   2.927   1.215   4.537
 2817SOL     OW11297   4.116   0.977   4.487
 2817SOL    HW211298   4.076   0.938   4.410
 2817SOL    HW311299   4.165   0.906   4.528
 2817SOL    MW411300   4.117   0.963   4.483
 2818SOL     OW11301   3.549   1.356   4.523
 2818SOL    HW211302   3.556   1.449   4.544
 2818SOL    HW311303   3.486   1.321   4.586
 2818SOL    MW411304   3.541   1.364   4.534
 2819SOL     OW11305   3.322   1.781   4.573
 2819SOL    HW211306   3.322   1.876   4.580
 2819SOL    HW311307   3.230   1.757   4.572
 2819SOL    MW411308   3.310   1.790   4.574
 2820SOL     OW11309   3.387   2.051   4.571
 2820SOL    HW211310   3.326   2.116   4.606
 2820SOL    HW311311   3.392   2.070   4.478
 2820SOL    MW411312   3.380   2.062   4.563
 2821SOL     OW11313   3.574   1.632   4.552
 2821SOL    HW211314   3.509   1.684   4.599
 2821SOL    HW311315   3.559   1.651   4.460
 2821SOL    MW411316   3.564   1.641   4.546
 2822SOL     OW11317   2.858   2.623   4.506
 2822SOL    HW211318   2.788   2.624   4.572
 2822SOL    HW311319   2.934   2.587   4.552
 2822SOL    MW411320   2.859   2.618   4.521
 2823SOL     OW11321   3.377   2.635   4.629
 2823SOL    HW211322   3.285   2.609   4.622
 2823SOL    HW311323   3.378   2.726   4.600
 2823SOL    MW411324   3.365   2.644   4.624
 2824SOL     OW11325   3.131   2.494   4.573
 2824SOL    HW211326   3.145   2.513   4.480
 2824SOL    HW311327   3.149   2.400   4.581
 2824SOL    MW411328   3.135   2.484   4.562
 2825SOL     OW11329   3.758   3.026   4.636
 2825SOL    HW211330   3.842   3.067   4.616
 2825SOL    HW311331   3.778   2.933   4.644
 2825SOL    MW411332   3.772   3.019   4.634
 2826SOL     OW11333   3.155   2.991   4.670
 2826SOL    HW211334   3.189   3.075   4.701
 2826SOL    HW311335   3.227   2.952   4.621
 2826SOL    MW411336   3.169   2.997   4.667
 2827SOL     OW11337   3.523   3.144   4.552
 2827SOL    HW211338   3.603   3.105   4.586
 2827SOL    HW311339   3.545   3.171   4.463
 2827SOL    MW411340   3.536   3.142   4.545
 2828SOL     OW11341   3.861   2.767   4.595
 2828SOL    HW211342   3.954   2.776   4.615
 2828SOL    HW311343   3.838   2.680   4.629
 2828SOL    MW411344   3.870   2.756   4.602
 2829SOL     OW11345   3.560   3.464   4.591
 2829SOL    HW211346   3.649   3.494   4.609
 2829SOL    HW311347   3.568   3.369   4.585
 2829SOL    MW411348   3.573   3.456   4.592
 2830SOL     OW11349   3.610   4.253   4.729
 2830SOL    HW211350   3.657   4.305   4.665
 2830SOL    HW311351   3.609   4.165   4.691
 2830SOL    MW411352   3.616   4.248   4.716
 2831SOL     OW11353   3.135   4.254   4.601
 2831SOL    HW211354   3.111   4.303   4.679
 2831SOL    HW311355   3.223   4.285   4.580
 2831SOL    MW411356   3.144   4.265   4.609
 2832SOL     OW11357   3.359   0.217   4.589
 2832SOL    HW211358   3.271   0.182   4.576
 2832SOL    HW311359   3.378   0.267   4.510
 2832SOL    MW411360   3.350   0.219   4.577
 2833SOL     OW11361   3.387   4.371   4.565
 2833SOL    HW211362   3.448   4.323   4.622
 2833SOL    HW311363   3.418   4.461   4.568
 2833SOL    MW411364   3.399   4.376   4.573
 2834SOL     OW11365   3.568   4.007   4.601
 2834SOL    HW211366   3.644   3.952   4.617
 2834SOL    HW311367   3.493   3.952   4.627
 2834SOL    MW411368   3.568   3.992   4.606
 2835SOL     OW11369   3.701   0.176   4.636
 2835SOL    HW211370   3.673   0.203   4.724
 2835SOL    HW311371   3.658   0.092   4.623
 2835SOL    MW411372   3.692   0.169   4.646
 2836SOL     OW11373   3.418   1.012   4.555
 2836SOL    HW211374   3.502   0.968   4.571
 2836SOL    HW311375   3.428   1.098   4.594
 2836SOL    MW411376   3.430   1.017   4.562
 2837SOL     OW11377   2.810   0.319   4.832
 2837SOL    HW211378   2.815   0.339   4.926
 2837SOL    HW311379   2.782   0.228   4.829
 2837SOL    MW411380   2.807   0.310   4.844
 2838SOL     OW11381   3.978   1.598   4.774
 2838SOL    HW211382   3.981   1.533   4.704
 2838SOL    HW311383   3.956   1.548   4.852
 2838SOL    MW411384   3.976   1.583   4.775
 2839SOL     OW11385   3.886   0.955   4.662
 2839SOL    HW211386   3.843   1.040   4.669
 2839SOL    HW311387   3.960   0.970   4.602
 2839SOL    MW411388   3.890   0.968   4.655
 2840SOL     OW11389   0.023   0.886   4.605
 2840SOL    HW211390   0.035   0.877   4.510
 2840SOL    HW311391   0.103   0.850   4.642
 2840SOL    MW411392   0.035   0.880   4.597
 2841SOL     OW11393   4.315   0.534   4.474
 2841SOL    HW211394   4.294   0.537   4.380
 2841SOL    HW311395   4.283   0.449   4.503
 2841SOL    MW411396   4.308   0.524   4.465
 2842SOL     OW11397   3.580   1.692   4.256
 2842SOL    HW211398   3.634   1.615   4.241
 2842SOL    HW311399   3.491   1.662   4.239
 2842SOL    MW411400   3.575   1.678   4.252
 2843SOL     OW11401   3.900   1.601   4.409
 2843SOL    HW211402   3.983   1.623   4.367
 2843SOL    HW311403   3.877   1.679   4.459
 2843SOL    MW411404   3.908   1.614   4.410
 2844SOL     OW11405   3.628   2.215   4.637
 2844SOL    HW211406   3.556   2.156   4.617
 2844SOL    HW311407   3.707   2.162   4.625
 2844SOL    MW411408   3.629   2.200   4.633
 2845SOL     OW11409   3.817   1.786   4.624
 2845SOL    HW211410   3.735   1.738   4.612
 2845SOL    HW311411   3.857   1.744   4.701
 2845SOL    MW411412   3.811   1.774   4.633
 2846SOL     OW11413   0.333   1.543   4.895
 2846SOL    HW211414   0.324   1.474   4.961
 2846SOL    HW311415   0.252   1.537   4.843
 2846SOL    MW411416   0.321   1.533   4.897
 2847SOL     OW11417   3.861   2.048   4.550
 2847SOL    HW211418   3.957   2.049   4.554
 2847SOL    HW311419   3.836   1.963   4.586
 2847SOL    MW411420   3.870   2.037   4.556
 2848SOL     OW11421   3.827   2.492   4.675
 2848SOL    HW211422   3.840   2.427   4.743
 2848SOL    HW311423   3.739   2.476   4.641
 2848SOL    MW411424   3.817   2.482   4.680
 2849SOL     OW11425   4.068   2.491   4.507
 2849SOL    HW211426   3.995   2.471   4.565
 2849SOL    HW311427   4.091   2.581   4.527
 2849SOL    MW411428   4.062   2.500   4.517
 2850SOL     OW11429   4.424   2.708   4.630
 2850SOL    HW211430   4.495   2.769   4.608
 2850SOL    HW311431   4.469   2.625   4.646
 2850SOL    MW411432   4.440   2.705   4.629
 2851SOL     OW11433   3.134   3.394   4.513
 2851SOL    HW211434   3.173   3.333   4.576
 2851SOL    HW311435   3.153   3.356   4.427
 2851SOL    MW411436   3.142   3.381   4.510
 2852SOL     OW11437   4.000   3.137   4.551
 2852SOL    HW211438   4.086   3.097   4.564
 2852SOL    HW311439   4.003   3.170   4.461
 2852SOL    MW411440   4.012   3.136   4.541
 2853SOL     OW11441   3.351   3.610   4.491
 2853SOL    HW211442   3.277   3.549   4.498
 2853SOL    HW311443   3.423   3.565   4.536
 2853SOL    MW411444   3.351   3.596   4.498
 2854SOL     OW11445   4.334   3.565   4.491
 2854SOL    HW211446   4.324   3.588   4.399
 2854SOL    HW311447   4.250   3.525   4.516
 2854SOL    MW411448   4.322   3.563   4.482
 2855SOL     OW11449   0.190   2.855   4.544
 2855SOL    HW211450   0.202   2.860   4.449
 2855SOL    HW311451   0.180   2.946   4.572
 2855SOL    MW411452   0.190   2.868   4.535
 2856SOL     OW11453   4.017   3.906   4.456
 2856SOL    HW211454   4.014   3.987   4.507
 2856SOL    HW311455   3.932   3.865   4.471
 2856SOL    MW411456   4.006   3.911   4.464
 2857SOL     OW11457   3.787   4.394   4.554
 2857SOL    HW211458   3.789   4.387   4.458
 2857SOL    HW311459   3.830   4.478   4.572
 2857SOL    MW411460   3.793   4.404   4.543
 2858SOL     OW11461   3.530   4.627   4.570
 2858SOL    HW211462   3.549   4.659   4.482
 2858SOL    HW311463   3.477   4.696   4.611
 2858SOL    MW411464   3.526   4.640   4.564
 2859SOL     OW11465   3.639   0.815   4.624
 2859SOL    HW211466   3.722   0.857   4.647
 2859SOL    HW311467   3.648   0.793   4.532
 2859SOL    MW411468   3.651   0.818   4.615
 2860SOL     OW11469   3.768   0.591   4.722
 2860SOL    HW211470   3.847   0.639   4.744
 2860SOL    HW311471   3.702   0.659   4.708
 2860SOL    MW411472   3.770   0.606   4.723
 2861SOL     OW11473   0.065   0.362   4.489
 2861SOL    HW211474   0.144   0.409   4.517
 2861SOL    HW311475   0.003   0.431   4.467
 2861SOL    MW411476   0.068   0.377   4.490
 2862SOL     OW11477   0.309   0.515   4.516
 2862SOL    HW211478   0.402   0.494   4.524
 2862SOL    HW311479   0.291   0.509   4.422
 2862SOL    MW411480   0.319   0.511   4.504
 2863SOL     OW11481   4.124   0.302   4.556
 2863SOL    HW211482   4.044   0.356   4.549
 2863SOL    HW311483   4.116   0.238   4.486
 2863SOL    MW411484   4.112   0.301   4.546
 2864SOL     OW11485   3.774   1.176   4.552
 2864SOL    HW211486   3.690   1.221   4.557
 2864SOL    HW311487   3.839   1.246   4.565
 2864SOL    MW411488   3.772   1.192   4.554
 2865SOL     OW11489   0.002   1.197   4.591
 2865SOL    HW211490   0.094   1.199   4.565
 2865SOL    HW311491  -0.014   1.106   4.615
 2865SOL    MW411492   0.012   1.185   4.591
 2866SOL     OW11493   0.123   1.471   4.717
 2866SOL    HW211494   0.083   1.388   4.691
 2866SOL    HW311495   0.083   1.536   4.660
 2866SOL    MW411496   0.112   1.469   4.706
 2867SOL     OW11497   3.959   1.383   4.586
 2867SOL    HW211498   4.047   1.345   4.577
 2867SOL    HW311499   3.944   1.427   4.502
 2867SOL    MW411500   3.969   1.384   4.574
 2868SOL     OW11501   3.372   2.920   4.534
 2868SOL    HW211502   3.384   2.890   4.444
 2868SOL    HW311503   3.431   2.995   4.543
 2868SOL    MW411504   3.381   2.926   4.523
 2869SOL     OW11505   4.236   2.091   4.287
 2869SOL    HW211506   4.169   2.056   4.229
 2869SOL    HW311507   4.196   2.086   4.375
 2869SOL    MW411508   4.222   2.086   4.291
 2870SOL     OW11509   0.254   2.135   4.501
 2870SOL    HW211510   0.336   2.184   4.508
 2870SOL    HW311511   0.186   2.202   4.489
 2870SOL    MW411512   0.256   2.150   4.501
 2871SOL     OW11513   4.158   2.055   4.553
 2871SOL    HW211514   4.218   1.984   4.576
 2871SOL    HW311515   4.205   2.135   4.578
 2871SOL    MW411516   4.172   2.057   4.560
 2872SOL     OW11517   3.572   2.471   4.538
 2872SOL    HW211518   3.513   2.524   4.592
 2872SOL    HW311519   3.574   2.386   4.581
 2872SOL    MW411520   3.565   2.467   4.551
 2873SOL     OW11521   0.438   2.482   4.729
 2873SOL    HW211522   0.398   2.422   4.793
 2873SOL    HW311523   0.438   2.433   4.647
 2873SOL    MW411524   0.433   2.467   4.727
 2874SOL     OW11525   4.162   2.766   4.551
 2874SOL    HW211526   4.247   2.747   4.592
 2874SOL    HW311527   4.185   2.800   4.465
 2874SOL    MW411528   4.176   2.768   4.545
 2875SOL     OW11529   0.204   3.130   4.620
 2875SOL    HW211530   0.156   3.207   4.590
 2875SOL    HW311531   0.296   3.152   4.606
 2875SOL    MW411532   0.210   3.143   4.614
 2876SOL     OW11533   0.261   3.533   4.466
 2876SOL    HW211534   0.234   3.539   4.374
 2876SOL    HW311535   0.197   3.475   4.506
 2876SOL    MW411536   0.249   3.526   4.459
 2877SOL     OW11537   4.304   0.149   4.713
 2877SOL    HW211538   4.328   0.188   4.797
 2877SOL    HW311539   4.245   0.213   4.673
 2877SOL    MW411540   4.300   0.163   4.719
 2878SOL     OW11541   3.907   0.010   4.512
 2878SOL    HW211542   3.936   0.053   4.431
 2878SOL    HW311543   3.864   0.080   4.562
 2878SOL    MW411544   3.905   0.025   4.508
 2879SOL     OW11545   3.741   4.176   4.956
 2879SOL    HW211546   3.699   4.207   4.876
 2879SOL    HW311547   3.670   4.135   5.006
 2879SOL    MW411548   3.726   4.175   4.952
 2880SOL     OW11549   3.321   0.412   4.778
 2880SOL    HW211550   3.345   0.334   4.728
 2880SOL    HW311551   3.367   0.483   4.734
 2880SOL    MW411552   3.330   0.411   4.766
 2881SOL     OW11553   4.219   4.407   4.293
 2881SOL    HW211554   4.287   4.358   4.247
 2881SOL    HW311555   4.220   4.371   4.382
 2881SOL    MW411556   4.228   4.396   4.298
 2882NA      NA11557   2.687   4.239   0.677
 2883NA      NA11558   0.638   2.289   0.414
   4.49070   4.66690  10.00000
