Gromacs Runs On Most of All Computer Systems in water t= 870.00000 step= 870000
11558
    1RG35     P    1   2.188   2.778   4.430
    1RG35   O1P    2   2.132   2.722   4.306
    1RG35   O2P    3   2.164   2.920   4.449
    1RG35   O5'    4   2.113   2.711   4.547
    1RG35   C5'    5   1.975   2.733   4.573
    1RG35  H5'1    6   1.935   2.763   4.476
    1RG35  H5'2    7   1.950   2.813   4.644
    1RG35   C4'    8   1.909   2.604   4.622
    1RG35   H4'    9   1.800   2.616   4.618
    1RG35   O4'   10   1.937   2.499   4.540
    1RG35   C1'   11   1.939   2.377   4.615
    1RG35   H1'   12   1.837   2.366   4.654
    1RG35    N9   13   1.982   2.269   4.531
    1RG35    C8   14   2.044   2.291   4.408
    1RG35    H8   15   2.078   2.387   4.372
    1RG35    N7   16   2.064   2.173   4.348
    1RG35    C5   17   1.997   2.078   4.421
    1RG35    C6   18   1.977   1.940   4.409
    1RG35    O6   19   2.014   1.867   4.311
    1RG35    N1   20   1.916   1.876   4.515
    1RG35    H1   21   1.901   1.778   4.498
    1RG35    C2   22   1.853   1.947   4.614
    1RG35    N2   23   1.773   1.878   4.692
    1RG35   H21   24   1.754   1.780   4.681
    1RG35   H22   25   1.707   1.926   4.751
    1RG35    N3   26   1.861   2.080   4.630
    1RG35    C4   27   1.946   2.137   4.537
    1RG35   C3'   28   1.960   2.551   4.761
    1RG35   H3'   29   2.035   2.612   4.811
    1RG35   C2'   30   2.029   2.422   4.728
    1RG35  H2'1   31   2.130   2.446   4.695
    1RG35   O2'   32   2.024   2.333   4.833
    1RG35  HO'2   33   2.096   2.272   4.818
    1RG35   O3'   34   1.859   2.523   4.860
    1RG35   H3T   35   1.900   2.450   4.907
    1RG35   O3P   36   2.328   2.734   4.455
    2SOL     OW   37   0.428   0.029   0.455
    2SOL    HW2   38   0.420  -0.066   0.441
    2SOL    HW3   39   0.509   0.053   0.410
    2SOL    MW4   40   0.438   0.020   0.447
    3SOL     OW   41   3.579   0.668   0.335
    3SOL    HW2   42   3.667   0.655   0.300
    3SOL    HW3   43   3.583   0.753   0.380
    3SOL    MW4   44   3.591   0.677   0.337
    4SOL     OW   45   3.820   0.138   0.290
    4SOL    HW2   46   3.800   0.170   0.202
    4SOL    HW3   47   3.830   0.218   0.342
    4SOL    MW4   48   3.819   0.153   0.285
    5SOL     OW   49   0.624   1.702   0.386
    5SOL    HW2   50   0.674   1.622   0.378
    5SOL    HW3   51   0.534   1.673   0.405
    5SOL    MW4   52   0.618   1.688   0.387
    6SOL     OW   53   1.391   0.743   0.477
    6SOL    HW2   54   1.353   0.769   0.561
    6SOL    HW3   55   1.435   0.821   0.445
    6SOL    MW4   56   1.391   0.756   0.484
    7SOL     OW   57   0.179   0.432   0.425
    7SOL    HW2   58   0.202   0.419   0.517
    7SOL    HW3   59   0.179   0.344   0.387
    7SOL    MW4   60   0.182   0.419   0.432
    8SOL     OW   61   0.525   0.806   0.406
    8SOL    HW2   62   0.496   0.822   0.496
    8SOL    HW3   63   0.489   0.720   0.383
    8SOL    MW4   64   0.517   0.797   0.415
    9SOL     OW   65   0.797   0.783   0.423
    9SOL    HW2   66   0.821   0.797   0.515
    9SOL    HW3   67   0.702   0.790   0.421
    9SOL    MW4   68   0.788   0.786   0.435
   10SOL     OW   69   0.417   1.047   0.311
   10SOL    HW2   70   0.416   1.061   0.217
   10SOL    HW3   71   0.439   0.954   0.322
   10SOL    MW4   72   0.420   1.037   0.300
   11SOL     OW   73   4.199   1.447   0.480
   11SOL    HW2   74   4.115   1.494   0.481
   11SOL    HW3   75   4.193   1.386   0.553
   11SOL    MW4   76   4.187   1.445   0.490
   12SOL     OW   77   4.145   2.366   0.587
   12SOL    HW2   78   4.064   2.316   0.595
   12SOL    HW3   79   4.116   2.454   0.561
   12SOL    MW4   80   4.130   2.371   0.585
   13SOL     OW   81   4.457   1.553   0.485
   13SOL    HW2   82   4.479   1.583   0.574
   13SOL    HW3   83   4.362   1.539   0.488
   13SOL    MW4   84   4.447   1.555   0.497
   14SOL     OW   85   0.735   2.304   0.348
   14SOL    HW2   86   0.805   2.339   0.404
   14SOL    HW3   87   0.737   2.360   0.270
   14SOL    MW4   88   0.745   2.316   0.345
   15SOL     OW   89   0.191   2.714   0.429
   15SOL    HW2   90   0.175   2.796   0.382
   15SOL    HW3   91   0.271   2.679   0.388
   15SOL    MW4   92   0.200   2.721   0.417
   16SOL     OW   93   4.078   3.372   0.477
   16SOL    HW2   94   4.132   3.338   0.406
   16SOL    HW3   95   4.062   3.296   0.534
   16SOL    MW4   96   4.083   3.357   0.475
   17SOL     OW   97   0.174   2.980   0.354
   17SOL    HW2   98   0.250   3.011   0.402
   17SOL    HW3   99   0.121   3.058   0.339
   17SOL    MW4  100   0.177   2.994   0.359
   18SOL     OW  101   0.593   3.322   0.432
   18SOL    HW2  102   0.667   3.364   0.476
   18SOL    HW3  103   0.539   3.396   0.401
   18SOL    MW4  104   0.596   3.338   0.433
   19SOL     OW  105   0.620   3.751   0.312
   19SOL    HW2  106   0.686   3.812   0.280
   19SOL    HW3  107   0.560   3.805   0.363
   19SOL    MW4  108   0.621   3.766   0.315
   20SOL     OW  109   4.222   3.822   0.318
   20SOL    HW2  110   4.201   3.896   0.376
   20SOL    HW3  111   4.222   3.746   0.376
   20SOL    MW4  112   4.219   3.822   0.334
   21SOL     OW  113   4.423   3.681   0.161
   21SOL    HW2  114   4.463   3.749   0.107
   21SOL    HW3  115   4.352   3.725   0.207
   21SOL    MW4  116   4.419   3.696   0.160
   22SOL     OW  117   4.420   4.426   0.509
   22SOL    HW2  118   4.366   4.454   0.435
   22SOL    HW3  119   4.357   4.418   0.581
   22SOL    MW4  120   4.404   4.429   0.509
   23SOL     OW  121   4.030   4.281   0.415
   23SOL    HW2  122   3.970   4.296   0.489
   23SOL    HW3  123   3.979   4.230   0.353
   23SOL    MW4  124   4.015   4.276   0.417
   24SOL     OW  125   4.248   0.195   0.421
   24SOL    HW2  126   4.308   0.164   0.353
   24SOL    HW3  127   4.293   0.174   0.503
   24SOL    MW4  128   4.262   0.188   0.423
   25SOL     OW  129   0.405   3.113   0.471
   25SOL    HW2  130   0.412   3.121   0.566
   25SOL    HW3  131   0.443   3.195   0.437
   25SOL    MW4  132   0.411   3.125   0.479
   26SOL     OW  133   0.401   4.418   0.400
   26SOL    HW2  134   0.310   4.389   0.391
   26SOL    HW3  135   0.452   4.337   0.395
   26SOL    MW4  136   0.396   4.403   0.398
   27SOL     OW  137   0.184   0.133   0.370
   27SOL    HW2  138   0.126   0.103   0.439
   27SOL    HW3  139   0.270   0.098   0.394
   27SOL    MW4  140   0.188   0.124   0.382
   28SOL     OW  141   0.011   0.894   0.429
   28SOL    HW2  142   0.087   0.952   0.430
   28SOL    HW3  143  -0.064   0.951   0.446
   28SOL    MW4  144   0.012   0.909   0.431
   29SOL     OW  145   0.826   4.359   0.452
   29SOL    HW2  146   0.878   4.279   0.452
   29SOL    HW3  147   0.793   4.367   0.542
   29SOL    MW4  148   0.828   4.349   0.464
   30SOL     OW  149   1.109   1.209   0.470
   30SOL    HW2  150   1.060   1.131   0.447
   30SOL    HW3  151   1.055   1.282   0.440
   30SOL    MW4  152   1.096   1.208   0.463
   31SOL     OW  153   0.619   0.379   0.412
   31SOL    HW2  154   0.692   0.426   0.372
   31SOL    HW3  155   0.624   0.291   0.376
   31SOL    MW4  156   0.629   0.374   0.402
   32SOL     OW  157   0.193   1.106   0.472
   32SOL    HW2  158   0.270   1.099   0.415
   32SOL    HW3  159   0.137   1.171   0.428
   32SOL    MW4  160   0.196   1.114   0.458
   33SOL     OW  161   0.109   2.095   0.438
   33SOL    HW2  162   0.056   2.165   0.399
   33SOL    HW3  163   0.076   2.015   0.398
   33SOL    MW4  164   0.098   2.094   0.427
   34SOL     OW  165   0.609   2.054   0.445
   34SOL    HW2  166   0.533   2.076   0.392
   34SOL    HW3  167   0.668   2.129   0.435
   34SOL    MW4  168   0.607   2.067   0.436
   35SOL     OW  169   0.739   2.540   0.156
   35SOL    HW2  170   0.774   2.617   0.199
   35SOL    HW3  171   0.760   2.553   0.063
   35SOL    MW4  172   0.746   2.552   0.149
   36SOL     OW  173   0.753   3.140   0.305
   36SOL    HW2  174   0.721   3.070   0.363
   36SOL    HW3  175   0.707   3.219   0.335
   36SOL    MW4  176   0.743   3.141   0.317
   37SOL     OW  177   3.925   2.103   0.276
   37SOL    HW2  178   4.007   2.109   0.228
   37SOL    HW3  179   3.939   2.031   0.338
   37SOL    MW4  180   3.937   2.094   0.278
   38SOL     OW  181   1.103   2.142   0.500
   38SOL    HW2  182   1.121   2.086   0.576
   38SOL    HW3  183   1.182   2.194   0.489
   38SOL    MW4  184   1.116   2.141   0.508
   39SOL     OW  185   0.474   2.383   0.407
   39SOL    HW2  186   0.477   2.476   0.384
   39SOL    HW3  187   0.564   2.353   0.398
   39SOL    MW4  188   0.486   2.392   0.403
   40SOL     OW  189   4.237   3.243   0.286
   40SOL    HW2  190   4.173   3.177   0.314
   40SOL    HW3  191   4.209   3.269   0.198
   40SOL    MW4  192   4.225   3.238   0.278
   41SOL     OW  193   0.439   2.650   0.326
   41SOL    HW2  194   0.464   2.631   0.235
   41SOL    HW3  195   0.496   2.723   0.351
   41SOL    MW4  196   0.450   2.658   0.317
   42SOL     OW  197   0.853   0.301   0.109
   42SOL    HW2  198   0.935   0.324   0.065
   42SOL    HW3  199   0.831   0.378   0.161
   42SOL    MW4  200   0.861   0.314   0.110
   43SOL     OW  201   0.267   3.572   0.481
   43SOL    HW2  202   0.239   3.663   0.472
   43SOL    HW3  203   0.345   3.565   0.426
   43SOL    MW4  204   0.273   3.583   0.473
   44SOL     OW  205   0.464   3.529   0.285
   44SOL    HW2  206   0.459   3.508   0.192
   44SOL    HW3  207   0.511   3.612   0.288
   44SOL    MW4  208   0.470   3.537   0.273
   45SOL     OW  209   1.042   3.725   0.419
   45SOL    HW2  210   0.953   3.704   0.448
   45SOL    HW3  211   1.092   3.646   0.437
   45SOL    MW4  212   1.037   3.712   0.425
   46SOL     OW  213   0.131   4.267   0.446
   46SOL    HW2  214   0.060   4.330   0.463
   46SOL    HW3  215   0.088   4.181   0.451
   46SOL    MW4  216   0.116   4.264   0.449
   47SOL     OW  217   0.789   3.620   0.510
   47SOL    HW2  218   0.735   3.653   0.439
   47SOL    HW3  219   0.737   3.635   0.589
   47SOL    MW4  220   0.775   3.627   0.511
   48SOL     OW  221   0.597   4.191   0.436
   48SOL    HW2  222   0.678   4.240   0.423
   48SOL    HW3  223   0.589   4.183   0.532
   48SOL    MW4  224   0.607   4.196   0.447
   49SOL     OW  225   0.655   0.123   0.298
   49SOL    HW2  226   0.720   0.061   0.331
   49SOL    HW3  227   0.676   0.134   0.205
   49SOL    MW4  228   0.666   0.116   0.290
   50SOL     OW  229   0.835   0.508   0.323
   50SOL    HW2  230   0.818   0.598   0.351
   50SOL    HW3  231   0.915   0.483   0.369
   50SOL    MW4  232   0.843   0.517   0.333
   51SOL     OW  233   0.413   0.564   0.324
   51SOL    HW2  234   0.329   0.532   0.357
   51SOL    HW3  235   0.473   0.490   0.336
   51SOL    MW4  236   0.410   0.550   0.330
   52SOL     OW  237   1.729   0.586   0.397
   52SOL    HW2  238   1.712   0.540   0.479
   52SOL    HW3  239   1.731   0.679   0.422
   52SOL    MW4  240   1.727   0.592   0.411
   53SOL     OW  241   2.030   0.814   0.468
   53SOL    HW2  242   1.941   0.824   0.433
   53SOL    HW3  243   2.020   0.823   0.563
   53SOL    MW4  244   2.017   0.817   0.476
   54SOL     OW  245   1.919   0.008   0.367
   54SOL    HW2  246   1.889  -0.083   0.363
   54SOL    HW3  247   1.840   0.058   0.390
   54SOL    MW4  248   1.904   0.003   0.369
   55SOL     OW  249   0.684   1.403   0.364
   55SOL    HW2  250   0.666   1.310   0.379
   55SOL    HW3  251   0.779   1.411   0.374
   55SOL    MW4  252   0.695   1.392   0.367
   56SOL     OW  253   0.645   1.146   0.442
   56SOL    HW2  254   0.573   1.102   0.398
   56SOL    HW3  255   0.722   1.092   0.423
   56SOL    MW4  256   0.646   1.133   0.434
   57SOL     OW  257   1.854   1.563   0.592
   57SOL    HW2  258   1.906   1.564   0.672
   57SOL    HW3  259   1.823   1.653   0.581
   57SOL    MW4  260   1.857   1.575   0.601
   58SOL     OW  261   0.898   1.037   0.438
   58SOL    HW2  262   0.897   0.950   0.400
   58SOL    HW3  263   0.889   1.022   0.533
   58SOL    MW4  264   0.896   1.024   0.446
   59SOL     OW  265   1.359   1.500   0.254
   59SOL    HW2  266   1.373   1.496   0.159
   59SOL    HW3  267   1.440   1.538   0.288
   59SOL    MW4  268   1.371   1.505   0.246
   60SOL     OW  269   0.016   2.333   0.299
   60SOL    HW2  270  -0.007   2.409   0.351
   60SOL    HW3  271  -0.016   2.353   0.211
   60SOL    MW4  272   0.009   2.345   0.294
   61SOL     OW  273   4.480   1.823   0.383
   61SOL    HW2  274   4.453   1.793   0.296
   61SOL    HW3  275   4.493   1.742   0.433
   61SOL    MW4  276   4.478   1.808   0.378
   62SOL     OW  277   0.871   1.859   0.569
   62SOL    HW2  278   0.844   1.897   0.653
   62SOL    HW3  279   0.966   1.851   0.576
   62SOL    MW4  280   0.880   1.863   0.581
   63SOL     OW  281   0.886   1.767   0.221
   63SOL    HW2  282   0.964   1.712   0.231
   63SOL    HW3  283   0.876   1.775   0.126
   63SOL    MW4  284   0.895   1.761   0.210
   64SOL     OW  285   0.894   2.063   0.323
   64SOL    HW2  286   0.846   2.145   0.314
   64SOL    HW3  287   0.971   2.086   0.375
   64SOL    MW4  288   0.898   2.077   0.329
   65SOL     OW  289   0.832   2.775   0.280
   65SOL    HW2  290   0.769   2.836   0.319
   65SOL    HW3  291   0.902   2.831   0.246
   65SOL    MW4  292   0.833   2.791   0.281
   66SOL     OW  293   0.593   2.903   0.432
   66SOL    HW2  294   0.529   2.974   0.438
   66SOL    HW3  295   0.619   2.885   0.522
   66SOL    MW4  296   0.588   2.910   0.445
   67SOL     OW  297   1.068   3.176   0.441
   67SOL    HW2  298   0.982   3.203   0.474
   67SOL    HW3  299   1.048   3.127   0.361
   67SOL    MW4  300   1.054   3.173   0.434
   68SOL     OW  301   1.887   2.989   0.363
   68SOL    HW2  302   1.806   2.941   0.377
   68SOL    HW3  303   1.956   2.924   0.379
   68SOL    MW4  304   1.886   2.974   0.367
   69SOL     OW  305   0.968   4.106   0.482
   69SOL    HW2  306   1.043   4.046   0.480
   69SOL    HW3  307   0.913   4.073   0.552
   69SOL    MW4  308   0.971   4.093   0.491
   70SOL     OW  309   0.453   3.928   0.435
   70SOL    HW2  310   0.418   3.928   0.524
   70SOL    HW3  311   0.478   4.019   0.419
   70SOL    MW4  312   0.452   3.940   0.445
   71SOL     OW  313   1.195   4.329   0.491
   71SOL    HW2  314   1.172   4.356   0.580
   71SOL    HW3  315   1.126   4.267   0.466
   71SOL    MW4  316   1.183   4.324   0.500
   72SOL     OW  317   1.097   0.383   0.430
   72SOL    HW2  318   1.081   0.302   0.382
   72SOL    HW3  319   1.188   0.404   0.411
   72SOL    MW4  320   1.107   0.375   0.421
   73SOL     OW  321   0.862   4.650   0.437
   73SOL    HW2  322   0.870   4.555   0.445
   73SOL    HW3  323   0.904   4.685   0.516
   73SOL    MW4  324   0.869   4.642   0.449
   74SOL     OW  325   1.394   0.473   0.396
   74SOL    HW2  326   1.382   0.560   0.433
   74SOL    HW3  327   1.452   0.486   0.321
   74SOL    MW4  328   1.400   0.486   0.391
   75SOL     OW  329   1.994   4.661   0.637
   75SOL    HW2  330   1.996   4.568   0.659
   75SOL    HW3  331   1.969   4.664   0.545
   75SOL    MW4  332   1.991   4.649   0.628
   76SOL     OW  333   1.009   0.149   0.278
   76SOL    HW2  334   0.949   0.082   0.311
   76SOL    HW3  335   0.955   0.206   0.224
   76SOL    MW4  336   0.994   0.148   0.276
   77SOL     OW  337   2.131   0.149   0.231
   77SOL    HW2  338   2.126   0.239   0.265
   77SOL    HW3  339   2.052   0.107   0.264
   77SOL    MW4  340   2.120   0.156   0.240
   78SOL     OW  341   2.499   1.013   0.377
   78SOL    HW2  342   2.510   1.077   0.307
   78SOL    HW3  343   2.407   1.020   0.402
   78SOL    MW4  344   2.488   1.022   0.371
   79SOL     OW  345   1.628   1.152   0.429
   79SOL    HW2  346   1.548   1.185   0.388
   79SOL    HW3  347   1.691   1.223   0.418
   79SOL    MW4  348   1.626   1.166   0.422
   80SOL     OW  349   1.747   0.876   0.439
   80SOL    HW2  350   1.744   0.887   0.534
   80SOL    HW3  351   1.707   0.957   0.405
   80SOL    MW4  352   1.741   0.888   0.447
   81SOL     OW  353   1.382   1.263   0.389
   81SOL    HW2  354   1.296   1.244   0.426
   81SOL    HW3  355   1.369   1.344   0.339
   81SOL    MW4  356   1.369   1.272   0.387
   82SOL     OW  357   1.790   1.833   0.567
   82SOL    HW2  358   1.797   1.857   0.659
   82SOL    HW3  359   1.874   1.861   0.529
   82SOL    MW4  360   1.802   1.840   0.574
   83SOL     OW  361   0.933   2.354   0.534
   83SOL    HW2  362   1.003   2.289   0.538
   83SOL    HW3  363   0.917   2.379   0.625
   83SOL    MW4  364   0.940   2.349   0.546
   84SOL     OW  365   1.295   2.549   0.420
   84SOL    HW2  366   1.206   2.569   0.390
   84SOL    HW3  367   1.350   2.567   0.344
   84SOL    MW4  368   1.291   2.554   0.406
   85SOL     OW  369   2.285   2.089   0.415
   85SOL    HW2  370   2.374   2.055   0.406
   85SOL    HW3  371   2.294   2.184   0.414
   85SOL    MW4  372   2.298   2.097   0.413
   86SOL     OW  373   1.359   2.264   0.460
   86SOL    HW2  374   1.454   2.256   0.450
   86SOL    HW3  375   1.343   2.357   0.472
   86SOL    MW4  376   1.369   2.275   0.460
   87SOL     OW  377   0.959   1.440   0.414
   87SOL    HW2  378   0.936   1.483   0.497
   87SOL    HW3  379   1.011   1.505   0.367
   87SOL    MW4  380   0.963   1.454   0.419
   88SOL     OW  381   1.163   3.493   0.471
   88SOL    HW2  382   1.249   3.478   0.432
   88SOL    HW3  383   1.103   3.444   0.416
   88SOL    MW4  384   1.167   3.485   0.458
   89SOL     OW  385   1.824   2.082   0.277
   89SOL    HW2  386   1.873   2.044   0.350
   89SOL    HW3  387   1.891   2.125   0.223
   89SOL    MW4  388   1.839   2.083   0.280
   90SOL     OW  389   2.145   0.552   0.456
   90SOL    HW2  390   2.135   0.643   0.429
   90SOL    HW3  391   2.084   0.503   0.402
   90SOL    MW4  392   2.136   0.557   0.446
   91SOL     OW  393   1.181   3.949   0.508
   91SOL    HW2  394   1.136   3.868   0.486
   91SOL    HW3  395   1.269   3.939   0.472
   91SOL    MW4  396   1.186   3.937   0.500
   92SOL     OW  397   1.837   2.601   0.453
   92SOL    HW2  398   1.771   2.668   0.436
   92SOL    HW3  399   1.919   2.641   0.423
   92SOL    MW4  400   1.839   2.615   0.447
   93SOL     OW  401   1.416   3.896   0.375
   93SOL    HW2  402   1.426   3.910   0.281
   93SOL    HW3  403   1.423   3.983   0.413
   93SOL    MW4  404   1.418   3.909   0.368
   94SOL     OW  405   1.649   2.829   0.444
   94SOL    HW2  406   1.585   2.886   0.401
   94SOL    HW3  407   1.623   2.830   0.536
   94SOL    MW4  408   1.637   2.836   0.451
   95SOL     OW  409   2.140   3.952   0.454
   95SOL    HW2  410   2.111   3.861   0.459
   95SOL    HW3  411   2.233   3.947   0.436
   95SOL    MW4  412   2.148   3.940   0.453
   96SOL     OW  413   0.861   3.906   0.294
   96SOL    HW2  414   0.897   3.983   0.339
   96SOL    HW3  415   0.931   3.842   0.296
   96SOL    MW4  416   0.875   3.908   0.300
   97SOL     OW  417   1.833   4.405   0.390
   97SOL    HW2  418   1.897   4.334   0.402
   97SOL    HW3  419   1.758   4.378   0.443
   97SOL    MW4  420   1.831   4.392   0.399
   98SOL     OW  421   2.235   0.100   0.672
   98SOL    HW2  422   2.148   0.059   0.669
   98SOL    HW3  423   2.282   0.051   0.740
   98SOL    MW4  424   2.230   0.088   0.681
   99SOL     OW  425   2.611   4.393   0.291
   99SOL    HW2  426   2.653   4.400   0.376
   99SOL    HW3  427   2.614   4.481   0.255
   99SOL    MW4  428   2.617   4.405   0.298
  100SOL     OW  429   1.390   4.538   0.418
  100SOL    HW2  430   1.316   4.479   0.433
  100SOL    HW3  431   1.350   4.620   0.390
  100SOL    MW4  432   1.375   4.541   0.416
  101SOL     OW  433   2.426   0.476   0.438
  101SOL    HW2  434   2.332   0.493   0.432
  101SOL    HW3  435   2.466   0.561   0.419
  101SOL    MW4  436   2.419   0.489   0.435
  102SOL     OW  437   1.601   1.902   0.351
  102SOL    HW2  438   1.631   1.960   0.281
  102SOL    HW3  439   1.675   1.895   0.411
  102SOL    MW4  440   1.614   1.909   0.349
  103SOL     OW  441   2.068   1.289   0.468
  103SOL    HW2  442   1.984   1.315   0.431
  103SOL    HW3  443   2.125   1.365   0.456
  103SOL    MW4  444   2.064   1.302   0.462
  104SOL     OW  445   2.585   1.233   0.502
  104SOL    HW2  446   2.681   1.234   0.503
  104SOL    HW3  447   2.562   1.149   0.463
  104SOL    MW4  448   2.595   1.222   0.497
  105SOL     OW  449   2.695   1.729   0.438
  105SOL    HW2  450   2.753   1.656   0.416
  105SOL    HW3  451   2.686   1.726   0.533
  105SOL    MW4  452   2.702   1.719   0.448
  106SOL     OW  453   1.600   1.592   0.358
  106SOL    HW2  454   1.598   1.688   0.361
  106SOL    HW3  455   1.582   1.565   0.448
  106SOL    MW4  456   1.597   1.601   0.370
  107SOL     OW  457   1.139   1.812   0.539
  107SOL    HW2  458   1.208   1.875   0.518
  107SOL    HW3  459   1.182   1.744   0.590
  107SOL    MW4  460   1.154   1.811   0.543
  108SOL     OW  461   2.307   2.370   0.430
  108SOL    HW2  462   2.283   2.439   0.368
  108SOL    HW3  463   2.303   2.412   0.516
  108SOL    MW4  464   2.303   2.385   0.433
  109SOL     OW  465   1.837   3.279   0.420
  109SOL    HW2  466   1.876   3.193   0.404
  109SOL    HW3  467   1.907   3.341   0.395
  109SOL    MW4  468   1.852   3.276   0.415
  110SOL     OW  469   1.260   3.044   0.611
  110SOL    HW2  470   1.205   2.980   0.656
  110SOL    HW3  471   1.197   3.100   0.564
  110SOL    MW4  472   1.244   3.043   0.610
  111SOL     OW  473   1.567   3.253   0.460
  111SOL    HW2  474   1.660   3.250   0.439
  111SOL    HW3  475   1.532   3.170   0.426
  111SOL    MW4  476   1.574   3.242   0.453
  112SOL     OW  477   1.119   1.643   0.298
  112SOL    HW2  478   1.202   1.596   0.286
  112SOL    HW3  479   1.143   1.719   0.351
  112SOL    MW4  480   1.133   1.647   0.304
  113SOL     OW  481   3.752   1.519   0.296
  113SOL    HW2  482   3.704   1.534   0.215
  113SOL    HW3  483   3.684   1.503   0.361
  113SOL    MW4  484   3.737   1.519   0.294
  114SOL     OW  485   1.645   2.266   0.407
  114SOL    HW2  486   1.701   2.202   0.364
  114SOL    HW3  487   1.690   2.350   0.396
  114SOL    MW4  488   1.658   2.269   0.400
  115SOL     OW  489   1.381   1.968   0.494
  115SOL    HW2  490   1.347   2.054   0.468
  115SOL    HW3  491   1.447   1.948   0.428
  115SOL    MW4  492   1.385   1.977   0.482
  116SOL     OW  493   1.448   3.503   0.408
  116SOL    HW2  494   1.495   3.420   0.408
  116SOL    HW3  495   1.516   3.569   0.415
  116SOL    MW4  496   1.463   3.501   0.409
  117SOL     OW  497   2.257   3.263   0.476
  117SOL    HW2  498   2.237   3.268   0.569
  117SOL    HW3  499   2.349   3.288   0.469
  117SOL    MW4  500   2.266   3.267   0.487
  118SOL     OW  501   1.585   4.355   0.514
  118SOL    HW2  502   1.585   4.350   0.610
  118SOL    HW3  503   1.539   4.436   0.494
  118SOL    MW4  504   1.579   4.365   0.524
  119SOL     OW  505   1.619   3.737   0.487
  119SOL    HW2  506   1.546   3.790   0.453
  119SOL    HW3  507   1.695   3.795   0.482
  119SOL    MW4  508   1.619   3.752   0.482
  120SOL     OW  509   1.293   0.136   0.288
  120SOL    HW2  510   1.316   0.106   0.200
  120SOL    HW3  511   1.198   0.128   0.291
  120SOL    MW4  512   1.283   0.131   0.276
  121SOL     OW  513   1.462   0.212   0.481
  121SOL    HW2  514   1.452   0.307   0.481
  121SOL    HW3  515   1.395   0.181   0.419
  121SOL    MW4  516   1.452   0.220   0.473
  122SOL     OW  517   2.555   0.025   0.486
  122SOL    HW2  518   2.475  -0.020   0.458
  122SOL    HW3  519   2.552   0.110   0.441
  122SOL    MW4  520   2.544   0.031   0.476
  123SOL     OW  521   2.275   4.641   0.424
  123SOL    HW2  522   2.217   4.681   0.359
  123SOL    HW3  523   2.262   4.693   0.503
  123SOL    MW4  524   2.265   4.653   0.426
  124SOL     OW  525   2.492   1.506   0.396
  124SOL    HW2  526   2.537   1.431   0.435
  124SOL    HW3  527   2.551   1.580   0.409
  124SOL    MW4  528   2.506   1.506   0.403
  125SOL     OW  529   2.974   0.496   0.480
  125SOL    HW2  530   3.051   0.484   0.425
  125SOL    HW3  531   2.926   0.568   0.439
  125SOL    MW4  532   2.978   0.504   0.468
  126SOL     OW  533   2.223   1.040   0.447
  126SOL    HW2  534   2.168   1.118   0.441
  126SOL    HW3  535   2.169   0.969   0.412
  126SOL    MW4  536   2.208   1.041   0.442
  127SOL     OW  537   2.852   1.255   0.461
  127SOL    HW2  538   2.883   1.170   0.430
  127SOL    HW3  539   2.890   1.263   0.549
  127SOL    MW4  540   2.861   1.245   0.469
  128SOL     OW  541   2.891   1.527   0.395
  128SOL    HW2  542   2.887   1.500   0.303
  128SOL    HW3  543   2.890   1.444   0.444
  128SOL    MW4  544   2.890   1.512   0.389
  129SOL     OW  545   3.253   2.096   0.415
  129SOL    HW2  546   3.205   2.035   0.471
  129SOL    HW3  547   3.332   2.049   0.390
  129SOL    MW4  548   3.257   2.082   0.419
  130SOL     OW  549   2.938   4.550   0.312
  130SOL    HW2  550   3.001   4.614   0.344
  130SOL    HW3  551   2.984   4.466   0.316
  130SOL    MW4  552   2.952   4.547   0.317
  131SOL     OW  553   2.003   2.012   0.471
  131SOL    HW2  554   1.987   2.044   0.560
  131SOL    HW3  555   2.094   2.035   0.453
  131SOL    MW4  556   2.013   2.019   0.481
  132SOL     OW  557   1.522   1.531   0.625
  132SOL    HW2  558   1.583   1.561   0.691
  132SOL    HW3  559   1.437   1.567   0.651
  132SOL    MW4  560   1.519   1.540   0.637
  133SOL     OW  561   2.563   1.994   0.453
  133SOL    HW2  562   2.612   1.913   0.438
  133SOL    HW3  563   2.627   2.063   0.441
  133SOL    MW4  564   2.578   1.992   0.449
  134SOL     OW  565   2.757   2.183   0.460
  134SOL    HW2  566   2.838   2.197   0.411
  134SOL    HW3  567   2.786   2.145   0.543
  134SOL    MW4  568   2.771   2.180   0.465
  135SOL     OW  569   2.557   2.657   0.295
  135SOL    HW2  570   2.555   2.582   0.355
  135SOL    HW3  571   2.582   2.619   0.211
  135SOL    MW4  572   2.560   2.642   0.292
  136SOL     OW  573   1.408   2.981   0.375
  136SOL    HW2  574   1.372   2.991   0.463
  136SOL    HW3  575   1.337   2.942   0.324
  136SOL    MW4  576   1.394   2.977   0.380
  137SOL     OW  577   0.982   3.056   0.192
  137SOL    HW2  578   0.901   3.092   0.227
  137SOL    HW3  579   1.000   3.108   0.114
  137SOL    MW4  580   0.974   3.068   0.186
  138SOL     OW  581   2.035   3.702   0.445
  138SOL    HW2  582   2.048   3.628   0.386
  138SOL    HW3  583   2.042   3.664   0.533
  138SOL    MW4  584   2.037   3.687   0.449
  139SOL     OW  585   2.408   3.962   0.423
  139SOL    HW2  586   2.445   3.882   0.460
  139SOL    HW3  587   2.469   3.988   0.354
  139SOL    MW4  588   2.421   3.955   0.419
  140SOL     OW  589   1.841   3.922   0.483
  140SOL    HW2  590   1.886   3.964   0.409
  140SOL    HW3  591   1.884   3.837   0.492
  140SOL    MW4  592   1.853   3.916   0.474
  141SOL     OW  593   2.064   3.427   0.355
  141SOL    HW2  594   2.067   3.403   0.262
  141SOL    HW3  595   2.135   3.377   0.395
  141SOL    MW4  596   2.074   3.417   0.348
  142SOL     OW  597   2.346   4.367   0.396
  142SOL    HW2  598   2.424   4.362   0.341
  142SOL    HW3  599   2.328   4.461   0.404
  142SOL    MW4  600   2.354   4.379   0.390
  143SOL     OW  601   2.095   4.243   0.460
  143SOL    HW2  602   2.107   4.149   0.444
  143SOL    HW3  603   2.172   4.284   0.421
  143SOL    MW4  604   2.107   4.236   0.453
  144SOL     OW  605   3.087   0.084   0.448
  144SOL    HW2  606   3.010   0.141   0.455
  144SOL    HW3  607   3.103   0.055   0.538
  144SOL    MW4  608   3.079   0.088   0.461
  145SOL     OW  609   2.534   3.719   0.493
  145SOL    HW2  610   2.560   3.701   0.583
  145SOL    HW3  611   2.503   3.635   0.460
  145SOL    MW4  612   2.534   3.705   0.500
  146SOL     OW  613   2.534   4.214   0.539
  146SOL    HW2  614   2.456   4.261   0.509
  146SOL    HW3  615   2.510   4.122   0.531
  146SOL    MW4  616   2.520   4.208   0.534
  147SOL     OW  617   2.555   0.251   0.331
  147SOL    HW2  618   2.524   0.333   0.369
  147SOL    HW3  619   2.500   0.239   0.253
  147SOL    MW4  620   2.543   0.260   0.326
  148SOL     OW  621   1.943   0.388   0.361
  148SOL    HW2  622   1.893   0.315   0.397
  148SOL    HW3  623   1.877   0.453   0.336
  148SOL    MW4  624   1.928   0.387   0.362
  149SOL     OW  625   3.157   0.489   0.272
  149SOL    HW2  626   3.207   0.408   0.278
  149SOL    HW3  627   3.223   0.557   0.259
  149SOL    MW4  628   3.172   0.487   0.271
  150SOL     OW  629   2.217   1.523   0.441
  150SOL    HW2  630   2.180   1.555   0.359
  150SOL    HW3  631   2.312   1.528   0.429
  150SOL    MW4  632   2.224   1.528   0.429
  151SOL     OW  633   2.844   0.721   0.367
  151SOL    HW2  634   2.879   0.796   0.415
  151SOL    HW3  635   2.861   0.741   0.275
  151SOL    MW4  636   2.851   0.733   0.361
  152SOL     OW  637   3.126   1.672   0.499
  152SOL    HW2  638   3.047   1.635   0.458
  152SOL    HW3  639   3.108   1.766   0.505
  152SOL    MW4  640   3.113   1.679   0.494
  153SOL     OW  641   3.617   0.907   0.441
  153SOL    HW2  642   3.695   0.903   0.387
  153SOL    HW3  643   3.648   0.884   0.529
  153SOL    MW4  644   3.631   0.904   0.446
  154SOL     OW  645   4.004   1.884   0.449
  154SOL    HW2  646   4.086   1.903   0.496
  154SOL    HW3  647   3.935   1.905   0.512
  154SOL    MW4  648   4.006   1.889   0.464
  155SOL     OW  649   2.862   0.260   0.370
  155SOL    HW2  650   2.770   0.261   0.346
  155SOL    HW3  651   2.885   0.351   0.386
  155SOL    MW4  652   2.853   0.272   0.369
  156SOL     OW  653   3.098   1.948   0.599
  156SOL    HW2  654   3.013   1.986   0.624
  156SOL    HW3  655   3.141   1.932   0.683
  156SOL    MW4  656   3.092   1.951   0.614
  157SOL     OW  657   2.572   2.433   0.449
  157SOL    HW2  658   2.622   2.353   0.436
  157SOL    HW3  659   2.481   2.404   0.450
  157SOL    MW4  660   2.567   2.419   0.447
  158SOL     OW  661   3.008   2.237   0.310
  158SOL    HW2  662   3.012   2.231   0.215
  158SOL    HW3  663   3.085   2.188   0.340
  158SOL    MW4  664   3.019   2.230   0.301
  159SOL     OW  665   2.249   2.620   0.259
  159SOL    HW2  666   2.339   2.652   0.268
  159SOL    HW3  667   2.194   2.693   0.287
  159SOL    MW4  668   2.253   2.633   0.264
  160SOL     OW  669   2.628   2.894   0.468
  160SOL    HW2  670   2.606   2.825   0.406
  160SOL    HW3  671   2.589   2.866   0.551
  160SOL    MW4  672   2.620   2.881   0.471
  161SOL     OW  673   3.216   3.211   0.468
  161SOL    HW2  674   3.235   3.118   0.455
  161SOL    HW3  675   3.183   3.216   0.557
  161SOL    MW4  676   3.214   3.199   0.478
  162SOL     OW  677   3.461   3.310   0.607
  162SOL    HW2  678   3.465   3.245   0.677
  162SOL    HW3  679   3.387   3.282   0.552
  162SOL    MW4  680   3.451   3.298   0.609
  163SOL     OW  681   2.334   3.010   0.419
  163SOL    HW2  682   2.429   3.018   0.419
  163SOL    HW3  683   2.303   3.095   0.451
  163SOL    MW4  684   2.342   3.022   0.423
  164SOL     OW  685   1.421   4.153   0.481
  164SOL    HW2  686   1.488   4.221   0.484
  164SOL    HW3  687   1.339   4.199   0.497
  164SOL    MW4  688   1.419   4.168   0.483
  165SOL     OW  689   3.443   4.079   0.437
  165SOL    HW2  690   3.371   4.065   0.375
  165SOL    HW3  691   3.438   4.003   0.496
  165SOL    MW4  692   3.433   4.067   0.437
  166SOL     OW  693   3.024   3.387   0.396
  166SOL    HW2  694   3.098   3.327   0.389
  166SOL    HW3  695   2.947   3.331   0.402
  166SOL    MW4  696   3.024   3.372   0.396
  167SOL     OW  697   2.530   3.355   0.493
  167SOL    HW2  698   2.556   3.389   0.579
  167SOL    HW3  699   2.598   3.291   0.472
  167SOL    MW4  700   2.543   3.351   0.502
  168SOL     OW  701   3.825   4.201   0.631
  168SOL    HW2  702   3.826   4.106   0.622
  168SOL    HW3  703   3.769   4.232   0.560
  168SOL    MW4  704   3.818   4.193   0.621
  169SOL     OW  705   3.195   4.061   0.307
  169SOL    HW2  706   3.138   4.137   0.304
  169SOL    HW3  707   3.168   4.007   0.232
  169SOL    MW4  708   3.184   4.064   0.297
  170SOL     OW  709   3.309   0.259   0.381
  170SOL    HW2  710   3.229   0.209   0.397
  170SOL    HW3  711   3.379   0.201   0.411
  170SOL    MW4  712   3.308   0.245   0.387
  171SOL     OW  713   2.701   4.637   0.158
  171SOL    HW2  714   2.777   4.615   0.211
  171SOL    HW3  715   2.711   4.730   0.139
  171SOL    MW4  716   2.712   4.646   0.162
  172SOL     OW  717   2.852   4.008   0.311
  172SOL    HW2  718   2.835   3.915   0.322
  172SOL    HW3  719   2.774   4.043   0.268
  172SOL    MW4  720   2.840   4.001   0.307
  173SOL     OW  721   2.422   0.144   0.100
  173SOL    HW2  722   2.444   0.051   0.101
  173SOL    HW3  723   2.332   0.148   0.131
  173SOL    MW4  724   2.413   0.132   0.105
  174SOL     OW  725   2.962   0.996   0.410
  174SOL    HW2  726   3.034   1.007   0.348
  174SOL    HW3  727   3.005   0.972   0.492
  174SOL    MW4  728   2.977   0.994   0.412
  175SOL     OW  729   3.540   1.462   0.455
  175SOL    HW2  730   3.528   1.492   0.545
  175SOL    HW3  731   3.526   1.367   0.460
  175SOL    MW4  732   3.537   1.453   0.468
  176SOL     OW  733   3.252   0.740   0.560
  176SOL    HW2  734   3.207   0.659   0.584
  176SOL    HW3  735   3.197   0.809   0.597
  176SOL    MW4  736   3.239   0.738   0.568
  177SOL     OW  737   3.333   0.735   0.261
  177SOL    HW2  738   3.305   0.766   0.347
  177SOL    HW3  739   3.426   0.716   0.271
  177SOL    MW4  740   3.341   0.736   0.274
  178SOL     OW  741   3.589   1.868   0.637
  178SOL    HW2  742   3.543   1.869   0.554
  178SOL    HW3  743   3.527   1.906   0.700
  178SOL    MW4  744   3.575   1.873   0.635
  179SOL     OW  745   3.490   1.941   0.386
  179SOL    HW2  746   3.482   1.856   0.343
  179SOL    HW3  747   3.560   1.986   0.338
  179SOL    MW4  748   3.498   1.936   0.374
  180SOL     OW  749   3.571   1.182   0.493
  180SOL    HW2  750   3.595   1.093   0.469
  180SOL    HW3  751   3.538   1.174   0.583
  180SOL    MW4  752   3.570   1.169   0.502
  181SOL     OW  753   3.639   2.132   0.266
  181SOL    HW2  754   3.623   2.151   0.173
  181SOL    HW3  755   3.733   2.112   0.270
  181SOL    MW4  756   3.650   2.132   0.254
  182SOL     OW  757   3.320   2.325   0.568
  182SOL    HW2  758   3.306   2.244   0.520
  182SOL    HW3  759   3.377   2.300   0.641
  182SOL    MW4  760   3.326   2.311   0.571
  183SOL     OW  761   3.492   2.696   0.598
  183SOL    HW2  762   3.544   2.675   0.676
  183SOL    HW3  763   3.484   2.612   0.552
  183SOL    MW4  764   3.498   2.682   0.602
  184SOL     OW  765   2.118   2.837   0.408
  184SOL    HW2  766   2.095   2.821   0.499
  184SOL    HW3  767   2.197   2.891   0.412
  184SOL    MW4  768   2.125   2.842   0.420
  185SOL     OW  769   3.267   2.687   0.312
  185SOL    HW2  770   3.197   2.630   0.343
  185SOL    HW3  771   3.346   2.633   0.318
  185SOL    MW4  772   3.268   2.672   0.317
  186SOL     OW  773   2.916   2.816   0.757
  186SOL    HW2  774   2.917   2.805   0.662
  186SOL    HW3  775   2.992   2.766   0.787
  186SOL    MW4  776   2.926   2.808   0.748
  187SOL     OW  777   2.563   0.735   0.425
  187SOL    HW2  778   2.654   0.728   0.395
  187SOL    HW3  779   2.537   0.824   0.400
  187SOL    MW4  780   2.572   0.746   0.418
  188SOL     OW  781   2.883   4.185   0.547
  188SOL    HW2  782   2.854   4.134   0.472
  188SOL    HW3  783   2.925   4.121   0.605
  188SOL    MW4  784   2.885   4.170   0.545
  189SOL     OW  785   3.127   3.843   0.516
  189SOL    HW2  786   3.133   3.913   0.452
  189SOL    HW3  787   3.215   3.835   0.552
  189SOL    MW4  788   3.139   3.851   0.512
  190SOL     OW  789   3.886   3.602   0.431
  190SOL    HW2  790   3.943   3.526   0.432
  190SOL    HW3  791   3.868   3.620   0.524
  190SOL    MW4  792   3.891   3.595   0.444
  191SOL     OW  793   3.790   3.350   0.749
  191SOL    HW2  794   3.876   3.384   0.775
  191SOL    HW3  795   3.794   3.346   0.654
  191SOL    MW4  796   3.802   3.354   0.740
  192SOL     OW  797   2.767   3.740   0.309
  192SOL    HW2  798   2.839   3.696   0.355
  192SOL    HW3  799   2.691   3.722   0.364
  192SOL    MW4  800   2.767   3.732   0.323
  193SOL     OW  801   2.737   3.164   0.441
  193SOL    HW2  802   2.737   3.172   0.537
  193SOL    HW3  803   2.707   3.075   0.425
  193SOL    MW4  804   2.733   3.154   0.452
  194SOL     OW  805   4.427   0.052   0.242
  194SOL    HW2  806   4.519   0.078   0.246
  194SOL    HW3  807   4.428  -0.040   0.216
  194SOL    MW4  808   4.439   0.043   0.239
  195SOL     OW  809   4.038   0.033   0.437
  195SOL    HW2  810   3.964   0.058   0.382
  195SOL    HW3  811   4.098   0.107   0.432
  195SOL    MW4  812   4.036   0.046   0.429
  196SOL     OW  813   2.983   0.665   0.126
  196SOL    HW2  814   2.966   0.607   0.051
  196SOL    HW3  815   3.035   0.612   0.186
  196SOL    MW4  816   2.988   0.650   0.124
  197SOL     OW  817   3.500   0.444   0.489
  197SOL    HW2  818   3.443   0.393   0.432
  197SOL    HW3  819   3.520   0.523   0.438
  197SOL    MW4  820   3.495   0.447   0.474
  198SOL     OW  821   4.105   0.651   0.292
  198SOL    HW2  822   4.176   0.676   0.233
  198SOL    HW3  823   4.144   0.587   0.352
  198SOL    MW4  824   4.120   0.646   0.292
  199SOL     OW  825   4.279   1.060   0.467
  199SOL    HW2  826   4.262   1.118   0.541
  199SOL    HW3  827   4.200   1.006   0.460
  199SOL    MW4  828   4.266   1.061   0.476
  200SOL     OW  829   3.843   0.607   0.285
  200SOL    HW2  830   3.822   0.540   0.350
  200SOL    HW3  831   3.938   0.598   0.271
  200SOL    MW4  832   3.853   0.597   0.292
  201SOL     OW  833   4.017   1.136   0.262
  201SOL    HW2  834   4.077   1.195   0.217
  201SOL    HW3  835   3.962   1.194   0.315
  201SOL    MW4  836   4.017   1.152   0.263
  202SOL     OW  837   3.840   1.295   0.439
  202SOL    HW2  838   3.752   1.267   0.464
  202SOL    HW3  839   3.826   1.359   0.369
  202SOL    MW4  840   3.826   1.300   0.433
  203SOL     OW  841   3.408   1.677   0.350
  203SOL    HW2  842   3.319   1.687   0.383
  203SOL    HW3  843   3.436   1.591   0.380
  203SOL    MW4  844   3.400   1.667   0.359
  204SOL     OW  845   3.130   0.927   0.193
  204SOL    HW2  846   3.073   0.875   0.136
  204SOL    HW3  847   3.219   0.900   0.169
  204SOL    MW4  848   3.134   0.917   0.183
  205SOL     OW  849   3.709   2.372   0.397
  205SOL    HW2  850   3.679   2.291   0.356
  205SOL    HW3  851   3.778   2.345   0.457
  205SOL    MW4  852   3.714   2.358   0.399
  206SOL     OW  853   4.088   3.011   0.363
  206SOL    HW2  854   4.123   2.922   0.366
  206SOL    HW3  855   3.997   3.002   0.391
  206SOL    MW4  856   4.080   2.998   0.367
  207SOL     OW  857   3.059   2.530   0.411
  207SOL    HW2  858   3.069   2.518   0.505
  207SOL    HW3  859   3.030   2.444   0.380
  207SOL    MW4  860   3.057   2.517   0.419
  208SOL     OW  861   2.955   3.644   0.493
  208SOL    HW2  862   3.034   3.696   0.478
  208SOL    HW3  863   2.976   3.558   0.458
  208SOL    MW4  864   2.968   3.640   0.487
  209SOL     OW  865   3.169   2.921   0.442
  209SOL    HW2  866   3.200   2.849   0.387
  209SOL    HW3  867   3.074   2.910   0.446
  209SOL    MW4  868   3.161   2.910   0.435
  210SOL     OW  869   3.833   2.983   0.470
  210SOL    HW2  870   3.775   2.925   0.421
  210SOL    HW3  871   3.795   3.070   0.458
  210SOL    MW4  872   3.820   2.987   0.462
  211SOL     OW  873   3.718   2.711   0.446
  211SOL    HW2  874   3.725   2.625   0.406
  211SOL    HW3  875   3.628   2.714   0.481
  211SOL    MW4  876   3.707   2.700   0.445
  212SOL     OW  877   3.887   4.129   0.252
  212SOL    HW2  878   3.889   4.033   0.262
  212SOL    HW3  879   3.925   4.144   0.165
  212SOL    MW4  880   3.893   4.118   0.242
  213SOL     OW  881   3.463   2.503   0.394
  213SOL    HW2  882   3.402   2.440   0.432
  213SOL    HW3  883   3.544   2.454   0.382
  213SOL    MW4  884   3.466   2.488   0.398
  214SOL     OW  885   3.392   3.857   0.607
  214SOL    HW2  886   3.410   3.901   0.690
  214SOL    HW3  887   3.413   3.765   0.625
  214SOL    MW4  888   3.397   3.851   0.621
  215SOL     OW  889   4.190   4.069   0.446
  215SOL    HW2  890   4.167   4.059   0.538
  215SOL    HW3  891   4.157   4.156   0.423
  215SOL    MW4  892   4.183   4.079   0.455
  216SOL     OW  893   3.662   4.257   0.401
  216SOL    HW2  894   3.711   4.198   0.343
  216SOL    HW3  895   3.593   4.202   0.438
  216SOL    MW4  896   3.659   4.242   0.399
  217SOL     OW  897   3.516   4.500   0.451
  217SOL    HW2  898   3.568   4.430   0.411
  217SOL    HW3  899   3.547   4.503   0.542
  217SOL    MW4  900   3.527   4.491   0.458
  218SOL     OW  901   0.062   4.661   0.592
  218SOL    HW2  902   0.011   4.585   0.563
  218SOL    HW3  903  -0.005   4.729   0.606
  218SOL    MW4  904   0.046   4.660   0.590
  219SOL     OW  905   4.067   0.881   0.445
  219SOL    HW2  906   4.095   0.802   0.399
  219SOL    HW3  907   3.977   0.894   0.416
  219SOL    MW4  908   4.059   0.872   0.435
  220SOL     OW  909   0.375   2.140   0.344
  220SOL    HW2  910   0.387   2.234   0.353
  220SOL    HW3  911   0.284   2.125   0.369
  220SOL    MW4  912   0.365   2.150   0.349
  221SOL     OW  913   4.436   0.596   0.461
  221SOL    HW2  914   4.504   0.528   0.451
  221SOL    HW3  915   4.473   0.673   0.417
  221SOL    MW4  916   4.450   0.597   0.454
  222SOL     OW  917   4.280   1.270   0.271
  222SOL    HW2  918   4.273   1.186   0.316
  222SOL    HW3  919   4.250   1.334   0.336
  222SOL    MW4  920   4.275   1.267   0.286
  223SOL     OW  921   3.559   0.108   0.433
  223SOL    HW2  922   3.549   0.015   0.415
  223SOL    HW3  923   3.641   0.133   0.390
  223SOL    MW4  924   3.568   0.099   0.425
  224SOL     OW  925   3.838   0.886   0.275
  224SOL    HW2  926   3.904   0.937   0.227
  224SOL    HW3  927   3.840   0.800   0.233
  224SOL    MW4  928   3.847   0.881   0.263
  225SOL     OW  929   0.049   1.328   0.356
  225SOL    HW2  930   0.025   1.407   0.405
  225SOL    HW3  931  -0.026   1.312   0.299
  225SOL    MW4  932   0.036   1.337   0.355
  226SOL     OW  933   4.236   2.230   0.359
  226SOL    HW2  934   4.209   2.284   0.434
  226SOL    HW3  935   4.324   2.262   0.338
  226SOL    MW4  936   4.244   2.241   0.366
  227SOL     OW  937   0.411   1.531   0.427
  227SOL    HW2  938   0.349   1.491   0.366
  227SOL    HW3  939   0.484   1.469   0.431
  227SOL    MW4  940   0.413   1.517   0.420
  228SOL     OW  941   1.032   2.602   0.385
  228SOL    HW2  942   0.988   2.527   0.425
  228SOL    HW3  943   0.963   2.665   0.367
  228SOL    MW4  944   1.017   2.601   0.388
  229SOL     OW  945   4.254   1.968   0.502
  229SOL    HW2  946   4.329   1.920   0.467
  229SOL    HW3  947   4.247   2.045   0.446
  229SOL    MW4  948   4.263   1.972   0.490
  230SOL     OW  949   4.423   2.575   0.419
  230SOL    HW2  950   4.506   2.624   0.415
  230SOL    HW3  951   4.415   2.549   0.511
  230SOL    MW4  952   4.433   2.578   0.430
  231SOL     OW  953   4.258   3.569   0.468
  231SOL    HW2  954   4.338   3.531   0.433
  231SOL    HW3  955   4.197   3.496   0.473
  231SOL    MW4  956   4.260   3.555   0.464
  232SOL     OW  957   4.208   2.764   0.413
  232SOL    HW2  958   4.140   2.706   0.449
  232SOL    HW3  959   4.283   2.707   0.399
  232SOL    MW4  960   4.209   2.749   0.416
  233SOL     OW  961   0.191   3.844   0.427
  233SOL    HW2  962   0.120   3.908   0.417
  233SOL    HW3  963   0.271   3.896   0.416
  233SOL    MW4  964   0.192   3.860   0.424
  234SOL     OW  965   0.023   3.489   0.354
  234SOL    HW2  966   0.011   3.562   0.293
  234SOL    HW3  967   0.097   3.516   0.409
  234SOL    MW4  968   0.031   3.502   0.353
  235SOL     OW  969   0.020   3.215   0.395
  235SOL    HW2  970  -0.069   3.211   0.358
  235SOL    HW3  971   0.049   3.305   0.377
  235SOL    MW4  972   0.012   3.227   0.388
  236SOL     OW  973   3.911   3.842   0.318
  236SOL    HW2  974   3.893   3.752   0.346
  236SOL    HW3  975   4.006   3.847   0.313
  236SOL    MW4  976   3.921   3.831   0.321
  237SOL     OW  977   3.709   3.281   0.488
  237SOL    HW2  978   3.712   3.363   0.437
  237SOL    HW3  979   3.627   3.286   0.537
  237SOL    MW4  980   3.698   3.293   0.487
  238SOL     OW  981   4.486   4.026   0.447
  238SOL    HW2  982   4.488   3.997   0.538
  238SOL    HW3  983   4.393   4.021   0.422
  238SOL    MW4  984   4.474   4.022   0.455
  239SOL     OW  985   4.228   4.497   0.308
  239SOL    HW2  986   4.169   4.423   0.322
  239SOL    HW3  987   4.174   4.575   0.323
  239SOL    MW4  988   4.213   4.497   0.312
  240SOL     OW  989   3.991   4.510   0.660
  240SOL    HW2  990   4.080   4.474   0.669
  240SOL    HW3  991   3.994   4.563   0.581
  240SOL    MW4  992   4.003   4.512   0.651
  241SOL     OW  993   3.690   4.490   0.664
  241SOL    HW2  994   3.670   4.571   0.710
  241SOL    HW3  995   3.786   4.491   0.654
  241SOL    MW4  996   3.700   4.501   0.668
  242SOL     OW  997   0.238   4.552   0.812
  242SOL    HW2  998   0.232   4.460   0.789
  242SOL    HW3  999   0.202   4.598   0.737
  242SOL    MW4 1000   0.232   4.546   0.799
  243SOL     OW 1001   4.344   0.161   0.668
  243SOL    HW2 1002   4.315   0.100   0.736
  243SOL    HW3 1003   4.359   0.243   0.714
  243SOL    MW4 1004   4.342   0.164   0.683
  244SOL     OW 1005   4.412   0.437   0.765
  244SOL    HW2 1006   4.413   0.459   0.858
  244SOL    HW3 1007   4.504   0.442   0.738
  244SOL    MW4 1008   4.424   0.440   0.774
  245SOL     OW 1009   0.207   0.401   0.695
  245SOL    HW2 1010   0.276   0.352   0.741
  245SOL    HW3 1011   0.217   0.491   0.725
  245SOL    MW4 1012   0.217   0.406   0.705
  246SOL     OW 1013   0.190   0.681   0.786
  246SOL    HW2 1014   0.192   0.708   0.878
  246SOL    HW3 1015   0.120   0.732   0.746
  246SOL    MW4 1016   0.181   0.691   0.793
  247SOL     OW 1017   0.024   0.899   0.702
  247SOL    HW2 1018  -0.054   0.845   0.714
  247SOL    HW3 1019   0.031   0.910   0.607
  247SOL    MW4 1020   0.015   0.893   0.691
  248SOL     OW 1021   4.489   1.140   0.836
  248SOL    HW2 1022   4.493   1.150   0.931
  248SOL    HW3 1023   4.508   1.047   0.822
  248SOL    MW4 1024   4.492   1.129   0.847
  249SOL     OW 1025   0.257   1.189   0.729
  249SOL    HW2 1026   0.193   1.142   0.782
  249SOL    HW3 1027   0.232   1.169   0.638
  249SOL    MW4 1028   0.245   1.180   0.724
  250SOL     OW 1029   0.205   1.471   0.792
  250SOL    HW2 1030   0.290   1.506   0.765
  250SOL    HW3 1031   0.204   1.381   0.759
  250SOL    MW4 1032   0.216   1.464   0.784
  251SOL     OW 1033   0.010   1.675   0.729
  251SOL    HW2 1034  -0.062   1.627   0.770
  251SOL    HW3 1035   0.087   1.620   0.741
  251SOL    MW4 1036   0.011   1.662   0.736
  252SOL     OW 1037   0.035   1.931   0.843
  252SOL    HW2 1038   0.114   1.962   0.799
  252SOL    HW3 1039   0.020   1.844   0.807
  252SOL    MW4 1040   0.043   1.924   0.833
  253SOL     OW 1041   0.239   2.074   0.697
  253SOL    HW2 1042   0.225   2.158   0.740
  253SOL    HW3 1043   0.189   2.080   0.616
  253SOL    MW4 1044   0.231   2.086   0.692
  254SOL     OW 1045   0.189   2.344   0.804
  254SOL    HW2 1046   0.194   2.338   0.899
  254SOL    HW3 1047   0.279   2.359   0.776
  254SOL    MW4 1048   0.201   2.345   0.813
  255SOL     OW 1049   4.452   2.463   0.671
  255SOL    HW2 1050   4.400   2.412   0.734
  255SOL    HW3 1051   4.543   2.441   0.693
  255SOL    MW4 1052   4.457   2.453   0.682
  256SOL     OW 1053   4.452   2.706   0.801
  256SOL    HW2 1054   4.415   2.685   0.887
  256SOL    HW3 1055   4.463   2.622   0.758
  256SOL    MW4 1056   4.449   2.692   0.807
  257SOL     OW 1057   0.180   2.816   0.691
  257SOL    HW2 1058   0.119   2.761   0.740
  257SOL    HW3 1059   0.179   2.780   0.603
  257SOL    MW4 1060   0.172   2.804   0.686
  258SOL     OW 1061   0.191   3.090   0.809
  258SOL    HW2 1062   0.183   3.080   0.904
  258SOL    HW3 1063   0.176   3.002   0.774
  258SOL    MW4 1064   0.188   3.077   0.817
  259SOL     OW 1065   4.471   3.212   0.692
  259SOL    HW2 1066   4.550   3.176   0.733
  259SOL    HW3 1067   4.498   3.232   0.602
  259SOL    MW4 1068   4.485   3.210   0.686
  260SOL     OW 1069   4.485   3.453   0.831
  260SOL    HW2 1070   4.414   3.511   0.804
  260SOL    HW3 1071   4.467   3.371   0.784
  260SOL    MW4 1072   4.473   3.450   0.821
  261SOL     OW 1073   0.242   3.555   0.754
  261SOL    HW2 1074   0.157   3.520   0.780
  261SOL    HW3 1075   0.246   3.541   0.660
  261SOL    MW4 1076   0.231   3.549   0.745
  262SOL     OW 1077   0.195   3.835   0.847
  262SOL    HW2 1078   0.188   3.833   0.943
  262SOL    HW3 1079   0.202   3.742   0.823
  262SOL    MW4 1080   0.195   3.822   0.857
  263SOL     OW 1081   4.487   3.982   0.719
  263SOL    HW2 1082   4.405   3.939   0.746
  263SOL    HW3 1083   4.555   3.937   0.769
  263SOL    MW4 1084   4.485   3.970   0.730
  264SOL     OW 1085   4.456   4.244   0.817
  264SOL    HW2 1086   4.458   4.245   0.913
  264SOL    HW3 1087   4.457   4.151   0.794
  264SOL    MW4 1088   4.457   4.232   0.826
  265SOL     OW 1089   0.228   4.270   0.727
  265SOL    HW2 1090   0.142   4.250   0.764
  265SOL    HW3 1091   0.213   4.277   0.632
  265SOL    MW4 1092   0.215   4.268   0.719
  266SOL     OW 1093   0.701   4.652   0.772
  266SOL    HW2 1094   0.688   4.649   0.867
  266SOL    HW3 1095   0.616   4.679   0.737
  266SOL    MW4 1096   0.688   4.655   0.780
  267SOL     OW 1097   0.451   0.066   0.733
  267SOL    HW2 1098   0.403  -0.004   0.777
  267SOL    HW3 1099   0.434   0.053   0.640
  267SOL    MW4 1100   0.443   0.055   0.727
  268SOL     OW 1101   0.463   0.340   0.818
  268SOL    HW2 1102   0.541   0.379   0.779
  268SOL    HW3 1103   0.465   0.248   0.789
  268SOL    MW4 1104   0.473   0.333   0.809
  269SOL     OW 1105   0.691   0.438   0.685
  269SOL    HW2 1106   0.765   0.385   0.715
  269SOL    HW3 1107   0.670   0.403   0.598
  269SOL    MW4 1108   0.698   0.426   0.678
  270SOL     OW 1109   0.685   0.701   0.792
  270SOL    HW2 1110   0.598   0.726   0.762
  270SOL    HW3 1111   0.702   0.616   0.751
  270SOL    MW4 1112   0.676   0.693   0.783
  271SOL     OW 1113   0.442   0.800   0.700
  271SOL    HW2 1114   0.452   0.887   0.738
  271SOL    HW3 1115   0.356   0.770   0.729
  271SOL    MW4 1116   0.432   0.807   0.709
  272SOL     OW 1117   0.496   1.061   0.818
  272SOL    HW2 1118   0.572   1.109   0.786
  272SOL    HW3 1119   0.422   1.118   0.796
  272SOL    MW4 1120   0.496   1.075   0.811
  273SOL     OW 1121   0.678   1.229   0.718
  273SOL    HW2 1122   0.672   1.324   0.723
  273SOL    HW3 1123   0.650   1.208   0.628
  273SOL    MW4 1124   0.673   1.239   0.706
  274SOL     OW 1125   0.657   1.518   0.779
  274SOL    HW2 1126   0.663   1.530   0.874
  274SOL    HW3 1127   0.576   1.564   0.754
  274SOL    MW4 1128   0.647   1.525   0.788
  275SOL     OW 1129   0.416   1.630   0.695
  275SOL    HW2 1130   0.431   1.724   0.687
  275SOL    HW3 1131   0.402   1.600   0.605
  275SOL    MW4 1132   0.416   1.638   0.682
  276SOL     OW 1133   0.465   1.899   0.638
  276SOL    HW2 1134   0.396   1.964   0.656
  276SOL    HW3 1135   0.520   1.941   0.571
  276SOL    MW4 1136   0.463   1.913   0.631
  277SOL     OW 1137   0.604   1.965   0.866
  277SOL    HW2 1138   0.555   1.947   0.947
  277SOL    HW3 1139   0.541   1.947   0.796
  277SOL    MW4 1140   0.589   1.960   0.867
  278SOL     OW 1141   0.641   2.251   0.815
  278SOL    HW2 1142   0.659   2.277   0.905
  278SOL    HW3 1143   0.633   2.156   0.818
  278SOL    MW4 1144   0.642   2.242   0.827
  279SOL     OW 1145   0.440   2.399   0.697
  279SOL    HW2 1146   0.516   2.355   0.735
  279SOL    HW3 1147   0.448   2.383   0.603
  279SOL    MW4 1148   0.451   2.391   0.689
  280SOL     OW 1149   0.444   2.686   0.759
  280SOL    HW2 1150   0.435   2.592   0.747
  280SOL    HW3 1151   0.364   2.724   0.723
  280SOL    MW4 1152   0.432   2.679   0.753
  281SOL     OW 1153   0.668   2.810   0.674
  281SOL    HW2 1154   0.728   2.760   0.730
  281SOL    HW3 1155   0.581   2.782   0.702
  281SOL    MW4 1156   0.664   2.800   0.685
  282SOL     OW 1157   0.670   3.021   0.853
  282SOL    HW2 1158   0.620   3.085   0.803
  282SOL    HW3 1159   0.679   2.946   0.793
  282SOL    MW4 1160   0.665   3.019   0.838
  283SOL     OW 1161   0.446   3.155   0.752
  283SOL    HW2 1162   0.446   3.243   0.790
  283SOL    HW3 1163   0.358   3.121   0.771
  283SOL    MW4 1164   0.434   3.162   0.759
  284SOL     OW 1165   0.470   3.418   0.860
  284SOL    HW2 1166   0.456   3.423   0.955
  284SOL    HW3 1167   0.391   3.454   0.821
  284SOL    MW4 1168   0.458   3.424   0.867
  285SOL     OW 1169   0.688   3.583   0.762
  285SOL    HW2 1170   0.610   3.534   0.790
  285SOL    HW3 1171   0.668   3.673   0.786
  285SOL    MW4 1172   0.675   3.588   0.769
  286SOL     OW 1173   0.643   3.848   0.848
  286SOL    HW2 1174   0.711   3.887   0.792
  286SOL    HW3 1175   0.561   3.868   0.804
  286SOL    MW4 1176   0.641   3.856   0.835
  287SOL     OW 1177   0.422   3.931   0.718
  287SOL    HW2 1178   0.430   4.024   0.738
  287SOL    HW3 1179   0.339   3.905   0.758
  287SOL    MW4 1180   0.413   3.940   0.725
  288SOL     OW 1181   0.504   4.219   0.766
  288SOL    HW2 1182   0.499   4.217   0.861
  288SOL    HW3 1183   0.417   4.248   0.738
  288SOL    MW4 1184   0.492   4.223   0.775
  289SOL     OW 1185   0.728   4.374   0.720
  289SOL    HW2 1186   0.652   4.326   0.752
  289SOL    HW3 1187   0.708   4.466   0.739
  289SOL    MW4 1188   0.716   4.380   0.726
  290SOL     OW 1189   1.184   4.627   0.805
  290SOL    HW2 1190   1.263   4.669   0.770
  290SOL    HW3 1191   1.112   4.671   0.760
  290SOL    MW4 1192   1.185   4.638   0.795
  291SOL     OW 1193   0.949   0.074   0.702
  291SOL    HW2 1194   0.933   0.167   0.717
  291SOL    HW3 1195   0.872   0.030   0.738
  291SOL    MW4 1196   0.937   0.081   0.709
  292SOL     OW 1197   0.929   0.328   0.812
  292SOL    HW2 1198   0.921   0.341   0.907
  292SOL    HW3 1199   0.990   0.395   0.784
  292SOL    MW4 1200   0.936   0.338   0.821
  293SOL     OW 1201   1.134   0.513   0.707
  293SOL    HW2 1202   1.215   0.485   0.750
  293SOL    HW3 1203   1.135   0.470   0.622
  293SOL    MW4 1204   1.144   0.504   0.702
  294SOL     OW 1205   1.106   0.781   0.794
  294SOL    HW2 1206   1.118   0.790   0.889
  294SOL    HW3 1207   1.111   0.687   0.778
  294SOL    MW4 1208   1.108   0.770   0.805
  295SOL     OW 1209   0.862   0.877   0.670
  295SOL    HW2 1210   0.938   0.825   0.695
  295SOL    HW3 1211   0.787   0.830   0.708
  295SOL    MW4 1212   0.862   0.864   0.679
  296SOL     OW 1213   0.906   1.086   0.829
  296SOL    HW2 1214   0.895   0.999   0.789
  296SOL    HW3 1215   0.834   1.138   0.792
  296SOL    MW4 1216   0.895   1.081   0.819
  297SOL     OW 1217   1.122   1.245   0.762
  297SOL    HW2 1218   1.060   1.174   0.781
  297SOL    HW3 1219   1.120   1.253   0.667
  297SOL    MW4 1220   1.113   1.237   0.752
  298SOL     OW 1221   1.067   1.517   0.823
  298SOL    HW2 1222   0.999   1.526   0.755
  298SOL    HW3 1223   1.082   1.422   0.828
  298SOL    MW4 1224   1.060   1.505   0.815
  299SOL     OW 1225   0.874   1.579   0.630
  299SOL    HW2 1226   0.873   1.671   0.604
  299SOL    HW3 1227   0.789   1.565   0.671
  299SOL    MW4 1228   0.863   1.589   0.632
  300SOL     OW 1229   0.886   1.967   0.836
  300SOL    HW2 1230   0.910   1.943   0.925
  300SOL    HW3 1231   0.791   1.963   0.834
  300SOL    MW4 1232   0.877   1.963   0.847
  301SOL     OW 1233   1.135   2.037   0.744
  301SOL    HW2 1234   1.148   2.126   0.775
  301SOL    HW3 1235   1.040   2.025   0.744
  301SOL    MW4 1236   1.124   2.047   0.748
  302SOL     OW 1237   1.121   2.298   0.833
  302SOL    HW2 1238   1.150   2.302   0.925
  302SOL    HW3 1239   1.163   2.374   0.792
  302SOL    MW4 1240   1.131   2.309   0.840
  303SOL     OW 1241   0.875   2.419   0.795
  303SOL    HW2 1242   0.950   2.369   0.827
  303SOL    HW3 1243   0.800   2.362   0.812
  303SOL    MW4 1244   0.875   2.405   0.801
  304SOL     OW 1245   0.878   2.707   0.833
  304SOL    HW2 1246   0.888   2.722   0.927
  304SOL    HW3 1247   0.868   2.612   0.825
  304SOL    MW4 1248   0.878   2.696   0.844
  305SOL     OW 1249   1.101   2.887   0.786
  305SOL    HW2 1250   1.067   2.957   0.842
  305SOL    HW3 1251   1.025   2.831   0.769
  305SOL    MW4 1252   1.086   2.889   0.791
  306SOL     OW 1253   0.929   3.123   0.863
  306SOL    HW2 1254   0.840   3.087   0.855
  306SOL    HW3 1255   0.918   3.217   0.846
  306SOL    MW4 1256   0.916   3.131   0.859
  307SOL     OW 1257   0.873   3.351   0.535
  307SOL    HW2 1258   0.845   3.439   0.508
  307SOL    HW3 1259   0.900   3.361   0.626
  307SOL    MW4 1260   0.873   3.364   0.543
  308SOL     OW 1261   0.894   3.393   0.804
  308SOL    HW2 1262   0.979   3.427   0.774
  308SOL    HW3 1263   0.833   3.465   0.791
  308SOL    MW4 1264   0.897   3.407   0.798
  309SOL     OW 1265   1.125   3.551   0.737
  309SOL    HW2 1266   1.211   3.545   0.778
  309SOL    HW3 1267   1.141   3.531   0.645
  309SOL    MW4 1268   1.138   3.548   0.731
  310SOL     OW 1269   1.020   3.821   0.831
  310SOL    HW2 1270   1.029   3.836   0.925
  310SOL    HW3 1271   1.062   3.736   0.816
  310SOL    MW4 1272   1.027   3.812   0.841
  311SOL     OW 1273   0.834   3.971   0.694
  311SOL    HW2 1274   0.851   4.056   0.735
  311SOL    HW3 1275   0.900   3.913   0.731
  311SOL    MW4 1276   0.845   3.974   0.704
  312SOL     OW 1277   0.926   4.214   0.830
  312SOL    HW2 1278   1.014   4.249   0.819
  312SOL    HW3 1279   0.869   4.278   0.787
  312SOL    MW4 1280   0.930   4.227   0.823
  313SOL     OW 1281   1.142   4.364   0.771
  313SOL    HW2 1282   1.219   4.333   0.819
  313SOL    HW3 1283   1.146   4.459   0.778
  313SOL    MW4 1284   1.153   4.372   0.778
  314SOL     OW 1285   1.596   4.655   0.860
  314SOL    HW2 1286   1.578   4.675   0.952
  314SOL    HW3 1287   1.535   4.709   0.811
  314SOL    MW4 1288   1.586   4.664   0.866
  315SOL     OW 1289   1.410   0.144   0.743
  315SOL    HW2 1290   1.382   0.224   0.787
  315SOL    HW3 1291   1.411   0.166   0.650
  315SOL    MW4 1292   1.406   0.157   0.737
  316SOL     OW 1293   1.358   0.395   0.807
  316SOL    HW2 1294   1.363   0.411   0.901
  316SOL    HW3 1295   1.442   0.426   0.773
  316SOL    MW4 1296   1.370   0.401   0.815
  317SOL     OW 1297   1.609   0.509   0.757
  317SOL    HW2 1298   1.611   0.601   0.785
  317SOL    HW3 1299   1.686   0.470   0.797
  317SOL    MW4 1300   1.619   0.516   0.766
  318SOL     OW 1301   1.582   0.756   0.843
  318SOL    HW2 1302   1.652   0.816   0.816
  318SOL    HW3 1303   1.504   0.788   0.798
  318SOL    MW4 1304   1.581   0.768   0.833
  319SOL     OW 1305   1.356   0.852   0.715
  319SOL    HW2 1306   1.363   0.947   0.718
  319SOL    HW3 1307   1.265   0.833   0.739
  319SOL    MW4 1308   1.345   0.862   0.718
  320SOL     OW 1309   1.382   1.111   0.762
  320SOL    HW2 1310   1.447   1.179   0.743
  320SOL    HW3 1311   1.298   1.155   0.751
  320SOL    MW4 1312   1.379   1.126   0.758
  321SOL     OW 1313   1.582   1.269   0.678
  321SOL    HW2 1314   1.556   1.360   0.661
  321SOL    HW3 1315   1.586   1.229   0.591
  321SOL    MW4 1316   1.579   1.276   0.664
  322SOL     OW 1317   1.686   1.642   0.858
  322SOL    HW2 1318   1.655   1.631   0.948
  322SOL    HW3 1319   1.765   1.588   0.854
  322SOL    MW4 1320   1.692   1.633   0.870
  323SOL     OW 1321   1.280   1.662   0.703
  323SOL    HW2 1322   1.315   1.729   0.762
  323SOL    HW3 1323   1.217   1.613   0.756
  323SOL    MW4 1324   1.276   1.664   0.718
  324SOL     OW 1325   1.339   1.873   0.878
  324SOL    HW2 1326   1.326   1.885   0.972
  324SOL    HW3 1327   1.260   1.909   0.838
  324SOL    MW4 1328   1.327   1.879   0.885
  325SOL     OW 1329   1.511   2.036   0.753
  325SOL    HW2 1330   1.478   2.024   0.664
  325SOL    HW3 1331   1.450   1.987   0.808
  325SOL    MW4 1332   1.499   2.028   0.748
  326SOL     OW 1333   1.492   2.337   0.778
  326SOL    HW2 1334   1.414   2.373   0.737
  326SOL    HW3 1335   1.481   2.242   0.772
  326SOL    MW4 1336   1.480   2.329   0.772
  327SOL     OW 1337   1.271   2.506   0.718
  327SOL    HW2 1338   1.288   2.588   0.763
  327SOL    HW3 1339   1.271   2.529   0.625
  327SOL    MW4 1340   1.273   2.520   0.711
  328SOL     OW 1341   1.336   2.746   0.850
  328SOL    HW2 1342   1.341   2.724   0.943
  328SOL    HW3 1343   1.260   2.803   0.842
  328SOL    MW4 1344   1.327   2.751   0.861
  329SOL     OW 1345   1.588   2.827   0.744
  329SOL    HW2 1346   1.589   2.920   0.769
  329SOL    HW3 1347   1.503   2.795   0.775
  329SOL    MW4 1348   1.577   2.835   0.751
  330SOL     OW 1349   1.600   3.096   0.822
  330SOL    HW2 1350   1.578   3.069   0.911
  330SOL    HW3 1351   1.536   3.164   0.801
  330SOL    MW4 1352   1.589   3.101   0.831
  331SOL     OW 1353   1.415   3.258   0.718
  331SOL    HW2 1354   1.363   3.184   0.687
  331SOL    HW3 1355   1.467   3.284   0.643
  331SOL    MW4 1356   1.415   3.252   0.704
  332SOL     OW 1357   1.382   3.500   0.865
  332SOL    HW2 1358   1.455   3.541   0.820
  332SOL    HW3 1359   1.383   3.409   0.834
  332SOL    MW4 1360   1.392   3.493   0.855
  333SOL     OW 1361   1.594   3.618   0.746
  333SOL    HW2 1362   1.676   3.572   0.761
  333SOL    HW3 1363   1.609   3.667   0.665
  333SOL    MW4 1364   1.607   3.619   0.737
  334SOL     OW 1365   1.526   3.893   0.821
  334SOL    HW2 1366   1.439   3.914   0.789
  334SOL    HW3 1367   1.535   3.798   0.806
  334SOL    MW4 1368   1.516   3.883   0.815
  335SOL     OW 1369   1.261   3.969   0.772
  335SOL    HW2 1370   1.193   3.922   0.820
  335SOL    HW3 1371   1.237   3.960   0.680
  335SOL    MW4 1372   1.249   3.962   0.766
  336SOL     OW 1373   1.375   4.239   0.857
  336SOL    HW2 1374   1.451   4.287   0.825
  336SOL    HW3 1375   1.376   4.158   0.806
  336SOL    MW4 1376   1.385   4.234   0.846
  337SOL     OW 1377   1.579   4.401   0.786
  337SOL    HW2 1378   1.668   4.367   0.799
  337SOL    HW3 1379   1.583   4.491   0.816
  337SOL    MW4 1380   1.591   4.408   0.792
  338SOL     OW 1381   1.806   0.160   0.763
  338SOL    HW2 1382   1.875   0.095   0.747
  338SOL    HW3 1383   1.738   0.111   0.809
  338SOL    MW4 1384   1.806   0.145   0.767
  339SOL     OW 1385   1.758   0.197   0.498
  339SOL    HW2 1386   1.664   0.212   0.498
  339SOL    HW3 1387   1.780   0.182   0.590
  339SOL    MW4 1388   1.749   0.197   0.510
  340SOL     OW 1389   1.841   0.417   0.853
  340SOL    HW2 1390   1.846   0.331   0.811
  340SOL    HW3 1391   1.903   0.471   0.804
  340SOL    MW4 1392   1.850   0.413   0.841
  341SOL     OW 1393   2.072   0.548   0.731
  341SOL    HW2 1394   2.104   0.536   0.642
  341SOL    HW3 1395   2.120   0.484   0.783
  341SOL    MW4 1396   2.082   0.538   0.726
  342SOL     OW 1397   2.040   0.811   0.772
  342SOL    HW2 1398   2.129   0.834   0.796
  342SOL    HW3 1399   2.041   0.715   0.762
  342SOL    MW4 1400   2.052   0.801   0.774
  343SOL     OW 1401   1.778   0.908   0.706
  343SOL    HW2 1402   1.773   1.002   0.727
  343SOL    HW3 1403   1.866   0.882   0.732
  343SOL    MW4 1404   1.789   0.917   0.712
  344SOL     OW 1405   1.798   1.163   0.805
  344SOL    HW2 1406   1.884   1.203   0.792
  344SOL    HW3 1407   1.738   1.218   0.755
  344SOL    MW4 1408   1.802   1.175   0.797
  345SOL     OW 1409   2.050   1.272   0.750
  345SOL    HW2 1410   2.122   1.218   0.783
  345SOL    HW3 1411   2.063   1.273   0.655
  345SOL    MW4 1412   2.062   1.265   0.742
  346SOL     OW 1413   1.977   1.532   0.837
  346SOL    HW2 1414   2.061   1.573   0.817
  346SOL    HW3 1415   1.993   1.438   0.825
  346SOL    MW4 1416   1.990   1.525   0.833
  347SOL     OW 1417   1.819   1.363   0.385
  347SOL    HW2 1418   1.754   1.416   0.340
  347SOL    HW3 1419   1.825   1.400   0.473
  347SOL    MW4 1420   1.811   1.375   0.391
  348SOL     OW 1421   1.742   1.923   0.845
  348SOL    HW2 1422   1.715   1.831   0.846
  348SOL    HW3 1423   1.662   1.971   0.823
  348SOL    MW4 1424   1.728   1.917   0.842
  349SOL     OW 1425   1.968   2.067   0.751
  349SOL    HW2 1426   1.978   2.161   0.767
  349SOL    HW3 1427   1.888   2.043   0.798
  349SOL    MW4 1428   1.959   2.076   0.760
  350SOL     OW 1429   2.002   2.336   0.850
  350SOL    HW2 1430   2.018   2.328   0.944
  350SOL    HW3 1431   1.930   2.399   0.843
  350SOL    MW4 1432   1.994   2.343   0.861
  351SOL     OW 1433   1.766   2.495   0.734
  351SOL    HW2 1434   1.679   2.456   0.745
  351SOL    HW3 1435   1.774   2.509   0.640
  351SOL    MW4 1436   1.755   2.492   0.723
  352SOL     OW 1437   1.817   2.727   0.872
  352SOL    HW2 1438   1.801   2.644   0.828
  352SOL    HW3 1439   1.741   2.781   0.850
  352SOL    MW4 1440   1.805   2.723   0.863
  353SOL     OW 1441   2.031   2.811   0.704
  353SOL    HW2 1442   2.112   2.803   0.754
  353SOL    HW3 1443   1.961   2.790   0.766
  353SOL    MW4 1444   2.032   2.807   0.718
  354SOL     OW 1445   2.030   3.057   0.793
  354SOL    HW2 1446   1.962   3.098   0.740
  354SOL    HW3 1447   2.038   2.969   0.757
  354SOL    MW4 1448   2.022   3.051   0.781
  355SOL     OW 1449   1.838   3.233   0.697
  355SOL    HW2 1450   1.749   3.202   0.713
  355SOL    HW3 1451   1.837   3.260   0.605
  355SOL    MW4 1452   1.826   3.233   0.687
  356SOL     OW 1453   1.838   3.495   0.795
  356SOL    HW2 1454   1.836   3.505   0.890
  356SOL    HW3 1455   1.837   3.401   0.780
  356SOL    MW4 1456   1.837   3.484   0.805
  357SOL     OW 1457   2.062   3.633   0.726
  357SOL    HW2 1458   2.045   3.712   0.777
  357SOL    HW3 1459   1.989   3.574   0.746
  357SOL    MW4 1460   2.050   3.636   0.735
  358SOL     OW 1461   1.981   3.873   0.851
  358SOL    HW2 1462   2.001   3.892   0.943
  358SOL    HW3 1463   1.905   3.927   0.830
  358SOL    MW4 1464   1.974   3.882   0.860
  359SOL     OW 1465   1.761   4.013   0.734
  359SOL    HW2 1466   1.668   3.992   0.747
  359SOL    HW3 1467   1.782   3.980   0.647
  359SOL    MW4 1468   1.752   4.006   0.725
  360SOL     OW 1469   1.806   4.277   0.820
  360SOL    HW2 1470   1.821   4.268   0.914
  360SOL    HW3 1471   1.810   4.187   0.786
  360SOL    MW4 1472   1.808   4.264   0.828
  361SOL     OW 1473   2.033   4.397   0.698
  361SOL    HW2 1474   1.959   4.348   0.734
  361SOL    HW3 1475   2.056   4.350   0.617
  361SOL    MW4 1476   2.026   4.384   0.692
  362SOL     OW 1477   2.680   0.056   0.740
  362SOL    HW2 1478   2.639   0.050   0.654
  362SOL    HW3 1479   2.693   0.149   0.754
  362SOL    MW4 1480   2.676   0.067   0.731
  363SOL     OW 1481   2.416   0.001   0.858
  363SOL    HW2 1482   2.502   0.034   0.832
  363SOL    HW3 1483   2.422  -0.009   0.953
  363SOL    MW4 1484   2.428   0.004   0.867
  364SOL     OW 1485   2.238   0.343   0.825
  364SOL    HW2 1486   2.315   0.394   0.802
  364SOL    HW3 1487   2.246   0.263   0.774
  364SOL    MW4 1488   2.249   0.339   0.816
  365SOL     OW 1489   2.474   0.461   0.721
  365SOL    HW2 1490   2.469   0.438   0.628
  365SOL    HW3 1491   2.556   0.422   0.751
  365SOL    MW4 1492   2.484   0.453   0.713
  366SOL     OW 1493   2.482   0.740   0.696
  366SOL    HW2 1494   2.462   0.747   0.603
  366SOL    HW3 1495   2.485   0.645   0.713
  366SOL    MW4 1496   2.480   0.728   0.686
  367SOL     OW 1497   2.300   0.867   0.839
  367SOL    HW2 1498   2.341   0.849   0.924
  367SOL    HW3 1499   2.358   0.825   0.775
  367SOL    MW4 1500   2.313   0.859   0.842
  368SOL     OW 1501   2.264   1.142   0.871
  368SOL    HW2 1502   2.226   1.141   0.960
  368SOL    HW3 1503   2.275   1.049   0.850
  368SOL    MW4 1504   2.260   1.130   0.880
  369SOL     OW 1505   2.502   1.251   0.783
  369SOL    HW2 1506   2.416   1.212   0.800
  369SOL    HW3 1507   2.514   1.240   0.688
  369SOL    MW4 1508   2.492   1.245   0.772
  370SOL     OW 1509   2.444   1.541   0.786
  370SOL    HW2 1510   2.527   1.585   0.774
  370SOL    HW3 1511   2.467   1.449   0.798
  370SOL    MW4 1512   2.458   1.535   0.786
  371SOL     OW 1513   2.202   1.648   0.715
  371SOL    HW2 1514   2.290   1.618   0.741
  371SOL    HW3 1515   2.195   1.626   0.623
  371SOL    MW4 1516   2.213   1.641   0.706
  372SOL     OW 1517   2.240   1.915   0.818
  372SOL    HW2 1518   2.248   1.829   0.778
  372SOL    HW3 1519   2.151   1.943   0.798
  372SOL    MW4 1520   2.229   1.907   0.810
  373SOL     OW 1521   2.449   2.034   0.721
  373SOL    HW2 1522   2.368   1.984   0.726
  373SOL    HW3 1523   2.479   2.024   0.631
  373SOL    MW4 1524   2.442   2.026   0.710
  374SOL     OW 1525   2.444   2.305   0.806
  374SOL    HW2 1526   2.534   2.326   0.779
  374SOL    HW3 1527   2.437   2.210   0.797
  374SOL    MW4 1528   2.455   2.296   0.801
  375SOL     OW 1529   2.249   2.464   0.702
  375SOL    HW2 1530   2.310   2.403   0.744
  375SOL    HW3 1531   2.162   2.432   0.727
  375SOL    MW4 1532   2.245   2.452   0.711
  376SOL     OW 1533   2.277   2.731   0.806
  376SOL    HW2 1534   2.290   2.721   0.901
  376SOL    HW3 1535   2.250   2.644   0.776
  376SOL    MW4 1536   2.275   2.718   0.815
  377SOL     OW 1537   2.521   2.833   0.709
  377SOL    HW2 1538   2.576   2.782   0.769
  377SOL    HW3 1539   2.435   2.793   0.715
  377SOL    MW4 1540   2.517   2.821   0.718
  378SOL     OW 1541   2.470   3.098   0.833
  378SOL    HW2 1542   2.486   3.085   0.926
  378SOL    HW3 1543   2.464   3.010   0.796
  378SOL    MW4 1544   2.472   3.085   0.840
  379SOL     OW 1545   2.241   3.221   0.756
  379SOL    HW2 1546   2.166   3.162   0.766
  379SOL    HW3 1547   2.316   3.168   0.783
  379SOL    MW4 1548   2.241   3.206   0.761
  380SOL     OW 1549   2.294   3.491   0.821
  380SOL    HW2 1550   2.273   3.400   0.799
  380SOL    HW3 1551   2.215   3.540   0.798
  380SOL    MW4 1552   2.281   3.485   0.815
  381SOL     OW 1553   2.539   3.644   0.758
  381SOL    HW2 1554   2.608   3.603   0.810
  381SOL    HW3 1555   2.464   3.586   0.767
  381SOL    MW4 1556   2.538   3.631   0.766
  382SOL     OW 1557   2.426   3.898   0.813
  382SOL    HW2 1558   2.343   3.927   0.775
  382SOL    HW3 1559   2.445   3.815   0.768
  382SOL    MW4 1560   2.418   3.891   0.802
  383SOL     OW 1561   2.186   4.015   0.724
  383SOL    HW2 1562   2.118   3.965   0.769
  383SOL    HW3 1563   2.165   4.005   0.631
  383SOL    MW4 1564   2.174   4.007   0.717
  384SOL     OW 1565   2.277   4.270   0.764
  384SOL    HW2 1566   2.241   4.188   0.729
  384SOL    HW3 1567   2.207   4.334   0.753
  384SOL    MW4 1568   2.263   4.267   0.758
  385SOL     OW 1569   2.513   4.405   0.788
  385SOL    HW2 1570   2.429   4.359   0.778
  385SOL    HW3 1571   2.490   4.498   0.790
  385SOL    MW4 1572   2.499   4.411   0.787
  386SOL     OW 1573   2.907   4.604   0.838
  386SOL    HW2 1574   2.904   4.509   0.828
  386SOL    HW3 1575   2.836   4.637   0.783
  386SOL    MW4 1576   2.897   4.596   0.829
  387SOL     OW 1577   2.751   4.479   0.524
  387SOL    HW2 1578   2.825   4.506   0.471
  387SOL    HW3 1579   2.688   4.551   0.515
  387SOL    MW4 1580   2.752   4.492   0.516
  388SOL     OW 1581   2.702   0.322   0.789
  388SOL    HW2 1582   2.698   0.322   0.884
  388SOL    HW3 1583   2.782   0.369   0.768
  388SOL    MW4 1584   2.712   0.328   0.798
  389SOL     OW 1585   2.932   0.475   0.757
  389SOL    HW2 1586   3.010   0.427   0.785
  389SOL    HW3 1587   2.943   0.484   0.662
  389SOL    MW4 1588   2.944   0.470   0.748
  390SOL     OW 1589   2.931   0.737   0.860
  390SOL    HW2 1590   2.952   0.736   0.953
  390SOL    HW3 1591   2.917   0.645   0.838
  390SOL    MW4 1592   2.932   0.725   0.869
  391SOL     OW 1593   2.672   0.826   0.898
  391SOL    HW2 1594   2.759   0.787   0.890
  391SOL    HW3 1595   2.623   0.792   0.823
  391SOL    MW4 1596   2.677   0.817   0.887
  392SOL     OW 1597   2.728   1.096   0.888
  392SOL    HW2 1598   2.695   1.007   0.887
  392SOL    HW3 1599   2.651   1.150   0.866
  392SOL    MW4 1600   2.713   1.092   0.885
  393SOL     OW 1601   2.911   1.263   0.754
  393SOL    HW2 1602   2.996   1.223   0.772
  393SOL    HW3 1603   2.847   1.203   0.793
  393SOL    MW4 1604   2.914   1.250   0.762
  394SOL     OW 1605   2.865   1.510   0.867
  394SOL    HW2 1606   2.946   1.550   0.835
  394SOL    HW3 1607   2.858   1.428   0.819
  394SOL    MW4 1608   2.875   1.505   0.857
  395SOL     OW 1609   2.679   1.660   0.737
  395SOL    HW2 1610   2.680   1.747   0.778
  395SOL    HW3 1611   2.743   1.609   0.788
  395SOL    MW4 1612   2.688   1.665   0.749
  396SOL     OW 1613   2.691   1.914   0.827
  396SOL    HW2 1614   2.684   1.902   0.922
  396SOL    HW3 1615   2.608   1.952   0.801
  396SOL    MW4 1616   2.679   1.917   0.836
  397SOL     OW 1617   2.855   2.056   0.670
  397SOL    HW2 1618   2.873   2.129   0.729
  397SOL    HW3 1619   2.821   1.987   0.726
  397SOL    MW4 1620   2.853   2.056   0.685
  398SOL     OW 1621   2.925   2.288   0.797
  398SOL    HW2 1622   2.923   2.295   0.892
  398SOL    HW3 1623   2.848   2.337   0.767
  398SOL    MW4 1624   2.914   2.296   0.805
  399SOL     OW 1625   2.686   2.405   0.708
  399SOL    HW2 1626   2.648   2.425   0.622
  399SOL    HW3 1627   2.688   2.490   0.753
  399SOL    MW4 1628   2.681   2.419   0.703
  400SOL     OW 1629   2.687   2.661   0.820
  400SOL    HW2 1630   2.680   2.669   0.915
  400SOL    HW3 1631   2.775   2.695   0.800
  400SOL    MW4 1632   2.698   2.667   0.830
  401SOL     OW 1633   2.889   2.792   0.487
  401SOL    HW2 1634   2.904   2.725   0.420
  401SOL    HW3 1635   2.800   2.823   0.471
  401SOL    MW4 1636   2.879   2.787   0.476
  402SOL     OW 1637   2.938   3.084   0.806
  402SOL    HW2 1638   2.859   3.114   0.762
  402SOL    HW3 1639   2.943   2.991   0.786
  402SOL    MW4 1640   2.929   3.076   0.798
  403SOL     OW 1641   2.709   3.200   0.705
  403SOL    HW2 1642   2.735   3.274   0.760
  403SOL    HW3 1643   2.631   3.165   0.748
  403SOL    MW4 1644   2.702   3.205   0.718
  404SOL     OW 1645   2.765   3.427   0.849
  404SOL    HW2 1646   2.748   3.456   0.939
  404SOL    HW3 1647   2.816   3.498   0.810
  404SOL    MW4 1648   2.769   3.441   0.856
  405SOL     OW 1649   2.916   3.633   0.758
  405SOL    HW2 1650   2.889   3.722   0.781
  405SOL    HW3 1651   2.925   3.635   0.662
  405SOL    MW4 1652   2.913   3.645   0.748
  406SOL     OW 1653   2.826   3.896   0.870
  406SOL    HW2 1654   2.830   3.871   0.963
  406SOL    HW3 1655   2.784   3.982   0.870
  406SOL    MW4 1656   2.821   3.904   0.882
  407SOL     OW 1657   2.661   4.121   0.831
  407SOL    HW2 1658   2.672   4.174   0.910
  407SOL    HW3 1659   2.587   4.064   0.850
  407SOL    MW4 1660   2.653   4.120   0.844
  408SOL     OW 1661   2.875   4.341   0.821
  408SOL    HW2 1662   2.830   4.319   0.902
  408SOL    HW3 1663   2.966   4.314   0.836
  408SOL    MW4 1664   2.881   4.335   0.833
  409SOL     OW 1665   3.057   4.303   0.363
  409SOL    HW2 1666   3.145   4.311   0.399
  409SOL    HW3 1667   3.007   4.260   0.432
  409SOL    MW4 1668   3.062   4.298   0.377
  410SOL     OW 1669   3.352   4.622   0.793
  410SOL    HW2 1670   3.333   4.618   0.887
  410SOL    HW3 1671   3.276   4.667   0.756
  410SOL    MW4 1672   3.339   4.627   0.801
  411SOL     OW 1673   3.120   0.075   0.725
  411SOL    HW2 1674   3.119   0.167   0.752
  411SOL    HW3 1675   3.047   0.035   0.773
  411SOL    MW4 1676   3.110   0.082   0.735
  412SOL     OW 1677   3.149   0.340   0.827
  412SOL    HW2 1678   3.141   0.353   0.921
  412SOL    HW3 1679   3.228   0.389   0.803
  412SOL    MW4 1680   3.158   0.348   0.836
  413SOL     OW 1681   3.406   0.450   0.771
  413SOL    HW2 1682   3.477   0.402   0.815
  413SOL    HW3 1683   3.429   0.446   0.678
  413SOL    MW4 1684   3.419   0.443   0.764
  414SOL     OW 1685   3.420   0.721   0.806
  414SOL    HW2 1686   3.373   0.745   0.726
  414SOL    HW3 1687   3.426   0.626   0.803
  414SOL    MW4 1688   3.415   0.712   0.795
  415SOL     OW 1689   3.033   0.894   0.662
  415SOL    HW2 1690   3.070   0.966   0.712
  415SOL    HW3 1691   2.985   0.842   0.726
  415SOL    MW4 1692   3.031   0.897   0.677
  416SOL     OW 1693   3.143   1.107   0.799
  416SOL    HW2 1694   3.146   1.085   0.892
  416SOL    HW3 1695   3.233   1.131   0.777
  416SOL    MW4 1696   3.155   1.107   0.808
  417SOL     OW 1697   3.403   1.227   0.744
  417SOL    HW2 1698   3.485   1.197   0.784
  417SOL    HW3 1699   3.391   1.316   0.777
  417SOL    MW4 1700   3.412   1.235   0.753
  418SOL     OW 1701   3.340   1.472   0.843
  418SOL    HW2 1702   3.360   1.482   0.936
  418SOL    HW3 1703   3.415   1.510   0.798
  418SOL    MW4 1704   3.352   1.478   0.849
  419SOL     OW 1705   3.105   1.634   0.784
  419SOL    HW2 1706   3.166   1.568   0.816
  419SOL    HW3 1707   3.119   1.638   0.690
  419SOL    MW4 1708   3.115   1.626   0.776
  420SOL     OW 1709   3.221   1.871   0.843
  420SOL    HW2 1710   3.188   1.886   0.931
  420SOL    HW3 1711   3.190   1.783   0.820
  420SOL    MW4 1712   3.213   1.861   0.851
  421SOL     OW 1713   3.487   1.966   0.888
  421SOL    HW2 1714   3.462   2.058   0.885
  421SOL    HW3 1715   3.403   1.919   0.880
  421SOL    MW4 1716   3.472   1.972   0.886
  422SOL     OW 1717   3.469   2.260   0.806
  422SOL    HW2 1718   3.452   2.273   0.899
  422SOL    HW3 1719   3.554   2.301   0.791
  422SOL    MW4 1720   3.478   2.267   0.816
  423SOL     OW 1721   3.098   2.462   0.673
  423SOL    HW2 1722   3.174   2.420   0.632
  423SOL    HW3 1723   3.053   2.390   0.719
  423SOL    MW4 1724   3.102   2.447   0.673
  424SOL     OW 1725   3.154   2.688   0.829
  424SOL    HW2 1726   3.144   2.611   0.774
  424SOL    HW3 1727   3.197   2.752   0.772
  424SOL    MW4 1728   3.159   2.686   0.814
  425SOL     OW 1729   3.285   2.889   0.685
  425SOL    HW2 1730   3.240   2.900   0.601
  425SOL    HW3 1731   3.364   2.838   0.664
  425SOL    MW4 1732   3.290   2.883   0.671
  426SOL     OW 1733   3.370   3.111   0.836
  426SOL    HW2 1734   3.346   3.115   0.929
  426SOL    HW3 1735   3.322   3.035   0.802
  426SOL    MW4 1736   3.360   3.102   0.844
  427SOL     OW 1737   3.149   3.241   0.732
  427SOL    HW2 1738   3.226   3.207   0.777
  427SOL    HW3 1739   3.078   3.183   0.760
  427SOL    MW4 1740   3.150   3.229   0.742
  428SOL     OW 1741   3.162   3.514   0.835
  428SOL    HW2 1742   3.150   3.423   0.806
  428SOL    HW3 1743   3.082   3.558   0.810
  428SOL    MW4 1744   3.150   3.508   0.828
  429SOL     OW 1745   3.326   4.312   0.502
  429SOL    HW2 1746   3.370   4.233   0.471
  429SOL    HW3 1747   3.385   4.384   0.479
  429SOL    MW4 1748   3.340   4.311   0.495
  430SOL     OW 1749   3.506   3.964   0.835
  430SOL    HW2 1750   3.537   4.055   0.829
  430SOL    HW3 1751   3.469   3.957   0.922
  430SOL    MW4 1752   3.505   3.975   0.845
  431SOL     OW 1753   3.017   4.005   0.713
  431SOL    HW2 1754   3.062   3.939   0.660
  431SOL    HW3 1755   2.949   3.956   0.760
  431SOL    MW4 1756   3.014   3.990   0.712
  432SOL     OW 1757   3.141   4.241   0.871
  432SOL    HW2 1758   3.223   4.277   0.838
  432SOL    HW3 1759   3.127   4.163   0.818
  432SOL    MW4 1760   3.150   4.235   0.860
  433SOL     OW 1761   3.378   4.336   0.763
  433SOL    HW2 1762   3.383   4.431   0.771
  433SOL    HW3 1763   3.358   4.320   0.671
  433SOL    MW4 1764   3.376   4.347   0.752
  434SOL     OW 1765   3.947   0.006   0.883
  434SOL    HW2 1766   3.927   0.095   0.854
  434SOL    HW3 1767   3.933  -0.049   0.805
  434SOL    MW4 1768   3.943   0.010   0.869
  435SOL     OW 1769   3.599   0.081   0.718
  435SOL    HW2 1770   3.512   0.051   0.745
  435SOL    HW3 1771   3.595   0.086   0.623
  435SOL    MW4 1772   3.587   0.078   0.709
  436SOL     OW 1773   3.623   0.321   0.892
  436SOL    HW2 1774   3.608   0.314   0.986
  436SOL    HW3 1775   3.601   0.235   0.857
  436SOL    MW4 1776   3.618   0.309   0.900
  437SOL     OW 1777   3.775   0.372   0.439
  437SOL    HW2 1778   3.838   0.395   0.507
  437SOL    HW3 1779   3.690   0.376   0.482
  437SOL    MW4 1780   3.772   0.376   0.453
  438SOL     OW 1781   3.871   0.648   0.789
  438SOL    HW2 1782   3.859   0.660   0.883
  438SOL    HW3 1783   3.934   0.715   0.764
  438SOL    MW4 1784   3.878   0.658   0.798
  439SOL     OW 1785   3.675   0.841   0.702
  439SOL    HW2 1786   3.741   0.774   0.718
  439SOL    HW3 1787   3.593   0.801   0.731
  439SOL    MW4 1788   3.673   0.827   0.708
  440SOL     OW 1789   3.649   1.107   0.801
  440SOL    HW2 1790   3.634   1.092   0.894
  440SOL    HW3 1791   3.670   1.020   0.766
  440SOL    MW4 1792   3.649   1.094   0.809
  441SOL     OW 1793   3.891   1.259   0.704
  441SOL    HW2 1794   3.807   1.222   0.729
  441SOL    HW3 1795   3.885   1.272   0.609
  441SOL    MW4 1796   3.879   1.256   0.694
  442SOL     OW 1797   3.823   1.521   0.800
  442SOL    HW2 1798   3.894   1.585   0.791
  442SOL    HW3 1799   3.860   1.439   0.767
  442SOL    MW4 1800   3.837   1.519   0.795
  443SOL     OW 1801   3.554   1.590   0.721
  443SOL    HW2 1802   3.551   1.684   0.701
  443SOL    HW3 1803   3.643   1.576   0.754
  443SOL    MW4 1804   3.565   1.601   0.723
  444SOL     OW 1805   3.856   1.994   0.659
  444SOL    HW2 1806   3.906   2.008   0.739
  444SOL    HW3 1807   3.766   1.981   0.688
  444SOL    MW4 1808   3.851   1.994   0.673
  445SOL     OW 1809   3.877   2.273   0.599
  445SOL    HW2 1810   3.841   2.310   0.679
  445SOL    HW3 1811   3.881   2.179   0.616
  445SOL    MW4 1812   3.873   2.265   0.612
  446SOL     OW 1813   3.983   1.617   0.463
  446SOL    HW2 1814   3.908   1.586   0.411
  446SOL    HW3 1815   3.991   1.709   0.441
  446SOL    MW4 1816   3.974   1.625   0.453
  447SOL     OW 1817   3.727   2.376   0.797
  447SOL    HW2 1818   3.702   2.468   0.800
  447SOL    HW3 1819   3.748   2.353   0.887
  447SOL    MW4 1820   3.727   2.385   0.809
  448SOL     OW 1821   3.668   2.652   0.817
  448SOL    HW2 1822   3.624   2.676   0.899
  448SOL    HW3 1823   3.727   2.725   0.799
  448SOL    MW4 1824   3.670   2.665   0.826
  449SOL     OW 1825   3.819   2.898   0.737
  449SOL    HW2 1826   3.801   2.963   0.804
  449SOL    HW3 1827   3.815   2.946   0.655
  449SOL    MW4 1828   3.816   2.913   0.735
  450SOL     OW 1829   3.723   3.093   0.880
  450SOL    HW2 1830   3.750   3.176   0.842
  450SOL    HW3 1831   3.629   3.103   0.895
  450SOL    MW4 1832   3.714   3.105   0.877
  451SOL     OW 1833   3.402   3.567   0.692
  451SOL    HW2 1834   3.413   3.484   0.647
  451SOL    HW3 1835   3.329   3.553   0.753
  451SOL    MW4 1836   3.394   3.554   0.694
  452SOL     OW 1837   3.583   3.486   0.878
  452SOL    HW2 1838   3.656   3.448   0.829
  452SOL    HW3 1839   3.517   3.504   0.812
  452SOL    MW4 1840   3.584   3.484   0.863
  453SOL     OW 1841   3.849   3.692   0.725
  453SOL    HW2 1842   3.773   3.712   0.780
  453SOL    HW3 1843   3.898   3.628   0.775
  453SOL    MW4 1844   3.845   3.687   0.739
  454SOL     OW 1845   3.648   3.748   0.915
  454SOL    HW2 1846   3.598   3.822   0.881
  454SOL    HW3 1847   3.587   3.674   0.914
  454SOL    MW4 1848   3.634   3.748   0.911
  455SOL     OW 1849   2.583   4.096   0.232
  455SOL    HW2 1850   2.561   4.087   0.139
  455SOL    HW3 1851   2.603   4.189   0.243
  455SOL    MW4 1852   2.583   4.107   0.221
  456SOL     OW 1853   3.613   4.216   0.829
  456SOL    HW2 1854   3.664   4.213   0.748
  456SOL    HW3 1855   3.534   4.263   0.806
  456SOL    MW4 1856   3.610   4.221   0.815
  457SOL     OW 1857   4.034   4.259   0.856
  457SOL    HW2 1858   3.963   4.277   0.794
  457SOL    HW3 1859   4.101   4.324   0.835
  457SOL    MW4 1860   4.033   4.270   0.845
  458SOL     OW 1861   4.224   4.665   0.863
  458SOL    HW2 1862   4.254   4.673   0.954
  458SOL    HW3 1863   4.131   4.684   0.867
  458SOL    MW4 1864   4.216   4.669   0.876
  459SOL     OW 1865   3.894   0.274   0.836
  459SOL    HW2 1866   3.925   0.327   0.763
  459SOL    HW3 1867   3.801   0.296   0.843
  459SOL    MW4 1868   3.886   0.284   0.827
  460SOL     OW 1869   3.957   0.447   0.634
  460SOL    HW2 1870   4.039   0.471   0.590
  460SOL    HW3 1871   3.931   0.527   0.680
  460SOL    MW4 1872   3.964   0.461   0.634
  461SOL     OW 1873   4.184   0.463   0.485
  461SOL    HW2 1874   4.268   0.508   0.495
  461SOL    HW3 1875   4.208   0.373   0.463
  461SOL    MW4 1876   4.198   0.457   0.483
  462SOL     OW 1877   4.315   0.722   0.795
  462SOL    HW2 1878   4.230   0.727   0.751
  462SOL    HW3 1879   4.352   0.639   0.766
  462SOL    MW4 1880   4.309   0.712   0.785
  463SOL     OW 1881   4.072   0.840   0.723
  463SOL    HW2 1882   4.080   0.922   0.772
  463SOL    HW3 1883   4.077   0.867   0.631
  463SOL    MW4 1884   4.074   0.854   0.718
  464SOL     OW 1885   4.070   1.108   0.837
  464SOL    HW2 1886   4.061   1.131   0.929
  464SOL    HW3 1887   4.008   1.166   0.792
  464SOL    MW4 1888   4.060   1.119   0.843
  465SOL     OW 1889   4.280   1.265   0.714
  465SOL    HW2 1890   4.218   1.218   0.769
  465SOL    HW3 1891   4.365   1.228   0.737
  465SOL    MW4 1892   4.283   1.254   0.724
  466SOL     OW 1893   4.276   1.538   0.830
  466SOL    HW2 1894   4.301   1.548   0.921
  466SOL    HW3 1895   4.299   1.447   0.809
  466SOL    MW4 1896   4.282   1.527   0.839
  467SOL     OW 1897   4.045   1.695   0.733
  467SOL    HW2 1898   4.111   1.630   0.757
  467SOL    HW3 1899   4.020   1.672   0.643
  467SOL    MW4 1900   4.050   1.684   0.724
  468SOL     OW 1901   4.076   1.970   0.856
  468SOL    HW2 1902   4.077   1.882   0.819
  468SOL    HW3 1903   4.155   2.012   0.821
  468SOL    MW4 1904   4.087   1.964   0.847
  469SOL     OW 1905   4.309   2.074   0.762
  469SOL    HW2 1906   4.395   2.035   0.778
  469SOL    HW3 1907   4.291   2.058   0.670
  469SOL    MW4 1908   4.318   2.067   0.752
  470SOL     OW 1909   4.262   2.344   0.841
  470SOL    HW2 1910   4.209   2.352   0.761
  470SOL    HW3 1911   4.302   2.257   0.834
  470SOL    MW4 1912   4.260   2.333   0.829
  471SOL     OW 1913   3.981   2.625   0.551
  471SOL    HW2 1914   3.978   2.633   0.647
  471SOL    HW3 1915   3.895   2.656   0.522
  471SOL    MW4 1916   3.969   2.630   0.560
  472SOL     OW 1917   3.990   2.711   0.823
  472SOL    HW2 1918   4.073   2.758   0.813
  472SOL    HW3 1919   3.924   2.773   0.792
  472SOL    MW4 1920   3.992   2.726   0.817
  473SOL     OW 1921   4.225   2.843   0.730
  473SOL    HW2 1922   4.308   2.801   0.752
  473SOL    HW3 1923   4.230   2.856   0.635
  473SOL    MW4 1924   4.236   2.839   0.720
  474SOL     OW 1925   4.264   3.093   0.837
  474SOL    HW2 1926   4.252   3.001   0.814
  474SOL    HW3 1927   4.332   3.123   0.777
  474SOL    MW4 1928   4.271   3.085   0.826
  475SOL     OW 1929   4.047   3.172   0.666
  475SOL    HW2 1930   4.119   3.182   0.729
  475SOL    HW3 1931   4.028   3.079   0.667
  475SOL    MW4 1932   4.054   3.161   0.675
  476SOL     OW 1933   4.009   3.498   0.835
  476SOL    HW2 1934   4.012   3.490   0.931
  476SOL    HW3 1935   4.100   3.508   0.809
  476SOL    MW4 1936   4.021   3.498   0.844
  477SOL     OW 1937   4.258   3.591   0.749
  477SOL    HW2 1938   4.271   3.683   0.774
  477SOL    HW3 1939   4.275   3.589   0.655
  477SOL    MW4 1940   4.262   3.603   0.740
  478SOL     OW 1941   4.278   3.858   0.820
  478SOL    HW2 1942   4.253   3.831   0.908
  478SOL    HW3 1943   4.202   3.904   0.786
  478SOL    MW4 1944   4.265   3.860   0.827
  479SOL     OW 1945   3.819   3.931   0.578
  479SOL    HW2 1946   3.826   3.853   0.633
  479SOL    HW3 1947   3.824   3.898   0.489
  479SOL    MW4 1948   3.821   3.916   0.574
  480SOL     OW 1949   4.102   4.024   0.702
  480SOL    HW2 1950   4.081   4.100   0.755
  480SOL    HW3 1951   4.017   3.990   0.673
  480SOL    MW4 1952   4.088   4.029   0.705
  481SOL     OW 1953   4.242   4.428   0.733
  481SOL    HW2 1954   4.242   4.508   0.786
  481SOL    HW3 1955   4.314   4.375   0.769
  481SOL    MW4 1956   4.251   4.431   0.745
  482SOL     OW 1957   0.207   4.641   1.088
  482SOL    HW2 1958   0.295   4.674   1.107
  482SOL    HW3 1959   0.211   4.613   0.996
  482SOL    MW4 1960   0.219   4.641   1.078
  483SOL     OW 1961   0.030   0.155   1.182
  483SOL    HW2 1962  -0.060   0.121   1.173
  483SOL    HW3 1963   0.085   0.085   1.147
  483SOL    MW4 1964   0.025   0.141   1.176
  484SOL     OW 1965   4.491   0.405   1.071
  484SOL    HW2 1966   4.400   0.417   1.098
  484SOL    HW3 1967   4.516   0.321   1.110
  484SOL    MW4 1968   4.482   0.396   1.079
  485SOL     OW 1969   0.251   0.491   1.173
  485SOL    HW2 1970   0.257   0.584   1.151
  485SOL    HW3 1971   0.162   0.466   1.149
  485SOL    MW4 1972   0.240   0.500   1.167
  486SOL     OW 1973   0.225   0.748   1.073
  486SOL    HW2 1974   0.294   0.792   1.123
  486SOL    HW3 1975   0.144   0.776   1.115
  486SOL    MW4 1976   0.224   0.758   1.085
  487SOL     OW 1977   0.001   0.893   1.159
  487SOL    HW2 1978   0.009   0.866   1.251
  487SOL    HW3 1979  -0.073   0.842   1.125
  487SOL    MW4 1980  -0.008   0.883   1.167
  488SOL     OW 1981   0.017   1.162   1.117
  488SOL    HW2 1982  -0.065   1.194   1.155
  488SOL    HW3 1983   0.023   1.071   1.148
  488SOL    MW4 1984   0.007   1.154   1.126
  489SOL     OW 1985   0.248   1.288   1.208
  489SOL    HW2 1986   0.314   1.231   1.167
  489SOL    HW3 1987   0.165   1.244   1.191
  489SOL    MW4 1988   0.246   1.275   1.200
  490SOL     OW 1989   0.216   1.524   1.064
  490SOL    HW2 1990   0.239   1.439   1.102
  490SOL    HW3 1991   0.196   1.505   0.973
  490SOL    MW4 1992   0.217   1.510   1.057
  491SOL     OW 1993   0.004   1.664   1.216
  491SOL    HW2 1994   0.009   1.755   1.187
  491SOL    HW3 1995   0.079   1.622   1.175
  491SOL    MW4 1996   0.014   1.670   1.207
  492SOL     OW 1997   0.009   1.925   1.129
  492SOL    HW2 1998  -0.078   1.949   1.160
  492SOL    HW3 1999   0.008   1.945   1.036
  492SOL    MW4 2000  -0.003   1.931   1.121
  493SOL     OW 2001   0.251   2.025   1.182
  493SOL    HW2 2002   0.233   2.116   1.157
  493SOL    HW3 2003   0.169   1.979   1.162
  493SOL    MW4 2004   0.238   2.031   1.176
  494SOL     OW 2005   0.187   2.284   1.072
  494SOL    HW2 2006   0.268   2.325   1.103
  494SOL    HW3 2007   0.118   2.330   1.119
  494SOL    MW4 2008   0.189   2.295   1.083
  495SOL     OW 2009   4.477   2.418   1.195
  495SOL    HW2 2010   4.492   2.392   1.286
  495SOL    HW3 2011   4.401   2.366   1.167
  495SOL    MW4 2012   4.469   2.408   1.203
  496SOL     OW 2013   4.431   2.649   1.075
  496SOL    HW2 2014   4.376   2.701   1.134
  496SOL    HW3 2015   4.453   2.571   1.126
  496SOL    MW4 2016   4.427   2.645   1.089
  497SOL     OW 2017   0.197   2.773   1.133
  497SOL    HW2 2018   0.194   2.760   1.227
  497SOL    HW3 2019   0.119   2.728   1.100
  497SOL    MW4 2020   0.186   2.765   1.141
  498SOL     OW 2021   0.187   3.052   1.081
  498SOL    HW2 2022   0.267   3.087   1.120
  498SOL    HW3 2023   0.191   2.958   1.100
  498SOL    MW4 2024   0.198   3.044   1.089
  499SOL     OW 2025   4.464   3.171   1.200
  499SOL    HW2 2026   4.383   3.135   1.164
  499SOL    HW3 2027   4.534   3.116   1.164
  499SOL    MW4 2028   4.463   3.159   1.191
  500SOL     OW 2029   4.435   3.430   1.106
  500SOL    HW2 2030   4.454   3.346   1.147
  500SOL    HW3 2031   4.455   3.417   1.014
  500SOL    MW4 2032   4.440   3.418   1.100
  501SOL     OW 2033   0.190   3.591   1.193
  501SOL    HW2 2034   0.183   3.590   1.289
  501SOL    HW3 2035   0.111   3.547   1.163
  501SOL    MW4 2036   0.179   3.585   1.202
  502SOL     OW 2037   0.223   3.860   1.139
  502SOL    HW2 2038   0.138   3.902   1.149
  502SOL    HW3 2039   0.206   3.768   1.161
  502SOL    MW4 2040   0.209   3.853   1.143
  503SOL     OW 2041   0.005   3.996   1.191
  503SOL    HW2 2042   0.005   3.985   1.286
  503SOL    HW3 2043  -0.081   3.964   1.164
  503SOL    MW4 2044  -0.006   3.990   1.200
  504SOL     OW 2045   4.485   4.264   1.103
  504SOL    HW2 2046   4.558   4.307   1.148
  504SOL    HW3 2047   4.494   4.172   1.126
  504SOL    MW4 2048   4.496   4.258   1.112
  505SOL     OW 2049   0.226   4.372   1.194
  505SOL    HW2 2050   0.257   4.371   1.284
  505SOL    HW3 2051   0.221   4.465   1.172
  505SOL    MW4 2052   0.230   4.384   1.203
  506SOL     OW 2053   0.668   4.642   1.079
  506SOL    HW2 2054   0.755   4.667   1.111
  506SOL    HW3 2055   0.663   4.548   1.094
  506SOL    MW4 2056   0.679   4.633   1.085
  507SOL     OW 2057   0.439   0.093   1.158
  507SOL    HW2 2058   0.446   0.188   1.143
  507SOL    HW3 2059   0.519   0.057   1.119
  507SOL    MW4 2060   0.451   0.101   1.151
  508SOL     OW 2061   0.471   0.356   1.096
  508SOL    HW2 2062   0.397   0.412   1.118
  508SOL    HW3 2063   0.467   0.347   1.000
  508SOL    MW4 2064   0.461   0.362   1.086
  509SOL     OW 2065   0.714   0.475   1.197
  509SOL    HW2 2066   0.695   0.568   1.185
  509SOL    HW3 2067   0.634   0.431   1.167
  509SOL    MW4 2068   0.701   0.481   1.191
  510SOL     OW 2069   0.687   0.739   1.085
  510SOL    HW2 2070   0.601   0.770   1.114
  510SOL    HW3 2071   0.682   0.742   0.989
  510SOL    MW4 2072   0.675   0.744   1.076
  511SOL     OW 2073   0.436   0.872   1.207
  511SOL    HW2 2074   0.444   0.870   1.302
  511SOL    HW3 2075   0.459   0.962   1.182
  511SOL    MW4 2076   0.440   0.884   1.216
  512SOL     OW 2077   0.458   1.116   1.093
  512SOL    HW2 2078   0.525   1.178   1.121
  512SOL    HW3 2079   0.476   1.100   1.001
  512SOL    MW4 2080   0.469   1.122   1.085
  513SOL     OW 2081   0.663   1.279   1.156
  513SOL    HW2 2082   0.748   1.237   1.145
  513SOL    HW3 2083   0.678   1.371   1.133
  513SOL    MW4 2084   0.676   1.285   1.152
  514SOL     OW 2085   0.681   1.541   1.076
  514SOL    HW2 2086   0.752   1.589   1.118
  514SOL    HW3 2087   0.602   1.592   1.096
  514SOL    MW4 2088   0.680   1.554   1.085
  515SOL     OW 2089   0.461   1.669   1.161
  515SOL    HW2 2090   0.461   1.643   1.253
  515SOL    HW3 2091   0.378   1.634   1.127
  515SOL    MW4 2092   0.450   1.661   1.169
  516SOL     OW 2093   0.487   1.935   1.115
  516SOL    HW2 2094   0.483   1.843   1.138
  516SOL    HW3 2095   0.401   1.970   1.138
  516SOL    MW4 2096   0.475   1.928   1.121
  517SOL     OW 2097   0.684   2.106   1.215
  517SOL    HW2 2098   0.673   2.118   1.309
  517SOL    HW3 2099   0.612   2.050   1.189
  517SOL    MW4 2100   0.673   2.100   1.224
  518SOL     OW 2101   0.686   2.348   1.074
  518SOL    HW2 2102   0.606   2.394   1.099
  518SOL    HW3 2103   0.676   2.260   1.110
  518SOL    MW4 2104   0.674   2.342   1.082
  519SOL     OW 2105   0.410   2.418   1.167
  519SOL    HW2 2106   0.423   2.422   1.261
  519SOL    HW3 2107   0.415   2.509   1.138
  519SOL    MW4 2108   0.412   2.431   1.175
  520SOL     OW 2109   0.421   2.663   1.027
  520SOL    HW2 2110   0.334   2.700   1.038
  520SOL    HW3 2111   0.438   2.670   0.932
  520SOL    MW4 2112   0.412   2.669   1.016
  521SOL     OW 2113   0.617   2.765   1.221
  521SOL    HW2 2114   0.626   2.855   1.189
  521SOL    HW3 2115   0.543   2.729   1.173
  521SOL    MW4 2116   0.609   2.772   1.211
  522SOL     OW 2117   0.639   3.037   1.140
  522SOL    HW2 2118   0.720   3.078   1.173
  522SOL    HW3 2119   0.654   3.030   1.046
  522SOL    MW4 2120   0.652   3.042   1.132
  523SOL     OW 2121   0.405   3.171   1.189
  523SOL    HW2 2122   0.436   3.259   1.167
  523SOL    HW3 2123   0.481   3.115   1.172
  523SOL    MW4 2124   0.419   3.175   1.184
  524SOL     OW 2125   0.430   3.442   1.130
  524SOL    HW2 2126   0.512   3.490   1.146
  524SOL    HW3 2127   0.361   3.503   1.155
  524SOL    MW4 2128   0.432   3.456   1.136
  525SOL     OW 2129   0.659   3.583   1.184
  525SOL    HW2 2130   0.666   3.577   1.280
  525SOL    HW3 2131   0.663   3.677   1.166
  525SOL    MW4 2132   0.660   3.594   1.194
  526SOL     OW 2133   0.660   3.850   1.127
  526SOL    HW2 2134   0.601   3.914   1.167
  526SOL    HW3 2135   0.640   3.854   1.034
  526SOL    MW4 2136   0.650   3.859   1.120
  527SOL     OW 2137   0.455   4.020   1.212
  527SOL    HW2 2138   0.455   4.098   1.157
  527SOL    HW3 2139   0.386   3.965   1.176
  527SOL    MW4 2140   0.446   4.023   1.200
  528SOL     OW 2141   0.457   4.257   1.052
  528SOL    HW2 2142   0.522   4.291   1.115
  528SOL    HW3 2143   0.375   4.297   1.079
  528SOL    MW4 2144   0.455   4.267   1.064
  529SOL     OW 2145   0.639   4.375   1.212
  529SOL    HW2 2146   0.641   4.355   1.306
  529SOL    HW3 2147   0.717   4.334   1.177
  529SOL    MW4 2148   0.649   4.367   1.220
  530SOL     OW 2149   1.147   4.627   1.089
  530SOL    HW2 2150   1.139   4.537   1.120
  530SOL    HW3 2151   1.128   4.623   0.996
  530SOL    MW4 2152   1.144   4.615   1.081
  531SOL     OW 2153   0.897   0.086   1.169
  531SOL    HW2 2154   0.902   0.079   1.264
  531SOL    HW3 2155   0.978   0.047   1.137
  531SOL    MW4 2156   0.908   0.080   1.177
  532SOL     OW 2157   0.943   0.346   1.087
  532SOL    HW2 2158   0.941   0.251   1.103
  532SOL    HW3 2159   0.860   0.377   1.125
  532SOL    MW4 2160   0.931   0.337   1.094
  533SOL     OW 2161   1.141   0.523   1.149
  533SOL    HW2 2162   1.141   0.517   1.245
  533SOL    HW3 2163   1.074   0.461   1.121
  533SOL    MW4 2164   1.132   0.514   1.158
  534SOL     OW 2165   1.111   0.786   1.073
  534SOL    HW2 2166   1.036   0.837   1.101
  534SOL    HW3 2167   1.097   0.699   1.112
  534SOL    MW4 2168   1.099   0.781   1.081
  535SOL     OW 2169   0.879   0.879   1.202
  535SOL    HW2 2170   0.865   0.963   1.159
  535SOL    HW3 2171   0.810   0.822   1.167
  535SOL    MW4 2172   0.868   0.882   1.192
  536SOL     OW 2173   0.884   1.131   1.107
  536SOL    HW2 2174   0.961   1.178   1.140
  536SOL    HW3 2175   0.899   1.123   1.013
  536SOL    MW4 2176   0.896   1.136   1.099
  537SOL     OW 2177   1.110   1.273   1.199
  537SOL    HW2 2178   1.100   1.247   1.290
  537SOL    HW3 2179   1.188   1.228   1.169
  537SOL    MW4 2180   1.119   1.264   1.207
  538SOL     OW 2181   1.132   1.533   1.106
  538SOL    HW2 2182   1.121   1.446   1.146
  538SOL    HW3 2183   1.087   1.527   1.022
  538SOL    MW4 2184   1.125   1.521   1.100
  539SOL     OW 2185   0.896   1.656   1.189
  539SOL    HW2 2186   0.885   1.748   1.162
  539SOL    HW3 2187   0.983   1.632   1.158
  539SOL    MW4 2188   0.906   1.665   1.181
  540SOL     OW 2189   0.900   1.940   1.125
  540SOL    HW2 2190   0.975   1.991   1.156
  540SOL    HW3 2191   0.823   1.992   1.151
  540SOL    MW4 2192   0.900   1.954   1.133
  541SOL     OW 2193   1.114   2.082   1.210
  541SOL    HW2 2194   1.096   2.072   1.303
  541SOL    HW3 2195   1.119   2.177   1.197
  541SOL    MW4 2196   1.112   2.093   1.221
  542SOL     OW 2197   1.151   2.333   1.108
  542SOL    HW2 2198   1.235   2.363   1.143
  542SOL    HW3 2199   1.087   2.394   1.144
  542SOL    MW4 2200   1.154   2.345   1.117
  543SOL     OW 2201   0.899   2.458   1.211
  543SOL    HW2 2202   0.890   2.447   1.305
  543SOL    HW3 2203   0.816   2.428   1.174
  543SOL    MW4 2204   0.887   2.453   1.218
  544SOL     OW 2205   0.863   2.715   1.111
  544SOL    HW2 2206   0.883   2.625   1.136
  544SOL    HW3 2207   0.776   2.731   1.145
  544SOL    MW4 2208   0.854   2.706   1.119
  545SOL     OW 2209   1.126   2.856   1.144
  545SOL    HW2 2210   1.134   2.847   1.239
  545SOL    HW3 2211   1.047   2.808   1.122
  545SOL    MW4 2212   1.117   2.848   1.154
  546SOL     OW 2213   1.106   3.124   1.095
  546SOL    HW2 2214   1.121   3.031   1.109
  546SOL    HW3 2215   1.037   3.128   1.028
  546SOL    MW4 2216   1.099   3.113   1.088
  547SOL     OW 2217   0.870   3.210   1.239
  547SOL    HW2 2218   0.864   3.290   1.186
  547SOL    HW3 2219   0.954   3.171   1.214
  547SOL    MW4 2220   0.880   3.216   1.228
  548SOL     OW 2221   0.873   3.441   1.095
  548SOL    HW2 2222   0.794   3.482   1.129
  548SOL    HW3 2223   0.858   3.435   1.001
  548SOL    MW4 2224   0.861   3.445   1.087
  549SOL     OW 2225   1.125   3.568   1.197
  549SOL    HW2 2226   1.212   3.541   1.167
  549SOL    HW3 2227   1.064   3.518   1.143
  549SOL    MW4 2228   1.129   3.558   1.186
  550SOL     OW 2229   1.097   3.822   1.104
  550SOL    HW2 2230   1.021   3.868   1.140
  550SOL    HW3 2231   1.102   3.741   1.155
  550SOL    MW4 2232   1.088   3.817   1.115
  551SOL     OW 2233   0.890   3.993   1.175
  551SOL    HW2 2234   0.887   3.973   1.268
  551SOL    HW3 2235   0.813   3.950   1.138
  551SOL    MW4 2236   0.879   3.985   1.182
  552SOL     OW 2237   0.854   4.255   1.092
  552SOL    HW2 2238   0.875   4.169   1.127
  552SOL    HW3 2239   0.872   4.248   0.998
  552SOL    MW4 2240   0.859   4.243   1.084
  553SOL     OW 2241   1.098   4.348   1.178
  553SOL    HW2 2242   1.097   4.336   1.273
  553SOL    HW3 2243   1.015   4.311   1.149
  553SOL    MW4 2244   1.087   4.342   1.187
  554SOL     OW 2245   1.554   0.031   1.146
  554SOL    HW2 2246   1.643   0.061   1.166
  554SOL    HW3 2247   1.551  -0.059   1.177
  554SOL    MW4 2248   1.566   0.023   1.153
  555SOL     OW 2249   1.315   0.145   1.230
  555SOL    HW2 2250   1.400   0.108   1.204
  555SOL    HW3 2251   1.251   0.091   1.183
  555SOL    MW4 2252   1.318   0.133   1.220
  556SOL     OW 2253   1.357   0.375   1.081
  556SOL    HW2 2254   1.347   0.293   1.129
  556SOL    HW3 2255   1.281   0.427   1.108
  556SOL    MW4 2256   1.345   0.371   1.091
  557SOL     OW 2257   1.577   0.484   1.196
  557SOL    HW2 2258   1.580   0.574   1.163
  557SOL    HW3 2259   1.497   0.448   1.158
  557SOL    MW4 2260   1.567   0.491   1.187
  558SOL     OW 2261   1.574   0.743   1.122
  558SOL    HW2 2262   1.646   0.798   1.152
  558SOL    HW3 2263   1.563   0.766   1.029
  558SOL    MW4 2264   1.582   0.753   1.114
  559SOL     OW 2265   1.344   0.893   1.205
  559SOL    HW2 2266   1.426   0.852   1.176
  559SOL    HW3 2267   1.276   0.849   1.154
  559SOL    MW4 2268   1.346   0.882   1.195
  560SOL     OW 2269   1.351   1.133   1.063
  560SOL    HW2 2270   1.337   1.052   1.112
  560SOL    HW3 2271   1.336   1.109   0.971
  560SOL    MW4 2272   1.347   1.119   1.057
  561SOL     OW 2273   1.544   1.300   1.163
  561SOL    HW2 2274   1.615   1.238   1.148
  561SOL    HW3 2275   1.470   1.265   1.114
  561SOL    MW4 2276   1.543   1.288   1.155
  562SOL     OW 2277   1.609   1.572   1.117
  562SOL    HW2 2278   1.684   1.598   1.171
  562SOL    HW3 2279   1.603   1.477   1.130
  562SOL    MW4 2280   1.618   1.563   1.126
  563SOL     OW 2281   1.354   1.647   1.240
  563SOL    HW2 2282   1.440   1.625   1.204
  563SOL    HW3 2283   1.292   1.605   1.180
  563SOL    MW4 2284   1.357   1.638   1.227
  564SOL     OW 2285   1.320   1.925   1.151
  564SOL    HW2 2286   1.314   1.847   1.208
  564SOL    HW3 2287   1.247   1.980   1.179
  564SOL    MW4 2288   1.309   1.922   1.162
  565SOL     OW 2289   1.569   2.066   1.208
  565SOL    HW2 2290   1.573   2.139   1.146
  565SOL    HW3 2291   1.492   2.016   1.181
  565SOL    MW4 2292   1.559   2.069   1.196
  566SOL     OW 2293   1.600   2.303   1.058
  566SOL    HW2 2294   1.533   2.352   1.105
  566SOL    HW3 2295   1.585   2.324   0.966
  566SOL    MW4 2296   1.589   2.312   1.052
  567SOL     OW 2297   1.386   2.436   1.186
  567SOL    HW2 2298   1.384   2.434   1.282
  567SOL    HW3 2299   1.373   2.528   1.164
  567SOL    MW4 2300   1.384   2.448   1.196
  568SOL     OW 2301   1.336   2.684   1.118
  568SOL    HW2 2302   1.411   2.732   1.153
  568SOL    HW3 2303   1.263   2.744   1.126
  568SOL    MW4 2304   1.337   2.698   1.123
  569SOL     OW 2305   1.557   2.809   1.225
  569SOL    HW2 2306   1.644   2.786   1.194
  569SOL    HW3 2307   1.541   2.897   1.189
  569SOL    MW4 2308   1.566   2.817   1.216
  570SOL     OW 2309   1.551   3.043   1.087
  570SOL    HW2 2310   1.634   3.079   1.118
  570SOL    HW3 2311   1.484   3.099   1.126
  570SOL    MW4 2312   1.553   3.055   1.096
  571SOL     OW 2313   1.366   3.213   1.208
  571SOL    HW2 2314   1.364   3.221   1.304
  571SOL    HW3 2315   1.287   3.164   1.186
  571SOL    MW4 2316   1.355   3.208   1.218
  572SOL     OW 2317   1.364   3.483   1.137
  572SOL    HW2 2318   1.365   3.390   1.160
  572SOL    HW3 2319   1.378   3.484   1.042
  572SOL    MW4 2320   1.366   3.471   1.127
  573SOL     OW 2321   1.596   3.604   1.226
  573SOL    HW2 2322   1.586   3.689   1.183
  573SOL    HW3 2323   1.516   3.556   1.204
  573SOL    MW4 2324   1.584   3.609   1.217
  574SOL     OW 2325   1.550   3.848   1.105
  574SOL    HW2 2326   1.470   3.883   1.143
  574SOL    HW3 2327   1.545   3.870   1.012
  574SOL    MW4 2328   1.539   3.855   1.098
  575SOL     OW 2329   1.312   3.967   1.198
  575SOL    HW2 2330   1.317   4.055   1.161
  575SOL    HW3 2331   1.232   3.930   1.160
  575SOL    MW4 2332   1.302   3.974   1.188
  576SOL     OW 2333   1.368   4.259   1.134
  576SOL    HW2 2334   1.286   4.306   1.147
  576SOL    HW3 2335   1.380   4.257   1.039
  576SOL    MW4 2336   1.359   4.265   1.123
  577SOL     OW 2337   1.581   4.415   1.244
  577SOL    HW2 2338   1.566   4.414   1.338
  577SOL    HW3 2339   1.519   4.352   1.209
  577SOL    MW4 2340   1.571   4.407   1.252
  578SOL     OW 2341   2.052   0.015   1.047
  578SOL    HW2 2342   2.041  -0.079   1.058
  578SOL    HW3 2343   2.025   0.032   0.956
  578SOL    MW4 2344   2.047   0.005   1.036
  579SOL     OW 2345   1.828   0.114   1.226
  579SOL    HW2 2346   1.811   0.205   1.203
  579SOL    HW3 2347   1.907   0.090   1.178
  579SOL    MW4 2348   1.836   0.123   1.217
  580SOL     OW 2349   1.803   0.359   1.124
  580SOL    HW2 2350   1.719   0.398   1.149
  580SOL    HW3 2351   1.812   0.378   1.031
  580SOL    MW4 2352   1.793   0.367   1.115
  581SOL     OW 2353   2.015   0.519   1.173
  581SOL    HW2 2354   2.012   0.523   1.269
  581SOL    HW3 2355   1.932   0.478   1.149
  581SOL    MW4 2356   2.004   0.514   1.183
  582SOL     OW 2357   2.048   0.779   1.078
  582SOL    HW2 2358   2.042   0.684   1.091
  582SOL    HW3 2359   2.064   0.789   0.985
  582SOL    MW4 2360   2.049   0.767   1.068
  583SOL     OW 2361   1.815   0.883   1.170
  583SOL    HW2 2362   1.831   0.892   1.264
  583SOL    HW3 2363   1.894   0.841   1.137
  583SOL    MW4 2364   1.828   0.879   1.178
  584SOL     OW 2365   1.784   1.167   1.083
  584SOL    HW2 2366   1.801   1.074   1.097
  584SOL    HW3 2367   1.777   1.175   0.988
  584SOL    MW4 2368   1.785   1.155   1.072
  585SOL     OW 2369   2.014   1.294   1.210
  585SOL    HW2 2370   2.088   1.240   1.184
  585SOL    HW3 2371   1.937   1.248   1.175
  585SOL    MW4 2372   2.014   1.281   1.202
  586SOL     OW 2373   2.033   1.562   1.121
  586SOL    HW2 2374   2.029   1.476   1.162
  586SOL    HW3 2375   2.010   1.547   1.029
  586SOL    MW4 2376   2.030   1.549   1.114
  587SOL     OW 2377   1.806   1.684   1.254
  587SOL    HW2 2378   1.778   1.770   1.223
  587SOL    HW3 2379   1.872   1.656   1.191
  587SOL    MW4 2380   1.811   1.692   1.242
  588SOL     OW 2381   1.773   1.921   1.115
  588SOL    HW2 2382   1.693   1.962   1.147
  588SOL    HW3 2383   1.762   1.920   1.020
  588SOL    MW4 2384   1.761   1.927   1.106
  589SOL     OW 2385   2.006   2.054   1.162
  589SOL    HW2 2386   2.017   2.040   1.255
  589SOL    HW3 2387   1.930   2.001   1.138
  589SOL    MW4 2388   1.997   2.045   1.171
  590SOL     OW 2389   2.033   2.344   1.135
  590SOL    HW2 2390   2.112   2.390   1.162
  590SOL    HW3 2391   2.050   2.252   1.157
  590SOL    MW4 2392   2.046   2.338   1.141
  591SOL     OW 2393   1.782   2.461   1.214
  591SOL    HW2 2394   1.871   2.429   1.206
  591SOL    HW3 2395   1.728   2.395   1.171
  591SOL    MW4 2396   1.786   2.448   1.207
  592SOL     OW 2397   1.810   2.725   1.145
  592SOL    HW2 2398   1.795   2.635   1.174
  592SOL    HW3 2399   1.815   2.719   1.050
  592SOL    MW4 2400   1.809   2.712   1.136
  593SOL     OW 2401   2.067   2.852   1.221
  593SOL    HW2 2402   2.060   2.942   1.189
  593SOL    HW3 2403   1.981   2.813   1.201
  593SOL    MW4 2404   2.054   2.859   1.214
  594SOL     OW 2405   2.043   3.105   1.073
  594SOL    HW2 2406   1.957   3.143   1.093
  594SOL    HW3 2407   2.039   3.087   0.979
  594SOL    MW4 2408   2.031   3.108   1.063
  595SOL     OW 2409   1.775   3.190   1.172
  595SOL    HW2 2410   1.764   3.199   1.266
  595SOL    HW3 2411   1.764   3.278   1.138
  595SOL    MW4 2412   1.772   3.203   1.180
  596SOL     OW 2413   1.814   3.483   1.080
  596SOL    HW2 2414   1.878   3.544   1.118
  596SOL    HW3 2415   1.732   3.505   1.124
  596SOL    MW4 2416   1.812   3.494   1.091
  597SOL     OW 2417   2.037   3.637   1.206
  597SOL    HW2 2418   2.025   3.647   1.301
  597SOL    HW3 2419   2.115   3.582   1.197
  597SOL    MW4 2420   2.046   3.631   1.218
  598SOL     OW 2421   2.022   3.907   1.122
  598SOL    HW2 2422   1.937   3.935   1.157
  598SOL    HW3 2423   2.030   3.815   1.147
  598SOL    MW4 2424   2.012   3.899   1.130
  599SOL     OW 2425   1.770   3.993   1.216
  599SOL    HW2 2426   1.772   3.982   1.311
  599SOL    HW3 2427   1.702   3.932   1.186
  599SOL    MW4 2428   1.761   3.983   1.224
  600SOL     OW 2429   1.787   4.264   1.113
  600SOL    HW2 2430   1.779   4.174   1.144
  600SOL    HW3 2431   1.727   4.313   1.169
  600SOL    MW4 2432   1.778   4.259   1.124
  601SOL     OW 2433   2.029   4.404   1.144
  601SOL    HW2 2434   2.040   4.426   1.237
  601SOL    HW3 2435   1.947   4.355   1.141
  601SOL    MW4 2436   2.020   4.400   1.156
  602SOL     OW 2437   2.487   4.651   1.133
  602SOL    HW2 2438   2.564   4.706   1.152
  602SOL    HW3 2439   2.417   4.691   1.185
  602SOL    MW4 2440   2.488   4.664   1.143
  603SOL     OW 2441   2.256   0.099   1.256
  603SOL    HW2 2442   2.266   0.185   1.215
  603SOL    HW3 2443   2.195   0.052   1.199
  603SOL    MW4 2444   2.249   0.104   1.243
  604SOL     OW 2445   2.225   0.357   1.100
  604SOL    HW2 2446   2.143   0.407   1.108
  604SOL    HW3 2447   2.231   0.336   1.007
  604SOL    MW4 2448   2.215   0.361   1.089
  605SOL     OW 2449   2.444   0.520   1.167
  605SOL    HW2 2450   2.440   0.512   1.263
  605SOL    HW3 2451   2.366   0.474   1.136
  605SOL    MW4 2452   2.433   0.513   1.176
  606SOL     OW 2453   2.472   0.783   1.077
  606SOL    HW2 2454   2.462   0.694   1.112
  606SOL    HW3 2455   2.538   0.775   1.008
  606SOL    MW4 2456   2.479   0.770   1.073
  607SOL     OW 2457   2.248   0.860   1.247
  607SOL    HW2 2458   2.328   0.832   1.201
  607SOL    HW3 2459   2.177   0.813   1.203
  607SOL    MW4 2460   2.250   0.850   1.235
  608SOL     OW 2461   2.208   1.107   1.145
  608SOL    HW2 2462   2.296   1.143   1.152
  608SOL    HW3 2463   2.214   1.020   1.185
  608SOL    MW4 2464   2.220   1.100   1.151
  609SOL     OW 2465   2.442   1.267   1.198
  609SOL    HW2 2466   2.530   1.229   1.186
  609SOL    HW3 2467   2.445   1.350   1.151
  609SOL    MW4 2468   2.454   1.273   1.190
  610SOL     OW 2469   2.472   1.513   1.070
  610SOL    HW2 2470   2.410   1.566   1.118
  610SOL    HW3 2471   2.453   1.529   0.978
  610SOL    MW4 2472   2.462   1.522   1.064
  611SOL     OW 2473   2.276   1.676   1.214
  611SOL    HW2 2474   2.282   1.770   1.197
  611SOL    HW3 2475   2.186   1.653   1.188
  611SOL    MW4 2476   2.265   1.685   1.208
  612SOL     OW 2477   2.246   1.926   1.098
  612SOL    HW2 2478   2.159   1.960   1.117
  612SOL    HW3 2479   2.252   1.928   1.002
  612SOL    MW4 2480   2.235   1.930   1.088
  613SOL     OW 2481   2.496   2.071   1.167
  613SOL    HW2 2482   2.570   2.018   1.135
  613SOL    HW3 2483   2.418   2.022   1.141
  613SOL    MW4 2484   2.496   2.058   1.159
  614SOL     OW 2485   2.459   2.333   1.076
  614SOL    HW2 2486   2.468   2.244   1.109
  614SOL    HW3 2487   2.439   2.323   0.984
  614SOL    MW4 2488   2.458   2.320   1.069
  615SOL     OW 2489   2.252   2.455   1.204
  615SOL    HW2 2490   2.260   2.457   1.300
  615SOL    HW3 2491   2.326   2.401   1.176
  615SOL    MW4 2492   2.263   2.449   1.213
  616SOL     OW 2493   2.266   2.710   1.092
  616SOL    HW2 2494   2.271   2.622   1.129
  616SOL    HW3 2495   2.192   2.751   1.137
  616SOL    MW4 2496   2.257   2.704   1.103
  617SOL     OW 2497   2.486   2.838   1.211
  617SOL    HW2 2498   2.469   2.835   1.305
  617SOL    HW3 2499   2.417   2.785   1.172
  617SOL    MW4 2500   2.475   2.831   1.218
  618SOL     OW 2501   2.479   3.080   1.106
  618SOL    HW2 2502   2.402   3.123   1.144
  618SOL    HW3 2503   2.478   2.992   1.144
  618SOL    MW4 2504   2.469   3.074   1.116
  619SOL     OW 2505   2.234   3.218   1.214
  619SOL    HW2 2506   2.241   3.301   1.166
  619SOL    HW3 2507   2.165   3.170   1.169
  619SOL    MW4 2508   2.226   3.223   1.201
  620SOL     OW 2509   2.292   3.475   1.105
  620SOL    HW2 2510   2.372   3.519   1.135
  620SOL    HW3 2511   2.293   3.488   1.010
  620SOL    MW4 2512   2.303   3.482   1.096
  621SOL     OW 2513   2.493   3.634   1.210
  621SOL    HW2 2514   2.473   3.641   1.303
  621SOL    HW3 2515   2.477   3.722   1.175
  621SOL    MW4 2516   2.488   3.646   1.217
  622SOL     OW 2517   2.471   3.901   1.093
  622SOL    HW2 2518   2.385   3.933   1.119
  622SOL    HW3 2519   2.467   3.899   0.997
  622SOL    MW4 2520   2.459   3.905   1.084
  623SOL     OW 2521   2.259   4.015   1.211
  623SOL    HW2 2522   2.258   4.102   1.171
  623SOL    HW3 2523   2.188   3.968   1.166
  623SOL    MW4 2524   2.249   4.021   1.199
  624SOL     OW 2525   2.268   4.249   1.043
  624SOL    HW2 2526   2.196   4.305   1.073
  624SOL    HW3 2527   2.246   4.229   0.952
  624SOL    MW4 2528   2.255   4.253   1.035
  625SOL     OW 2529   2.503   4.365   1.172
  625SOL    HW2 2530   2.435   4.330   1.114
  625SOL    HW3 2531   2.493   4.460   1.164
  625SOL    MW4 2532   2.493   4.373   1.163
  626SOL     OW 2533   2.858   4.662   1.108
  626SOL    HW2 2534   2.877   4.579   1.152
  626SOL    HW3 2535   2.863   4.641   1.014
  626SOL    MW4 2536   2.861   4.648   1.101
  627SOL     OW 2537   2.677   0.150   1.242
  627SOL    HW2 2538   2.689   0.170   1.335
  627SOL    HW3 2539   2.749   0.091   1.221
  627SOL    MW4 2540   2.688   0.145   1.252
  628SOL     OW 2541   2.686   0.358   1.066
  628SOL    HW2 2542   2.686   0.280   1.122
  628SOL    HW3 2543   2.613   0.411   1.098
  628SOL    MW4 2544   2.677   0.355   1.078
  629SOL     OW 2545   2.894   0.459   1.224
  629SOL    HW2 2546   2.890   0.554   1.214
  629SOL    HW3 2547   2.815   0.427   1.181
  629SOL    MW4 2548   2.883   0.467   1.217
  630SOL     OW 2549   2.926   0.724   1.158
  630SOL    HW2 2550   2.995   0.776   1.199
  630SOL    HW3 2551   2.848   0.780   1.159
  630SOL    MW4 2552   2.925   0.738   1.163
  631SOL     OW 2553   2.701   0.881   1.219
  631SOL    HW2 2554   2.700   0.975   1.202
  631SOL    HW3 2555   2.635   0.846   1.159
  631SOL    MW4 2556   2.692   0.889   1.209
  632SOL     OW 2557   2.687   1.165   1.172
  632SOL    HW2 2558   2.760   1.211   1.213
  632SOL    HW3 2559   2.715   1.153   1.081
  632SOL    MW4 2560   2.701   1.170   1.165
  633SOL     OW 2561   2.938   1.263   1.222
  633SOL    HW2 2562   2.941   1.249   1.317
  633SOL    HW3 2563   2.925   1.357   1.213
  633SOL    MW4 2564   2.937   1.273   1.234
  634SOL     OW 2565   2.901   1.535   1.148
  634SOL    HW2 2566   2.982   1.584   1.163
  634SOL    HW3 2567   2.893   1.530   1.053
  634SOL    MW4 2568   2.911   1.541   1.138
  635SOL     OW 2569   2.659   1.637   1.228
  635SOL    HW2 2570   2.744   1.611   1.192
  635SOL    HW3 2571   2.595   1.585   1.180
  635SOL    MW4 2572   2.662   1.627   1.217
  636SOL     OW 2573   2.680   1.876   1.106
  636SOL    HW2 2574   2.760   1.907   1.148
  636SOL    HW3 2575   2.653   1.800   1.158
  636SOL    MW4 2576   2.687   1.870   1.118
  637SOL     OW 2577   2.915   2.015   1.212
  637SOL    HW2 2578   2.923   2.029   1.306
  637SOL    HW3 2579   2.928   2.102   1.173
  637SOL    MW4 2580   2.917   2.028   1.219
  638SOL     OW 2581   2.926   2.282   1.094
  638SOL    HW2 2582   3.001   2.335   1.123
  638SOL    HW3 2583   2.849   2.333   1.119
  638SOL    MW4 2584   2.926   2.295   1.101
  639SOL     OW 2585   2.723   2.443   1.169
  639SOL    HW2 2586   2.741   2.442   1.263
  639SOL    HW3 2587   2.634   2.407   1.161
  639SOL    MW4 2588   2.713   2.438   1.180
  640SOL     OW 2589   2.701   2.709   1.089
  640SOL    HW2 2590   2.697   2.627   1.138
  640SOL    HW3 2591   2.632   2.763   1.127
  640SOL    MW4 2592   2.692   2.706   1.101
  641SOL     OW 2593   2.970   2.843   1.167
  641SOL    HW2 2594   2.971   2.837   1.262
  641SOL    HW3 2595   2.890   2.796   1.141
  641SOL    MW4 2596   2.959   2.836   1.176
  642SOL     OW 2597   2.877   3.091   1.080
  642SOL    HW2 2598   2.910   3.006   1.108
  642SOL    HW3 2599   2.900   3.097   0.988
  642SOL    MW4 2600   2.884   3.081   1.072
  643SOL     OW 2601   2.691   3.231   1.219
  643SOL    HW2 2602   2.749   3.174   1.169
  643SOL    HW3 2603   2.603   3.208   1.188
  643SOL    MW4 2604   2.687   3.220   1.208
  644SOL     OW 2605   2.688   3.483   1.107
  644SOL    HW2 2606   2.683   3.396   1.147
  644SOL    HW3 2607   2.612   3.529   1.140
  644SOL    MW4 2608   2.677   3.477   1.116
  645SOL     OW 2609   2.923   3.608   1.203
  645SOL    HW2 2610   3.003   3.567   1.170
  645SOL    HW3 2611   2.852   3.561   1.160
  645SOL    MW4 2612   2.924   3.596   1.193
  646SOL     OW 2613   2.886   3.871   1.139
  646SOL    HW2 2614   2.974   3.908   1.143
  646SOL    HW3 2615   2.896   3.780   1.167
  646SOL    MW4 2616   2.899   3.864   1.143
  647SOL     OW 2617   2.675   4.050   1.183
  647SOL    HW2 2618   2.740   3.980   1.192
  647SOL    HW3 2619   2.593   4.003   1.169
  647SOL    MW4 2620   2.673   4.034   1.182
  648SOL     OW 2621   2.742   4.273   1.049
  648SOL    HW2 2622   2.726   4.188   1.089
  648SOL    HW3 2623   2.666   4.326   1.074
  648SOL    MW4 2624   2.729   4.269   1.057
  649SOL     OW 2625   2.923   4.398   1.223
  649SOL    HW2 2626   3.006   4.354   1.201
  649SOL    HW3 2627   2.859   4.357   1.166
  649SOL    MW4 2628   2.926   4.387   1.212
  650SOL     OW 2629   3.334   4.617   1.090
  650SOL    HW2 2630   3.413   4.659   1.123
  650SOL    HW3 2631   3.262   4.664   1.131
  650SOL    MW4 2632   3.335   4.629   1.099
  651SOL     OW 2633   3.106   0.076   1.178
  651SOL    HW2 2634   3.089   0.065   1.271
  651SOL    HW3 2635   3.023   0.052   1.136
  651SOL    MW4 2636   3.092   0.071   1.184
  652SOL     OW 2637   3.134   0.355   1.107
  652SOL    HW2 2638   3.128   0.265   1.140
  652SOL    HW3 2639   3.054   0.397   1.140
  652SOL    MW4 2640   3.122   0.349   1.116
  653SOL     OW 2641   3.340   0.473   1.239
  653SOL    HW2 2642   3.352   0.550   1.184
  653SOL    HW3 2643   3.259   0.433   1.208
  653SOL    MW4 2644   3.331   0.478   1.228
  654SOL     OW 2645   3.386   0.719   1.107
  654SOL    HW2 2646   3.312   0.777   1.126
  654SOL    HW3 2647   3.400   0.727   1.013
  654SOL    MW4 2648   3.378   0.728   1.097
  655SOL     OW 2649   3.166   0.857   1.246
  655SOL    HW2 2650   3.171   0.888   1.336
  655SOL    HW3 2651   3.140   0.935   1.196
  655SOL    MW4 2652   3.163   0.872   1.251
  656SOL     OW 2653   3.127   1.100   1.103
  656SOL    HW2 2654   3.204   1.154   1.121
  656SOL    HW3 2655   3.054   1.153   1.134
  656SOL    MW4 2656   3.128   1.114   1.110
  657SOL     OW 2657   3.349   1.257   1.178
  657SOL    HW2 2658   3.378   1.258   1.270
  657SOL    HW3 2659   3.327   1.349   1.159
  657SOL    MW4 2660   3.350   1.269   1.188
  658SOL     OW 2661   3.351   1.541   1.125
  658SOL    HW2 2662   3.422   1.590   1.166
  658SOL    HW3 2663   3.271   1.587   1.151
  658SOL    MW4 2664   3.349   1.553   1.134
  659SOL     OW 2665   3.124   1.667   1.222
  659SOL    HW2 2666   3.120   1.686   1.316
  659SOL    HW3 2667   3.128   1.754   1.181
  659SOL    MW4 2668   3.124   1.681   1.229
  660SOL     OW 2669   3.139   1.912   1.108
  660SOL    HW2 2670   3.211   1.964   1.144
  660SOL    HW3 2671   3.062   1.943   1.155
  660SOL    MW4 2672   3.138   1.923   1.119
  661SOL     OW 2673   3.374   2.047   1.251
  661SOL    HW2 2674   3.432   1.976   1.223
  661SOL    HW3 2675   3.384   2.114   1.184
  661SOL    MW4 2676   3.383   2.047   1.239
  662SOL     OW 2677   3.403   2.261   1.079
  662SOL    HW2 2678   3.460   2.321   1.128
  662SOL    HW3 2679   3.314   2.295   1.093
  662SOL    MW4 2680   3.399   2.274   1.087
  663SOL     OW 2681   3.178   2.396   1.185
  663SOL    HW2 2682   3.191   2.392   1.280
  663SOL    HW3 2683   3.179   2.490   1.165
  663SOL    MW4 2684   3.180   2.408   1.195
  664SOL     OW 2685   3.162   2.663   1.115
  664SOL    HW2 2686   3.087   2.722   1.120
  664SOL    HW3 2687   3.177   2.652   1.021
  664SOL    MW4 2688   3.154   2.669   1.104
  665SOL     OW 2689   3.357   2.865   1.208
  665SOL    HW2 2690   3.354   2.957   1.180
  665SOL    HW3 2691   3.276   2.827   1.172
  665SOL    MW4 2692   3.346   2.872   1.199
  666SOL     OW 2693   3.300   3.130   1.111
  666SOL    HW2 2694   3.371   3.171   1.160
  666SOL    HW3 2695   3.220   3.162   1.153
  666SOL    MW4 2696   3.299   3.139   1.123
  667SOL     OW 2697   3.070   3.228   1.249
  667SOL    HW2 2698   3.086   3.317   1.217
  667SOL    HW3 2699   2.999   3.195   1.193
  667SOL    MW4 2700   3.062   3.235   1.237
  668SOL     OW 2701   3.149   3.488   1.107
  668SOL    HW2 2702   3.222   3.524   1.158
  668SOL    HW3 2703   3.160   3.525   1.020
  668SOL    MW4 2704   3.160   3.497   1.102
  669SOL     OW 2705   3.375   3.638   1.220
  669SOL    HW2 2706   3.353   3.632   1.312
  669SOL    HW3 2707   3.454   3.585   1.210
  669SOL    MW4 2708   3.382   3.630   1.231
  670SOL     OW 2709   3.395   3.880   1.075
  670SOL    HW2 2710   3.319   3.927   1.109
  670SOL    HW3 2711   3.386   3.792   1.111
  670SOL    MW4 2712   3.384   3.875   1.084
  671SOL     OW 2713   3.154   3.971   1.201
  671SOL    HW2 2714   3.137   3.952   1.293
  671SOL    HW3 2715   3.158   4.066   1.196
  671SOL    MW4 2716   3.152   3.981   1.213
  672SOL     OW 2717   3.157   4.222   1.146
  672SOL    HW2 2718   3.227   4.274   1.184
  672SOL    HW3 2719   3.166   4.236   1.052
  672SOL    MW4 2720   3.167   4.231   1.139
  673SOL     OW 2721   3.354   4.370   1.240
  673SOL    HW2 2722   3.426   4.328   1.194
  673SOL    HW3 2723   3.348   4.457   1.201
  673SOL    MW4 2724   3.363   4.376   1.229
  674SOL     OW 2725   3.815   4.661   1.135
  674SOL    HW2 2726   3.807   4.571   1.166
  674SOL    HW3 2727   3.849   4.653   1.046
  674SOL    MW4 2728   3.819   4.648   1.127
  675SOL     OW 2729   3.561   0.050   1.218
  675SOL    HW2 2730   3.557   0.145   1.213
  675SOL    HW3 2731   3.648   0.027   1.186
  675SOL    MW4 2732   3.572   0.059   1.213
  676SOL     OW 2733   3.592   0.330   1.182
  676SOL    HW2 2734   3.651   0.404   1.194
  676SOL    HW3 2735   3.504   0.369   1.182
  676SOL    MW4 2736   3.588   0.345   1.184
  677SOL     OW 2737   3.812   0.495   1.259
  677SOL    HW2 2738   3.873   0.442   1.207
  677SOL    HW3 2739   3.803   0.576   1.210
  677SOL    MW4 2740   3.819   0.499   1.246
  678SOL     OW 2741   3.841   0.718   1.082
  678SOL    HW2 2742   3.919   0.771   1.099
  678SOL    HW3 2743   3.768   0.775   1.108
  678SOL    MW4 2744   3.842   0.733   1.088
  679SOL     OW 2745   3.609   0.866   1.163
  679SOL    HW2 2746   3.593   0.953   1.126
  679SOL    HW3 2747   3.526   0.820   1.152
  679SOL    MW4 2748   3.596   0.872   1.157
  680SOL     OW 2749   3.575   1.125   1.064
  680SOL    HW2 2750   3.649   1.173   1.100
  680SOL    HW3 2751   3.498   1.168   1.101
  680SOL    MW4 2752   3.575   1.137   1.074
  681SOL     OW 2753   3.797   1.275   1.157
  681SOL    HW2 2754   3.821   1.275   1.250
  681SOL    HW3 2755   3.795   1.368   1.133
  681SOL    MW4 2756   3.800   1.287   1.166
  682SOL     OW 2757   3.786   1.536   1.077
  682SOL    HW2 2758   3.855   1.590   1.115
  682SOL    HW3 2759   3.802   1.539   0.983
  682SOL    MW4 2760   3.797   1.544   1.069
  683SOL     OW 2761   3.595   1.662   1.248
  683SOL    HW2 2762   3.586   1.748   1.207
  683SOL    HW3 2763   3.648   1.611   1.187
  683SOL    MW4 2764   3.601   1.667   1.234
  684SOL     OW 2765   3.569   1.909   1.132
  684SOL    HW2 2766   3.650   1.955   1.152
  684SOL    HW3 2767   3.548   1.935   1.042
  684SOL    MW4 2768   3.577   1.919   1.123
  685SOL     OW 2769   3.798   2.051   1.216
  685SOL    HW2 2770   3.816   2.022   1.305
  685SOL    HW3 2771   3.871   2.016   1.164
  685SOL    MW4 2772   3.810   2.043   1.221
  686SOL     OW 2773   3.789   2.301   1.085
  686SOL    HW2 2774   3.872   2.332   1.119
  686SOL    HW3 2775   3.775   2.217   1.127
  686SOL    MW4 2776   3.798   2.294   1.095
  687SOL     OW 2777   3.574   2.441   1.206
  687SOL    HW2 2778   3.571   2.411   1.296
  687SOL    HW3 2779   3.652   2.401   1.169
  687SOL    MW4 2780   3.584   2.432   1.213
  688SOL     OW 2781   3.567   2.700   1.092
  688SOL    HW2 2782   3.560   2.619   1.142
  688SOL    HW3 2783   3.488   2.749   1.114
  688SOL    MW4 2784   3.556   2.696   1.101
  689SOL     OW 2785   3.814   2.797   1.213
  689SOL    HW2 2786   3.784   2.808   1.303
  689SOL    HW3 2787   3.741   2.754   1.169
  689SOL    MW4 2788   3.800   2.793   1.219
  690SOL     OW 2789   3.790   3.078   1.166
  690SOL    HW2 2790   3.786   2.983   1.176
  690SOL    HW3 2791   3.807   3.092   1.073
  690SOL    MW4 2792   3.791   3.068   1.155
  691SOL     OW 2793   3.552   3.205   1.217
  691SOL    HW2 2794   3.588   3.292   1.199
  691SOL    HW3 2795   3.624   3.145   1.197
  691SOL    MW4 2796   3.566   3.209   1.212
  692SOL     OW 2797   3.583   3.477   1.156
  692SOL    HW2 2798   3.655   3.534   1.181
  692SOL    HW3 2799   3.586   3.473   1.061
  692SOL    MW4 2800   3.593   3.484   1.147
  693SOL     OW 2801   3.823   3.606   1.252
  693SOL    HW2 2802   3.804   3.609   1.346
  693SOL    HW3 2803   3.816   3.697   1.223
  693SOL    MW4 2804   3.820   3.618   1.261
  694SOL     OW 2805   3.783   3.840   1.129
  694SOL    HW2 2806   3.720   3.905   1.161
  694SOL    HW3 2807   3.747   3.811   1.045
  694SOL    MW4 2808   3.770   3.845   1.122
  695SOL     OW 2809   3.585   4.004   1.223
  695SOL    HW2 2810   3.589   3.986   1.317
  695SOL    HW3 2811   3.511   3.951   1.192
  695SOL    MW4 2812   3.576   3.994   1.231
  696SOL     OW 2813   3.587   4.255   1.114
  696SOL    HW2 2814   3.576   4.167   1.150
  696SOL    HW3 2815   3.603   4.241   1.020
  696SOL    MW4 2816   3.588   4.242   1.106
  697SOL     OW 2817   3.815   4.378   1.202
  697SOL    HW2 2818   3.803   4.374   1.297
  697SOL    HW3 2819   3.733   4.345   1.166
  697SOL    MW4 2820   3.802   4.373   1.210
  698SOL     OW 2821   4.264   0.040   1.138
  698SOL    HW2 2822   4.262  -0.055   1.150
  698SOL    HW3 2823   4.185   0.072   1.181
  698SOL    MW4 2824   4.253   0.032   1.145
  699SOL     OW 2825   4.021   0.107   1.273
  699SOL    HW2 2826   3.996   0.101   1.365
  699SOL    HW3 2827   3.955   0.056   1.227
  699SOL    MW4 2828   4.009   0.100   1.279
  700SOL     OW 2829   3.987   0.332   1.109
  700SOL    HW2 2830   3.991   0.251   1.159
  700SOL    HW3 2831   3.953   0.305   1.023
  700SOL    MW4 2832   3.983   0.317   1.104
  701SOL     OW 2833   4.221   0.468   1.159
  701SOL    HW2 2834   4.217   0.454   1.254
  701SOL    HW3 2835   4.137   0.434   1.126
  701SOL    MW4 2836   4.209   0.462   1.167
  702SOL     OW 2837   4.283   0.721   1.075
  702SOL    HW2 2838   4.259   0.640   1.120
  702SOL    HW3 2839   4.298   0.695   0.984
  702SOL    MW4 2840   4.282   0.707   1.069
  703SOL     OW 2841   4.064   0.872   1.156
  703SOL    HW2 2842   4.090   0.870   1.248
  703SOL    HW3 2843   4.136   0.829   1.110
  703SOL    MW4 2844   4.077   0.866   1.162
  704SOL     OW 2845   4.053   1.156   1.098
  704SOL    HW2 2846   4.046   1.070   1.138
  704SOL    HW3 2847   3.965   1.193   1.105
  704SOL    MW4 2848   4.040   1.150   1.104
  705SOL     OW 2849   4.271   1.286   1.185
  705SOL    HW2 2850   4.260   1.289   1.280
  705SOL    HW3 2851   4.196   1.236   1.154
  705SOL    MW4 2852   4.260   1.280   1.194
  706SOL     OW 2853   4.261   1.539   1.101
  706SOL    HW2 2854   4.259   1.444   1.111
  706SOL    HW3 2855   4.324   1.569   1.167
  706SOL    MW4 2856   4.269   1.530   1.111
  707SOL     OW 2857   4.034   1.668   1.194
  707SOL    HW2 2858   4.037   1.666   1.290
  707SOL    HW3 2859   4.112   1.620   1.166
  707SOL    MW4 2860   4.045   1.661   1.203
  708SOL     OW 2861   4.002   1.921   1.112
  708SOL    HW2 2862   4.012   1.827   1.130
  708SOL    HW3 2863   4.054   1.937   1.034
  708SOL    MW4 2864   4.010   1.911   1.104
  709SOL     OW 2865   4.244   2.008   1.219
  709SOL    HW2 2866   4.246   2.091   1.171
  709SOL    HW3 2867   4.159   1.970   1.198
  709SOL    MW4 2868   4.233   2.014   1.210
  710SOL     OW 2869   4.250   2.276   1.111
  710SOL    HW2 2870   4.174   2.313   1.155
  710SOL    HW3 2871   4.241   2.304   1.020
  710SOL    MW4 2872   4.239   2.284   1.105
  711SOL     OW 2873   4.013   2.386   1.218
  711SOL    HW2 2874   4.021   2.413   1.310
  711SOL    HW3 2875   4.021   2.468   1.169
  711SOL    MW4 2876   4.015   2.400   1.224
  712SOL     OW 2877   4.030   2.634   1.095
  712SOL    HW2 2878   3.967   2.702   1.121
  712SOL    HW3 2879   4.020   2.629   1.000
  712SOL    MW4 2880   4.020   2.642   1.086
  713SOL     OW 2881   4.238   2.801   1.198
  713SOL    HW2 2882   4.220   2.892   1.176
  713SOL    HW3 2883   4.174   2.750   1.149
  713SOL    MW4 2884   4.227   2.806   1.189
  714SOL     OW 2885   4.229   3.083   1.112
  714SOL    HW2 2886   4.148   3.120   1.148
  714SOL    HW3 2887   4.226   3.103   1.018
  714SOL    MW4 2888   4.218   3.090   1.104
  715SOL     OW 2889   4.021   3.208   1.220
  715SOL    HW2 2890   4.038   3.208   1.315
  715SOL    HW3 2891   3.940   3.159   1.210
  715SOL    MW4 2892   4.013   3.202   1.232
  716SOL     OW 2893   4.004   3.471   1.109
  716SOL    HW2 2894   4.007   3.387   1.153
  716SOL    HW3 2895   3.942   3.523   1.160
  716SOL    MW4 2896   3.996   3.467   1.122
  717SOL     OW 2897   4.240   3.602   1.200
  717SOL    HW2 2898   4.161   3.561   1.165
  717SOL    HW3 2899   4.312   3.551   1.162
  717SOL    MW4 2900   4.239   3.590   1.190
  718SOL     OW 2901   4.265   3.861   1.097
  718SOL    HW2 2902   4.186   3.905   1.130
  718SOL    HW3 2903   4.262   3.774   1.138
  718SOL    MW4 2904   4.254   3.855   1.107
  719SOL     OW 2905   4.024   3.988   1.185
  719SOL    HW2 2906   4.014   4.081   1.168
  719SOL    HW3 2907   3.941   3.949   1.159
  719SOL    MW4 2908   4.012   3.995   1.179
  720SOL     OW 2909   4.049   4.254   1.125
  720SOL    HW2 2910   3.963   4.292   1.140
  720SOL    HW3 2911   4.053   4.241   1.030
  720SOL    MW4 2912   4.038   4.257   1.114
  721SOL     OW 2913   4.258   4.437   1.171
  721SOL    HW2 2914   4.185   4.375   1.178
  721SOL    HW3 2915   4.336   4.382   1.164
  721SOL    MW4 2916   4.258   4.422   1.171
  722SOL     OW 2917   0.252   4.634   1.570
  722SOL    HW2 2918   0.336   4.676   1.554
  722SOL    HW3 2919   0.188   4.689   1.525
  722SOL    MW4 2920   0.255   4.646   1.562
  723SOL     OW 2921   0.027   0.108   1.462
  723SOL    HW2 2922  -0.065   0.080   1.465
  723SOL    HW3 2923   0.043   0.127   1.369
  723SOL    MW4 2924   0.017   0.107   1.450
  724SOL     OW 2925   0.000   0.383   1.558
  724SOL    HW2 2926  -0.010   0.388   1.653
  724SOL    HW3 2927   0.009   0.289   1.540
  724SOL    MW4 2928   0.000   0.371   1.568
  725SOL     OW 2929   0.245   0.495   1.455
  725SOL    HW2 2930   0.161   0.455   1.479
  725SOL    HW3 2931   0.248   0.490   1.359
  725SOL    MW4 2932   0.234   0.489   1.445
  726SOL     OW 2933   0.244   0.744   1.571
  726SOL    HW2 2934   0.323   0.788   1.540
  726SOL    HW3 2935   0.253   0.654   1.539
  726SOL    MW4 2936   0.256   0.738   1.562
  727SOL     OW 2937   0.018   0.847   1.426
  727SOL    HW2 2938   0.010   0.937   1.460
  727SOL    HW3 2939   0.101   0.816   1.463
  727SOL    MW4 2940   0.028   0.855   1.435
  728SOL     OW 2941   0.001   1.101   1.546
  728SOL    HW2 2942   0.013   1.114   1.641
  728SOL    HW3 2943   0.066   1.160   1.507
  728SOL    MW4 2944   0.011   1.111   1.554
  729SOL     OW 2945   0.214   1.245   1.477
  729SOL    HW2 2946   0.212   1.331   1.520
  729SOL    HW3 2947   0.223   1.265   1.384
  729SOL    MW4 2948   0.215   1.259   1.471
  730SOL     OW 2949   0.226   1.505   1.576
  730SOL    HW2 2950   0.237   1.521   1.670
  730SOL    HW3 2951   0.148   1.555   1.552
  730SOL    MW4 2952   0.217   1.514   1.585
  731SOL     OW 2953   4.490   1.654   1.496
  731SOL    HW2 2954   4.494   1.746   1.523
  731SOL    HW3 2955   4.467   1.658   1.403
  731SOL    MW4 2956   4.487   1.667   1.487
  732SOL     OW 2957   0.003   1.921   1.586
  732SOL    HW2 2958   0.003   1.915   1.682
  732SOL    HW3 2959  -0.085   1.952   1.564
  732SOL    MW4 2960  -0.009   1.924   1.596
  733SOL     OW 2961   0.237   2.035   1.457
  733SOL    HW2 2962   0.148   2.008   1.480
  733SOL    HW3 2963   0.243   2.019   1.363
  733SOL    MW4 2964   0.226   2.030   1.448
  734SOL     OW 2965   0.236   2.299   1.556
  734SOL    HW2 2966   0.253   2.304   1.650
  734SOL    HW3 2967   0.255   2.207   1.534
  734SOL    MW4 2968   0.241   2.287   1.566
  735SOL     OW 2969   4.471   2.378   1.462
  735SOL    HW2 2970   4.400   2.322   1.493
  735SOL    HW3 2971   4.550   2.342   1.504
  735SOL    MW4 2972   4.472   2.366   1.472
  736SOL     OW 2973   4.476   2.641   1.527
  736SOL    HW2 2974   4.390   2.668   1.493
  736SOL    HW3 2975   4.487   2.551   1.496
  736SOL    MW4 2976   4.466   2.633   1.518
  737SOL     OW 2977   0.201   2.785   1.415
  737SOL    HW2 2978   0.268   2.759   1.479
  737SOL    HW3 2979   0.120   2.746   1.448
  737SOL    MW4 2980   0.200   2.777   1.428
  738SOL     OW 2981   0.231   3.041   1.561
  738SOL    HW2 2982   0.151   3.091   1.546
  738SOL    HW3 2983   0.226   2.969   1.498
  738SOL    MW4 2984   0.220   3.038   1.550
  739SOL     OW 2985   0.002   3.177   1.477
  739SOL    HW2 2986  -0.009   3.271   1.496
  739SOL    HW3 2987  -0.014   3.170   1.383
  739SOL    MW4 2988  -0.002   3.189   1.467
  740SOL     OW 2989   4.473   3.440   1.543
  740SOL    HW2 2990   4.474   3.456   1.637
  740SOL    HW3 2991   4.402   3.497   1.510
  740SOL    MW4 2992   4.464   3.450   1.551
  741SOL     OW 2993   0.207   3.577   1.462
  741SOL    HW2 2994   0.200   3.660   1.508
  741SOL    HW3 2995   0.126   3.530   1.485
  741SOL    MW4 2996   0.195   3.582   1.471
  742SOL     OW 2997   0.207   3.833   1.576
  742SOL    HW2 2998   0.212   3.837   1.672
  742SOL    HW3 2999   0.278   3.889   1.545
  742SOL    MW4 3000   0.217   3.841   1.585
  743SOL     OW 3001   0.020   3.985   1.466
  743SOL    HW2 3002   0.026   4.075   1.498
  743SOL    HW3 3003   0.087   3.937   1.515
  743SOL    MW4 3004   0.030   3.990   1.476
  744SOL     OW 3005   0.025   4.250   1.570
  744SOL    HW2 3006   0.014   4.248   1.665
  744SOL    HW3 3007  -0.050   4.300   1.537
  744SOL    MW4 3008   0.014   4.256   1.578
  745SOL     OW 3009   0.247   4.383   1.466
  745SOL    HW2 3010   0.178   4.338   1.516
  745SOL    HW3 3011   0.233   4.476   1.484
  745SOL    MW4 3012   0.236   4.389   1.475
  746SOL     OW 3013   0.676   4.588   1.544
  746SOL    HW2 3014   0.746   4.634   1.497
  746SOL    HW3 3015   0.596   4.633   1.517
  746SOL    MW4 3016   0.675   4.600   1.534
  747SOL     OW 3017   0.461   0.084   1.440
  747SOL    HW2 3018   0.462   0.176   1.467
  747SOL    HW3 3019   0.468   0.087   1.345
  747SOL    MW4 3020   0.462   0.097   1.431
  748SOL     OW 3021   0.456   0.331   1.558
  748SOL    HW2 3022   0.520   0.392   1.520
  748SOL    HW3 3023   0.371   0.373   1.542
  748SOL    MW4 3024   0.453   0.345   1.550
  749SOL     OW 3025   0.666   0.477   1.476
  749SOL    HW2 3026   0.661   0.570   1.496
  749SOL    HW3 3027   0.681   0.473   1.382
  749SOL    MW4 3028   0.668   0.489   1.466
  750SOL     OW 3029   0.695   0.749   1.560
  750SOL    HW2 3030   0.705   0.724   1.652
  750SOL    HW3 3031   0.779   0.789   1.537
  750SOL    MW4 3032   0.708   0.751   1.569
  751SOL     OW 3033   0.467   0.880   1.481
  751SOL    HW2 3034   0.453   0.962   1.527
  751SOL    HW3 3035   0.548   0.845   1.518
  751SOL    MW4 3036   0.476   0.886   1.492
  752SOL     OW 3037   0.438   1.161   1.590
  752SOL    HW2 3038   0.502   1.204   1.534
  752SOL    HW3 3039   0.354   1.180   1.548
  752SOL    MW4 3040   0.435   1.169   1.577
  753SOL     OW 3041   0.662   1.260   1.453
  753SOL    HW2 3042   0.668   1.353   1.474
  753SOL    HW3 3043   0.690   1.254   1.362
  753SOL    MW4 3044   0.667   1.272   1.444
  754SOL     OW 3045   0.679   1.525   1.586
  754SOL    HW2 3046   0.743   1.574   1.535
  754SOL    HW3 3047   0.594   1.559   1.558
  754SOL    MW4 3048   0.676   1.536   1.576
  755SOL     OW 3049   0.454   1.620   1.421
  755SOL    HW2 3050   0.462   1.697   1.476
  755SOL    HW3 3051   0.385   1.568   1.462
  755SOL    MW4 3052   0.446   1.623   1.434
  756SOL     OW 3053   0.453   1.891   1.563
  756SOL    HW2 3054   0.450   1.912   1.656
  756SOL    HW3 3055   0.371   1.926   1.528
  756SOL    MW4 3056   0.442   1.898   1.570
  757SOL     OW 3057   0.649   2.064   1.497
  757SOL    HW2 3058   0.719   2.011   1.536
  757SOL    HW3 3059   0.571   2.010   1.505
  757SOL    MW4 3060   0.648   2.050   1.503
  758SOL     OW 3061   0.654   2.336   1.590
  758SOL    HW2 3062   0.587   2.375   1.533
  758SOL    HW3 3063   0.648   2.242   1.571
  758SOL    MW4 3064   0.644   2.329   1.580
  759SOL     OW 3065   0.452   2.433   1.437
  759SOL    HW2 3066   0.441   2.525   1.463
  759SOL    HW3 3067   0.390   2.385   1.491
  759SOL    MW4 3068   0.442   2.439   1.448
  760SOL     OW 3069   0.421   2.686   1.561
  760SOL    HW2 3070   0.419   2.680   1.656
  760SOL    HW3 3071   0.501   2.734   1.542
  760SOL    MW4 3072   0.431   2.691   1.571
  761SOL     OW 3073   0.661   2.784   1.493
  761SOL    HW2 3074   0.664   2.875   1.525
  761SOL    HW3 3075   0.651   2.793   1.398
  761SOL    MW4 3076   0.660   2.798   1.485
  762SOL     OW 3077   0.655   3.052   1.537
  762SOL    HW2 3078   0.736   3.100   1.523
  762SOL    HW3 3079   0.586   3.113   1.510
  762SOL    MW4 3080   0.656   3.066   1.532
  763SOL     OW 3081   0.445   3.197   1.470
  763SOL    HW2 3082   0.386   3.138   1.518
  763SOL    HW3 3083   0.425   3.181   1.378
  763SOL    MW4 3084   0.434   3.187   1.464
  764SOL     OW 3085   0.415   3.440   1.584
  764SOL    HW2 3086   0.401   3.349   1.557
  764SOL    HW3 3087   0.356   3.491   1.527
  764SOL    MW4 3088   0.405   3.435   1.573
  765SOL     OW 3089   0.633   3.556   1.460
  765SOL    HW2 3090   0.710   3.517   1.501
  765SOL    HW3 3091   0.559   3.509   1.500
  765SOL    MW4 3092   0.633   3.544   1.471
  766SOL     OW 3093   0.624   3.810   1.561
  766SOL    HW2 3094   0.701   3.849   1.519
  766SOL    HW3 3095   0.627   3.718   1.535
  766SOL    MW4 3096   0.635   3.803   1.552
  767SOL     OW 3097   0.421   3.994   1.501
  767SOL    HW2 3098   0.487   3.926   1.513
  767SOL    HW3 3099   0.416   4.005   1.406
  767SOL    MW4 3100   0.429   3.987   1.490
  768SOL     OW 3101   0.446   4.245   1.616
  768SOL    HW2 3102   0.450   4.152   1.596
  768SOL    HW3 3103   0.366   4.276   1.573
  768SOL    MW4 3104   0.436   4.237   1.608
  769SOL     OW 3105   0.667   4.318   1.478
  769SOL    HW2 3106   0.595   4.285   1.532
  769SOL    HW3 3107   0.667   4.412   1.494
  769SOL    MW4 3108   0.657   4.326   1.487
  770SOL     OW 3109   1.111   4.597   1.601
  770SOL    HW2 3110   1.116   4.594   1.697
  770SOL    HW3 3111   1.187   4.648   1.574
  770SOL    MW4 3112   1.121   4.603   1.610
  771SOL     OW 3113   0.954   0.081   1.454
  771SOL    HW2 3114   0.965   0.173   1.478
  771SOL    HW3 3115   1.010   0.033   1.515
  771SOL    MW4 3116   0.963   0.087   1.465
  772SOL     OW 3117   0.924   0.361   1.570
  772SOL    HW2 3118   0.934   0.377   1.663
  772SOL    HW3 3119   0.832   0.384   1.551
  772SOL    MW4 3120   0.913   0.366   1.580
  773SOL     OW 3121   1.116   0.508   1.434
  773SOL    HW2 3122   1.125   0.592   1.479
  773SOL    HW3 3123   1.050   0.461   1.486
  773SOL    MW4 3124   1.108   0.513   1.447
  774SOL     OW 3125   1.141   0.752   1.562
  774SOL    HW2 3126   1.126   0.762   1.656
  774SOL    HW3 3127   1.228   0.790   1.548
  774SOL    MW4 3128   1.151   0.759   1.572
  775SOL     OW 3129   0.912   0.889   1.478
  775SOL    HW2 3130   0.992   0.839   1.495
  775SOL    HW3 3131   0.901   0.886   1.383
  775SOL    MW4 3132   0.921   0.882   1.468
  776SOL     OW 3133   0.865   1.160   1.606
  776SOL    HW2 3134   0.878   1.077   1.560
  776SOL    HW3 3135   0.784   1.196   1.569
  776SOL    MW4 3136   0.856   1.154   1.595
  777SOL     OW 3137   1.101   1.258   1.482
  777SOL    HW2 3138   1.176   1.204   1.509
  777SOL    HW3 3139   1.027   1.224   1.534
  777SOL    MW4 3140   1.101   1.246   1.493
  778SOL     OW 3141   1.078   1.532   1.558
  778SOL    HW2 3142   1.157   1.584   1.545
  778SOL    HW3 3143   1.102   1.444   1.531
  778SOL    MW4 3144   1.091   1.527   1.553
  779SOL     OW 3145   0.869   1.676   1.469
  779SOL    HW2 3146   0.936   1.620   1.507
  779SOL    HW3 3147   0.880   1.665   1.374
  779SOL    MW4 3148   0.879   1.667   1.461
  780SOL     OW 3149   0.875   1.930   1.581
  780SOL    HW2 3150   0.952   1.972   1.544
  780SOL    HW3 3151   0.872   1.843   1.541
  780SOL    MW4 3152   0.884   1.924   1.571
  781SOL     OW 3153   1.111   2.048   1.479
  781SOL    HW2 3154   1.187   1.997   1.508
  781SOL    HW3 3155   1.119   2.131   1.526
  781SOL    MW4 3156   1.122   2.052   1.489
  782SOL     OW 3157   1.120   2.311   1.593
  782SOL    HW2 3158   1.197   2.357   1.560
  782SOL    HW3 3159   1.046   2.366   1.567
  782SOL    MW4 3160   1.120   2.324   1.586
  783SOL     OW 3161   0.896   2.428   1.492
  783SOL    HW2 3162   0.913   2.517   1.525
  783SOL    HW3 3163   0.809   2.407   1.526
  783SOL    MW4 3164   0.887   2.437   1.501
  784SOL     OW 3165   0.919   2.687   1.552
  784SOL    HW2 3166   0.902   2.686   1.646
  784SOL    HW3 3167   0.848   2.740   1.516
  784SOL    MW4 3168   0.907   2.694   1.560
  785SOL     OW 3169   1.139   2.815   1.430
  785SOL    HW2 3170   1.158   2.897   1.476
  785SOL    HW3 3171   1.063   2.779   1.475
  785SOL    MW4 3172   1.131   2.821   1.442
  786SOL     OW 3173   1.140   3.079   1.563
  786SOL    HW2 3174   1.131   3.077   1.659
  786SOL    HW3 3175   1.219   3.131   1.548
  786SOL    MW4 3176   1.150   3.086   1.574
  787SOL     OW 3177   0.892   3.179   1.516
  787SOL    HW2 3178   0.984   3.154   1.524
  787SOL    HW3 3179   0.884   3.213   1.427
  787SOL    MW4 3180   0.903   3.180   1.505
  788SOL     OW 3181   0.846   3.454   1.592
  788SOL    HW2 3182   0.926   3.484   1.549
  788SOL    HW3 3183   0.854   3.359   1.595
  788SOL    MW4 3184   0.857   3.446   1.587
  789SOL     OW 3185   1.096   3.547   1.473
  789SOL    HW2 3186   1.181   3.518   1.506
  789SOL    HW3 3187   1.106   3.546   1.378
  789SOL    MW4 3188   1.108   3.543   1.465
  790SOL     OW 3189   1.098   3.803   1.562
  790SOL    HW2 3190   1.170   3.855   1.525
  790SOL    HW3 3191   1.095   3.724   1.508
  790SOL    MW4 3192   1.107   3.800   1.550
  791SOL     OW 3193   0.868   3.926   1.457
  791SOL    HW2 3194   0.860   4.008   1.505
  791SOL    HW3 3195   0.942   3.881   1.497
  791SOL    MW4 3196   0.876   3.931   1.469
  792SOL     OW 3197   0.907   4.201   1.561
  792SOL    HW2 3198   0.902   4.225   1.653
  792SOL    HW3 3199   0.833   4.247   1.520
  792SOL    MW4 3200   0.896   4.210   1.568
  793SOL     OW 3201   1.117   4.336   1.465
  793SOL    HW2 3202   1.045   4.285   1.501
  793SOL    HW3 3203   1.113   4.419   1.514
  793SOL    MW4 3204   1.107   4.340   1.476
  794SOL     OW 3205   1.580   0.021   1.561
  794SOL    HW2 3206   1.575   0.017   1.656
  794SOL    HW3 3207   1.494   0.054   1.533
  794SOL    MW4 3208   1.568   0.024   1.570
  795SOL     OW 3209   1.319   0.111   1.522
  795SOL    HW2 3210   1.312   0.200   1.557
  795SOL    HW3 3211   1.316   0.123   1.427
  795SOL    MW4 3212   1.317   0.125   1.514
  796SOL     OW 3213   1.327   0.375   1.558
  796SOL    HW2 3214   1.417   0.389   1.528
  796SOL    HW3 3215   1.274   0.427   1.498
  796SOL    MW4 3216   1.332   0.384   1.546
  797SOL     OW 3217   1.567   0.480   1.491
  797SOL    HW2 3218   1.648   0.439   1.521
  797SOL    HW3 3219   1.581   0.495   1.398
  797SOL    MW4 3220   1.579   0.477   1.483
  798SOL     OW 3221   1.634   0.739   1.561
  798SOL    HW2 3222   1.623   0.746   1.656
  798SOL    HW3 3223   1.593   0.655   1.539
  798SOL    MW4 3224   1.627   0.729   1.571
  799SOL     OW 3225   1.399   0.887   1.474
  799SOL    HW2 3226   1.464   0.818   1.489
  799SOL    HW3 3227   1.387   0.889   1.379
  799SOL    MW4 3228   1.406   0.878   1.464
  800SOL     OW 3229   1.355   1.150   1.529
  800SOL    HW2 3230   1.368   1.152   1.624
  800SOL    HW3 3231   1.374   1.060   1.504
  800SOL    MW4 3232   1.359   1.139   1.538
  801SOL     OW 3233   1.571   1.317   1.446
  801SOL    HW2 3234   1.489   1.277   1.473
  801SOL    HW3 3235   1.565   1.321   1.350
  801SOL    MW4 3236   1.560   1.312   1.437
  802SOL     OW 3237   1.541   1.565   1.605
  802SOL    HW2 3238   1.562   1.574   1.698
  802SOL    HW3 3239   1.577   1.480   1.581
  802SOL    MW4 3240   1.549   1.555   1.614
  803SOL     OW 3241   1.305   1.676   1.509
  803SOL    HW2 3242   1.384   1.646   1.555
  803SOL    HW3 3243   1.318   1.648   1.419
  803SOL    MW4 3244   1.317   1.668   1.503
  804SOL     OW 3245   1.352   1.932   1.571
  804SOL    HW2 3246   1.352   1.934   1.667
  804SOL    HW3 3247   1.335   1.841   1.549
  804SOL    MW4 3248   1.350   1.921   1.581
  805SOL     OW 3249   1.594   2.075   1.504
  805SOL    HW2 3250   1.522   2.018   1.532
  805SOL    HW3 3251   1.578   2.091   1.411
  805SOL    MW4 3252   1.582   2.070   1.496
  806SOL     OW 3253   1.580   2.340   1.608
  806SOL    HW2 3254   1.659   2.386   1.578
  806SOL    HW3 3255   1.594   2.249   1.581
  806SOL    MW4 3256   1.592   2.334   1.600
  807SOL     OW 3257   1.347   2.424   1.475
  807SOL    HW2 3258   1.341   2.517   1.498
  807SOL    HW3 3259   1.420   2.391   1.527
  807SOL    MW4 3260   1.356   2.432   1.485
  808SOL     OW 3261   1.336   2.678   1.551
  808SOL    HW2 3262   1.406   2.742   1.534
  808SOL    HW3 3263   1.259   2.714   1.507
  808SOL    MW4 3264   1.335   2.691   1.543
  809SOL     OW 3265   1.553   2.846   1.500
  809SOL    HW2 3266   1.623   2.784   1.521
  809SOL    HW3 3267   1.555   2.851   1.404
  809SOL    MW4 3268   1.562   2.838   1.490
  810SOL     OW 3269   1.592   3.099   1.615
  810SOL    HW2 3270   1.660   3.137   1.559
  810SOL    HW3 3271   1.587   3.008   1.586
  810SOL    MW4 3272   1.600   3.092   1.604
  811SOL     OW 3273   1.363   3.201   1.476
  811SOL    HW2 3274   1.346   3.278   1.530
  811SOL    HW3 3275   1.446   3.166   1.509
  811SOL    MW4 3276   1.372   3.207   1.487
  812SOL     OW 3277   1.331   3.442   1.610
  812SOL    HW2 3278   1.334   3.481   1.697
  812SOL    HW3 3279   1.408   3.477   1.565
  812SOL    MW4 3280   1.341   3.452   1.616
  813SOL     OW 3281   1.547   3.577   1.502
  813SOL    HW2 3282   1.549   3.664   1.542
  813SOL    HW3 3283   1.563   3.593   1.409
  813SOL    MW4 3284   1.549   3.590   1.495
  814SOL     OW 3285   1.540   3.849   1.603
  814SOL    HW2 3286   1.551   3.872   1.695
  814SOL    HW3 3287   1.460   3.894   1.576
  814SOL    MW4 3288   1.531   3.858   1.612
  815SOL     OW 3289   1.326   3.958   1.490
  815SOL    HW2 3290   1.343   4.047   1.522
  815SOL    HW3 3291   1.326   3.966   1.395
  815SOL    MW4 3292   1.328   3.971   1.482
  816SOL     OW 3293   1.368   4.222   1.553
  816SOL    HW2 3294   1.431   4.294   1.551
  816SOL    HW3 3295   1.285   4.261   1.526
  816SOL    MW4 3296   1.366   4.236   1.549
  817SOL     OW 3297   1.573   4.418   1.518
  817SOL    HW2 3298   1.662   4.384   1.529
  817SOL    HW3 3299   1.581   4.512   1.533
  817SOL    MW4 3300   1.586   4.426   1.522
  818SOL     OW 3301   2.042   4.643   1.585
  818SOL    HW2 3302   2.034   4.621   1.678
  818SOL    HW3 3303   1.960   4.690   1.565
  818SOL    MW4 3304   2.030   4.647   1.594
  819SOL     OW 3305   1.836   0.130   1.491
  819SOL    HW2 3306   1.748   0.103   1.517
  819SOL    HW3 3307   1.838   0.116   1.396
  819SOL    MW4 3308   1.825   0.125   1.482
  820SOL     OW 3309   1.820   0.407   1.546
  820SOL    HW2 3310   1.891   0.451   1.500
  820SOL    HW3 3311   1.831   0.314   1.526
  820SOL    MW4 3312   1.830   0.401   1.538
  821SOL     OW 3313   2.057   0.530   1.457
  821SOL    HW2 3314   2.128   0.485   1.503
  821SOL    HW3 3315   2.036   0.605   1.513
  821SOL    MW4 3316   2.063   0.534   1.470
  822SOL     OW 3317   2.038   0.769   1.581
  822SOL    HW2 3318   2.121   0.811   1.560
  822SOL    HW3 3319   1.971   0.826   1.543
  822SOL    MW4 3320   2.040   0.782   1.573
  823SOL     OW 3321   1.818   0.898   1.446
  823SOL    HW2 3322   1.791   0.983   1.480
  823SOL    HW3 3323   1.759   0.835   1.487
  823SOL    MW4 3324   1.807   0.901   1.456
  824SOL     OW 3325   1.732   1.131   1.566
  824SOL    HW2 3326   1.819   1.172   1.560
  824SOL    HW3 3327   1.672   1.197   1.531
  824SOL    MW4 3328   1.736   1.145   1.561
  825SOL     OW 3329   1.961   1.289   1.497
  825SOL    HW2 3330   1.999   1.371   1.529
  825SOL    HW3 3331   1.968   1.295   1.402
  825SOL    MW4 3332   1.967   1.301   1.489
  826SOL     OW 3333   2.022   1.530   1.599
  826SOL    HW2 3334   2.078   1.591   1.550
  826SOL    HW3 3335   1.933   1.555   1.576
  826SOL    MW4 3336   2.018   1.542   1.590
  827SOL     OW 3337   1.791   1.683   1.531
  827SOL    HW2 3338   1.706   1.655   1.564
  827SOL    HW3 3339   1.783   1.680   1.436
  827SOL    MW4 3340   1.779   1.679   1.523
  828SOL     OW 3341   1.818   1.942   1.578
  828SOL    HW2 3342   1.797   1.854   1.546
  828SOL    HW3 3343   1.747   1.997   1.545
  828SOL    MW4 3344   1.806   1.938   1.569
  829SOL     OW 3345   2.025   2.014   1.429
  829SOL    HW2 3346   2.091   1.992   1.495
  829SOL    HW3 3347   1.943   1.983   1.468
  829SOL    MW4 3348   2.023   2.007   1.443
  830SOL     OW 3349   2.009   2.278   1.511
  830SOL    HW2 3350   2.024   2.283   1.606
  830SOL    HW3 3351   2.004   2.184   1.493
  830SOL    MW4 3352   2.010   2.266   1.521
  831SOL     OW 3353   1.791   2.461   1.497
  831SOL    HW2 3354   1.867   2.402   1.502
  831SOL    HW3 3355   1.768   2.463   1.404
  831SOL    MW4 3356   1.798   2.454   1.485
  832SOL     OW 3357   1.815   2.729   1.559
  832SOL    HW2 3358   1.899   2.763   1.528
  832SOL    HW3 3359   1.818   2.636   1.536
  832SOL    MW4 3360   1.827   2.721   1.552
  833SOL     OW 3361   2.060   2.835   1.496
  833SOL    HW2 3362   2.039   2.924   1.523
  833SOL    HW3 3363   2.079   2.842   1.402
  833SOL    MW4 3364   2.060   2.848   1.487
  834SOL     OW 3365   2.000   3.102   1.571
  834SOL    HW2 3366   2.009   3.106   1.667
  834SOL    HW3 3367   2.083   3.136   1.539
  834SOL    MW4 3368   2.012   3.107   1.580
  835SOL     OW 3369   1.783   3.239   1.454
  835SOL    HW2 3370   1.796   3.326   1.490
  835SOL    HW3 3371   1.849   3.185   1.496
  835SOL    MW4 3372   1.793   3.243   1.464
  836SOL     OW 3373   1.800   3.491   1.575
  836SOL    HW2 3374   1.812   3.488   1.670
  836SOL    HW3 3375   1.711   3.525   1.563
  836SOL    MW4 3376   1.790   3.495   1.586
  837SOL     OW 3377   2.019   3.635   1.492
  837SOL    HW2 3378   2.098   3.589   1.521
  837SOL    HW3 3379   1.947   3.588   1.534
  837SOL    MW4 3380   2.020   3.623   1.502
  838SOL     OW 3381   2.001   3.879   1.628
  838SOL    HW2 3382   2.052   3.948   1.585
  838SOL    HW3 3383   2.029   3.798   1.586
  838SOL    MW4 3384   2.012   3.877   1.617
  839SOL     OW 3385   1.783   3.973   1.487
  839SOL    HW2 3386   1.856   3.931   1.531
  839SOL    HW3 3387   1.705   3.940   1.531
  839SOL    MW4 3388   1.783   3.963   1.498
  840SOL     OW 3389   1.815   4.275   1.548
  840SOL    HW2 3390   1.899   4.297   1.508
  840SOL    HW3 3391   1.808   4.180   1.538
  840SOL    MW4 3392   1.825   4.265   1.542
  841SOL     OW 3393   2.057   4.398   1.433
  841SOL    HW2 3394   2.120   4.340   1.476
  841SOL    HW3 3395   2.074   4.484   1.470
  841SOL    MW4 3396   2.068   4.401   1.443
  842SOL     OW 3397   2.480   4.618   1.596
  842SOL    HW2 3398   2.490   4.609   1.691
  842SOL    HW3 3399   2.401   4.671   1.586
  842SOL    MW4 3400   2.471   4.624   1.607
  843SOL     OW 3401   2.275   0.114   1.528
  843SOL    HW2 3402   2.201   0.066   1.566
  843SOL    HW3 3403   2.266   0.100   1.434
  843SOL    MW4 3404   2.264   0.106   1.521
  844SOL     OW 3405   2.264   0.388   1.571
  844SOL    HW2 3406   2.265   0.375   1.666
  844SOL    HW3 3407   2.259   0.300   1.535
  844SOL    MW4 3408   2.263   0.375   1.579
  845SOL     OW 3409   2.480   0.496   1.450
  845SOL    HW2 3410   2.544   0.468   1.516
  845SOL    HW3 3411   2.398   0.456   1.478
  845SOL    MW4 3412   2.478   0.487   1.463
  846SOL     OW 3413   2.514   0.733   1.598
  846SOL    HW2 3414   2.434   0.785   1.586
  846SOL    HW3 3415   2.496   0.651   1.551
  846SOL    MW4 3416   2.501   0.729   1.590
  847SOL     OW 3417   2.289   0.866   1.527
  847SOL    HW2 3418   2.277   0.955   1.561
  847SOL    HW3 3419   2.279   0.876   1.432
  847SOL    MW4 3420   2.286   0.879   1.519
  848SOL     OW 3421   2.203   1.131   1.577
  848SOL    HW2 3422   2.203   1.161   1.668
  848SOL    HW3 3423   2.118   1.158   1.542
  848SOL    MW4 3424   2.192   1.139   1.584
  849SOL     OW 3425   2.412   1.278   1.484
  849SOL    HW2 3426   2.336   1.244   1.531
  849SOL    HW3 3427   2.400   1.248   1.394
  849SOL    MW4 3428   2.400   1.270   1.478
  850SOL     OW 3429   2.439   1.539   1.586
  850SOL    HW2 3430   2.523   1.581   1.570
  850SOL    HW3 3431   2.446   1.454   1.542
  850SOL    MW4 3432   2.451   1.534   1.578
  851SOL     OW 3433   2.230   1.655   1.485
  851SOL    HW2 3434   2.309   1.614   1.520
  851SOL    HW3 3435   2.246   1.660   1.391
  851SOL    MW4 3436   2.243   1.651   1.477
  852SOL     OW 3437   2.242   1.932   1.572
  852SOL    HW2 3438   2.238   1.921   1.667
  852SOL    HW3 3439   2.243   1.843   1.537
  852SOL    MW4 3440   2.241   1.919   1.580
  853SOL     OW 3441   2.464   2.091   1.464
  853SOL    HW2 3442   2.383   2.048   1.491
  853SOL    HW3 3443   2.466   2.079   1.369
  853SOL    MW4 3444   2.453   2.084   1.455
  854SOL     OW 3445   2.493   2.331   1.602
  854SOL    HW2 3446   2.476   2.315   1.695
  854SOL    HW3 3447   2.491   2.245   1.562
  854SOL    MW4 3448   2.490   2.318   1.609
  855SOL     OW 3449   2.269   2.456   1.484
  855SOL    HW2 3450   2.352   2.415   1.510
  855SOL    HW3 3451   2.204   2.386   1.494
  855SOL    MW4 3452   2.271   2.441   1.489
  856SOL     OW 3453   2.266   2.706   1.624
  856SOL    HW2 3454   2.254   2.618   1.587
  856SOL    HW3 3455   2.195   2.758   1.586
  856SOL    MW4 3456   2.255   2.701   1.614
  857SOL     OW 3457   2.442   2.873   1.473
  857SOL    HW2 3458   2.453   2.959   1.513
  857SOL    HW3 3459   2.386   2.825   1.534
  857SOL    MW4 3460   2.436   2.878   1.486
  858SOL     OW 3461   2.432   3.125   1.607
  858SOL    HW2 3462   2.512   3.162   1.571
  858SOL    HW3 3463   2.363   3.158   1.549
  858SOL    MW4 3464   2.433   3.134   1.594
  859SOL     OW 3465   2.233   3.252   1.473
  859SOL    HW2 3466   2.251   3.341   1.503
  859SOL    HW3 3467   2.238   3.258   1.377
  859SOL    MW4 3468   2.236   3.265   1.464
  860SOL     OW 3469   2.257   3.505   1.575
  860SOL    HW2 3470   2.267   3.480   1.667
  860SOL    HW3 3471   2.337   3.556   1.555
  860SOL    MW4 3472   2.269   3.509   1.584
  861SOL     OW 3473   2.467   3.645   1.486
  861SOL    HW2 3474   2.549   3.599   1.506
  861SOL    HW3 3475   2.478   3.731   1.526
  861SOL    MW4 3476   2.479   3.650   1.494
  862SOL     OW 3477   2.472   3.891   1.587
  862SOL    HW2 3478   2.487   3.890   1.682
  862SOL    HW3 3479   2.542   3.946   1.553
  862SOL    MW4 3480   2.483   3.898   1.595
  863SOL     OW 3481   2.233   4.007   1.490
  863SOL    HW2 3482   2.310   3.961   1.523
  863SOL    HW3 3483   2.240   4.003   1.395
  863SOL    MW4 3484   2.244   4.001   1.482
  864SOL     OW 3485   2.235   4.261   1.589
  864SOL    HW2 3486   2.310   4.297   1.543
  864SOL    HW3 3487   2.229   4.170   1.558
  864SOL    MW4 3488   2.244   4.254   1.579
  865SOL     OW 3489   2.445   4.387   1.452
  865SOL    HW2 3490   2.460   4.476   1.485
  865SOL    HW3 3491   2.460   4.394   1.358
  865SOL    MW4 3492   2.449   4.400   1.444
  866SOL     OW 3493   2.902   4.626   1.626
  866SOL    HW2 3494   2.905   4.628   1.722
  866SOL    HW3 3495   2.829   4.684   1.604
  866SOL    MW4 3496   2.893   4.634   1.636
  867SOL     OW 3497   2.689   0.124   1.529
  867SOL    HW2 3498   2.669   0.204   1.576
  867SOL    HW3 3499   2.616   0.065   1.549
  867SOL    MW4 3500   2.677   0.127   1.538
  868SOL     OW 3501   2.649   0.369   1.632
  868SOL    HW2 3502   2.643   0.363   1.727
  868SOL    HW3 3503   2.743   0.379   1.614
  868SOL    MW4 3504   2.661   0.370   1.642
  869SOL     OW 3505   2.894   0.443   1.495
  869SOL    HW2 3506   2.913   0.533   1.522
  869SOL    HW3 3507   2.893   0.446   1.400
  869SOL    MW4 3508   2.896   0.455   1.486
  870SOL     OW 3509   2.964   0.698   1.565
  870SOL    HW2 3510   2.969   0.703   1.661
  870SOL    HW3 3511   2.897   0.762   1.541
  870SOL    MW4 3512   2.956   0.707   1.575
  871SOL     OW 3513   2.753   0.876   1.490
  871SOL    HW2 3514   2.710   0.798   1.525
  871SOL    HW3 3515   2.731   0.876   1.397
  871SOL    MW4 3516   2.744   0.866   1.482
  872SOL     OW 3517   2.688   1.131   1.558
  872SOL    HW2 3518   2.676   1.036   1.551
  872SOL    HW3 3519   2.605   1.168   1.529
  872SOL    MW4 3520   2.676   1.123   1.554
  873SOL     OW 3521   2.909   1.273   1.504
  873SOL    HW2 3522   2.977   1.223   1.550
  873SOL    HW3 3523   2.828   1.225   1.522
  873SOL    MW4 3524   2.907   1.260   1.513
  874SOL     OW 3525   2.905   1.529   1.616
  874SOL    HW2 3526   2.834   1.580   1.577
  874SOL    HW3 3527   2.895   1.442   1.577
  874SOL    MW4 3528   2.894   1.524   1.605
  875SOL     OW 3529   2.679   1.657   1.511
  875SOL    HW2 3530   2.689   1.752   1.516
  875SOL    HW3 3531   2.676   1.638   1.417
  875SOL    MW4 3532   2.680   1.667   1.499
  876SOL     OW 3533   2.702   1.938   1.554
  876SOL    HW2 3534   2.696   1.938   1.650
  876SOL    HW3 3535   2.632   1.996   1.526
  876SOL    MW4 3536   2.692   1.946   1.563
  877SOL     OW 3537   2.956   2.046   1.491
  877SOL    HW2 3538   2.952   2.141   1.503
  877SOL    HW3 3539   2.870   2.015   1.519
  877SOL    MW4 3540   2.944   2.055   1.497
  878SOL     OW 3541   2.924   2.297   1.581
  878SOL    HW2 3542   2.900   2.287   1.673
  878SOL    HW3 3543   2.853   2.349   1.543
  878SOL    MW4 3544   2.911   2.303   1.588
  879SOL     OW 3545   2.731   2.460   1.474
  879SOL    HW2 3546   2.728   2.553   1.497
  879SOL    HW3 3547   2.651   2.423   1.513
  879SOL    MW4 3548   2.720   2.467   1.482
  880SOL     OW 3549   2.699   2.729   1.522
  880SOL    HW2 3550   2.774   2.769   1.478
  880SOL    HW3 3551   2.628   2.791   1.512
  880SOL    MW4 3552   2.700   2.742   1.515
  881SOL     OW 3553   2.942   2.843   1.434
  881SOL    HW2 3554   3.009   2.802   1.488
  881SOL    HW3 3555   2.922   2.925   1.478
  881SOL    MW4 3556   2.948   2.848   1.447
  882SOL     OW 3557   2.861   3.063   1.588
  882SOL    HW2 3558   2.874   3.020   1.673
  882SOL    HW3 3559   2.938   3.119   1.578
  882SOL    MW4 3560   2.873   3.065   1.598
  883SOL     OW 3561   2.655   3.228   1.491
  883SOL    HW2 3562   2.727   3.182   1.535
  883SOL    HW3 3563   2.667   3.208   1.398
  883SOL    MW4 3564   2.666   3.219   1.485
  884SOL     OW 3565   2.674   3.479   1.575
  884SOL    HW2 3566   2.673   3.480   1.671
  884SOL    HW3 3567   2.674   3.386   1.552
  884SOL    MW4 3568   2.674   3.467   1.584
  885SOL     OW 3569   2.870   3.624   1.483
  885SOL    HW2 3570   2.806   3.558   1.507
  885SOL    HW3 3571   2.875   3.619   1.387
  885SOL    MW4 3572   2.863   3.615   1.473
  886SOL     OW 3573   2.885   3.865   1.620
  886SOL    HW2 3574   2.814   3.919   1.585
  886SOL    HW3 3575   2.877   3.782   1.572
  886SOL    MW4 3576   2.874   3.861   1.609
  887SOL     OW 3577   2.683   4.028   1.478
  887SOL    HW2 3578   2.677   4.115   1.517
  887SOL    HW3 3579   2.670   4.043   1.384
  887SOL    MW4 3580   2.681   4.042   1.471
  888SOL     OW 3581   2.668   4.276   1.572
  888SOL    HW2 3582   2.747   4.317   1.540
  888SOL    HW3 3583   2.597   4.329   1.538
  888SOL    MW4 3584   2.669   4.288   1.563
  889SOL     OW 3585   2.912   4.367   1.506
  889SOL    HW2 3586   2.906   4.452   1.549
  889SOL    HW3 3587   2.917   4.388   1.412
  889SOL    MW4 3588   2.912   4.381   1.499
  890SOL     OW 3589   3.303   4.665   1.623
  890SOL    HW2 3590   3.380   4.713   1.593
  890SOL    HW3 3591   3.316   4.576   1.590
  890SOL    MW4 3592   3.315   4.660   1.615
  891SOL     OW 3593   3.105   0.067   1.464
  891SOL    HW2 3594   3.182   0.036   1.512
  891SOL    HW3 3595   3.031   0.031   1.511
  891SOL    MW4 3596   3.106   0.058   1.476
  892SOL     OW 3597   3.131   0.326   1.592
  892SOL    HW2 3598   3.128   0.250   1.533
  892SOL    HW3 3599   3.054   0.377   1.568
  892SOL    MW4 3600   3.120   0.323   1.581
  893SOL     OW 3601   3.341   0.517   1.535
  893SOL    HW2 3602   3.278   0.457   1.573
  893SOL    HW3 3603   3.354   0.485   1.445
  893SOL    MW4 3604   3.335   0.505   1.528
  894SOL     OW 3605   3.429   0.772   1.585
  894SOL    HW2 3606   3.429   0.779   1.681
  894SOL    HW3 3607   3.395   0.684   1.568
  894SOL    MW4 3608   3.424   0.761   1.595
  895SOL     OW 3609   3.182   0.880   1.514
  895SOL    HW2 3610   3.268   0.837   1.510
  895SOL    HW3 3611   3.121   0.808   1.530
  895SOL    MW4 3612   3.185   0.865   1.516
  896SOL     OW 3613   3.174   1.146   1.585
  896SOL    HW2 3614   3.190   1.150   1.679
  896SOL    HW3 3615   3.182   1.053   1.563
  896SOL    MW4 3616   3.177   1.134   1.595
  897SOL     OW 3617   3.386   1.249   1.447
  897SOL    HW2 3618   3.469   1.223   1.487
  897SOL    HW3 3619   3.319   1.203   1.498
  897SOL    MW4 3620   3.388   1.239   1.459
  898SOL     OW 3621   3.345   1.511   1.551
  898SOL    HW2 3622   3.350   1.499   1.645
  898SOL    HW3 3623   3.369   1.426   1.514
  898SOL    MW4 3624   3.349   1.498   1.558
  899SOL     OW 3625   3.119   1.667   1.504
  899SOL    HW2 3626   3.190   1.604   1.498
  899SOL    HW3 3627   3.049   1.621   1.552
  899SOL    MW4 3628   3.119   1.653   1.510
  900SOL     OW 3629   3.146   1.894   1.630
  900SOL    HW2 3630   3.139   1.811   1.583
  900SOL    HW3 3631   3.095   1.955   1.578
  900SOL    MW4 3632   3.139   1.891   1.617
  901SOL     OW 3633   3.398   1.995   1.535
  901SOL    HW2 3634   3.317   1.956   1.570
  901SOL    HW3 3635   3.383   2.001   1.441
  901SOL    MW4 3636   3.385   1.991   1.527
  902SOL     OW 3637   3.354   2.254   1.584
  902SOL    HW2 3638   3.438   2.291   1.553
  902SOL    HW3 3639   3.369   2.160   1.586
  902SOL    MW4 3640   3.367   2.247   1.580
  903SOL     OW 3641   3.152   2.415   1.466
  903SOL    HW2 3642   3.224   2.360   1.496
  903SOL    HW3 3643   3.075   2.380   1.512
  903SOL    MW4 3644   3.151   2.403   1.476
  904SOL     OW 3645   3.150   2.684   1.551
  904SOL    HW2 3646   3.234   2.724   1.526
  904SOL    HW3 3647   3.158   2.593   1.522
  904SOL    MW4 3648   3.162   2.677   1.544
  905SOL     OW 3649   3.390   2.829   1.485
  905SOL    HW2 3650   3.366   2.905   1.537
  905SOL    HW3 3651   3.396   2.861   1.395
  905SOL    MW4 3652   3.388   2.843   1.480
  906SOL     OW 3653   3.329   3.082   1.600
  906SOL    HW2 3654   3.346   3.079   1.694
  906SOL    HW3 3655   3.409   3.119   1.562
  906SOL    MW4 3656   3.342   3.087   1.608
  907SOL     OW 3657   3.099   3.225   1.533
  907SOL    HW2 3658   3.167   3.166   1.565
  907SOL    HW3 3659   3.094   3.207   1.439
  907SOL    MW4 3660   3.107   3.215   1.525
  908SOL     OW 3661   3.080   3.485   1.593
  908SOL    HW2 3662   3.077   3.394   1.565
  908SOL    HW3 3663   3.001   3.524   1.556
  908SOL    MW4 3664   3.069   3.478   1.584
  909SOL     OW 3665   3.300   3.617   1.481
  909SOL    HW2 3666   3.368   3.566   1.525
  909SOL    HW3 3667   3.218   3.576   1.509
  909SOL    MW4 3668   3.298   3.605   1.490
  910SOL     OW 3669   3.362   3.868   1.591
  910SOL    HW2 3670   3.289   3.920   1.558
  910SOL    HW3 3671   3.355   3.784   1.545
  910SOL    MW4 3672   3.352   3.864   1.581
  911SOL     OW 3673   3.131   3.970   1.496
  911SOL    HW2 3674   3.118   4.062   1.521
  911SOL    HW3 3675   3.052   3.926   1.528
  911SOL    MW4 3676   3.119   3.977   1.504
  912SOL     OW 3677   3.141   4.232   1.592
  912SOL    HW2 3678   3.132   4.234   1.687
  912SOL    HW3 3679   3.056   4.260   1.559
  912SOL    MW4 3680   3.129   4.236   1.600
  913SOL     OW 3681   3.351   4.400   1.524
  913SOL    HW2 3682   3.277   4.355   1.565
  913SOL    HW3 3683   3.336   4.389   1.430
  913SOL    MW4 3684   3.339   4.393   1.517
  914SOL     OW 3685   3.770   4.595   1.615
  914SOL    HW2 3686   3.775   4.602   1.711
  914SOL    HW3 3687   3.840   4.652   1.584
  914SOL    MW4 3688   3.780   4.603   1.624
  915SOL     OW 3689   3.536   0.102   1.518
  915SOL    HW2 3690   3.609   0.060   1.564
  915SOL    HW3 3691   3.557   0.091   1.425
  915SOL    MW4 3692   3.548   0.095   1.512
  916SOL     OW 3693   3.571   0.367   1.613
  916SOL    HW2 3694   3.556   0.285   1.565
  916SOL    HW3 3695   3.496   0.422   1.589
  916SOL    MW4 3696   3.559   0.363   1.603
  917SOL     OW 3697   3.786   0.516   1.540
  917SOL    HW2 3698   3.717   0.454   1.564
  917SOL    HW3 3699   3.781   0.522   1.445
  917SOL    MW4 3700   3.776   0.509   1.531
  918SOL     OW 3701   3.854   0.771   1.563
  918SOL    HW2 3702   3.781   0.820   1.526
  918SOL    HW3 3703   3.823   0.681   1.570
  918SOL    MW4 3704   3.840   0.766   1.559
  919SOL     OW 3705   3.632   0.907   1.449
  919SOL    HW2 3706   3.563   0.859   1.495
  919SOL    HW3 3707   3.624   0.880   1.358
  919SOL    MW4 3708   3.622   0.897   1.443
  920SOL     OW 3709   3.614   1.155   1.565
  920SOL    HW2 3710   3.686   1.211   1.536
  920SOL    HW3 3711   3.625   1.074   1.514
  920SOL    MW4 3712   3.625   1.152   1.554
  921SOL     OW 3713   3.849   1.227   1.422
  921SOL    HW2 3714   3.926   1.183   1.458
  921SOL    HW3 3715   3.841   1.307   1.474
  921SOL    MW4 3716   3.858   1.232   1.433
  922SOL     OW 3717   3.799   1.448   1.578
  922SOL    HW2 3718   3.804   1.472   1.670
  922SOL    HW3 3719   3.743   1.514   1.538
  922SOL    MW4 3720   3.792   1.460   1.585
  923SOL     OW 3721   3.598   1.623   1.510
  923SOL    HW2 3722   3.509   1.598   1.534
  923SOL    HW3 3723   3.593   1.642   1.416
  923SOL    MW4 3724   3.585   1.622   1.501
  924SOL     OW 3725   3.647   1.886   1.598
  924SOL    HW2 3726   3.638   1.795   1.573
  924SOL    HW3 3727   3.564   1.927   1.572
  924SOL    MW4 3728   3.635   1.880   1.591
  925SOL     OW 3729   3.856   2.008   1.493
  925SOL    HW2 3730   3.845   2.100   1.520
  925SOL    HW3 3731   3.781   1.963   1.533
  925SOL    MW4 3732   3.845   2.014   1.502
  926SOL     OW 3733   3.835   2.269   1.571
  926SOL    HW2 3734   3.834   2.289   1.664
  926SOL    HW3 3735   3.899   2.329   1.534
  926SOL    MW4 3736   3.843   2.279   1.578
  927SOL     OW 3737   3.591   2.383   1.478
  927SOL    HW2 3738   3.592   2.461   1.533
  927SOL    HW3 3739   3.667   2.333   1.506
  927SOL    MW4 3740   3.601   2.386   1.489
  928SOL     OW 3741   3.564   2.644   1.591
  928SOL    HW2 3742   3.571   2.675   1.681
  928SOL    HW3 3743   3.493   2.697   1.553
  928SOL    MW4 3744   3.555   2.655   1.598
  929SOL     OW 3745   3.778   2.811   1.492
  929SOL    HW2 3746   3.858   2.776   1.532
  929SOL    HW3 3747   3.707   2.764   1.535
  929SOL    MW4 3748   3.779   2.801   1.503
  930SOL     OW 3749   3.810   3.104   1.564
  930SOL    HW2 3750   3.902   3.121   1.545
  930SOL    HW3 3751   3.798   3.011   1.545
  930SOL    MW4 3752   3.821   3.094   1.559
  931SOL     OW 3753   3.561   3.215   1.497
  931SOL    HW2 3754   3.651   3.192   1.520
  931SOL    HW3 3755   3.556   3.203   1.402
  931SOL    MW4 3756   3.572   3.211   1.487
  932SOL     OW 3757   3.526   3.485   1.581
  932SOL    HW2 3758   3.618   3.505   1.562
  932SOL    HW3 3759   3.516   3.394   1.553
  932SOL    MW4 3760   3.537   3.475   1.575
  933SOL     OW 3761   3.787   3.576   1.527
  933SOL    HW2 3762   3.868   3.527   1.540
  933SOL    HW3 3763   3.809   3.666   1.549
  933SOL    MW4 3764   3.801   3.581   1.531
  934SOL     OW 3765   3.827   3.840   1.567
  934SOL    HW2 3766   3.898   3.901   1.548
  934SOL    HW3 3767   3.747   3.887   1.544
  934SOL    MW4 3768   3.826   3.854   1.561
  935SOL     OW 3769   3.602   3.965   1.492
  935SOL    HW2 3770   3.598   4.056   1.521
  935SOL    HW3 3771   3.523   3.924   1.528
  935SOL    MW4 3772   3.591   3.971   1.501
  936SOL     OW 3773   3.584   4.257   1.555
  936SOL    HW2 3774   3.599   4.257   1.650
  936SOL    HW3 3775   3.514   4.321   1.542
  936SOL    MW4 3776   3.577   4.265   1.566
  937SOL     OW 3777   3.813   4.369   1.473
  937SOL    HW2 3778   3.729   4.329   1.493
  937SOL    HW3 3779   3.811   4.453   1.520
  937SOL    MW4 3780   3.802   4.375   1.482
  938SOL     OW 3781   4.271   0.015   1.532
  938SOL    HW2 3782   4.280   0.007   1.627
  938SOL    HW3 3783   4.276  -0.075   1.499
  938SOL    MW4 3784   4.273   0.002   1.540
  939SOL     OW 3785   3.999   0.085   1.540
  939SOL    HW2 3786   4.009   0.179   1.555
  939SOL    HW3 3787   4.089   0.053   1.529
  939SOL    MW4 3788   4.012   0.093   1.541
  940SOL     OW 3789   3.999   0.358   1.579
  940SOL    HW2 3790   4.008   0.368   1.673
  940SOL    HW3 3791   3.927   0.416   1.555
  940SOL    MW4 3792   3.991   0.367   1.588
  941SOL     OW 3793   4.224   0.473   1.434
  941SOL    HW2 3794   4.150   0.449   1.489
  941SOL    HW3 3795   4.300   0.434   1.478
  941SOL    MW4 3796   4.224   0.465   1.447
  942SOL     OW 3797   4.296   0.713   1.548
  942SOL    HW2 3798   4.273   0.635   1.497
  942SOL    HW3 3799   4.382   0.738   1.515
  942SOL    MW4 3800   4.305   0.706   1.537
  943SOL     OW 3801   4.080   0.842   1.435
  943SOL    HW2 3802   4.154   0.798   1.478
  943SOL    HW3 3803   4.003   0.806   1.479
  943SOL    MW4 3804   4.079   0.831   1.447
  944SOL     OW 3805   4.066   1.110   1.541
  944SOL    HW2 3806   4.069   1.119   1.637
  944SOL    HW3 3807   4.087   1.018   1.525
  944SOL    MW4 3808   4.069   1.099   1.552
  945SOL     OW 3809   4.272   1.277   1.484
  945SOL    HW2 3810   4.193   1.223   1.488
  945SOL    HW3 3811   4.342   1.220   1.513
  945SOL    MW4 3812   4.271   1.263   1.488
  946SOL     OW 3813   4.252   1.540   1.583
  946SOL    HW2 3814   4.268   1.446   1.577
  946SOL    HW3 3815   4.330   1.580   1.545
  946SOL    MW4 3816   4.264   1.533   1.577
  947SOL     OW 3817   4.010   1.607   1.466
  947SOL    HW2 3818   4.090   1.586   1.515
  947SOL    HW3 3819   3.943   1.553   1.507
  947SOL    MW4 3820   4.012   1.597   1.478
  948SOL     OW 3821   4.056   1.872   1.590
  948SOL    HW2 3822   4.036   1.785   1.554
  948SOL    HW3 3823   3.990   1.929   1.551
  948SOL    MW4 3824   4.045   1.868   1.580
  949SOL     OW 3825   4.260   2.036   1.493
  949SOL    HW2 3826   4.199   1.971   1.527
  949SOL    HW3 3827   4.249   2.032   1.398
  949SOL    MW4 3828   4.251   2.027   1.485
  950SOL     OW 3829   4.245   2.295   1.605
  950SOL    HW2 3830   4.261   2.299   1.699
  950SOL    HW3 3831   4.242   2.202   1.584
  950SOL    MW4 3832   4.247   2.283   1.615
  951SOL     OW 3833   4.027   2.431   1.493
  951SOL    HW2 3834   4.025   2.519   1.530
  951SOL    HW3 3835   4.095   2.386   1.542
  951SOL    MW4 3836   4.036   2.437   1.504
  952SOL     OW 3837   4.007   2.697   1.587
  952SOL    HW2 3838   4.016   2.708   1.682
  952SOL    HW3 3839   4.094   2.719   1.552
  952SOL    MW4 3840   4.020   2.701   1.595
  953SOL     OW 3841   4.238   2.772   1.468
  953SOL    HW2 3842   4.271   2.856   1.500
  953SOL    HW3 3843   4.236   2.782   1.373
  953SOL    MW4 3844   4.242   2.784   1.460
  954SOL     OW 3845   4.310   3.014   1.612
  954SOL    HW2 3846   4.314   3.029   1.707
  954SOL    HW3 3847   4.385   3.061   1.577
  954SOL    MW4 3848   4.320   3.023   1.620
  955SOL     OW 3849   4.078   3.185   1.495
  955SOL    HW2 3850   4.077   3.272   1.534
  955SOL    HW3 3851   4.152   3.141   1.536
  955SOL    MW4 3852   4.088   3.190   1.506
  956SOL     OW 3853   4.040   3.443   1.589
  956SOL    HW2 3854   4.050   3.448   1.684
  956SOL    HW3 3855   4.107   3.502   1.554
  956SOL    MW4 3856   4.050   3.452   1.597
  957SOL     OW 3857   4.261   3.584   1.470
  957SOL    HW2 3858   4.256   3.673   1.506
  957SOL    HW3 3859   4.245   3.595   1.377
  957SOL    MW4 3860   4.259   3.597   1.463
  958SOL     OW 3861   4.257   3.849   1.571
  958SOL    HW2 3862   4.192   3.907   1.532
  958SOL    HW3 3863   4.340   3.872   1.528
  958SOL    MW4 3864   4.259   3.860   1.560
  959SOL     OW 3865   4.051   3.981   1.470
  959SOL    HW2 3866   4.042   4.070   1.503
  959SOL    HW3 3867   4.039   3.988   1.375
  959SOL    MW4 3868   4.048   3.993   1.462
  960SOL     OW 3869   4.058   4.261   1.549
  960SOL    HW2 3870   4.061   4.266   1.645
  960SOL    HW3 3871   3.970   4.292   1.527
  960SOL    MW4 3872   4.047   4.266   1.559
  961SOL     OW 3873   4.289   4.386   1.467
  961SOL    HW2 3874   4.209   4.347   1.501
  961SOL    HW3 3875   4.279   4.381   1.371
  961SOL    MW4 3876   4.277   4.380   1.459
  962SOL     OW 3877   0.215   4.656   1.850
  962SOL    HW2 3878   0.288   4.714   1.873
  962SOL    HW3 3879   0.223   4.643   1.756
  962SOL    MW4 3880   0.226   4.662   1.841
  963SOL     OW 3881   4.472   0.081   1.950
  963SOL    HW2 3882   4.473   0.174   1.927
  963SOL    HW3 3883   4.554   0.046   1.913
  963SOL    MW4 3884   4.483   0.089   1.942
  964SOL     OW 3885   4.479   0.370   1.846
  964SOL    HW2 3886   4.411   0.429   1.877
  964SOL    HW3 3887   4.562   0.415   1.864
  964SOL    MW4 3888   4.481   0.384   1.852
  965SOL     OW 3889   0.242   0.479   1.932
  965SOL    HW2 3890   0.324   0.442   1.899
  965SOL    HW3 3891   0.245   0.571   1.905
  965SOL    MW4 3892   0.253   0.487   1.924
  966SOL     OW 3893   0.221   0.743   1.841
  966SOL    HW2 3894   0.293   0.799   1.870
  966SOL    HW3 3895   0.230   0.738   1.746
  966SOL    MW4 3896   0.232   0.750   1.832
  967SOL     OW 3897   4.488   0.887   1.930
  967SOL    HW2 3898   4.407   0.854   1.891
  967SOL    HW3 3899   4.553   0.819   1.912
  967SOL    MW4 3900   4.486   0.874   1.922
  968SOL     OW 3901   0.028   1.140   1.819
  968SOL    HW2 3902  -0.056   1.180   1.841
  968SOL    HW3 3903   0.020   1.050   1.849
  968SOL    MW4 3904   0.016   1.133   1.826
  969SOL     OW 3905   0.218   1.288   1.955
  969SOL    HW2 3906   0.224   1.377   1.918
  969SOL    HW3 3907   0.164   1.240   1.893
  969SOL    MW4 3908   0.212   1.294   1.942
  970SOL     OW 3909   0.246   1.551   1.852
  970SOL    HW2 3910   0.318   1.595   1.897
  970SOL    HW3 3911   0.167   1.577   1.900
  970SOL    MW4 3912   0.245   1.560   1.864
  971SOL     OW 3913   0.012   1.650   1.968
  971SOL    HW2 3914   0.014   1.652   2.064
  971SOL    HW3 3915  -0.078   1.624   1.947
  971SOL    MW4 3916   0.000   1.647   1.978
  972SOL     OW 3917   0.008   1.915   1.865
  972SOL    HW2 3918  -0.058   1.960   1.918
  972SOL    HW3 3919   0.014   1.827   1.902
  972SOL    MW4 3920   0.001   1.909   1.877
  973SOL     OW 3921   0.222   2.049   1.956
  973SOL    HW2 3922   0.220   2.136   1.916
  973SOL    HW3 3923   0.140   2.008   1.928
  973SOL    MW4 3924   0.211   2.055   1.947
  974SOL     OW 3925   0.241   2.303   1.827
  974SOL    HW2 3926   0.315   2.338   1.877
  974SOL    HW3 3927   0.166   2.354   1.856
  974SOL    MW4 3928   0.241   2.315   1.837
  975SOL     OW 3929   0.020   2.433   1.945
  975SOL    HW2 3930   0.039   2.427   2.038
  975SOL    HW3 3931   0.049   2.521   1.920
  975SOL    MW4 3932   0.026   2.444   1.954
  976SOL     OW 3933   0.035   2.674   1.798
  976SOL    HW2 3934  -0.036   2.731   1.827
  976SOL    HW3 3935   0.008   2.645   1.711
  976SOL    MW4 3936   0.022   2.678   1.790
  977SOL     OW 3937   0.217   2.839   1.936
  977SOL    HW2 3938   0.201   2.926   1.899
  977SOL    HW3 3939   0.153   2.783   1.893
  977SOL    MW4 3940   0.207   2.843   1.925
  978SOL     OW 3941   0.218   3.111   1.835
  978SOL    HW2 3942   0.308   3.137   1.855
  978SOL    HW3 3943   0.224   3.068   1.749
  978SOL    MW4 3944   0.230   3.109   1.826
  979SOL     OW 3945   0.040   3.248   1.968
  979SOL    HW2 3946  -0.038   3.195   1.948
  979SOL    HW3 3947   0.113   3.194   1.940
  979SOL    MW4 3948   0.039   3.234   1.962
  980SOL     OW 3949   4.474   3.484   1.839
  980SOL    HW2 3950   4.563   3.517   1.835
  980SOL    HW3 3951   4.479   3.406   1.894
  980SOL    MW4 3952   4.486   3.478   1.846
  981SOL     OW 3953   0.235   3.604   1.939
  981SOL    HW2 3954   0.217   3.599   2.033
  981SOL    HW3 3955   0.305   3.541   1.925
  981SOL    MW4 3956   0.242   3.595   1.949
  982SOL     OW 3957   0.194   3.853   1.869
  982SOL    HW2 3958   0.264   3.908   1.905
  982SOL    HW3 3959   0.218   3.764   1.894
  982SOL    MW4 3960   0.206   3.849   1.877
  983SOL     OW 3961   4.453   3.989   1.966
  983SOL    HW2 3962   4.458   4.075   1.926
  983SOL    HW3 3963   4.530   3.942   1.933
  983SOL    MW4 3964   4.464   3.994   1.957
  984SOL     OW 3965   4.487   4.231   1.848
  984SOL    HW2 3966   4.412   4.282   1.880
  984SOL    HW3 3967   4.564   4.276   1.883
  984SOL    MW4 3968   4.487   4.244   1.857
  985SOL     OW 3969   0.194   4.389   1.945
  985SOL    HW2 3970   0.210   4.390   2.039
  985SOL    HW3 3971   0.210   4.479   1.917
  985SOL    MW4 3972   0.198   4.401   1.954
  986SOL     OW 3973   0.694   4.647   1.835
  986SOL    HW2 3974   0.698   4.565   1.884
  986SOL    HW3 3975   0.702   4.622   1.744
  986SOL    MW4 3976   0.695   4.633   1.830
  987SOL     OW 3977   0.458   0.092   1.945
  987SOL    HW2 3978   0.462   0.182   1.911
  987SOL    HW3 3979   0.538   0.050   1.911
  987SOL    MW4 3980   0.469   0.098   1.936
  988SOL     OW 3981   0.471   0.353   1.825
  988SOL    HW2 3982   0.550   0.404   1.845
  988SOL    HW3 3983   0.475   0.340   1.730
  988SOL    MW4 3984   0.482   0.358   1.815
  989SOL     OW 3985   0.692   0.495   1.960
  989SOL    HW2 3986   0.695   0.479   2.054
  989SOL    HW3 3987   0.775   0.459   1.927
  989SOL    MW4 3988   0.704   0.488   1.968
  990SOL     OW 3989   0.690   0.760   1.860
  990SOL    HW2 3990   0.778   0.790   1.883
  990SOL    HW3 3991   0.688   0.668   1.887
  990SOL    MW4 3992   0.701   0.752   1.867
  991SOL     OW 3993   0.451   0.896   1.922
  991SOL    HW2 3994   0.449   0.989   1.897
  991SOL    HW3 3995   0.540   0.868   1.903
  991SOL    MW4 3996   0.462   0.905   1.916
  992SOL     OW 3997   0.444   1.183   1.865
  992SOL    HW2 3998   0.366   1.224   1.902
  992SOL    HW3 3999   0.426   1.179   1.771
  992SOL    MW4 4000   0.431   1.188   1.857
  993SOL     OW 4001   0.667   1.308   1.992
  993SOL    HW2 4002   0.653   1.304   2.087
  993SOL    HW3 4003   0.596   1.255   1.956
  993SOL    MW4 4004   0.656   1.300   2.000
  994SOL     OW 4005   0.685   1.540   1.852
  994SOL    HW2 4006   0.700   1.451   1.883
  994SOL    HW3 4007   0.679   1.532   1.757
  994SOL    MW4 4008   0.686   1.527   1.843
  995SOL     OW 4009   0.465   1.680   1.962
  995SOL    HW2 4010   0.471   1.681   2.058
  995SOL    HW3 4011   0.549   1.645   1.933
  995SOL    MW4 4012   0.477   1.676   1.971
  996SOL     OW 4013   0.460   1.935   1.841
  996SOL    HW2 4014   0.468   1.851   1.887
  996SOL    HW3 4015   0.386   1.978   1.883
  996SOL    MW4 4016   0.451   1.929   1.852
  997SOL     OW 4017   0.688   2.069   1.940
  997SOL    HW2 4018   0.679   2.042   2.032
  997SOL    HW3 4019   0.624   2.016   1.893
  997SOL    MW4 4020   0.678   2.059   1.946
  998SOL     OW 4021   0.679   2.347   1.869
  998SOL    HW2 4022   0.672   2.253   1.883
  998SOL    HW3 4023   0.670   2.358   1.774
  998SOL    MW4 4024   0.677   2.336   1.858
  999SOL     OW 4025   0.428   2.436   1.996
  999SOL    HW2 4026   0.417   2.438   2.091
  999SOL    HW3 4027   0.521   2.414   1.982
  999SOL    MW4 4028   0.439   2.433   2.006
 1000SOL     OW 4029   0.450   2.702   1.840
 1000SOL    HW2 4030   0.451   2.613   1.876
 1000SOL    HW3 4031   0.373   2.742   1.880
 1000SOL    MW4 4032   0.440   2.695   1.850
 1001SOL     OW 4033   0.667   2.831   1.917
 1001SOL    HW2 4034   0.651   2.847   2.010
 1001SOL    HW3 4035   0.585   2.794   1.885
 1001SOL    MW4 4036   0.654   2.828   1.925
 1002SOL     OW 4037   0.703   3.091   1.814
 1002SOL    HW2 4038   0.697   3.003   1.851
 1002SOL    HW3 4039   0.685   3.079   1.721
 1002SOL    MW4 4040   0.700   3.078   1.807
 1003SOL     OW 4041   0.465   3.181   1.935
 1003SOL    HW2 4042   0.466   3.275   1.919
 1003SOL    HW3 4043   0.549   3.150   1.900
 1003SOL    MW4 4044   0.476   3.189   1.928
 1004SOL     OW 4045   0.462   3.439   1.875
 1004SOL    HW2 4046   0.525   3.505   1.904
 1004SOL    HW3 4047   0.471   3.436   1.780
 1004SOL    MW4 4048   0.471   3.447   1.867
 1005SOL     OW 4049   0.675   3.633   1.957
 1005SOL    HW2 4050   0.751   3.587   1.922
 1005SOL    HW3 4051   0.683   3.722   1.923
 1005SOL    MW4 4052   0.686   3.639   1.948
 1006SOL     OW 4053   0.653   3.890   1.836
 1006SOL    HW2 4054   0.739   3.929   1.845
 1006SOL    HW3 4055   0.654   3.849   1.749
 1006SOL    MW4 4056   0.664   3.889   1.825
 1007SOL     OW 4057   0.421   3.992   1.965
 1007SOL    HW2 4058   0.425   4.087   1.950
 1007SOL    HW3 4059   0.506   3.960   1.936
 1007SOL    MW4 4060   0.433   4.000   1.959
 1008SOL     OW 4061   0.435   4.267   1.892
 1008SOL    HW2 4062   0.364   4.328   1.909
 1008SOL    HW3 4063   0.439   4.261   1.796
 1008SOL    MW4 4064   0.426   4.274   1.882
 1009SOL     OW 4065   0.669   4.387   1.930
 1009SOL    HW2 4066   0.732   4.342   1.874
 1009SOL    HW3 4067   0.588   4.336   1.920
 1009SOL    MW4 4068   0.666   4.374   1.921
 1010SOL     OW 4069   1.111   4.663   1.868
 1010SOL    HW2 4070   1.172   4.708   1.927
 1010SOL    HW3 4071   1.115   4.572   1.895
 1010SOL    MW4 4072   1.120   4.657   1.879
 1011SOL     OW 4073   0.888   0.153   1.944
 1011SOL    HW2 4074   0.962   0.097   1.923
 1011SOL    HW3 4075   0.812   0.108   1.906
 1011SOL    MW4 4076   0.887   0.139   1.936
 1012SOL     OW 4077   0.944   0.384   1.838
 1012SOL    HW2 4078   1.014   0.423   1.890
 1012SOL    HW3 4079   0.936   0.295   1.872
 1012SOL    MW4 4080   0.952   0.378   1.849
 1013SOL     OW 4081   1.144   0.526   1.948
 1013SOL    HW2 4082   1.221   0.493   1.902
 1013SOL    HW3 4083   1.132   0.614   1.915
 1013SOL    MW4 4084   1.152   0.533   1.938
 1014SOL     OW 4085   1.123   0.780   1.833
 1014SOL    HW2 4086   1.193   0.843   1.850
 1014SOL    HW3 4087   1.051   0.808   1.891
 1014SOL    MW4 4088   1.123   0.792   1.843
 1015SOL     OW 4089   0.914   0.904   1.969
 1015SOL    HW2 4090   0.900   0.886   2.062
 1015SOL    HW3 4091   0.898   0.998   1.960
 1015SOL    MW4 4092   0.910   0.914   1.980
 1016SOL     OW 4093   0.887   1.165   1.894
 1016SOL    HW2 4094   0.809   1.196   1.939
 1016SOL    HW3 4095   0.861   1.158   1.802
 1016SOL    MW4 4096   0.873   1.168   1.888
 1017SOL     OW 4097   1.137   1.296   1.974
 1017SOL    HW2 4098   1.141   1.385   1.940
 1017SOL    HW3 4099   1.054   1.261   1.942
 1017SOL    MW4 4100   1.127   1.303   1.965
 1018SOL     OW 4101   1.125   1.538   1.850
 1018SOL    HW2 4102   1.053   1.583   1.895
 1018SOL    HW3 4103   1.100   1.539   1.758
 1018SOL    MW4 4104   1.112   1.544   1.844
 1019SOL     OW 4105   0.917   1.660   1.977
 1019SOL    HW2 4106   0.917   1.749   1.941
 1019SOL    HW3 4107   0.831   1.625   1.955
 1019SOL    MW4 4108   0.906   1.667   1.969
 1020SOL     OW 4109   0.915   1.913   1.873
 1020SOL    HW2 4110   0.842   1.974   1.880
 1020SOL    HW3 4111   0.944   1.922   1.782
 1020SOL    MW4 4112   0.909   1.923   1.862
 1021SOL     OW 4113   1.153   2.038   1.964
 1021SOL    HW2 4114   1.139   2.132   1.956
 1021SOL    HW3 4115   1.067   2.000   1.946
 1021SOL    MW4 4116   1.140   2.045   1.961
 1022SOL     OW 4117   1.125   2.287   1.874
 1022SOL    HW2 4118   1.196   2.343   1.907
 1022SOL    HW3 4119   1.125   2.302   1.780
 1022SOL    MW4 4120   1.134   2.297   1.866
 1023SOL     OW 4121   0.904   2.456   1.954
 1023SOL    HW2 4122   0.982   2.404   1.934
 1023SOL    HW3 4123   0.831   2.401   1.927
 1023SOL    MW4 4124   0.905   2.441   1.948
 1024SOL     OW 4125   0.890   2.706   1.831
 1024SOL    HW2 4126   0.876   2.619   1.869
 1024SOL    HW3 4127   0.809   2.754   1.849
 1024SOL    MW4 4128   0.878   2.701   1.838
 1025SOL     OW 4129   1.119   2.833   1.949
 1025SOL    HW2 4130   1.119   2.841   2.044
 1025SOL    HW3 4131   1.031   2.803   1.927
 1025SOL    MW4 4132   1.107   2.830   1.959
 1026SOL     OW 4133   1.136   3.082   1.846
 1026SOL    HW2 4134   1.070   3.136   1.890
 1026SOL    HW3 4135   1.128   2.996   1.889
 1026SOL    MW4 4136   1.126   3.077   1.858
 1027SOL     OW 4137   0.890   3.251   1.954
 1027SOL    HW2 4138   0.875   3.221   2.044
 1027SOL    HW3 4139   0.825   3.205   1.902
 1027SOL    MW4 4140   0.880   3.241   1.959
 1028SOL     OW 4141   0.904   3.504   1.864
 1028SOL    HW2 4142   0.887   3.417   1.898
 1028SOL    HW3 4143   0.917   3.491   1.770
 1028SOL    MW4 4144   0.903   3.491   1.856
 1029SOL     OW 4145   1.122   3.640   1.975
 1029SOL    HW2 4146   1.098   3.633   2.067
 1029SOL    HW3 4147   1.054   3.592   1.928
 1029SOL    MW4 4148   1.110   3.633   1.981
 1030SOL     OW 4149   1.154   3.905   1.879
 1030SOL    HW2 4150   1.160   3.814   1.907
 1030SOL    HW3 4151   1.153   3.901   1.783
 1030SOL    MW4 4152   1.154   3.893   1.870
 1031SOL     OW 4153   0.895   4.008   1.937
 1031SOL    HW2 4154   0.884   4.022   2.031
 1031SOL    HW3 4155   0.984   3.972   1.928
 1031SOL    MW4 4156   0.906   4.005   1.948
 1032SOL     OW 4157   0.892   4.263   1.824
 1032SOL    HW2 4158   0.964   4.308   1.868
 1032SOL    HW3 4159   0.899   4.172   1.853
 1032SOL    MW4 4160   0.902   4.257   1.834
 1033SOL     OW 4161   1.126   4.398   1.948
 1033SOL    HW2 4162   1.123   4.388   2.043
 1033SOL    HW3 4163   1.212   4.364   1.923
 1033SOL    MW4 4164   1.137   4.392   1.957
 1034SOL     OW 4165   1.572   4.654   1.828
 1034SOL    HW2 4166   1.646   4.697   1.870
 1034SOL    HW3 4167   1.564   4.570   1.873
 1034SOL    MW4 4168   1.581   4.648   1.839
 1035SOL     OW 4169   1.351   0.120   1.948
 1035SOL    HW2 4170   1.366   0.104   2.041
 1035SOL    HW3 4171   1.430   0.088   1.905
 1035SOL    MW4 4172   1.363   0.114   1.955
 1036SOL     OW 4173   1.338   0.403   1.831
 1036SOL    HW2 4174   1.334   0.312   1.862
 1036SOL    HW3 4175   1.324   0.397   1.737
 1036SOL    MW4 4176   1.336   0.390   1.823
 1037SOL     OW 4177   1.561   0.532   1.951
 1037SOL    HW2 4178   1.643   0.496   1.916
 1037SOL    HW3 4179   1.494   0.471   1.921
 1037SOL    MW4 4180   1.563   0.519   1.942
 1038SOL     OW 4181   1.598   0.784   1.834
 1038SOL    HW2 4182   1.668   0.826   1.885
 1038SOL    HW3 4183   1.572   0.708   1.886
 1038SOL    MW4 4184   1.604   0.780   1.848
 1039SOL     OW 4185   1.363   0.920   1.903
 1039SOL    HW2 4186   1.360   0.921   1.999
 1039SOL    HW3 4187   1.452   0.893   1.882
 1039SOL    MW4 4188   1.374   0.917   1.913
 1040SOL     OW 4189   1.353   1.177   1.825
 1040SOL    HW2 4190   1.354   1.085   1.849
 1040SOL    HW3 4191   1.282   1.215   1.876
 1040SOL    MW4 4192   1.344   1.170   1.835
 1041SOL     OW 4193   1.583   1.287   1.957
 1041SOL    HW2 4194   1.597   1.370   1.912
 1041SOL    HW3 4195   1.506   1.250   1.915
 1041SOL    MW4 4196   1.575   1.293   1.946
 1042SOL     OW 4197   1.588   1.569   1.887
 1042SOL    HW2 4198   1.658   1.628   1.915
 1042SOL    HW3 4199   1.509   1.607   1.925
 1042SOL    MW4 4200   1.587   1.582   1.896
 1043SOL     OW 4201   1.354   1.654   1.983
 1043SOL    HW2 4202   1.337   1.641   2.076
 1043SOL    HW3 4203   1.272   1.627   1.940
 1043SOL    MW4 4204   1.341   1.649   1.989
 1044SOL     OW 4205   1.385   1.926   1.877
 1044SOL    HW2 4206   1.390   1.832   1.895
 1044SOL    HW3 4207   1.301   1.953   1.914
 1044SOL    MW4 4208   1.375   1.917   1.885
 1045SOL     OW 4209   1.589   2.094   2.002
 1045SOL    HW2 4210   1.575   2.178   1.958
 1045SOL    HW3 4211   1.518   2.038   1.970
 1045SOL    MW4 4212   1.577   2.098   1.992
 1046SOL     OW 4213   1.564   2.344   1.882
 1046SOL    HW2 4214   1.647   2.386   1.901
 1046SOL    HW3 4215   1.558   2.344   1.786
 1046SOL    MW4 4216   1.574   2.350   1.872
 1047SOL     OW 4217   1.318   2.445   1.973
 1047SOL    HW2 4218   1.320   2.536   1.943
 1047SOL    HW3 4219   1.403   2.410   1.948
 1047SOL    MW4 4220   1.329   2.453   1.966
 1048SOL     OW 4221   1.358   2.689   1.836
 1048SOL    HW2 4222   1.270   2.719   1.858
 1048SOL    HW3 4223   1.364   2.700   1.741
 1048SOL    MW4 4224   1.347   2.694   1.827
 1049SOL     OW 4225   1.561   2.839   1.955
 1049SOL    HW2 4226   1.637   2.799   1.912
 1049SOL    HW3 4227   1.487   2.784   1.927
 1049SOL    MW4 4228   1.561   2.826   1.945
 1050SOL     OW 4229   1.552   3.122   1.888
 1050SOL    HW2 4230   1.548   3.027   1.902
 1050SOL    HW3 4231   1.565   3.131   1.794
 1050SOL    MW4 4232   1.553   3.111   1.878
 1051SOL     OW 4233   1.328   3.240   1.983
 1051SOL    HW2 4234   1.413   3.205   1.955
 1051SOL    HW3 4235   1.264   3.196   1.927
 1051SOL    MW4 4236   1.331   3.230   1.972
 1052SOL     OW 4237   1.354   3.509   1.903
 1052SOL    HW2 4238   1.346   3.420   1.938
 1052SOL    HW3 4239   1.279   3.556   1.938
 1052SOL    MW4 4240   1.343   3.503   1.912
 1053SOL     OW 4241   1.619   3.606   1.966
 1053SOL    HW2 4242   1.606   3.625   2.059
 1053SOL    HW3 4243   1.534   3.572   1.937
 1053SOL    MW4 4244   1.606   3.604   1.975
 1054SOL     OW 4245   1.606   3.881   1.865
 1054SOL    HW2 4246   1.683   3.930   1.895
 1054SOL    HW3 4247   1.619   3.793   1.900
 1054SOL    MW4 4248   1.618   3.876   1.873
 1055SOL     OW 4249   1.391   4.017   1.956
 1055SOL    HW2 4250   1.463   3.957   1.935
 1055SOL    HW3 4251   1.312   3.970   1.931
 1055SOL    MW4 4252   1.390   4.003   1.950
 1056SOL     OW 4253   1.360   4.265   1.830
 1056SOL    HW2 4254   1.378   4.179   1.867
 1056SOL    HW3 4255   1.378   4.255   1.736
 1056SOL    MW4 4256   1.365   4.253   1.822
 1057SOL     OW 4257   1.597   4.392   1.941
 1057SOL    HW2 4258   1.606   4.382   2.036
 1057SOL    HW3 4259   1.515   4.347   1.920
 1057SOL    MW4 4260   1.587   4.385   1.951
 1058SOL     OW 4261   2.041   4.630   1.859
 1058SOL    HW2 4262   2.105   4.694   1.891
 1058SOL    HW3 4263   2.042   4.561   1.926
 1058SOL    MW4 4264   2.050   4.630   1.872
 1059SOL     OW 4265   1.811   0.139   1.890
 1059SOL    HW2 4266   1.821   0.146   1.985
 1059SOL    HW3 4267   1.883   0.081   1.863
 1059SOL    MW4 4268   1.822   0.132   1.899
 1060SOL     OW 4269   1.789   0.409   1.829
 1060SOL    HW2 4270   1.789   0.314   1.840
 1060SOL    HW3 4271   1.792   0.423   1.734
 1060SOL    MW4 4272   1.790   0.399   1.818
 1061SOL     OW 4273   2.025   0.518   1.957
 1061SOL    HW2 4274   2.022   0.609   1.927
 1061SOL    HW3 4275   1.951   0.475   1.913
 1061SOL    MW4 4276   2.015   0.524   1.947
 1062SOL     OW 4277   2.023   0.795   1.869
 1062SOL    HW2 4278   2.102   0.845   1.889
 1062SOL    HW3 4279   2.021   0.791   1.774
 1062SOL    MW4 4280   2.033   0.801   1.859
 1063SOL     OW 4281   1.795   0.903   1.986
 1063SOL    HW2 4282   1.814   0.990   1.953
 1063SOL    HW3 4283   1.863   0.847   1.949
 1063SOL    MW4 4284   1.806   0.907   1.977
 1064SOL     OW 4285   1.797   1.143   1.853
 1064SOL    HW2 4286   1.717   1.182   1.888
 1064SOL    HW3 4287   1.777   1.124   1.761
 1064SOL    MW4 4288   1.784   1.146   1.845
 1065SOL     OW 4289   2.005   1.302   1.957
 1065SOL    HW2 4290   2.088   1.283   1.914
 1065SOL    HW3 4291   1.940   1.255   1.905
 1065SOL    MW4 4292   2.007   1.293   1.944
 1066SOL     OW 4293   1.960   1.564   1.900
 1066SOL    HW2 4294   1.977   1.471   1.915
 1066SOL    HW3 4295   1.967   1.574   1.805
 1066SOL    MW4 4296   1.963   1.553   1.889
 1067SOL     OW 4297   1.795   1.731   2.024
 1067SOL    HW2 4298   1.776   1.819   1.992
 1067SOL    HW3 4299   1.864   1.698   1.966
 1067SOL    MW4 4300   1.802   1.738   2.012
 1068SOL     OW 4301   1.798   1.966   1.865
 1068SOL    HW2 4302   1.733   2.025   1.902
 1068SOL    HW3 4303   1.796   1.984   1.771
 1068SOL    MW4 4304   1.789   1.976   1.858
 1069SOL     OW 4305   2.031   2.078   1.954
 1069SOL    HW2 4306   2.106   2.020   1.943
 1069SOL    HW3 4307   1.959   2.031   1.913
 1069SOL    MW4 4308   2.032   2.064   1.947
 1070SOL     OW 4309   2.044   2.320   1.801
 1070SOL    HW2 4310   2.118   2.366   1.840
 1070SOL    HW3 4311   2.041   2.236   1.847
 1070SOL    MW4 4312   2.053   2.315   1.812
 1071SOL     OW 4313   1.818   2.439   1.919
 1071SOL    HW2 4314   1.828   2.442   2.014
 1071SOL    HW3 4315   1.892   2.386   1.889
 1071SOL    MW4 4316   1.829   2.432   1.928
 1072SOL     OW 4317   1.786   2.712   1.862
 1072SOL    HW2 4318   1.803   2.619   1.877
 1072SOL    HW3 4319   1.799   2.723   1.767
 1072SOL    MW4 4320   1.790   2.701   1.851
 1073SOL     OW 4321   2.033   2.843   1.968
 1073SOL    HW2 4322   2.013   2.859   2.060
 1073SOL    HW3 4323   1.948   2.823   1.929
 1073SOL    MW4 4324   2.019   2.843   1.975
 1074SOL     OW 4325   2.036   3.103   1.867
 1074SOL    HW2 4326   1.964   3.152   1.908
 1074SOL    HW3 4327   2.035   3.018   1.911
 1074SOL    MW4 4328   2.026   3.098   1.878
 1075SOL     OW 4329   1.804   3.208   1.969
 1075SOL    HW2 4330   1.801   3.211   2.065
 1075SOL    HW3 4331   1.714   3.191   1.943
 1075SOL    MW4 4332   1.792   3.206   1.979
 1076SOL     OW 4333   1.822   3.471   1.864
 1076SOL    HW2 4334   1.803   3.380   1.890
 1076SOL    HW3 4335   1.742   3.519   1.885
 1076SOL    MW4 4336   1.809   3.465   1.870
 1077SOL     OW 4337   2.047   3.589   1.991
 1077SOL    HW2 4338   2.030   3.677   1.958
 1077SOL    HW3 4339   1.975   3.536   1.957
 1077SOL    MW4 4340   2.035   3.594   1.982
 1078SOL     OW 4341   2.035   3.844   1.889
 1078SOL    HW2 4342   2.114   3.880   1.930
 1078SOL    HW3 4343   2.041   3.873   1.798
 1078SOL    MW4 4344   2.047   3.853   1.883
 1079SOL     OW 4345   1.833   3.999   1.955
 1079SOL    HW2 4346   1.844   4.082   1.909
 1079SOL    HW3 4347   1.904   3.944   1.923
 1079SOL    MW4 4348   1.844   4.003   1.945
 1080SOL     OW 4349   1.833   4.260   1.825
 1080SOL    HW2 4350   1.754   4.303   1.856
 1080SOL    HW3 4351   1.832   4.275   1.730
 1080SOL    MW4 4352   1.822   4.267   1.816
 1081SOL     OW 4353   2.032   4.379   1.992
 1081SOL    HW2 4354   2.108   4.336   1.952
 1081SOL    HW3 4355   1.957   4.343   1.944
 1081SOL    MW4 4356   2.032   4.369   1.980
 1082SOL     OW 4357   2.472   4.636   1.876
 1082SOL    HW2 4358   2.547   4.679   1.918
 1082SOL    HW3 4359   2.468   4.550   1.917
 1082SOL    MW4 4360   2.482   4.630   1.887
 1083SOL     OW 4361   2.256   0.119   1.955
 1083SOL    HW2 4362   2.274   0.118   2.049
 1083SOL    HW3 4363   2.332   0.077   1.915
 1083SOL    MW4 4364   2.268   0.113   1.963
 1084SOL     OW 4365   2.259   0.373   1.851
 1084SOL    HW2 4366   2.268   0.289   1.896
 1084SOL    HW3 4367   2.174   0.406   1.879
 1084SOL    MW4 4368   2.249   0.366   1.861
 1085SOL     OW 4369   2.459   0.498   1.992
 1085SOL    HW2 4370   2.538   0.447   1.974
 1085SOL    HW3 4371   2.392   0.459   1.936
 1085SOL    MW4 4372   2.461   0.486   1.982
 1086SOL     OW 4373   2.493   0.763   1.879
 1086SOL    HW2 4374   2.486   0.675   1.917
 1086SOL    HW3 4375   2.491   0.748   1.785
 1086SOL    MW4 4376   2.492   0.749   1.872
 1087SOL     OW 4377   2.275   0.895   1.938
 1087SOL    HW2 4378   2.270   0.892   2.034
 1087SOL    HW3 4379   2.362   0.862   1.918
 1087SOL    MW4 4380   2.286   0.890   1.948
 1088SOL     OW 4381   2.224   1.167   1.854
 1088SOL    HW2 4382   2.297   1.212   1.896
 1088SOL    HW3 4383   2.217   1.083   1.900
 1088SOL    MW4 4384   2.233   1.162   1.866
 1089SOL     OW 4385   2.439   1.299   1.958
 1089SOL    HW2 4386   2.465   1.308   2.050
 1089SOL    HW3 4387   2.459   1.384   1.918
 1089SOL    MW4 4388   2.445   1.311   1.965
 1090SOL     OW 4389   2.482   1.562   1.874
 1090SOL    HW2 4390   2.398   1.582   1.915
 1090SOL    HW3 4391   2.462   1.548   1.782
 1090SOL    MW4 4392   2.469   1.562   1.868
 1091SOL     OW 4393   2.228   1.643   1.964
 1091SOL    HW2 4394   2.225   1.643   2.059
 1091SOL    HW3 4395   2.141   1.613   1.937
 1091SOL    MW4 4396   2.216   1.639   1.973
 1092SOL     OW 4397   2.236   1.899   1.848
 1092SOL    HW2 4398   2.307   1.933   1.901
 1092SOL    HW3 4399   2.224   1.809   1.879
 1092SOL    MW4 4400   2.243   1.892   1.859
 1093SOL     OW 4401   2.447   2.037   1.945
 1093SOL    HW2 4402   2.527   2.007   1.900
 1093SOL    HW3 4403   2.437   2.127   1.916
 1093SOL    MW4 4404   2.456   2.045   1.935
 1094SOL     OW 4405   2.437   2.299   1.862
 1094SOL    HW2 4406   2.511   2.337   1.909
 1094SOL    HW3 4407   2.360   2.341   1.900
 1094SOL    MW4 4408   2.437   2.309   1.873
 1095SOL     OW 4409   2.227   2.465   1.943
 1095SOL    HW2 4410   2.239   2.461   2.038
 1095SOL    HW3 4411   2.233   2.558   1.922
 1095SOL    MW4 4412   2.230   2.477   1.953
 1096SOL     OW 4413   2.263   2.725   1.893
 1096SOL    HW2 4414   2.177   2.762   1.913
 1096SOL    HW3 4415   2.262   2.712   1.798
 1096SOL    MW4 4416   2.251   2.728   1.883
 1097SOL     OW 4417   2.513   2.808   1.928
 1097SOL    HW2 4418   2.502   2.899   1.900
 1097SOL    HW3 4419   2.425   2.770   1.919
 1097SOL    MW4 4420   2.500   2.815   1.923
 1098SOL     OW 4421   2.475   3.073   1.872
 1098SOL    HW2 4422   2.403   3.119   1.917
 1098SOL    HW3 4423   2.460   3.092   1.779
 1098SOL    MW4 4424   2.463   3.082   1.865
 1099SOL     OW 4425   2.269   3.221   1.967
 1099SOL    HW2 4426   2.249   3.219   2.061
 1099SOL    HW3 4427   2.190   3.185   1.926
 1099SOL    MW4 4428   2.256   3.216   1.974
 1100SOL     OW 4429   2.248   3.466   1.852
 1100SOL    HW2 4430   2.249   3.377   1.887
 1100SOL    HW3 4431   2.178   3.510   1.900
 1100SOL    MW4 4432   2.239   3.460   1.863
 1101SOL     OW 4433   2.458   3.620   1.951
 1101SOL    HW2 4434   2.457   3.619   2.046
 1101SOL    HW3 4435   2.378   3.574   1.925
 1101SOL    MW4 4436   2.448   3.614   1.960
 1102SOL     OW 4437   2.480   3.879   1.864
 1102SOL    HW2 4438   2.407   3.930   1.900
 1102SOL    HW3 4439   2.465   3.790   1.894
 1102SOL    MW4 4440   2.468   3.874   1.873
 1103SOL     OW 4441   2.256   3.997   1.967
 1103SOL    HW2 4442   2.266   4.011   2.061
 1103SOL    HW3 4443   2.250   4.086   1.931
 1103SOL    MW4 4444   2.256   4.011   1.975
 1104SOL     OW 4445   2.230   4.242   1.871
 1104SOL    HW2 4446   2.303   4.295   1.903
 1104SOL    HW3 4447   2.232   4.255   1.776
 1104SOL    MW4 4448   2.240   4.251   1.862
 1105SOL     OW 4449   2.441   4.385   1.976
 1105SOL    HW2 4450   2.434   4.398   2.070
 1105SOL    HW3 4451   2.528   4.348   1.963
 1105SOL    MW4 4452   2.451   4.382   1.987
 1106SOL     OW 4453   2.902   4.644   1.893
 1106SOL    HW2 4454   2.983   4.693   1.910
 1106SOL    HW3 4455   2.916   4.560   1.936
 1106SOL    MW4 4456   2.915   4.639   1.901
 1107SOL     OW 4457   2.678   0.060   2.057
 1107SOL    HW2 4458   2.676   0.021   2.144
 1107SOL    HW3 4459   2.766   0.043   2.024
 1107SOL    MW4 4460   2.689   0.052   2.064
 1108SOL     OW 4461   2.673   0.344   1.923
 1108SOL    HW2 4462   2.755   0.393   1.930
 1108SOL    HW3 4463   2.688   0.265   1.974
 1108SOL    MW4 4464   2.685   0.340   1.931
 1109SOL     OW 4465   2.917   0.466   1.903
 1109SOL    HW2 4466   3.009   0.440   1.892
 1109SOL    HW3 4467   2.916   0.560   1.882
 1109SOL    MW4 4468   2.929   0.475   1.899
 1110SOL     OW 4469   2.939   0.737   1.837
 1110SOL    HW2 4470   3.015   0.779   1.877
 1110SOL    HW3 4471   2.864   0.791   1.867
 1110SOL    MW4 4472   2.939   0.750   1.846
 1111SOL     OW 4473   2.733   0.885   1.921
 1111SOL    HW2 4474   2.712   0.976   1.899
 1111SOL    HW3 4475   2.650   0.839   1.911
 1111SOL    MW4 4476   2.719   0.891   1.917
 1112SOL     OW 4477   2.653   1.143   1.843
 1112SOL    HW2 4478   2.583   1.200   1.874
 1112SOL    HW3 4479   2.648   1.148   1.748
 1112SOL    MW4 4480   2.643   1.151   1.835
 1113SOL     OW 4481   2.909   1.223   1.918
 1113SOL    HW2 4482   2.901   1.319   1.917
 1113SOL    HW3 4483   2.827   1.191   1.881
 1113SOL    MW4 4484   2.898   1.232   1.913
 1114SOL     OW 4485   2.908   1.502   1.889
 1114SOL    HW2 4486   2.978   1.558   1.922
 1114SOL    HW3 4487   2.913   1.510   1.794
 1114SOL    MW4 4488   2.918   1.510   1.881
 1115SOL     OW 4489   2.733   1.696   1.930
 1115SOL    HW2 4490   2.804   1.632   1.922
 1115SOL    HW3 4491   2.653   1.643   1.928
 1115SOL    MW4 4492   2.732   1.681   1.929
 1116SOL     OW 4493   2.691   1.965   1.834
 1116SOL    HW2 4494   2.757   2.016   1.881
 1116SOL    HW3 4495   2.711   1.874   1.855
 1116SOL    MW4 4496   2.702   1.960   1.843
 1117SOL     OW 4497   2.921   2.043   1.984
 1117SOL    HW2 4498   2.938   2.078   2.072
 1117SOL    HW3 4499   3.002   1.997   1.961
 1117SOL    MW4 4500   2.934   2.042   1.993
 1118SOL     OW 4501   2.920   2.287   1.844
 1118SOL    HW2 4502   3.007   2.326   1.856
 1118SOL    HW3 4503   2.924   2.204   1.892
 1118SOL    MW4 4504   2.932   2.281   1.852
 1119SOL     OW 4505   2.695   2.428   1.920
 1119SOL    HW2 4506   2.700   2.512   1.874
 1119SOL    HW3 4507   2.774   2.382   1.893
 1119SOL    MW4 4508   2.706   2.433   1.910
 1120SOL     OW 4509   2.728   2.682   1.810
 1120SOL    HW2 4510   2.653   2.726   1.849
 1120SOL    HW3 4511   2.722   2.703   1.717
 1120SOL    MW4 4512   2.717   2.690   1.803
 1121SOL     OW 4513   2.939   2.809   1.956
 1121SOL    HW2 4514   2.935   2.901   1.930
 1121SOL    HW3 4515   2.863   2.769   1.913
 1121SOL    MW4 4516   2.928   2.816   1.947
 1122SOL     OW 4517   2.913   3.068   1.863
 1122SOL    HW2 4518   2.990   3.112   1.900
 1122SOL    HW3 4519   2.839   3.120   1.894
 1122SOL    MW4 4520   2.913   3.081   1.872
 1123SOL     OW 4521   2.697   3.211   1.977
 1123SOL    HW2 4522   2.697   3.297   1.936
 1123SOL    HW3 4523   2.616   3.169   1.946
 1123SOL    MW4 4524   2.686   3.217   1.967
 1124SOL     OW 4525   2.669   3.466   1.845
 1124SOL    HW2 4526   2.744   3.512   1.882
 1124SOL    HW3 4527   2.593   3.518   1.872
 1124SOL    MW4 4528   2.669   3.478   1.854
 1125SOL     OW 4529   2.895   3.588   1.962
 1125SOL    HW2 4530   2.883   3.588   2.057
 1125SOL    HW3 4531   2.980   3.547   1.948
 1125SOL    MW4 4532   2.904   3.583   1.973
 1126SOL     OW 4533   2.913   3.849   1.892
 1126SOL    HW2 4534   2.913   3.756   1.916
 1126SOL    HW3 4535   2.903   3.849   1.797
 1126SOL    MW4 4536   2.912   3.837   1.883
 1127SOL     OW 4537   2.719   4.026   1.956
 1127SOL    HW2 4538   2.796   3.972   1.936
 1127SOL    HW3 4539   2.645   3.966   1.941
 1127SOL    MW4 4540   2.719   4.011   1.951
 1128SOL     OW 4541   2.680   4.283   1.883
 1128SOL    HW2 4542   2.691   4.194   1.917
 1128SOL    HW3 4543   2.657   4.271   1.791
 1128SOL    MW4 4544   2.678   4.270   1.875
 1129SOL     OW 4545   2.925   4.398   1.988
 1129SOL    HW2 4546   2.926   4.406   2.083
 1129SOL    HW3 4547   2.835   4.370   1.967
 1129SOL    MW4 4548   2.913   4.395   1.998
 1130SOL     OW 4549   3.362   4.656   1.898
 1130SOL    HW2 4550   3.361   4.567   1.931
 1130SOL    HW3 4551   3.339   4.648   1.805
 1130SOL    MW4 4552   3.359   4.643   1.890
 1131SOL     OW 4553   3.126   0.121   1.983
 1131SOL    HW2 4554   3.131   0.108   2.078
 1131SOL    HW3 4555   3.208   0.084   1.950
 1131SOL    MW4 4556   3.138   0.115   1.991
 1132SOL     OW 4557   3.172   0.362   1.860
 1132SOL    HW2 4558   3.148   0.283   1.907
 1132SOL    HW3 4559   3.156   0.342   1.768
 1132SOL    MW4 4560   3.167   0.349   1.854
 1133SOL     OW 4561   3.378   0.515   1.991
 1133SOL    HW2 4562   3.456   0.467   1.962
 1133SOL    HW3 4563   3.307   0.478   1.937
 1133SOL    MW4 4564   3.379   0.504   1.980
 1134SOL     OW 4565   3.393   0.778   1.882
 1134SOL    HW2 4566   3.307   0.812   1.905
 1134SOL    HW3 4567   3.397   0.692   1.924
 1134SOL    MW4 4568   3.382   0.771   1.890
 1135SOL     OW 4569   3.152   0.866   1.960
 1135SOL    HW2 4570   3.150   0.872   2.056
 1135SOL    HW3 4571   3.159   0.957   1.931
 1135SOL    MW4 4572   3.153   0.879   1.969
 1136SOL     OW 4573   3.169   1.121   1.855
 1136SOL    HW2 4574   3.225   1.184   1.900
 1136SOL    HW3 4575   3.080   1.155   1.865
 1136SOL    MW4 4576   3.165   1.134   1.862
 1137SOL     OW 4577   3.388   1.276   1.931
 1137SOL    HW2 4578   3.402   1.267   2.026
 1137SOL    HW3 4579   3.380   1.371   1.917
 1137SOL    MW4 4580   3.389   1.288   1.942
 1138SOL     OW 4581   3.355   1.533   1.855
 1138SOL    HW2 4582   3.430   1.584   1.884
 1138SOL    HW3 4583   3.280   1.571   1.901
 1138SOL    MW4 4584   3.355   1.544   1.865
 1139SOL     OW 4585   3.133   1.663   1.959
 1139SOL    HW2 4586   3.118   1.670   2.053
 1139SOL    HW3 4587   3.139   1.754   1.930
 1139SOL    MW4 4588   3.132   1.676   1.968
 1140SOL     OW 4589   3.169   1.954   1.913
 1140SOL    HW2 4590   3.264   1.969   1.915
 1140SOL    HW3 4591   3.150   1.938   1.820
 1140SOL    MW4 4592   3.179   1.954   1.901
 1141SOL     OW 4593   3.428   2.020   1.998
 1141SOL    HW2 4594   3.507   1.977   1.966
 1141SOL    HW3 4595   3.427   2.105   1.954
 1141SOL    MW4 4596   3.438   2.025   1.988
 1142SOL     OW 4597   3.392   2.267   1.858
 1142SOL    HW2 4598   3.308   2.303   1.886
 1142SOL    HW3 4599   3.380   2.247   1.765
 1142SOL    MW4 4600   3.379   2.269   1.850
 1143SOL     OW 4601   3.160   2.391   1.934
 1143SOL    HW2 4602   3.163   2.402   2.029
 1143SOL    HW3 4603   3.149   2.479   1.899
 1143SOL    MW4 4604   3.159   2.404   1.942
 1144SOL     OW 4605   3.116   2.646   1.845
 1144SOL    HW2 4606   3.050   2.702   1.885
 1144SOL    HW3 4607   3.116   2.671   1.752
 1144SOL    MW4 4608   3.108   2.657   1.838
 1145SOL     OW 4609   3.344   2.772   1.940
 1145SOL    HW2 4610   3.338   2.757   2.035
 1145SOL    HW3 4611   3.265   2.732   1.905
 1145SOL    MW4 4612   3.333   2.765   1.948
 1146SOL     OW 4613   3.334   3.035   1.877
 1146SOL    HW2 4614   3.416   3.078   1.902
 1146SOL    HW3 4615   3.346   2.944   1.903
 1146SOL    MW4 4616   3.347   3.029   1.884
 1147SOL     OW 4617   3.121   3.200   1.972
 1147SOL    HW2 4618   3.136   3.283   1.927
 1147SOL    HW3 4619   3.203   3.152   1.960
 1147SOL    MW4 4620   3.134   3.204   1.964
 1148SOL     OW 4621   3.120   3.463   1.864
 1148SOL    HW2 4622   3.200   3.514   1.878
 1148SOL    HW3 4623   3.106   3.465   1.770
 1148SOL    MW4 4624   3.128   3.470   1.854
 1149SOL     OW 4625   3.331   3.620   1.930
 1149SOL    HW2 4626   3.411   3.570   1.915
 1149SOL    HW3 4627   3.355   3.710   1.908
 1149SOL    MW4 4628   3.345   3.625   1.925
 1150SOL     OW 4629   3.370   3.865   1.861
 1150SOL    HW2 4630   3.287   3.908   1.882
 1150SOL    HW3 4631   3.362   3.838   1.770
 1150SOL    MW4 4632   3.358   3.867   1.852
 1151SOL     OW 4633   3.141   3.993   1.946
 1151SOL    HW2 4634   3.145   3.980   2.041
 1151SOL    HW3 4635   3.063   3.946   1.918
 1151SOL    MW4 4636   3.132   3.985   1.955
 1152SOL     OW 4637   3.126   4.260   1.873
 1152SOL    HW2 4638   3.127   4.174   1.915
 1152SOL    HW3 4639   3.052   4.306   1.913
 1152SOL    MW4 4640   3.116   4.255   1.884
 1153SOL     OW 4641   3.353   4.382   1.982
 1153SOL    HW2 4642   3.416   4.319   1.947
 1153SOL    HW3 4643   3.270   4.356   1.944
 1153SOL    MW4 4644   3.351   4.370   1.973
 1154SOL     OW 4645   3.835   4.633   1.899
 1154SOL    HW2 4646   3.819   4.541   1.920
 1154SOL    HW3 4647   3.758   4.679   1.933
 1154SOL    MW4 4648   3.822   4.627   1.906
 1155SOL     OW 4649   3.614   0.097   1.981
 1155SOL    HW2 4650   3.597   0.110   2.074
 1155SOL    HW3 4651   3.537   0.050   1.949
 1155SOL    MW4 4652   3.602   0.093   1.989
 1156SOL     OW 4653   3.592   0.367   1.884
 1156SOL    HW2 4654   3.581   0.278   1.918
 1156SOL    HW3 4655   3.581   0.359   1.790
 1156SOL    MW4 4656   3.589   0.354   1.876
 1157SOL     OW 4657   3.817   0.506   1.989
 1157SOL    HW2 4658   3.808   0.587   1.938
 1157SOL    HW3 4659   3.740   0.455   1.965
 1157SOL    MW4 4660   3.806   0.510   1.979
 1158SOL     OW 4661   3.807   0.764   1.879
 1158SOL    HW2 4662   3.733   0.809   1.918
 1158SOL    HW3 4663   3.804   0.788   1.786
 1158SOL    MW4 4664   3.797   0.773   1.872
 1159SOL     OW 4665   3.606   0.928   1.980
 1159SOL    HW2 4666   3.619   1.005   1.926
 1159SOL    HW3 4667   3.522   0.892   1.952
 1159SOL    MW4 4668   3.596   0.933   1.969
 1160SOL     OW 4669   3.636   1.170   1.838
 1160SOL    HW2 4670   3.556   1.217   1.862
 1160SOL    HW3 4671   3.625   1.152   1.744
 1160SOL    MW4 4672   3.624   1.174   1.829
 1161SOL     OW 4673   3.849   1.277   1.967
 1161SOL    HW2 4674   3.831   1.292   2.060
 1161SOL    HW3 4675   3.767   1.241   1.933
 1161SOL    MW4 4676   3.836   1.274   1.975
 1162SOL     OW 4677   3.816   1.521   1.842
 1162SOL    HW2 4678   3.878   1.583   1.881
 1162SOL    HW3 4679   3.823   1.443   1.896
 1162SOL    MW4 4680   3.825   1.519   1.854
 1163SOL     OW 4681   3.594   1.638   1.948
 1163SOL    HW2 4682   3.614   1.730   1.933
 1163SOL    HW3 4683   3.671   1.591   1.915
 1163SOL    MW4 4684   3.607   1.644   1.942
 1164SOL     OW 4685   3.662   1.909   1.891
 1164SOL    HW2 4686   3.735   1.964   1.920
 1164SOL    HW3 4687   3.655   1.926   1.797
 1164SOL    MW4 4688   3.671   1.918   1.882
 1165SOL     OW 4689   3.849   2.099   1.948
 1165SOL    HW2 4690   3.927   2.049   1.925
 1165SOL    HW3 4691   3.867   2.187   1.915
 1165SOL    MW4 4692   3.862   2.104   1.940
 1166SOL     OW 4693   3.842   2.354   1.842
 1166SOL    HW2 4694   3.922   2.393   1.878
 1166SOL    HW3 4695   3.771   2.399   1.888
 1166SOL    MW4 4696   3.843   2.365   1.853
 1167SOL     OW 4697   3.614   2.436   1.974
 1167SOL    HW2 4698   3.608   2.529   1.953
 1167SOL    HW3 4699   3.540   2.396   1.929
 1167SOL    MW4 4700   3.604   2.443   1.965
 1168SOL     OW 4701   3.612   2.717   1.864
 1168SOL    HW2 4702   3.670   2.773   1.915
 1168SOL    HW3 4703   3.524   2.740   1.893
 1168SOL    MW4 4704   3.608   2.727   1.875
 1169SOL     OW 4705   3.813   2.847   1.975
 1169SOL    HW2 4706   3.814   2.865   2.069
 1169SOL    HW3 4707   3.821   2.932   1.933
 1169SOL    MW4 4708   3.814   2.860   1.982
 1170SOL     OW 4709   3.820   3.101   1.852
 1170SOL    HW2 4710   3.738   3.134   1.889
 1170SOL    HW3 4711   3.806   3.102   1.758
 1170SOL    MW4 4712   3.807   3.105   1.845
 1171SOL     OW 4713   3.561   3.181   1.947
 1171SOL    HW2 4714   3.558   3.186   2.043
 1171SOL    HW3 4715   3.553   3.272   1.919
 1171SOL    MW4 4716   3.560   3.194   1.956
 1172SOL     OW 4717   3.532   3.446   1.852
 1172SOL    HW2 4718   3.611   3.495   1.875
 1172SOL    HW3 4719   3.527   3.453   1.757
 1172SOL    MW4 4720   3.542   3.453   1.843
 1173SOL     OW 4721   3.789   3.547   1.927
 1173SOL    HW2 4722   3.868   3.511   1.886
 1173SOL    HW3 4723   3.789   3.639   1.902
 1173SOL    MW4 4724   3.799   3.555   1.918
 1174SOL     OW 4725   3.825   3.814   1.865
 1174SOL    HW2 4726   3.742   3.857   1.882
 1174SOL    HW3 4727   3.837   3.822   1.770
 1174SOL    MW4 4728   3.816   3.820   1.855
 1175SOL     OW 4729   3.609   3.966   1.940
 1175SOL    HW2 4730   3.620   3.973   2.034
 1175SOL    HW3 4731   3.518   3.938   1.928
 1175SOL    MW4 4732   3.598   3.963   1.951
 1176SOL     OW 4733   3.568   4.231   1.848
 1176SOL    HW2 4734   3.651   4.273   1.874
 1176SOL    HW3 4735   3.571   4.146   1.892
 1176SOL    MW4 4736   3.580   4.225   1.857
 1177SOL     OW 4737   3.795   4.369   1.929
 1177SOL    HW2 4738   3.795   4.367   2.025
 1177SOL    HW3 4739   3.879   4.331   1.903
 1177SOL    MW4 4740   3.806   4.364   1.938
 1178SOL     OW 4741   4.260   4.644   1.822
 1178SOL    HW2 4742   4.188   4.699   1.855
 1178SOL    HW3 4743   4.339   4.691   1.848
 1178SOL    MW4 4744   4.261   4.658   1.829
 1179SOL     OW 4745   4.052   0.110   1.954
 1179SOL    HW2 4746   4.048   0.108   2.050
 1179SOL    HW3 4747   3.972   0.066   1.926
 1179SOL    MW4 4748   4.041   0.104   1.963
 1180SOL     OW 4749   4.042   0.385   1.857
 1180SOL    HW2 4750   4.052   0.299   1.898
 1180SOL    HW3 4751   3.980   0.432   1.913
 1180SOL    MW4 4752   4.035   0.380   1.870
 1181SOL     OW 4753   4.265   0.519   1.949
 1181SOL    HW2 4754   4.267   0.508   2.044
 1181SOL    HW3 4755   4.189   0.469   1.921
 1181SOL    MW4 4756   4.256   0.511   1.958
 1182SOL     OW 4757   4.267   0.773   1.828
 1182SOL    HW2 4758   4.264   0.690   1.875
 1182SOL    HW3 4759   4.285   0.748   1.737
 1182SOL    MW4 4760   4.269   0.759   1.822
 1183SOL     OW 4761   4.042   0.898   1.917
 1183SOL    HW2 4762   4.115   0.859   1.868
 1183SOL    HW3 4763   3.970   0.837   1.907
 1183SOL    MW4 4764   4.042   0.885   1.909
 1184SOL     OW 4765   4.050   1.150   1.820
 1184SOL    HW2 4766   4.054   1.060   1.851
 1184SOL    HW3 4767   3.972   1.187   1.862
 1184SOL    MW4 4768   4.040   1.143   1.830
 1185SOL     OW 4769   4.285   1.269   1.916
 1185SOL    HW2 4770   4.274   1.280   2.010
 1185SOL    HW3 4771   4.204   1.228   1.887
 1185SOL    MW4 4772   4.273   1.265   1.925
 1186SOL     OW 4773   4.260   1.565   1.875
 1186SOL    HW2 4774   4.262   1.470   1.891
 1186SOL    HW3 4775   4.267   1.573   1.780
 1186SOL    MW4 4776   4.261   1.553   1.865
 1187SOL     OW 4777   3.998   1.680   1.971
 1187SOL    HW2 4778   3.990   1.677   2.066
 1187SOL    HW3 4779   4.084   1.641   1.953
 1187SOL    MW4 4780   4.008   1.675   1.981
 1188SOL     OW 4781   4.067   1.939   1.873
 1188SOL    HW2 4782   4.038   1.859   1.916
 1188SOL    HW3 4783   4.077   1.915   1.781
 1188SOL    MW4 4784   4.064   1.926   1.866
 1189SOL     OW 4785   4.278   2.038   2.006
 1189SOL    HW2 4786   4.270   2.033   2.101
 1189SOL    HW3 4787   4.196   2.002   1.973
 1189SOL    MW4 4788   4.266   2.033   2.014
 1190SOL     OW 4789   4.274   2.306   1.899
 1190SOL    HW2 4790   4.278   2.221   1.943
 1190SOL    HW3 4791   4.357   2.348   1.921
 1190SOL    MW4 4792   4.286   2.300   1.908
 1191SOL     OW 4793   4.049   2.463   1.986
 1191SOL    HW2 4794   4.058   2.458   2.081
 1191SOL    HW3 4795   4.129   2.422   1.953
 1191SOL    MW4 4796   4.061   2.457   1.994
 1192SOL     OW 4797   4.060   2.735   1.879
 1192SOL    HW2 4798   4.067   2.646   1.913
 1192SOL    HW3 4799   3.981   2.771   1.921
 1192SOL    MW4 4800   4.050   2.728   1.889
 1193SOL     OW 4801   4.324   2.808   1.948
 1193SOL    HW2 4802   4.313   2.799   2.043
 1193SOL    HW3 4803   4.236   2.798   1.912
 1193SOL    MW4 4804   4.311   2.805   1.956
 1194SOL     OW 4805   4.334   3.078   1.877
 1194SOL    HW2 4806   4.255   3.113   1.919
 1194SOL    HW3 4807   4.335   2.986   1.903
 1194SOL    MW4 4808   4.324   3.070   1.886
 1195SOL     OW 4809   4.084   3.186   1.963
 1195SOL    HW2 4810   4.073   3.188   2.058
 1195SOL    HW3 4811   4.002   3.148   1.931
 1195SOL    MW4 4812   4.072   3.181   1.971
 1196SOL     OW 4813   4.034   3.435   1.874
 1196SOL    HW2 4814   4.112   3.480   1.908
 1196SOL    HW3 4815   4.043   3.345   1.904
 1196SOL    MW4 4816   4.046   3.429   1.882
 1197SOL     OW 4817   4.249   3.615   1.945
 1197SOL    HW2 4818   4.247   3.707   1.917
 1197SOL    HW3 4819   4.325   3.579   1.900
 1197SOL    MW4 4820   4.259   3.623   1.935
 1198SOL     OW 4821   4.243   3.873   1.856
 1198SOL    HW2 4822   4.322   3.908   1.897
 1198SOL    HW3 4823   4.264   3.868   1.763
 1198SOL    MW4 4824   4.256   3.877   1.849
 1199SOL     OW 4825   4.011   4.003   1.932
 1199SOL    HW2 4826   4.092   3.958   1.909
 1199SOL    HW3 4827   3.942   3.941   1.907
 1199SOL    MW4 4828   4.013   3.989   1.926
 1200SOL     OW 4829   4.016   4.248   1.832
 1200SOL    HW2 4830   4.093   4.297   1.859
 1200SOL    HW3 4831   4.020   4.168   1.884
 1200SOL    MW4 4832   4.026   4.244   1.843
 1201SOL     OW 4833   4.246   4.381   1.917
 1201SOL    HW2 4834   4.228   4.402   2.008
 1201SOL    HW3 4835   4.257   4.465   1.874
 1201SOL    MW4 4836   4.245   4.395   1.923
 1202SOL     OW 4837   0.236   4.641   2.301
 1202SOL    HW2 4838   0.239   4.641   2.396
 1202SOL    HW3 4839   0.314   4.688   2.274
 1202SOL    MW4 4840   0.246   4.647   2.310
 1203SOL     OW 4841   4.474   0.101   2.253
 1203SOL    HW2 4842   4.541   0.034   2.265
 1203SOL    HW3 4843   4.459   0.103   2.158
 1203SOL    MW4 4844   4.481   0.093   2.242
 1204SOL     OW 4845   0.011   0.372   2.347
 1204SOL    HW2 4846   0.078   0.419   2.297
 1204SOL    HW3 4847   0.035   0.279   2.337
 1204SOL    MW4 4848   0.023   0.366   2.339
 1205SOL     OW 4849   0.221   0.481   2.200
 1205SOL    HW2 4850   0.280   0.421   2.244
 1205SOL    HW3 4851   0.242   0.473   2.107
 1205SOL    MW4 4852   0.231   0.472   2.194
 1206SOL     OW 4853   0.192   0.749   2.295
 1206SOL    HW2 4854   0.194   0.743   2.391
 1206SOL    HW3 4855   0.200   0.659   2.265
 1206SOL    MW4 4856   0.193   0.736   2.304
 1207SOL     OW 4857   4.490   0.919   2.207
 1207SOL    HW2 4858   4.562   0.869   2.245
 1207SOL    HW3 4859   4.514   0.927   2.114
 1207SOL    MW4 4860   4.503   0.914   2.200
 1208SOL     OW 4861   4.406   1.179   2.303
 1208SOL    HW2 4862   4.397   1.176   2.398
 1208SOL    HW3 4863   4.431   1.090   2.278
 1208SOL    MW4 4864   4.409   1.167   2.313
 1209SOL     OW 4865   0.162   1.282   2.225
 1209SOL    HW2 4866   0.072   1.254   2.244
 1209SOL    HW3 4867   0.164   1.290   2.129
 1209SOL    MW4 4868   0.150   1.279   2.215
 1210SOL     OW 4869   0.216   1.517   2.330
 1210SOL    HW2 4870   0.215   1.513   2.426
 1210SOL    HW3 4871   0.196   1.427   2.303
 1210SOL    MW4 4872   0.213   1.504   2.339
 1211SOL     OW 4873   0.002   1.644   2.246
 1211SOL    HW2 4874   0.009   1.732   2.282
 1211SOL    HW3 4875   0.080   1.599   2.279
 1211SOL    MW4 4876   0.014   1.650   2.255
 1212SOL     OW 4877   4.480   1.911   2.378
 1212SOL    HW2 4878   4.409   1.966   2.345
 1212SOL    HW3 4879   4.560   1.958   2.354
 1212SOL    MW4 4880   4.481   1.924   2.370
 1213SOL     OW 4881   0.236   2.041   2.249
 1213SOL    HW2 4882   0.309   1.998   2.293
 1213SOL    HW3 4883   0.251   2.028   2.156
 1213SOL    MW4 4884   0.247   2.034   2.243
 1214SOL     OW 4885   0.209   2.290   2.355
 1214SOL    HW2 4886   0.204   2.293   2.451
 1214SOL    HW3 4887   0.234   2.200   2.335
 1214SOL    MW4 4888   0.211   2.279   2.365
 1215SOL     OW 4889   4.477   2.405   2.215
 1215SOL    HW2 4890   4.476   2.482   2.273
 1215SOL    HW3 4891   4.545   2.348   2.252
 1215SOL    MW4 4892   4.486   2.408   2.228
 1216SOL     OW 4893   0.003   2.641   2.354
 1216SOL    HW2 4894   0.015   2.647   2.449
 1216SOL    HW3 4895   0.071   2.697   2.318
 1216SOL    MW4 4896   0.013   2.649   2.362
 1217SOL     OW 4897   0.205   2.776   2.217
 1217SOL    HW2 4898   0.298   2.756   2.228
 1217SOL    HW3 4899   0.196   2.793   2.123
 1217SOL    MW4 4900   0.216   2.775   2.206
 1218SOL     OW 4901   0.248   3.048   2.341
 1218SOL    HW2 4902   0.162   3.090   2.334
 1218SOL    HW3 4903   0.230   2.954   2.333
 1218SOL    MW4 4904   0.234   3.041   2.339
 1219SOL     OW 4905   0.015   3.219   2.256
 1219SOL    HW2 4906   0.012   3.308   2.292
 1219SOL    HW3 4907   0.051   3.230   2.168
 1219SOL    MW4 4908   0.020   3.232   2.249
 1220SOL     OW 4909   4.489   3.478   2.337
 1220SOL    HW2 4910   4.492   3.482   2.433
 1220SOL    HW3 4911   4.407   3.521   2.314
 1220SOL    MW4 4912   4.479   3.484   2.347
 1221SOL     OW 4913   0.219   3.602   2.212
 1221SOL    HW2 4914   0.301   3.559   2.236
 1221SOL    HW3 4915   0.152   3.554   2.261
 1221SOL    MW4 4916   0.221   3.590   2.221
 1222SOL     OW 4917   0.235   3.860   2.335
 1222SOL    HW2 4918   0.149   3.899   2.319
 1222SOL    HW3 4919   0.231   3.774   2.293
 1222SOL    MW4 4920   0.223   3.854   2.327
 1223SOL     OW 4921   4.464   3.949   2.260
 1223SOL    HW2 4922   4.452   4.040   2.287
 1223SOL    HW3 4923   4.448   3.950   2.165
 1223SOL    MW4 4924   4.460   3.961   2.251
 1224SOL     OW 4925   4.442   4.270   2.310
 1224SOL    HW2 4926   4.452   4.262   2.404
 1224SOL    HW3 4927   4.524   4.310   2.280
 1224SOL    MW4 4928   4.454   4.274   2.318
 1225SOL     OW 4929   0.198   4.376   2.240
 1225SOL    HW2 4930   0.281   4.349   2.280
 1225SOL    HW3 4931   0.198   4.471   2.248
 1225SOL    MW4 4932   0.209   4.385   2.246
 1226SOL     OW 4933   0.678   4.617   2.329
 1226SOL    HW2 4934   0.676   4.620   2.424
 1226SOL    HW3 4935   0.757   4.664   2.305
 1226SOL    MW4 4936   0.688   4.624   2.338
 1227SOL     OW 4937   0.474   0.100   2.229
 1227SOL    HW2 4938   0.543   0.044   2.264
 1227SOL    HW3 4939   0.478   0.086   2.134
 1227SOL    MW4 4940   0.483   0.091   2.221
 1228SOL     OW 4941   0.447   0.340   2.324
 1228SOL    HW2 4942   0.443   0.329   2.419
 1228SOL    HW3 4943   0.468   0.252   2.291
 1228SOL    MW4 4944   0.449   0.327   2.332
 1229SOL     OW 4945   0.681   0.481   2.239
 1229SOL    HW2 4946   0.662   0.571   2.265
 1229SOL    HW3 4947   0.601   0.433   2.262
 1229SOL    MW4 4948   0.668   0.487   2.245
 1230SOL     OW 4949   0.646   0.743   2.335
 1230SOL    HW2 4950   0.627   0.741   2.429
 1230SOL    HW3 4951   0.579   0.800   2.298
 1230SOL    MW4 4952   0.635   0.750   2.342
 1231SOL     OW 4953   0.444   0.897   2.211
 1231SOL    HW2 4954   0.357   0.859   2.221
 1231SOL    HW3 4955   0.459   0.895   2.116
 1231SOL    MW4 4956   0.434   0.891   2.200
 1232SOL     OW 4957   0.402   1.150   2.322
 1232SOL    HW2 4958   0.398   1.059   2.292
 1232SOL    HW3 4959   0.322   1.190   2.286
 1232SOL    MW4 4960   0.391   1.143   2.313
 1233SOL     OW 4961   0.652   1.261   2.258
 1233SOL    HW2 4962   0.638   1.352   2.286
 1233SOL    HW3 4963   0.569   1.217   2.277
 1233SOL    MW4 4964   0.639   1.267   2.264
 1234SOL     OW 4965   0.661   1.526   2.340
 1234SOL    HW2 4966   0.673   1.536   2.435
 1234SOL    HW3 4967   0.742   1.561   2.302
 1234SOL    MW4 4968   0.674   1.532   2.348
 1235SOL     OW 4969   0.449   1.675   2.244
 1235SOL    HW2 4970   0.525   1.629   2.279
 1235SOL    HW3 4971   0.374   1.622   2.270
 1235SOL    MW4 4972   0.449   1.662   2.252
 1236SOL     OW 4973   0.485   1.928   2.369
 1236SOL    HW2 4974   0.556   1.974   2.324
 1236SOL    HW3 4975   0.479   1.844   2.325
 1236SOL    MW4 4976   0.494   1.923   2.357
 1237SOL     OW 4977   0.687   2.048   2.215
 1237SOL    HW2 4978   0.772   2.014   2.242
 1237SOL    HW3 4979   0.687   2.139   2.245
 1237SOL    MW4 4980   0.698   2.055   2.222
 1238SOL     OW 4981   0.624   2.315   2.334
 1238SOL    HW2 4982   0.622   2.308   2.430
 1238SOL    HW3 4983   0.707   2.359   2.315
 1238SOL    MW4 4984   0.634   2.320   2.344
 1239SOL     OW 4985   0.409   2.458   2.277
 1239SOL    HW2 4986   0.484   2.401   2.292
 1239SOL    HW3 4987   0.333   2.404   2.301
 1239SOL    MW4 4988   0.409   2.444   2.282
 1240SOL     OW 4989   0.442   2.723   2.367
 1240SOL    HW2 4990   0.440   2.714   2.463
 1240SOL    HW3 4991   0.437   2.634   2.334
 1240SOL    MW4 4992   0.441   2.710   2.376
 1241SOL     OW 4993   0.639   2.823   2.181
 1241SOL    HW2 4994   0.714   2.788   2.228
 1241SOL    HW3 4995   0.563   2.800   2.235
 1241SOL    MW4 4996   0.639   2.816   2.194
 1242SOL     OW 4997   0.685   3.060   2.364
 1242SOL    HW2 4998   0.614   3.102   2.315
 1242SOL    HW3 4999   0.693   2.974   2.325
 1242SOL    MW4 5000   0.677   3.055   2.353
 1243SOL     OW 5001   0.458   3.188   2.233
 1243SOL    HW2 5002   0.385   3.142   2.275
 1243SOL    HW3 5003   0.449   3.168   2.140
 1243SOL    MW4 5004   0.447   3.179   2.227
 1244SOL     OW 5005   0.453   3.456   2.311
 1244SOL    HW2 5006   0.540   3.491   2.291
 1244SOL    HW3 5007   0.457   3.364   2.288
 1244SOL    MW4 5008   0.465   3.449   2.305
 1245SOL     OW 5009   0.682   3.610   2.236
 1245SOL    HW2 5010   0.663   3.699   2.265
 1245SOL    HW3 5011   0.682   3.616   2.140
 1245SOL    MW4 5012   0.679   3.623   2.227
 1246SOL     OW 5013   0.673   3.869   2.338
 1246SOL    HW2 5014   0.667   3.878   2.433
 1246SOL    HW3 5015   0.599   3.920   2.305
 1246SOL    MW4 5016   0.662   3.877   2.346
 1247SOL     OW 5017   0.448   4.010   2.232
 1247SOL    HW2 5018   0.380   3.954   2.271
 1247SOL    HW3 5019   0.437   4.000   2.138
 1247SOL    MW4 5020   0.437   4.001   2.225
 1248SOL     OW 5021   0.457   4.277   2.313
 1248SOL    HW2 5022   0.540   4.302   2.272
 1248SOL    HW3 5023   0.442   4.188   2.283
 1248SOL    MW4 5024   0.466   4.269   2.304
 1249SOL     OW 5025   0.713   4.381   2.205
 1249SOL    HW2 5026   0.685   4.465   2.242
 1249SOL    HW3 5027   0.719   4.397   2.111
 1249SOL    MW4 5028   0.710   4.394   2.198
 1250SOL     OW 5029   1.123   4.632   2.299
 1250SOL    HW2 5030   1.130   4.625   2.394
 1250SOL    HW3 5031   1.040   4.677   2.284
 1250SOL    MW4 5032   1.113   4.637   2.310
 1251SOL     OW 5033   0.899   0.087   2.217
 1251SOL    HW2 5034   0.926   0.173   2.249
 1251SOL    HW3 5035   0.909   0.093   2.122
 1251SOL    MW4 5036   0.904   0.100   2.209
 1252SOL     OW 5037   0.904   0.356   2.322
 1252SOL    HW2 5038   0.971   0.401   2.270
 1252SOL    HW3 5039   0.822   0.399   2.299
 1252SOL    MW4 5040   0.902   0.368   2.312
 1253SOL     OW 5041   1.159   0.494   2.235
 1253SOL    HW2 5042   1.222   0.435   2.276
 1253SOL    HW3 5043   1.176   0.487   2.141
 1253SOL    MW4 5044   1.169   0.486   2.228
 1254SOL     OW 5045   1.163   0.758   2.320
 1254SOL    HW2 5046   1.075   0.791   2.302
 1254SOL    HW3 5047   1.164   0.669   2.285
 1254SOL    MW4 5048   1.152   0.751   2.313
 1255SOL     OW 5049   0.895   0.849   2.246
 1255SOL    HW2 5050   0.877   0.941   2.267
 1255SOL    HW3 5051   0.817   0.802   2.273
 1255SOL    MW4 5052   0.883   0.855   2.252
 1256SOL     OW 5053   0.875   1.113   2.320
 1256SOL    HW2 5054   0.944   1.177   2.303
 1256SOL    HW3 5055   0.795   1.155   2.292
 1256SOL    MW4 5056   0.874   1.127   2.314
 1257SOL     OW 5057   1.092   1.281   2.250
 1257SOL    HW2 5058   1.164   1.230   2.288
 1257SOL    HW3 5059   1.103   1.271   2.155
 1257SOL    MW4 5060   1.103   1.273   2.242
 1258SOL     OW 5061   1.104   1.523   2.382
 1258SOL    HW2 5062   1.034   1.581   2.350
 1258SOL    HW3 5063   1.093   1.443   2.331
 1258SOL    MW4 5064   1.093   1.520   2.371
 1259SOL     OW 5065   0.920   1.675   2.250
 1259SOL    HW2 5066   0.906   1.758   2.296
 1259SOL    HW3 5067   0.924   1.700   2.158
 1259SOL    MW4 5068   0.919   1.690   2.244
 1260SOL     OW 5069   0.909   1.953   2.340
 1260SOL    HW2 5070   0.897   1.975   2.432
 1260SOL    HW3 5071   0.995   1.986   2.318
 1260SOL    MW4 5072   0.918   1.960   2.349
 1261SOL     OW 5073   1.148   2.073   2.268
 1261SOL    HW2 5074   1.213   2.011   2.302
 1261SOL    HW3 5075   1.158   2.070   2.173
 1261SOL    MW4 5076   1.158   2.064   2.260
 1262SOL     OW 5077   1.116   2.343   2.329
 1262SOL    HW2 5078   1.197   2.388   2.307
 1262SOL    HW3 5079   1.128   2.254   2.293
 1262SOL    MW4 5080   1.128   2.337   2.321
 1263SOL     OW 5081   0.860   2.450   2.250
 1263SOL    HW2 5082   0.944   2.419   2.285
 1263SOL    HW3 5083   0.871   2.449   2.155
 1263SOL    MW4 5084   0.872   2.446   2.242
 1264SOL     OW 5085   0.882   2.726   2.333
 1264SOL    HW2 5086   0.883   2.732   2.429
 1264SOL    HW3 5087   0.858   2.635   2.316
 1264SOL    MW4 5088   0.879   2.715   2.344
 1265SOL     OW 5089   1.096   2.866   2.228
 1265SOL    HW2 5090   1.165   2.812   2.266
 1265SOL    HW3 5091   1.015   2.825   2.258
 1265SOL    MW4 5092   1.095   2.854   2.237
 1266SOL     OW 5093   1.119   3.101   2.363
 1266SOL    HW2 5094   1.034   3.127   2.326
 1266SOL    HW3 5095   1.137   3.016   2.322
 1266SOL    MW4 5096   1.110   3.093   2.353
 1267SOL     OW 5097   0.886   3.215   2.250
 1267SOL    HW2 5098   0.891   3.307   2.273
 1267SOL    HW3 5099   0.828   3.177   2.316
 1267SOL    MW4 5100   0.879   3.222   2.262
 1268SOL     OW 5101   0.917   3.481   2.328
 1268SOL    HW2 5102   0.914   3.453   2.419
 1268SOL    HW3 5103   0.837   3.531   2.315
 1268SOL    MW4 5104   0.906   3.484   2.338
 1269SOL     OW 5105   1.128   3.647   2.252
 1269SOL    HW2 5106   1.203   3.607   2.297
 1269SOL    HW3 5107   1.052   3.601   2.287
 1269SOL    MW4 5108   1.128   3.635   2.262
 1270SOL     OW 5109   1.109   3.905   2.315
 1270SOL    HW2 5110   1.193   3.932   2.278
 1270SOL    HW3 5111   1.097   3.815   2.284
 1270SOL    MW4 5112   1.118   3.897   2.306
 1271SOL     OW 5113   0.885   4.007   2.220
 1271SOL    HW2 5114   0.964   3.967   2.256
 1271SOL    HW3 5115   0.813   3.954   2.254
 1271SOL    MW4 5116   0.886   3.995   2.229
 1272SOL     OW 5117   0.920   4.265   2.352
 1272SOL    HW2 5118   0.917   4.173   2.324
 1272SOL    HW3 5119   0.854   4.309   2.299
 1272SOL    MW4 5120   0.911   4.258   2.341
 1273SOL     OW 5121   1.128   4.384   2.207
 1273SOL    HW2 5122   1.054   4.339   2.248
 1273SOL    HW3 5123   1.118   4.475   2.233
 1273SOL    MW4 5124   1.117   4.390   2.216
 1274SOL     OW 5125   1.597   4.639   2.285
 1274SOL    HW2 5126   1.663   4.703   2.259
 1274SOL    HW3 5127   1.513   4.685   2.272
 1274SOL    MW4 5128   1.594   4.653   2.280
 1275SOL     OW 5129   1.340   0.124   2.228
 1275SOL    HW2 5130   1.336   0.211   2.267
 1275SOL    HW3 5131   1.257   0.082   2.255
 1275SOL    MW4 5132   1.328   0.130   2.237
 1276SOL     OW 5133   1.359   0.353   2.381
 1276SOL    HW2 5134   1.342   0.377   2.472
 1276SOL    HW3 5135   1.421   0.418   2.350
 1276SOL    MW4 5136   1.365   0.365   2.389
 1277SOL     OW 5137   1.532   0.504   2.240
 1277SOL    HW2 5138   1.601   0.440   2.259
 1277SOL    HW3 5139   1.533   0.512   2.145
 1277SOL    MW4 5140   1.541   0.497   2.230
 1278SOL     OW 5141   1.538   0.756   2.336
 1278SOL    HW2 5142   1.625   0.789   2.315
 1278SOL    HW3 5143   1.539   0.665   2.308
 1278SOL    MW4 5144   1.549   0.748   2.330
 1279SOL     OW 5145   1.356   0.905   2.201
 1279SOL    HW2 5146   1.426   0.845   2.227
 1279SOL    HW3 5147   1.276   0.862   2.229
 1279SOL    MW4 5148   1.355   0.891   2.208
 1280SOL     OW 5149   1.328   1.160   2.322
 1280SOL    HW2 5150   1.340   1.157   2.417
 1280SOL    HW3 5151   1.345   1.070   2.293
 1280SOL    MW4 5152   1.332   1.148   2.330
 1281SOL     OW 5153   1.582   1.257   2.242
 1281SOL    HW2 5154   1.492   1.232   2.263
 1281SOL    HW3 5155   1.583   1.267   2.147
 1281SOL    MW4 5156   1.570   1.255   2.232
 1282SOL     OW 5157   1.560   1.518   2.371
 1282SOL    HW2 5158   1.630   1.573   2.336
 1282SOL    HW3 5159   1.569   1.435   2.324
 1282SOL    MW4 5160   1.570   1.515   2.360
 1283SOL     OW 5161   1.341   1.630   2.248
 1283SOL    HW2 5162   1.419   1.597   2.294
 1283SOL    HW3 5163   1.268   1.598   2.301
 1283SOL    MW4 5164   1.342   1.621   2.261
 1284SOL     OW 5165   1.332   1.879   2.343
 1284SOL    HW2 5166   1.406   1.924   2.300
 1284SOL    HW3 5167   1.323   1.797   2.295
 1284SOL    MW4 5168   1.341   1.874   2.331
 1285SOL     OW 5169   1.519   2.067   2.254
 1285SOL    HW2 5170   1.597   2.035   2.298
 1285SOL    HW3 5171   1.547   2.086   2.165
 1285SOL    MW4 5172   1.533   2.066   2.248
 1286SOL     OW 5173   1.547   2.349   2.316
 1286SOL    HW2 5174   1.552   2.339   2.411
 1286SOL    HW3 5175   1.541   2.260   2.282
 1286SOL    MW4 5176   1.547   2.336   2.324
 1287SOL     OW 5177   1.323   2.481   2.234
 1287SOL    HW2 5178   1.401   2.436   2.267
 1287SOL    HW3 5179   1.323   2.464   2.140
 1287SOL    MW4 5180   1.333   2.473   2.226
 1288SOL     OW 5181   1.331   2.732   2.336
 1288SOL    HW2 5182   1.409   2.761   2.288
 1288SOL    HW3 5183   1.319   2.641   2.310
 1288SOL    MW4 5184   1.340   2.724   2.327
 1289SOL     OW 5185   1.555   2.857   2.240
 1289SOL    HW2 5186   1.568   2.949   2.263
 1289SOL    HW3 5187   1.555   2.855   2.145
 1289SOL    MW4 5188   1.557   2.869   2.231
 1290SOL     OW 5189   1.580   3.126   2.331
 1290SOL    HW2 5190   1.566   3.098   2.422
 1290SOL    HW3 5191   1.505   3.181   2.312
 1290SOL    MW4 5192   1.568   3.129   2.341
 1291SOL     OW 5193   1.327   3.268   2.269
 1291SOL    HW2 5194   1.269   3.204   2.310
 1291SOL    HW3 5195   1.310   3.259   2.176
 1291SOL    MW4 5196   1.317   3.258   2.262
 1292SOL     OW 5197   1.358   3.524   2.370
 1292SOL    HW2 5198   1.351   3.517   2.465
 1292SOL    HW3 5199   1.336   3.437   2.337
 1292SOL    MW4 5200   1.354   3.512   2.378
 1293SOL     OW 5201   1.577   3.630   2.248
 1293SOL    HW2 5202   1.572   3.724   2.269
 1293SOL    HW3 5203   1.492   3.595   2.276
 1293SOL    MW4 5204   1.565   3.638   2.255
 1294SOL     OW 5205   1.583   3.883   2.315
 1294SOL    HW2 5206   1.594   3.873   2.410
 1294SOL    HW3 5207   1.670   3.908   2.284
 1294SOL    MW4 5208   1.596   3.885   2.323
 1295SOL     OW 5209   1.345   4.012   2.236
 1295SOL    HW2 5210   1.430   3.975   2.259
 1295SOL    HW3 5211   1.349   4.026   2.142
 1295SOL    MW4 5212   1.357   4.009   2.227
 1296SOL     OW 5213   1.360   4.275   2.310
 1296SOL    HW2 5214   1.346   4.186   2.277
 1296SOL    HW3 5215   1.285   4.325   2.278
 1296SOL    MW4 5216   1.348   4.270   2.301
 1297SOL     OW 5217   1.596   4.370   2.218
 1297SOL    HW2 5218   1.509   4.339   2.241
 1297SOL    HW3 5219   1.597   4.462   2.245
 1297SOL    MW4 5220   1.585   4.378   2.224
 1298SOL     OW 5221   2.008   0.011   2.325
 1298SOL    HW2 5222   2.089   0.035   2.281
 1298SOL    HW3 5223   2.009  -0.085   2.324
 1298SOL    MW4 5224   2.019   0.001   2.319
 1299SOL     OW 5225   1.809   0.120   2.187
 1299SOL    HW2 5226   1.783   0.204   2.226
 1299SOL    HW3 5227   1.886   0.093   2.237
 1299SOL    MW4 5228   1.816   0.128   2.199
 1300SOL     OW 5229   1.778   0.357   2.307
 1300SOL    HW2 5230   1.770   0.348   2.402
 1300SOL    HW3 5231   1.858   0.409   2.295
 1300SOL    MW4 5232   1.788   0.363   2.318
 1301SOL     OW 5233   2.021   0.501   2.263
 1301SOL    HW2 5234   2.043   0.587   2.297
 1301SOL    HW3 5235   2.003   0.516   2.170
 1301SOL    MW4 5236   2.021   0.514   2.255
 1302SOL     OW 5237   2.044   0.764   2.369
 1302SOL    HW2 5238   2.116   0.807   2.322
 1302SOL    HW3 5239   1.965   0.809   2.340
 1302SOL    MW4 5240   2.043   0.775   2.359
 1303SOL     OW 5241   1.790   0.874   2.278
 1303SOL    HW2 5242   1.783   0.960   2.321
 1303SOL    HW3 5243   1.798   0.895   2.185
 1303SOL    MW4 5244   1.790   0.888   2.271
 1304SOL     OW 5245   1.790   1.137   2.378
 1304SOL    HW2 5246   1.861   1.171   2.324
 1304SOL    HW3 5247   1.711   1.173   2.338
 1304SOL    MW4 5248   1.789   1.146   2.365
 1305SOL     OW 5249   1.990   1.261   2.225
 1305SOL    HW2 5250   1.998   1.347   2.267
 1305SOL    HW3 5251   1.973   1.281   2.133
 1305SOL    MW4 5252   1.989   1.275   2.219
 1306SOL     OW 5253   2.019   1.513   2.345
 1306SOL    HW2 5254   2.024   1.512   2.441
 1306SOL    HW3 5255   1.941   1.566   2.326
 1306SOL    MW4 5256   2.009   1.520   2.355
 1307SOL     OW 5257   1.767   1.688   2.294
 1307SOL    HW2 5258   1.753   1.776   2.327
 1307SOL    HW3 5259   1.801   1.700   2.205
 1307SOL    MW4 5260   1.770   1.701   2.287
 1308SOL     OW 5261   1.759   1.955   2.356
 1308SOL    HW2 5262   1.771   1.947   2.451
 1308SOL    HW3 5263   1.848   1.965   2.322
 1308SOL    MW4 5264   1.772   1.956   2.364
 1309SOL     OW 5265   1.986   2.033   2.236
 1309SOL    HW2 5266   2.070   1.993   2.257
 1309SOL    HW3 5267   1.991   2.053   2.143
 1309SOL    MW4 5268   1.997   2.030   2.227
 1310SOL     OW 5269   1.994   2.288   2.365
 1310SOL    HW2 5270   2.070   2.332   2.326
 1310SOL    HW3 5271   1.993   2.202   2.324
 1310SOL    MW4 5272   2.004   2.283   2.354
 1311SOL     OW 5273   1.791   2.444   2.224
 1311SOL    HW2 5274   1.853   2.391   2.274
 1311SOL    HW3 5275   1.706   2.426   2.265
 1311SOL    MW4 5276   1.788   2.435   2.236
 1312SOL     OW 5277   1.784   2.723   2.304
 1312SOL    HW2 5278   1.785   2.632   2.276
 1312SOL    HW3 5279   1.697   2.755   2.279
 1312SOL    MW4 5280   1.773   2.715   2.297
 1313SOL     OW 5281   2.004   2.874   2.238
 1313SOL    HW2 5282   2.073   2.812   2.262
 1313SOL    HW3 5283   1.923   2.829   2.259
 1313SOL    MW4 5284   2.003   2.860   2.244
 1314SOL     OW 5285   2.013   3.124   2.374
 1314SOL    HW2 5286   2.099   3.142   2.337
 1314SOL    HW3 5287   1.994   3.034   2.345
 1314SOL    MW4 5288   2.022   3.114   2.365
 1315SOL     OW 5289   1.813   3.249   2.241
 1315SOL    HW2 5290   1.891   3.210   2.281
 1315SOL    HW3 5291   1.739   3.210   2.289
 1315SOL    MW4 5292   1.813   3.239   2.253
 1316SOL     OW 5293   1.768   3.478   2.371
 1316SOL    HW2 5294   1.783   3.401   2.316
 1316SOL    HW3 5295   1.695   3.524   2.330
 1316SOL    MW4 5296   1.761   3.474   2.358
 1317SOL     OW 5297   1.991   3.618   2.265
 1317SOL    HW2 5298   1.914   3.577   2.305
 1317SOL    HW3 5299   1.975   3.612   2.171
 1317SOL    MW4 5300   1.979   3.612   2.258
 1318SOL     OW 5301   2.045   3.869   2.364
 1318SOL    HW2 5302   2.022   3.883   2.455
 1318SOL    HW3 5303   2.024   3.777   2.347
 1318SOL    MW4 5304   2.039   3.858   2.374
 1319SOL     OW 5305   1.831   4.012   2.241
 1319SOL    HW2 5306   1.909   3.962   2.266
 1319SOL    HW3 5307   1.832   4.011   2.146
 1319SOL    MW4 5308   1.842   4.005   2.232
 1320SOL     OW 5309   1.823   4.272   2.348
 1320SOL    HW2 5310   1.825   4.180   2.321
 1320SOL    HW3 5311   1.747   4.309   2.304
 1320SOL    MW4 5312   1.813   4.265   2.339
 1321SOL     OW 5313   2.033   4.413   2.275
 1321SOL    HW2 5314   1.957   4.362   2.303
 1321SOL    HW3 5315   2.029   4.412   2.179
 1321SOL    MW4 5316   2.023   4.406   2.266
 1322SOL     OW 5317   2.445   4.650   2.414
 1322SOL    HW2 5318   2.534   4.685   2.408
 1322SOL    HW3 5319   2.442   4.582   2.347
 1322SOL    MW4 5320   2.457   4.646   2.405
 1323SOL     OW 5321   2.255   0.128   2.249
 1323SOL    HW2 5322   2.249   0.204   2.308
 1323SOL    HW3 5323   2.315   0.068   2.294
 1323SOL    MW4 5324   2.262   0.130   2.263
 1324SOL     OW 5325   2.242   0.356   2.390
 1324SOL    HW2 5326   2.314   0.408   2.355
 1324SOL    HW3 5327   2.163   0.401   2.360
 1324SOL    MW4 5328   2.241   0.369   2.382
 1325SOL     OW 5329   2.451   0.516   2.266
 1325SOL    HW2 5330   2.534   0.469   2.282
 1325SOL    HW3 5331   2.431   0.498   2.174
 1325SOL    MW4 5332   2.460   0.507   2.256
 1326SOL     OW 5333   2.460   0.781   2.338
 1326SOL    HW2 5334   2.545   0.817   2.312
 1326SOL    HW3 5335   2.458   0.694   2.296
 1326SOL    MW4 5336   2.471   0.774   2.329
 1327SOL     OW 5337   2.243   0.902   2.215
 1327SOL    HW2 5338   2.235   0.978   2.273
 1327SOL    HW3 5339   2.314   0.850   2.254
 1327SOL    MW4 5340   2.251   0.905   2.228
 1328SOL     OW 5341   2.227   1.170   2.356
 1328SOL    HW2 5342   2.293   1.232   2.326
 1328SOL    HW3 5343   2.147   1.196   2.311
 1328SOL    MW4 5344   2.225   1.181   2.346
 1329SOL     OW 5345   2.452   1.296   2.242
 1329SOL    HW2 5346   2.522   1.255   2.292
 1329SOL    HW3 5347   2.452   1.387   2.270
 1329SOL    MW4 5348   2.461   1.303   2.252
 1330SOL     OW 5349   2.471   1.563   2.311
 1330SOL    HW2 5350   2.472   1.546   2.405
 1330SOL    HW3 5351   2.543   1.624   2.296
 1330SOL    MW4 5352   2.481   1.569   2.321
 1331SOL     OW 5353   2.222   1.649   2.230
 1331SOL    HW2 5354   2.305   1.609   2.256
 1331SOL    HW3 5355   2.156   1.606   2.284
 1331SOL    MW4 5356   2.225   1.638   2.241
 1332SOL     OW 5357   2.217   1.919   2.325
 1332SOL    HW2 5358   2.294   1.964   2.292
 1332SOL    HW3 5359   2.217   1.835   2.280
 1332SOL    MW4 5360   2.227   1.914   2.315
 1333SOL     OW 5361   2.447   2.039   2.224
 1333SOL    HW2 5362   2.526   1.996   2.257
 1333SOL    HW3 5363   2.455   2.034   2.129
 1333SOL    MW4 5364   2.459   2.033   2.216
 1334SOL     OW 5365   2.467   2.313   2.328
 1334SOL    HW2 5366   2.538   2.354   2.277
 1334SOL    HW3 5367   2.469   2.221   2.302
 1334SOL    MW4 5368   2.477   2.307   2.318
 1335SOL     OW 5369   2.209   2.415   2.237
 1335SOL    HW2 5370   2.202   2.507   2.263
 1335SOL    HW3 5371   2.298   2.389   2.262
 1335SOL    MW4 5372   2.220   2.424   2.244
 1336SOL     OW 5373   2.195   2.692   2.305
 1336SOL    HW2 5374   2.200   2.707   2.399
 1336SOL    HW3 5375   2.277   2.727   2.270
 1336SOL    MW4 5376   2.206   2.698   2.312
 1337SOL     OW 5377   2.445   2.833   2.208
 1337SOL    HW2 5378   2.517   2.802   2.263
 1337SOL    HW3 5379   2.481   2.830   2.119
 1337SOL    MW4 5380   2.460   2.828   2.203
 1338SOL     OW 5381   2.442   3.078   2.337
 1338SOL    HW2 5382   2.530   3.111   2.318
 1338SOL    HW3 5383   2.438   2.993   2.293
 1338SOL    MW4 5384   2.454   3.071   2.328
 1339SOL     OW 5385   2.226   3.219   2.249
 1339SOL    HW2 5386   2.216   3.303   2.293
 1339SOL    HW3 5387   2.302   3.178   2.291
 1339SOL    MW4 5388   2.235   3.225   2.260
 1340SOL     OW 5389   2.211   3.484   2.340
 1340SOL    HW2 5390   2.189   3.458   2.430
 1340SOL    HW3 5391   2.137   3.537   2.311
 1340SOL    MW4 5392   2.198   3.487   2.348
 1341SOL     OW 5393   2.455   3.614   2.250
 1341SOL    HW2 5394   2.463   3.704   2.280
 1341SOL    HW3 5395   2.373   3.583   2.289
 1341SOL    MW4 5396   2.445   3.622   2.259
 1342SOL     OW 5397   2.482   3.862   2.327
 1342SOL    HW2 5398   2.491   3.854   2.422
 1342SOL    HW3 5399   2.403   3.916   2.314
 1342SOL    MW4 5400   2.473   3.868   2.338
 1343SOL     OW 5401   2.256   3.990   2.249
 1343SOL    HW2 5402   2.248   4.081   2.279
 1343SOL    HW3 5403   2.199   3.940   2.307
 1343SOL    MW4 5404   2.247   3.996   2.261
 1344SOL     OW 5405   2.266   4.262   2.339
 1344SOL    HW2 5406   2.286   4.264   2.433
 1344SOL    HW3 5407   2.198   4.327   2.328
 1344SOL    MW4 5408   2.260   4.271   2.350
 1345SOL     OW 5409   2.458   4.417   2.243
 1345SOL    HW2 5410   2.540   4.382   2.276
 1345SOL    HW3 5411   2.391   4.357   2.277
 1345SOL    MW4 5412   2.460   4.404   2.252
 1346SOL     OW 5413   2.936   4.633   2.410
 1346SOL    HW2 5414   3.014   4.672   2.373
 1346SOL    HW3 5415   2.921   4.554   2.358
 1346SOL    MW4 5416   2.944   4.628   2.398
 1347SOL     OW 5417   2.679   0.091   2.356
 1347SOL    HW2 5418   2.678   0.186   2.343
 1347SOL    HW3 5419   2.771   0.071   2.371
 1347SOL    MW4 5420   2.691   0.101   2.356
 1348SOL     OW 5421   2.676   0.380   2.293
 1348SOL    HW2 5422   2.676   0.385   2.389
 1348SOL    HW3 5423   2.760   0.419   2.268
 1348SOL    MW4 5424   2.687   0.386   2.303
 1349SOL     OW 5425   2.926   0.492   2.173
 1349SOL    HW2 5426   2.932   0.585   2.198
 1349SOL    HW3 5427   2.911   0.493   2.079
 1349SOL    MW4 5428   2.925   0.505   2.164
 1350SOL     OW 5429   2.899   0.746   2.291
 1350SOL    HW2 5430   2.891   0.740   2.386
 1350SOL    HW3 5431   2.828   0.805   2.265
 1350SOL    MW4 5432   2.889   0.753   2.300
 1351SOL     OW 5433   2.683   0.896   2.204
 1351SOL    HW2 5434   2.659   0.988   2.213
 1351SOL    HW3 5435   2.720   0.888   2.117
 1351SOL    MW4 5436   2.684   0.907   2.194
 1352SOL     OW 5437   2.654   1.154   2.368
 1352SOL    HW2 5438   2.656   1.156   2.463
 1352SOL    HW3 5439   2.739   1.187   2.341
 1352SOL    MW4 5440   2.665   1.158   2.377
 1353SOL     OW 5441   2.880   1.262   2.229
 1353SOL    HW2 5442   2.966   1.233   2.261
 1353SOL    HW3 5443   2.890   1.266   2.134
 1353SOL    MW4 5444   2.893   1.258   2.221
 1354SOL     OW 5445   2.886   1.530   2.319
 1354SOL    HW2 5446   2.892   1.523   2.414
 1354SOL    HW3 5447   2.863   1.442   2.290
 1354SOL    MW4 5448   2.884   1.518   2.328
 1355SOL     OW 5449   2.696   1.723   2.221
 1355SOL    HW2 5450   2.756   1.655   2.252
 1355SOL    HW3 5451   2.714   1.730   2.127
 1355SOL    MW4 5452   2.706   1.715   2.213
 1356SOL     OW 5453   2.691   1.971   2.318
 1356SOL    HW2 5454   2.696   1.963   2.413
 1356SOL    HW3 5455   2.705   1.883   2.285
 1356SOL    MW4 5456   2.693   1.959   2.326
 1357SOL     OW 5457   2.936   2.088   2.254
 1357SOL    HW2 5458   2.999   2.030   2.298
 1357SOL    HW3 5459   2.850   2.055   2.279
 1357SOL    MW4 5460   2.933   2.076   2.263
 1358SOL     OW 5461   2.898   2.352   2.318
 1358SOL    HW2 5462   2.913   2.363   2.412
 1358SOL    HW3 5463   2.893   2.257   2.305
 1358SOL    MW4 5464   2.899   2.341   2.329
 1359SOL     OW 5465   2.681   2.471   2.202
 1359SOL    HW2 5466   2.760   2.427   2.234
 1359SOL    HW3 5467   2.691   2.473   2.107
 1359SOL    MW4 5468   2.693   2.466   2.194
 1360SOL     OW 5469   2.669   2.717   2.347
 1360SOL    HW2 5470   2.760   2.733   2.324
 1360SOL    HW3 5471   2.651   2.628   2.316
 1360SOL    MW4 5472   2.679   2.707   2.340
 1361SOL     OW 5473   2.929   2.795   2.268
 1361SOL    HW2 5474   2.924   2.886   2.297
 1361SOL    HW3 5475   2.941   2.800   2.173
 1361SOL    MW4 5476   2.930   2.808   2.260
 1362SOL     OW 5477   2.904   3.061   2.331
 1362SOL    HW2 5478   2.973   3.123   2.310
 1362SOL    HW3 5479   2.825   3.100   2.294
 1362SOL    MW4 5480   2.903   3.075   2.324
 1363SOL     OW 5481   2.678   3.200   2.262
 1363SOL    HW2 5482   2.673   3.290   2.295
 1363SOL    HW3 5483   2.678   3.209   2.167
 1363SOL    MW4 5484   2.677   3.213   2.254
 1364SOL     OW 5485   2.651   3.471   2.346
 1364SOL    HW2 5486   2.727   3.516   2.309
 1364SOL    HW3 5487   2.576   3.510   2.302
 1364SOL    MW4 5488   2.651   3.482   2.335
 1365SOL     OW 5489   2.881   3.595   2.265
 1365SOL    HW2 5490   2.955   3.548   2.304
 1365SOL    HW3 5491   2.891   3.685   2.297
 1365SOL    MW4 5492   2.892   3.601   2.275
 1366SOL     OW 5493   2.910   3.863   2.364
 1366SOL    HW2 5494   2.915   3.869   2.460
 1366SOL    HW3 5495   2.824   3.900   2.343
 1366SOL    MW4 5496   2.899   3.869   2.374
 1367SOL     OW 5497   2.689   4.014   2.242
 1367SOL    HW2 5498   2.613   3.962   2.265
 1367SOL    HW3 5499   2.697   4.005   2.147
 1367SOL    MW4 5500   2.680   4.006   2.232
 1368SOL     OW 5501   2.676   4.282   2.338
 1368SOL    HW2 5502   2.678   4.275   2.434
 1368SOL    HW3 5503   2.691   4.194   2.307
 1368SOL    MW4 5504   2.678   4.270   2.347
 1369SOL     OW 5505   2.922   4.399   2.254
 1369SOL    HW2 5506   2.981   4.336   2.296
 1369SOL    HW3 5507   2.834   4.369   2.278
 1369SOL    MW4 5508   2.918   4.386   2.263
 1370SOL     OW 5509   3.323   4.622   2.358
 1370SOL    HW2 5510   3.323   4.625   2.453
 1370SOL    HW3 5511   3.411   4.653   2.334
 1370SOL    MW4 5512   3.335   4.626   2.367
 1371SOL     OW 5513   3.127   0.104   2.255
 1371SOL    HW2 5514   3.146   0.195   2.278
 1371SOL    HW3 5515   3.204   0.056   2.285
 1371SOL    MW4 5516   3.140   0.110   2.262
 1372SOL     OW 5517   3.140   0.371   2.333
 1372SOL    HW2 5518   3.210   0.427   2.298
 1372SOL    HW3 5519   3.064   0.391   2.278
 1372SOL    MW4 5520   3.139   0.381   2.321
 1373SOL     OW 5521   3.375   0.521   2.259
 1373SOL    HW2 5522   3.434   0.456   2.298
 1373SOL    HW3 5523   3.386   0.509   2.165
 1373SOL    MW4 5524   3.385   0.511   2.252
 1374SOL     OW 5525   3.350   0.792   2.334
 1374SOL    HW2 5526   3.438   0.827   2.322
 1374SOL    HW3 5527   3.355   0.702   2.301
 1374SOL    MW4 5528   3.362   0.785   2.328
 1375SOL     OW 5529   3.122   0.898   2.230
 1375SOL    HW2 5530   3.201   0.862   2.270
 1375SOL    HW3 5531   3.051   0.840   2.257
 1375SOL    MW4 5532   3.123   0.886   2.239
 1376SOL     OW 5533   3.113   1.161   2.298
 1376SOL    HW2 5534   3.200   1.182   2.266
 1376SOL    HW3 5535   3.107   1.065   2.290
 1376SOL    MW4 5536   3.124   1.151   2.293
 1377SOL     OW 5537   3.375   1.257   2.220
 1377SOL    HW2 5538   3.447   1.215   2.266
 1377SOL    HW3 5539   3.372   1.346   2.254
 1377SOL    MW4 5540   3.384   1.263   2.230
 1378SOL     OW 5541   3.367   1.517   2.337
 1378SOL    HW2 5542   3.366   1.514   2.433
 1378SOL    HW3 5543   3.279   1.548   2.314
 1378SOL    MW4 5544   3.355   1.520   2.347
 1379SOL     OW 5545   3.123   1.640   2.237
 1379SOL    HW2 5546   3.106   1.728   2.271
 1379SOL    HW3 5547   3.045   1.590   2.262
 1379SOL    MW4 5548   3.110   1.645   2.245
 1380SOL     OW 5549   3.125   1.889   2.339
 1380SOL    HW2 5550   3.110   1.881   2.434
 1380SOL    HW3 5551   3.213   1.927   2.332
 1380SOL    MW4 5552   3.135   1.893   2.351
 1381SOL     OW 5553   3.354   2.040   2.273
 1381SOL    HW2 5554   3.441   2.005   2.290
 1381SOL    HW3 5555   3.345   2.034   2.177
 1381SOL    MW4 5556   3.364   2.034   2.262
 1382SOL     OW 5557   3.378   2.314   2.334
 1382SOL    HW2 5558   3.298   2.354   2.300
 1382SOL    HW3 5559   3.369   2.221   2.314
 1382SOL    MW4 5560   3.367   2.307   2.327
 1383SOL     OW 5561   3.147   2.430   2.216
 1383SOL    HW2 5562   3.149   2.515   2.261
 1383SOL    HW3 5563   3.062   2.392   2.239
 1383SOL    MW4 5564   3.136   2.437   2.225
 1384SOL     OW 5565   3.168   2.662   2.376
 1384SOL    HW2 5566   3.177   2.665   2.472
 1384SOL    HW3 5567   3.083   2.702   2.359
 1384SOL    MW4 5568   3.158   2.668   2.387
 1385SOL     OW 5569   3.350   2.806   2.223
 1385SOL    HW2 5570   3.341   2.895   2.255
 1385SOL    HW3 5571   3.295   2.754   2.282
 1385SOL    MW4 5572   3.342   2.811   2.235
 1386SOL     OW 5573   3.374   3.087   2.339
 1386SOL    HW2 5574   3.444   3.140   2.300
 1386SOL    HW3 5575   3.293   3.130   2.310
 1386SOL    MW4 5576   3.372   3.100   2.330
 1387SOL     OW 5577   3.136   3.208   2.256
 1387SOL    HW2 5578   3.139   3.299   2.287
 1387SOL    HW3 5579   3.127   3.215   2.161
 1387SOL    MW4 5580   3.135   3.221   2.248
 1388SOL     OW 5581   3.138   3.475   2.348
 1388SOL    HW2 5582   3.148   3.486   2.442
 1388SOL    HW3 5583   3.211   3.525   2.310
 1388SOL    MW4 5584   3.149   3.483   2.355
 1389SOL     OW 5585   3.363   3.604   2.225
 1389SOL    HW2 5586   3.446   3.563   2.249
 1389SOL    HW3 5587   3.360   3.597   2.130
 1389SOL    MW4 5588   3.373   3.597   2.216
 1390SOL     OW 5589   3.383   3.840   2.375
 1390SOL    HW2 5590   3.439   3.892   2.318
 1390SOL    HW3 5591   3.366   3.760   2.326
 1390SOL    MW4 5592   3.388   3.837   2.361
 1391SOL     OW 5593   3.143   3.964   2.231
 1391SOL    HW2 5594   3.209   3.913   2.277
 1391SOL    HW3 5595   3.061   3.942   2.275
 1391SOL    MW4 5596   3.141   3.955   2.243
 1392SOL     OW 5597   3.123   4.229   2.349
 1392SOL    HW2 5598   3.201   4.269   2.312
 1392SOL    HW3 5599   3.130   4.137   2.326
 1392SOL    MW4 5600   3.134   4.222   2.341
 1393SOL     OW 5601   3.342   4.358   2.266
 1393SOL    HW2 5602   3.329   4.444   2.306
 1393SOL    HW3 5603   3.328   4.372   2.173
 1393SOL    MW4 5604   3.338   4.371   2.259
 1394SOL     OW 5605   3.801   4.639   2.321
 1394SOL    HW2 5606   3.802   4.611   2.412
 1394SOL    HW3 5607   3.890   4.669   2.303
 1394SOL    MW4 5608   3.813   4.639   2.330
 1395SOL     OW 5609   3.552   0.096   2.274
 1395SOL    HW2 5610   3.561   0.190   2.290
 1395SOL    HW3 5611   3.637   0.059   2.297
 1395SOL    MW4 5612   3.564   0.103   2.279
 1396SOL     OW 5613   3.581   0.364   2.345
 1396SOL    HW2 5614   3.591   0.360   2.440
 1396SOL    HW3 5615   3.652   0.420   2.316
 1396SOL    MW4 5616   3.592   0.371   2.354
 1397SOL     OW 5617   3.824   0.515   2.252
 1397SOL    HW2 5618   3.834   0.607   2.277
 1397SOL    HW3 5619   3.824   0.516   2.157
 1397SOL    MW4 5620   3.825   0.527   2.243
 1398SOL     OW 5621   3.856   0.767   2.342
 1398SOL    HW2 5622   3.864   0.766   2.438
 1398SOL    HW3 5623   3.927   0.823   2.313
 1398SOL    MW4 5624   3.866   0.775   2.351
 1399SOL     OW 5625   3.596   0.857   2.259
 1399SOL    HW2 5626   3.684   0.837   2.291
 1399SOL    HW3 5627   3.608   0.879   2.167
 1399SOL    MW4 5628   3.609   0.857   2.251
 1400SOL     OW 5629   3.614   1.138   2.342
 1400SOL    HW2 5630   3.609   1.126   2.437
 1400SOL    HW3 5631   3.613   1.049   2.307
 1400SOL    MW4 5632   3.613   1.124   2.350
 1401SOL     OW 5633   3.795   1.307   2.237
 1401SOL    HW2 5634   3.792   1.389   2.287
 1401SOL    HW3 5635   3.729   1.251   2.278
 1401SOL    MW4 5636   3.786   1.311   2.249
 1402SOL     OW 5637   3.794   1.554   2.356
 1402SOL    HW2 5638   3.770   1.539   2.447
 1402SOL    HW3 5639   3.721   1.603   2.319
 1402SOL    MW4 5640   3.781   1.558   2.363
 1403SOL     OW 5641   3.589   1.673   2.231
 1403SOL    HW2 5642   3.529   1.608   2.267
 1403SOL    HW3 5643   3.590   1.656   2.137
 1403SOL    MW4 5644   3.581   1.662   2.223
 1404SOL     OW 5645   3.588   1.930   2.347
 1404SOL    HW2 5646   3.652   1.986   2.304
 1404SOL    HW3 5647   3.590   1.848   2.297
 1404SOL    MW4 5648   3.597   1.926   2.335
 1405SOL     OW 5649   3.790   2.094   2.212
 1405SOL    HW2 5650   3.860   2.032   2.231
 1405SOL    HW3 5651   3.795   2.108   2.117
 1405SOL    MW4 5652   3.800   2.088   2.202
 1406SOL     OW 5653   3.829   2.330   2.344
 1406SOL    HW2 5654   3.752   2.377   2.313
 1406SOL    HW3 5655   3.828   2.247   2.295
 1406SOL    MW4 5656   3.819   2.325   2.334
 1407SOL     OW 5657   3.610   2.457   2.249
 1407SOL    HW2 5658   3.526   2.423   2.280
 1407SOL    HW3 5659   3.609   2.443   2.155
 1407SOL    MW4 5660   3.599   2.451   2.241
 1408SOL     OW 5661   3.612   2.715   2.333
 1408SOL    HW2 5662   3.602   2.624   2.306
 1408SOL    HW3 5663   3.546   2.762   2.282
 1408SOL    MW4 5664   3.602   2.709   2.323
 1409SOL     OW 5665   3.851   2.858   2.266
 1409SOL    HW2 5666   3.838   2.949   2.291
 1409SOL    HW3 5667   3.776   2.812   2.304
 1409SOL    MW4 5668   3.839   2.864   2.274
 1410SOL     OW 5669   3.819   3.130   2.369
 1410SOL    HW2 5670   3.818   3.157   2.461
 1410SOL    HW3 5671   3.899   3.169   2.334
 1410SOL    MW4 5672   3.829   3.139   2.377
 1411SOL     OW 5673   3.588   3.227   2.218
 1411SOL    HW2 5674   3.599   3.321   2.233
 1411SOL    HW3 5675   3.658   3.186   2.269
 1411SOL    MW4 5676   3.599   3.234   2.226
 1412SOL     OW 5677   3.603   3.494   2.303
 1412SOL    HW2 5678   3.601   3.500   2.398
 1412SOL    HW3 5679   3.693   3.519   2.279
 1412SOL    MW4 5680   3.615   3.498   2.312
 1413SOL     OW 5681   3.834   3.584   2.198
 1413SOL    HW2 5682   3.830   3.674   2.229
 1413SOL    HW3 5683   3.849   3.592   2.104
 1413SOL    MW4 5684   3.836   3.597   2.189
 1414SOL     OW 5685   3.825   3.834   2.307
 1414SOL    HW2 5686   3.832   3.846   2.402
 1414SOL    HW3 5687   3.890   3.894   2.271
 1414SOL    MW4 5688   3.834   3.843   2.315
 1415SOL     OW 5689   3.593   3.970   2.219
 1415SOL    HW2 5690   3.593   4.058   2.258
 1415SOL    HW3 5691   3.672   3.929   2.254
 1415SOL    MW4 5692   3.604   3.976   2.229
 1416SOL     OW 5693   3.592   4.224   2.350
 1416SOL    HW2 5694   3.657   4.270   2.297
 1416SOL    HW3 5695   3.509   4.265   2.327
 1416SOL    MW4 5696   3.590   4.235   2.340
 1417SOL     OW 5697   3.790   4.384   2.207
 1417SOL    HW2 5698   3.870   4.343   2.240
 1417SOL    HW3 5699   3.801   4.477   2.225
 1417SOL    MW4 5700   3.802   4.391   2.214
 1418SOL     OW 5701   4.255   4.634   2.375
 1418SOL    HW2 5702   4.250   4.633   2.471
 1418SOL    HW3 5703   4.335   4.683   2.355
 1418SOL    MW4 5704   4.265   4.640   2.385
 1419SOL     OW 5705   4.054   0.097   2.249
 1419SOL    HW2 5706   4.041   0.187   2.277
 1419SOL    HW3 5707   4.123   0.064   2.306
 1419SOL    MW4 5708   4.061   0.105   2.260
 1420SOL     OW 5709   4.047   0.367   2.344
 1420SOL    HW2 5710   4.117   0.413   2.297
 1420SOL    HW3 5711   3.966   0.407   2.313
 1420SOL    MW4 5712   4.046   0.378   2.334
 1421SOL     OW 5713   4.272   0.466   2.210
 1421SOL    HW2 5714   4.277   0.559   2.233
 1421SOL    HW3 5715   4.351   0.428   2.247
 1421SOL    MW4 5716   4.283   0.474   2.218
 1422SOL     OW 5717   4.268   0.746   2.310
 1422SOL    HW2 5718   4.198   0.789   2.260
 1422SOL    HW3 5719   4.342   0.806   2.305
 1422SOL    MW4 5720   4.268   0.760   2.303
 1423SOL     OW 5721   4.060   0.899   2.211
 1423SOL    HW2 5722   4.058   0.987   2.249
 1423SOL    HW3 5723   4.057   0.915   2.116
 1423SOL    MW4 5724   4.059   0.913   2.203
 1424SOL     OW 5725   4.012   1.152   2.316
 1424SOL    HW2 5726   4.023   1.171   2.410
 1424SOL    HW3 5727   3.927   1.192   2.295
 1424SOL    MW4 5728   4.002   1.160   2.326
 1425SOL     OW 5729   4.209   1.311   2.185
 1425SOL    HW2 5730   4.123   1.281   2.214
 1425SOL    HW3 5731   4.271   1.261   2.238
 1425SOL    MW4 5732   4.206   1.300   2.196
 1426SOL     OW 5733   4.242   1.525   2.335
 1426SOL    HW2 5734   4.219   1.446   2.287
 1426SOL    HW3 5735   4.319   1.560   2.290
 1426SOL    MW4 5736   4.249   1.519   2.323
 1427SOL     OW 5737   4.030   1.679   2.248
 1427SOL    HW2 5738   4.108   1.641   2.290
 1427SOL    HW3 5739   3.956   1.638   2.294
 1427SOL    MW4 5740   4.031   1.668   2.260
 1428SOL     OW 5741   3.985   1.932   2.309
 1428SOL    HW2 5742   3.975   1.922   2.404
 1428SOL    HW3 5743   3.996   1.843   2.276
 1428SOL    MW4 5744   3.985   1.919   2.317
 1429SOL     OW 5745   4.258   2.045   2.297
 1429SOL    HW2 5746   4.265   2.136   2.324
 1429SOL    HW3 5747   4.173   2.017   2.331
 1429SOL    MW4 5748   4.248   2.053   2.305
 1430SOL     OW 5749   4.279   2.310   2.367
 1430SOL    HW2 5750   4.201   2.360   2.342
 1430SOL    HW3 5751   4.346   2.339   2.304
 1430SOL    MW4 5752   4.278   2.321   2.355
 1431SOL     OW 5753   4.071   2.480   2.281
 1431SOL    HW2 5754   4.064   2.572   2.307
 1431SOL    HW3 5755   3.987   2.441   2.305
 1431SOL    MW4 5756   4.059   2.487   2.288
 1432SOL     OW 5757   4.066   2.725   2.393
 1432SOL    HW2 5758   4.071   2.755   2.484
 1432SOL    HW3 5759   3.989   2.770   2.358
 1432SOL    MW4 5760   4.056   2.735   2.401
 1433SOL     OW 5761   4.285   2.770   2.218
 1433SOL    HW2 5762   4.213   2.753   2.279
 1433SOL    HW3 5763   4.358   2.719   2.251
 1433SOL    MW4 5764   4.285   2.761   2.230
 1434SOL     OW 5765   4.302   3.054   2.303
 1434SOL    HW2 5766   4.321   2.968   2.265
 1434SOL    HW3 5767   4.365   3.113   2.262
 1434SOL    MW4 5768   4.313   3.050   2.293
 1435SOL     OW 5769   4.062   3.211   2.241
 1435SOL    HW2 5770   4.064   3.299   2.278
 1435SOL    HW3 5771   4.135   3.166   2.282
 1435SOL    MW4 5772   4.072   3.217   2.251
 1436SOL     OW 5773   4.038   3.475   2.330
 1436SOL    HW2 5774   4.116   3.509   2.287
 1436SOL    HW3 5775   3.965   3.505   2.277
 1436SOL    MW4 5776   4.039   3.483   2.317
 1437SOL     OW 5777   4.256   3.594   2.236
 1437SOL    HW2 5778   4.253   3.683   2.273
 1437SOL    HW3 5779   4.243   3.607   2.142
 1437SOL    MW4 5780   4.254   3.608   2.228
 1438SOL     OW 5781   4.221   3.862   2.302
 1438SOL    HW2 5782   4.211   3.859   2.397
 1438SOL    HW3 5783   4.309   3.895   2.288
 1438SOL    MW4 5784   4.231   3.866   2.312
 1439SOL     OW 5785   4.003   4.008   2.217
 1439SOL    HW2 5786   4.083   3.960   2.238
 1439SOL    HW3 5787   4.003   4.015   2.121
 1439SOL    MW4 5788   4.013   4.002   2.207
 1440SOL     OW 5789   4.011   4.264   2.341
 1440SOL    HW2 5790   4.094   4.301   2.310
 1440SOL    HW3 5791   4.008   4.176   2.302
 1440SOL    MW4 5792   4.022   4.257   2.332
 1441SOL     OW 5793   4.219   4.394   2.194
 1441SOL    HW2 5794   4.212   4.486   2.218
 1441SOL    HW3 5795   4.305   4.367   2.226
 1441SOL    MW4 5796   4.230   4.403   2.201
 1442SOL     OW 5797   0.240   4.649   2.578
 1442SOL    HW2 5798   0.237   4.559   2.610
 1442SOL    HW3 5799   0.165   4.691   2.620
 1442SOL    MW4 5800   0.230   4.643   2.588
 1443SOL     OW 5801   0.016   0.098   2.730
 1443SOL    HW2 5802   0.002   0.089   2.824
 1443SOL    HW3 5803   0.004   0.191   2.713
 1443SOL    MW4 5804   0.013   0.109   2.740
 1444SOL     OW 5805   4.483   0.373   2.623
 1444SOL    HW2 5806   4.563   0.422   2.644
 1444SOL    HW3 5807   4.484   0.366   2.528
 1444SOL    MW4 5808   4.494   0.378   2.613
 1445SOL     OW 5809   0.233   0.487   2.691
 1445SOL    HW2 5810   0.219   0.482   2.785
 1445SOL    HW3 5811   0.305   0.426   2.674
 1445SOL    MW4 5812   0.241   0.478   2.701
 1446SOL     OW 5813   0.198   0.759   2.596
 1446SOL    HW2 5814   0.280   0.788   2.636
 1446SOL    HW3 5815   0.197   0.664   2.611
 1446SOL    MW4 5816   0.208   0.750   2.603
 1447SOL     OW 5817   4.472   0.882   2.705
 1447SOL    HW2 5818   4.396   0.831   2.678
 1447SOL    HW3 5819   4.547   0.832   2.672
 1447SOL    MW4 5820   4.472   0.869   2.697
 1448SOL     OW 5821   4.463   1.132   2.588
 1448SOL    HW2 5822   4.540   1.170   2.632
 1448SOL    HW3 5823   4.453   1.046   2.629
 1448SOL    MW4 5824   4.472   1.125   2.599
 1449SOL     OW 5825   0.192   1.274   2.703
 1449SOL    HW2 5826   0.263   1.230   2.655
 1449SOL    HW3 5827   0.194   1.364   2.670
 1449SOL    MW4 5828   0.202   1.280   2.692
 1450SOL     OW 5829   0.187   1.546   2.619
 1450SOL    HW2 5830   0.265   1.583   2.660
 1450SOL    HW3 5831   0.114   1.592   2.659
 1450SOL    MW4 5832   0.187   1.557   2.629
 1451SOL     OW 5833   4.463   1.653   2.762
 1451SOL    HW2 5834   4.475   1.661   2.857
 1451SOL    HW3 5835   4.457   1.744   2.731
 1451SOL    MW4 5836   4.464   1.666   2.771
 1452SOL     OW 5837   4.417   1.914   2.654
 1452SOL    HW2 5838   4.498   1.944   2.695
 1452SOL    HW3 5839   4.441   1.899   2.562
 1452SOL    MW4 5840   4.431   1.916   2.647
 1453SOL     OW 5841   0.155   2.038   2.730
 1453SOL    HW2 5842   0.235   2.007   2.688
 1453SOL    HW3 5843   0.146   2.129   2.703
 1453SOL    MW4 5844   0.164   2.046   2.721
 1454SOL     OW 5845   0.197   2.314   2.640
 1454SOL    HW2 5846   0.282   2.348   2.669
 1454SOL    HW3 5847   0.133   2.372   2.680
 1454SOL    MW4 5848   0.200   2.326   2.649
 1455SOL     OW 5849   0.004   2.455   2.742
 1455SOL    HW2 5850   0.036   2.448   2.832
 1455SOL    HW3 5851  -0.068   2.391   2.738
 1455SOL    MW4 5852  -0.001   2.445   2.754
 1456SOL     OW 5853   4.481   2.717   2.638
 1456SOL    HW2 5854   4.408   2.777   2.654
 1456SOL    HW3 5855   4.458   2.637   2.686
 1456SOL    MW4 5856   4.469   2.714   2.647
 1457SOL     OW 5857   0.223   2.803   2.744
 1457SOL    HW2 5858   0.241   2.894   2.719
 1457SOL    HW3 5859   0.137   2.785   2.707
 1457SOL    MW4 5860   0.214   2.813   2.736
 1458SOL     OW 5861   0.237   3.062   2.619
 1458SOL    HW2 5862   0.311   3.110   2.658
 1458SOL    HW3 5863   0.258   3.057   2.526
 1458SOL    MW4 5864   0.250   3.068   2.612
 1459SOL     OW 5865   0.015   3.241   2.674
 1459SOL    HW2 5866  -0.061   3.200   2.633
 1459SOL    HW3 5867   0.089   3.185   2.651
 1459SOL    MW4 5868   0.015   3.228   2.666
 1460SOL     OW 5869   4.468   3.500   2.620
 1460SOL    HW2 5870   4.547   3.549   2.644
 1460SOL    HW3 5871   4.482   3.413   2.657
 1460SOL    MW4 5872   4.480   3.495   2.628
 1461SOL     OW 5873   0.220   3.617   2.698
 1461SOL    HW2 5874   0.237   3.606   2.792
 1461SOL    HW3 5875   0.288   3.565   2.656
 1461SOL    MW4 5876   0.231   3.608   2.705
 1462SOL     OW 5877   0.192   3.874   2.607
 1462SOL    HW2 5878   0.195   3.789   2.651
 1462SOL    HW3 5879   0.212   3.855   2.515
 1462SOL    MW4 5880   0.195   3.861   2.601
 1463SOL     OW 5881   4.463   3.998   2.708
 1463SOL    HW2 5882   4.459   4.084   2.666
 1463SOL    HW3 5883   4.543   3.958   2.674
 1463SOL    MW4 5884   4.473   4.004   2.698
 1464SOL     OW 5885   4.481   4.241   2.576
 1464SOL    HW2 5886   4.417   4.283   2.634
 1464SOL    HW3 5887   4.562   4.290   2.591
 1464SOL    MW4 5888   4.483   4.253   2.586
 1465SOL     OW 5889   0.211   4.379   2.678
 1465SOL    HW2 5890   0.204   4.368   2.773
 1465SOL    HW3 5891   0.291   4.332   2.654
 1465SOL    MW4 5892   0.221   4.371   2.687
 1466SOL     OW 5893   0.703   4.647   2.616
 1466SOL    HW2 5894   0.779   4.705   2.620
 1466SOL    HW3 5895   0.637   4.690   2.670
 1466SOL    MW4 5896   0.704   4.660   2.623
 1467SOL     OW 5897   0.464   0.052   2.726
 1467SOL    HW2 5898   0.424   0.054   2.813
 1467SOL    HW3 5899   0.394   0.024   2.668
 1467SOL    MW4 5900   0.450   0.048   2.730
 1468SOL     OW 5901   0.436   0.305   2.605
 1468SOL    HW2 5902   0.513   0.351   2.639
 1468SOL    HW3 5903   0.441   0.218   2.645
 1468SOL    MW4 5904   0.447   0.300   2.615
 1469SOL     OW 5905   0.637   0.450   2.714
 1469SOL    HW2 5906   0.635   0.479   2.805
 1469SOL    HW3 5907   0.720   0.402   2.706
 1469SOL    MW4 5908   0.648   0.447   2.725
 1470SOL     OW 5909   0.618   0.727   2.618
 1470SOL    HW2 5910   0.695   0.783   2.630
 1470SOL    HW3 5911   0.641   0.645   2.662
 1470SOL    MW4 5912   0.631   0.723   2.626
 1471SOL     OW 5913   0.406   0.881   2.725
 1471SOL    HW2 5914   0.413   0.958   2.669
 1471SOL    HW3 5915   0.471   0.820   2.690
 1471SOL    MW4 5916   0.416   0.883   2.713
 1472SOL     OW 5917   0.423   1.157   2.597
 1472SOL    HW2 5918   0.493   1.213   2.630
 1472SOL    HW3 5919   0.428   1.167   2.502
 1472SOL    MW4 5920   0.433   1.165   2.589
 1473SOL     OW 5921   0.644   1.291   2.696
 1473SOL    HW2 5922   0.639   1.276   2.790
 1473SOL    HW3 5923   0.724   1.246   2.668
 1473SOL    MW4 5924   0.654   1.283   2.704
 1474SOL     OW 5925   0.659   1.556   2.637
 1474SOL    HW2 5926   0.583   1.593   2.682
 1474SOL    HW3 5927   0.645   1.461   2.642
 1474SOL    MW4 5928   0.647   1.548   2.644
 1475SOL     OW 5929   0.404   1.652   2.740
 1475SOL    HW2 5930   0.413   1.657   2.836
 1475SOL    HW3 5931   0.399   1.743   2.712
 1475SOL    MW4 5932   0.405   1.665   2.749
 1476SOL     OW 5933   0.439   1.918   2.646
 1476SOL    HW2 5934   0.501   1.970   2.696
 1476SOL    HW3 5935   0.467   1.926   2.555
 1476SOL    MW4 5936   0.451   1.926   2.641
 1477SOL     OW 5937   0.647   2.066   2.770
 1477SOL    HW2 5938   0.657   2.046   2.863
 1477SOL    HW3 5939   0.724   2.026   2.729
 1477SOL    MW4 5940   0.659   2.058   2.777
 1478SOL     OW 5941   0.647   2.294   2.610
 1478SOL    HW2 5942   0.725   2.341   2.640
 1478SOL    HW3 5943   0.645   2.215   2.664
 1478SOL    MW4 5944   0.657   2.289   2.621
 1479SOL     OW 5945   0.441   2.420   2.732
 1479SOL    HW2 5946   0.443   2.508   2.693
 1479SOL    HW3 5947   0.510   2.372   2.685
 1479SOL    MW4 5948   0.451   2.425   2.720
 1480SOL     OW 5949   0.446   2.685   2.638
 1480SOL    HW2 5950   0.521   2.732   2.674
 1480SOL    HW3 5951   0.370   2.729   2.677
 1480SOL    MW4 5952   0.446   2.697   2.648
 1481SOL     OW 5953   0.667   2.799   2.751
 1481SOL    HW2 5954   0.675   2.799   2.846
 1481SOL    HW3 5955   0.683   2.890   2.725
 1481SOL    MW4 5956   0.670   2.811   2.760
 1482SOL     OW 5957   0.700   3.058   2.659
 1482SOL    HW2 5958   0.769   3.118   2.688
 1482SOL    HW3 5959   0.683   3.084   2.568
 1482SOL    MW4 5960   0.707   3.069   2.651
 1483SOL     OW 5961   0.456   3.211   2.719
 1483SOL    HW2 5962   0.440   3.204   2.813
 1483SOL    HW3 5963   0.533   3.156   2.703
 1483SOL    MW4 5964   0.464   3.202   2.729
 1484SOL     OW 5965   0.439   3.478   2.599
 1484SOL    HW2 5966   0.452   3.395   2.644
 1484SOL    HW3 5967   0.448   3.457   2.506
 1484SOL    MW4 5968   0.442   3.465   2.592
 1485SOL     OW 5969   0.664   3.612   2.703
 1485SOL    HW2 5970   0.665   3.612   2.799
 1485SOL    HW3 5971   0.578   3.579   2.680
 1485SOL    MW4 5972   0.653   3.608   2.712
 1486SOL     OW 5973   0.663   3.898   2.617
 1486SOL    HW2 5974   0.579   3.932   2.646
 1486SOL    HW3 5975   0.661   3.805   2.640
 1486SOL    MW4 5976   0.652   3.891   2.623
 1487SOL     OW 5977   0.423   4.008   2.708
 1487SOL    HW2 5978   0.411   4.092   2.663
 1487SOL    HW3 5979   0.340   3.961   2.693
 1487SOL    MW4 5980   0.411   4.013   2.700
 1488SOL     OW 5981   0.431   4.249   2.586
 1488SOL    HW2 5982   0.511   4.294   2.615
 1488SOL    HW3 5983   0.437   4.249   2.490
 1488SOL    MW4 5984   0.443   4.255   2.577
 1489SOL     OW 5985   0.645   4.399   2.695
 1489SOL    HW2 5986   0.726   4.348   2.699
 1489SOL    HW3 5987   0.673   4.487   2.667
 1489SOL    MW4 5988   0.660   4.404   2.691
 1490SOL     OW 5989   1.176   4.616   2.579
 1490SOL    HW2 5990   1.247   4.660   2.626
 1490SOL    HW3 5991   1.169   4.531   2.622
 1490SOL    MW4 5992   1.184   4.611   2.591
 1491SOL     OW 5993   0.937   0.114   2.676
 1491SOL    HW2 5994   0.938   0.140   2.768
 1491SOL    HW3 5995   1.022   0.071   2.662
 1491SOL    MW4 5996   0.949   0.112   2.686
 1492SOL     OW 5997   0.900   0.388   2.611
 1492SOL    HW2 5998   0.904   0.296   2.638
 1492SOL    HW3 5999   0.937   0.388   2.522
 1492SOL    MW4 6000   0.906   0.376   2.603
 1493SOL     OW 6001   1.102   0.532   2.742
 1493SOL    HW2 6002   1.117   0.617   2.700
 1493SOL    HW3 6003   1.019   0.502   2.705
 1493SOL    MW4 6004   1.093   0.539   2.732
 1494SOL     OW 6005   1.116   0.765   2.593
 1494SOL    HW2 6006   1.180   0.822   2.634
 1494SOL    HW3 6007   1.140   0.765   2.500
 1494SOL    MW4 6008   1.128   0.772   2.586
 1495SOL     OW 6009   0.865   0.864   2.687
 1495SOL    HW2 6010   0.872   0.860   2.783
 1495SOL    HW3 6011   0.943   0.820   2.655
 1495SOL    MW4 6012   0.876   0.858   2.696
 1496SOL     OW 6013   0.851   1.150   2.593
 1496SOL    HW2 6014   0.838   1.063   2.631
 1496SOL    HW3 6015   0.865   1.134   2.499
 1496SOL    MW4 6016   0.851   1.136   2.585
 1497SOL     OW 6017   1.098   1.234   2.682
 1497SOL    HW2 6018   1.089   1.329   2.685
 1497SOL    HW3 6019   1.016   1.204   2.642
 1497SOL    MW4 6020   1.086   1.243   2.677
 1498SOL     OW 6021   1.086   1.514   2.647
 1498SOL    HW2 6022   1.022   1.579   2.677
 1498SOL    HW3 6023   1.088   1.524   2.552
 1498SOL    MW4 6024   1.078   1.524   2.638
 1499SOL     OW 6025   0.891   1.694   2.724
 1499SOL    HW2 6026   0.887   1.684   2.819
 1499SOL    HW3 6027   0.817   1.643   2.690
 1499SOL    MW4 6028   0.881   1.686   2.732
 1500SOL     OW 6029   0.888   1.949   2.621
 1500SOL    HW2 6030   0.970   1.978   2.660
 1500SOL    HW3 6031   0.875   1.860   2.655
 1500SOL    MW4 6032   0.897   1.941   2.631
 1501SOL     OW 6033   1.141   2.042   2.723
 1501SOL    HW2 6034   1.218   2.002   2.682
 1501SOL    HW3 6035   1.133   2.127   2.681
 1501SOL    MW4 6036   1.150   2.048   2.712
 1502SOL     OW 6037   1.139   2.317   2.629
 1502SOL    HW2 6038   1.203   2.379   2.665
 1502SOL    HW3 6039   1.147   2.327   2.534
 1502SOL    MW4 6040   1.148   2.327   2.621
 1503SOL     OW 6041   0.883   2.395   2.685
 1503SOL    HW2 6042   0.888   2.484   2.652
 1503SOL    HW3 6043   0.971   2.360   2.673
 1503SOL    MW4 6044   0.895   2.402   2.679
 1504SOL     OW 6045   0.887   2.666   2.601
 1504SOL    HW2 6046   0.954   2.716   2.648
 1504SOL    HW3 6047   0.806   2.682   2.650
 1504SOL    MW4 6048   0.885   2.675   2.613
 1505SOL     OW 6049   1.083   2.832   2.713
 1505SOL    HW2 6050   1.106   2.825   2.806
 1505SOL    HW3 6051   1.159   2.795   2.667
 1505SOL    MW4 6052   1.096   2.826   2.719
 1506SOL     OW 6053   1.148   3.096   2.644
 1506SOL    HW2 6054   1.122   3.007   2.667
 1506SOL    HW3 6055   1.136   3.101   2.549
 1506SOL    MW4 6056   1.143   3.085   2.635
 1507SOL     OW 6057   0.919   3.208   2.729
 1507SOL    HW2 6058   0.903   3.286   2.676
 1507SOL    HW3 6059   1.006   3.179   2.701
 1507SOL    MW4 6060   0.928   3.215   2.718
 1508SOL     OW 6061   0.887   3.462   2.611
 1508SOL    HW2 6062   0.961   3.508   2.652
 1508SOL    HW3 6063   0.810   3.512   2.639
 1508SOL    MW4 6064   0.887   3.475   2.620
 1509SOL     OW 6065   1.102   3.599   2.725
 1509SOL    HW2 6066   1.101   3.626   2.817
 1509SOL    HW3 6067   1.100   3.681   2.676
 1509SOL    MW4 6068   1.102   3.613   2.731
 1510SOL     OW 6069   1.098   3.851   2.593
 1510SOL    HW2 6070   1.178   3.889   2.630
 1510SOL    HW3 6071   1.110   3.859   2.498
 1510SOL    MW4 6072   1.110   3.857   2.585
 1511SOL     OW 6073   0.893   4.008   2.723
 1511SOL    HW2 6074   0.958   3.963   2.668
 1511SOL    HW3 6075   0.809   3.970   2.696
 1511SOL    MW4 6076   0.890   3.997   2.712
 1512SOL     OW 6077   0.888   4.266   2.638
 1512SOL    HW2 6078   0.892   4.174   2.663
 1512SOL    HW3 6079   0.884   4.265   2.543
 1512SOL    MW4 6080   0.888   4.254   2.629
 1513SOL     OW 6081   1.144   4.351   2.707
 1513SOL    HW2 6082   1.137   4.378   2.799
 1513SOL    HW3 6083   1.055   4.327   2.682
 1513SOL    MW4 6084   1.131   4.351   2.716
 1514SOL     OW 6085   1.566   4.656   2.563
 1514SOL    HW2 6086   1.556   4.567   2.597
 1514SOL    HW3 6087   1.601   4.645   2.475
 1514SOL    MW4 6088   1.569   4.643   2.556
 1515SOL     OW 6089   1.345   0.107   2.692
 1515SOL    HW2 6090   1.336   0.202   2.700
 1515SOL    HW3 6091   1.430   0.094   2.650
 1515SOL    MW4 6092   1.355   0.118   2.687
 1516SOL     OW 6093   1.328   0.372   2.697
 1516SOL    HW2 6094   1.401   0.433   2.708
 1516SOL    HW3 6095   1.251   0.422   2.724
 1516SOL    MW4 6096   1.327   0.386   2.702
 1517SOL     OW 6097   1.552   0.532   2.732
 1517SOL    HW2 6098   1.621   0.484   2.688
 1517SOL    HW3 6099   1.545   0.614   2.683
 1517SOL    MW4 6100   1.560   0.537   2.720
 1518SOL     OW 6101   1.564   0.782   2.603
 1518SOL    HW2 6102   1.485   0.817   2.644
 1518SOL    HW3 6103   1.539   0.768   2.511
 1518SOL    MW4 6104   1.550   0.785   2.596
 1519SOL     OW 6105   1.335   0.879   2.717
 1519SOL    HW2 6106   1.327   0.865   2.811
 1519SOL    HW3 6107   1.355   0.972   2.708
 1519SOL    MW4 6108   1.337   0.890   2.728
 1520SOL     OW 6109   1.361   1.139   2.593
 1520SOL    HW2 6110   1.430   1.202   2.613
 1520SOL    HW3 6111   1.282   1.179   2.629
 1520SOL    MW4 6112   1.360   1.153   2.601
 1521SOL     OW 6113   1.576   1.259   2.698
 1521SOL    HW2 6114   1.571   1.266   2.793
 1521SOL    HW3 6115   1.658   1.212   2.681
 1521SOL    MW4 6116   1.586   1.253   2.708
 1522SOL     OW 6117   1.552   1.546   2.669
 1522SOL    HW2 6118   1.561   1.451   2.685
 1522SOL    HW3 6119   1.562   1.555   2.575
 1522SOL    MW4 6120   1.555   1.534   2.659
 1523SOL     OW 6121   1.332   1.660   2.750
 1523SOL    HW2 6122   1.414   1.625   2.717
 1523SOL    HW3 6123   1.266   1.594   2.725
 1523SOL    MW4 6124   1.334   1.646   2.742
 1524SOL     OW 6125   1.357   1.911   2.612
 1524SOL    HW2 6126   1.348   1.827   2.657
 1524SOL    HW3 6127   1.346   1.890   2.519
 1524SOL    MW4 6128   1.354   1.897   2.606
 1525SOL     OW 6129   1.591   2.080   2.656
 1525SOL    HW2 6130   1.656   2.014   2.631
 1525SOL    HW3 6131   1.508   2.044   2.625
 1525SOL    MW4 6132   1.589   2.066   2.648
 1526SOL     OW 6133   1.581   2.350   2.581
 1526SOL    HW2 6134   1.657   2.402   2.608
 1526SOL    HW3 6135   1.600   2.262   2.614
 1526SOL    MW4 6136   1.594   2.345   2.589
 1527SOL     OW 6137   1.354   2.475   2.687
 1527SOL    HW2 6138   1.342   2.564   2.656
 1527SOL    HW3 6139   1.442   2.451   2.658
 1527SOL    MW4 6140   1.364   2.483   2.679
 1528SOL     OW 6141   1.328   2.726   2.613
 1528SOL    HW2 6142   1.408   2.767   2.645
 1528SOL    HW3 6143   1.336   2.727   2.517
 1528SOL    MW4 6144   1.339   2.732   2.604
 1529SOL     OW 6145   1.563   2.824   2.707
 1529SOL    HW2 6146   1.553   2.824   2.802
 1529SOL    HW3 6147   1.652   2.790   2.692
 1529SOL    MW4 6148   1.573   2.819   2.717
 1530SOL     OW 6149   1.553   3.076   2.598
 1530SOL    HW2 6150   1.631   3.121   2.630
 1530SOL    HW3 6151   1.557   2.990   2.639
 1530SOL    MW4 6152   1.564   3.071   2.608
 1531SOL     OW 6153   1.372   3.242   2.737
 1531SOL    HW2 6154   1.435   3.189   2.687
 1531SOL    HW3 6155   1.287   3.201   2.719
 1531SOL    MW4 6156   1.369   3.229   2.728
 1532SOL     OW 6157   1.341   3.501   2.651
 1532SOL    HW2 6158   1.340   3.411   2.684
 1532SOL    HW3 6159   1.260   3.539   2.684
 1532SOL    MW4 6160   1.330   3.494   2.659
 1533SOL     OW 6161   1.578   3.644   2.750
 1533SOL    HW2 6162   1.641   3.577   2.722
 1533SOL    HW3 6163   1.492   3.606   2.729
 1533SOL    MW4 6164   1.575   3.630   2.744
 1534SOL     OW 6165   1.571   3.881   2.589
 1534SOL    HW2 6166   1.492   3.919   2.627
 1534SOL    HW3 6167   1.588   3.804   2.642
 1534SOL    MW4 6168   1.563   3.876   2.601
 1535SOL     OW 6169   1.321   3.992   2.678
 1535SOL    HW2 6170   1.329   4.005   2.772
 1535SOL    HW3 6171   1.327   4.081   2.641
 1535SOL    MW4 6172   1.323   4.006   2.686
 1536SOL     OW 6173   1.391   4.253   2.596
 1536SOL    HW2 6174   1.311   4.286   2.636
 1536SOL    HW3 6175   1.377   4.262   2.502
 1536SOL    MW4 6176   1.379   4.259   2.589
 1537SOL     OW 6177   1.592   4.412   2.703
 1537SOL    HW2 6178   1.577   4.392   2.796
 1537SOL    HW3 6179   1.518   4.370   2.658
 1537SOL    MW4 6180   1.580   4.404   2.710
 1538SOL     OW 6181   1.983   4.662   2.602
 1538SOL    HW2 6182   2.064   4.696   2.642
 1538SOL    HW3 6183   1.993   4.680   2.509
 1538SOL    MW4 6184   1.995   4.669   2.595
 1539SOL     OW 6185   1.766   0.121   2.723
 1539SOL    HW2 6186   1.847   0.089   2.682
 1539SOL    HW3 6187   1.696   0.075   2.676
 1539SOL    MW4 6188   1.768   0.110   2.711
 1540SOL     OW 6189   1.760   0.377   2.598
 1540SOL    HW2 6190   1.840   0.419   2.629
 1540SOL    HW3 6191   1.754   0.295   2.648
 1540SOL    MW4 6192   1.770   0.372   2.609
 1541SOL     OW 6193   1.996   0.488   2.711
 1541SOL    HW2 6194   2.078   0.439   2.706
 1541SOL    HW3 6195   2.020   0.577   2.687
 1541SOL    MW4 6196   2.010   0.493   2.707
 1542SOL     OW 6197   2.046   0.747   2.649
 1542SOL    HW2 6198   1.967   0.796   2.670
 1542SOL    HW3 6199   2.055   0.756   2.554
 1542SOL    MW4 6200   2.037   0.755   2.639
 1543SOL     OW 6201   1.820   0.881   2.721
 1543SOL    HW2 6202   1.818   0.971   2.690
 1543SOL    HW3 6203   1.735   0.845   2.694
 1543SOL    MW4 6204   1.809   0.888   2.713
 1544SOL     OW 6205   1.824   1.143   2.649
 1544SOL    HW2 6206   1.907   1.182   2.677
 1544SOL    HW3 6207   1.825   1.153   2.553
 1544SOL    MW4 6208   1.835   1.150   2.640
 1545SOL     OW 6209   2.048   1.298   2.719
 1545SOL    HW2 6210   2.048   1.316   2.813
 1545SOL    HW3 6211   2.125   1.243   2.705
 1545SOL    MW4 6212   2.059   1.293   2.729
 1546SOL     OW 6213   2.028   1.572   2.633
 1546SOL    HW2 6214   1.946   1.600   2.674
 1546SOL    HW3 6215   2.034   1.479   2.655
 1546SOL    MW4 6216   2.018   1.563   2.641
 1547SOL     OW 6217   1.798   1.666   2.757
 1547SOL    HW2 6218   1.793   1.671   2.853
 1547SOL    HW3 6219   1.723   1.613   2.732
 1547SOL    MW4 6220   1.788   1.659   2.766
 1548SOL     OW 6221   1.812   1.901   2.612
 1548SOL    HW2 6222   1.883   1.949   2.655
 1548SOL    HW3 6223   1.807   1.818   2.660
 1548SOL    MW4 6224   1.821   1.897   2.624
 1549SOL     OW 6225   2.008   2.049   2.733
 1549SOL    HW2 6226   2.023   2.060   2.827
 1549SOL    HW3 6227   1.993   2.137   2.700
 1549SOL    MW4 6228   2.008   2.062   2.741
 1550SOL     OW 6229   2.017   2.315   2.635
 1550SOL    HW2 6230   2.093   2.371   2.646
 1550SOL    HW3 6231   1.996   2.320   2.542
 1550SOL    MW4 6232   2.024   2.323   2.625
 1551SOL     OW 6233   1.803   2.484   2.688
 1551SOL    HW2 6234   1.797   2.494   2.783
 1551SOL    HW3 6235   1.878   2.426   2.674
 1551SOL    MW4 6236   1.812   2.478   2.699
 1552SOL     OW 6237   1.799   2.730   2.588
 1552SOL    HW2 6238   1.800   2.641   2.624
 1552SOL    HW3 6239   1.791   2.718   2.494
 1552SOL    MW4 6240   1.798   2.716   2.580
 1553SOL     OW 6241   2.015   2.857   2.730
 1553SOL    HW2 6242   2.087   2.809   2.689
 1553SOL    HW3 6243   1.936   2.813   2.699
 1553SOL    MW4 6244   2.014   2.844   2.721
 1554SOL     OW 6245   1.997   3.112   2.641
 1554SOL    HW2 6246   2.011   3.020   2.663
 1554SOL    HW3 6247   2.001   3.115   2.545
 1554SOL    MW4 6248   1.999   3.101   2.631
 1555SOL     OW 6249   1.738   3.224   2.722
 1555SOL    HW2 6250   1.748   3.315   2.693
 1555SOL    HW3 6251   1.823   3.183   2.703
 1555SOL    MW4 6252   1.751   3.231   2.716
 1556SOL     OW 6253   1.780   3.482   2.643
 1556SOL    HW2 6254   1.849   3.545   2.666
 1556SOL    HW3 6255   1.782   3.478   2.547
 1556SOL    MW4 6256   1.789   3.490   2.633
 1557SOL     OW 6257   1.989   3.635   2.744
 1557SOL    HW2 6258   1.982   3.633   2.840
 1557SOL    HW3 6259   2.050   3.565   2.722
 1557SOL    MW4 6260   1.996   3.626   2.754
 1558SOL     OW 6261   2.021   3.883   2.642
 1558SOL    HW2 6262   1.948   3.931   2.681
 1558SOL    HW3 6263   2.011   3.794   2.675
 1558SOL    MW4 6264   2.010   3.878   2.651
 1559SOL     OW 6265   1.768   4.009   2.769
 1559SOL    HW2 6266   1.788   4.099   2.742
 1559SOL    HW3 6267   1.694   3.983   2.714
 1559SOL    MW4 6268   1.761   4.017   2.758
 1560SOL     OW 6269   1.823   4.259   2.634
 1560SOL    HW2 6270   1.744   4.298   2.673
 1560SOL    HW3 6271   1.812   4.272   2.540
 1560SOL    MW4 6272   1.811   4.266   2.627
 1561SOL     OW 6273   2.040   4.407   2.718
 1561SOL    HW2 6274   1.972   4.350   2.682
 1561SOL    HW3 6275   2.023   4.493   2.678
 1561SOL    MW4 6276   2.029   4.411   2.708
 1562SOL     OW 6277   2.492   4.640   2.683
 1562SOL    HW2 6278   2.584   4.666   2.685
 1562SOL    HW3 6279   2.471   4.632   2.590
 1562SOL    MW4 6280   2.502   4.642   2.671
 1563SOL     OW 6281   2.222   0.074   2.730
 1563SOL    HW2 6282   2.216   0.079   2.826
 1563SOL    HW3 6283   2.312   0.047   2.713
 1563SOL    MW4 6284   2.233   0.071   2.740
 1564SOL     OW 6285   2.229   0.360   2.668
 1564SOL    HW2 6286   2.207   0.274   2.704
 1564SOL    HW3 6287   2.244   0.343   2.575
 1564SOL    MW4 6288   2.228   0.346   2.660
 1565SOL     OW 6289   2.476   0.460   2.707
 1565SOL    HW2 6290   2.466   0.554   2.689
 1565SOL    HW3 6291   2.391   0.422   2.686
 1565SOL    MW4 6292   2.463   0.467   2.702
 1566SOL     OW 6293   2.475   0.720   2.600
 1566SOL    HW2 6294   2.405   0.775   2.637
 1566SOL    HW3 6295   2.465   0.728   2.505
 1566SOL    MW4 6296   2.464   0.729   2.593
 1567SOL     OW 6297   2.281   0.886   2.721
 1567SOL    HW2 6298   2.279   0.896   2.816
 1567SOL    HW3 6299   2.205   0.832   2.700
 1567SOL    MW4 6300   2.271   0.880   2.731
 1568SOL     OW 6301   2.287   1.150   2.629
 1568SOL    HW2 6302   2.283   1.058   2.656
 1568SOL    HW3 6303   2.270   1.148   2.535
 1568SOL    MW4 6304   2.284   1.137   2.620
 1569SOL     OW 6305   2.468   1.320   2.762
 1569SOL    HW2 6306   2.549   1.269   2.758
 1569SOL    HW3 6307   2.403   1.265   2.719
 1569SOL    MW4 6308   2.471   1.306   2.756
 1570SOL     OW 6309   2.473   1.534   2.586
 1570SOL    HW2 6310   2.412   1.582   2.642
 1570SOL    HW3 6311   2.496   1.456   2.637
 1570SOL    MW4 6312   2.468   1.530   2.600
 1571SOL     OW 6313   2.263   1.690   2.734
 1571SOL    HW2 6314   2.261   1.775   2.692
 1571SOL    HW3 6315   2.188   1.643   2.698
 1571SOL    MW4 6316   2.253   1.695   2.724
 1572SOL     OW 6317   2.246   1.949   2.605
 1572SOL    HW2 6318   2.164   1.988   2.635
 1572SOL    HW3 6319   2.235   1.940   2.510
 1572SOL    MW4 6320   2.233   1.953   2.596
 1573SOL     OW 6321   2.476   2.063   2.716
 1573SOL    HW2 6322   2.465   2.153   2.687
 1573SOL    HW3 6323   2.400   2.016   2.683
 1573SOL    MW4 6324   2.465   2.069   2.708
 1574SOL     OW 6325   2.489   2.329   2.613
 1574SOL    HW2 6326   2.569   2.366   2.649
 1574SOL    HW3 6327   2.501   2.336   2.518
 1574SOL    MW4 6328   2.501   2.334   2.605
 1575SOL     OW 6329   2.250   2.459   2.658
 1575SOL    HW2 6330   2.259   2.468   2.753
 1575SOL    HW3 6331   2.320   2.398   2.633
 1575SOL    MW4 6332   2.261   2.452   2.667
 1576SOL     OW 6333   2.221   2.716   2.586
 1576SOL    HW2 6334   2.299   2.742   2.635
 1576SOL    HW3 6335   2.211   2.622   2.605
 1576SOL    MW4 6336   2.230   2.707   2.595
 1577SOL     OW 6337   2.439   2.818   2.733
 1577SOL    HW2 6338   2.520   2.775   2.706
 1577SOL    HW3 6339   2.447   2.907   2.699
 1577SOL    MW4 6340   2.451   2.824   2.725
 1578SOL     OW 6341   2.453   3.069   2.617
 1578SOL    HW2 6342   2.375   3.113   2.653
 1578SOL    HW3 6343   2.442   3.077   2.522
 1578SOL    MW4 6344   2.441   3.076   2.609
 1579SOL     OW 6345   2.233   3.207   2.721
 1579SOL    HW2 6346   2.234   3.200   2.816
 1579SOL    HW3 6347   2.142   3.190   2.696
 1579SOL    MW4 6348   2.221   3.204   2.730
 1580SOL     OW 6349   2.189   3.481   2.623
 1580SOL    HW2 6350   2.267   3.534   2.641
 1580SOL    HW3 6351   2.209   3.396   2.661
 1580SOL    MW4 6352   2.202   3.477   2.630
 1581SOL     OW 6353   2.421   3.608   2.721
 1581SOL    HW2 6354   2.424   3.602   2.816
 1581SOL    HW3 6355   2.444   3.699   2.701
 1581SOL    MW4 6356   2.425   3.619   2.731
 1582SOL     OW 6357   2.473   3.849   2.614
 1582SOL    HW2 6358   2.545   3.892   2.660
 1582SOL    HW3 6359   2.397   3.903   2.635
 1582SOL    MW4 6360   2.473   3.862   2.623
 1583SOL     OW 6361   2.269   4.012   2.680
 1583SOL    HW2 6362   2.271   4.029   2.774
 1583SOL    HW3 6363   2.189   3.961   2.667
 1583SOL    MW4 6364   2.259   4.008   2.691
 1584SOL     OW 6365   2.279   4.288   2.626
 1584SOL    HW2 6366   2.263   4.197   2.650
 1584SOL    HW3 6367   2.198   4.333   2.650
 1584SOL    MW4 6368   2.266   4.282   2.633
 1585SOL     OW 6369   2.497   4.371   2.767
 1585SOL    HW2 6370   2.419   4.328   2.730
 1585SOL    HW3 6371   2.490   4.462   2.738
 1585SOL    MW4 6372   2.486   4.377   2.758
 1586SOL     OW 6373   2.961   4.632   2.684
 1586SOL    HW2 6374   3.037   4.688   2.699
 1586SOL    HW3 6375   2.950   4.633   2.588
 1586SOL    MW4 6376   2.969   4.639   2.673
 1587SOL     OW 6377   2.728   0.133   2.726
 1587SOL    HW2 6378   2.701   0.131   2.817
 1587SOL    HW3 6379   2.794   0.065   2.718
 1587SOL    MW4 6380   2.733   0.124   2.737
 1588SOL     OW 6381   2.683   0.349   2.566
 1588SOL    HW2 6382   2.707   0.268   2.611
 1588SOL    HW3 6383   2.615   0.387   2.621
 1588SOL    MW4 6384   2.677   0.343   2.579
 1589SOL     OW 6385   2.916   0.482   2.659
 1589SOL    HW2 6386   2.905   0.568   2.618
 1589SOL    HW3 6387   2.835   0.435   2.639
 1589SOL    MW4 6388   2.904   0.487   2.651
 1590SOL     OW 6389   2.903   0.751   2.584
 1590SOL    HW2 6390   2.974   0.801   2.625
 1590SOL    HW3 6391   2.823   0.790   2.620
 1590SOL    MW4 6392   2.901   0.763   2.594
 1591SOL     OW 6393   2.695   0.862   2.685
 1591SOL    HW2 6394   2.685   0.855   2.780
 1591SOL    HW3 6395   2.621   0.813   2.650
 1591SOL    MW4 6396   2.684   0.854   2.693
 1592SOL     OW 6397   2.686   1.132   2.633
 1592SOL    HW2 6398   2.767   1.162   2.674
 1592SOL    HW3 6399   2.688   1.037   2.642
 1592SOL    MW4 6400   2.697   1.123   2.640
 1593SOL     OW 6401   2.917   1.266   2.717
 1593SOL    HW2 6402   2.943   1.269   2.809
 1593SOL    HW3 6403   2.995   1.233   2.671
 1593SOL    MW4 6404   2.931   1.262   2.723
 1594SOL     OW 6405   2.920   1.526   2.609
 1594SOL    HW2 6406   2.848   1.576   2.648
 1594SOL    HW3 6407   2.911   1.439   2.648
 1594SOL    MW4 6408   2.909   1.521   2.619
 1595SOL     OW 6409   2.693   1.687   2.700
 1595SOL    HW2 6410   2.702   1.677   2.795
 1595SOL    HW3 6411   2.608   1.648   2.679
 1595SOL    MW4 6412   2.683   1.681   2.710
 1596SOL     OW 6413   2.689   1.953   2.586
 1596SOL    HW2 6414   2.681   1.869   2.631
 1596SOL    HW3 6415   2.614   2.004   2.617
 1596SOL    MW4 6416   2.678   1.949   2.596
 1597SOL     OW 6417   2.920   2.078   2.675
 1597SOL    HW2 6418   2.932   2.166   2.639
 1597SOL    HW3 6419   2.834   2.051   2.645
 1597SOL    MW4 6420   2.910   2.086   2.667
 1598SOL     OW 6421   2.946   2.347   2.603
 1598SOL    HW2 6422   3.020   2.369   2.660
 1598SOL    HW3 6423   2.870   2.382   2.648
 1598SOL    MW4 6424   2.946   2.354   2.617
 1599SOL     OW 6425   2.709   2.438   2.726
 1599SOL    HW2 6426   2.716   2.439   2.821
 1599SOL    HW3 6427   2.688   2.529   2.703
 1599SOL    MW4 6428   2.707   2.450   2.735
 1600SOL     OW 6429   2.676   2.712   2.625
 1600SOL    HW2 6430   2.767   2.735   2.648
 1600SOL    HW3 6431   2.670   2.731   2.532
 1600SOL    MW4 6432   2.687   2.718   2.616
 1601SOL     OW 6433   2.914   2.829   2.725
 1601SOL    HW2 6434   2.894   2.839   2.818
 1601SOL    HW3 6435   2.921   2.919   2.692
 1601SOL    MW4 6436   2.912   2.843   2.733
 1602SOL     OW 6437   2.908   3.093   2.606
 1602SOL    HW2 6438   2.825   3.129   2.639
 1602SOL    HW3 6439   2.896   3.090   2.511
 1602SOL    MW4 6440   2.895   3.097   2.597
 1603SOL     OW 6441   2.684   3.204   2.721
 1603SOL    HW2 6442   2.669   3.293   2.690
 1603SOL    HW3 6443   2.612   3.153   2.684
 1603SOL    MW4 6444   2.672   3.209   2.712
 1604SOL     OW 6445   2.626   3.458   2.636
 1604SOL    HW2 6446   2.557   3.517   2.667
 1604SOL    HW3 6447   2.631   3.475   2.542
 1604SOL    MW4 6448   2.618   3.468   2.628
 1605SOL     OW 6449   2.880   3.586   2.716
 1605SOL    HW2 6450   2.883   3.575   2.811
 1605SOL    HW3 6451   2.797   3.548   2.690
 1605SOL    MW4 6452   2.870   3.580   2.725
 1606SOL     OW 6453   2.922   3.861   2.630
 1606SOL    HW2 6454   3.001   3.897   2.671
 1606SOL    HW3 6455   2.914   3.773   2.666
 1606SOL    MW4 6456   2.932   3.854   2.640
 1607SOL     OW 6457   2.685   3.991   2.708
 1607SOL    HW2 6458   2.697   4.078   2.670
 1607SOL    HW3 6459   2.768   3.946   2.693
 1607SOL    MW4 6460   2.698   3.997   2.701
 1608SOL     OW 6461   2.711   4.286   2.611
 1608SOL    HW2 6462   2.783   4.323   2.662
 1608SOL    HW3 6463   2.632   4.309   2.660
 1608SOL    MW4 6464   2.710   4.294   2.625
 1609SOL     OW 6465   2.916   4.372   2.763
 1609SOL    HW2 6466   2.914   4.380   2.859
 1609SOL    HW3 6467   2.919   4.462   2.732
 1609SOL    MW4 6468   2.916   4.385   2.772
 1610SOL     OW 6469   3.388   4.637   2.633
 1610SOL    HW2 6470   3.387   4.547   2.665
 1610SOL    HW3 6471   3.333   4.685   2.695
 1610SOL    MW4 6472   3.380   4.631   2.645
 1611SOL     OW 6473   3.199   0.116   2.758
 1611SOL    HW2 6474   3.179   0.132   2.850
 1611SOL    HW3 6475   3.189   0.201   2.715
 1611SOL    MW4 6476   3.195   0.129   2.764
 1612SOL     OW 6477   3.173   0.352   2.612
 1612SOL    HW2 6478   3.096   0.386   2.657
 1612SOL    HW3 6479   3.153   0.361   2.519
 1612SOL    MW4 6480   3.160   0.358   2.605
 1613SOL     OW 6481   3.366   0.484   2.730
 1613SOL    HW2 6482   3.358   0.575   2.700
 1613SOL    HW3 6483   3.309   0.434   2.672
 1613SOL    MW4 6484   3.358   0.490   2.718
 1614SOL     OW 6485   3.337   0.741   2.625
 1614SOL    HW2 6486   3.420   0.773   2.661
 1614SOL    HW3 6487   3.347   0.751   2.531
 1614SOL    MW4 6488   3.350   0.746   2.618
 1615SOL     OW 6489   3.132   0.917   2.691
 1615SOL    HW2 6490   3.129   0.899   2.785
 1615SOL    HW3 6491   3.198   0.858   2.657
 1615SOL    MW4 6492   3.140   0.907   2.699
 1616SOL     OW 6493   3.157   1.172   2.586
 1616SOL    HW2 6494   3.137   1.083   2.613
 1616SOL    HW3 6495   3.152   1.170   2.490
 1616SOL    MW4 6496   3.154   1.160   2.577
 1617SOL     OW 6497   3.370   1.245   2.736
 1617SOL    HW2 6498   3.360   1.221   2.829
 1617SOL    HW3 6499   3.293   1.208   2.694
 1617SOL    MW4 6500   3.358   1.237   2.743
 1618SOL     OW 6501   3.363   1.492   2.598
 1618SOL    HW2 6502   3.286   1.533   2.636
 1618SOL    HW3 6503   3.363   1.403   2.634
 1618SOL    MW4 6504   3.353   1.486   2.608
 1619SOL     OW 6505   3.142   1.620   2.717
 1619SOL    HW2 6506   3.153   1.704   2.673
 1619SOL    HW3 6507   3.060   1.584   2.682
 1619SOL    MW4 6508   3.133   1.626   2.707
 1620SOL     OW 6509   3.114   1.897   2.630
 1620SOL    HW2 6510   3.198   1.939   2.649
 1620SOL    HW3 6511   3.048   1.964   2.651
 1620SOL    MW4 6512   3.116   1.911   2.635
 1621SOL     OW 6513   3.330   2.051   2.694
 1621SOL    HW2 6514   3.326   2.047   2.789
 1621SOL    HW3 6515   3.336   2.145   2.674
 1621SOL    MW4 6516   3.330   2.063   2.704
 1622SOL     OW 6517   3.356   2.325   2.624
 1622SOL    HW2 6518   3.433   2.377   2.650
 1622SOL    HW3 6519   3.348   2.340   2.530
 1622SOL    MW4 6520   3.365   2.334   2.615
 1623SOL     OW 6521   3.138   2.440   2.761
 1623SOL    HW2 6522   3.145   2.533   2.739
 1623SOL    HW3 6523   3.204   2.398   2.707
 1623SOL    MW4 6524   3.148   2.447   2.751
 1624SOL     OW 6525   3.173   2.698   2.647
 1624SOL    HW2 6526   3.245   2.744   2.690
 1624SOL    HW3 6527   3.096   2.752   2.663
 1624SOL    MW4 6528   3.173   2.711   2.654
 1625SOL     OW 6529   3.386   2.858   2.745
 1625SOL    HW2 6530   3.392   2.844   2.840
 1625SOL    HW3 6531   3.454   2.802   2.708
 1625SOL    MW4 6532   3.396   2.849   2.753
 1626SOL     OW 6533   3.348   3.101   2.615
 1626SOL    HW2 6534   3.354   3.020   2.666
 1626SOL    HW3 6535   3.363   3.072   2.524
 1626SOL    MW4 6536   3.351   3.086   2.610
 1627SOL     OW 6537   3.125   3.220   2.711
 1627SOL    HW2 6538   3.206   3.189   2.669
 1627SOL    HW3 6539   3.059   3.156   2.685
 1627SOL    MW4 6540   3.127   3.207   2.702
 1628SOL     OW 6541   3.118   3.496   2.638
 1628SOL    HW2 6542   3.123   3.401   2.645
 1628SOL    HW3 6543   3.028   3.518   2.665
 1628SOL    MW4 6544   3.107   3.487   2.642
 1629SOL     OW 6545   3.345   3.600   2.732
 1629SOL    HW2 6546   3.346   3.600   2.827
 1629SOL    HW3 6547   3.266   3.551   2.708
 1629SOL    MW4 6548   3.335   3.594   2.741
 1630SOL     OW 6549   3.345   3.855   2.638
 1630SOL    HW2 6550   3.337   3.769   2.679
 1630SOL    HW3 6551   3.356   3.835   2.545
 1630SOL    MW4 6552   3.346   3.841   2.631
 1631SOL     OW 6553   3.140   4.016   2.719
 1631SOL    HW2 6554   3.155   4.103   2.682
 1631SOL    HW3 6555   3.216   3.964   2.693
 1631SOL    MW4 6556   3.152   4.021   2.711
 1632SOL     OW 6557   3.152   4.290   2.633
 1632SOL    HW2 6558   3.070   4.314   2.675
 1632SOL    HW3 6559   3.128   4.262   2.545
 1632SOL    MW4 6560   3.138   4.290   2.627
 1633SOL     OW 6561   3.404   4.378   2.733
 1633SOL    HW2 6562   3.416   4.371   2.828
 1633SOL    HW3 6563   3.311   4.362   2.719
 1633SOL    MW4 6564   3.394   4.375   2.744
 1634SOL     OW 6565   3.806   4.627   2.618
 1634SOL    HW2 6566   3.823   4.537   2.644
 1634SOL    HW3 6567   3.734   4.655   2.674
 1634SOL    MW4 6568   3.799   4.619   2.629
 1635SOL     OW 6569   3.601   0.103   2.742
 1635SOL    HW2 6570   3.621   0.186   2.698
 1635SOL    HW3 6571   3.517   0.075   2.704
 1635SOL    MW4 6572   3.593   0.110   2.731
 1636SOL     OW 6573   3.612   0.355   2.632
 1636SOL    HW2 6574   3.688   0.409   2.653
 1636SOL    HW3 6575   3.538   0.401   2.672
 1636SOL    MW4 6576   3.612   0.368   2.640
 1637SOL     OW 6577   3.824   0.512   2.717
 1637SOL    HW2 6578   3.841   0.528   2.810
 1637SOL    HW3 6579   3.907   0.482   2.682
 1637SOL    MW4 6580   3.837   0.510   2.725
 1638SOL     OW 6581   3.814   0.768   2.607
 1638SOL    HW2 6582   3.722   0.776   2.632
 1638SOL    HW3 6583   3.843   0.686   2.648
 1638SOL    MW4 6584   3.806   0.758   2.616
 1639SOL     OW 6585   3.588   0.821   2.732
 1639SOL    HW2 6586   3.575   0.818   2.827
 1639SOL    HW3 6587   3.602   0.914   2.713
 1639SOL    MW4 6588   3.588   0.833   2.742
 1640SOL     OW 6589   3.582   1.098   2.635
 1640SOL    HW2 6590   3.651   1.144   2.684
 1640SOL    HW3 6591   3.503   1.148   2.653
 1640SOL    MW4 6592   3.581   1.111   2.644
 1641SOL     OW 6593   3.824   1.219   2.716
 1641SOL    HW2 6594   3.909   1.192   2.683
 1641SOL    HW3 6595   3.808   1.304   2.674
 1641SOL    MW4 6596   3.833   1.227   2.706
 1642SOL     OW 6597   3.778   1.509   2.624
 1642SOL    HW2 6598   3.854   1.561   2.651
 1642SOL    HW3 6599   3.705   1.545   2.675
 1642SOL    MW4 6600   3.778   1.521   2.634
 1643SOL     OW 6601   3.559   1.645   2.740
 1643SOL    HW2 6602   3.557   1.733   2.704
 1643SOL    HW3 6603   3.486   1.600   2.698
 1643SOL    MW4 6604   3.549   1.651   2.730
 1644SOL     OW 6605   3.544   1.893   2.637
 1644SOL    HW2 6606   3.467   1.951   2.639
 1644SOL    HW3 6607   3.567   1.888   2.544
 1644SOL    MW4 6608   3.537   1.900   2.625
 1645SOL     OW 6609   3.759   2.057   2.704
 1645SOL    HW2 6610   3.822   2.004   2.656
 1645SOL    HW3 6611   3.676   2.011   2.695
 1645SOL    MW4 6612   3.757   2.044   2.696
 1646SOL     OW 6613   3.829   2.335   2.632
 1646SOL    HW2 6614   3.809   2.244   2.655
 1646SOL    HW3 6615   3.838   2.334   2.537
 1646SOL    MW4 6616   3.828   2.323   2.623
 1647SOL     OW 6617   3.583   2.460   2.701
 1647SOL    HW2 6618   3.564   2.454   2.795
 1647SOL    HW3 6619   3.666   2.414   2.691
 1647SOL    MW4 6620   3.592   2.453   2.712
 1648SOL     OW 6621   3.584   2.718   2.610
 1648SOL    HW2 6622   3.598   2.625   2.627
 1648SOL    HW3 6623   3.602   2.729   2.517
 1648SOL    MW4 6624   3.588   2.707   2.600
 1649SOL     OW 6625   3.776   2.858   2.738
 1649SOL    HW2 6626   3.860   2.819   2.712
 1649SOL    HW3 6627   3.710   2.803   2.695
 1649SOL    MW4 6628   3.778   2.845   2.729
 1650SOL     OW 6629   3.788   3.122   2.638
 1650SOL    HW2 6630   3.716   3.180   2.661
 1650SOL    HW3 6631   3.767   3.039   2.681
 1650SOL    MW4 6632   3.776   3.118   2.647
 1651SOL     OW 6633   3.555   3.258   2.719
 1651SOL    HW2 6634   3.547   3.342   2.672
 1651SOL    HW3 6635   3.483   3.205   2.686
 1651SOL    MW4 6636   3.545   3.262   2.708
 1652SOL     OW 6637   3.570   3.495   2.598
 1652SOL    HW2 6638   3.649   3.536   2.633
 1652SOL    HW3 6639   3.498   3.547   2.632
 1652SOL    MW4 6640   3.571   3.507   2.607
 1653SOL     OW 6641   3.799   3.616   2.694
 1653SOL    HW2 6642   3.876   3.564   2.673
 1653SOL    HW3 6643   3.819   3.704   2.664
 1653SOL    MW4 6644   3.812   3.621   2.687
 1654SOL     OW 6645   3.812   3.874   2.580
 1654SOL    HW2 6646   3.883   3.923   2.621
 1654SOL    HW3 6647   3.734   3.899   2.630
 1654SOL    MW4 6648   3.811   3.884   2.592
 1655SOL     OW 6649   3.587   3.954   2.715
 1655SOL    HW2 6650   3.582   4.044   2.682
 1655SOL    HW3 6651   3.503   3.915   2.690
 1655SOL    MW4 6652   3.575   3.961   2.708
 1656SOL     OW 6653   3.611   4.215   2.631
 1656SOL    HW2 6654   3.536   4.272   2.649
 1656SOL    HW3 6655   3.620   4.216   2.536
 1656SOL    MW4 6656   3.602   4.223   2.621
 1657SOL     OW 6657   3.826   4.364   2.730
 1657SOL    HW2 6658   3.907   4.321   2.702
 1657SOL    HW3 6659   3.759   4.296   2.721
 1657SOL    MW4 6660   3.828   4.349   2.725
 1658SOL     OW 6661   4.279   4.637   2.650
 1658SOL    HW2 6662   4.214   4.687   2.698
 1658SOL    HW3 6663   4.360   4.688   2.659
 1658SOL    MW4 6664   4.281   4.650   2.657
 1659SOL     OW 6665   4.028   0.112   2.712
 1659SOL    HW2 6666   4.013   0.091   2.804
 1659SOL    HW3 6667   3.964   0.059   2.665
 1659SOL    MW4 6668   4.018   0.102   2.718
 1660SOL     OW 6669   4.049   0.388   2.616
 1660SOL    HW2 6670   4.035   0.301   2.654
 1660SOL    HW3 6671   4.049   0.373   2.522
 1660SOL    MW4 6672   4.047   0.374   2.609
 1661SOL     OW 6673   4.256   0.518   2.717
 1661SOL    HW2 6674   4.183   0.463   2.689
 1661SOL    HW3 6675   4.334   0.474   2.682
 1661SOL    MW4 6676   4.257   0.505   2.709
 1662SOL     OW 6677   4.250   0.755   2.600
 1662SOL    HW2 6678   4.240   0.668   2.640
 1662SOL    HW3 6679   4.244   0.739   2.506
 1662SOL    MW4 6680   4.248   0.741   2.593
 1663SOL     OW 6681   4.045   0.921   2.691
 1663SOL    HW2 6682   4.112   0.860   2.660
 1663SOL    HW3 6683   3.962   0.880   2.666
 1663SOL    MW4 6684   4.043   0.907   2.684
 1664SOL     OW 6685   4.060   1.184   2.580
 1664SOL    HW2 6686   4.135   1.229   2.620
 1664SOL    HW3 6687   4.065   1.095   2.614
 1664SOL    MW4 6688   4.070   1.179   2.590
 1665SOL     OW 6689   4.288   1.280   2.718
 1665SOL    HW2 6690   4.289   1.368   2.681
 1665SOL    HW3 6691   4.350   1.231   2.664
 1665SOL    MW4 6692   4.296   1.285   2.706
 1666SOL     OW 6693   4.262   1.530   2.613
 1666SOL    HW2 6694   4.337   1.579   2.650
 1666SOL    HW3 6695   4.279   1.529   2.519
 1666SOL    MW4 6696   4.274   1.536   2.606
 1667SOL     OW 6697   4.015   1.643   2.700
 1667SOL    HW2 6698   4.037   1.648   2.793
 1667SOL    HW3 6699   4.092   1.604   2.660
 1667SOL    MW4 6700   4.028   1.638   2.707
 1668SOL     OW 6701   3.963   1.898   2.583
 1668SOL    HW2 6702   4.041   1.947   2.611
 1668SOL    HW3 6703   3.966   1.817   2.635
 1668SOL    MW4 6704   3.974   1.893   2.594
 1669SOL     OW 6705   4.160   2.034   2.690
 1669SOL    HW2 6706   4.178   2.128   2.685
 1669SOL    HW3 6707   4.244   1.993   2.670
 1669SOL    MW4 6708   4.173   2.041   2.687
 1670SOL     OW 6709   4.259   2.307   2.645
 1670SOL    HW2 6710   4.187   2.365   2.671
 1670SOL    HW3 6711   4.266   2.319   2.550
 1670SOL    MW4 6712   4.250   2.317   2.635
 1671SOL     OW 6713   4.057   2.463   2.733
 1671SOL    HW2 6714   4.054   2.446   2.827
 1671SOL    HW3 6715   3.972   2.433   2.700
 1671SOL    MW4 6716   4.046   2.457   2.741
 1672SOL     OW 6717   4.041   2.739   2.665
 1672SOL    HW2 6718   4.099   2.804   2.703
 1672SOL    HW3 6719   4.062   2.658   2.712
 1672SOL    MW4 6720   4.052   2.737   2.676
 1673SOL     OW 6721   4.282   2.870   2.742
 1673SOL    HW2 6722   4.290   2.887   2.836
 1673SOL    HW3 6723   4.284   2.956   2.701
 1673SOL    MW4 6724   4.283   2.884   2.749
 1674SOL     OW 6725   4.287   3.121   2.585
 1674SOL    HW2 6726   4.198   3.133   2.617
 1674SOL    HW3 6727   4.276   3.098   2.493
 1674SOL    MW4 6728   4.274   3.120   2.577
 1675SOL     OW 6729   4.043   3.205   2.708
 1675SOL    HW2 6730   4.024   3.297   2.692
 1675SOL    HW3 6731   3.962   3.160   2.683
 1675SOL    MW4 6732   4.030   3.211   2.703
 1676SOL     OW 6733   4.025   3.461   2.601
 1676SOL    HW2 6734   4.100   3.512   2.630
 1676SOL    HW3 6735   4.035   3.455   2.506
 1676SOL    MW4 6736   4.036   3.467   2.592
 1677SOL     OW 6737   4.236   3.637   2.692
 1677SOL    HW2 6738   4.241   3.642   2.787
 1677SOL    HW3 6739   4.316   3.592   2.665
 1677SOL    MW4 6740   4.247   3.632   2.701
 1678SOL     OW 6741   4.232   3.883   2.581
 1678SOL    HW2 6742   4.227   3.794   2.615
 1678SOL    HW3 6743   4.313   3.919   2.619
 1678SOL    MW4 6744   4.242   3.876   2.591
 1679SOL     OW 6745   4.036   4.012   2.716
 1679SOL    HW2 6746   4.040   4.003   2.811
 1679SOL    HW3 6747   4.112   3.963   2.685
 1679SOL    MW4 6748   4.047   4.004   2.724
 1680SOL     OW 6749   4.050   4.272   2.622
 1680SOL    HW2 6750   4.057   4.181   2.651
 1680SOL    HW3 6751   4.063   4.268   2.528
 1680SOL    MW4 6752   4.053   4.259   2.614
 1681SOL     OW 6753   4.286   4.366   2.735
 1681SOL    HW2 6754   4.196   4.342   2.715
 1681SOL    HW3 6755   4.297   4.453   2.695
 1681SOL    MW4 6756   4.276   4.374   2.727
 1682SOL     OW 6757   0.177   4.614   3.088
 1682SOL    HW2 6758   0.161   4.630   3.182
 1682SOL    HW3 6759   0.102   4.654   3.044
 1682SOL    MW4 6760   0.165   4.622   3.095
 1683SOL     OW 6761   4.474   0.115   2.997
 1683SOL    HW2 6762   4.391   0.081   3.031
 1683SOL    HW3 6763   4.472   0.208   3.019
 1683SOL    MW4 6764   4.462   0.123   3.004
 1684SOL     OW 6765   0.012   0.389   3.071
 1684SOL    HW2 6766   0.001   0.393   3.166
 1684SOL    HW3 6767  -0.070   0.423   3.036
 1684SOL    MW4 6768   0.000   0.394   3.079
 1685SOL     OW 6769   0.244   0.494   2.967
 1685SOL    HW2 6770   0.321   0.452   3.006
 1685SOL    HW3 6771   0.170   0.459   3.017
 1685SOL    MW4 6772   0.244   0.484   2.979
 1686SOL     OW 6773   0.209   0.778   3.084
 1686SOL    HW2 6774   0.180   0.759   3.173
 1686SOL    HW3 6775   0.240   0.694   3.050
 1686SOL    MW4 6776   0.209   0.765   3.091
 1687SOL     OW 6777   4.475   0.897   2.992
 1687SOL    HW2 6778   4.553   0.851   3.024
 1687SOL    HW3 6779   4.476   0.882   2.898
 1687SOL    MW4 6780   4.485   0.889   2.984
 1688SOL     OW 6781   4.484   1.153   3.108
 1688SOL    HW2 6782   4.406   1.202   3.082
 1688SOL    HW3 6783   4.478   1.070   3.061
 1688SOL    MW4 6784   4.473   1.149   3.098
 1689SOL     OW 6785   0.207   1.307   2.981
 1689SOL    HW2 6786   0.134   1.257   3.018
 1689SOL    HW3 6787   0.200   1.293   2.887
 1689SOL    MW4 6788   0.196   1.298   2.973
 1690SOL     OW 6789   0.212   1.554   3.139
 1690SOL    HW2 6790   0.142   1.610   3.103
 1690SOL    HW3 6791   0.199   1.470   3.097
 1690SOL    MW4 6792   0.201   1.551   3.129
 1691SOL     OW 6793   0.006   1.686   3.020
 1691SOL    HW2 6794  -0.069   1.647   3.066
 1691SOL    HW3 6795   0.002   1.779   3.042
 1691SOL    MW4 6796  -0.005   1.693   3.029
 1692SOL     OW 6797   4.490   1.942   3.108
 1692SOL    HW2 6798   4.414   1.972   3.059
 1692SOL    HW3 6799   4.564   1.990   3.071
 1692SOL    MW4 6800   4.490   1.952   3.097
 1693SOL     OW 6801   0.225   2.049   2.997
 1693SOL    HW2 6802   0.238   2.142   3.016
 1693SOL    HW3 6803   0.207   2.046   2.903
 1693SOL    MW4 6804   0.224   2.061   2.987
 1694SOL     OW 6805   0.249   2.318   3.126
 1694SOL    HW2 6806   0.242   2.330   3.220
 1694SOL    HW3 6807   0.322   2.374   3.099
 1694SOL    MW4 6808   0.258   2.327   3.135
 1695SOL     OW 6809   0.007   2.407   3.026
 1695SOL    HW2 6810  -0.004   2.497   3.057
 1695SOL    HW3 6811   0.091   2.380   3.064
 1695SOL    MW4 6812   0.017   2.416   3.035
 1696SOL     OW 6813   4.481   2.684   3.093
 1696SOL    HW2 6814   4.483   2.698   3.188
 1696SOL    HW3 6815   4.549   2.743   3.059
 1696SOL    MW4 6816   4.490   2.694   3.101
 1697SOL     OW 6817   0.208   2.828   3.019
 1697SOL    HW2 6818   0.277   2.777   3.062
 1697SOL    HW3 6819   0.218   2.809   2.926
 1697SOL    MW4 6820   0.218   2.819   3.012
 1698SOL     OW 6821   0.221   3.086   3.121
 1698SOL    HW2 6822   0.152   3.138   3.081
 1698SOL    HW3 6823   0.209   2.998   3.085
 1698SOL    MW4 6824   0.211   3.081   3.111
 1699SOL     OW 6825   0.035   3.227   2.976
 1699SOL    HW2 6826  -0.047   3.181   2.996
 1699SOL    HW3 6827   0.040   3.225   2.880
 1699SOL    MW4 6828   0.025   3.221   2.966
 1700SOL     OW 6829   0.023   3.504   3.049
 1700SOL    HW2 6830  -0.057   3.542   3.012
 1700SOL    HW3 6831   0.017   3.411   3.028
 1700SOL    MW4 6832   0.012   3.497   3.041
 1701SOL     OW 6833   0.258   3.615   2.977
 1701SOL    HW2 6834   0.255   3.707   3.004
 1701SOL    HW3 6835   0.173   3.580   3.001
 1701SOL    MW4 6836   0.247   3.622   2.984
 1702SOL     OW 6837   0.236   3.885   3.043
 1702SOL    HW2 6838   0.224   3.886   3.137
 1702SOL    HW3 6839   0.320   3.930   3.029
 1702SOL    MW4 6840   0.246   3.891   3.053
 1703SOL     OW 6841   0.001   4.011   3.005
 1703SOL    HW2 6842   0.087   3.973   3.022
 1703SOL    HW3 6843  -0.006   4.012   2.909
 1703SOL    MW4 6844   0.011   4.006   2.994
 1704SOL     OW 6845   4.487   4.280   3.097
 1704SOL    HW2 6846   4.491   4.302   3.190
 1704SOL    HW3 6847   4.502   4.185   3.094
 1704SOL    MW4 6848   4.489   4.270   3.108
 1705SOL     OW 6849   0.191   4.372   2.944
 1705SOL    HW2 6850   0.118   4.325   2.984
 1705SOL    HW3 6851   0.191   4.458   2.986
 1705SOL    MW4 6852   0.182   4.377   2.955
 1706SOL     OW 6853   0.698   0.030   3.077
 1706SOL    HW2 6854   0.694  -0.062   3.048
 1706SOL    HW3 6855   0.608   0.060   3.074
 1706SOL    MW4 6856   0.686   0.022   3.073
 1707SOL     OW 6857   0.407   0.096   3.019
 1707SOL    HW2 6858   0.414   0.186   3.049
 1707SOL    HW3 6859   0.319   0.068   3.047
 1707SOL    MW4 6860   0.396   0.104   3.026
 1708SOL     OW 6861   0.447   0.361   3.097
 1708SOL    HW2 6862   0.450   0.395   3.187
 1708SOL    HW3 6863   0.523   0.401   3.055
 1708SOL    MW4 6864   0.458   0.371   3.104
 1709SOL     OW 6865   0.670   0.483   2.993
 1709SOL    HW2 6866   0.741   0.449   3.047
 1709SOL    HW3 6867   0.655   0.572   3.026
 1709SOL    MW4 6868   0.677   0.490   3.005
 1710SOL     OW 6869   0.643   0.750   3.074
 1710SOL    HW2 6870   0.652   0.761   3.169
 1710SOL    HW3 6871   0.570   0.807   3.050
 1710SOL    MW4 6872   0.634   0.759   3.083
 1711SOL     OW 6873   0.433   0.935   3.013
 1711SOL    HW2 6874   0.354   0.896   3.051
 1711SOL    HW3 6875   0.427   0.915   2.920
 1711SOL    MW4 6876   0.421   0.927   3.006
 1712SOL     OW 6877   0.438   1.210   3.095
 1712SOL    HW2 6878   0.433   1.119   3.068
 1712SOL    HW3 6879   0.372   1.255   3.041
 1712SOL    MW4 6880   0.428   1.204   3.084
 1713SOL     OW 6881   0.693   1.273   3.001
 1713SOL    HW2 6882   0.759   1.210   3.031
 1713SOL    HW3 6883   0.609   1.236   3.030
 1713SOL    MW4 6884   0.690   1.260   3.009
 1714SOL     OW 6885   0.678   1.520   3.130
 1714SOL    HW2 6886   0.659   1.510   3.223
 1714SOL    HW3 6887   0.679   1.430   3.096
 1714SOL    MW4 6888   0.675   1.507   3.138
 1715SOL     OW 6889   0.443   1.660   3.023
 1715SOL    HW2 6890   0.521   1.624   3.065
 1715SOL    HW3 6891   0.370   1.612   3.062
 1715SOL    MW4 6892   0.444   1.648   3.034
 1716SOL     OW 6893   0.448   1.911   3.120
 1716SOL    HW2 6894   0.442   1.817   3.103
 1716SOL    HW3 6895   0.362   1.946   3.095
 1716SOL    MW4 6896   0.436   1.903   3.115
 1717SOL     OW 6897   0.673   2.047   3.042
 1717SOL    HW2 6898   0.750   1.990   3.051
 1717SOL    HW3 6899   0.600   1.994   3.074
 1717SOL    MW4 6900   0.674   2.032   3.047
 1718SOL     OW 6901   0.692   2.329   3.112
 1718SOL    HW2 6902   0.673   2.329   3.206
 1718SOL    HW3 6903   0.706   2.237   3.090
 1718SOL    MW4 6904   0.691   2.317   3.122
 1719SOL     OW 6905   0.469   2.432   3.009
 1719SOL    HW2 6906   0.544   2.393   3.053
 1719SOL    HW3 6907   0.479   2.408   2.917
 1719SOL    MW4 6908   0.480   2.424   3.003
 1720SOL     OW 6909   0.418   2.691   3.122
 1720SOL    HW2 6910   0.501   2.735   3.102
 1720SOL    HW3 6911   0.429   2.602   3.088
 1720SOL    MW4 6912   0.430   2.685   3.115
 1721SOL     OW 6913   0.661   2.813   3.036
 1721SOL    HW2 6914   0.745   2.790   3.075
 1721SOL    HW3 6915   0.658   2.908   3.038
 1721SOL    MW4 6916   0.672   2.822   3.041
 1722SOL     OW 6917   0.684   3.087   3.071
 1722SOL    HW2 6918   0.693   3.094   3.166
 1722SOL    HW3 6919   0.599   3.126   3.052
 1722SOL    MW4 6920   0.674   3.093   3.081
 1723SOL     OW 6921   0.450   3.206   3.010
 1723SOL    HW2 6922   0.452   3.294   3.049
 1723SOL    HW3 6923   0.375   3.164   3.052
 1723SOL    MW4 6924   0.440   3.212   3.021
 1724SOL     OW 6925   0.477   3.468   3.102
 1724SOL    HW2 6926   0.482   3.502   3.192
 1724SOL    HW3 6927   0.401   3.512   3.065
 1724SOL    MW4 6928   0.468   3.479   3.109
 1725SOL     OW 6929   0.715   3.607   2.990
 1725SOL    HW2 6930   0.788   3.559   3.028
 1725SOL    HW3 6931   0.638   3.575   3.038
 1725SOL    MW4 6932   0.714   3.596   3.001
 1726SOL     OW 6933   0.664   3.864   3.055
 1726SOL    HW2 6934   0.643   3.861   3.148
 1726SOL    HW3 6935   0.672   3.772   3.030
 1726SOL    MW4 6936   0.662   3.851   3.064
 1727SOL     OW 6937   0.456   4.033   2.988
 1727SOL    HW2 6938   0.537   3.988   3.012
 1727SOL    HW3 6939   0.453   4.028   2.892
 1727SOL    MW4 6940   0.466   4.027   2.978
 1728SOL     OW 6941   0.441   4.300   3.071
 1728SOL    HW2 6942   0.453   4.208   3.048
 1728SOL    HW3 6943   0.354   4.322   3.037
 1728SOL    MW4 6944   0.431   4.291   3.063
 1729SOL     OW 6945   0.651   4.447   2.988
 1729SOL    HW2 6946   0.568   4.409   3.016
 1729SOL    HW3 6947   0.650   4.440   2.893
 1729SOL    MW4 6948   0.640   4.441   2.979
 1730SOL     OW 6949   1.114   0.011   3.115
 1730SOL    HW2 6950   1.194   0.047   3.077
 1730SOL    HW3 6951   1.043   0.055   3.067
 1730SOL    MW4 6952   1.115   0.021   3.104
 1731SOL     OW 6953   0.929   0.153   2.950
 1731SOL    HW2 6954   0.933   0.237   2.995
 1731SOL    HW3 6955   0.861   0.104   2.997
 1731SOL    MW4 6956   0.921   0.157   2.962
 1732SOL     OW 6957   0.905   0.384   3.124
 1732SOL    HW2 6958   0.920   0.380   3.219
 1732SOL    HW3 6959   0.984   0.424   3.088
 1732SOL    MW4 6960   0.917   0.389   3.132
 1733SOL     OW 6961   1.130   0.473   3.017
 1733SOL    HW2 6962   1.210   0.428   3.044
 1733SOL    HW3 6963   1.134   0.474   2.921
 1733SOL    MW4 6964   1.141   0.467   3.008
 1734SOL     OW 6965   1.113   0.754   3.114
 1734SOL    HW2 6966   1.108   0.760   3.210
 1734SOL    HW3 6967   1.101   0.661   3.096
 1734SOL    MW4 6968   1.111   0.743   3.125
 1735SOL     OW 6969   0.909   0.833   2.971
 1735SOL    HW2 6970   0.983   0.805   3.024
 1735SOL    HW3 6971   0.832   0.806   3.020
 1735SOL    MW4 6972   0.909   0.826   2.985
 1736SOL     OW 6973   0.902   1.081   3.098
 1736SOL    HW2 6974   0.969   1.143   3.070
 1736SOL    HW3 6975   0.921   1.001   3.049
 1736SOL    MW4 6976   0.914   1.079   3.088
 1737SOL     OW 6977   1.080   1.253   2.961
 1737SOL    HW2 6978   1.162   1.212   2.986
 1737SOL    HW3 6979   1.068   1.229   2.869
 1737SOL    MW4 6980   1.089   1.245   2.952
 1738SOL     OW 6981   1.121   1.520   3.079
 1738SOL    HW2 6982   1.204   1.568   3.076
 1738SOL    HW3 6983   1.143   1.431   3.051
 1738SOL    MW4 6984   1.135   1.514   3.075
 1739SOL     OW 6985   0.891   1.642   2.985
 1739SOL    HW2 6986   0.972   1.601   3.016
 1739SOL    HW3 6987   0.822   1.602   3.038
 1739SOL    MW4 6988   0.893   1.631   2.997
 1740SOL     OW 6989   0.905   1.910   3.065
 1740SOL    HW2 6990   0.924   1.909   3.158
 1740SOL    HW3 6991   0.909   1.818   3.039
 1740SOL    MW4 6992   0.908   1.897   3.074
 1741SOL     OW 6993   1.093   2.096   2.996
 1741SOL    HW2 6994   1.032   2.027   3.021
 1741SOL    HW3 6995   1.104   2.086   2.902
 1741SOL    MW4 6996   1.087   2.085   2.987
 1742SOL     OW 6997   1.112   2.352   3.080
 1742SOL    HW2 6998   1.042   2.401   3.037
 1742SOL    HW3 6999   1.091   2.260   3.062
 1742SOL    MW4 7000   1.100   2.346   3.072
 1743SOL     OW 7001   0.899   2.458   2.960
 1743SOL    HW2 7002   0.839   2.400   3.006
 1743SOL    HW3 7003   0.888   2.435   2.868
 1743SOL    MW4 7004   0.890   2.448   2.954
 1744SOL     OW 7005   0.900   2.705   3.107
 1744SOL    HW2 7006   0.912   2.683   3.200
 1744SOL    HW3 7007   0.904   2.620   3.062
 1744SOL    MW4 7008   0.902   2.691   3.114
 1745SOL     OW 7009   1.116   2.831   2.974
 1745SOL    HW2 7010   1.123   2.918   3.013
 1745SOL    HW3 7011   1.044   2.789   3.021
 1745SOL    MW4 7012   1.108   2.837   2.986
 1746SOL     OW 7013   1.144   3.093   3.059
 1746SOL    HW2 7014   1.219   3.147   3.033
 1746SOL    HW3 7015   1.068   3.148   3.040
 1746SOL    MW4 7016   1.144   3.107   3.053
 1747SOL     OW 7017   0.926   3.231   3.001
 1747SOL    HW2 7018   0.846   3.189   3.033
 1747SOL    HW3 7019   0.917   3.228   2.905
 1747SOL    MW4 7020   0.914   3.225   2.992
 1748SOL     OW 7021   0.932   3.493   3.106
 1748SOL    HW2 7022   1.004   3.540   3.065
 1748SOL    HW3 7023   0.943   3.402   3.078
 1748SOL    MW4 7024   0.943   3.487   3.097
 1749SOL     OW 7025   1.125   3.651   2.995
 1749SOL    HW2 7026   1.198   3.619   3.048
 1749SOL    HW3 7027   1.108   3.739   3.029
 1749SOL    MW4 7028   1.132   3.658   3.006
 1750SOL     OW 7029   1.112   3.907   3.093
 1750SOL    HW2 7030   1.097   3.916   3.187
 1750SOL    HW3 7031   1.034   3.943   3.052
 1750SOL    MW4 7032   1.100   3.913   3.100
 1751SOL     OW 7033   0.877   4.023   3.007
 1751SOL    HW2 7034   0.807   3.960   3.023
 1751SOL    HW3 7035   0.894   4.017   2.913
 1751SOL    MW4 7036   0.870   4.014   2.997
 1752SOL     OW 7037   0.866   4.304   3.040
 1752SOL    HW2 7038   0.842   4.215   3.016
 1752SOL    HW3 7039   0.791   4.357   3.012
 1752SOL    MW4 7040   0.853   4.299   3.033
 1753SOL     OW 7041   1.123   4.427   2.978
 1753SOL    HW2 7042   1.042   4.380   2.997
 1753SOL    HW3 7043   1.112   4.512   3.021
 1753SOL    MW4 7044   1.111   4.432   2.986
 1754SOL     OW 7045   1.552   4.656   3.032
 1754SOL    HW2 7046   1.570   4.633   3.123
 1754SOL    HW3 7047   1.475   4.712   3.037
 1754SOL    MW4 7048   1.544   4.660   3.045
 1755SOL     OW 7049   1.326   0.121   2.973
 1755SOL    HW2 7050   1.350   0.214   2.982
 1755SOL    HW3 7051   1.315   0.109   2.879
 1755SOL    MW4 7052   1.327   0.132   2.962
 1756SOL     OW 7053   1.379   0.366   3.080
 1756SOL    HW2 7054   1.402   0.380   3.171
 1756SOL    HW3 7055   1.436   0.427   3.032
 1756SOL    MW4 7056   1.390   0.376   3.085
 1757SOL     OW 7057   1.593   0.521   3.010
 1757SOL    HW2 7058   1.574   0.607   3.047
 1757SOL    HW3 7059   1.592   0.535   2.915
 1757SOL    MW4 7060   1.591   0.534   3.002
 1758SOL     OW 7061   1.574   0.778   3.093
 1758SOL    HW2 7062   1.552   0.767   3.186
 1758SOL    HW3 7063   1.494   0.811   3.053
 1758SOL    MW4 7064   1.561   0.781   3.100
 1759SOL     OW 7065   1.320   0.880   2.987
 1759SOL    HW2 7066   1.318   0.974   3.007
 1759SOL    HW3 7067   1.250   0.843   3.040
 1759SOL    MW4 7068   1.310   0.888   2.997
 1760SOL     OW 7069   1.330   1.148   3.046
 1760SOL    HW2 7070   1.342   1.135   3.140
 1760SOL    HW3 7071   1.403   1.204   3.020
 1760SOL    MW4 7072   1.341   1.154   3.055
 1761SOL     OW 7073   1.560   1.302   2.968
 1761SOL    HW2 7074   1.636   1.251   2.997
 1761SOL    HW3 7075   1.578   1.391   2.999
 1761SOL    MW4 7076   1.572   1.307   2.976
 1762SOL     OW 7077   1.594   1.556   3.064
 1762SOL    HW2 7078   1.659   1.624   3.046
 1762SOL    HW3 7079   1.510   1.599   3.049
 1762SOL    MW4 7080   1.591   1.571   3.059
 1763SOL     OW 7081   1.351   1.693   3.029
 1763SOL    HW2 7082   1.368   1.787   3.030
 1763SOL    HW3 7083   1.328   1.674   2.938
 1763SOL    MW4 7084   1.350   1.703   3.017
 1764SOL     OW 7085   1.332   1.962   3.048
 1764SOL    HW2 7086   1.331   1.952   3.144
 1764SOL    HW3 7087   1.248   2.004   3.028
 1764SOL    MW4 7088   1.321   1.966   3.058
 1765SOL     OW 7089   1.553   2.087   2.937
 1765SOL    HW2 7090   1.472   2.052   2.973
 1765SOL    HW3 7091   1.549   2.067   2.844
 1765SOL    MW4 7092   1.542   2.080   2.930
 1766SOL     OW 7093   1.575   2.338   3.088
 1766SOL    HW2 7094   1.499   2.385   3.055
 1766SOL    HW3 7095   1.578   2.257   3.037
 1766SOL    MW4 7096   1.565   2.333   3.077
 1767SOL     OW 7097   1.350   2.470   2.986
 1767SOL    HW2 7098   1.269   2.428   3.012
 1767SOL    HW3 7099   1.353   2.461   2.891
 1767SOL    MW4 7100   1.340   2.463   2.977
 1768SOL     OW 7101   1.353   2.734   3.073
 1768SOL    HW2 7102   1.362   2.641   3.052
 1768SOL    HW3 7103   1.268   2.759   3.037
 1768SOL    MW4 7104   1.343   2.725   3.065
 1769SOL     OW 7105   1.577   2.884   2.997
 1769SOL    HW2 7106   1.644   2.828   3.037
 1769SOL    HW3 7107   1.494   2.846   3.024
 1769SOL    MW4 7108   1.575   2.872   3.006
 1770SOL     OW 7109   1.585   3.167   3.111
 1770SOL    HW2 7110   1.574   3.163   3.206
 1770SOL    HW3 7111   1.563   3.079   3.080
 1770SOL    MW4 7112   1.581   3.155   3.119
 1771SOL     OW 7113   1.339   3.270   3.010
 1771SOL    HW2 7114   1.427   3.240   3.035
 1771SOL    HW3 7115   1.341   3.270   2.914
 1771SOL    MW4 7116   1.351   3.266   3.000
 1772SOL     OW 7117   1.343   3.519   3.127
 1772SOL    HW2 7118   1.344   3.517   3.222
 1772SOL    HW3 7119   1.341   3.427   3.100
 1772SOL    MW4 7120   1.343   3.507   3.136
 1773SOL     OW 7121   1.578   3.612   3.034
 1773SOL    HW2 7122   1.498   3.571   3.066
 1773SOL    HW3 7123   1.567   3.615   2.939
 1773SOL    MW4 7124   1.566   3.607   3.026
 1774SOL     OW 7125   1.528   3.870   3.089
 1774SOL    HW2 7126   1.615   3.909   3.081
 1774SOL    HW3 7127   1.541   3.778   3.069
 1774SOL    MW4 7128   1.541   3.863   3.085
 1775SOL     OW 7129   1.333   4.025   2.950
 1775SOL    HW2 7130   1.415   3.996   2.989
 1775SOL    HW3 7131   1.265   3.986   3.004
 1775SOL    MW4 7132   1.335   4.016   2.962
 1776SOL     OW 7133   1.329   4.277   3.093
 1776SOL    HW2 7134   1.337   4.194   3.046
 1776SOL    HW3 7135   1.258   4.323   3.047
 1776SOL    MW4 7136   1.321   4.272   3.080
 1777SOL     OW 7137   1.553   4.374   2.974
 1777SOL    HW2 7138   1.487   4.339   3.034
 1777SOL    HW3 7139   1.533   4.468   2.968
 1777SOL    MW4 7140   1.541   4.382   2.981
 1778SOL     OW 7141   2.005   4.662   3.104
 1778SOL    HW2 7142   1.990   4.654   3.198
 1778SOL    HW3 7143   1.933   4.719   3.073
 1778SOL    MW4 7144   1.993   4.669   3.112
 1779SOL     OW 7145   1.772   0.140   2.994
 1779SOL    HW2 7146   1.691   0.096   3.021
 1779SOL    HW3 7147   1.772   0.132   2.898
 1779SOL    MW4 7148   1.761   0.133   2.985
 1780SOL     OW 7149   1.801   0.382   3.118
 1780SOL    HW2 7150   1.796   0.299   3.071
 1780SOL    HW3 7151   1.728   0.434   3.084
 1780SOL    MW4 7152   1.791   0.378   3.107
 1781SOL     OW 7153   2.041   0.474   2.997
 1781SOL    HW2 7154   1.967   0.432   3.041
 1781SOL    HW3 7155   2.010   0.489   2.907
 1781SOL    MW4 7156   2.027   0.470   2.991
 1782SOL     OW 7157   2.031   0.736   3.091
 1782SOL    HW2 7158   1.946   0.763   3.057
 1782SOL    HW3 7159   2.040   0.644   3.065
 1782SOL    MW4 7160   2.021   0.728   3.083
 1783SOL     OW 7161   1.781   0.913   2.998
 1783SOL    HW2 7162   1.711   0.855   3.029
 1783SOL    HW3 7163   1.777   0.907   2.903
 1783SOL    MW4 7164   1.772   0.905   2.990
 1784SOL     OW 7165   1.765   1.174   3.079
 1784SOL    HW2 7166   1.763   1.168   3.175
 1784SOL    HW3 7167   1.785   1.085   3.050
 1784SOL    MW4 7168   1.768   1.161   3.088
 1785SOL     OW 7169   2.035   1.299   3.002
 1785SOL    HW2 7170   2.115   1.251   3.025
 1785SOL    HW3 7171   1.964   1.238   3.025
 1785SOL    MW4 7172   2.036   1.284   3.008
 1786SOL     OW 7173   2.012   1.579   3.082
 1786SOL    HW2 7174   2.019   1.575   3.178
 1786SOL    HW3 7175   2.000   1.488   3.056
 1786SOL    MW4 7176   2.012   1.566   3.091
 1787SOL     OW 7177   1.792   1.724   3.016
 1787SOL    HW2 7178   1.801   1.811   3.055
 1787SOL    HW3 7179   1.860   1.672   3.057
 1787SOL    MW4 7180   1.802   1.729   3.026
 1788SOL     OW 7181   1.776   1.999   3.099
 1788SOL    HW2 7182   1.855   2.040   3.063
 1788SOL    HW3 7183   1.705   2.033   3.044
 1788SOL    MW4 7184   1.777   2.009   3.087
 1789SOL     OW 7185   2.021   2.098   2.997
 1789SOL    HW2 7186   2.091   2.053   3.044
 1789SOL    HW3 7187   2.034   2.190   3.017
 1789SOL    MW4 7188   2.032   2.104   3.006
 1790SOL     OW 7189   2.020   2.382   3.087
 1790SOL    HW2 7190   2.094   2.414   3.036
 1790SOL    HW3 7191   1.944   2.426   3.050
 1790SOL    MW4 7192   2.020   2.392   3.075
 1791SOL     OW 7193   1.789   2.486   2.966
 1791SOL    HW2 7194   1.780   2.565   3.019
 1791SOL    HW3 7195   1.725   2.425   3.002
 1791SOL    MW4 7196   1.780   2.488   2.978
 1792SOL     OW 7197   1.789   2.721   3.116
 1792SOL    HW2 7198   1.794   2.723   3.212
 1792SOL    HW3 7199   1.866   2.771   3.088
 1792SOL    MW4 7200   1.800   2.728   3.125
 1793SOL     OW 7201   2.009   2.834   2.996
 1793SOL    HW2 7202   2.010   2.924   3.028
 1793SOL    HW3 7203   2.015   2.842   2.901
 1793SOL    MW4 7204   2.010   2.847   2.987
 1794SOL     OW 7205   1.985   3.087   3.087
 1794SOL    HW2 7206   1.963   3.089   3.180
 1794SOL    HW3 7207   1.912   3.131   3.044
 1794SOL    MW4 7208   1.973   3.093   3.094
 1795SOL     OW 7209   1.791   3.274   2.988
 1795SOL    HW2 7210   1.711   3.247   3.032
 1795SOL    HW3 7211   1.769   3.274   2.895
 1795SOL    MW4 7212   1.778   3.270   2.981
 1796SOL     OW 7213   1.797   3.487   3.151
 1796SOL    HW2 7214   1.806   3.417   3.086
 1796SOL    HW3 7215   1.710   3.524   3.134
 1796SOL    MW4 7216   1.787   3.482   3.140
 1797SOL     OW 7217   2.015   3.624   3.026
 1797SOL    HW2 7218   2.033   3.715   3.050
 1797SOL    HW3 7219   1.940   3.599   3.080
 1797SOL    MW4 7220   2.008   3.632   3.036
 1798SOL     OW 7221   2.049   3.903   3.072
 1798SOL    HW2 7222   2.060   3.910   3.166
 1798SOL    HW3 7223   1.956   3.921   3.057
 1798SOL    MW4 7224   2.038   3.906   3.082
 1799SOL     OW 7225   1.801   4.006   3.041
 1799SOL    HW2 7226   1.812   4.100   3.061
 1799SOL    HW3 7227   1.790   4.003   2.946
 1799SOL    MW4 7228   1.801   4.018   3.031
 1800SOL     OW 7229   1.803   4.275   3.108
 1800SOL    HW2 7230   1.888   4.304   3.073
 1800SOL    HW3 7231   1.739   4.331   3.065
 1800SOL    MW4 7232   1.806   4.286   3.097
 1801SOL     OW 7233   2.038   4.391   2.999
 1801SOL    HW2 7234   2.044   4.485   3.019
 1801SOL    HW3 7235   2.040   4.388   2.903
 1801SOL    MW4 7236   2.039   4.403   2.989
 1802SOL     OW 7237   2.481   4.645   3.119
 1802SOL    HW2 7238   2.519   4.561   3.094
 1802SOL    HW3 7239   2.402   4.653   3.065
 1802SOL    MW4 7240   2.475   4.635   3.109
 1803SOL     OW 7241   2.249   0.057   3.002
 1803SOL    HW2 7242   2.257   0.151   3.015
 1803SOL    HW3 7243   2.167   0.033   3.046
 1803SOL    MW4 7244   2.239   0.066   3.009
 1804SOL     OW 7245   2.278   0.341   3.060
 1804SOL    HW2 7246   2.268   0.358   3.154
 1804SOL    HW3 7247   2.209   0.393   3.019
 1804SOL    MW4 7248   2.267   0.350   3.067
 1805SOL     OW 7249   2.479   0.506   2.973
 1805SOL    HW2 7250   2.424   0.436   3.008
 1805SOL    HW3 7251   2.486   0.486   2.880
 1805SOL    MW4 7252   2.473   0.494   2.965
 1806SOL     OW 7253   2.455   0.766   3.105
 1806SOL    HW2 7254   2.525   0.810   3.057
 1806SOL    HW3 7255   2.463   0.674   3.082
 1806SOL    MW4 7256   2.465   0.760   3.096
 1807SOL     OW 7257   2.251   0.898   3.003
 1807SOL    HW2 7258   2.325   0.853   3.043
 1807SOL    HW3 7259   2.176   0.842   3.022
 1807SOL    MW4 7260   2.251   0.885   3.011
 1808SOL     OW 7261   2.255   1.159   3.102
 1808SOL    HW2 7262   2.242   1.167   3.196
 1808SOL    HW3 7263   2.269   1.065   3.088
 1808SOL    MW4 7264   2.255   1.148   3.112
 1809SOL     OW 7265   2.482   1.305   3.035
 1809SOL    HW2 7266   2.404   1.255   3.059
 1809SOL    HW3 7267   2.469   1.327   2.943
 1809SOL    MW4 7268   2.470   1.302   3.026
 1810SOL     OW 7269   2.467   1.562   3.158
 1810SOL    HW2 7270   2.392   1.605   3.118
 1810SOL    HW3 7271   2.461   1.471   3.128
 1810SOL    MW4 7272   2.456   1.555   3.149
 1811SOL     OW 7273   2.254   1.679   3.022
 1811SOL    HW2 7274   2.171   1.632   3.031
 1811SOL    HW3 7275   2.267   1.688   2.927
 1811SOL    MW4 7276   2.245   1.674   3.010
 1812SOL     OW 7277   2.232   1.946   3.077
 1812SOL    HW2 7278   2.305   1.997   3.044
 1812SOL    HW3 7279   2.255   1.855   3.057
 1812SOL    MW4 7280   2.245   1.941   3.070
 1813SOL     OW 7281   2.483   2.061   2.985
 1813SOL    HW2 7282   2.560   2.009   3.009
 1813SOL    HW3 7283   2.482   2.061   2.889
 1813SOL    MW4 7284   2.493   2.054   2.975
 1814SOL     OW 7285   2.478   2.304   3.091
 1814SOL    HW2 7286   2.465   2.294   3.186
 1814SOL    HW3 7287   2.477   2.215   3.057
 1814SOL    MW4 7288   2.476   2.291   3.099
 1815SOL     OW 7289   2.285   2.467   2.928
 1815SOL    HW2 7290   2.269   2.547   2.978
 1815SOL    HW3 7291   2.339   2.413   2.985
 1815SOL    MW4 7292   2.290   2.470   2.942
 1816SOL     OW 7293   2.214   2.670   3.075
 1816SOL    HW2 7294   2.282   2.737   3.066
 1816SOL    HW3 7295   2.131   2.719   3.068
 1816SOL    MW4 7296   2.212   2.686   3.073
 1817SOL     OW 7297   2.449   2.823   3.015
 1817SOL    HW2 7298   2.445   2.914   3.047
 1817SOL    HW3 7299   2.455   2.832   2.920
 1817SOL    MW4 7300   2.449   2.836   3.006
 1818SOL     OW 7301   2.451   3.090   3.090
 1818SOL    HW2 7302   2.532   3.129   3.056
 1818SOL    HW3 7303   2.381   3.140   3.049
 1818SOL    MW4 7304   2.453   3.102   3.080
 1819SOL     OW 7305   2.211   3.213   3.017
 1819SOL    HW2 7306   2.217   3.305   3.044
 1819SOL    HW3 7307   2.131   3.181   3.058
 1819SOL    MW4 7308   2.201   3.221   3.026
 1820SOL     OW 7309   2.240   3.476   3.131
 1820SOL    HW2 7310   2.306   3.527   3.084
 1820SOL    HW3 7311   2.158   3.523   3.115
 1820SOL    MW4 7312   2.238   3.489   3.123
 1821SOL     OW 7313   2.434   3.605   2.997
 1821SOL    HW2 7314   2.511   3.567   3.040
 1821SOL    HW3 7315   2.433   3.696   3.028
 1821SOL    MW4 7316   2.444   3.612   3.007
 1822SOL     OW 7317   2.467   3.869   3.077
 1822SOL    HW2 7318   2.466   3.866   3.172
 1822SOL    HW3 7319   2.555   3.900   3.055
 1822SOL    MW4 7320   2.479   3.872   3.087
 1823SOL     OW 7321   2.270   4.023   2.965
 1823SOL    HW2 7322   2.335   3.957   2.989
 1823SOL    HW3 7323   2.186   3.987   2.995
 1823SOL    MW4 7324   2.267   4.010   2.972
 1824SOL     OW 7325   2.275   4.282   3.080
 1824SOL    HW2 7326   2.273   4.192   3.048
 1824SOL    HW3 7327   2.202   4.325   3.036
 1824SOL    MW4 7328   2.265   4.276   3.070
 1825SOL     OW 7329   2.517   4.390   3.034
 1825SOL    HW2 7330   2.439   4.342   3.061
 1825SOL    HW3 7331   2.512   4.392   2.938
 1825SOL    MW4 7332   2.506   4.384   3.025
 1826SOL     OW 7333   2.885   0.015   3.107
 1826SOL    HW2 7334   2.962   0.068   3.085
 1826SOL    HW3 7335   2.913  -0.075   3.095
 1826SOL    MW4 7336   2.899   0.010   3.103
 1827SOL     OW 7337   2.669   0.123   2.987
 1827SOL    HW2 7338   2.753   0.092   3.022
 1827SOL    HW3 7339   2.603   0.084   3.044
 1827SOL    MW4 7340   2.671   0.114   2.999
 1828SOL     OW 7341   2.717   0.376   3.074
 1828SOL    HW2 7342   2.694   0.286   3.051
 1828SOL    HW3 7343   2.643   0.429   3.046
 1828SOL    MW4 7344   2.704   0.371   3.068
 1829SOL     OW 7345   2.950   0.491   2.958
 1829SOL    HW2 7346   2.867   0.450   2.984
 1829SOL    HW3 7347   2.950   0.486   2.863
 1829SOL    MW4 7348   2.939   0.485   2.949
 1830SOL     OW 7349   2.921   0.745   3.078
 1830SOL    HW2 7350   2.926   0.727   3.172
 1830SOL    HW3 7351   2.936   0.661   3.036
 1830SOL    MW4 7352   2.923   0.732   3.085
 1831SOL     OW 7353   2.681   0.854   2.970
 1831SOL    HW2 7354   2.687   0.948   2.985
 1831SOL    HW3 7355   2.762   0.819   3.009
 1831SOL    MW4 7356   2.693   0.862   2.977
 1832SOL     OW 7357   2.715   1.109   3.035
 1832SOL    HW2 7358   2.794   1.159   3.014
 1832SOL    HW3 7359   2.646   1.175   3.041
 1832SOL    MW4 7360   2.717   1.125   3.033
 1833SOL     OW 7361   2.951   1.252   2.996
 1833SOL    HW2 7362   3.010   1.202   3.052
 1833SOL    HW3 7363   2.951   1.340   3.034
 1833SOL    MW4 7364   2.959   1.257   3.009
 1834SOL     OW 7365   2.927   1.512   3.084
 1834SOL    HW2 7366   2.939   1.530   3.177
 1834SOL    HW3 7367   3.002   1.554   3.042
 1834SOL    MW4 7368   2.938   1.520   3.091
 1835SOL     OW 7369   2.702   1.626   2.979
 1835SOL    HW2 7370   2.787   1.602   3.016
 1835SOL    HW3 7371   2.638   1.591   3.041
 1835SOL    MW4 7372   2.705   1.618   2.992
 1836SOL     OW 7373   2.710   1.892   3.072
 1836SOL    HW2 7374   2.763   1.951   3.019
 1836SOL    HW3 7375   2.701   1.813   3.020
 1836SOL    MW4 7376   2.716   1.890   3.058
 1837SOL     OW 7377   2.909   2.047   2.967
 1837SOL    HW2 7378   2.908   2.135   3.006
 1837SOL    HW3 7379   2.907   2.063   2.872
 1837SOL    MW4 7380   2.909   2.061   2.960
 1838SOL     OW 7381   2.900   2.277   3.116
 1838SOL    HW2 7382   2.984   2.319   3.097
 1838SOL    HW3 7383   2.836   2.330   3.070
 1838SOL    MW4 7384   2.903   2.289   3.108
 1839SOL     OW 7385   2.694   2.429   3.006
 1839SOL    HW2 7386   2.671   2.513   3.045
 1839SOL    HW3 7387   2.623   2.370   3.031
 1839SOL    MW4 7388   2.682   2.432   3.014
 1840SOL     OW 7389   2.667   2.685   3.114
 1840SOL    HW2 7390   2.657   2.682   3.209
 1840SOL    HW3 7391   2.590   2.734   3.084
 1840SOL    MW4 7392   2.656   2.691   3.123
 1841SOL     OW 7393   2.892   2.805   3.008
 1841SOL    HW2 7394   2.975   2.774   3.043
 1841SOL    HW3 7395   2.826   2.747   3.046
 1841SOL    MW4 7396   2.894   2.793   3.017
 1842SOL     OW 7397   2.919   3.085   3.072
 1842SOL    HW2 7398   2.836   3.124   3.044
 1842SOL    HW3 7399   2.909   2.992   3.054
 1842SOL    MW4 7400   2.907   3.078   3.066
 1843SOL     OW 7401   2.676   3.224   2.998
 1843SOL    HW2 7402   2.663   3.315   3.023
 1843SOL    HW3 7403   2.682   3.227   2.902
 1843SOL    MW4 7404   2.675   3.236   2.988
 1844SOL     OW 7405   2.666   3.482   3.108
 1844SOL    HW2 7406   2.663   3.482   3.204
 1844SOL    HW3 7407   2.756   3.507   3.087
 1844SOL    MW4 7408   2.677   3.485   3.118
 1845SOL     OW 7409   2.899   3.585   3.002
 1845SOL    HW2 7410   2.972   3.547   3.051
 1845SOL    HW3 7411   2.903   3.679   3.022
 1845SOL    MW4 7412   2.909   3.593   3.011
 1846SOL     OW 7413   2.967   3.851   3.073
 1846SOL    HW2 7414   2.958   3.845   3.168
 1846SOL    HW3 7415   2.884   3.891   3.044
 1846SOL    MW4 7416   2.955   3.856   3.081
 1847SOL     OW 7417   2.718   3.988   2.994
 1847SOL    HW2 7418   2.726   4.074   3.037
 1847SOL    HW3 7419   2.701   4.009   2.902
 1847SOL    MW4 7420   2.717   4.002   2.988
 1848SOL     OW 7421   2.740   4.246   3.114
 1848SOL    HW2 7422   2.735   4.231   3.209
 1848SOL    HW3 7423   2.659   4.292   3.093
 1848SOL    MW4 7424   2.729   4.250   3.124
 1849SOL     OW 7425   2.926   4.427   3.059
 1849SOL    HW2 7426   3.010   4.385   3.077
 1849SOL    HW3 7427   2.862   4.358   3.075
 1849SOL    MW4 7428   2.929   4.412   3.063
 1850SOL     OW 7429   3.374   0.020   3.105
 1850SOL    HW2 7430   3.450   0.065   3.068
 1850SOL    HW3 7431   3.384  -0.071   3.078
 1850SOL    MW4 7432   3.386   0.014   3.096
 1851SOL     OW 7433   3.126   0.150   3.032
 1851SOL    HW2 7434   3.122   0.242   3.061
 1851SOL    HW3 7435   3.209   0.118   3.066
 1851SOL    MW4 7436   3.136   0.158   3.041
 1852SOL     OW 7437   3.151   0.394   3.125
 1852SOL    HW2 7438   3.233   0.439   3.105
 1852SOL    HW3 7439   3.085   0.440   3.072
 1852SOL    MW4 7440   3.153   0.406   3.115
 1853SOL     OW 7441   3.391   0.484   3.018
 1853SOL    HW2 7442   3.476   0.452   3.048
 1853SOL    HW3 7443   3.391   0.468   2.923
 1853SOL    MW4 7444   3.402   0.477   3.009
 1854SOL     OW 7445   3.336   0.768   3.108
 1854SOL    HW2 7446   3.350   0.775   3.203
 1854SOL    HW3 7447   3.339   0.674   3.090
 1854SOL    MW4 7448   3.338   0.756   3.118
 1855SOL     OW 7449   3.126   0.894   2.983
 1855SOL    HW2 7450   3.202   0.852   3.024
 1855SOL    HW3 7451   3.050   0.848   3.019
 1855SOL    MW4 7452   3.126   0.883   2.993
 1856SOL     OW 7453   3.135   1.115   3.136
 1856SOL    HW2 7454   3.210   1.169   3.111
 1856SOL    HW3 7455   3.142   1.037   3.081
 1856SOL    MW4 7456   3.146   1.112   3.125
 1857SOL     OW 7457   3.361   1.216   3.020
 1857SOL    HW2 7458   3.441   1.177   3.054
 1857SOL    HW3 7459   3.372   1.310   3.037
 1857SOL    MW4 7460   3.373   1.223   3.027
 1858SOL     OW 7461   3.397   1.498   3.075
 1858SOL    HW2 7462   3.392   1.508   3.170
 1858SOL    HW3 7463   3.482   1.534   3.051
 1858SOL    MW4 7464   3.407   1.504   3.085
 1859SOL     OW 7465   3.148   1.644   2.984
 1859SOL    HW2 7466   3.230   1.604   3.014
 1859SOL    HW3 7467   3.150   1.633   2.889
 1859SOL    MW4 7468   3.159   1.637   2.976
 1860SOL     OW 7469   3.091   1.899   3.100
 1860SOL    HW2 7470   3.092   1.812   3.059
 1860SOL    HW3 7471   3.022   1.947   3.054
 1860SOL    MW4 7472   3.082   1.894   3.089
 1861SOL     OW 7473   3.311   2.019   2.977
 1861SOL    HW2 7474   3.381   1.966   3.015
 1861SOL    HW3 7475   3.231   1.985   3.017
 1861SOL    MW4 7476   3.310   2.008   2.987
 1862SOL     OW 7477   3.356   2.257   3.106
 1862SOL    HW2 7478   3.337   2.244   3.199
 1862SOL    HW3 7479   3.331   2.174   3.065
 1862SOL    MW4 7480   3.350   2.244   3.113
 1863SOL     OW 7481   3.138   2.419   3.041
 1863SOL    HW2 7482   3.218   2.373   3.063
 1863SOL    HW3 7483   3.127   2.406   2.946
 1863SOL    MW4 7484   3.147   2.412   3.031
 1864SOL     OW 7485   3.131   2.694   3.094
 1864SOL    HW2 7486   3.138   2.688   3.189
 1864SOL    HW3 7487   3.118   2.603   3.065
 1864SOL    MW4 7488   3.130   2.681   3.103
 1865SOL     OW 7489   3.370   2.805   3.029
 1865SOL    HW2 7490   3.377   2.896   3.057
 1865SOL    HW3 7491   3.283   2.777   3.059
 1865SOL    MW4 7492   3.359   2.813   3.036
 1866SOL     OW 7493   3.376   3.079   3.113
 1866SOL    HW2 7494   3.366   3.072   3.208
 1866SOL    HW3 7495   3.294   3.120   3.084
 1866SOL    MW4 7496   3.364   3.084   3.122
 1867SOL     OW 7497   3.158   3.202   2.990
 1867SOL    HW2 7498   3.072   3.172   3.021
 1867SOL    HW3 7499   3.145   3.219   2.897
 1867SOL    MW4 7500   3.145   3.200   2.982
 1868SOL     OW 7501   3.119   3.460   3.118
 1868SOL    HW2 7502   3.177   3.518   3.068
 1868SOL    HW3 7503   3.113   3.380   3.065
 1868SOL    MW4 7504   3.126   3.457   3.105
 1869SOL     OW 7505   3.352   3.592   3.013
 1869SOL    HW2 7506   3.435   3.545   3.024
 1869SOL    HW3 7507   3.370   3.680   3.045
 1869SOL    MW4 7508   3.365   3.597   3.019
 1870SOL     OW 7509   3.377   3.864   3.087
 1870SOL    HW2 7510   3.377   3.871   3.183
 1870SOL    HW3 7511   3.294   3.903   3.060
 1870SOL    MW4 7512   3.366   3.870   3.096
 1871SOL     OW 7513   3.169   4.014   3.002
 1871SOL    HW2 7514   3.099   3.954   3.029
 1871SOL    HW3 7515   3.175   4.001   2.907
 1871SOL    MW4 7516   3.160   4.004   2.993
 1872SOL     OW 7517   3.143   4.279   3.101
 1872SOL    HW2 7518   3.170   4.278   3.193
 1872SOL    HW3 7519   3.149   4.187   3.074
 1872SOL    MW4 7520   3.147   4.266   3.109
 1873SOL     OW 7521   3.403   4.416   3.013
 1873SOL    HW2 7522   3.473   4.357   3.044
 1873SOL    HW3 7523   3.323   4.379   3.049
 1873SOL    MW4 7524   3.402   4.403   3.022
 1874SOL     OW 7525   3.811   4.657   3.075
 1874SOL    HW2 7526   3.794   4.569   3.039
 1874SOL    HW3 7527   3.728   4.703   3.064
 1874SOL    MW4 7528   3.797   4.651   3.069
 1875SOL     OW 7529   3.593   0.137   3.005
 1875SOL    HW2 7530   3.613   0.224   3.038
 1875SOL    HW3 7531   3.592   0.147   2.910
 1875SOL    MW4 7532   3.596   0.150   2.997
 1876SOL     OW 7533   3.639   0.403   3.094
 1876SOL    HW2 7534   3.653   0.401   3.188
 1876SOL    HW3 7535   3.718   0.445   3.059
 1876SOL    MW4 7536   3.651   0.408   3.102
 1877SOL     OW 7537   3.871   0.527   3.001
 1877SOL    HW2 7538   3.939   0.473   3.042
 1877SOL    HW3 7539   3.882   0.614   3.040
 1877SOL    MW4 7540   3.881   0.531   3.011
 1878SOL     OW 7541   3.804   0.754   3.140
 1878SOL    HW2 7542   3.824   0.765   3.233
 1878SOL    HW3 7543   3.858   0.820   3.096
 1878SOL    MW4 7544   3.814   0.764   3.146
 1879SOL     OW 7545   3.581   0.863   3.013
 1879SOL    HW2 7546   3.651   0.816   3.058
 1879SOL    HW3 7547   3.500   0.828   3.051
 1879SOL    MW4 7548   3.579   0.852   3.024
 1880SOL     OW 7549   3.605   1.120   3.114
 1880SOL    HW2 7550   3.674   1.165   3.064
 1880SOL    HW3 7551   3.610   1.029   3.085
 1880SOL    MW4 7552   3.615   1.114   3.104
 1881SOL     OW 7553   3.838   1.243   3.001
 1881SOL    HW2 7554   3.843   1.335   3.030
 1881SOL    HW3 7555   3.833   1.249   2.905
 1881SOL    MW4 7556   3.838   1.256   2.992
 1882SOL     OW 7557   3.856   1.509   3.081
 1882SOL    HW2 7558   3.846   1.505   3.176
 1882SOL    HW3 7559   3.776   1.553   3.050
 1882SOL    MW4 7560   3.844   1.515   3.089
 1883SOL     OW 7561   3.625   1.651   3.017
 1883SOL    HW2 7562   3.584   1.731   3.049
 1883SOL    HW3 7563   3.606   1.649   2.924
 1883SOL    MW4 7564   3.617   1.661   3.009
 1884SOL     OW 7565   3.568   1.907   3.089
 1884SOL    HW2 7566   3.584   1.908   3.183
 1884SOL    HW3 7567   3.636   1.963   3.052
 1884SOL    MW4 7568   3.579   1.914   3.097
 1885SOL     OW 7569   3.782   2.023   2.978
 1885SOL    HW2 7570   3.782   2.107   3.023
 1885SOL    HW3 7571   3.794   2.045   2.885
 1885SOL    MW4 7572   3.783   2.037   2.971
 1886SOL     OW 7573   3.820   2.313   3.054
 1886SOL    HW2 7574   3.822   2.337   3.146
 1886SOL    HW3 7575   3.735   2.343   3.023
 1886SOL    MW4 7576   3.809   2.320   3.062
 1887SOL     OW 7577   3.549   2.391   2.979
 1887SOL    HW2 7578   3.547   2.473   3.028
 1887SOL    HW3 7579   3.476   2.340   3.014
 1887SOL    MW4 7580   3.539   2.395   2.990
 1888SOL     OW 7581   3.601   2.635   3.094
 1888SOL    HW2 7582   3.679   2.682   3.063
 1888SOL    HW3 7583   3.528   2.690   3.067
 1888SOL    MW4 7584   3.602   2.649   3.087
 1889SOL     OW 7585   3.818   2.784   3.010
 1889SOL    HW2 7586   3.832   2.866   3.057
 1889SOL    HW3 7587   3.786   2.811   2.924
 1889SOL    MW4 7588   3.815   2.798   3.005
 1890SOL     OW 7589   3.833   3.058   3.109
 1890SOL    HW2 7590   3.915   3.090   3.072
 1890SOL    HW3 7591   3.769   3.127   3.090
 1890SOL    MW4 7592   3.835   3.071   3.102
 1891SOL     OW 7593   3.606   3.213   3.008
 1891SOL    HW2 7594   3.534   3.165   3.049
 1891SOL    HW3 7595   3.598   3.195   2.915
 1891SOL    MW4 7596   3.595   3.204   3.001
 1892SOL     OW 7597   3.614   3.497   3.038
 1892SOL    HW2 7598   3.701   3.536   3.030
 1892SOL    HW3 7599   3.629   3.403   3.026
 1892SOL    MW4 7600   3.628   3.490   3.035
 1893SOL     OW 7601   3.862   3.584   2.964
 1893SOL    HW2 7602   3.856   3.669   3.006
 1893SOL    HW3 7603   3.834   3.600   2.874
 1893SOL    MW4 7604   3.857   3.598   2.957
 1894SOL     OW 7605   3.829   3.828   3.076
 1894SOL    HW2 7606   3.846   3.828   3.170
 1894SOL    HW3 7607   3.746   3.875   3.067
 1894SOL    MW4 7608   3.820   3.834   3.087
 1895SOL     OW 7609   3.613   3.976   3.010
 1895SOL    HW2 7610   3.532   3.930   3.032
 1895SOL    HW3 7611   3.620   3.967   2.915
 1895SOL    MW4 7612   3.604   3.969   3.000
 1896SOL     OW 7613   3.595   4.241   3.130
 1896SOL    HW2 7614   3.667   4.293   3.094
 1896SOL    HW3 7615   3.596   4.160   3.080
 1896SOL    MW4 7616   3.605   4.237   3.119
 1897SOL     OW 7617   3.799   4.389   3.023
 1897SOL    HW2 7618   3.859   4.332   3.073
 1897SOL    HW3 7619   3.828   4.380   2.933
 1897SOL    MW4 7620   3.811   4.380   3.018
 1898SOL     OW 7621   4.249   4.643   3.118
 1898SOL    HW2 7622   4.252   4.649   3.213
 1898SOL    HW3 7623   4.245   4.549   3.100
 1898SOL    MW4 7624   4.249   4.631   3.128
 1899SOL     OW 7625   4.040   0.110   2.982
 1899SOL    HW2 7626   4.113   0.056   3.011
 1899SOL    HW3 7627   3.963   0.071   3.022
 1899SOL    MW4 7628   4.039   0.098   2.991
 1900SOL     OW 7629   4.055   0.367   3.123
 1900SOL    HW2 7630   4.133   0.411   3.090
 1900SOL    HW3 7631   4.060   0.279   3.086
 1900SOL    MW4 7632   4.066   0.361   3.114
 1901SOL     OW 7633   4.263   0.492   2.985
 1901SOL    HW2 7634   4.262   0.575   3.033
 1901SOL    HW3 7635   4.253   0.517   2.893
 1901SOL    MW4 7636   4.261   0.507   2.979
 1902SOL     OW 7637   4.225   0.747   3.058
 1902SOL    HW2 7638   4.159   0.803   3.016
 1902SOL    HW3 7639   4.307   0.794   3.048
 1902SOL    MW4 7640   4.227   0.760   3.051
 1903SOL     OW 7641   4.002   0.875   2.981
 1903SOL    HW2 7642   4.021   0.956   3.027
 1903SOL    HW3 7643   4.006   0.898   2.888
 1903SOL    MW4 7644   4.005   0.888   2.975
 1904SOL     OW 7645   4.072   1.129   3.080
 1904SOL    HW2 7646   4.063   1.143   3.175
 1904SOL    HW3 7647   3.995   1.173   3.043
 1904SOL    MW4 7648   4.060   1.137   3.088
 1905SOL     OW 7649   4.252   1.302   2.994
 1905SOL    HW2 7650   4.203   1.225   3.022
 1905SOL    HW3 7651   4.252   1.298   2.899
 1905SOL    MW4 7652   4.245   1.291   2.985
 1906SOL     OW 7653   4.272   1.556   3.102
 1906SOL    HW2 7654   4.206   1.606   3.054
 1906SOL    HW3 7655   4.269   1.469   3.062
 1906SOL    MW4 7656   4.263   1.551   3.091
 1907SOL     OW 7657   4.035   1.668   2.983
 1907SOL    HW2 7658   4.036   1.755   3.022
 1907SOL    HW3 7659   3.974   1.618   3.038
 1907SOL    MW4 7660   4.027   1.673   2.995
 1908SOL     OW 7661   3.992   1.901   3.112
 1908SOL    HW2 7662   4.071   1.949   3.088
 1908SOL    HW3 7663   3.922   1.946   3.065
 1908SOL    MW4 7664   3.993   1.913   3.103
 1909SOL     OW 7665   4.245   1.999   2.993
 1909SOL    HW2 7666   4.250   2.087   3.031
 1909SOL    HW3 7667   4.223   2.014   2.901
 1909SOL    MW4 7668   4.242   2.013   2.986
 1910SOL     OW 7669   4.265   2.237   3.123
 1910SOL    HW2 7670   4.202   2.299   3.086
 1910SOL    HW3 7671   4.351   2.275   3.104
 1910SOL    MW4 7672   4.268   2.250   3.116
 1911SOL     OW 7673   4.069   2.396   3.022
 1911SOL    HW2 7674   4.059   2.482   3.063
 1911SOL    HW3 7675   3.981   2.359   3.021
 1911SOL    MW4 7676   4.056   2.402   3.027
 1912SOL     OW 7677   4.040   2.660   3.116
 1912SOL    HW2 7678   4.053   2.696   3.204
 1912SOL    HW3 7679   3.966   2.709   3.081
 1912SOL    MW4 7680   4.032   2.671   3.123
 1913SOL     OW 7681   4.248   2.818   3.029
 1913SOL    HW2 7682   4.175   2.761   3.053
 1913SOL    HW3 7683   4.326   2.765   3.046
 1913SOL    MW4 7684   4.248   2.804   3.035
 1914SOL     OW 7685   4.312   3.079   3.057
 1914SOL    HW2 7686   4.231   3.115   3.020
 1914SOL    HW3 7687   4.300   2.985   3.056
 1914SOL    MW4 7688   4.300   3.072   3.052
 1915SOL     OW 7689   4.057   3.191   2.999
 1915SOL    HW2 7690   4.059   3.274   3.047
 1915SOL    HW3 7691   4.040   3.216   2.908
 1915SOL    MW4 7692   4.055   3.205   2.994
 1916SOL     OW 7693   4.073   3.456   3.091
 1916SOL    HW2 7694   4.065   3.482   3.183
 1916SOL    HW3 7695   4.009   3.511   3.045
 1916SOL    MW4 7696   4.063   3.466   3.097
 1917SOL     OW 7697   4.278   3.611   2.967
 1917SOL    HW2 7698   4.296   3.695   3.008
 1917SOL    HW3 7699   4.236   3.559   3.035
 1917SOL    MW4 7700   4.275   3.615   2.981
 1918SOL     OW 7701   4.264   3.857   3.092
 1918SOL    HW2 7702   4.188   3.908   3.061
 1918SOL    HW3 7703   4.339   3.903   3.055
 1918SOL    MW4 7704   4.264   3.870   3.083
 1919SOL     OW 7705   4.045   3.982   2.992
 1919SOL    HW2 7706   4.050   4.062   3.045
 1919SOL    HW3 7707   3.965   3.939   3.020
 1919SOL    MW4 7708   4.035   3.987   3.003
 1920SOL     OW 7709   4.023   4.227   3.097
 1920SOL    HW2 7710   4.030   4.229   3.192
 1920SOL    HW3 7711   4.096   4.280   3.066
 1920SOL    MW4 7712   4.033   4.234   3.106
 1921SOL     OW 7713   4.248   4.372   3.010
 1921SOL    HW2 7714   4.329   4.340   3.049
 1921SOL    HW3 7715   4.269   4.383   2.917
 1921SOL    MW4 7716   4.261   4.369   3.003
 1922SOL     OW 7717   0.188   0.014   3.360
 1922SOL    HW2 7718   0.279   0.044   3.359
 1922SOL    HW3 7719   0.192  -0.075   3.393
 1922SOL    MW4 7720   0.201   0.006   3.365
 1923SOL     OW 7721   4.471   0.158   3.447
 1923SOL    HW2 7722   4.462   0.250   3.422
 1923SOL    HW3 7723   4.555   0.132   3.410
 1923SOL    MW4 7724   4.481   0.167   3.439
 1924SOL     OW 7725   4.445   0.397   3.350
 1924SOL    HW2 7726   4.370   0.444   3.385
 1924SOL    HW3 7727   4.521   0.439   3.390
 1924SOL    MW4 7728   4.445   0.409   3.360
 1925SOL     OW 7729   0.196   0.540   3.472
 1925SOL    HW2 7730   0.275   0.502   3.433
 1925SOL    HW3 7731   0.185   0.624   3.427
 1925SOL    MW4 7732   0.205   0.546   3.461
 1926SOL     OW 7733   0.154   0.781   3.378
 1926SOL    HW2 7734   0.228   0.827   3.418
 1926SOL    HW3 7735   0.077   0.829   3.407
 1926SOL    MW4 7736   0.154   0.794   3.387
 1927SOL     OW 7737   4.407   0.909   3.472
 1927SOL    HW2 7738   4.411   0.896   3.567
 1927SOL    HW3 7739   4.426   1.002   3.459
 1927SOL    MW4 7740   4.410   0.920   3.483
 1928SOL     OW 7741   0.020   1.143   3.415
 1928SOL    HW2 7742   0.100   1.169   3.462
 1928SOL    HW3 7743   0.027   1.188   3.331
 1928SOL    MW4 7744   0.032   1.153   3.410
 1929SOL     OW 7745   0.220   1.257   3.533
 1929SOL    HW2 7746   0.292   1.231   3.476
 1929SOL    HW3 7747   0.202   1.348   3.508
 1929SOL    MW4 7748   0.227   1.266   3.522
 1930SOL     OW 7749   0.229   1.513   3.410
 1930SOL    HW2 7750   0.308   1.566   3.423
 1930SOL    HW3 7751   0.212   1.518   3.316
 1930SOL    MW4 7752   0.237   1.521   3.399
 1931SOL     OW 7753   4.490   1.666   3.461
 1931SOL    HW2 7754   4.413   1.624   3.423
 1931SOL    HW3 7755   4.561   1.603   3.448
 1931SOL    MW4 7756   4.489   1.652   3.454
 1932SOL     OW 7757   4.436   1.946   3.396
 1932SOL    HW2 7758   4.443   1.854   3.420
 1932SOL    HW3 7759   4.443   1.947   3.300
 1932SOL    MW4 7760   4.438   1.934   3.386
 1933SOL     OW 7761   0.185   2.072   3.457
 1933SOL    HW2 7762   0.198   2.062   3.552
 1933SOL    HW3 7763   0.097   2.036   3.442
 1933SOL    MW4 7764   0.175   2.066   3.468
 1934SOL     OW 7765   0.189   2.335   3.393
 1934SOL    HW2 7766   0.121   2.388   3.436
 1934SOL    HW3 7767   0.164   2.245   3.411
 1934SOL    MW4 7768   0.177   2.330   3.401
 1935SOL     OW 7769   4.453   2.473   3.485
 1935SOL    HW2 7770   4.451   2.468   3.580
 1935SOL    HW3 7771   4.381   2.417   3.456
 1935SOL    MW4 7772   4.444   2.465   3.493
 1936SOL     OW 7773   4.476   2.715   3.373
 1936SOL    HW2 7774   4.559   2.749   3.409
 1936SOL    HW3 7775   4.467   2.628   3.414
 1936SOL    MW4 7776   4.486   2.708   3.383
 1937SOL     OW 7777   0.223   2.836   3.475
 1937SOL    HW2 7778   0.307   2.799   3.449
 1937SOL    HW3 7779   0.234   2.930   3.462
 1937SOL    MW4 7780   0.236   2.843   3.470
 1938SOL     OW 7781   0.235   3.096   3.412
 1938SOL    HW2 7782   0.167   3.161   3.427
 1938SOL    HW3 7783   0.239   3.086   3.317
 1938SOL    MW4 7784   0.226   3.103   3.402
 1939SOL     OW 7785   0.032   3.279   3.459
 1939SOL    HW2 7786  -0.049   3.238   3.427
 1939SOL    HW3 7787   0.037   3.362   3.411
 1939SOL    MW4 7788   0.022   3.284   3.448
 1940SOL     OW 7789   0.069   3.518   3.313
 1940SOL    HW2 7790  -0.006   3.562   3.353
 1940SOL    HW3 7791   0.050   3.518   3.219
 1940SOL    MW4 7792   0.057   3.524   3.306
 1941SOL     OW 7793   0.253   3.670   3.465
 1941SOL    HW2 7794   0.239   3.655   3.559
 1941SOL    HW3 7795   0.191   3.612   3.421
 1941SOL    MW4 7796   0.243   3.660   3.472
 1942SOL     OW 7797   0.221   3.903   3.329
 1942SOL    HW2 7798   0.144   3.929   3.381
 1942SOL    HW3 7799   0.247   3.819   3.367
 1942SOL    MW4 7800   0.214   3.895   3.341
 1943SOL     OW 7801   0.010   4.024   3.456
 1943SOL    HW2 7802   0.008   4.038   3.550
 1943SOL    HW3 7803   0.018   4.112   3.419
 1943SOL    MW4 7804   0.011   4.038   3.463
 1944SOL     OW 7805   0.021   4.294   3.369
 1944SOL    HW2 7806  -0.062   4.322   3.408
 1944SOL    HW3 7807   0.088   4.344   3.417
 1944SOL    MW4 7808   0.019   4.304   3.381
 1945SOL     OW 7809   0.223   4.436   3.482
 1945SOL    HW2 7810   0.232   4.426   3.577
 1945SOL    HW3 7811   0.293   4.383   3.446
 1945SOL    MW4 7812   0.233   4.428   3.490
 1946SOL     OW 7813   0.681   0.011   3.347
 1946SOL    HW2 7814   0.758   0.049   3.390
 1946SOL    HW3 7815   0.695   0.029   3.254
 1946SOL    MW4 7816   0.693   0.018   3.341
 1947SOL     OW 7817   0.443   0.138   3.437
 1947SOL    HW2 7818   0.428   0.126   3.531
 1947SOL    HW3 7819   0.523   0.088   3.419
 1947SOL    MW4 7820   0.452   0.130   3.447
 1948SOL     OW 7821   0.457   0.424   3.385
 1948SOL    HW2 7822   0.520   0.477   3.435
 1948SOL    HW3 7823   0.488   0.334   3.395
 1948SOL    MW4 7824   0.469   0.419   3.393
 1949SOL     OW 7825   0.678   0.553   3.492
 1949SOL    HW2 7826   0.669   0.536   3.586
 1949SOL    HW3 7827   0.760   0.511   3.468
 1949SOL    MW4 7828   0.687   0.545   3.501
 1950SOL     OW 7829   0.611   0.795   3.364
 1950SOL    HW2 7830   0.539   0.849   3.397
 1950SOL    HW3 7831   0.610   0.718   3.421
 1950SOL    MW4 7832   0.601   0.792   3.376
 1951SOL     OW 7833   0.390   0.915   3.467
 1951SOL    HW2 7834   0.397   0.907   3.562
 1951SOL    HW3 7835   0.401   1.008   3.449
 1951SOL    MW4 7836   0.393   0.926   3.477
 1952SOL     OW 7837   0.426   1.181   3.381
 1952SOL    HW2 7838   0.505   1.223   3.416
 1952SOL    HW3 7839   0.436   1.187   3.286
 1952SOL    MW4 7840   0.437   1.188   3.373
 1953SOL     OW 7841   0.658   1.293   3.510
 1953SOL    HW2 7842   0.726   1.247   3.461
 1953SOL    HW3 7843   0.669   1.385   3.485
 1953SOL    MW4 7844   0.668   1.299   3.500
 1954SOL     OW 7845   0.649   1.540   3.397
 1954SOL    HW2 7846   0.721   1.603   3.405
 1954SOL    HW3 7847   0.572   1.590   3.423
 1954SOL    MW4 7848   0.648   1.555   3.402
 1955SOL     OW 7849   0.426   1.682   3.478
 1955SOL    HW2 7850   0.404   1.687   3.571
 1955SOL    HW3 7851   0.416   1.772   3.447
 1955SOL    MW4 7852   0.422   1.695   3.486
 1956SOL     OW 7853   0.426   1.954   3.422
 1956SOL    HW2 7854   0.346   1.993   3.456
 1956SOL    HW3 7855   0.427   1.976   3.329
 1956SOL    MW4 7856   0.416   1.962   3.414
 1957SOL     OW 7857   0.678   2.038   3.511
 1957SOL    HW2 7858   0.675   2.037   3.607
 1957SOL    HW3 7859   0.594   2.001   3.484
 1957SOL    MW4 7860   0.666   2.033   3.520
 1958SOL     OW 7861   0.641   2.296   3.404
 1958SOL    HW2 7862   0.713   2.350   3.437
 1958SOL    HW3 7863   0.652   2.212   3.449
 1958SOL    MW4 7864   0.652   2.292   3.415
 1959SOL     OW 7865   0.429   2.461   3.476
 1959SOL    HW2 7866   0.503   2.405   3.453
 1959SOL    HW3 7867   0.352   2.417   3.440
 1959SOL    MW4 7868   0.428   2.448   3.468
 1960SOL     OW 7869   0.456   2.725   3.388
 1960SOL    HW2 7870   0.452   2.636   3.424
 1960SOL    HW3 7871   0.437   2.715   3.295
 1960SOL    MW4 7872   0.453   2.712   3.381
 1961SOL     OW 7873   0.685   2.837   3.493
 1961SOL    HW2 7874   0.759   2.790   3.455
 1961SOL    HW3 7875   0.608   2.792   3.457
 1961SOL    MW4 7876   0.684   2.825   3.483
 1962SOL     OW 7877   0.705   3.089   3.363
 1962SOL    HW2 7878   0.624   3.127   3.397
 1962SOL    HW3 7879   0.712   3.005   3.407
 1962SOL    MW4 7880   0.695   3.083   3.373
 1963SOL     OW 7881   0.481   3.207   3.472
 1963SOL    HW2 7882   0.484   3.218   3.567
 1963SOL    HW3 7883   0.398   3.162   3.456
 1963SOL    MW4 7884   0.471   3.202   3.483
 1964SOL     OW 7885   0.465   3.486   3.388
 1964SOL    HW2 7886   0.447   3.399   3.424
 1964SOL    HW3 7887   0.396   3.541   3.424
 1964SOL    MW4 7888   0.454   3.482   3.398
 1965SOL     OW 7889   0.683   3.623   3.481
 1965SOL    HW2 7890   0.764   3.586   3.448
 1965SOL    HW3 7891   0.615   3.562   3.452
 1965SOL    MW4 7892   0.685   3.610   3.473
 1966SOL     OW 7893   0.618   3.853   3.332
 1966SOL    HW2 7894   0.536   3.892   3.361
 1966SOL    HW3 7895   0.631   3.778   3.391
 1966SOL    MW4 7896   0.609   3.848   3.344
 1967SOL     OW 7897   0.431   4.031   3.442
 1967SOL    HW2 7898   0.433   4.120   3.406
 1967SOL    HW3 7899   0.351   3.992   3.407
 1967SOL    MW4 7900   0.421   4.037   3.433
 1968SOL     OW 7901   0.418   4.296   3.360
 1968SOL    HW2 7902   0.501   4.338   3.384
 1968SOL    HW3 7903   0.420   4.293   3.264
 1968SOL    MW4 7904   0.429   4.301   3.350
 1969SOL     OW 7905   0.659   4.413   3.438
 1969SOL    HW2 7906   0.723   4.354   3.397
 1969SOL    HW3 7907   0.666   4.494   3.389
 1969SOL    MW4 7908   0.669   4.416   3.426
 1970SOL     OW 7909   1.137   4.634   3.435
 1970SOL    HW2 7910   1.221   4.676   3.454
 1970SOL    HW3 7911   1.137   4.623   3.340
 1970SOL    MW4 7912   1.148   4.638   3.425
 1971SOL     OW 7913   0.905   0.126   3.467
 1971SOL    HW2 7914   0.889   0.118   3.561
 1971SOL    HW3 7915   0.996   0.098   3.455
 1971SOL    MW4 7916   0.915   0.121   3.478
 1972SOL     OW 7917   0.911   0.404   3.408
 1972SOL    HW2 7918   0.989   0.441   3.450
 1972SOL    HW3 7919   0.906   0.315   3.444
 1972SOL    MW4 7920   0.921   0.397   3.418
 1973SOL     OW 7921   1.167   0.488   3.485
 1973SOL    HW2 7922   1.148   0.488   3.578
 1973SOL    HW3 7923   1.173   0.580   3.461
 1973SOL    MW4 7924   1.165   0.500   3.494
 1974SOL     OW 7925   1.116   0.746   3.398
 1974SOL    HW2 7926   1.185   0.810   3.416
 1974SOL    HW3 7927   1.036   0.787   3.429
 1974SOL    MW4 7928   1.115   0.759   3.405
 1975SOL     OW 7929   0.849   0.884   3.463
 1975SOL    HW2 7930   0.851   0.975   3.432
 1975SOL    HW3 7931   0.768   0.849   3.426
 1975SOL    MW4 7932   0.839   0.892   3.454
 1976SOL     OW 7933   0.873   1.133   3.366
 1976SOL    HW2 7934   0.956   1.178   3.385
 1976SOL    HW3 7935   0.874   1.119   3.272
 1976SOL    MW4 7936   0.884   1.137   3.356
 1977SOL     OW 7937   1.125   1.256   3.421
 1977SOL    HW2 7938   1.124   1.257   3.517
 1977SOL    HW3 7939   1.126   1.349   3.396
 1977SOL    MW4 7940   1.125   1.268   3.430
 1978SOL     OW 7941   1.104   1.518   3.360
 1978SOL    HW2 7942   1.174   1.582   3.372
 1978SOL    HW3 7943   1.100   1.506   3.265
 1978SOL    MW4 7944   1.113   1.525   3.349
 1979SOL     OW 7945   0.888   1.675   3.478
 1979SOL    HW2 7946   0.903   1.762   3.441
 1979SOL    HW3 7947   0.958   1.621   3.441
 1979SOL    MW4 7948   0.900   1.679   3.468
 1980SOL     OW 7949   0.915   1.954   3.358
 1980SOL    HW2 7950   0.984   1.996   3.410
 1980SOL    HW3 7951   0.835   1.971   3.407
 1980SOL    MW4 7952   0.914   1.962   3.372
 1981SOL     OW 7953   1.128   2.077   3.474
 1981SOL    HW2 7954   1.203   2.036   3.432
 1981SOL    HW3 7955   1.126   2.166   3.439
 1981SOL    MW4 7956   1.138   2.084   3.464
 1982SOL     OW 7957   1.115   2.327   3.377
 1982SOL    HW2 7958   1.189   2.375   3.414
 1982SOL    HW3 7959   1.124   2.338   3.282
 1982SOL    MW4 7960   1.126   2.335   3.369
 1983SOL     OW 7961   0.870   2.417   3.490
 1983SOL    HW2 7962   0.883   2.396   3.583
 1983SOL    HW3 7963   0.941   2.372   3.445
 1983SOL    MW4 7964   0.881   2.408   3.497
 1984SOL     OW 7965   0.895   2.693   3.395
 1984SOL    HW2 7966   0.977   2.732   3.424
 1984SOL    HW3 7967   0.897   2.604   3.430
 1984SOL    MW4 7968   0.906   2.686   3.404
 1985SOL     OW 7969   1.128   2.826   3.481
 1985SOL    HW2 7970   1.139   2.813   3.576
 1985SOL    HW3 7971   1.214   2.808   3.444
 1985SOL    MW4 7972   1.140   2.822   3.489
 1986SOL     OW 7973   1.154   3.090   3.379
 1986SOL    HW2 7974   1.132   3.004   3.414
 1986SOL    HW3 7975   1.144   3.080   3.284
 1986SOL    MW4 7976   1.150   3.077   3.371
 1987SOL     OW 7977   0.910   3.249   3.442
 1987SOL    HW2 7978   0.987   3.205   3.406
 1987SOL    HW3 7979   0.835   3.197   3.412
 1987SOL    MW4 7980   0.910   3.236   3.433
 1988SOL     OW 7981   0.920   3.519   3.391
 1988SOL    HW2 7982   0.928   3.426   3.412
 1988SOL    HW3 7983   0.921   3.522   3.296
 1988SOL    MW4 7984   0.921   3.507   3.381
 1989SOL     OW 7985   1.093   3.651   3.538
 1989SOL    HW2 7986   1.080   3.631   3.630
 1989SOL    HW3 7987   1.025   3.602   3.493
 1989SOL    MW4 7988   1.083   3.642   3.544
 1990SOL     OW 7989   1.120   3.889   3.380
 1990SOL    HW2 7990   1.193   3.937   3.419
 1990SOL    HW3 7991   1.116   3.807   3.431
 1990SOL    MW4 7992   1.129   3.884   3.392
 1991SOL     OW 7993   0.856   3.995   3.426
 1991SOL    HW2 7994   0.936   3.945   3.413
 1991SOL    HW3 7995   0.787   3.937   3.392
 1991SOL    MW4 7996   0.857   3.980   3.420
 1992SOL     OW 7997   0.866   4.268   3.328
 1992SOL    HW2 7998   0.853   4.174   3.340
 1992SOL    HW3 7999   0.896   4.277   3.237
 1992SOL    MW4 8000   0.868   4.256   3.317
 1993SOL     OW 8001   1.097   4.373   3.487
 1993SOL    HW2 8002   1.017   4.364   3.436
 1993SOL    HW3 8003   1.116   4.467   3.485
 1993SOL    MW4 8004   1.089   4.385   3.480
 1994SOL     OW 8005   1.544   4.637   3.323
 1994SOL    HW2 8006   1.544   4.550   3.362
 1994SOL    HW3 8007   1.490   4.690   3.382
 1994SOL    MW4 8008   1.537   4.633   3.336
 1995SOL     OW 8009   1.387   0.143   3.478
 1995SOL    HW2 8010   1.380   0.144   3.574
 1995SOL    HW3 8011   1.400   0.235   3.454
 1995SOL    MW4 8012   1.388   0.156   3.488
 1996SOL     OW 8013   1.397   0.397   3.370
 1996SOL    HW2 8014   1.479   0.422   3.414
 1996SOL    HW3 8015   1.328   0.433   3.427
 1996SOL    MW4 8016   1.399   0.405   3.384
 1997SOL     OW 8017   1.597   0.491   3.511
 1997SOL    HW2 8018   1.588   0.457   3.600
 1997SOL    HW3 8019   1.668   0.439   3.472
 1997SOL    MW4 8020   1.605   0.479   3.518
 1998SOL     OW 8021   1.570   0.758   3.383
 1998SOL    HW2 8022   1.498   0.810   3.418
 1998SOL    HW3 8023   1.566   0.676   3.431
 1998SOL    MW4 8024   1.560   0.754   3.394
 1999SOL     OW 8025   1.343   0.898   3.457
 1999SOL    HW2 8026   1.344   0.919   3.550
 1999SOL    HW3 8027   1.339   0.983   3.414
 1999SOL    MW4 8028   1.342   0.912   3.463
 2000SOL     OW 8029   1.349   1.128   3.312
 2000SOL    HW2 8030   1.426   1.168   3.353
 2000SOL    HW3 8031   1.275   1.179   3.346
 2000SOL    MW4 8032   1.350   1.140   3.322
 2001SOL     OW 8033   1.555   1.259   3.441
 2001SOL    HW2 8034   1.553   1.273   3.535
 2001SOL    HW3 8035   1.638   1.215   3.424
 2001SOL    MW4 8036   1.565   1.255   3.451
 2002SOL     OW 8037   1.540   1.503   3.349
 2002SOL    HW2 8038   1.558   1.412   3.373
 2002SOL    HW3 8039   1.549   1.504   3.254
 2002SOL    MW4 8040   1.544   1.491   3.340
 2003SOL     OW 8041   1.327   1.670   3.433
 2003SOL    HW2 8042   1.308   1.669   3.527
 2003SOL    HW3 8043   1.394   1.602   3.421
 2003SOL    MW4 8044   1.333   1.661   3.444
 2004SOL     OW 8045   1.322   1.941   3.344
 2004SOL    HW2 8046   1.395   1.982   3.389
 2004SOL    HW3 8047   1.338   1.847   3.350
 2004SOL    MW4 8048   1.333   1.934   3.351
 2005SOL     OW 8049   1.545   2.036   3.473
 2005SOL    HW2 8050   1.629   1.997   3.449
 2005SOL    HW3 8051   1.544   2.121   3.429
 2005SOL    MW4 8052   1.556   2.042   3.464
 2006SOL     OW 8053   1.527   2.293   3.357
 2006SOL    HW2 8054   1.453   2.351   3.373
 2006SOL    HW3 8055   1.547   2.305   3.264
 2006SOL    MW4 8056   1.520   2.303   3.347
 2007SOL     OW 8057   1.344   2.468   3.467
 2007SOL    HW2 8058   1.341   2.473   3.563
 2007SOL    HW3 8059   1.344   2.559   3.438
 2007SOL    MW4 8060   1.344   2.480   3.476
 2008SOL     OW 8061   1.355   2.738   3.354
 2008SOL    HW2 8062   1.429   2.786   3.391
 2008SOL    HW3 8063   1.365   2.748   3.259
 2008SOL    MW4 8064   1.366   2.746   3.347
 2009SOL     OW 8065   1.555   2.858   3.495
 2009SOL    HW2 8066   1.640   2.815   3.488
 2009SOL    HW3 8067   1.568   2.944   3.455
 2009SOL    MW4 8068   1.568   2.864   3.489
 2010SOL     OW 8069   1.570   3.116   3.382
 2010SOL    HW2 8070   1.652   3.160   3.404
 2010SOL    HW3 8071   1.502   3.168   3.426
 2010SOL    MW4 8072   1.571   3.129   3.391
 2011SOL     OW 8073   1.356   3.250   3.487
 2011SOL    HW2 8074   1.339   3.250   3.581
 2011SOL    HW3 8075   1.285   3.199   3.449
 2011SOL    MW4 8076   1.345   3.244   3.495
 2012SOL     OW 8077   1.305   3.518   3.394
 2012SOL    HW2 8078   1.307   3.433   3.438
 2012SOL    HW3 8079   1.244   3.571   3.446
 2012SOL    MW4 8080   1.297   3.514   3.406
 2013SOL     OW 8081   1.564   3.645   3.481
 2013SOL    HW2 8082   1.587   3.655   3.574
 2013SOL    HW3 8083   1.473   3.614   3.483
 2013SOL    MW4 8084   1.555   3.642   3.494
 2014SOL     OW 8085   1.530   3.887   3.369
 2014SOL    HW2 8086   1.538   3.799   3.406
 2014SOL    HW3 8087   1.528   3.873   3.274
 2014SOL    MW4 8088   1.530   3.874   3.362
 2015SOL     OW 8089   1.324   4.023   3.521
 2015SOL    HW2 8090   1.311   4.102   3.468
 2015SOL    HW3 8091   1.398   3.979   3.479
 2015SOL    MW4 8092   1.332   4.028   3.508
 2016SOL     OW 8093   1.346   4.262   3.364
 2016SOL    HW2 8094   1.271   4.302   3.409
 2016SOL    HW3 8095   1.329   4.277   3.271
 2016SOL    MW4 8096   1.334   4.270   3.358
 2017SOL     OW 8097   1.559   4.405   3.474
 2017SOL    HW2 8098   1.645   4.374   3.445
 2017SOL    HW3 8099   1.496   4.345   3.435
 2017SOL    MW4 8100   1.562   4.393   3.465
 2018SOL     OW 8101   1.988   4.627   3.395
 2018SOL    HW2 8102   2.059   4.684   3.425
 2018SOL    HW3 8103   1.908   4.667   3.430
 2018SOL    MW4 8104   1.987   4.640   3.404
 2019SOL     OW 8105   1.747   0.106   3.460
 2019SOL    HW2 8106   1.734   0.086   3.552
 2019SOL    HW3 8107   1.667   0.076   3.417
 2019SOL    MW4 8108   1.735   0.099   3.466
 2020SOL     OW 8109   1.804   0.361   3.391
 2020SOL    HW2 8110   1.789   0.268   3.408
 2020SOL    HW3 8111   1.799   0.369   3.296
 2020SOL    MW4 8112   1.801   0.350   3.381
 2021SOL     OW 8113   2.038   0.492   3.466
 2021SOL    HW2 8114   2.043   0.579   3.424
 2021SOL    HW3 8115   1.963   0.450   3.424
 2021SOL    MW4 8116   2.029   0.498   3.455
 2022SOL     OW 8117   2.028   0.764   3.374
 2022SOL    HW2 8118   2.100   0.816   3.410
 2022SOL    HW3 8119   2.047   0.758   3.281
 2022SOL    MW4 8120   2.040   0.770   3.367
 2023SOL     OW 8121   1.793   0.886   3.463
 2023SOL    HW2 8122   1.870   0.850   3.420
 2023SOL    HW3 8123   1.721   0.827   3.437
 2023SOL    MW4 8124   1.793   0.873   3.454
 2024SOL     OW 8125   1.777   1.127   3.345
 2024SOL    HW2 8126   1.861   1.169   3.365
 2024SOL    HW3 8127   1.780   1.044   3.393
 2024SOL    MW4 8128   1.789   1.122   3.354
 2025SOL     OW 8129   1.988   1.284   3.425
 2025SOL    HW2 8130   2.017   1.281   3.516
 2025SOL    HW3 8131   1.995   1.377   3.402
 2025SOL    MW4 8132   1.993   1.296   3.434
 2026SOL     OW 8133   2.000   1.550   3.368
 2026SOL    HW2 8134   2.075   1.604   3.395
 2026SOL    HW3 8135   1.924   1.596   3.402
 2026SOL    MW4 8136   2.000   1.563   3.376
 2027SOL     OW 8137   1.748   1.672   3.433
 2027SOL    HW2 8138   1.739   1.763   3.404
 2027SOL    HW3 8139   1.665   1.630   3.409
 2027SOL    MW4 8140   1.736   1.678   3.426
 2028SOL     OW 8141   1.785   1.929   3.358
 2028SOL    HW2 8142   1.876   1.951   3.380
 2028SOL    HW3 8143   1.775   1.961   3.268
 2028SOL    MW4 8144   1.796   1.936   3.349
 2029SOL     OW 8145   2.026   2.011   3.469
 2029SOL    HW2 8146   2.115   1.983   3.447
 2029SOL    HW3 8147   2.016   2.095   3.424
 2029SOL    MW4 8148   2.037   2.018   3.460
 2030SOL     OW 8149   1.975   2.283   3.344
 2030SOL    HW2 8150   2.044   2.319   3.399
 2030SOL    HW3 8151   1.992   2.320   3.257
 2030SOL    MW4 8152   1.986   2.292   3.340
 2031SOL     OW 8153   1.744   2.429   3.480
 2031SOL    HW2 8154   1.818   2.395   3.430
 2031SOL    HW3 8155   1.668   2.381   3.445
 2031SOL    MW4 8156   1.744   2.418   3.468
 2032SOL     OW 8157   1.770   2.694   3.410
 2032SOL    HW2 8158   1.852   2.730   3.443
 2032SOL    HW3 8159   1.764   2.607   3.451
 2032SOL    MW4 8160   1.780   2.687   3.420
 2033SOL     OW 8161   2.013   2.824   3.455
 2033SOL    HW2 8162   2.016   2.820   3.550
 2033SOL    HW3 8163   2.006   2.918   3.435
 2033SOL    MW4 8164   2.012   2.836   3.465
 2034SOL     OW 8165   1.998   3.095   3.372
 2034SOL    HW2 8166   2.082   3.129   3.403
 2034SOL    HW3 8167   1.933   3.157   3.404
 2034SOL    MW4 8168   2.000   3.107   3.380
 2035SOL     OW 8169   1.804   3.267   3.476
 2035SOL    HW2 8170   1.785   3.254   3.569
 2035SOL    HW3 8171   1.825   3.360   3.469
 2035SOL    MW4 8172   1.804   3.278   3.488
 2036SOL     OW 8173   1.830   3.532   3.431
 2036SOL    HW2 8174   1.744   3.557   3.465
 2036SOL    HW3 8175   1.816   3.519   3.337
 2036SOL    MW4 8176   1.817   3.533   3.423
 2037SOL     OW 8177   2.051   3.659   3.512
 2037SOL    HW2 8178   2.115   3.601   3.471
 2037SOL    HW3 8179   1.966   3.619   3.491
 2037SOL    MW4 8180   2.048   3.647   3.503
 2038SOL     OW 8181   2.044   3.910   3.363
 2038SOL    HW2 8182   1.955   3.944   3.377
 2038SOL    HW3 8183   2.040   3.819   3.392
 2038SOL    MW4 8184   2.032   3.903   3.368
 2039SOL     OW 8185   1.780   3.975   3.433
 2039SOL    HW2 8186   1.778   4.000   3.525
 2039SOL    HW3 8187   1.694   3.938   3.416
 2039SOL    MW4 8188   1.769   3.973   3.443
 2040SOL     OW 8189   1.803   4.269   3.397
 2040SOL    HW2 8190   1.776   4.178   3.389
 2040SOL    HW3 8191   1.809   4.300   3.307
 2040SOL    MW4 8192   1.801   4.261   3.384
 2041SOL     OW 8193   2.064   4.377   3.484
 2041SOL    HW2 8194   1.986   4.323   3.469
 2041SOL    HW3 8195   2.037   4.465   3.459
 2041SOL    MW4 8196   2.050   4.382   3.479
 2042SOL     OW 8197   2.449   4.648   3.401
 2042SOL    HW2 8198   2.460   4.561   3.439
 2042SOL    HW3 8199   2.448   4.634   3.307
 2042SOL    MW4 8200   2.451   4.635   3.394
 2043SOL     OW 8201   2.203   0.119   3.456
 2043SOL    HW2 8202   2.223   0.196   3.402
 2043SOL    HW3 8203   2.262   0.051   3.423
 2043SOL    MW4 8204   2.214   0.120   3.444
 2044SOL     OW 8205   2.253   0.362   3.346
 2044SOL    HW2 8206   2.327   0.402   3.393
 2044SOL    HW3 8207   2.176   0.390   3.396
 2044SOL    MW4 8208   2.253   0.371   3.359
 2045SOL     OW 8209   2.472   0.479   3.487
 2045SOL    HW2 8210   2.543   0.430   3.446
 2045SOL    HW3 8211   2.485   0.569   3.457
 2045SOL    MW4 8212   2.483   0.484   3.478
 2046SOL     OW 8213   2.506   0.734   3.385
 2046SOL    HW2 8214   2.587   0.779   3.409
 2046SOL    HW3 8215   2.493   0.757   3.293
 2046SOL    MW4 8216   2.515   0.743   3.376
 2047SOL     OW 8217   2.276   0.866   3.457
 2047SOL    HW2 8218   2.295   0.955   3.429
 2047SOL    HW3 8219   2.354   0.816   3.434
 2047SOL    MW4 8220   2.289   0.871   3.450
 2048SOL     OW 8221   2.239   1.166   3.379
 2048SOL    HW2 8222   2.300   1.236   3.404
 2048SOL    HW3 8223   2.153   1.200   3.401
 2048SOL    MW4 8224   2.236   1.179   3.386
 2049SOL     OW 8225   2.488   1.295   3.453
 2049SOL    HW2 8226   2.504   1.294   3.548
 2049SOL    HW3 8227   2.540   1.221   3.420
 2049SOL    MW4 8228   2.497   1.285   3.462
 2050SOL     OW 8229   2.482   1.590   3.433
 2050SOL    HW2 8230   2.493   1.498   3.455
 2050SOL    HW3 8231   2.473   1.592   3.338
 2050SOL    MW4 8232   2.483   1.578   3.423
 2051SOL     OW 8233   2.234   1.698   3.450
 2051SOL    HW2 8234   2.204   1.716   3.540
 2051SOL    HW3 8235   2.323   1.665   3.460
 2051SOL    MW4 8236   2.241   1.696   3.463
 2052SOL     OW 8237   2.274   1.944   3.349
 2052SOL    HW2 8238   2.260   1.851   3.367
 2052SOL    HW3 8239   2.266   1.952   3.254
 2052SOL    MW4 8240   2.271   1.933   3.339
 2053SOL     OW 8241   2.496   2.051   3.450
 2053SOL    HW2 8242   2.476   2.038   3.542
 2053SOL    HW3 8243   2.418   2.021   3.403
 2053SOL    MW4 8244   2.483   2.046   3.456
 2054SOL     OW 8245   2.413   2.292   3.363
 2054SOL    HW2 8246   2.476   2.360   3.388
 2054SOL    HW3 8247   2.452   2.211   3.396
 2054SOL    MW4 8248   2.427   2.290   3.371
 2055SOL     OW 8249   2.188   2.425   3.493
 2055SOL    HW2 8250   2.220   2.499   3.442
 2055SOL    HW3 8251   2.247   2.353   3.471
 2055SOL    MW4 8252   2.200   2.425   3.483
 2056SOL     OW 8253   2.222   2.665   3.364
 2056SOL    HW2 8254   2.145   2.711   3.396
 2056SOL    HW3 8255   2.210   2.662   3.269
 2056SOL    MW4 8256   2.210   2.670   3.355
 2057SOL     OW 8257   2.406   2.824   3.488
 2057SOL    HW2 8258   2.393   2.916   3.463
 2057SOL    HW3 8259   2.339   2.777   3.440
 2057SOL    MW4 8260   2.396   2.830   3.478
 2058SOL     OW 8261   2.438   3.087   3.390
 2058SOL    HW2 8262   2.512   3.144   3.411
 2058SOL    HW3 8263   2.440   3.080   3.295
 2058SOL    MW4 8264   2.448   3.094   3.381
 2059SOL     OW 8265   2.230   3.234   3.484
 2059SOL    HW2 8266   2.234   3.230   3.580
 2059SOL    HW3 8267   2.311   3.192   3.455
 2059SOL    MW4 8268   2.241   3.228   3.493
 2060SOL     OW 8269   2.244   3.494   3.414
 2060SOL    HW2 8270   2.253   3.403   3.442
 2060SOL    HW3 8271   2.250   3.491   3.319
 2060SOL    MW4 8272   2.246   3.481   3.405
 2061SOL     OW 8273   2.469   3.635   3.465
 2061SOL    HW2 8274   2.478   3.724   3.431
 2061SOL    HW3 8275   2.379   3.611   3.445
 2061SOL    MW4 8276   2.459   3.643   3.458
 2062SOL     OW 8277   2.466   3.883   3.379
 2062SOL    HW2 8278   2.546   3.910   3.425
 2062SOL    HW3 8279   2.396   3.928   3.426
 2062SOL    MW4 8280   2.467   3.893   3.391
 2063SOL     OW 8281   2.254   4.009   3.505
 2063SOL    HW2 8282   2.266   4.081   3.443
 2063SOL    HW3 8283   2.166   3.976   3.488
 2063SOL    MW4 8284   2.244   4.014   3.495
 2064SOL     OW 8285   2.272   4.237   3.352
 2064SOL    HW2 8286   2.207   4.296   3.390
 2064SOL    HW3 8287   2.260   4.245   3.257
 2064SOL    MW4 8288   2.262   4.246   3.344
 2065SOL     OW 8289   2.494   4.384   3.447
 2065SOL    HW2 8290   2.469   4.374   3.539
 2065SOL    HW3 8291   2.420   4.348   3.398
 2065SOL    MW4 8292   2.481   4.378   3.452
 2066SOL     OW 8293   2.910   4.646   3.366
 2066SOL    HW2 8294   2.839   4.682   3.419
 2066SOL    HW3 8295   2.881   4.658   3.276
 2066SOL    MW4 8296   2.897   4.652   3.361
 2067SOL     OW 8297   2.675   0.116   3.481
 2067SOL    HW2 8298   2.685   0.209   3.460
 2067SOL    HW3 8299   2.587   0.094   3.450
 2067SOL    MW4 8300   2.665   0.126   3.474
 2068SOL     OW 8301   2.698   0.360   3.371
 2068SOL    HW2 8302   2.773   0.408   3.407
 2068SOL    HW3 8303   2.705   0.373   3.276
 2068SOL    MW4 8304   2.709   0.368   3.363
 2069SOL     OW 8305   2.901   0.488   3.502
 2069SOL    HW2 8306   2.900   0.515   3.594
 2069SOL    HW3 8307   2.926   0.567   3.454
 2069SOL    MW4 8308   2.904   0.502   3.508
 2070SOL     OW 8309   2.947   0.712   3.347
 2070SOL    HW2 8310   3.024   0.748   3.391
 2070SOL    HW3 8311   2.874   0.762   3.383
 2070SOL    MW4 8312   2.948   0.724   3.358
 2071SOL     OW 8313   2.743   0.867   3.461
 2071SOL    HW2 8314   2.756   0.871   3.556
 2071SOL    HW3 8315   2.739   0.958   3.433
 2071SOL    MW4 8316   2.744   0.880   3.470
 2072SOL     OW 8317   2.693   1.125   3.344
 2072SOL    HW2 8318   2.756   1.190   3.375
 2072SOL    HW3 8319   2.707   1.121   3.249
 2072SOL    MW4 8320   2.703   1.133   3.335
 2073SOL     OW 8321   2.923   1.289   3.447
 2073SOL    HW2 8322   2.920   1.299   3.542
 2073SOL    HW3 8323   3.004   1.241   3.431
 2073SOL    MW4 8324   2.933   1.284   3.458
 2074SOL     OW 8325   2.937   1.547   3.347
 2074SOL    HW2 8326   2.860   1.591   3.383
 2074SOL    HW3 8327   2.926   1.455   3.374
 2074SOL    MW4 8328   2.925   1.540   3.355
 2075SOL     OW 8329   2.729   1.686   3.469
 2075SOL    HW2 8330   2.729   1.776   3.438
 2075SOL    HW3 8331   2.641   1.654   3.451
 2075SOL    MW4 8332   2.718   1.693   3.463
 2076SOL     OW 8333   2.721   1.924   3.358
 2076SOL    HW2 8334   2.636   1.960   3.385
 2076SOL    HW3 8335   2.718   1.923   3.263
 2076SOL    MW4 8336   2.709   1.929   3.349
 2077SOL     OW 8337   2.923   2.044   3.492
 2077SOL    HW2 8338   2.910   2.054   3.586
 2077SOL    HW3 8339   2.842   2.004   3.460
 2077SOL    MW4 8340   2.911   2.040   3.500
 2078SOL     OW 8341   2.873   2.299   3.385
 2078SOL    HW2 8342   2.895   2.215   3.427
 2078SOL    HW3 8343   2.882   2.282   3.291
 2078SOL    MW4 8344   2.877   2.285   3.378
 2079SOL     OW 8345   2.653   2.454   3.466
 2079SOL    HW2 8346   2.651   2.445   3.561
 2079SOL    HW3 8347   2.730   2.405   3.438
 2079SOL    MW4 8348   2.663   2.447   3.475
 2080SOL     OW 8349   2.643   2.729   3.387
 2080SOL    HW2 8350   2.646   2.641   3.423
 2080SOL    HW3 8351   2.564   2.768   3.426
 2080SOL    MW4 8352   2.633   2.723   3.397
 2081SOL     OW 8353   2.876   2.850   3.460
 2081SOL    HW2 8354   2.878   2.851   3.556
 2081SOL    HW3 8355   2.793   2.808   3.438
 2081SOL    MW4 8356   2.865   2.844   3.470
 2082SOL     OW 8357   2.868   3.111   3.360
 2082SOL    HW2 8358   2.874   3.021   3.393
 2082SOL    HW3 8359   2.866   3.102   3.265
 2082SOL    MW4 8360   2.869   3.098   3.352
 2083SOL     OW 8361   2.655   3.224   3.503
 2083SOL    HW2 8362   2.682   3.253   3.590
 2083SOL    HW3 8363   2.734   3.184   3.465
 2083SOL    MW4 8364   2.669   3.223   3.509
 2084SOL     OW 8365   2.673   3.474   3.380
 2084SOL    HW2 8366   2.651   3.386   3.409
 2084SOL    HW3 8367   2.600   3.528   3.410
 2084SOL    MW4 8368   2.661   3.470   3.388
 2085SOL     OW 8369   2.939   3.578   3.493
 2085SOL    HW2 8370   2.946   3.669   3.463
 2085SOL    HW3 8371   2.857   3.546   3.453
 2085SOL    MW4 8372   2.929   3.586   3.483
 2086SOL     OW 8373   2.941   3.848   3.368
 2086SOL    HW2 8374   3.018   3.900   3.391
 2086SOL    HW3 8375   2.867   3.896   3.406
 2086SOL    MW4 8376   2.941   3.861   3.376
 2087SOL     OW 8377   2.716   3.952   3.484
 2087SOL    HW2 8378   2.711   3.946   3.579
 2087SOL    HW3 8379   2.711   4.046   3.466
 2087SOL    MW4 8380   2.715   3.964   3.494
 2088SOL     OW 8381   2.734   4.240   3.386
 2088SOL    HW2 8382   2.814   4.283   3.416
 2088SOL    HW3 8383   2.664   4.299   3.414
 2088SOL    MW4 8384   2.736   4.254   3.393
 2089SOL     OW 8385   2.948   4.374   3.475
 2089SOL    HW2 8386   2.924   4.393   3.566
 2089SOL    HW3 8387   2.932   4.456   3.428
 2089SOL    MW4 8388   2.943   4.387   3.481
 2090SOL     OW 8389   3.363   0.014   3.377
 2090SOL    HW2 8390   3.272   0.027   3.406
 2090SOL    HW3 8391   3.357   0.011   3.282
 2090SOL    MW4 8392   3.350   0.015   3.368
 2091SOL     OW 8393   3.114   0.097   3.490
 2091SOL    HW2 8394   3.109   0.186   3.456
 2091SOL    HW3 8395   3.040   0.052   3.450
 2091SOL    MW4 8396   3.104   0.102   3.480
 2092SOL     OW 8397   3.131   0.377   3.405
 2092SOL    HW2 8398   3.045   0.409   3.432
 2092SOL    HW3 8399   3.129   0.379   3.310
 2092SOL    MW4 8400   3.120   0.382   3.396
 2093SOL     OW 8401   3.387   0.491   3.483
 2093SOL    HW2 8402   3.371   0.487   3.578
 2093SOL    HW3 8403   3.310   0.450   3.444
 2093SOL    MW4 8404   3.375   0.485   3.490
 2094SOL     OW 8405   3.387   0.753   3.377
 2094SOL    HW2 8406   3.458   0.804   3.416
 2094SOL    HW3 8407   3.394   0.667   3.418
 2094SOL    MW4 8408   3.397   0.748   3.388
 2095SOL     OW 8409   3.166   0.844   3.498
 2095SOL    HW2 8410   3.159   0.933   3.464
 2095SOL    HW3 8411   3.248   0.810   3.461
 2095SOL    MW4 8412   3.176   0.851   3.489
 2096SOL     OW 8413   3.130   1.119   3.400
 2096SOL    HW2 8414   3.202   1.175   3.429
 2096SOL    HW3 8415   3.128   1.129   3.305
 2096SOL    MW4 8416   3.139   1.128   3.391
 2097SOL     OW 8417   3.336   1.282   3.454
 2097SOL    HW2 8418   3.421   1.245   3.431
 2097SOL    HW3 8419   3.334   1.368   3.411
 2097SOL    MW4 8420   3.347   1.289   3.446
 2098SOL     OW 8421   3.369   1.536   3.356
 2098SOL    HW2 8422   3.448   1.571   3.396
 2098SOL    HW3 8423   3.297   1.583   3.399
 2098SOL    MW4 8424   3.370   1.547   3.367
 2099SOL     OW 8425   3.154   1.670   3.458
 2099SOL    HW2 8426   3.149   1.759   3.422
 2099SOL    HW3 8427   3.076   1.626   3.422
 2099SOL    MW4 8428   3.143   1.676   3.448
 2100SOL     OW 8429   3.158   1.931   3.380
 2100SOL    HW2 8430   3.078   1.974   3.411
 2100SOL    HW3 8431   3.144   1.920   3.286
 2100SOL    MW4 8432   3.146   1.935   3.371
 2101SOL     OW 8433   3.362   2.053   3.516
 2101SOL    HW2 8434   3.348   2.137   3.471
 2101SOL    HW3 8435   3.312   1.990   3.465
 2101SOL    MW4 8436   3.353   2.056   3.504
 2102SOL     OW 8437   3.322   2.293   3.377
 2102SOL    HW2 8438   3.402   2.338   3.405
 2102SOL    HW3 8439   3.251   2.347   3.411
 2102SOL    MW4 8440   3.323   2.306   3.385
 2103SOL     OW 8441   3.101   2.461   3.472
 2103SOL    HW2 8442   3.109   2.549   3.434
 2103SOL    HW3 8443   3.014   2.431   3.446
 2103SOL    MW4 8444   3.091   2.469   3.464
 2104SOL     OW 8445   3.145   2.717   3.366
 2104SOL    HW2 8446   3.227   2.739   3.409
 2104SOL    HW3 8447   3.079   2.766   3.415
 2104SOL    MW4 8448   3.147   2.727   3.378
 2105SOL     OW 8449   3.374   2.798   3.509
 2105SOL    HW2 8450   3.445   2.749   3.466
 2105SOL    HW3 8451   3.372   2.882   3.464
 2105SOL    MW4 8452   3.383   2.803   3.497
 2106SOL     OW 8453   3.375   3.060   3.390
 2106SOL    HW2 8454   3.445   3.125   3.386
 2106SOL    HW3 8455   3.306   3.102   3.441
 2106SOL    MW4 8456   3.375   3.074   3.397
 2107SOL     OW 8457   3.146   3.181   3.472
 2107SOL    HW2 8458   3.162   3.273   3.452
 2107SOL    HW3 8459   3.064   3.160   3.427
 2107SOL    MW4 8460   3.137   3.190   3.463
 2108SOL     OW 8461   3.180   3.467   3.403
 2108SOL    HW2 8462   3.103   3.509   3.441
 2108SOL    HW3 8463   3.162   3.465   3.309
 2108SOL    MW4 8464   3.168   3.473   3.396
 2109SOL     OW 8465   3.410   3.608   3.444
 2109SOL    HW2 8466   3.391   3.701   3.426
 2109SOL    HW3 8467   3.325   3.564   3.435
 2109SOL    MW4 8468   3.396   3.615   3.440
 2110SOL     OW 8469   3.411   3.875   3.365
 2110SOL    HW2 8470   3.492   3.914   3.397
 2110SOL    HW3 8471   3.341   3.927   3.403
 2110SOL    MW4 8472   3.412   3.887   3.374
 2111SOL     OW 8473   3.177   4.002   3.448
 2111SOL    HW2 8474   3.175   3.997   3.544
 2111SOL    HW3 8475   3.184   4.095   3.429
 2111SOL    MW4 8476   3.178   4.013   3.458
 2112SOL     OW 8477   3.195   4.283   3.372
 2112SOL    HW2 8478   3.261   4.319   3.432
 2112SOL    HW3 8479   3.112   4.314   3.407
 2112SOL    MW4 8480   3.193   4.292   3.385
 2113SOL     OW 8481   3.416   4.423   3.479
 2113SOL    HW2 8482   3.382   4.437   3.567
 2113SOL    HW3 8483   3.409   4.508   3.436
 2113SOL    MW4 8484   3.410   4.436   3.485
 2114SOL     OW 8485   3.854   0.010   3.352
 2114SOL    HW2 8486   3.773   0.045   3.389
 2114SOL    HW3 8487   3.831  -0.012   3.262
 2114SOL    MW4 8488   3.840   0.012   3.345
 2115SOL     OW 8489   3.616   0.098   3.474
 2115SOL    HW2 8490   3.621   0.188   3.442
 2115SOL    HW3 8491   3.533   0.065   3.439
 2115SOL    MW4 8492   3.606   0.106   3.465
 2116SOL     OW 8493   3.631   0.376   3.393
 2116SOL    HW2 8494   3.691   0.443   3.426
 2116SOL    HW3 8495   3.547   0.399   3.431
 2116SOL    MW4 8496   3.628   0.388   3.402
 2117SOL     OW 8497   3.827   0.547   3.518
 2117SOL    HW2 8498   3.833   0.550   3.613
 2117SOL    HW3 8499   3.888   0.478   3.492
 2117SOL    MW4 8500   3.836   0.539   3.527
 2118SOL     OW 8501   3.830   0.811   3.404
 2118SOL    HW2 8502   3.900   0.858   3.449
 2118SOL    HW3 8503   3.835   0.722   3.439
 2118SOL    MW4 8504   3.840   0.806   3.415
 2119SOL     OW 8505   3.584   0.912   3.493
 2119SOL    HW2 8506   3.600   0.901   3.586
 2119SOL    HW3 8507   3.664   0.878   3.451
 2119SOL    MW4 8508   3.597   0.906   3.500
 2120SOL     OW 8509   3.581   1.166   3.378
 2120SOL    HW2 8510   3.587   1.079   3.416
 2120SOL    HW3 8511   3.591   1.152   3.284
 2120SOL    MW4 8512   3.583   1.153   3.370
 2121SOL     OW 8513   3.836   1.246   3.467
 2121SOL    HW2 8514   3.826   1.241   3.562
 2121SOL    HW3 8515   3.749   1.225   3.433
 2121SOL    MW4 8516   3.823   1.243   3.475
 2122SOL     OW 8517   3.812   1.523   3.362
 2122SOL    HW2 8518   3.883   1.565   3.411
 2122SOL    HW3 8519   3.807   1.434   3.399
 2122SOL    MW4 8520   3.821   1.517   3.373
 2123SOL     OW 8521   3.584   1.661   3.462
 2123SOL    HW2 8522   3.586   1.750   3.427
 2123SOL    HW3 8523   3.656   1.617   3.417
 2123SOL    MW4 8524   3.594   1.667   3.452
 2124SOL     OW 8525   3.573   1.933   3.377
 2124SOL    HW2 8526   3.645   1.987   3.410
 2124SOL    HW3 8527   3.496   1.965   3.424
 2124SOL    MW4 8528   3.573   1.944   3.387
 2125SOL     OW 8529   3.789   2.079   3.473
 2125SOL    HW2 8530   3.786   2.081   3.568
 2125SOL    HW3 8531   3.872   2.035   3.453
 2125SOL    MW4 8532   3.800   2.073   3.483
 2126SOL     OW 8533   3.800   2.322   3.344
 2126SOL    HW2 8534   3.880   2.368   3.368
 2126SOL    HW3 8535   3.804   2.239   3.391
 2126SOL    MW4 8536   3.811   2.317   3.353
 2127SOL     OW 8537   3.561   2.416   3.477
 2127SOL    HW2 8538   3.557   2.509   3.459
 2127SOL    HW3 8539   3.629   2.383   3.417
 2127SOL    MW4 8540   3.570   2.424   3.467
 2128SOL     OW 8541   3.599   2.656   3.381
 2128SOL    HW2 8542   3.680   2.702   3.403
 2128SOL    HW3 8543   3.600   2.650   3.285
 2128SOL    MW4 8544   3.610   2.661   3.371
 2129SOL     OW 8545   3.801   2.815   3.469
 2129SOL    HW2 8546   3.815   2.818   3.564
 2129SOL    HW3 8547   3.816   2.904   3.439
 2129SOL    MW4 8548   3.805   2.827   3.477
 2130SOL     OW 8549   3.836   3.090   3.385
 2130SOL    HW2 8550   3.926   3.112   3.408
 2130SOL    HW3 8551   3.837   3.080   3.290
 2130SOL    MW4 8552   3.848   3.091   3.375
 2131SOL     OW 8553   3.600   3.244   3.438
 2131SOL    HW2 8554   3.621   3.328   3.397
 2131SOL    HW3 8555   3.682   3.196   3.438
 2131SOL    MW4 8556   3.613   3.249   3.433
 2132SOL     OW 8557   3.616   3.487   3.318
 2132SOL    HW2 8558   3.542   3.531   3.362
 2132SOL    HW3 8559   3.606   3.511   3.226
 2132SOL    MW4 8560   3.605   3.496   3.312
 2133SOL     OW 8561   3.843   3.597   3.455
 2133SOL    HW2 8562   3.827   3.602   3.549
 2133SOL    HW3 8563   3.763   3.558   3.419
 2133SOL    MW4 8564   3.830   3.593   3.463
 2134SOL     OW 8565   3.849   3.873   3.373
 2134SOL    HW2 8566   3.768   3.916   3.399
 2134SOL    HW3 8567   3.842   3.785   3.409
 2134SOL    MW4 8568   3.838   3.867   3.381
 2135SOL     OW 8569   3.631   4.007   3.483
 2135SOL    HW2 8570   3.628   3.997   3.579
 2135SOL    HW3 8571   3.641   4.102   3.470
 2135SOL    MW4 8572   3.632   4.019   3.494
 2136SOL     OW 8573   3.627   4.269   3.414
 2136SOL    HW2 8574   3.550   4.317   3.445
 2136SOL    HW3 8575   3.607   4.247   3.324
 2136SOL    MW4 8576   3.615   4.273   3.407
 2137SOL     OW 8577   3.884   4.410   3.470
 2137SOL    HW2 8578   3.803   4.367   3.444
 2137SOL    HW3 8579   3.885   4.492   3.421
 2137SOL    MW4 8580   3.874   4.415   3.460
 2138SOL     OW 8581   4.272   4.651   3.390
 2138SOL    HW2 8582   4.284   4.565   3.430
 2138SOL    HW3 8583   4.345   4.703   3.424
 2138SOL    MW4 8584   4.283   4.646   3.400
 2139SOL     OW 8585   4.044   0.094   3.516
 2139SOL    HW2 8586   4.119   0.039   3.493
 2139SOL    HW3 8587   3.975   0.067   3.455
 2139SOL    MW4 8588   4.044   0.083   3.505
 2140SOL     OW 8589   4.039   0.359   3.393
 2140SOL    HW2 8590   4.039   0.268   3.423
 2140SOL    HW3 8591   4.049   0.353   3.298
 2140SOL    MW4 8592   4.040   0.346   3.384
 2141SOL     OW 8593   4.243   0.528   3.467
 2141SOL    HW2 8594   4.217   0.609   3.422
 2141SOL    HW3 8595   4.170   0.468   3.451
 2141SOL    MW4 8596   4.230   0.531   3.459
 2142SOL     OW 8597   4.204   0.758   3.343
 2142SOL    HW2 8598   4.292   0.795   3.353
 2142SOL    HW3 8599   4.191   0.752   3.248
 2142SOL    MW4 8600   4.214   0.762   3.332
 2143SOL     OW 8601   4.059   0.905   3.533
 2143SOL    HW2 8602   4.071   0.987   3.486
 2143SOL    HW3 8603   4.105   0.839   3.481
 2143SOL    MW4 8604   4.066   0.907   3.520
 2144SOL     OW 8605   4.068   1.139   3.345
 2144SOL    HW2 8606   4.133   1.193   3.391
 2144SOL    HW3 8607   3.984   1.179   3.366
 2144SOL    MW4 8608   4.066   1.151   3.353
 2145SOL     OW 8609   4.267   1.288   3.486
 2145SOL    HW2 8610   4.262   1.370   3.437
 2145SOL    HW3 8611   4.355   1.254   3.467
 2145SOL    MW4 8612   4.278   1.294   3.477
 2146SOL     OW 8613   4.259   1.534   3.378
 2146SOL    HW2 8614   4.178   1.581   3.400
 2146SOL    HW3 8615   4.263   1.537   3.283
 2146SOL    MW4 8616   4.249   1.541   3.368
 2147SOL     OW 8617   4.022   1.654   3.484
 2147SOL    HW2 8618   4.007   1.661   3.579
 2147SOL    HW3 8619   4.004   1.742   3.451
 2147SOL    MW4 8620   4.018   1.667   3.492
 2148SOL     OW 8621   4.001   1.921   3.386
 2148SOL    HW2 8622   4.080   1.971   3.407
 2148SOL    HW3 8623   3.995   1.925   3.290
 2148SOL    MW4 8624   4.010   1.928   3.376
 2149SOL     OW 8625   4.211   2.060   3.486
 2149SOL    HW2 8626   4.227   2.149   3.457
 2149SOL    HW3 8627   4.287   2.010   3.455
 2149SOL    MW4 8628   4.223   2.065   3.478
 2150SOL     OW 8629   4.260   2.311   3.384
 2150SOL    HW2 8630   4.181   2.361   3.401
 2150SOL    HW3 8631   4.257   2.292   3.290
 2150SOL    MW4 8632   4.249   2.315   3.374
 2151SOL     OW 8633   4.029   2.472   3.433
 2151SOL    HW2 8634   4.033   2.462   3.528
 2151SOL    HW3 8635   4.048   2.565   3.417
 2151SOL    MW4 8636   4.032   2.483   3.443
 2152SOL     OW 8637   4.060   2.735   3.389
 2152SOL    HW2 8638   4.135   2.781   3.428
 2152SOL    HW3 8639   3.984   2.781   3.424
 2152SOL    MW4 8640   4.060   2.747   3.399
 2153SOL     OW 8641   4.286   2.876   3.478
 2153SOL    HW2 8642   4.277   2.865   3.572
 2153SOL    HW3 8643   4.357   2.816   3.454
 2153SOL    MW4 8644   4.294   2.867   3.487
 2154SOL     OW 8645   4.312   3.126   3.350
 2154SOL    HW2 8646   4.311   3.035   3.381
 2154SOL    HW3 8647   4.313   3.117   3.254
 2154SOL    MW4 8648   4.312   3.113   3.341
 2155SOL     OW 8649   4.063   3.226   3.460
 2155SOL    HW2 8650   4.068   3.313   3.420
 2155SOL    HW3 8651   4.139   3.179   3.427
 2155SOL    MW4 8652   4.074   3.232   3.451
 2156SOL     OW 8653   4.091   3.512   3.359
 2156SOL    HW2 8654   4.163   3.565   3.392
 2156SOL    HW3 8655   4.013   3.552   3.398
 2156SOL    MW4 8656   4.090   3.524   3.369
 2157SOL     OW 8657   4.346   3.630   3.441
 2157SOL    HW2 8658   4.331   3.635   3.535
 2157SOL    HW3 8659   4.324   3.718   3.408
 2157SOL    MW4 8660   4.341   3.643   3.449
 2158SOL     OW 8661   4.294   3.882   3.367
 2158SOL    HW2 8662   4.368   3.937   3.391
 2158SOL    HW3 8663   4.300   3.873   3.272
 2158SOL    MW4 8664   4.304   3.888   3.358
 2159SOL     OW 8665   4.053   4.004   3.488
 2159SOL    HW2 8666   4.119   3.956   3.437
 2159SOL    HW3 8667   3.971   3.959   3.468
 2159SOL    MW4 8668   4.051   3.991   3.478
 2160SOL     OW 8669   4.065   4.248   3.360
 2160SOL    HW2 8670   4.051   4.160   3.395
 2160SOL    HW3 8671   4.002   4.303   3.408
 2160SOL    MW4 8672   4.055   4.244   3.371
 2161SOL     OW 8673   4.275   4.400   3.479
 2161SOL    HW2 8674   4.278   4.391   3.575
 2161SOL    HW3 8675   4.206   4.339   3.452
 2161SOL    MW4 8676   4.266   4.391   3.488
 2162SOL     OW 8677   0.200   0.001   3.864
 2162SOL    HW2 8678   0.210   0.018   3.958
 2162SOL    HW3 8679   0.124   0.054   3.838
 2162SOL    MW4 8680   0.191   0.010   3.873
 2163SOL     OW 8681   4.485   0.132   3.725
 2163SOL    HW2 8682   4.471   0.221   3.756
 2163SOL    HW3 8683   4.511   0.142   3.633
 2163SOL    MW4 8684   4.486   0.145   3.717
 2164SOL     OW 8685   4.471   0.394   3.818
 2164SOL    HW2 8686   4.409   0.459   3.785
 2164SOL    HW3 8687   4.557   0.428   3.792
 2164SOL    MW4 8688   4.475   0.407   3.811
 2165SOL     OW 8689   0.221   0.524   3.755
 2165SOL    HW2 8690   0.205   0.605   3.803
 2165SOL    HW3 8691   0.229   0.551   3.663
 2165SOL    MW4 8692   0.220   0.538   3.749
 2166SOL     OW 8693   0.183   0.777   3.855
 2166SOL    HW2 8694   0.179   0.775   3.951
 2166SOL    HW3 8695   0.102   0.822   3.829
 2166SOL    MW4 8696   0.172   0.783   3.864
 2167SOL     OW 8697   4.437   0.914   3.751
 2167SOL    HW2 8698   4.365   0.879   3.803
 2167SOL    HW3 8699   4.455   1.000   3.789
 2167SOL    MW4 8700   4.430   0.920   3.763
 2168SOL     OW 8701   4.475   1.159   3.903
 2168SOL    HW2 8702   4.406   1.213   3.866
 2168SOL    HW3 8703   4.557   1.197   3.869
 2168SOL    MW4 8704   4.477   1.171   3.894
 2169SOL     OW 8705   0.188   1.287   3.805
 2169SOL    HW2 8706   0.185   1.382   3.818
 2169SOL    HW3 8707   0.210   1.275   3.713
 2169SOL    MW4 8708   0.190   1.298   3.795
 2170SOL     OW 8709   0.193   1.555   3.896
 2170SOL    HW2 8710   0.192   1.570   3.990
 2170SOL    HW3 8711   0.117   1.602   3.863
 2170SOL    MW4 8712   0.183   1.563   3.904
 2171SOL     OW 8713   4.474   1.708   3.749
 2171SOL    HW2 8714   4.470   1.795   3.788
 2171SOL    HW3 8715   4.513   1.722   3.663
 2171SOL    MW4 8716   4.479   1.721   3.743
 2172SOL     OW 8717   4.465   1.949   3.859
 2172SOL    HW2 8718   4.474   1.973   3.951
 2172SOL    HW3 8719   4.375   1.973   3.836
 2172SOL    MW4 8720   4.454   1.956   3.868
 2173SOL     OW 8721   0.227   2.064   3.734
 2173SOL    HW2 8722   0.232   2.153   3.767
 2173SOL    HW3 8723   0.143   2.031   3.766
 2173SOL    MW4 8724   0.217   2.071   3.743
 2174SOL     OW 8725   0.226   2.315   3.849
 2174SOL    HW2 8726   0.214   2.325   3.943
 2174SOL    HW3 8727   0.154   2.364   3.809
 2174SOL    MW4 8728   0.215   2.323   3.856
 2175SOL     OW 8729   0.006   2.460   3.762
 2175SOL    HW2 8730  -0.067   2.402   3.785
 2175SOL    HW3 8731  -0.007   2.537   3.818
 2175SOL    MW4 8732  -0.006   2.462   3.773
 2176SOL     OW 8733   4.486   2.691   3.893
 2176SOL    HW2 8734   4.446   2.743   3.962
 2176SOL    HW3 8735   4.566   2.738   3.870
 2176SOL    MW4 8736   4.491   2.704   3.899
 2177SOL     OW 8737   0.202   2.851   3.785
 2177SOL    HW2 8738   0.270   2.796   3.823
 2177SOL    HW3 8739   0.216   2.845   3.690
 2177SOL    MW4 8740   0.213   2.843   3.777
 2178SOL     OW 8741   0.220   3.110   3.859
 2178SOL    HW2 8742   0.228   3.103   3.954
 2178SOL    HW3 8743   0.238   3.022   3.826
 2178SOL    MW4 8744   0.224   3.098   3.867
 2179SOL     OW 8745   0.014   3.271   3.744
 2179SOL    HW2 8746   0.091   3.223   3.777
 2179SOL    HW3 8747   0.018   3.260   3.649
 2179SOL    MW4 8748   0.025   3.263   3.736
 2180SOL     OW 8749   4.475   3.528   3.824
 2180SOL    HW2 8750   4.540   3.585   3.783
 2180SOL    HW3 8751   4.497   3.440   3.793
 2180SOL    MW4 8752   4.486   3.524   3.815
 2181SOL     OW 8753   0.211   3.627   3.732
 2181SOL    HW2 8754   0.279   3.574   3.772
 2181SOL    HW3 8755   0.227   3.716   3.764
 2181SOL    MW4 8756   0.222   3.632   3.741
 2182SOL     OW 8757   0.217   3.877   3.827
 2182SOL    HW2 8758   0.233   3.865   3.921
 2182SOL    HW3 8759   0.301   3.906   3.792
 2182SOL    MW4 8760   0.230   3.879   3.835
 2183SOL     OW 8761   4.479   4.024   3.731
 2183SOL    HW2 8762   4.412   3.964   3.764
 2183SOL    HW3 8763   4.562   3.985   3.761
 2183SOL    MW4 8764   4.481   4.011   3.740
 2184SOL     OW 8765   0.009   4.269   3.874
 2184SOL    HW2 8766   0.082   4.313   3.832
 2184SOL    HW3 8767  -0.003   4.188   3.825
 2184SOL    MW4 8768   0.017   4.264   3.862
 2185SOL     OW 8769   0.223   4.423   3.769
 2185SOL    HW2 8770   0.304   4.383   3.801
 2185SOL    HW3 8771   0.225   4.513   3.802
 2185SOL    MW4 8772   0.234   4.430   3.777
 2186SOL     OW 8773   0.634   4.646   3.847
 2186SOL    HW2 8774   0.637   4.553   3.821
 2186SOL    HW3 8775   0.554   4.680   3.807
 2186SOL    MW4 8776   0.624   4.638   3.838
 2187SOL     OW 8777   0.430   0.114   3.720
 2187SOL    HW2 8778   0.423   0.202   3.758
 2187SOL    HW3 8779   0.356   0.066   3.758
 2187SOL    MW4 8780   0.419   0.120   3.730
 2188SOL     OW 8781   0.422   0.367   3.851
 2188SOL    HW2 8782   0.503   0.416   3.839
 2188SOL    HW3 8783   0.355   0.422   3.809
 2188SOL    MW4 8784   0.424   0.381   3.844
 2189SOL     OW 8785   0.652   0.505   3.772
 2189SOL    HW2 8786   0.727   0.452   3.801
 2189SOL    HW3 8787   0.659   0.585   3.823
 2189SOL    MW4 8788   0.663   0.508   3.782
 2190SOL     OW 8789   0.624   0.751   3.874
 2190SOL    HW2 8790   0.697   0.803   3.839
 2190SOL    HW3 8791   0.546   0.789   3.834
 2190SOL    MW4 8792   0.623   0.763   3.864
 2191SOL     OW 8793   0.418   0.898   3.747
 2191SOL    HW2 8794   0.412   0.980   3.796
 2191SOL    HW3 8795   0.340   0.849   3.773
 2191SOL    MW4 8796   0.407   0.902   3.757
 2192SOL     OW 8797   0.371   1.126   3.905
 2192SOL    HW2 8798   0.445   1.174   3.870
 2192SOL    HW3 8799   0.294   1.175   3.876
 2192SOL    MW4 8800   0.370   1.138   3.897
 2193SOL     OW 8801   0.590   1.267   3.810
 2193SOL    HW2 8802   0.672   1.224   3.837
 2193SOL    HW3 8803   0.593   1.265   3.715
 2193SOL    MW4 8804   0.601   1.261   3.801
 2194SOL     OW 8805   0.614   1.541   3.786
 2194SOL    HW2 8806   0.705   1.571   3.778
 2194SOL    HW3 8807   0.619   1.446   3.779
 2194SOL    MW4 8808   0.627   1.533   3.784
 2195SOL     OW 8809   0.385   1.692   3.751
 2195SOL    HW2 8810   0.460   1.633   3.765
 2195SOL    HW3 8811   0.314   1.651   3.800
 2195SOL    MW4 8812   0.386   1.679   3.759
 2196SOL     OW 8813   0.409   1.933   3.873
 2196SOL    HW2 8814   0.393   1.851   3.826
 2196SOL    HW3 8815   0.346   1.995   3.836
 2196SOL    MW4 8816   0.399   1.930   3.862
 2197SOL     OW 8817   0.648   2.046   3.783
 2197SOL    HW2 8818   0.643   2.130   3.829
 2197SOL    HW3 8819   0.580   1.992   3.824
 2197SOL    MW4 8820   0.638   2.050   3.795
 2198SOL     OW 8821   0.625   2.305   3.857
 2198SOL    HW2 8822   0.708   2.349   3.841
 2198SOL    HW3 8823   0.560   2.359   3.812
 2198SOL    MW4 8824   0.627   2.318   3.849
 2199SOL     OW 8825   0.429   2.464   3.748
 2199SOL    HW2 8826   0.351   2.414   3.771
 2199SOL    HW3 8827   0.431   2.463   3.652
 2199SOL    MW4 8828   0.419   2.457   3.738
 2200SOL     OW 8829   0.421   2.709   3.897
 2200SOL    HW2 8830   0.492   2.753   3.851
 2200SOL    HW3 8831   0.411   2.626   3.851
 2200SOL    MW4 8832   0.429   2.704   3.885
 2201SOL     OW 8833   0.658   2.793   3.765
 2201SOL    HW2 8834   0.741   2.758   3.799
 2201SOL    HW3 8835   0.677   2.815   3.674
 2201SOL    MW4 8836   0.672   2.791   3.758
 2202SOL     OW 8837   0.732   3.044   3.869
 2202SOL    HW2 8838   0.728   3.058   3.963
 2202SOL    HW3 8839   0.690   2.959   3.855
 2202SOL    MW4 8840   0.726   3.035   3.879
 2203SOL     OW 8841   0.504   3.208   3.777
 2203SOL    HW2 8842   0.575   3.173   3.830
 2203SOL    HW3 8843   0.424   3.180   3.822
 2203SOL    MW4 8844   0.503   3.200   3.790
 2204SOL     OW 8845   0.444   3.470   3.832
 2204SOL    HW2 8846   0.527   3.512   3.810
 2204SOL    HW3 8847   0.453   3.381   3.797
 2204SOL    MW4 8848   0.456   3.464   3.824
 2205SOL     OW 8849   0.677   3.592   3.764
 2205SOL    HW2 8850   0.676   3.682   3.798
 2205SOL    HW3 8851   0.689   3.603   3.669
 2205SOL    MW4 8852   0.679   3.606   3.756
 2206SOL     OW 8853   0.665   3.861   3.836
 2206SOL    HW2 8854   0.660   3.898   3.924
 2206SOL    HW3 8855   0.730   3.915   3.791
 2206SOL    MW4 8856   0.673   3.873   3.842
 2207SOL     OW 8857   0.452   4.022   3.735
 2207SOL    HW2 8858   0.529   3.988   3.782
 2207SOL    HW3 8859   0.472   4.006   3.643
 2207SOL    MW4 8860   0.465   4.015   3.729
 2208SOL     OW 8861   0.419   4.278   3.889
 2208SOL    HW2 8862   0.484   4.327   3.840
 2208SOL    HW3 8863   0.415   4.193   3.846
 2208SOL    MW4 8864   0.427   4.273   3.877
 2209SOL     OW 8865   0.606   4.389   3.715
 2209SOL    HW2 8866   0.688   4.351   3.745
 2209SOL    HW3 8867   0.618   4.399   3.620
 2209SOL    MW4 8868   0.618   4.385   3.706
 2210SOL     OW 8869   1.092   4.665   3.836
 2210SOL    HW2 8870   1.171   4.704   3.799
 2210SOL    HW3 8871   1.098   4.572   3.815
 2210SOL    MW4 8872   1.103   4.658   3.828
 2211SOL     OW 8873   0.856   0.119   3.733
 2211SOL    HW2 8874   0.929   0.064   3.760
 2211SOL    HW3 8875   0.779   0.081   3.776
 2211SOL    MW4 8876   0.855   0.107   3.743
 2212SOL     OW 8877   0.868   0.367   3.872
 2212SOL    HW2 8878   0.835   0.360   3.961
 2212SOL    HW3 8879   0.864   0.277   3.838
 2212SOL    MW4 8880   0.863   0.354   3.879
 2213SOL     OW 8881   1.085   0.493   3.747
 2213SOL    HW2 8882   1.169   0.461   3.779
 2213SOL    HW3 8883   1.020   0.438   3.790
 2213SOL    MW4 8884   1.088   0.482   3.757
 2214SOL     OW 8885   1.075   0.761   3.806
 2214SOL    HW2 8886   1.071   0.761   3.902
 2214SOL    HW3 8887   1.069   0.669   3.781
 2214SOL    MW4 8888   1.074   0.749   3.815
 2215SOL     OW 8889   0.830   0.872   3.734
 2215SOL    HW2 8890   0.909   0.823   3.756
 2215SOL    HW3 8891   0.830   0.877   3.639
 2215SOL    MW4 8892   0.841   0.866   3.724
 2216SOL     OW 8893   0.850   1.134   3.843
 2216SOL    HW2 8894   0.865   1.118   3.936
 2216SOL    HW3 8895   0.832   1.047   3.807
 2216SOL    MW4 8896   0.849   1.121   3.851
 2217SOL     OW 8897   1.088   1.251   3.696
 2217SOL    HW2 8898   1.094   1.341   3.730
 2217SOL    HW3 8899   1.001   1.222   3.723
 2217SOL    MW4 8900   1.078   1.259   3.704
 2218SOL     OW 8901   1.086   1.500   3.821
 2218SOL    HW2 8902   1.076   1.505   3.916
 2218SOL    HW3 8903   1.162   1.554   3.801
 2218SOL    MW4 8904   1.095   1.507   3.831
 2219SOL     OW 8905   0.851   1.652   3.753
 2219SOL    HW2 8906   0.934   1.610   3.776
 2219SOL    HW3 8907   0.854   1.661   3.658
 2219SOL    MW4 8908   0.862   1.648   3.744
 2220SOL     OW 8909   0.912   1.916   3.832
 2220SOL    HW2 8910   0.899   1.821   3.828
 2220SOL    HW3 8911   0.829   1.953   3.801
 2220SOL    MW4 8912   0.899   1.908   3.827
 2221SOL     OW 8913   1.127   2.041   3.737
 2221SOL    HW2 8914   1.041   2.001   3.753
 2221SOL    HW3 8915   1.124   2.069   3.646
 2221SOL    MW4 8916   1.115   2.040   3.727
 2222SOL     OW 8917   1.127   2.313   3.858
 2222SOL    HW2 8918   1.105   2.311   3.951
 2222SOL    HW3 8919   1.110   2.224   3.828
 2222SOL    MW4 8920   1.122   2.301   3.867
 2223SOL     OW 8921   0.871   2.407   3.775
 2223SOL    HW2 8922   0.873   2.501   3.791
 2223SOL    HW3 8923   0.956   2.376   3.807
 2223SOL    MW4 8924   0.883   2.415   3.781
 2224SOL     OW 8925   0.912   2.671   3.848
 2224SOL    HW2 8926   0.907   2.649   3.941
 2224SOL    HW3 8927   0.992   2.722   3.839
 2224SOL    MW4 8928   0.922   2.675   3.859
 2225SOL     OW 8929   1.145   2.807   3.758
 2225SOL    HW2 8930   1.226   2.781   3.802
 2225SOL    HW3 8931   1.139   2.902   3.772
 2225SOL    MW4 8932   1.155   2.816   3.765
 2226SOL     OW 8933   1.140   3.096   3.821
 2226SOL    HW2 8934   1.220   3.147   3.811
 2226SOL    HW3 8935   1.070   3.156   3.795
 2226SOL    MW4 8936   1.141   3.111   3.816
 2227SOL     OW 8937   0.919   3.228   3.740
 2227SOL    HW2 8938   0.846   3.174   3.769
 2227SOL    HW3 8939   0.914   3.228   3.645
 2227SOL    MW4 8940   0.909   3.221   3.731
 2228SOL     OW 8941   0.915   3.456   3.887
 2228SOL    HW2 8942   0.910   3.366   3.857
 2228SOL    HW3 8943   0.836   3.497   3.851
 2228SOL    MW4 8944   0.904   3.450   3.878
 2229SOL     OW 8945   1.107   3.651   3.818
 2229SOL    HW2 8946   1.076   3.735   3.853
 2229SOL    HW3 8947   1.048   3.586   3.856
 2229SOL    MW4 8948   1.095   3.653   3.828
 2230SOL     OW 8949   1.064   3.935   3.850
 2230SOL    HW2 8950   1.054   3.944   3.944
 2230SOL    HW3 8951   1.159   3.935   3.835
 2230SOL    MW4 8952   1.075   3.936   3.860
 2231SOL     OW 8953   0.848   4.041   3.716
 2231SOL    HW2 8954   0.928   3.997   3.746
 2231SOL    HW3 8955   0.854   4.038   3.621
 2231SOL    MW4 8956   0.860   4.035   3.708
 2232SOL     OW 8957   0.811   4.278   3.861
 2232SOL    HW2 8958   0.790   4.265   3.953
 2232SOL    HW3 8959   0.820   4.190   3.825
 2232SOL    MW4 8960   0.809   4.265   3.868
 2233SOL     OW 8961   1.041   4.395   3.766
 2233SOL    HW2 8962   0.964   4.355   3.806
 2233SOL    HW3 8963   1.033   4.374   3.673
 2233SOL    MW4 8964   1.030   4.387   3.759
 2234SOL     OW 8965   1.556   4.609   3.863
 2234SOL    HW2 8966   1.541   4.605   3.958
 2234SOL    HW3 8967   1.537   4.520   3.832
 2234SOL    MW4 8968   1.551   4.596   3.872
 2235SOL     OW 8969   1.364   0.105   3.753
 2235SOL    HW2 8970   1.372   0.182   3.810
 2235SOL    HW3 8971   1.425   0.041   3.791
 2235SOL    MW4 8972   1.373   0.107   3.766
 2236SOL     OW 8973   1.308   0.371   3.863
 2236SOL    HW2 8974   1.292   0.398   3.954
 2236SOL    HW3 8975   1.399   0.395   3.847
 2236SOL    MW4 8976   1.318   0.378   3.873
 2237SOL     OW 8977   1.551   0.445   3.786
 2237SOL    HW2 8978   1.641   0.418   3.804
 2237SOL    HW3 8979   1.548   0.537   3.812
 2237SOL    MW4 8980   1.563   0.454   3.792
 2238SOL     OW 8981   1.569   0.736   3.831
 2238SOL    HW2 8982   1.646   0.783   3.799
 2238SOL    HW3 8983   1.495   0.789   3.800
 2238SOL    MW4 8984   1.569   0.750   3.822
 2239SOL     OW 8985   1.324   0.876   3.737
 2239SOL    HW2 8986   1.311   0.960   3.781
 2239SOL    HW3 8987   1.240   0.831   3.744
 2239SOL    MW4 8988   1.311   0.881   3.743
 2240SOL     OW 8989   1.311   1.122   3.823
 2240SOL    HW2 8990   1.384   1.171   3.786
 2240SOL    HW3 8991   1.233   1.161   3.783
 2240SOL    MW4 8992   1.311   1.133   3.813
 2241SOL     OW 8993   1.555   1.248   3.728
 2241SOL    HW2 8994   1.646   1.219   3.731
 2241SOL    HW3 8995   1.554   1.330   3.777
 2241SOL    MW4 8996   1.567   1.255   3.735
 2242SOL     OW 8997   1.494   1.510   3.827
 2242SOL    HW2 8998   1.505   1.493   3.920
 2242SOL    HW3 8999   1.575   1.555   3.801
 2242SOL    MW4 9000   1.506   1.514   3.835
 2243SOL     OW 9001   1.300   1.635   3.706
 2243SOL    HW2 9002   1.322   1.725   3.728
 2243SOL    HW3 9003   1.364   1.582   3.753
 2243SOL    MW4 9004   1.311   1.640   3.715
 2244SOL     OW 9005   1.344   1.881   3.804
 2244SOL    HW2 9006   1.336   1.870   3.898
 2244SOL    HW3 9007   1.271   1.937   3.779
 2244SOL    MW4 9008   1.334   1.887   3.813
 2245SOL     OW 9009   1.577   2.036   3.757
 2245SOL    HW2 9010   1.501   1.980   3.771
 2245SOL    HW3 9011   1.583   2.047   3.662
 2245SOL    MW4 9012   1.568   2.030   3.746
 2246SOL     OW 9013   1.554   2.317   3.859
 2246SOL    HW2 9014   1.642   2.352   3.840
 2246SOL    HW3 9015   1.554   2.229   3.822
 2246SOL    MW4 9016   1.566   2.310   3.852
 2247SOL     OW 9017   1.351   2.473   3.760
 2247SOL    HW2 9018   1.422   2.414   3.784
 2247SOL    HW3 9019   1.272   2.429   3.789
 2247SOL    MW4 9020   1.350   2.459   3.767
 2248SOL     OW 9021   1.363   2.712   3.893
 2248SOL    HW2 9022   1.371   2.691   3.986
 2248SOL    HW3 9023   1.350   2.627   3.851
 2248SOL    MW4 9024   1.362   2.698   3.900
 2249SOL     OW 9025   1.586   2.844   3.768
 2249SOL    HW2 9026   1.517   2.792   3.809
 2249SOL    HW3 9027   1.561   2.848   3.676
 2249SOL    MW4 9028   1.573   2.838   3.762
 2250SOL     OW 9029   1.557   3.113   3.864
 2250SOL    HW2 9030   1.546   3.106   3.958
 2250SOL    HW3 9031   1.558   3.022   3.833
 2250SOL    MW4 9032   1.556   3.100   3.872
 2251SOL     OW 9033   1.360   3.269   3.766
 2251SOL    HW2 9034   1.376   3.351   3.813
 2251SOL    HW3 9035   1.429   3.210   3.795
 2251SOL    MW4 9036   1.371   3.272   3.776
 2252SOL     OW 9037   1.360   3.533   3.870
 2252SOL    HW2 9038   1.430   3.572   3.817
 2252SOL    HW3 9039   1.283   3.586   3.850
 2252SOL    MW4 9040   1.359   3.545   3.861
 2253SOL     OW 9041   1.609   3.651   3.750
 2253SOL    HW2 9042   1.664   3.602   3.810
 2253SOL    HW3 9043   1.599   3.737   3.791
 2253SOL    MW4 9044   1.615   3.656   3.763
 2254SOL     OW 9045   1.603   3.911   3.846
 2254SOL    HW2 9046   1.594   3.907   3.942
 2254SOL    HW3 9047   1.517   3.940   3.816
 2254SOL    MW4 9048   1.591   3.914   3.855
 2255SOL     OW 9049   1.342   3.978   3.782
 2255SOL    HW2 9050   1.336   4.068   3.815
 2255SOL    HW3 9051   1.331   3.987   3.687
 2255SOL    MW4 9052   1.340   3.991   3.773
 2256SOL     OW 9053   1.272   4.240   3.835
 2256SOL    HW2 9054   1.340   4.297   3.799
 2256SOL    HW3 9055   1.190   4.276   3.802
 2256SOL    MW4 9056   1.270   4.252   3.826
 2257SOL     OW 9057   1.513   4.364   3.753
 2257SOL    HW2 9058   1.592   4.327   3.794
 2257SOL    HW3 9059   1.531   4.359   3.659
 2257SOL    MW4 9060   1.526   4.358   3.746
 2258SOL     OW 9061   1.997   4.663   3.826
 2258SOL    HW2 9062   2.079   4.704   3.798
 2258SOL    HW3 9063   2.007   4.571   3.805
 2258SOL    MW4 9064   2.009   4.656   3.820
 2259SOL     OW 9065   1.753   0.109   3.742
 2259SOL    HW2 9066   1.828   0.082   3.795
 2259SOL    HW3 9067   1.683   0.050   3.768
 2259SOL    MW4 9068   1.754   0.098   3.752
 2260SOL     OW 9069   1.814   0.363   3.844
 2260SOL    HW2 9070   1.797   0.355   3.938
 2260SOL    HW3 9071   1.792   0.277   3.808
 2260SOL    MW4 9072   1.809   0.351   3.852
 2261SOL     OW 9073   2.048   0.482   3.751
 2261SOL    HW2 9074   1.983   0.418   3.778
 2261SOL    HW3 9075   2.035   0.491   3.657
 2261SOL    MW4 9076   2.038   0.475   3.742
 2262SOL     OW 9077   2.047   0.755   3.819
 2262SOL    HW2 9078   2.035   0.747   3.913
 2262SOL    HW3 9079   2.040   0.665   3.786
 2262SOL    MW4 9080   2.045   0.742   3.827
 2263SOL     OW 9081   1.806   0.849   3.747
 2263SOL    HW2 9082   1.886   0.806   3.777
 2263SOL    HW3 9083   1.811   0.847   3.652
 2263SOL    MW4 9084   1.817   0.843   3.738
 2264SOL     OW 9085   1.797   1.140   3.776
 2264SOL    HW2 9086   1.780   1.148   3.870
 2264SOL    HW3 9087   1.801   1.045   3.761
 2264SOL    MW4 9088   1.795   1.128   3.787
 2265SOL     OW 9089   2.026   1.312   3.696
 2265SOL    HW2 9090   2.108   1.282   3.735
 2265SOL    HW3 9091   1.959   1.258   3.736
 2265SOL    MW4 9092   2.028   1.301   3.706
 2266SOL     OW 9093   1.999   1.555   3.833
 2266SOL    HW2 9094   1.912   1.587   3.810
 2266SOL    HW3 9095   2.017   1.485   3.771
 2266SOL    MW4 9096   1.990   1.550   3.822
 2267SOL     OW 9097   1.747   1.615   3.722
 2267SOL    HW2 9098   1.737   1.706   3.747
 2267SOL    HW3 9099   1.734   1.614   3.627
 2267SOL    MW4 9100   1.744   1.627   3.713
 2268SOL     OW 9101   1.788   1.873   3.860
 2268SOL    HW2 9102   1.781   1.860   3.954
 2268SOL    HW3 9103   1.732   1.948   3.841
 2268SOL    MW4 9104   1.780   1.881   3.870
 2269SOL     OW 9105   2.008   2.007   3.754
 2269SOL    HW2 9106   1.933   1.956   3.785
 2269SOL    HW3 9107   2.013   1.988   3.660
 2269SOL    MW4 9108   1.999   1.998   3.745
 2270SOL     OW 9109   1.987   2.273   3.843
 2270SOL    HW2 9110   1.921   2.314   3.788
 2270SOL    HW3 9111   1.991   2.182   3.812
 2270SOL    MW4 9112   1.979   2.266   3.832
 2271SOL     OW 9113   1.781   2.415   3.743
 2271SOL    HW2 9114   1.797   2.506   3.770
 2271SOL    HW3 9115   1.760   2.421   3.650
 2271SOL    MW4 9116   1.780   2.428   3.735
 2272SOL     OW 9117   1.801   2.675   3.818
 2272SOL    HW2 9118   1.805   2.699   3.911
 2272SOL    HW3 9119   1.721   2.718   3.786
 2272SOL    MW4 9120   1.791   2.684   3.826
 2273SOL     OW 9121   2.023   2.808   3.728
 2273SOL    HW2 9122   2.094   2.769   3.779
 2273SOL    HW3 9123   1.944   2.766   3.761
 2273SOL    MW4 9124   2.022   2.797   3.739
 2274SOL     OW 9125   2.002   3.080   3.780
 2274SOL    HW2 9126   2.032   2.991   3.760
 2274SOL    HW3 9127   2.083   3.131   3.789
 2274SOL    MW4 9128   2.017   3.075   3.779
 2275SOL     OW 9129   1.783   3.247   3.756
 2275SOL    HW2 9130   1.863   3.194   3.762
 2275SOL    HW3 9131   1.715   3.189   3.790
 2275SOL    MW4 9132   1.785   3.232   3.761
 2276SOL     OW 9133   1.832   3.502   3.882
 2276SOL    HW2 9134   1.897   3.553   3.834
 2276SOL    HW3 9135   1.833   3.416   3.839
 2276SOL    MW4 9136   1.841   3.497   3.870
 2277SOL     OW 9137   2.051   3.649   3.780
 2277SOL    HW2 9138   2.116   3.585   3.809
 2277SOL    HW3 9139   2.067   3.659   3.686
 2277SOL    MW4 9140   2.062   3.642   3.772
 2278SOL     OW 9141   2.016   3.903   3.866
 2278SOL    HW2 9142   2.101   3.946   3.861
 2278SOL    HW3 9143   2.034   3.811   3.847
 2278SOL    MW4 9144   2.029   3.897   3.863
 2279SOL     OW 9145   1.815   4.008   3.707
 2279SOL    HW2 9146   1.899   3.983   3.746
 2279SOL    HW3 9147   1.749   3.962   3.758
 2279SOL    MW4 9148   1.818   3.999   3.718
 2280SOL     OW 9149   1.758   4.274   3.828
 2280SOL    HW2 9150   1.837   4.321   3.802
 2280SOL    HW3 9151   1.766   4.188   3.786
 2280SOL    MW4 9152   1.769   4.269   3.819
 2281SOL     OW 9153   1.997   4.392   3.747
 2281SOL    HW2 9154   2.068   4.346   3.791
 2281SOL    HW3 9155   2.017   4.386   3.654
 2281SOL    MW4 9156   2.009   4.385   3.741
 2282SOL     OW 9157   2.436   4.599   3.816
 2282SOL    HW2 9158   2.445   4.575   3.908
 2282SOL    HW3 9159   2.512   4.655   3.799
 2282SOL    MW4 9160   2.447   4.603   3.826
 2283SOL     OW 9161   2.231   0.121   3.741
 2283SOL    HW2 9162   2.288   0.045   3.754
 2283SOL    HW3 9163   2.223   0.130   3.646
 2283SOL    MW4 9164   2.238   0.112   3.730
 2284SOL     OW 9165   2.277   0.381   3.849
 2284SOL    HW2 9166   2.271   0.292   3.814
 2284SOL    HW3 9167   2.206   0.429   3.806
 2284SOL    MW4 9168   2.267   0.375   3.839
 2285SOL     OW 9169   2.489   0.543   3.764
 2285SOL    HW2 9170   2.417   0.487   3.792
 2285SOL    HW3 9171   2.507   0.517   3.674
 2285SOL    MW4 9172   2.482   0.532   3.756
 2286SOL     OW 9173   2.498   0.811   3.845
 2286SOL    HW2 9174   2.426   0.863   3.810
 2286SOL    HW3 9175   2.480   0.721   3.817
 2286SOL    MW4 9176   2.486   0.806   3.837
 2287SOL     OW 9177   2.274   0.915   3.729
 2287SOL    HW2 9178   2.209   0.857   3.770
 2287SOL    HW3 9179   2.258   0.906   3.635
 2287SOL    MW4 9180   2.263   0.906   3.722
 2288SOL     OW 9181   2.256   1.185   3.814
 2288SOL    HW2 9182   2.271   1.193   3.908
 2288SOL    HW3 9183   2.245   1.091   3.800
 2288SOL    MW4 9184   2.257   1.173   3.824
 2289SOL     OW 9185   2.499   1.294   3.731
 2289SOL    HW2 9186   2.477   1.385   3.752
 2289SOL    HW3 9187   2.417   1.246   3.746
 2289SOL    MW4 9188   2.485   1.300   3.735
 2290SOL     OW 9189   2.434   1.561   3.778
 2290SOL    HW2 9190   2.499   1.622   3.743
 2290SOL    HW3 9191   2.351   1.608   3.771
 2290SOL    MW4 9192   2.432   1.576   3.772
 2291SOL     OW 9193   2.198   1.686   3.725
 2291SOL    HW2 9194   2.200   1.760   3.786
 2291SOL    HW3 9195   2.118   1.638   3.749
 2291SOL    MW4 9196   2.188   1.689   3.736
 2292SOL     OW 9197   2.231   1.914   3.876
 2292SOL    HW2 9198   2.240   1.930   3.970
 2292SOL    HW3 9199   2.154   1.965   3.851
 2292SOL    MW4 9200   2.222   1.923   3.885
 2293SOL     OW 9201   2.428   2.037   3.728
 2293SOL    HW2 9202   2.424   2.119   3.776
 2293SOL    HW3 9203   2.358   1.984   3.765
 2293SOL    MW4 9204   2.418   2.040   3.739
 2294SOL     OW 9205   2.470   2.295   3.816
 2294SOL    HW2 9206   2.544   2.340   3.774
 2294SOL    HW3 9207   2.394   2.351   3.797
 2294SOL    MW4 9208   2.470   2.308   3.808
 2295SOL     OW 9209   2.215   2.424   3.770
 2295SOL    HW2 9210   2.142   2.364   3.786
 2295SOL    HW3 9211   2.209   2.444   3.677
 2295SOL    MW4 9212   2.205   2.419   3.760
 2296SOL     OW 9213   2.236   2.691   3.876
 2296SOL    HW2 9214   2.208   2.708   3.966
 2296SOL    HW3 9215   2.234   2.596   3.868
 2296SOL    MW4 9216   2.232   2.681   3.887
 2297SOL     OW 9217   2.430   2.859   3.773
 2297SOL    HW2 9218   2.358   2.804   3.803
 2297SOL    HW3 9219   2.425   2.855   3.678
 2297SOL    MW4 9220   2.420   2.852   3.765
 2298SOL     OW 9221   2.503   3.104   3.869
 2298SOL    HW2 9222   2.530   3.089   3.960
 2298SOL    HW3 9223   2.478   3.018   3.837
 2298SOL    MW4 9224   2.503   3.091   3.877
 2299SOL     OW 9225   2.246   3.205   3.761
 2299SOL    HW2 9226   2.237   3.299   3.775
 2299SOL    HW3 9227   2.330   3.182   3.801
 2299SOL    MW4 9228   2.256   3.214   3.768
 2300SOL     OW 9229   2.233   3.465   3.859
 2300SOL    HW2 9230   2.214   3.456   3.952
 2300SOL    HW3 9231   2.323   3.495   3.855
 2300SOL    MW4 9232   2.242   3.467   3.871
 2301SOL     OW 9233   2.452   3.621   3.743
 2301SOL    HW2 9234   2.527   3.574   3.779
 2301SOL    HW3 9235   2.467   3.622   3.649
 2301SOL    MW4 9236   2.464   3.615   3.735
 2302SOL     OW 9237   2.428   3.858   3.894
 2302SOL    HW2 9238   2.510   3.901   3.868
 2302SOL    HW3 9239   2.424   3.779   3.840
 2302SOL    MW4 9240   2.439   3.853   3.884
 2303SOL     OW 9241   2.238   4.030   3.781
 2303SOL    HW2 9242   2.298   3.964   3.815
 2303SOL    HW3 9243   2.250   4.028   3.686
 2303SOL    MW4 9244   2.247   4.021   3.773
 2304SOL     OW 9245   2.192   4.271   3.888
 2304SOL    HW2 9246   2.226   4.274   3.978
 2304SOL    HW3 9247   2.210   4.181   3.860
 2304SOL    MW4 9248   2.199   4.259   3.896
 2305SOL     OW 9249   2.415   4.349   3.717
 2305SOL    HW2 9250   2.347   4.317   3.775
 2305SOL    HW3 9251   2.430   4.440   3.745
 2305SOL    MW4 9252   2.408   4.357   3.728
 2306SOL     OW 9253   2.891   0.038   3.842
 2306SOL    HW2 9254   2.908   0.032   3.936
 2306SOL    HW3 9255   2.967   0.085   3.807
 2306SOL    MW4 9256   2.903   0.043   3.849
 2307SOL     OW 9257   2.628   0.114   3.760
 2307SOL    HW2 9258   2.710   0.084   3.798
 2307SOL    HW3 9259   2.644   0.119   3.666
 2307SOL    MW4 9260   2.641   0.111   3.753
 2308SOL     OW 9261   2.706   0.390   3.836
 2308SOL    HW2 9262   2.685   0.301   3.808
 2308SOL    HW3 9263   2.627   0.440   3.813
 2308SOL    MW4 9264   2.693   0.385   3.829
 2309SOL     OW 9265   2.929   0.524   3.770
 2309SOL    HW2 9266   2.989   0.456   3.801
 2309SOL    HW3 9267   2.842   0.490   3.789
 2309SOL    MW4 9268   2.925   0.511   3.777
 2310SOL     OW 9269   2.969   0.777   3.901
 2310SOL    HW2 9270   3.023   0.831   3.844
 2310SOL    HW3 9271   2.966   0.691   3.858
 2310SOL    MW4 9272   2.976   0.773   3.888
 2311SOL     OW 9273   2.752   0.886   3.758
 2311SOL    HW2 9274   2.812   0.858   3.826
 2311SOL    HW3 9275   2.667   0.850   3.783
 2311SOL    MW4 9276   2.749   0.878   3.770
 2312SOL     OW 9277   2.724   1.171   3.808
 2312SOL    HW2 9278   2.729   1.081   3.776
 2312SOL    HW3 9279   2.639   1.202   3.778
 2312SOL    MW4 9280   2.713   1.163   3.800
 2313SOL     OW 9281   2.923   1.341   3.718
 2313SOL    HW2 9282   2.913   1.426   3.761
 2313SOL    HW3 9283   2.852   1.287   3.755
 2313SOL    MW4 9284   2.912   1.345   3.729
 2314SOL     OW 9285   2.903   1.584   3.858
 2314SOL    HW2 9286   2.923   1.571   3.951
 2314SOL    HW3 9287   2.986   1.612   3.820
 2314SOL    MW4 9288   2.917   1.586   3.865
 2315SOL     OW 9289   2.691   1.721   3.756
 2315SOL    HW2 9290   2.759   1.672   3.802
 2315SOL    HW3 9291   2.721   1.724   3.665
 2315SOL    MW4 9292   2.704   1.715   3.750
 2316SOL     OW 9293   2.662   1.988   3.859
 2316SOL    HW2 9294   2.658   1.894   3.845
 2316SOL    HW3 9295   2.597   2.025   3.799
 2316SOL    MW4 9296   2.653   1.981   3.849
 2317SOL     OW 9297   2.894   2.097   3.765
 2317SOL    HW2 9298   2.904   2.175   3.820
 2317SOL    HW3 9299   2.821   2.050   3.805
 2317SOL    MW4 9300   2.886   2.101   3.778
 2318SOL     OW 9301   2.891   2.326   3.893
 2318SOL    HW2 9302   2.894   2.355   3.984
 2318SOL    HW3 9303   2.960   2.377   3.850
 2318SOL    MW4 9304   2.901   2.337   3.899
 2319SOL     OW 9305   2.687   2.447   3.736
 2319SOL    HW2 9306   2.688   2.540   3.758
 2319SOL    HW3 9307   2.762   2.410   3.782
 2319SOL    MW4 9308   2.697   2.454   3.745
 2320SOL     OW 9309   2.669   2.713   3.807
 2320SOL    HW2 9310   2.683   2.720   3.901
 2320SOL    HW3 9311   2.585   2.757   3.792
 2320SOL    MW4 9312   2.660   2.720   3.817
 2321SOL     OW 9313   2.894   2.874   3.738
 2321SOL    HW2 9314   2.904   2.954   3.791
 2321SOL    HW3 9315   2.810   2.839   3.765
 2321SOL    MW4 9316   2.885   2.880   3.749
 2322SOL     OW 9317   2.951   3.109   3.870
 2322SOL    HW2 9318   3.031   3.144   3.829
 2322SOL    HW3 9319   2.879   3.152   3.824
 2322SOL    MW4 9320   2.952   3.119   3.858
 2323SOL     OW 9321   2.732   3.243   3.768
 2323SOL    HW2 9322   2.732   3.335   3.797
 2323SOL    HW3 9323   2.656   3.204   3.812
 2323SOL    MW4 9324   2.722   3.250   3.778
 2324SOL     OW 9325   2.665   3.500   3.870
 2324SOL    HW2 9326   2.676   3.486   3.964
 2324SOL    HW3 9327   2.750   3.533   3.841
 2324SOL    MW4 9328   2.678   3.502   3.878
 2325SOL     OW 9329   2.915   3.570   3.759
 2325SOL    HW2 9330   3.003   3.537   3.775
 2325SOL    HW3 9331   2.910   3.580   3.664
 2325SOL    MW4 9332   2.926   3.567   3.748
 2326SOL     OW 9333   2.927   3.862   3.838
 2326SOL    HW2 9334   2.928   3.840   3.932
 2326SOL    HW3 9335   2.923   3.777   3.794
 2326SOL    MW4 9336   2.927   3.848   3.845
 2327SOL     OW 9337   2.680   3.978   3.761
 2327SOL    HW2 9338   2.681   4.074   3.766
 2327SOL    HW3 9339   2.759   3.951   3.808
 2327SOL    MW4 9340   2.691   3.987   3.768
 2328SOL     OW 9341   2.673   4.286   3.808
 2328SOL    HW2 9342   2.733   4.354   3.778
 2328SOL    HW3 9343   2.589   4.308   3.768
 2328SOL    MW4 9344   2.670   4.298   3.799
 2329SOL     OW 9345   2.892   4.437   3.744
 2329SOL    HW2 9346   2.962   4.382   3.778
 2329SOL    HW3 9347   2.906   4.522   3.784
 2329SOL    MW4 9348   2.903   4.441   3.753
 2330SOL     OW 9349   3.350   4.664   3.846
 2330SOL    HW2 9350   3.353   4.659   3.942
 2330SOL    HW3 9351   3.435   4.699   3.821
 2330SOL    MW4 9352   3.361   4.668   3.855
 2331SOL     OW 9353   3.124   0.133   3.757
 2331SOL    HW2 9354   3.198   0.083   3.792
 2331SOL    HW3 9355   3.124   0.112   3.663
 2331SOL    MW4 9356   3.134   0.124   3.749
 2332SOL     OW 9357   3.183   0.407   3.843
 2332SOL    HW2 9358   3.161   0.398   3.936
 2332SOL    HW3 9359   3.187   0.317   3.811
 2332SOL    MW4 9360   3.181   0.394   3.851
 2333SOL     OW 9361   3.384   0.563   3.755
 2333SOL    HW2 9362   3.456   0.517   3.799
 2333SOL    HW3 9363   3.305   0.519   3.788
 2333SOL    MW4 9364   3.383   0.551   3.765
 2334SOL     OW 9365   3.382   0.809   3.881
 2334SOL    HW2 9366   3.365   0.795   3.975
 2334SOL    HW3 9367   3.374   0.723   3.842
 2334SOL    MW4 9368   3.379   0.796   3.888
 2335SOL     OW 9369   3.172   0.940   3.754
 2335SOL    HW2 9370   3.245   0.895   3.797
 2335SOL    HW3 9371   3.171   0.904   3.665
 2335SOL    MW4 9372   3.181   0.929   3.748
 2336SOL     OW 9373   3.138   1.196   3.854
 2336SOL    HW2 9374   3.124   1.106   3.827
 2336SOL    HW3 9375   3.068   1.245   3.812
 2336SOL    MW4 9376   3.127   1.191   3.845
 2337SOL     OW 9377   3.368   1.316   3.756
 2337SOL    HW2 9378   3.287   1.283   3.796
 2337SOL    HW3 9379   3.366   1.282   3.667
 2337SOL    MW4 9380   3.357   1.307   3.749
 2338SOL     OW 9381   3.393   1.573   3.855
 2338SOL    HW2 9382   3.310   1.609   3.824
 2338SOL    HW3 9383   3.393   1.483   3.822
 2338SOL    MW4 9384   3.382   1.566   3.847
 2339SOL     OW 9385   3.138   1.676   3.744
 2339SOL    HW2 9386   3.120   1.765   3.773
 2339SOL    HW3 9387   3.145   1.682   3.649
 2339SOL    MW4 9388   3.136   1.688   3.735
 2340SOL     OW 9389   3.110   1.947   3.842
 2340SOL    HW2 9390   3.125   1.970   3.934
 2340SOL    HW3 9391   3.033   1.998   3.817
 2340SOL    MW4 9392   3.102   1.957   3.851
 2341SOL     OW 9393   3.329   2.094   3.788
 2341SOL    HW2 9394   3.256   2.034   3.804
 2341SOL    HW3 9395   3.351   2.082   3.696
 2341SOL    MW4 9396   3.322   2.085   3.778
 2342SOL     OW 9397   3.346   2.363   3.857
 2342SOL    HW2 9398   3.267   2.410   3.832
 2342SOL    HW3 9399   3.322   2.270   3.848
 2342SOL    MW4 9400   3.332   2.357   3.852
 2343SOL     OW 9401   3.094   2.478   3.772
 2343SOL    HW2 9402   3.085   2.570   3.795
 2343SOL    HW3 9403   3.086   2.476   3.676
 2343SOL    MW4 9404   3.092   2.490   3.762
 2344SOL     OW 9405   3.114   2.733   3.861
 2344SOL    HW2 9406   3.128   2.738   3.956
 2344SOL    HW3 9407   3.037   2.787   3.846
 2344SOL    MW4 9408   3.106   2.741   3.872
 2345SOL     OW 9409   3.367   2.805   3.796
 2345SOL    HW2 9410   3.275   2.778   3.804
 2345SOL    HW3 9411   3.386   2.798   3.703
 2345SOL    MW4 9412   3.357   2.801   3.785
 2346SOL     OW 9413   3.380   3.104   3.870
 2346SOL    HW2 9414   3.452   3.154   3.832
 2346SOL    HW3 9415   3.409   3.013   3.866
 2346SOL    MW4 9416   3.393   3.099   3.864
 2347SOL     OW 9417   3.170   3.239   3.748
 2347SOL    HW2 9418   3.242   3.185   3.782
 2347SOL    HW3 9419   3.167   3.219   3.655
 2347SOL    MW4 9420   3.179   3.229   3.740
 2348SOL     OW 9421   3.174   3.515   3.842
 2348SOL    HW2 9422   3.260   3.556   3.835
 2348SOL    HW3 9423   3.187   3.427   3.806
 2348SOL    MW4 9424   3.187   3.509   3.836
 2349SOL     OW 9425   3.408   3.661   3.756
 2349SOL    HW2 9426   3.401   3.750   3.788
 2349SOL    HW3 9427   3.407   3.670   3.660
 2349SOL    MW4 9428   3.407   3.674   3.747
 2350SOL     OW 9429   3.369   3.913   3.851
 2350SOL    HW2 9430   3.435   3.972   3.814
 2350SOL    HW3 9431   3.286   3.945   3.816
 2350SOL    MW4 9432   3.367   3.925   3.842
 2351SOL     OW 9433   3.146   4.009   3.730
 2351SOL    HW2 9434   3.131   4.100   3.756
 2351SOL    HW3 9435   3.072   3.961   3.767
 2351SOL    MW4 9436   3.134   4.015   3.738
 2352SOL     OW 9437   3.104   4.282   3.811
 2352SOL    HW2 9438   3.116   4.279   3.906
 2352SOL    HW3 9439   3.181   4.330   3.779
 2352SOL    MW4 9440   3.116   4.288   3.819
 2353SOL     OW 9441   3.349   4.409   3.750
 2353SOL    HW2 9442   3.429   4.365   3.778
 2353SOL    HW3 9443   3.355   4.497   3.788
 2353SOL    MW4 9444   3.360   4.415   3.759
 2354SOL     OW 9445   3.806   0.025   3.870
 2354SOL    HW2 9446   3.888   0.063   3.841
 2354SOL    HW3 9447   3.808  -0.065   3.837
 2354SOL    MW4 9448   3.817   0.018   3.862
 2355SOL     OW 9449   3.579   0.150   3.750
 2355SOL    HW2 9450   3.658   0.115   3.790
 2355SOL    HW3 9451   3.588   0.129   3.657
 2355SOL    MW4 9452   3.590   0.143   3.743
 2356SOL     OW 9453   3.587   0.412   3.871
 2356SOL    HW2 9454   3.669   0.445   3.832
 2356SOL    HW3 9455   3.581   0.322   3.841
 2356SOL    MW4 9456   3.597   0.405   3.862
 2357SOL     OW 9457   3.833   0.542   3.786
 2357SOL    HW2 9458   3.908   0.492   3.818
 2357SOL    HW3 9459   3.834   0.622   3.839
 2357SOL    MW4 9460   3.843   0.546   3.797
 2358SOL     OW 9461   3.835   0.776   3.930
 2358SOL    HW2 9462   3.904   0.835   3.897
 2358SOL    HW3 9463   3.755   0.807   3.888
 2358SOL    MW4 9464   3.834   0.788   3.920
 2359SOL     OW 9465   3.640   0.892   3.760
 2359SOL    HW2 9466   3.623   0.980   3.793
 2359SOL    HW3 9467   3.559   0.844   3.779
 2359SOL    MW4 9468   3.627   0.897   3.767
 2360SOL     OW 9469   3.565   1.136   3.859
 2360SOL    HW2 9470   3.641   1.190   3.836
 2360SOL    HW3 9471   3.490   1.187   3.826
 2360SOL    MW4 9472   3.565   1.150   3.851
 2361SOL     OW 9473   3.802   1.267   3.757
 2361SOL    HW2 9474   3.885   1.238   3.794
 2361SOL    HW3 9475   3.808   1.362   3.755
 2361SOL    MW4 9476   3.814   1.275   3.761
 2362SOL     OW 9477   3.770   1.550   3.820
 2362SOL    HW2 9478   3.766   1.528   3.913
 2362SOL    HW3 9479   3.710   1.624   3.811
 2362SOL    MW4 9480   3.762   1.557   3.831
 2363SOL     OW 9481   3.580   1.737   3.739
 2363SOL    HW2 9482   3.514   1.675   3.769
 2363SOL    HW3 9483   3.587   1.722   3.645
 2363SOL    MW4 9484   3.572   1.727   3.730
 2364SOL     OW 9485   3.565   1.971   3.887
 2364SOL    HW2 9486   3.571   1.893   3.833
 2364SOL    HW3 9487   3.486   2.015   3.858
 2364SOL    MW4 9488   3.556   1.967   3.876
 2365SOL     OW 9489   3.786   2.081   3.752
 2365SOL    HW2 9490   3.845   2.048   3.821
 2365SOL    HW3 9491   3.699   2.071   3.789
 2365SOL    MW4 9492   3.783   2.075   3.766
 2366SOL     OW 9493   3.838   2.337   3.811
 2366SOL    HW2 9494   3.761   2.387   3.785
 2366SOL    HW3 9495   3.815   2.246   3.793
 2366SOL    MW4 9496   3.825   2.332   3.806
 2367SOL     OW 9497   3.592   2.459   3.749
 2367SOL    HW2 9498   3.511   2.421   3.782
 2367SOL    HW3 9499   3.593   2.438   3.656
 2367SOL    MW4 9500   3.582   2.451   3.741
 2368SOL     OW 9501   3.600   2.712   3.902
 2368SOL    HW2 9502   3.598   2.619   3.877
 2368SOL    HW3 9503   3.514   2.745   3.880
 2368SOL    MW4 9504   3.589   2.704   3.896
 2369SOL     OW 9505   3.802   2.848   3.747
 2369SOL    HW2 9506   3.879   2.805   3.785
 2369SOL    HW3 9507   3.728   2.809   3.793
 2369SOL    MW4 9508   3.802   2.837   3.758
 2370SOL     OW 9509   3.803   3.125   3.823
 2370SOL    HW2 9510   3.717   3.165   3.809
 2370SOL    HW3 9511   3.797   3.039   3.782
 2370SOL    MW4 9512   3.791   3.119   3.816
 2371SOL     OW 9513   3.562   3.258   3.732
 2371SOL    HW2 9514   3.581   3.344   3.770
 2371SOL    HW3 9515   3.580   3.268   3.639
 2371SOL    MW4 9516   3.567   3.271   3.725
 2372SOL     OW 9517   3.603   3.503   3.869
 2372SOL    HW2 9518   3.593   3.519   3.963
 2372SOL    HW3 9519   3.536   3.558   3.829
 2372SOL    MW4 9520   3.593   3.512   3.876
 2373SOL     OW 9521   3.802   3.624   3.731
 2373SOL    HW2 9522   3.816   3.714   3.759
 2373SOL    HW3 9523   3.737   3.589   3.792
 2373SOL    MW4 9524   3.795   3.631   3.743
 2374SOL     OW 9525   3.816   3.883   3.866
 2374SOL    HW2 9526   3.823   3.896   3.961
 2374SOL    HW3 9527   3.880   3.945   3.829
 2374SOL    MW4 9528   3.825   3.893   3.874
 2375SOL     OW 9529   3.614   4.023   3.748
 2375SOL    HW2 9530   3.601   4.104   3.798
 2375SOL    HW3 9531   3.683   3.977   3.795
 2375SOL    MW4 9532   3.622   4.028   3.761
 2376SOL     OW 9533   3.607   4.294   3.857
 2376SOL    HW2 9534   3.611   4.314   3.951
 2376SOL    HW3 9535   3.680   4.343   3.819
 2376SOL    MW4 9536   3.617   4.303   3.865
 2377SOL     OW 9537   3.838   4.423   3.766
 2377SOL    HW2 9538   3.911   4.396   3.823
 2377SOL    HW3 9539   3.871   4.410   3.678
 2377SOL    MW4 9540   3.852   4.418   3.762
 2378SOL     OW 9541   4.276   4.660   3.852
 2378SOL    HW2 9542   4.287   4.666   3.947
 2378SOL    HW3 9543   4.347   4.714   3.816
 2378SOL    MW4 9544   4.287   4.668   3.859
 2379SOL     OW 9545   4.042   0.146   3.791
 2379SOL    HW2 9546   4.108   0.081   3.813
 2379SOL    HW3 9547   4.024   0.131   3.698
 2379SOL    MW4 9548   4.049   0.135   3.781
 2380SOL     OW 9549   4.052   0.415   3.909
 2380SOL    HW2 9550   4.037   0.414   4.004
 2380SOL    HW3 9551   4.055   0.322   3.885
 2380SOL    MW4 9552   4.050   0.402   3.919
 2381SOL     OW 9553   4.266   0.557   3.771
 2381SOL    HW2 9554   4.189   0.512   3.806
 2381SOL    HW3 9555   4.255   0.554   3.676
 2381SOL    MW4 9556   4.254   0.551   3.764
 2382SOL     OW 9557   4.263   0.769   3.922
 2382SOL    HW2 9558   4.189   0.816   3.884
 2382SOL    HW3 9559   4.269   0.688   3.873
 2382SOL    MW4 9560   4.254   0.765   3.911
 2383SOL     OW 9561   4.051   0.913   3.816
 2383SOL    HW2 9562   4.044   1.005   3.841
 2383SOL    HW3 9563   4.043   0.913   3.721
 2383SOL    MW4 9564   4.049   0.925   3.807
 2384SOL     OW 9565   4.055   1.192   3.869
 2384SOL    HW2 9566   4.051   1.233   3.956
 2384SOL    HW3 9567   4.128   1.236   3.825
 2384SOL    MW4 9568   4.064   1.204   3.875
 2385SOL     OW 9569   4.252   1.325   3.762
 2385SOL    HW2 9570   4.240   1.416   3.789
 2385SOL    HW3 9571   4.278   1.330   3.670
 2385SOL    MW4 9572   4.254   1.337   3.753
 2386SOL     OW 9573   4.252   1.575   3.862
 2386SOL    HW2 9574   4.178   1.631   3.840
 2386SOL    HW3 9575   4.328   1.618   3.823
 2386SOL    MW4 9576   4.252   1.588   3.854
 2387SOL     OW 9577   3.981   1.704   3.768
 2387SOL    HW2 9578   3.952   1.788   3.804
 2387SOL    HW3 9579   3.912   1.642   3.793
 2387SOL    MW4 9580   3.968   1.707   3.776
 2388SOL     OW 9581   3.990   1.931   3.917
 2388SOL    HW2 9582   4.009   1.928   4.011
 2388SOL    HW3 9583   4.068   1.970   3.878
 2388SOL    MW4 9584   4.003   1.936   3.924
 2389SOL     OW 9585   4.214   2.047   3.768
 2389SOL    HW2 9586   4.234   2.138   3.792
 2389SOL    HW3 9587   4.195   2.052   3.674
 2389SOL    MW4 9588   4.214   2.060   3.759
 2390SOL     OW 9589   4.261   2.313   3.834
 2390SOL    HW2 9590   4.260   2.348   3.923
 2390SOL    HW3 9591   4.185   2.354   3.792
 2390SOL    MW4 9592   4.251   2.323   3.840
 2391SOL     OW 9593   4.053   2.450   3.696
 2391SOL    HW2 9594   4.058   2.539   3.731
 2391SOL    HW3 9595   3.976   2.412   3.739
 2391SOL    MW4 9596   4.043   2.456   3.707
 2392SOL     OW 9597   4.042   2.706   3.820
 2392SOL    HW2 9598   4.020   2.693   3.913
 2392SOL    HW3 9599   4.129   2.745   3.821
 2392SOL    MW4 9600   4.050   2.709   3.832
 2393SOL     OW 9601   4.280   2.837   3.752
 2393SOL    HW2 9602   4.278   2.929   3.777
 2393SOL    HW3 9603   4.364   2.805   3.785
 2393SOL    MW4 9604   4.291   2.845   3.759
 2394SOL     OW 9605   4.294   3.110   3.814
 2394SOL    HW2 9606   4.216   3.149   3.776
 2394SOL    HW3 9607   4.367   3.159   3.774
 2394SOL    MW4 9608   4.294   3.121   3.803
 2395SOL     OW 9609   4.058   3.228   3.758
 2395SOL    HW2 9610   3.968   3.204   3.781
 2395SOL    HW3 9611   4.059   3.228   3.662
 2395SOL    MW4 9612   4.046   3.225   3.748
 2396SOL     OW 9613   4.022   3.499   3.862
 2396SOL    HW2 9614   4.036   3.407   3.839
 2396SOL    HW3 9615   3.950   3.527   3.805
 2396SOL    MW4 9616   4.014   3.491   3.852
 2397SOL     OW 9617   4.236   3.632   3.716
 2397SOL    HW2 9618   4.155   3.590   3.744
 2397SOL    HW3 9619   4.305   3.584   3.763
 2397SOL    MW4 9620   4.235   3.620   3.726
 2398SOL     OW 9621   4.249   3.876   3.855
 2398SOL    HW2 9622   4.175   3.935   3.840
 2398SOL    HW3 9623   4.229   3.799   3.802
 2398SOL    MW4 9624   4.237   3.874   3.846
 2399SOL     OW 9625   4.035   4.035   3.773
 2399SOL    HW2 9626   4.039   4.128   3.795
 2399SOL    HW3 9627   4.034   4.033   3.677
 2399SOL    MW4 9628   4.035   4.047   3.763
 2400SOL     OW 9629   4.054   4.305   3.870
 2400SOL    HW2 9630   4.055   4.330   3.962
 2400SOL    HW3 9631   4.129   4.353   3.832
 2400SOL    MW4 9632   4.064   4.315   3.877
 2401SOL     OW 9633   4.293   4.410   3.756
 2401SOL    HW2 9634   4.297   4.500   3.789
 2401SOL    HW3 9635   4.375   4.370   3.785
 2401SOL    MW4 9636   4.304   4.416   3.764
 2402SOL     OW 9637   0.241   0.028   4.172
 2402SOL    HW2 9638   0.320   0.048   4.223
 2402SOL    HW3 9639   0.213  -0.058   4.203
 2402SOL    MW4 9640   0.248   0.019   4.183
 2403SOL     OW 9641   4.486   0.172   4.239
 2403SOL    HW2 9642   4.482   0.151   4.332
 2403SOL    HW3 9643   4.575   0.147   4.212
 2403SOL    MW4 9644   4.498   0.166   4.248
 2404SOL     OW 9645   4.433   0.413   4.113
 2404SOL    HW2 9646   4.466   0.327   4.141
 2404SOL    HW3 9647   4.445   0.414   4.019
 2404SOL    MW4 9648   4.439   0.402   4.105
 2405SOL     OW 9649   0.173   0.527   4.223
 2405SOL    HW2 9650   0.246   0.478   4.185
 2405SOL    HW3 9651   0.095   0.480   4.193
 2405SOL    MW4 9652   0.172   0.514   4.214
 2406SOL     OW 9653   0.214   0.792   4.128
 2406SOL    HW2 9654   0.147   0.829   4.186
 2406SOL    HW3 9655   0.221   0.700   4.155
 2406SOL    MW4 9656   0.206   0.785   4.139
 2407SOL     OW 9657   0.051   0.938   4.303
 2407SOL    HW2 9658  -0.020   0.886   4.266
 2407SOL    HW3 9659   0.041   1.025   4.263
 2407SOL    MW4 9660   0.041   0.943   4.293
 2408SOL     OW 9661   4.481   1.179   4.188
 2408SOL    HW2 9662   4.548   1.236   4.225
 2408SOL    HW3 9663   4.496   1.181   4.094
 2408SOL    MW4 9664   4.492   1.187   4.180
 2409SOL     OW 9665   0.190   1.338   4.290
 2409SOL    HW2 9666   0.188   1.311   4.381
 2409SOL    HW3 9667   0.266   1.293   4.253
 2409SOL    MW4 9668   0.200   1.328   4.297
 2410SOL     OW 9669   0.488   1.849   4.742
 2410SOL    HW2 9670   0.432   1.911   4.788
 2410SOL    HW3 9671   0.432   1.812   4.674
 2410SOL    MW4 9672   0.473   1.852   4.739
 2411SOL     OW 9673   4.476   1.784   4.271
 2411SOL    HW2 9674   4.399   1.738   4.239
 2411SOL    HW3 9675   4.492   1.854   4.208
 2411SOL    MW4 9676   4.468   1.787   4.259
 2412SOL     OW 9677   0.246   2.122   4.258
 2412SOL    HW2 9678   0.298   2.152   4.333
 2412SOL    HW3 9679   0.307   2.071   4.205
 2412SOL    MW4 9680   0.261   2.119   4.261
 2413SOL     OW 9681   0.501   1.516   4.637
 2413SOL    HW2 9682   0.451   1.592   4.607
 2413SOL    HW3 9683   0.488   1.515   4.732
 2413SOL    MW4 9684   0.492   1.526   4.646
 2414SOL     OW 9685   0.150   2.363   4.125
 2414SOL    HW2 9686   0.221   2.421   4.155
 2414SOL    HW3 9687   0.174   2.277   4.160
 2414SOL    MW4 9688   0.163   2.360   4.134
 2415SOL     OW 9689   4.432   2.468   4.267
 2415SOL    HW2 9690   4.368   2.489   4.199
 2415SOL    HW3 9691   4.504   2.424   4.220
 2415SOL    MW4 9692   4.433   2.465   4.252
 2416SOL     OW 9693   4.442   2.756   4.318
 2416SOL    HW2 9694   4.533   2.782   4.306
 2416SOL    HW3 9695   4.446   2.661   4.331
 2416SOL    MW4 9696   4.454   2.747   4.318
 2417SOL     OW 9697   0.232   2.882   4.300
 2417SOL    HW2 9698   0.291   2.816   4.264
 2417SOL    HW3 9699   0.244   2.959   4.244
 2417SOL    MW4 9700   0.241   2.884   4.288
 2418SOL     OW 9701   0.244   3.097   4.135
 2418SOL    HW2 9702   0.311   3.156   4.169
 2418SOL    HW3 9703   0.161   3.137   4.162
 2418SOL    MW4 9704   0.242   3.110   4.143
 2419SOL     OW 9705   0.004   3.216   4.199
 2419SOL    HW2 9706  -0.075   3.174   4.166
 2419SOL    HW3 9707   0.001   3.304   4.162
 2419SOL    MW4 9708  -0.007   3.222   4.190
 2420SOL     OW 9709   0.003   3.473   4.086
 2420SOL    HW2 9710  -0.056   3.532   4.134
 2420SOL    HW3 9711  -0.017   3.489   3.994
 2420SOL    MW4 9712  -0.007   3.483   4.080
 2421SOL     OW 9713   0.239   3.585   4.204
 2421SOL    HW2 9714   0.316   3.537   4.174
 2421SOL    HW3 9715   0.164   3.535   4.172
 2421SOL    MW4 9716   0.239   3.572   4.196
 2422SOL     OW 9717   4.487   3.987   4.216
 2422SOL    HW2 9718   4.401   3.985   4.175
 2422SOL    HW3 9719   4.470   4.008   4.308
 2422SOL    MW4 9720   4.474   3.990   4.223
 2423SOL     OW 9721   0.073   3.780   4.572
 2423SOL    HW2 9722   0.148   3.739   4.528
 2423SOL    HW3 9723   0.027   3.706   4.613
 2423SOL    MW4 9724   0.077   3.765   4.571
 2424SOL     OW 9725   4.485   4.272   4.147
 2424SOL    HW2 9726   4.489   4.178   4.162
 2424SOL    HW3 9727   4.495   4.282   4.053
 2424SOL    MW4 9728   4.486   4.261   4.137
 2425SOL     OW 9729   0.183   4.443   4.261
 2425SOL    HW2 9730   0.164   4.484   4.345
 2425SOL    HW3 9731   0.104   4.393   4.240
 2425SOL    MW4 9732   0.170   4.442   4.269
 2426SOL     OW 9733   0.650   4.606   4.127
 2426SOL    HW2 9734   0.589   4.667   4.170
 2426SOL    HW3 9735   0.634   4.620   4.033
 2426SOL    MW4 9736   0.640   4.616   4.120
 2427SOL     OW 9737   0.513   0.115   4.268
 2427SOL    HW2 9738   0.513   0.146   4.358
 2427SOL    HW3 9739   0.484   0.190   4.216
 2427SOL    MW4 9740   0.509   0.129   4.273
 2428SOL     OW 9741   0.366   0.339   4.134
 2428SOL    HW2 9742   0.433   0.396   4.171
 2428SOL    HW3 9743   0.383   0.340   4.039
 2428SOL    MW4 9744   0.377   0.347   4.126
 2429SOL     OW 9745   0.565   0.508   4.212
 2429SOL    HW2 9746   0.644   0.456   4.195
 2429SOL    HW3 9747   0.589   0.597   4.187
 2429SOL    MW4 9748   0.579   0.513   4.207
 2430SOL     OW 9749   0.636   0.784   4.153
 2430SOL    HW2 9750   0.564   0.835   4.189
 2430SOL    HW3 9751   0.619   0.781   4.059
 2430SOL    MW4 9752   0.624   0.790   4.146
 2431SOL     OW 9753   0.422   0.921   4.259
 2431SOL    HW2 9754   0.397   1.007   4.226
 2431SOL    HW3 9755   0.363   0.860   4.215
 2431SOL    MW4 9756   0.411   0.925   4.249
 2432SOL     OW 9757   0.385   1.174   4.183
 2432SOL    HW2 9758   0.473   1.211   4.192
 2432SOL    HW3 9759   0.372   1.166   4.088
 2432SOL    MW4 9760   0.395   1.178   4.172
 2433SOL     OW 9761   0.642   1.282   4.209
 2433SOL    HW2 9762   0.649   1.309   4.301
 2433SOL    HW3 9763   0.633   1.365   4.161
 2433SOL    MW4 9764   0.641   1.297   4.215
 2434SOL     OW 9765   0.594   1.539   4.084
 2434SOL    HW2 9766   0.673   1.586   4.108
 2434SOL    HW3 9767   0.587   1.551   3.989
 2434SOL    MW4 9768   0.603   1.546   4.074
 2435SOL     OW 9769   0.176   1.593   4.182
 2435SOL    HW2 9770   0.169   1.522   4.247
 2435SOL    HW3 9771   0.113   1.659   4.212
 2435SOL    MW4 9772   0.167   1.592   4.195
 2436SOL     OW 9773   0.441   1.977   4.138
 2436SOL    HW2 9774   0.423   1.896   4.185
 2436SOL    HW3 9775   0.430   1.954   4.046
 2436SOL    MW4 9776   0.437   1.963   4.132
 2437SOL     OW 9777   0.687   2.059   4.218
 2437SOL    HW2 9778   0.678   2.074   4.313
 2437SOL    HW3 9779   0.601   2.025   4.191
 2437SOL    MW4 9780   0.674   2.056   4.227
 2438SOL     OW 9781   0.620   2.313   4.151
 2438SOL    HW2 9782   0.648   2.226   4.181
 2438SOL    HW3 9783   0.620   2.307   4.055
 2438SOL    MW4 9784   0.624   2.301   4.142
 2439SOL     OW 9785   0.390   2.465   4.229
 2439SOL    HW2 9786   0.413   2.557   4.213
 2439SOL    HW3 9787   0.472   2.417   4.216
 2439SOL    MW4 9788   0.404   2.471   4.226
 2440SOL     OW 9789   0.457   2.728   4.173
 2440SOL    HW2 9790   0.544   2.750   4.206
 2440SOL    HW3 9791   0.464   2.736   4.078
 2440SOL    MW4 9792   0.469   2.732   4.165
 2441SOL     OW 9793   0.697   2.830   4.236
 2441SOL    HW2 9794   0.705   2.834   4.332
 2441SOL    HW3 9795   0.684   2.920   4.209
 2441SOL    MW4 9796   0.696   2.842   4.245
 2442SOL     OW 9797   0.695   3.085   4.156
 2442SOL    HW2 9798   0.772   3.132   4.187
 2442SOL    HW3 9799   0.621   3.135   4.189
 2442SOL    MW4 9800   0.696   3.098   4.165
 2443SOL     OW 9801   0.462   3.218   4.240
 2443SOL    HW2 9802   0.467   3.222   4.336
 2443SOL    HW3 9803   0.480   3.307   4.211
 2443SOL    MW4 9804   0.465   3.230   4.249
 2444SOL     OW 9805   0.475   3.474   4.124
 2444SOL    HW2 9806   0.533   3.549   4.137
 2444SOL    HW3 9807   0.471   3.462   4.029
 2444SOL    MW4 9808   0.482   3.482   4.113
 2445SOL     OW 9809   0.854   3.611   4.294
 2445SOL    HW2 9810   0.796   3.571   4.359
 2445SOL    HW3 9811   0.927   3.550   4.286
 2445SOL    MW4 9812   0.856   3.598   4.302
 2446SOL     OW 9813   0.674   3.682   4.101
 2446SOL    HW2 9814   0.671   3.777   4.115
 2446SOL    HW3 9815   0.737   3.651   4.165
 2446SOL    MW4 9816   0.682   3.691   4.111
 2447SOL     OW 9817   0.410   3.995   4.254
 2447SOL    HW2 9818   0.367   4.078   4.231
 2447SOL    HW3 9819   0.355   3.928   4.214
 2447SOL    MW4 9820   0.397   3.997   4.246
 2448SOL     OW 9821   0.357   4.256   4.172
 2448SOL    HW2 9822   0.284   4.313   4.196
 2448SOL    HW3 9823   0.367   4.269   4.078
 2448SOL    MW4 9824   0.349   4.265   4.163
 2449SOL     OW 9825   0.597   4.368   4.239
 2449SOL    HW2 9826   0.507   4.345   4.213
 2449SOL    HW3 9827   0.617   4.447   4.190
 2449SOL    MW4 9828   0.587   4.376   4.229
 2450SOL     OW 9829   1.092   0.010   4.110
 2450SOL    HW2 9830   1.092  -0.083   4.131
 2450SOL    HW3 9831   1.096   0.013   4.014
 2450SOL    MW4 9832   1.092  -0.002   4.100
 2451SOL     OW 9833   0.868   0.102   4.237
 2451SOL    HW2 9834   0.947   0.068   4.195
 2451SOL    HW3 9835   0.796   0.054   4.195
 2451SOL    MW4 9836   0.869   0.091   4.226
 2452SOL     OW 9837   0.802   0.364   4.137
 2452SOL    HW2 9838   0.881   0.413   4.162
 2452SOL    HW3 9839   0.825   0.272   4.154
 2452SOL    MW4 9840   0.816   0.358   4.142
 2453SOL     OW 9841   1.055   0.482   4.222
 2453SOL    HW2 9842   1.051   0.485   4.318
 2453SOL    HW3 9843   1.143   0.449   4.203
 2453SOL    MW4 9844   1.066   0.478   4.232
 2454SOL     OW 9845   1.100   0.722   4.090
 2454SOL    HW2 9846   1.176   0.764   4.130
 2454SOL    HW3 9847   1.097   0.634   4.130
 2454SOL    MW4 9848   1.109   0.716   4.101
 2455SOL     OW 9849   0.888   0.857   4.236
 2455SOL    HW2 9850   0.947   0.805   4.181
 2455SOL    HW3 9851   0.800   0.826   4.212
 2455SOL    MW4 9852   0.884   0.846   4.225
 2456SOL     OW 9853   0.861   1.118   4.142
 2456SOL    HW2 9854   0.869   1.033   4.186
 2456SOL    HW3 9855   0.776   1.151   4.171
 2456SOL    MW4 9856   0.851   1.111   4.152
 2457SOL     OW 9857   1.105   1.269   4.189
 2457SOL    HW2 9858   1.119   1.258   4.283
 2457SOL    HW3 9859   1.041   1.201   4.167
 2457SOL    MW4 9860   1.099   1.258   4.199
 2458SOL     OW 9861   1.088   1.523   4.100
 2458SOL    HW2 9862   0.998   1.550   4.115
 2458SOL    HW3 9863   1.091   1.431   4.129
 2458SOL    MW4 9864   1.077   1.514   4.106
 2459SOL     OW 9865   0.841   1.633   4.177
 2459SOL    HW2 9866   0.828   1.639   4.272
 2459SOL    HW3 9867   0.865   1.722   4.150
 2459SOL    MW4 9868   0.843   1.646   4.186
 2460SOL     OW 9869   0.904   1.900   4.117
 2460SOL    HW2 9870   0.831   1.953   4.148
 2460SOL    HW3 9871   0.900   1.908   4.022
 2460SOL    MW4 9872   0.894   1.908   4.109
 2461SOL     OW 9873   1.123   2.034   4.206
 2461SOL    HW2 9874   1.139   1.988   4.288
 2461SOL    HW3 9875   1.047   1.989   4.167
 2461SOL    MW4 9876   1.115   2.022   4.211
 2462SOL     OW 9877   1.084   2.300   4.129
 2462SOL    HW2 9878   1.154   2.354   4.165
 2462SOL    HW3 9879   1.100   2.213   4.165
 2462SOL    MW4 9880   1.095   2.296   4.139
 2463SOL     OW 9881   0.847   2.436   4.231
 2463SOL    HW2 9882   0.915   2.380   4.193
 2463SOL    HW3 9883   0.764   2.395   4.204
 2463SOL    MW4 9884   0.845   2.423   4.223
 2464SOL     OW 9885   0.912   2.677   4.131
 2464SOL    HW2 9886   0.893   2.588   4.161
 2464SOL    HW3 9887   0.837   2.729   4.159
 2464SOL    MW4 9888   0.900   2.672   4.138
 2465SOL     OW 9889   1.135   2.845   4.247
 2465SOL    HW2 9890   1.127   2.914   4.182
 2465SOL    HW3 9891   1.062   2.786   4.229
 2465SOL    MW4 9892   1.125   2.846   4.236
 2466SOL     OW 9893   1.094   3.081   4.097
 2466SOL    HW2 9894   1.162   3.139   4.134
 2466SOL    HW3 9895   1.119   3.072   4.005
 2466SOL    MW4 9896   1.107   3.088   4.090
 2467SOL     OW 9897   0.911   3.228   4.250
 2467SOL    HW2 9898   0.942   3.206   4.338
 2467SOL    HW3 9899   0.967   3.178   4.192
 2467SOL    MW4 9900   0.923   3.219   4.254
 2468SOL     OW 9901   1.041   3.452   4.159
 2468SOL    HW2 9902   0.987   3.383   4.197
 2468SOL    HW3 9903   0.994   3.478   4.080
 2468SOL    MW4 9904   1.027   3.446   4.153
 2469SOL     OW 9905   0.906   3.881   4.373
 2469SOL    HW2 9906   0.916   3.924   4.289
 2469SOL    HW3 9907   0.882   3.791   4.351
 2469SOL    MW4 9908   0.904   3.875   4.359
 2470SOL     OW 9909   1.068   3.972   4.128
 2470SOL    HW2 9910   1.162   3.968   4.146
 2470SOL    HW3 9911   1.046   4.065   4.134
 2470SOL    MW4 9912   1.078   3.984   4.131
 2471SOL     OW 9913   0.664   3.952   4.106
 2471SOL    HW2 9914   0.715   4.031   4.119
 2471SOL    HW3 9915   0.583   3.967   4.156
 2471SOL    MW4 9916   0.660   3.964   4.114
 2472SOL     OW 9917   1.135   4.431   4.217
 2472SOL    HW2 9918   1.202   4.375   4.176
 2472SOL    HW3 9919   1.174   4.457   4.301
 2472SOL    MW4 9920   1.149   4.427   4.223
 2473SOL     OW 9921   0.932   4.545   4.552
 2473SOL    HW2 9922   0.934   4.461   4.597
 2473SOL    HW3 9923   1.020   4.553   4.514
 2473SOL    MW4 9924   0.944   4.535   4.553
 2474SOL     OW 9925   1.551   4.648   4.138
 2474SOL    HW2 9926   1.630   4.700   4.152
 2474SOL    HW3 9927   1.479   4.709   4.158
 2474SOL    MW4 9928   1.552   4.663   4.142
 2475SOL     OW 9929   1.326   0.125   4.193
 2475SOL    HW2 9930   1.328   0.110   4.288
 2475SOL    HW3 9931   1.237   0.103   4.167
 2475SOL    MW4 9932   1.315   0.120   4.202
 2476SOL     OW 9933   1.303   0.409   4.141
 2476SOL    HW2 9934   1.377   0.451   4.185
 2476SOL    HW3 9935   1.304   0.319   4.173
 2476SOL    MW4 9936   1.313   0.403   4.151
 2477SOL     OW 9937   1.558   0.496   4.229
 2477SOL    HW2 9938   1.559   0.523   4.321
 2477SOL    HW3 9939   1.598   0.570   4.182
 2477SOL    MW4 9940   1.563   0.510   4.235
 2478SOL     OW 9941   1.594   0.744   4.107
 2478SOL    HW2 9942   1.665   0.803   4.132
 2478SOL    HW3 9943   1.596   0.745   4.011
 2478SOL    MW4 9944   1.604   0.752   4.097
 2479SOL     OW 9945   1.328   0.830   4.178
 2479SOL    HW2 9946   1.338   0.925   4.172
 2479SOL    HW3 9947   1.407   0.795   4.135
 2479SOL    MW4 9948   1.340   0.838   4.171
 2480SOL     OW 9949   1.339   1.131   4.115
 2480SOL    HW2 9950   1.252   1.156   4.146
 2480SOL    HW3 9951   1.331   1.129   4.019
 2480SOL    MW4 9952   1.326   1.134   4.106
 2481SOL     OW 9953   1.571   1.241   4.198
 2481SOL    HW2 9954   1.596   1.217   4.287
 2481SOL    HW3 9955   1.485   1.200   4.186
 2481SOL    MW4 9956   1.563   1.232   4.208
 2482SOL     OW 9957   1.541   1.497   4.116
 2482SOL    HW2 9958   1.473   1.543   4.166
 2482SOL    HW3 9959   1.548   1.411   4.157
 2482SOL    MW4 9960   1.533   1.492   4.128
 2483SOL     OW 9961   1.308   1.625   4.225
 2483SOL    HW2 9962   1.322   1.709   4.181
 2483SOL    HW3 9963   1.233   1.586   4.179
 2483SOL    MW4 9964   1.300   1.631   4.213
 2484SOL     OW 9965   1.324   1.893   4.102
 2484SOL    HW2 9966   1.407   1.935   4.123
 2484SOL    HW3 9967   1.257   1.952   4.137
 2484SOL    MW4 9968   1.326   1.906   4.109
 2485SOL     OW 9969   1.572   2.020   4.212
 2485SOL    HW2 9970   1.658   1.989   4.185
 2485SOL    HW3 9971   1.569   2.110   4.182
 2485SOL    MW4 9972   1.583   2.028   4.204
 2486SOL     OW 9973   1.528   2.279   4.133
 2486SOL    HW2 9974   1.597   2.335   4.169
 2486SOL    HW3 9975   1.532   2.293   4.038
 2486SOL    MW4 9976   1.538   2.288   4.125
 2487SOL     OW 9977   1.584   2.840   4.208
 2487SOL    HW2 9978   1.585   2.796   4.292
 2487SOL    HW3 9979   1.670   2.824   4.171
 2487SOL    MW4 9980   1.595   2.832   4.214
 2488SOL     OW 9981   1.343   2.683   4.161
 2488SOL    HW2 9982   1.418   2.741   4.171
 2488SOL    HW3 9983   1.267   2.739   4.178
 2488SOL    MW4 9984   1.343   2.698   4.164
 2489SOL     OW 9985   1.636   2.260   4.530
 2489SOL    HW2 9986   1.618   2.321   4.601
 2489SOL    HW3 9987   1.687   2.190   4.570
 2489SOL    MW4 9988   1.640   2.259   4.544
 2490SOL     OW 9989   1.564   3.134   4.160
 2490SOL    HW2 9990   1.631   3.165   4.222
 2490SOL    HW3 9991   1.568   3.039   4.166
 2490SOL    MW4 9992   1.573   3.126   4.169
 2491SOL     OW 9993   1.301   3.222   4.209
 2491SOL    HW2 9994   1.386   3.178   4.202
 2491SOL    HW3 9995   1.318   3.312   4.184
 2491SOL    MW4 9996   1.315   3.228   4.205
 2492SOL     OW 9997   1.319   3.488   4.145
 2492SOL    HW2 9998   1.224   3.489   4.158
 2492SOL    HW3 9999   1.331   3.505   4.051
 2492SOL    MW410000   1.308   3.490   4.134
 2493SOL     OW10001   1.578   3.630   4.214
 2493SOL    HW210002   1.578   3.624   4.310
 2493SOL    HW310003   1.495   3.592   4.187
 2493SOL    MW410004   1.567   3.624   4.223
 2494SOL     OW10005   1.578   3.881   4.117
 2494SOL    HW210006   1.487   3.902   4.140
 2494SOL    HW310007   1.590   3.790   4.145
 2494SOL    MW410008   1.567   3.872   4.124
 2495SOL     OW10009   1.334   3.983   4.179
 2495SOL    HW210010   1.291   3.967   4.262
 2495SOL    HW310011   1.340   4.078   4.172
 2495SOL    MW410012   1.329   3.993   4.189
 2496SOL     OW10013   1.336   4.265   4.114
 2496SOL    HW210014   1.421   4.303   4.136
 2496SOL    HW310015   1.329   4.273   4.019
 2496SOL    MW410016   1.346   4.271   4.105
 2497SOL     OW10017   1.574   4.368   4.213
 2497SOL    HW210018   1.589   4.463   4.207
 2497SOL    HW310019   1.654   4.329   4.179
 2497SOL    MW410020   1.586   4.376   4.207
 2498SOL     OW10021   1.989   4.662   4.103
 2498SOL    HW210022   1.916   4.714   4.137
 2498SOL    HW310023   1.983   4.672   4.008
 2498SOL    MW410024   1.978   4.670   4.095
 2499SOL     OW10025   1.784   0.129   4.207
 2499SOL    HW210026   1.794   0.129   4.302
 2499SOL    HW310027   1.783   0.221   4.182
 2499SOL    MW410028   1.785   0.141   4.216
 2500SOL     OW10029   1.789   0.386   4.118
 2500SOL    HW210030   1.857   0.433   4.167
 2500SOL    HW310031   1.707   0.419   4.155
 2500SOL    MW410032   1.787   0.397   4.129
 2501SOL     OW10033   2.021   0.500   4.247
 2501SOL    HW210034   2.006   0.452   4.328
 2501SOL    HW310035   2.102   0.464   4.212
 2501SOL    MW410036   2.029   0.489   4.253
 2502SOL     OW10037   2.029   0.768   4.094
 2502SOL    HW210038   2.106   0.816   4.124
 2502SOL    HW310039   2.034   0.685   4.142
 2502SOL    MW410040   2.040   0.763   4.105
 2503SOL     OW10041   1.817   0.894   4.221
 2503SOL    HW210042   1.797   0.969   4.164
 2503SOL    HW310043   1.889   0.850   4.177
 2503SOL    MW410044   1.824   0.898   4.207
 2504SOL     OW10045   1.783   1.130   4.073
 2504SOL    HW210046   1.865   1.164   4.111
 2504SOL    HW310047   1.715   1.186   4.110
 2504SOL    MW410048   1.785   1.142   4.083
 2505SOL     OW10049   2.017   1.214   4.174
 2505SOL    HW210050   2.091   1.191   4.117
 2505SOL    HW310051   1.998   1.305   4.154
 2505SOL    MW410052   2.025   1.223   4.164
 2506SOL     OW10053   1.970   1.486   4.105
 2506SOL    HW210054   2.055   1.521   4.131
 2506SOL    HW310055   1.962   1.507   4.012
 2506SOL    MW410056   1.980   1.493   4.096
 2507SOL     OW10057   1.759   1.615   4.226
 2507SOL    HW210058   1.833   1.567   4.188
 2507SOL    HW310059   1.682   1.575   4.186
 2507SOL    MW410060   1.759   1.604   4.215
 2508SOL     OW10061   1.796   1.868   4.144
 2508SOL    HW210062   1.761   1.783   4.168
 2508SOL    HW310063   1.878   1.875   4.193
 2508SOL    MW410064   1.802   1.858   4.153
 2509SOL     OW10065   1.684   2.451   4.289
 2509SOL    HW210066   1.700   2.396   4.366
 2509SOL    HW310067   1.766   2.498   4.276
 2509SOL    MW410068   1.697   2.450   4.298
 2510SOL     OW10069   2.484   2.390   4.085
 2510SOL    HW210070   2.489   2.376   3.990
 2510SOL    HW310071   2.401   2.435   4.099
 2510SOL    MW410072   2.474   2.394   4.074
 2511SOL     OW10073   1.703   2.970   4.470
 2511SOL    HW210074   1.688   2.876   4.455
 2511SOL    HW310075   1.781   2.990   4.419
 2511SOL    MW410076   1.711   2.960   4.462
 2512SOL     OW10077   1.816   2.763   4.076
 2512SOL    HW210078   1.859   2.695   4.127
 2512SOL    HW310079   1.877   2.837   4.078
 2512SOL    MW410080   1.830   2.764   4.083
 2513SOL     OW10081   1.937   3.036   4.337
 2513SOL    HW210082   2.013   2.984   4.367
 2513SOL    HW310083   1.938   3.025   4.242
 2513SOL    MW410084   1.947   3.028   4.328
 2514SOL     OW10085   2.203   2.862   4.095
 2514SOL    HW210086   2.291   2.891   4.119
 2514SOL    HW310087   2.172   2.814   4.171
 2514SOL    MW410088   2.210   2.860   4.108
 2515SOL     OW10089   1.730   3.265   4.343
 2515SOL    HW210090   1.754   3.337   4.285
 2515SOL    HW310091   1.813   3.228   4.371
 2515SOL    MW410092   1.744   3.270   4.339
 2516SOL     OW10093   1.804   3.487   4.174
 2516SOL    HW210094   1.730   3.543   4.194
 2516SOL    HW310095   1.810   3.488   4.078
 2516SOL    MW410096   1.795   3.494   4.164
 2517SOL     OW10097   2.026   3.615   4.253
 2517SOL    HW210098   2.007   3.700   4.213
 2517SOL    HW310099   1.945   3.565   4.244
 2517SOL    MW410100   2.013   3.620   4.247
 2518SOL     OW10101   1.949   3.842   4.140
 2518SOL    HW210102   1.879   3.893   4.180
 2518SOL    HW310103   1.929   3.843   4.047
 2518SOL    MW410104   1.937   3.849   4.133
 2519SOL     OW10105   1.771   4.002   4.265
 2519SOL    HW210106   1.816   4.077   4.226
 2519SOL    HW310107   1.693   3.989   4.211
 2519SOL    MW410108   1.767   4.010   4.253
 2520SOL     OW10109   1.835   4.231   4.118
 2520SOL    HW210110   1.917   4.277   4.138
 2520SOL    HW310111   1.818   4.252   4.026
 2520SOL    MW410112   1.843   4.240   4.109
 2521SOL     OW10113   2.045   4.383   4.203
 2521SOL    HW210114   2.030   4.400   4.296
 2521SOL    HW310115   2.045   4.470   4.163
 2521SOL    MW410116   2.043   4.397   4.210
 2522SOL     OW10117   2.341   4.547   4.349
 2522SOL    HW210118   2.362   4.508   4.264
 2522SOL    HW310119   2.301   4.476   4.399
 2522SOL    MW410120   2.339   4.533   4.344
 2523SOL     OW10121   2.210   0.106   4.253
 2523SOL    HW210122   2.253   0.024   4.279
 2523SOL    HW310123   2.134   0.079   4.203
 2523SOL    MW410124   2.206   0.092   4.250
 2524SOL     OW10125   2.241   0.368   4.122
 2524SOL    HW210126   2.230   0.276   4.145
 2524SOL    HW310127   2.245   0.370   4.027
 2524SOL    MW410128   2.240   0.356   4.113
 2525SOL     OW10129   2.462   0.517   4.147
 2525SOL    HW210130   2.537   0.458   4.158
 2525SOL    HW310131   2.387   0.459   4.137
 2525SOL    MW410132   2.462   0.501   4.147
 2526SOL     OW10133   2.481   0.793   4.132
 2526SOL    HW210134   2.470   0.699   4.145
 2526SOL    HW310135   2.487   0.804   4.037
 2526SOL    MW410136   2.481   0.782   4.121
 2527SOL     OW10137   2.240   0.915   4.215
 2527SOL    HW210138   2.256   0.934   4.307
 2527SOL    HW310139   2.312   0.857   4.190
 2527SOL    MW410140   2.252   0.910   4.224
 2528SOL     OW10141   2.274   1.162   4.097
 2528SOL    HW210142   2.337   1.217   4.144
 2528SOL    HW310143   2.287   1.075   4.134
 2528SOL    MW410144   2.284   1.158   4.108
 2529SOL     OW10145   2.485   1.322   4.179
 2529SOL    HW210146   2.503   1.318   4.273
 2529SOL    HW310147   2.562   1.283   4.138
 2529SOL    MW410148   2.497   1.317   4.186
 2530SOL     OW10149   2.444   1.570   4.058
 2530SOL    HW210150   2.454   1.481   4.090
 2530SOL    HW310151   2.445   1.562   3.963
 2530SOL    MW410152   2.445   1.557   4.050
 2531SOL     OW10153   2.200   1.656   4.151
 2531SOL    HW210154   2.289   1.641   4.118
 2531SOL    HW310155   2.182   1.748   4.131
 2531SOL    MW410156   2.209   1.666   4.144
 2532SOL     OW10157   2.236   1.947   4.143
 2532SOL    HW210158   2.298   2.004   4.188
 2532SOL    HW310159   2.161   1.942   4.203
 2532SOL    MW410160   2.234   1.954   4.157
 2533SOL     OW10161   2.432   2.141   4.206
 2533SOL    HW210162   2.448   2.217   4.150
 2533SOL    HW310163   2.506   2.083   4.191
 2533SOL    MW410164   2.444   2.143   4.197
 2534SOL     OW10165   2.712   2.666   4.089
 2534SOL    HW210166   2.636   2.678   4.146
 2534SOL    HW310167   2.769   2.740   4.110
 2534SOL    MW410168   2.709   2.677   4.100
 2535SOL     OW10169   2.305   2.450   4.481
 2535SOL    HW210170   2.281   2.540   4.459
 2535SOL    HW310171   2.383   2.433   4.428
 2535SOL    MW410172   2.312   2.460   4.471
 2536SOL     OW10173   1.928   2.548   4.208
 2536SOL    HW210174   1.991   2.612   4.242
 2536SOL    HW310175   1.982   2.486   4.159
 2536SOL    MW410176   1.944   2.548   4.206
 2537SOL     OW10177   2.475   2.682   4.238
 2537SOL    HW210178   2.417   2.625   4.187
 2537SOL    HW310179   2.428   2.698   4.320
 2537SOL    MW410180   2.461   2.676   4.242
 2538SOL     OW10181   2.146   3.235   4.328
 2538SOL    HW210182   2.070   3.177   4.327
 2538SOL    HW310183   2.219   3.178   4.351
 2538SOL    MW410184   2.145   3.220   4.331
 2539SOL     OW10185   1.972   3.012   4.052
 2539SOL    HW210186   1.983   3.056   3.967
 2539SOL    HW310187   2.056   2.970   4.068
 2539SOL    MW410188   1.985   3.012   4.043
 2540SOL     OW10189   2.195   3.444   4.136
 2540SOL    HW210190   2.195   3.361   4.183
 2540SOL    HW310191   2.123   3.494   4.174
 2540SOL    MW410192   2.186   3.440   4.147
 2541SOL     OW10193   2.435   3.558   4.283
 2541SOL    HW210194   2.356   3.540   4.232
 2541SOL    HW310195   2.431   3.651   4.302
 2541SOL    MW410196   2.424   3.568   4.279
 2542SOL     OW10197   2.391   3.841   4.211
 2542SOL    HW210198   2.476   3.840   4.255
 2542SOL    HW310199   2.411   3.861   4.120
 2542SOL    MW410200   2.405   3.843   4.205
 2543SOL     OW10201   2.167   3.979   4.250
 2543SOL    HW210202   2.236   3.913   4.241
 2543SOL    HW310203   2.090   3.939   4.210
 2543SOL    MW410204   2.166   3.965   4.243
 2544SOL     OW10205   2.273   4.214   4.145
 2544SOL    HW210206   2.248   4.127   4.174
 2544SOL    HW310207   2.207   4.273   4.182
 2544SOL    MW410208   2.261   4.211   4.154
 2545SOL     OW10209   2.433   4.532   4.080
 2545SOL    HW210210   2.514   4.482   4.087
 2545SOL    HW310211   2.457   4.622   4.103
 2545SOL    MW410212   2.447   4.537   4.084
 2546SOL     OW10213   2.902   0.027   4.128
 2546SOL    HW210214   2.962   0.087   4.170
 2546SOL    HW310215   2.916  -0.057   4.173
 2546SOL    MW410216   2.912   0.024   4.139
 2547SOL     OW10217   2.608   0.086   4.161
 2547SOL    HW210218   2.621   0.176   4.133
 2547SOL    HW310219   2.695   0.047   4.159
 2547SOL    MW410220   2.621   0.093   4.157
 2548SOL     OW10221   2.663   0.347   4.120
 2548SOL    HW210222   2.691   0.352   4.028
 2548SOL    HW310223   2.740   0.373   4.170
 2548SOL    MW410224   2.677   0.352   4.114
 2549SOL     OW10225   3.331   0.724   4.146
 2549SOL    HW210226   3.387   0.767   4.211
 2549SOL    HW310227   3.246   0.768   4.154
 2549SOL    MW410228   3.327   0.736   4.155
 2550SOL     OW10229   3.065   0.809   4.164
 2550SOL    HW210230   3.049   0.903   4.156
 2550SOL    HW310231   3.016   0.770   4.092
 2550SOL    MW410232   3.056   0.817   4.154
 2551SOL     OW10233   2.709   0.943   4.234
 2551SOL    HW210234   2.778   0.887   4.270
 2551SOL    HW310235   2.637   0.883   4.213
 2551SOL    MW410236   2.708   0.928   4.236
 2552SOL     OW10237   2.699   1.184   4.083
 2552SOL    HW210238   2.714   1.096   4.117
 2552SOL    HW310239   2.740   1.184   3.996
 2552SOL    MW410240   2.706   1.173   4.076
 2553SOL     OW10241   2.905   1.284   4.243
 2553SOL    HW210242   2.969   1.235   4.191
 2553SOL    HW310243   2.823   1.273   4.196
 2553SOL    MW410244   2.903   1.276   4.230
 2554SOL     OW10245   2.913   1.588   4.136
 2554SOL    HW210246   2.970   1.654   4.176
 2554SOL    HW310247   2.916   1.514   4.196
 2554SOL    MW410248   2.921   1.587   4.149
 2555SOL     OW10249   2.658   1.713   4.156
 2555SOL    HW210250   2.725   1.645   4.159
 2555SOL    HW310251   2.578   1.667   4.131
 2555SOL    MW410252   2.656   1.698   4.153
 2556SOL     OW10253   2.661   1.991   4.141
 2556SOL    HW210254   2.664   1.900   4.172
 2556SOL    HW310255   2.663   1.983   4.046
 2556SOL    MW410256   2.662   1.978   4.133
 2557SOL     OW10257   2.887   2.129   4.212
 2557SOL    HW210258   2.884   2.220   4.184
 2557SOL    HW310259   2.799   2.096   4.197
 2557SOL    MW410260   2.875   2.137   4.206
 2558SOL     OW10261   2.872   2.421   4.142
 2558SOL    HW210262   2.944   2.446   4.200
 2558SOL    HW310263   2.814   2.497   4.142
 2558SOL    MW410264   2.874   2.434   4.150
 2559SOL     OW10265   2.773   3.190   4.472
 2559SOL    HW210266   2.779   3.256   4.541
 2559SOL    HW310267   2.745   3.110   4.517
 2559SOL    MW410268   2.770   3.188   4.487
 2560SOL     OW10269   2.437   2.970   4.189
 2560SOL    HW210270   2.455   2.876   4.202
 2560SOL    HW310271   2.421   3.003   4.277
 2560SOL    MW410272   2.438   2.962   4.203
 2561SOL     OW10273   2.796   2.982   4.117
 2561SOL    HW210274   2.759   3.061   4.157
 2561SOL    HW310275   2.865   3.014   4.058
 2561SOL    MW410276   2.800   2.997   4.114
 2562SOL     OW10277   3.045   3.181   4.418
 2562SOL    HW210278   3.051   3.089   4.441
 2562SOL    HW310279   2.953   3.203   4.434
 2562SOL    MW410280   3.033   3.172   4.423
 2563SOL     OW10281   2.633   3.187   4.223
 2563SOL    HW210282   2.659   3.166   4.313
 2563SOL    HW310283   2.569   3.119   4.200
 2563SOL    MW410284   2.628   3.175   4.232
 2564SOL     OW10285   2.638   3.449   4.143
 2564SOL    HW210286   2.638   3.359   4.178
 2564SOL    HW310287   2.558   3.488   4.179
 2564SOL    MW410288   2.628   3.442   4.153
 2565SOL     OW10289   2.882   3.588   4.207
 2565SOL    HW210290   2.902   3.588   4.301
 2565SOL    HW310291   2.802   3.535   4.200
 2565SOL    MW410292   2.874   3.581   4.219
 2566SOL     OW10293   2.888   3.841   4.118
 2566SOL    HW210294   2.972   3.880   4.144
 2566SOL    HW310295   2.887   3.756   4.161
 2566SOL    MW410296   2.899   3.835   4.127
 2567SOL     OW10297   2.665   3.917   4.269
 2567SOL    HW210298   2.637   4.008   4.257
 2567SOL    HW310299   2.737   3.906   4.206
 2567SOL    MW410300   2.671   3.927   4.259
 2568SOL     OW10301   2.659   4.374   4.117
 2568SOL    HW210302   2.742   4.409   4.150
 2568SOL    HW310303   2.683   4.326   4.038
 2568SOL    MW410304   2.673   4.372   4.111
 2569SOL     OW10305   2.932   4.434   4.220
 2569SOL    HW210306   2.950   4.422   4.313
 2569SOL    HW310307   2.988   4.369   4.176
 2569SOL    MW410308   2.942   4.424   4.226
 2570SOL     OW10309   3.321   4.642   4.122
 2570SOL    HW210310   3.399   4.688   4.155
 2570SOL    HW310311   3.336   4.550   4.144
 2570SOL    MW410312   3.333   4.636   4.130
 2571SOL     OW10313   3.138   0.148   4.238
 2571SOL    HW210314   3.157   0.152   4.332
 2571SOL    HW310315   3.206   0.093   4.202
 2571SOL    MW410316   3.149   0.142   4.246
 2572SOL     OW10317   3.128   0.386   4.131
 2572SOL    HW210318   3.209   0.433   4.155
 2572SOL    HW310319   3.134   0.303   4.179
 2572SOL    MW410320   3.140   0.382   4.140
 2573SOL     OW10321   3.350   0.489   4.253
 2573SOL    HW210322   3.438   0.464   4.225
 2573SOL    HW310323   3.335   0.575   4.212
 2573SOL    MW410324   3.360   0.497   4.244
 2574SOL     OW10325   3.465   0.841   4.360
 2574SOL    HW210326   3.469   0.936   4.349
 2574SOL    HW310327   3.388   0.827   4.414
 2574SOL    MW410328   3.456   0.852   4.366
 2575SOL     OW10329   3.131   1.066   4.523
 2575SOL    HW210330   3.168   1.109   4.600
 2575SOL    HW310331   3.036   1.076   4.534
 2575SOL    MW410332   3.123   1.073   4.535
 2576SOL     OW10333   3.074   1.078   4.096
 2576SOL    HW210334   3.127   1.115   4.166
 2576SOL    HW310335   3.099   1.126   4.018
 2576SOL    MW410336   3.084   1.089   4.095
 2577SOL     OW10337   3.454   1.115   4.330
 2577SOL    HW210338   3.468   1.176   4.402
 2577SOL    HW310339   3.369   1.139   4.295
 2577SOL    MW410340   3.445   1.126   4.335
 2578SOL     OW10341   3.338   1.446   4.342
 2578SOL    HW210342   3.332   1.506   4.268
 2578SOL    HW310343   3.390   1.493   4.407
 2578SOL    MW410344   3.344   1.460   4.341
 2579SOL     OW10345   3.087   1.768   4.237
 2579SOL    HW210346   3.100   1.788   4.330
 2579SOL    HW310347   3.101   1.852   4.193
 2579SOL    MW410348   3.091   1.782   4.244
 2580SOL     OW10349   3.111   2.016   4.112
 2580SOL    HW210350   3.178   2.070   4.155
 2580SOL    HW310351   3.029   2.045   4.151
 2580SOL    MW410352   3.109   2.027   4.123
 2581SOL     OW10353   3.346   2.123   4.225
 2581SOL    HW210354   3.431   2.079   4.219
 2581SOL    HW310355   3.364   2.214   4.200
 2581SOL    MW410356   3.360   2.129   4.221
 2582SOL     OW10357   3.374   2.399   4.134
 2582SOL    HW210358   3.461   2.425   4.163
 2582SOL    HW310359   3.380   2.399   4.038
 2582SOL    MW410360   3.386   2.403   4.125
 2583SOL     OW10361   3.156   2.531   4.221
 2583SOL    HW210362   3.152   2.621   4.191
 2583SOL    HW310363   3.240   2.498   4.189
 2583SOL    MW410364   3.166   2.538   4.213
 2584SOL     OW10365   3.123   2.796   4.148
 2584SOL    HW210366   3.177   2.866   4.186
 2584SOL    HW310367   3.047   2.790   4.207
 2584SOL    MW410368   3.120   2.804   4.161
 2585SOL     OW10369   3.428   2.873   4.353
 2585SOL    HW210370   3.392   2.935   4.289
 2585SOL    HW310371   3.491   2.821   4.302
 2585SOL    MW410372   3.432   2.875   4.338
 2586SOL     OW10373   3.280   3.041   4.152
 2586SOL    HW210374   3.258   3.124   4.193
 2586SOL    HW310375   3.319   3.065   4.068
 2586SOL    MW410376   3.282   3.055   4.147
 2587SOL     OW10377   3.243   3.282   4.272
 2587SOL    HW210378   3.199   3.354   4.226
 2587SOL    HW310379   3.176   3.249   4.332
 2587SOL    MW410380   3.228   3.287   4.274
 2588SOL     OW10381   3.112   3.482   4.118
 2588SOL    HW210382   3.025   3.511   4.146
 2588SOL    HW310383   3.110   3.487   4.022
 2588SOL    MW410384   3.101   3.486   4.109
 2589SOL     OW10385   3.351   3.627   4.210
 2589SOL    HW210386   3.351   3.572   4.288
 2589SOL    HW310387   3.285   3.587   4.153
 2589SOL    MW410388   3.343   3.614   4.213
 2590SOL     OW10389   3.370   3.889   4.139
 2590SOL    HW210390   3.353   3.798   4.166
 2590SOL    HW310391   3.373   3.885   4.044
 2590SOL    MW410392   3.368   3.876   4.130
 2591SOL     OW10393   3.125   3.983   4.159
 2591SOL    HW210394   3.115   3.992   4.254
 2591SOL    HW310395   3.216   3.957   4.147
 2591SOL    MW410396   3.135   3.980   4.170
 2592SOL     OW10397   3.126   4.264   4.086
 2592SOL    HW210398   3.190   4.300   4.147
 2592SOL    HW310399   3.131   4.169   4.098
 2592SOL    MW410400   3.135   4.256   4.096
 2593SOL     OW10401   3.332   4.397   4.227
 2593SOL    HW210402   3.341   4.401   4.322
 2593SOL    HW310403   3.420   4.375   4.196
 2593SOL    MW410404   3.345   4.395   4.236
 2594SOL     OW10405   3.773   0.063   4.136
 2594SOL    HW210406   3.853   0.107   4.167
 2594SOL    HW310407   3.787   0.052   4.042
 2594SOL    MW410408   3.786   0.067   4.128
 2595SOL     OW10409   3.523   0.121   4.239
 2595SOL    HW210410   3.526   0.211   4.205
 2595SOL    HW310411   3.614   0.090   4.232
 2595SOL    MW410412   3.536   0.129   4.234
 2596SOL     OW10413   3.597   0.379   4.157
 2596SOL    HW210414   3.664   0.444   4.177
 2596SOL    HW310415   3.577   0.394   4.064
 2596SOL    MW410416   3.604   0.389   4.147
 2597SOL     OW10417   3.792   0.536   4.304
 2597SOL    HW210418   3.816   0.479   4.377
 2597SOL    HW310419   3.774   0.621   4.345
 2597SOL    MW410420   3.793   0.540   4.319
 2598SOL     OW10421   3.823   0.898   4.187
 2598SOL    HW210422   3.768   0.974   4.169
 2598SOL    HW310423   3.809   0.840   4.112
 2598SOL    MW410424   3.814   0.900   4.175
 2599SOL     OW10425   3.746   0.780   4.421
 2599SOL    HW210426   3.652   0.790   4.435
 2599SOL    HW310427   3.765   0.831   4.342
 2599SOL    MW410428   3.736   0.788   4.412
 2600SOL     OW10429   3.649   1.107   4.137
 2600SOL    HW210430   3.581   1.110   4.204
 2600SOL    HW310431   3.603   1.123   4.055
 2600SOL    MW410432   3.634   1.109   4.135
 2601SOL     OW10433   3.807   1.290   4.263
 2601SOL    HW210434   3.757   1.214   4.234
 2601SOL    HW310435   3.818   1.277   4.357
 2601SOL    MW410436   3.802   1.278   4.272
 2602SOL     OW10437   3.785   1.531   4.093
 2602SOL    HW210438   3.792   1.440   4.122
 2602SOL    HW310439   3.873   1.566   4.100
 2602SOL    MW410440   3.797   1.523   4.098
 2603SOL     OW10441   3.590   1.985   4.169
 2603SOL    HW210442   3.595   1.986   4.073
 2603SOL    HW310443   3.603   1.894   4.193
 2603SOL    MW410444   3.593   1.973   4.159
 2604SOL     OW10445   3.354   1.666   4.145
 2604SOL    HW210446   3.360   1.663   4.050
 2604SOL    HW310447   3.266   1.700   4.163
 2604SOL    MW410448   3.343   1.670   4.135
 2605SOL     OW10449   3.815   2.110   4.263
 2605SOL    HW210450   3.810   2.122   4.358
 2605SOL    HW310451   3.737   2.058   4.242
 2605SOL    MW410452   3.804   2.104   4.273
 2606SOL     OW10453   3.835   2.355   4.108
 2606SOL    HW210454   3.824   2.270   4.151
 2606SOL    HW310455   3.838   2.335   4.015
 2606SOL    MW410456   3.834   2.341   4.102
 2607SOL     OW10457   3.618   2.477   4.243
 2607SOL    HW210458   3.636   2.447   4.332
 2607SOL    HW310459   3.679   2.428   4.189
 2607SOL    MW410460   3.629   2.467   4.248
 2608SOL     OW10461   3.620   2.728   4.179
 2608SOL    HW210462   3.611   2.640   4.215
 2608SOL    HW310463   3.607   2.718   4.085
 2608SOL    MW410464   3.617   2.715   4.171
 2609SOL     OW10465   3.829   2.891   4.228
 2609SOL    HW210466   3.849   2.892   4.322
 2609SOL    HW310467   3.759   2.827   4.219
 2609SOL    MW410468   3.822   2.883   4.240
 2610SOL     OW10469   3.772   3.131   4.098
 2610SOL    HW210470   3.787   3.051   4.149
 2610SOL    HW310471   3.790   3.105   4.008
 2610SOL    MW410472   3.776   3.117   4.093
 2611SOL     OW10473   3.664   3.270   4.316
 2611SOL    HW210474   3.693   3.242   4.229
 2611SOL    HW310475   3.634   3.189   4.358
 2611SOL    MW410476   3.664   3.255   4.310
 2612SOL     OW10477   3.611   3.506   4.153
 2612SOL    HW210478   3.606   3.423   4.199
 2612SOL    HW310479   3.538   3.557   4.188
 2612SOL    MW410480   3.601   3.502   4.164
 2613SOL     OW10481   3.829   3.683   4.253
 2613SOL    HW210482   3.894   3.627   4.209
 2613SOL    HW310483   3.747   3.635   4.245
 2613SOL    MW410484   3.827   3.669   4.246
 2614SOL     OW10485   3.846   3.925   4.133
 2614SOL    HW210486   3.761   3.963   4.156
 2614SOL    HW310487   3.845   3.838   4.174
 2614SOL    MW410488   3.835   3.919   4.142
 2615SOL     OW10489   3.611   4.022   4.224
 2615SOL    HW210490   3.622   3.969   4.303
 2615SOL    HW310491   3.534   3.986   4.181
 2615SOL    MW410492   3.603   4.010   4.229
 2616SOL     OW10493   3.594   4.297   4.148
 2616SOL    HW210494   3.652   4.349   4.203
 2616SOL    HW310495   3.603   4.207   4.179
 2616SOL    MW410496   3.603   4.292   4.159
 2617SOL     OW10497   3.784   4.470   4.255
 2617SOL    HW210498   3.857   4.428   4.210
 2617SOL    HW310499   3.787   4.562   4.226
 2617SOL    MW410500   3.794   4.477   4.245
 2618SOL     OW10501   4.269   0.023   4.132
 2618SOL    HW210502   4.276  -0.069   4.160
 2618SOL    HW310503   4.339   0.068   4.179
 2618SOL    MW410504   4.279   0.017   4.142
 2619SOL     OW10505   4.022   0.147   4.254
 2619SOL    HW210506   4.035   0.240   4.238
 2619SOL    HW310507   4.100   0.105   4.220
 2619SOL    MW410508   4.034   0.154   4.247
 2620SOL     OW10509   4.006   0.414   4.189
 2620SOL    HW210510   4.081   0.469   4.212
 2620SOL    HW310511   3.930   0.466   4.214
 2620SOL    MW410512   4.006   0.428   4.195
 2621SOL     OW10513   4.231   0.568   4.227
 2621SOL    HW210514   4.257   0.659   4.218
 2621SOL    HW310515   4.295   0.519   4.175
 2621SOL    MW410516   4.243   0.573   4.219
 2622SOL     OW10517   4.320   0.816   4.173
 2622SOL    HW210518   4.252   0.878   4.198
 2622SOL    HW310519   4.303   0.797   4.081
 2622SOL    MW410520   4.309   0.821   4.164
 2623SOL     OW10521   4.091   0.998   4.206
 2623SOL    HW210522   4.081   1.084   4.165
 2623SOL    HW310523   4.014   0.949   4.178
 2623SOL    MW410524   4.080   1.003   4.197
 2624SOL     OW10525   4.066   1.279   4.127
 2624SOL    HW210526   4.137   1.308   4.184
 2624SOL    HW310527   3.988   1.280   4.182
 2624SOL    MW410528   4.065   1.283   4.142
 2625SOL     OW10529   4.281   1.357   4.281
 2625SOL    HW210530   4.305   1.390   4.368
 2625SOL    HW310531   4.349   1.292   4.261
 2625SOL    MW410532   4.293   1.352   4.290
 2626SOL     OW10533   4.295   1.596   4.131
 2626SOL    HW210534   4.300   1.508   4.167
 2626SOL    HW310535   4.295   1.583   4.036
 2626SOL    MW410536   4.296   1.583   4.123
 2627SOL     OW10537   4.116   1.757   4.600
 2627SOL    HW210538   4.077   1.680   4.559
 2627SOL    HW310539   4.203   1.729   4.628
 2627SOL    MW410540   4.122   1.744   4.598
 2628SOL     OW10541   4.037   1.944   4.187
 2628SOL    HW210542   4.018   1.851   4.202
 2628SOL    HW310543   3.963   1.990   4.225
 2628SOL    MW410544   4.025   1.938   4.194
 2629SOL     OW10545   0.007   2.012   4.137
 2629SOL    HW210546   0.086   2.038   4.185
 2629SOL    HW310547  -0.065   2.056   4.182
 2629SOL    MW410548   0.008   2.021   4.149
 2630SOL     OW10549   4.211   2.385   4.113
 2630SOL    HW210550   4.151   2.443   4.159
 2630SOL    HW310551   4.217   2.307   4.168
 2630SOL    MW410552   4.204   2.382   4.126
 2631SOL     OW10553   4.000   2.521   4.231
 2631SOL    HW210554   3.990   2.530   4.326
 2631SOL    HW310555   3.934   2.457   4.206
 2631SOL    MW410556   3.990   2.514   4.240
 2632SOL     OW10557   4.041   2.746   4.093
 2632SOL    HW210558   4.025   2.666   4.143
 2632SOL    HW310559   3.982   2.811   4.131
 2632SOL    MW410560   4.031   2.744   4.104
 2633SOL     OW10561   4.314   2.855   4.094
 2633SOL    HW210562   4.237   2.799   4.109
 2633SOL    HW310563   4.374   2.831   4.165
 2633SOL    MW410564   4.311   2.844   4.106
 2634SOL     OW10565   4.241   3.121   4.087
 2634SOL    HW210566   4.270   3.031   4.103
 2634SOL    HW310567   4.257   3.135   3.994
 2634SOL    MW410568   4.247   3.111   4.077
 2635SOL     OW10569   4.011   3.249   4.196
 2635SOL    HW210570   4.092   3.213   4.160
 2635SOL    HW310571   3.942   3.195   4.160
 2635SOL    MW410572   4.013   3.237   4.187
 2636SOL     OW10573   4.028   3.520   4.120
 2636SOL    HW210574   4.016   3.430   4.149
 2636SOL    HW310575   4.019   3.516   4.025
 2636SOL    MW410576   4.025   3.508   4.111
 2637SOL     OW10577   4.282   3.619   4.220
 2637SOL    HW210578   4.291   3.698   4.168
 2637SOL    HW310579   4.204   3.576   4.185
 2637SOL    MW410580   4.273   3.623   4.208
 2638SOL     OW10581   4.247   3.890   4.136
 2638SOL    HW210582   4.183   3.956   4.163
 2638SOL    HW310583   4.249   3.896   4.041
 2638SOL    MW410584   4.239   3.900   4.127
 2639SOL     OW10585   4.056   4.069   4.242
 2639SOL    HW210586   4.073   4.041   4.332
 2639SOL    HW310587   3.980   4.018   4.215
 2639SOL    MW410588   4.048   4.059   4.250
 2640SOL     OW10589   4.033   4.356   4.152
 2640SOL    HW210590   4.108   4.402   4.189
 2640SOL    HW310591   4.040   4.267   4.187
 2640SOL    MW410592   4.044   4.350   4.161
 2641SOL     OW10593   0.000   4.292   4.564
 2641SOL    HW210594  -0.002   4.202   4.531
 2641SOL    HW310595   0.047   4.286   4.647
 2641SOL    MW410596   0.006   4.279   4.571
 2642SOL     OW10597   4.023   4.231   4.623
 2642SOL    HW210598   3.977   4.150   4.645
 2642SOL    HW310599   3.954   4.296   4.611
 2642SOL    MW410600   4.008   4.229   4.624
 2643SOL     OW10601   4.213   0.026   4.509
 2643SOL    HW210602   4.136   0.069   4.546
 2643SOL    HW310603   4.193  -0.068   4.514
 2643SOL    MW410604   4.201   0.019   4.514
 2644SOL     OW10605   3.942   0.139   4.548
 2644SOL    HW210606   3.938   0.233   4.567
 2644SOL    HW310607   3.958   0.134   4.454
 2644SOL    MW410608   3.943   0.151   4.538
 2645SOL     OW10609   4.009   1.535   4.449
 2645SOL    HW210610   3.917   1.518   4.470
 2645SOL    HW310611   4.054   1.454   4.471
 2645SOL    MW410612   4.003   1.522   4.455
 2646SOL     OW10613   0.515   0.201   4.518
 2646SOL    HW210614   0.479   0.121   4.556
 2646SOL    HW310615   0.610   0.190   4.524
 2646SOL    MW410616   0.523   0.189   4.524
 2647SOL     OW10617   0.334   0.846   4.626
 2647SOL    HW210618   0.398   0.828   4.695
 2647SOL    HW310619   0.320   0.761   4.584
 2647SOL    MW410620   0.341   0.832   4.630
 2648SOL     OW10621   4.313   0.843   4.570
 2648SOL    HW210622   4.336   0.765   4.520
 2648SOL    HW310623   4.397   0.880   4.598
 2648SOL    MW410624   4.327   0.838   4.567
 2649SOL     OW10625   0.698   1.398   4.475
 2649SOL    HW210626   0.745   1.478   4.449
 2649SOL    HW310627   0.620   1.430   4.520
 2649SOL    MW410628   0.694   1.413   4.478
 2650SOL     OW10629   1.158   1.947   4.471
 2650SOL    HW210630   1.249   1.971   4.491
 2650SOL    HW310631   1.105   2.008   4.522
 2650SOL    MW410632   1.163   1.958   4.480
 2651SOL     OW10633   4.102   1.293   4.571
 2651SOL    HW210634   4.008   1.296   4.589
 2651SOL    HW310635   4.118   1.202   4.545
 2651SOL    MW410636   4.092   1.282   4.570
 2652SOL     OW10637   0.091   1.805   4.544
 2652SOL    HW210638   0.062   1.803   4.453
 2652SOL    HW310639   0.101   1.898   4.565
 2652SOL    MW410640   0.089   1.817   4.535
 2653SOL     OW10641   0.407   1.714   4.244
 2653SOL    HW210642   0.331   1.664   4.213
 2653SOL    HW310643   0.481   1.656   4.227
 2653SOL    MW410644   0.407   1.700   4.237
 2654SOL     OW10645   4.275   2.021   4.541
 2654SOL    HW210646   4.261   1.931   4.569
 2654SOL    HW310647   4.368   2.037   4.559
 2654SOL    MW410648   4.285   2.011   4.547
 2655SOL     OW10649   4.155   2.376   4.605
 2655SOL    HW210650   4.083   2.417   4.558
 2655SOL    HW310651   4.124   2.287   4.624
 2655SOL    MW410652   4.141   2.369   4.602
 2656SOL     OW10653   0.659   3.090   4.628
 2656SOL    HW210654   0.702   3.023   4.575
 2656SOL    HW310655   0.729   3.151   4.652
 2656SOL    MW410656   0.674   3.089   4.624
 2657SOL     OW10657   0.485   2.867   4.687
 2657SOL    HW210658   0.391   2.889   4.682
 2657SOL    HW310659   0.529   2.951   4.675
 2657SOL    MW410660   0.478   2.881   4.685
 2658SOL     OW10661   0.101   2.575   4.522
 2658SOL    HW210662   0.047   2.497   4.533
 2658SOL    HW310663   0.056   2.644   4.571
 2658SOL    MW410664   0.088   2.574   4.530
 2659SOL     OW10665   3.632   3.565   4.578
 2659SOL    HW210666   3.703   3.500   4.580
 2659SOL    HW310667   3.561   3.520   4.533
 2659SOL    MW410668   3.632   3.550   4.572
 2660SOL     OW10669   0.495   3.310   4.500
 2660SOL    HW210670   0.409   3.317   4.540
 2660SOL    HW310671   0.538   3.239   4.548
 2660SOL    MW410672   0.490   3.301   4.511
 2661SOL     OW10673   4.168   3.926   4.459
 2661SOL    HW210674   4.205   3.838   4.457
 2661SOL    HW310675   4.134   3.935   4.548
 2661SOL    MW410676   4.168   3.916   4.471
 2662SOL     OW10677   4.483   0.119   4.510
 2662SOL    HW210678   4.388   0.108   4.508
 2662SOL    HW310679   4.497   0.210   4.536
 2662SOL    MW410680   4.472   0.129   4.513
 2663SOL     OW10681   3.285   0.448   4.545
 2663SOL    HW210682   3.285   0.463   4.451
 2663SOL    HW310683   3.286   0.353   4.555
 2663SOL    MW410684   3.285   0.438   4.534
 2664SOL     OW10685   4.018   3.890   4.692
 2664SOL    HW210686   4.005   3.804   4.652
 2664SOL    HW310687   3.930   3.927   4.697
 2664SOL    MW410688   4.005   3.883   4.687
 2665SOL     OW10689   3.759   3.990   4.637
 2665SOL    HW210690   3.707   3.963   4.713
 2665SOL    HW310691   3.742   3.923   4.571
 2665SOL    MW410692   3.750   3.978   4.639
 2666SOL     OW10693   0.399   4.625   4.576
 2666SOL    HW210694   0.459   4.562   4.537
 2666SOL    HW310695   0.312   4.595   4.550
 2666SOL    MW410696   0.396   4.613   4.568
 2667SOL     OW10697   4.041   0.815   4.698
 2667SOL    HW210698   3.989   0.893   4.682
 2667SOL    HW310699   4.131   0.841   4.677
 2667SOL    MW410700   4.046   0.829   4.693
 2668SOL     OW10701   1.086   0.557   4.501
 2668SOL    HW210702   1.025   0.632   4.499
 2668SOL    HW310703   1.040   0.490   4.552
 2668SOL    MW410704   1.072   0.558   4.507
 2669SOL     OW10705   0.893   0.363   4.571
 2669SOL    HW210706   0.847   0.286   4.541
 2669SOL    HW310707   0.825   0.429   4.585
 2669SOL    MW410708   0.878   0.362   4.569
 2670SOL     OW10709   0.888   0.783   4.497
 2670SOL    HW210710   0.913   0.810   4.409
 2670SOL    HW310711   0.862   0.864   4.540
 2670SOL    MW410712   0.888   0.797   4.491
 2671SOL     OW10713   0.510   1.052   4.517
 2671SOL    HW210714   0.494   1.011   4.432
 2671SOL    HW310715   0.440   1.017   4.573
 2671SOL    MW410716   0.498   1.042   4.514
 2672SOL     OW10717   2.163   1.251   4.422
 2672SOL    HW210718   2.136   1.242   4.331
 2672SOL    HW310719   2.254   1.282   4.418
 2672SOL    MW410720   2.172   1.254   4.410
 2673SOL     OW10721   0.346   1.733   4.541
 2673SOL    HW210722   0.252   1.746   4.539
 2673SOL    HW310723   0.375   1.750   4.451
 2673SOL    MW410724   0.338   1.737   4.529
 2674SOL     OW10725   1.394   1.039   4.460
 2674SOL    HW210726   1.360   0.952   4.482
 2674SOL    HW310727   1.317   1.088   4.431
 2674SOL    MW410728   1.379   1.034   4.459
 2675SOL     OW10729   0.813   1.654   4.456
 2675SOL    HW210730   0.759   1.722   4.498
 2675SOL    HW310731   0.898   1.661   4.499
 2675SOL    MW410732   0.817   1.664   4.467
 2676SOL     OW10733   0.625   2.103   4.474
 2676SOL    HW210734   0.670   2.161   4.535
 2676SOL    HW310735   0.644   2.015   4.506
 2676SOL    MW410736   0.633   2.099   4.486
 2677SOL     OW10737   1.072   1.681   4.534
 2677SOL    HW210738   1.135   1.611   4.522
 2677SOL    HW310739   1.112   1.757   4.493
 2677SOL    MW410740   1.085   1.682   4.527
 2678SOL     OW10741   0.348   2.184   4.493
 2678SOL    HW210742   0.438   2.159   4.472
 2678SOL    HW310743   0.352   2.279   4.506
 2678SOL    MW410744   0.360   2.193   4.492
 2679SOL     OW10745   1.066   2.601   4.576
 2679SOL    HW210746   1.051   2.694   4.563
 2679SOL    HW310747   0.984   2.559   4.551
 2679SOL    MW410748   1.053   2.608   4.571
 2680SOL     OW10749   0.835   2.485   4.489
 2680SOL    HW210750   0.748   2.524   4.494
 2680SOL    HW310751   0.845   2.463   4.396
 2680SOL    MW410752   0.825   2.487   4.477
 2681SOL     OW10753   1.004   3.173   4.514
 2681SOL    HW210754   1.092   3.209   4.503
 2681SOL    HW310755   0.971   3.214   4.594
 2681SOL    MW410756   1.011   3.183   4.523
 2682SOL     OW10757   0.859   3.528   4.692
 2682SOL    HW210758   0.795   3.531   4.621
 2682SOL    HW310759   0.941   3.555   4.650
 2682SOL    MW410760   0.862   3.532   4.677
 2683SOL     OW10761   1.201   4.536   4.455
 2683SOL    HW210762   1.255   4.615   4.456
 2683SOL    HW310763   1.255   4.469   4.496
 2683SOL    MW410764   1.215   4.538   4.460
 2684SOL     OW10765   0.374   2.465   4.508
 2684SOL    HW210766   0.363   2.460   4.413
 2684SOL    HW310767   0.291   2.502   4.539
 2684SOL    MW410768   0.361   2.469   4.499
 2685SOL     OW10769   0.037   3.184   4.477
 2685SOL    HW210770   0.090   3.262   4.495
 2685SOL    HW310771   0.024   3.186   4.382
 2685SOL    MW410772   0.042   3.195   4.467
 2686SOL     OW10773   1.570   3.591   4.518
 2686SOL    HW210774   1.594   3.509   4.562
 2686SOL    HW310775   1.634   3.655   4.549
 2686SOL    MW410776   1.581   3.589   4.528
 2687SOL     OW10777   4.430   4.030   4.477
 2687SOL    HW210778   4.338   4.002   4.472
 2687SOL    HW310779   4.471   3.967   4.536
 2687SOL    MW410780   4.423   4.018   4.484
 2688SOL     OW10781   0.224   3.855   4.113
 2688SOL    HW210782   0.209   3.762   4.129
 2688SOL    HW310783   0.154   3.900   4.161
 2688SOL    MW410784   0.213   3.849   4.121
 2689SOL     OW10785   0.126   4.550   4.502
 2689SOL    HW210786   0.070   4.485   4.544
 2689SOL    HW310787   0.080   4.633   4.514
 2689SOL    MW410788   0.112   4.553   4.509
 2690SOL     OW10789   0.496   0.492   4.483
 2690SOL    HW210790   0.530   0.484   4.394
 2690SOL    HW310791   0.497   0.402   4.517
 2690SOL    MW410792   0.500   0.479   4.475
 2691SOL     OW10793   0.738   3.937   4.593
 2691SOL    HW210794   0.759   3.861   4.648
 2691SOL    HW310795   0.804   3.935   4.524
 2691SOL    MW410796   0.749   3.926   4.591
 2692SOL     OW10797   0.606   0.768   4.789
 2692SOL    HW210798   0.604   0.731   4.878
 2692SOL    HW310799   0.638   0.696   4.735
 2692SOL    MW410800   0.610   0.753   4.794
 2693SOL     OW10801   1.314   0.766   4.470
 2693SOL    HW210802   1.314   0.787   4.376
 2693SOL    HW310803   1.237   0.710   4.481
 2693SOL    MW410804   1.304   0.762   4.459
 2694SOL     OW10805   1.919   1.156   4.560
 2694SOL    HW210806   1.978   1.200   4.499
 2694SOL    HW310807   1.921   1.064   4.532
 2694SOL    MW410808   1.927   1.150   4.548
 2695SOL     OW10809   0.353   1.274   4.578
 2695SOL    HW210810   0.426   1.220   4.546
 2695SOL    HW310811   0.393   1.359   4.596
 2695SOL    MW410812   0.368   1.278   4.576
 2696SOL     OW10813   0.951   1.831   4.770
 2696SOL    HW210814   0.915   1.767   4.831
 2696SOL    HW310815   1.005   1.779   4.711
 2696SOL    MW410816   0.954   1.815   4.770
 2697SOL     OW10817   0.905   1.230   4.572
 2697SOL    HW210818   0.832   1.288   4.550
 2697SOL    HW310819   0.863   1.152   4.609
 2697SOL    MW410820   0.890   1.228   4.574
 2698SOL     OW10821   2.069   1.469   4.547
 2698SOL    HW210822   2.064   1.438   4.637
 2698SOL    HW310823   2.107   1.396   4.498
 2698SOL    MW410824   2.073   1.455   4.552
 2699SOL     OW10825   1.157   1.228   4.453
 2699SOL    HW210826   1.073   1.227   4.500
 2699SOL    HW310827   1.201   1.307   4.486
 2699SOL    MW410828   1.152   1.238   4.464
 2700SOL     OW10829   1.037   2.096   4.672
 2700SOL    HW210830   1.011   2.023   4.728
 2700SOL    HW310831   1.123   2.122   4.705
 2700SOL    MW410832   1.045   2.090   4.684
 2701SOL     OW10833   1.599   2.422   4.760
 2701SOL    HW210834   1.682   2.458   4.790
 2701SOL    HW310835   1.549   2.499   4.732
 2701SOL    MW410836   1.603   2.437   4.760
 2702SOL     OW10837   1.474   3.121   4.563
 2702SOL    HW210838   1.530   3.192   4.596
 2702SOL    HW310839   1.535   3.059   4.524
 2702SOL    MW410840   1.489   3.122   4.562
 2703SOL     OW10841   1.639   3.331   4.601
 2703SOL    HW210842   1.715   3.290   4.642
 2703SOL    HW310843   1.655   3.321   4.507
 2703SOL    MW410844   1.651   3.324   4.594
 2704SOL     OW10845   0.766   2.870   4.505
 2704SOL    HW210846   0.861   2.873   4.518
 2704SOL    HW310847   0.738   2.790   4.549
 2704SOL    MW410848   0.775   2.860   4.513
 2705SOL     OW10849   0.811   4.201   4.534
 2705SOL    HW210850   0.748   4.271   4.553
 2705SOL    HW310851   0.775   4.124   4.579
 2705SOL    MW410852   0.798   4.200   4.543
 2706SOL     OW10853   1.307   2.858   4.638
 2706SOL    HW210854   1.212   2.860   4.629
 2706SOL    HW310855   1.334   2.949   4.622
 2706SOL    MW410856   1.298   2.870   4.634
 2707SOL     OW10857   1.054   2.892   4.517
 2707SOL    HW210858   1.037   2.985   4.528
 2707SOL    HW310859   1.083   2.883   4.426
 2707SOL    MW410860   1.056   2.903   4.507
 2708SOL     OW10861   2.032   3.621   4.544
 2708SOL    HW210862   2.038   3.632   4.449
 2708SOL    HW310863   2.036   3.526   4.557
 2708SOL    MW410864   2.034   3.610   4.533
 2709SOL     OW10865   0.547   3.804   4.448
 2709SOL    HW210866   0.504   3.866   4.390
 2709SOL    HW310867   0.606   3.857   4.501
 2709SOL    MW410868   0.549   3.819   4.447
 2710SOL     OW10869   0.213   3.388   4.554
 2710SOL    HW210870   0.244   3.470   4.516
 2710SOL    HW310871   0.160   3.415   4.629
 2710SOL    MW410872   0.210   3.402   4.559
 2711SOL     OW10873   0.637   4.437   4.511
 2711SOL    HW210874   0.603   4.429   4.422
 2711SOL    HW310875   0.715   4.492   4.502
 2711SOL    MW410876   0.643   4.443   4.498
 2712SOL     OW10877   0.796   4.204   4.144
 2712SOL    HW210878   0.859   4.183   4.214
 2712SOL    HW310879   0.729   4.257   4.187
 2712SOL    MW410880   0.796   4.208   4.159
 2713SOL     OW10881   2.190   3.787   4.705
 2713SOL    HW210882   2.136   3.730   4.649
 2713SOL    HW310883   2.182   3.748   4.793
 2713SOL    MW410884   2.182   3.774   4.709
 2714SOL     OW10885   1.484   4.362   4.496
 2714SOL    HW210886   1.531   4.342   4.415
 2714SOL    HW310887   1.429   4.285   4.512
 2714SOL    MW410888   1.483   4.349   4.487
 2715SOL     OW10889   1.281   4.171   4.492
 2715SOL    HW210890   1.296   4.076   4.494
 2715SOL    HW310891   1.203   4.181   4.437
 2715SOL    MW410892   1.273   4.160   4.485
 2716SOL     OW10893   0.716   0.592   4.614
 2716SOL    HW210894   0.770   0.653   4.565
 2716SOL    HW310895   0.647   0.566   4.554
 2716SOL    MW410896   0.714   0.597   4.600
 2717SOL     OW10897   1.607   4.660   4.549
 2717SOL    HW210898   1.575   4.570   4.548
 2717SOL    HW310899   1.701   4.652   4.534
 2717SOL    MW410900   1.615   4.647   4.547
 2718SOL     OW10901   1.345   0.376   4.530
 2718SOL    HW210902   1.256   0.409   4.519
 2718SOL    HW310903   1.400   0.454   4.534
 2718SOL    MW410904   1.341   0.390   4.529
 2719SOL     OW10905   1.793   1.607   4.507
 2719SOL    HW210906   1.873   1.556   4.523
 2719SOL    HW310907   1.786   1.612   4.412
 2719SOL    MW410908   1.803   1.601   4.497
 2720SOL     OW10909   0.760   0.994   4.658
 2720SOL    HW210910   0.691   1.023   4.600
 2720SOL    HW310911   0.718   0.926   4.712
 2720SOL    MW410912   0.746   0.989   4.658
 2721SOL     OW10913   1.667   0.253   4.444
 2721SOL    HW210914   1.649   0.166   4.480
 2721SOL    HW310915   1.582   0.286   4.417
 2721SOL    MW410916   1.654   0.246   4.446
 2722SOL     OW10917   1.617   1.182   4.458
 2722SOL    HW210918   1.543   1.124   4.472
 2722SOL    HW310919   1.688   1.143   4.510
 2722SOL    MW410920   1.617   1.169   4.467
 2723SOL     OW10921   1.289   1.486   4.484
 2723SOL    HW210922   1.377   1.483   4.521
 2723SOL    HW310923   1.299   1.535   4.402
 2723SOL    MW410924   1.302   1.492   4.478
 2724SOL     OW10925   1.446   2.617   4.645
 2724SOL    HW210926   1.404   2.703   4.647
 2724SOL    HW310927   1.375   2.556   4.625
 2724SOL    MW410928   1.431   2.620   4.643
 2725SOL     OW10929   2.255   2.528   4.149
 2725SOL    HW210930   2.193   2.457   4.135
 2725SOL    HW310931   2.211   2.586   4.211
 2725SOL    MW410932   2.241   2.527   4.155
 2726SOL     OW10933   0.775   2.260   4.646
 2726SOL    HW210934   0.866   2.231   4.658
 2726SOL    HW310935   0.782   2.345   4.603
 2726SOL    MW410936   0.788   2.267   4.642
 2727SOL     OW10937   1.216   3.906   4.416
 2727SOL    HW210938   1.121   3.901   4.402
 2727SOL    HW310939   1.238   3.827   4.464
 2727SOL    MW410940   1.206   3.895   4.420
 2728SOL     OW10941   1.309   2.423   4.254
 2728SOL    HW210942   1.327   2.514   4.228
 2728SOL    HW310943   1.372   2.371   4.203
 2728SOL    MW410944   1.320   2.428   4.244
 2729SOL     OW10945   1.292   2.405   4.544
 2729SOL    HW210946   1.205   2.445   4.552
 2729SOL    HW310947   1.304   2.393   4.450
 2729SOL    MW410948   1.282   2.409   4.533
 2730SOL     OW10949   1.250   3.296   4.489
 2730SOL    HW210950   1.331   3.254   4.520
 2730SOL    HW310951   1.256   3.291   4.393
 2730SOL    MW410952   1.262   3.290   4.480
 2731SOL     OW10953   0.843   3.254   4.740
 2731SOL    HW210954   0.857   3.348   4.732
 2731SOL    HW310955   0.804   3.242   4.826
 2731SOL    MW410956   0.840   3.265   4.750
 2732SOL     OW10957   0.658   3.529   4.462
 2732SOL    HW210958   0.595   3.463   4.492
 2732SOL    HW310959   0.607   3.609   4.453
 2732SOL    MW410960   0.643   3.531   4.464
 2733SOL     OW10961   2.339   3.282   4.618
 2733SOL    HW210962   2.368   3.215   4.557
 2733SOL    HW310963   2.245   3.292   4.600
 2733SOL    MW410964   2.330   3.275   4.607
 2734SOL     OW10965   2.048   3.336   4.557
 2734SOL    HW210966   2.082   3.284   4.484
 2734SOL    HW310967   1.980   3.281   4.595
 2734SOL    MW410968   2.044   3.322   4.552
 2735SOL     OW10969   2.385   3.068   4.437
 2735SOL    HW210970   2.307   3.016   4.455
 2735SOL    HW310971   2.454   3.026   4.488
 2735SOL    MW410972   2.384   3.056   4.446
 2736SOL     OW10973   1.096   3.513   4.533
 2736SOL    HW210974   1.155   3.588   4.545
 2736SOL    HW310975   1.153   3.437   4.533
 2736SOL    MW410976   1.111   3.513   4.535
 2737SOL     OW10977   1.845   4.036   4.536
 2737SOL    HW210978   1.821   4.014   4.447
 2737SOL    HW310979   1.940   4.048   4.534
 2737SOL    MW410980   1.854   4.035   4.524
 2738SOL     OW10981   1.909   0.403   4.516
 2738SOL    HW210982   1.825   0.368   4.487
 2738SOL    HW310983   1.953   0.331   4.560
 2738SOL    MW410984   1.904   0.389   4.518
 2739SOL     OW10985   0.780   0.111   4.496
 2739SOL    HW210986   0.809   0.117   4.404
 2739SOL    HW310987   0.842   0.050   4.536
 2739SOL    MW410988   0.792   0.104   4.489
 2740SOL     OW10989   1.363   0.101   4.468
 2740SOL    HW210990   1.441   0.067   4.513
 2740SOL    HW310991   1.354   0.190   4.501
 2740SOL    MW410992   1.372   0.108   4.478
 2741SOL     OW10993   2.254   4.318   4.485
 2741SOL    HW210994   2.239   4.227   4.508
 2741SOL    HW310995   2.328   4.345   4.540
 2741SOL    MW410996   2.262   4.310   4.495
 2742SOL     OW10997   1.932   0.884   4.471
 2742SOL    HW210998   1.893   0.806   4.510
 2742SOL    HW310999   1.887   0.894   4.387
 2742SOL    MW411000   1.921   0.875   4.465
 2743SOL     OW11001   1.539   0.597   4.487
 2743SOL    HW211002   1.470   0.662   4.475
 2743SOL    HW311003   1.604   0.640   4.542
 2743SOL    MW411004   1.538   0.611   4.492
 2744SOL     OW11005   2.449   1.860   4.528
 2744SOL    HW211006   2.416   1.946   4.501
 2744SOL    HW311007   2.387   1.798   4.492
 2744SOL    MW411008   2.437   1.863   4.519
 2745SOL     OW11009   0.720   1.874   4.591
 2745SOL    HW211010   0.789   1.873   4.657
 2745SOL    HW311011   0.639   1.881   4.641
 2745SOL    MW411012   0.719   1.875   4.606
 2746SOL     OW11013   1.558   1.451   4.567
 2746SOL    HW211014   1.592   1.366   4.539
 2746SOL    HW311015   1.628   1.513   4.548
 2746SOL    MW411016   1.571   1.448   4.561
 2747SOL     OW11017   1.306   2.151   4.693
 2747SOL    HW211018   1.305   2.241   4.662
 2747SOL    HW311019   1.340   2.100   4.619
 2747SOL    MW411020   1.310   2.156   4.680
 2748SOL     OW11021   1.431   2.039   4.478
 2748SOL    HW211022   1.483   1.980   4.424
 2748SOL    HW311023   1.478   2.122   4.474
 2748SOL    MW411024   1.444   2.042   4.471
 2749SOL     OW11025   2.059   2.329   4.106
 2749SOL    HW211026   2.027   2.303   4.019
 2749SOL    HW311027   2.084   2.247   4.148
 2749SOL    MW411028   2.058   2.315   4.100
 2750SOL     OW11029   1.570   2.075   4.792
 2750SOL    HW211030   1.606   2.163   4.785
 2750SOL    HW311031   1.477   2.085   4.772
 2750SOL    MW411032   1.562   2.088   4.789
 2751SOL     OW11033   2.931   3.028   4.757
 2751SOL    HW211034   2.969   2.992   4.678
 2751SOL    HW311035   2.995   3.093   4.788
 2751SOL    MW411036   2.944   3.032   4.751
 2752SOL     OW11037   1.849   3.137   4.664
 2752SOL    HW211038   1.788   3.070   4.633
 2752SOL    HW311039   1.933   3.093   4.671
 2752SOL    MW411040   1.852   3.123   4.661
 2753SOL     OW11041   1.781   3.754   4.596
 2753SOL    HW211042   1.817   3.834   4.556
 2753SOL    HW311043   1.857   3.696   4.604
 2753SOL    MW411044   1.796   3.757   4.591
 2754SOL     OW11045   2.484   3.105   4.800
 2754SOL    HW211046   2.428   3.167   4.752
 2754SOL    HW311047   2.426   3.031   4.818
 2754SOL    MW411048   2.469   3.103   4.796
 2755SOL     OW11049   2.440   2.457   4.725
 2755SOL    HW211050   2.383   2.454   4.648
 2755SOL    HW311051   2.395   2.403   4.790
 2755SOL    MW411052   2.426   2.449   4.723
 2756SOL     OW11053   2.969   3.842   4.614
 2756SOL    HW211054   2.965   3.822   4.708
 2756SOL    HW311055   2.880   3.866   4.590
 2756SOL    MW411056   2.957   3.842   4.623
 2757SOL     OW11057   2.717   3.935   4.535
 2757SOL    HW211058   2.712   3.919   4.441
 2757SOL    HW311059   2.633   3.904   4.569
 2757SOL    MW411060   2.705   3.929   4.527
 2758SOL     OW11061   2.518   3.486   4.551
 2758SOL    HW211062   2.457   3.421   4.586
 2758SOL    HW311063   2.485   3.505   4.463
 2758SOL    MW411064   2.506   3.479   4.544
 2759SOL     OW11065   2.480   3.763   4.601
 2759SOL    HW211066   2.504   3.676   4.569
 2759SOL    HW311067   2.393   3.752   4.638
 2759SOL    MW411068   2.472   3.750   4.602
 2760SOL     OW11069   1.758   4.320   4.574
 2760SOL    HW211070   1.788   4.230   4.565
 2760SOL    HW311071   1.663   4.313   4.579
 2760SOL    MW411072   1.750   4.307   4.573
 2761SOL     OW11073   1.308   3.677   4.591
 2761SOL    HW211074   1.388   3.630   4.567
 2761SOL    HW311075   1.313   3.687   4.686
 2761SOL    MW411076   1.319   3.672   4.600
 2762SOL     OW11077   2.041   0.191   4.633
 2762SOL    HW211078   2.054   0.180   4.728
 2762SOL    HW311079   2.128   0.209   4.599
 2762SOL    MW411080   2.054   0.192   4.641
 2763SOL     OW11081   1.873   0.043   4.477
 2763SOL    HW211082   1.925  -0.037   4.470
 2763SOL    HW311083   1.930   0.104   4.525
 2763SOL    MW411084   1.888   0.041   4.483
 2764SOL     OW11085   2.276   1.644   4.430
 2764SOL    HW211086   2.247   1.651   4.339
 2764SOL    HW311087   2.209   1.590   4.472
 2764SOL    MW411088   2.264   1.638   4.423
 2765SOL     OW11089   2.648   0.646   4.645
 2765SOL    HW211090   2.566   0.677   4.607
 2765SOL    HW311091   2.674   0.572   4.590
 2765SOL    MW411092   2.641   0.640   4.633
 2766SOL     OW11093   2.866   0.749   4.350
 2766SOL    HW211094   2.873   0.783   4.439
 2766SOL    HW311095   2.950   0.769   4.310
 2766SOL    MW411096   2.878   0.756   4.356
 2767SOL     OW11097   3.216   1.202   4.285
 2767SOL    HW211098   3.181   1.169   4.367
 2767SOL    HW311099   3.265   1.281   4.309
 2767SOL    MW411100   3.218   1.208   4.299
 2768SOL     OW11101   2.218   0.955   4.505
 2768SOL    HW211102   2.228   1.046   4.533
 2768SOL    HW311103   2.124   0.943   4.492
 2768SOL    MW411104   2.207   0.965   4.507
 2769SOL     OW11105   2.620   1.457   4.548
 2769SOL    HW211106   2.616   1.547   4.516
 2769SOL    HW311107   2.709   1.427   4.528
 2769SOL    MW411108   2.631   1.465   4.541
 2770SOL     OW11109   2.649   1.709   4.424
 2770SOL    HW211110   2.641   1.718   4.329
 2770SOL    HW311111   2.578   1.764   4.458
 2770SOL    MW411112   2.638   1.718   4.416
 2771SOL     OW11113   2.367   2.120   4.488
 2771SOL    HW211114   2.443   2.164   4.527
 2771SOL    HW311115   2.363   2.154   4.399
 2771SOL    MW411116   2.377   2.130   4.481
 2772SOL     OW11117   2.628   1.988   4.719
 2772SOL    HW211118   2.630   2.078   4.688
 2772SOL    HW311119   2.556   1.947   4.671
 2772SOL    MW411120   2.619   1.994   4.709
 2773SOL     OW11121   2.277   2.195   4.760
 2773SOL    HW211122   2.269   2.195   4.664
 2773SOL    HW311123   2.281   2.102   4.783
 2773SOL    MW411124   2.276   2.182   4.750
 2774SOL     OW11125   2.735   2.602   4.437
 2774SOL    HW211126   2.812   2.573   4.486
 2774SOL    HW311127   2.683   2.649   4.501
 2774SOL    MW411128   2.739   2.604   4.452
 2775SOL     OW11129   1.606   2.685   4.427
 2775SOL    HW211130   1.608   2.607   4.372
 2775SOL    HW311131   1.558   2.658   4.505
 2775SOL    MW411132   1.600   2.672   4.430
 2776SOL     OW11133   2.296   2.859   4.760
 2776SOL    HW211134   2.356   2.791   4.791
 2776SOL    HW311135   2.274   2.833   4.670
 2776SOL    MW411136   2.301   2.847   4.752
 2777SOL     OW11137   2.783   3.422   4.639
 2777SOL    HW211138   2.786   3.367   4.717
 2777SOL    HW311139   2.690   3.436   4.623
 2777SOL    MW411140   2.771   3.417   4.647
 2778SOL     OW11141   2.593   2.969   4.587
 2778SOL    HW211142   2.583   2.875   4.600
 2778SOL    HW311143   2.571   3.008   4.671
 2778SOL    MW411144   2.589   2.961   4.600
 2779SOL     OW11145   1.017   4.198   4.317
 2779SOL    HW211146   1.045   4.285   4.288
 2779SOL    HW311147   0.964   4.215   4.395
 2779SOL    MW411148   1.014   4.212   4.324
 2780SOL     OW11149   3.123   4.007   4.441
 2780SOL    HW211150   3.055   3.958   4.487
 2780SOL    HW311151   3.205   3.964   4.467
 2780SOL    MW411152   3.125   3.995   4.450
 2781SOL     OW11153   2.107   3.043   4.688
 2781SOL    HW211154   2.107   2.997   4.603
 2781SOL    HW311155   2.148   2.981   4.748
 2781SOL    MW411156   2.113   3.029   4.684
 2782SOL     OW11157   3.358   3.903   4.531
 2782SOL    HW211158   3.359   3.977   4.591
 2782SOL    HW311159   3.372   3.827   4.588
 2782SOL    MW411160   3.360   3.903   4.547
 2783SOL     OW11161   2.969   0.042   4.524
 2783SOL    HW211162   2.885   0.078   4.495
 2783SOL    HW311163   2.957  -0.053   4.519
 2783SOL    MW411164   2.956   0.034   4.519
 2784SOL     OW11165   2.137   4.022   4.519
 2784SOL    HW211166   2.145   3.944   4.574
 2784SOL    HW311167   2.160   3.991   4.431
 2784SOL    MW411168   2.141   4.007   4.514
 2785SOL     OW11169   2.550   4.178   4.276
 2785SOL    HW211170   2.456   4.164   4.267
 2785SOL    HW311171   2.570   4.245   4.210
 2785SOL    MW411172   2.540   4.185   4.266
 2786SOL     OW11173   2.886   0.491   4.238
 2786SOL    HW211174   2.895   0.578   4.277
 2786SOL    HW311175   2.974   0.467   4.210
 2786SOL    MW411176   2.898   0.499   4.240
 2787SOL     OW11177   2.939   4.410   4.491
 2787SOL    HW211178   3.009   4.359   4.531
 2787SOL    HW311179   2.861   4.355   4.502
 2787SOL    MW411180   2.938   4.396   4.498
 2788SOL     OW11181   2.683   4.257   4.516
 2788SOL    HW211182   2.621   4.254   4.442
 2788SOL    HW311183   2.695   4.165   4.539
 2788SOL    MW411184   2.676   4.244   4.509
 2789SOL     OW11185   2.851   1.071   4.573
 2789SOL    HW211186   2.868   0.988   4.617
 2789SOL    HW311187   2.780   1.052   4.511
 2789SOL    MW411188   2.844   1.058   4.571
 2790SOL     OW11189   2.710   0.140   4.440
 2790SOL    HW211190   2.654   0.103   4.508
 2790SOL    HW311191   2.665   0.121   4.358
 2790SOL    MW411192   2.697   0.132   4.438
 2791SOL     OW11193   1.820   0.666   4.591
 2791SOL    HW211194   1.843   0.575   4.574
 2791SOL    HW311195   1.855   0.684   4.678
 2791SOL    MW411196   1.828   0.657   4.600
 2792SOL     OW11197   2.581   1.009   4.474
 2792SOL    HW211198   2.523   0.933   4.489
 2792SOL    HW311199   2.626   0.988   4.392
 2792SOL    MW411200   2.579   0.996   4.465
 2793SOL     OW11201   3.146   1.476   4.545
 2793SOL    HW211202   3.059   1.437   4.542
 2793SOL    HW311203   3.186   1.452   4.462
 2793SOL    MW411204   3.140   1.468   4.534
 2794SOL     OW11205   3.119   1.747   4.535
 2794SOL    HW211206   3.038   1.772   4.580
 2794SOL    HW311207   3.119   1.652   4.538
 2794SOL    MW411208   3.108   1.738   4.541
 2795SOL     OW11209   2.847   1.849   4.584
 2795SOL    HW211210   2.789   1.888   4.649
 2795SOL    HW311211   2.790   1.793   4.531
 2795SOL    MW411212   2.832   1.847   4.585
 2796SOL     OW11213   2.566   2.403   4.349
 2796SOL    HW211214   2.621   2.476   4.375
 2796SOL    HW311215   2.563   2.408   4.253
 2796SOL    MW411216   2.573   2.413   4.340
 2797SOL     OW11217   2.605   2.243   4.591
 2797SOL    HW211218   2.615   2.278   4.503
 2797SOL    HW311219   2.558   2.312   4.639
 2797SOL    MW411220   2.600   2.257   4.586
 2798SOL     OW11221   2.987   2.085   4.470
 2798SOL    HW211222   2.945   2.002   4.488
 2798SOL    HW311223   2.950   2.114   4.387
 2798SOL    MW411224   2.977   2.078   4.461
 2799SOL     OW11225   2.544   2.699   4.607
 2799SOL    HW211226   2.511   2.627   4.662
 2799SOL    HW311227   2.474   2.714   4.544
 2799SOL    MW411228   2.530   2.691   4.606
 2800SOL     OW11229   3.537   3.904   4.842
 2800SOL    HW211230   3.469   3.972   4.845
 2800SOL    HW311231   3.491   3.824   4.817
 2800SOL    MW411232   3.522   3.902   4.839
 2801SOL     OW11233   2.911   2.804   4.309
 2801SOL    HW211234   2.859   2.866   4.257
 2801SOL    HW311235   2.847   2.743   4.345
 2801SOL    MW411236   2.896   2.804   4.307
 2802SOL     OW11237   2.745   3.211   4.806
 2802SOL    HW211238   2.656   3.179   4.823
 2802SOL    HW311239   2.798   3.131   4.797
 2802SOL    MW411240   2.740   3.196   4.807
 2803SOL     OW11241   3.042   2.924   4.509
 2803SOL    HW211242   3.126   2.878   4.513
 2803SOL    HW311243   2.986   2.867   4.456
 2803SOL    MW411244   3.046   2.910   4.503
 2804SOL     OW11245   2.291   0.230   4.503
 2804SOL    HW211246   2.319   0.320   4.487
 2804SOL    HW311247   2.254   0.201   4.420
 2804SOL    MW411248   2.290   0.238   4.490
 2805SOL     OW11249   3.367   4.118   4.733
 2805SOL    HW211250   3.286   4.169   4.723
 2805SOL    HW311251   3.433   4.169   4.686
 2805SOL    MW411252   3.365   4.132   4.726
 2806SOL     OW11253   3.962   3.655   4.523
 2806SOL    HW211254   3.935   3.681   4.435
 2806SOL    HW311255   3.933   3.564   4.531
 2806SOL    MW411256   3.955   3.647   4.513
 2807SOL     OW11257   2.970   3.579   4.487
 2807SOL    HW211258   2.903   3.518   4.520
 2807SOL    HW311259   2.945   3.664   4.524
 2807SOL    MW411260   2.958   3.582   4.496
 2808SOL     OW11261   3.148   4.253   4.580
 2808SOL    HW211262   3.125   4.174   4.531
 2808SOL    HW311263   3.221   4.291   4.531
 2808SOL    MW411264   3.155   4.248   4.567
 2809SOL     OW11265   2.677   0.434   4.454
 2809SOL    HW211266   2.680   0.338   4.456
 2809SOL    HW311267   2.745   0.459   4.390
 2809SOL    MW411268   2.687   0.424   4.446
 2810SOL     OW11269   2.879   0.804   4.611
 2810SOL    HW211270   2.950   0.741   4.624
 2810SOL    HW311271   2.800   0.758   4.639
 2810SOL    MW411272   2.878   0.790   4.616
 2811SOL     OW11273   2.420   0.749   4.531
 2811SOL    HW211274   2.384   0.662   4.514
 2811SOL    HW311275   2.345   0.808   4.524
 2811SOL    MW411276   2.405   0.746   4.527
 2812SOL     OW11277   2.438   1.273   4.449
 2812SOL    HW211278   2.477   1.192   4.480
 2812SOL    HW311279   2.487   1.342   4.493
 2812SOL    MW411280   2.450   1.271   4.459
 2813SOL     OW11281   2.458   4.399   4.645
 2813SOL    HW211282   2.536   4.361   4.604
 2813SOL    HW311283   2.477   4.493   4.646
 2813SOL    MW411284   2.471   4.407   4.640
 2814SOL     OW11285   2.493   0.022   4.573
 2814SOL    HW211286   2.469  -0.016   4.488
 2814SOL    HW311287   2.427   0.090   4.589
 2814SOL    MW411288   2.481   0.026   4.564
 2815SOL     OW11289   3.255   1.263   4.690
 2815SOL    HW211290   3.218   1.264   4.778
 2815SOL    HW311291   3.230   1.347   4.653
 2815SOL    MW411292   3.247   1.274   4.697
 2816SOL     OW11293   2.880   1.359   4.535
 2816SOL    HW211294   2.856   1.282   4.587
 2816SOL    HW311295   2.888   1.326   4.446
 2816SOL    MW411296   2.878   1.345   4.530
 2817SOL     OW11297   4.131   1.033   4.482
 2817SOL    HW211298   4.121   1.014   4.389
 2817SOL    HW311299   4.191   0.966   4.514
 2817SOL    MW411300   4.138   1.022   4.474
 2818SOL     OW11301   3.481   1.546   4.563
 2818SOL    HW211302   3.570   1.571   4.538
 2818SOL    HW311303   3.440   1.627   4.593
 2818SOL    MW411304   3.487   1.560   4.564
 2819SOL     OW11305   3.360   1.858   4.617
 2819SOL    HW211306   3.345   1.949   4.592
 2819SOL    HW311307   3.277   1.814   4.597
 2819SOL    MW411308   3.347   1.864   4.611
 2820SOL     OW11309   3.269   2.105   4.495
 2820SOL    HW211310   3.174   2.101   4.492
 2820SOL    HW311311   3.295   2.128   4.406
 2820SOL    MW411312   3.260   2.108   4.483
 2821SOL     OW11313   3.735   1.665   4.484
 2821SOL    HW211314   3.716   1.748   4.528
 2821SOL    HW311315   3.724   1.683   4.391
 2821SOL    MW411316   3.731   1.678   4.478
 2822SOL     OW11317   2.940   2.518   4.625
 2822SOL    HW211318   2.912   2.428   4.640
 2822SOL    HW311319   2.946   2.556   4.713
 2822SOL    MW411320   2.937   2.511   4.639
 2823SOL     OW11321   3.217   2.503   4.499
 2823SOL    HW211322   3.131   2.513   4.538
 2823SOL    HW311323   3.203   2.515   4.405
 2823SOL    MW411324   3.204   2.506   4.492
 2824SOL     OW11325   2.871   2.275   4.674
 2824SOL    HW211326   2.781   2.274   4.640
 2824SOL    HW311327   2.911   2.198   4.634
 2824SOL    MW411328   2.864   2.265   4.664
 2825SOL     OW11329   3.578   3.054   4.494
 2825SOL    HW211330   3.528   2.986   4.449
 2825SOL    HW311331   3.663   3.013   4.513
 2825SOL    MW411332   3.582   3.039   4.491
 2826SOL     OW11333   3.395   3.454   4.445
 2826SOL    HW211334   3.330   3.489   4.507
 2826SOL    HW311335   3.352   3.377   4.408
 2826SOL    MW411336   3.381   3.448   4.448
 2827SOL     OW11337   3.345   3.073   4.639
 2827SOL    HW211338   3.329   2.979   4.631
 2827SOL    HW311339   3.434   3.085   4.606
 2827SOL    MW411340   3.355   3.062   4.634
 2828SOL     OW11341   3.848   2.963   4.487
 2828SOL    HW211342   3.889   2.900   4.545
 2828SOL    HW311343   3.900   3.043   4.499
 2828SOL    MW411344   3.860   2.966   4.496
 2829SOL     OW11345   3.844   3.397   4.526
 2829SOL    HW211346   3.785   3.364   4.458
 2829SOL    HW311347   3.907   3.326   4.540
 2829SOL    MW411348   3.845   3.383   4.519
 2830SOL     OW11349   3.591   4.231   4.582
 2830SOL    HW211350   3.652   4.304   4.584
 2830SOL    HW311351   3.642   4.155   4.611
 2830SOL    MW411352   3.605   4.231   4.586
 2831SOL     OW11353   3.220   0.152   4.503
 2831SOL    HW211354   3.130   0.126   4.523
 2831SOL    HW311355   3.271   0.071   4.510
 2831SOL    MW411356   3.215   0.138   4.506
 2832SOL     OW11357   3.648   0.170   4.595
 2832SOL    HW211358   3.741   0.161   4.615
 2832SOL    HW311359   3.637   0.262   4.570
 2832SOL    MW411360   3.659   0.181   4.595
 2833SOL     OW11361   3.375   4.402   4.491
 2833SOL    HW211362   3.455   4.357   4.518
 2833SOL    HW311363   3.393   4.495   4.506
 2833SOL    MW411364   3.388   4.409   4.497
 2834SOL     OW11365   3.619   3.820   4.447
 2834SOL    HW211366   3.630   3.728   4.472
 2834SOL    HW311367   3.527   3.838   4.462
 2834SOL    MW411368   3.609   3.810   4.453
 2835SOL     OW11369   3.451   4.662   4.477
 2835SOL    HW211370   3.491   4.705   4.552
 2835SOL    HW311371   3.482   4.711   4.401
 2835SOL    MW411372   3.460   4.674   4.477
 2836SOL     OW11373   3.245   0.820   4.529
 2836SOL    HW211374   3.190   0.897   4.515
 2836SOL    HW311375   3.195   0.765   4.590
 2836SOL    MW411376   3.231   0.823   4.535
 2837SOL     OW11377   1.993   4.444   4.468
 2837SOL    HW211378   2.065   4.393   4.504
 2837SOL    HW311379   1.914   4.402   4.504
 2837SOL    MW411380   1.992   4.431   4.477
 2838SOL     OW11381   4.371   1.681   4.688
 2838SOL    HW211382   4.368   1.603   4.632
 2838SOL    HW311383   4.446   1.731   4.654
 2838SOL    MW411384   4.381   1.677   4.676
 2839SOL     OW11385   3.867   1.009   4.583
 2839SOL    HW211386   3.814   0.937   4.548
 2839SOL    HW311387   3.944   1.011   4.527
 2839SOL    MW411388   3.870   1.000   4.571
 2840SOL     OW11389   0.087   0.967   4.586
 2840SOL    HW211390   0.083   0.935   4.496
 2840SOL    HW311391   0.172   0.937   4.619
 2840SOL    MW411392   0.098   0.959   4.578
 2841SOL     OW11393   4.300   0.565   4.490
 2841SOL    HW211394   4.267   0.563   4.400
 2841SOL    HW311395   4.222   0.557   4.545
 2841SOL    MW411396   4.285   0.563   4.485
 2842SOL     OW11397   3.631   1.714   4.231
 2842SOL    HW211398   3.679   1.647   4.182
 2842SOL    HW311399   3.539   1.688   4.223
 2842SOL    MW411400   3.625   1.702   4.223
 2843SOL     OW11401   4.025   1.669   4.194
 2843SOL    HW211402   4.115   1.641   4.177
 2843SOL    HW311403   4.007   1.639   4.283
 2843SOL    MW411404   4.034   1.661   4.204
 2844SOL     OW11405   3.662   2.366   4.494
 2844SOL    HW211406   3.573   2.367   4.528
 2844SOL    HW311407   3.695   2.278   4.512
 2844SOL    MW411408   3.655   2.355   4.501
 2845SOL     OW11409   3.652   1.896   4.622
 2845SOL    HW211410   3.556   1.895   4.621
 2845SOL    HW311411   3.675   1.870   4.712
 2845SOL    MW411412   3.642   1.892   4.634
 2846SOL     OW11413   0.074   2.100   4.551
 2846SOL    HW211414   0.164   2.126   4.529
 2846SOL    HW311415   0.025   2.182   4.552
 2846SOL    MW411416   0.080   2.114   4.548
 2847SOL     OW11417   3.776   2.113   4.543
 2847SOL    HW211418   3.862   2.115   4.585
 2847SOL    HW311419   3.735   2.034   4.577
 2847SOL    MW411420   3.782   2.103   4.553
 2848SOL     OW11421   3.996   2.813   4.679
 2848SOL    HW211422   3.991   2.844   4.769
 2848SOL    HW311423   4.078   2.764   4.675
 2848SOL    MW411424   4.006   2.811   4.690
 2849SOL     OW11425   3.919   2.510   4.499
 2849SOL    HW211426   3.835   2.466   4.511
 2849SOL    HW311427   3.915   2.586   4.557
 2849SOL    MW411428   3.907   2.514   4.508
 2850SOL     OW11429   4.220   2.679   4.661
 2850SOL    HW211430   4.239   2.585   4.653
 2850SOL    HW311431   4.306   2.721   4.657
 2850SOL    MW411432   4.234   2.672   4.660
 2851SOL     OW11433   3.128   3.232   4.697
 2851SOL    HW211434   3.088   3.229   4.610
 2851SOL    HW311435   3.198   3.167   4.694
 2851SOL    MW411436   3.132   3.223   4.685
 2852SOL     OW11437   3.418   3.673   4.725
 2852SOL    HW211438   3.341   3.619   4.708
 2852SOL    HW311439   3.492   3.618   4.700
 2852SOL    MW411440   3.418   3.659   4.720
 2853SOL     OW11441   3.207   3.499   4.638
 2853SOL    HW211442   3.126   3.520   4.592
 2853SOL    HW311443   3.195   3.408   4.666
 2853SOL    MW411444   3.195   3.489   4.636
 2854SOL     OW11445   4.452   3.564   4.690
 2854SOL    HW211446   4.377   3.554   4.632
 2854SOL    HW311447   4.416   3.554   4.778
 2854SOL    MW411448   4.438   3.561   4.694
 2855SOL     OW11449   0.216   2.975   4.578
 2855SOL    HW211450   0.224   2.934   4.492
 2855SOL    HW311451   0.175   3.060   4.561
 2855SOL    MW411452   0.212   2.981   4.565
 2856SOL     OW11453   4.236   3.630   4.489
 2856SOL    HW211454   4.141   3.638   4.497
 2856SOL    HW311455   4.253   3.642   4.396
 2856SOL    MW411456   4.225   3.633   4.478
 2857SOL     OW11457   3.814   4.420   4.520
 2857SOL    HW211458   3.820   4.437   4.425
 2857SOL    HW311459   3.818   4.507   4.560
 2857SOL    MW411460   3.816   4.434   4.512
 2858SOL     OW11461   3.564   0.460   4.633
 2858SOL    HW211462   3.477   0.466   4.595
 2858SOL    HW311463   3.556   0.497   4.720
 2858SOL    MW411464   3.552   0.465   4.639
 2859SOL     OW11465   3.806   1.270   4.543
 2859SOL    HW211466   3.714   1.296   4.552
 2859SOL    HW311467   3.809   1.181   4.578
 2859SOL    MW411468   3.794   1.262   4.548
 2860SOL     OW11469   3.087   0.609   4.677
 2860SOL    HW211470   3.069   0.574   4.764
 2860SOL    HW311471   3.155   0.552   4.642
 2860SOL    MW411472   3.093   0.597   4.684
 2861SOL     OW11473   0.025   0.384   4.556
 2861SOL    HW211474   0.097   0.446   4.545
 2861SOL    HW311475  -0.054   0.436   4.536
 2861SOL    MW411476   0.024   0.399   4.552
 2862SOL     OW11477   0.242   0.582   4.504
 2862SOL    HW211478   0.331   0.547   4.502
 2862SOL    HW311479   0.210   0.569   4.415
 2862SOL    MW411480   0.249   0.575   4.492
 2863SOL     OW11481   4.053   0.547   4.634
 2863SOL    HW211482   4.053   0.641   4.655
 2863SOL    HW311483   4.088   0.505   4.713
 2863SOL    MW411484   4.058   0.554   4.647
 2864SOL     OW11485   3.523   1.266   4.556
 2864SOL    HW211486   3.494   1.355   4.571
 2864SOL    HW311487   3.456   1.211   4.596
 2864SOL    MW411488   3.511   1.270   4.563
 2865SOL     OW11489   0.089   1.255   4.543
 2865SOL    HW211490   0.179   1.256   4.577
 2865SOL    HW311491   0.064   1.163   4.548
 2865SOL    MW411492   0.098   1.243   4.548
 2866SOL     OW11493   4.348   1.443   4.532
 2866SOL    HW211494   4.277   1.387   4.562
 2866SOL    HW311495   4.427   1.391   4.546
 2866SOL    MW411496   4.349   1.429   4.538
 2867SOL     OW11497   3.920   1.858   4.772
 2867SOL    HW211498   3.982   1.812   4.715
 2867SOL    HW311499   3.942   1.828   4.860
 2867SOL    MW411500   3.931   1.848   4.776
 2868SOL     OW11501   3.273   2.790   4.547
 2868SOL    HW211502   3.269   2.694   4.544
 2868SOL    HW311503   3.333   2.813   4.475
 2868SOL    MW411504   3.281   2.780   4.537
 2869SOL     OW11505   4.267   2.098   4.271
 2869SOL    HW211506   4.198   2.047   4.229
 2869SOL    HW311507   4.262   2.074   4.363
 2869SOL    MW411508   4.257   2.088   4.277
 2870SOL     OW11509   4.409   2.354   4.545
 2870SOL    HW211510   4.323   2.364   4.587
 2870SOL    HW311511   4.391   2.362   4.452
 2870SOL    MW411512   4.395   2.357   4.539
 2871SOL     OW11513   4.031   2.100   4.676
 2871SOL    HW211514   4.106   2.057   4.636
 2871SOL    HW311515   3.992   2.033   4.732
 2871SOL    MW411516   4.036   2.085   4.678
 2872SOL     OW11517   3.403   2.329   4.597
 2872SOL    HW211518   3.341   2.394   4.563
 2872SOL    HW311519   3.366   2.245   4.570
 2872SOL    MW411520   3.390   2.326   4.589
 2873SOL     OW11521   0.585   2.628   4.535
 2873SOL    HW211522   0.513   2.565   4.530
 2873SOL    HW311523   0.549   2.701   4.586
 2873SOL    MW411524   0.571   2.629   4.541
 2874SOL     OW11525   4.284   3.079   4.566
 2874SOL    HW211526   4.329   2.997   4.592
 2874SOL    HW311527   4.355   3.136   4.537
 2874SOL    MW411528   4.299   3.075   4.566
 2875SOL     OW11529   4.448   2.837   4.602
 2875SOL    HW211530   4.417   2.824   4.512
 2875SOL    HW311531   4.524   2.895   4.593
 2875SOL    MW411532   4.454   2.843   4.589
 2876SOL     OW11533   0.300   3.635   4.460
 2876SOL    HW211534   0.371   3.699   4.470
 2876SOL    HW311535   0.285   3.630   4.366
 2876SOL    MW411536   0.307   3.643   4.449
 2877SOL     OW11537   3.820   0.426   4.556
 2877SOL    HW211538   3.732   0.453   4.581
 2877SOL    HW311539   3.877   0.493   4.593
 2877SOL    MW411540   3.816   0.438   4.564
 2878SOL     OW11541   4.226   4.386   4.546
 2878SOL    HW211542   4.160   4.318   4.564
 2878SOL    HW311543   4.310   4.343   4.562
 2878SOL    MW411544   4.228   4.371   4.551
 2879SOL     OW11545   4.015   3.179   4.496
 2879SOL    HW211546   4.106   3.158   4.518
 2879SOL    HW311547   4.018   3.210   4.406
 2879SOL    MW411548   4.027   3.181   4.487
 2880SOL     OW11549   2.398   0.496   4.436
 2880SOL    HW211550   2.482   0.476   4.477
 2880SOL    HW311551   2.417   0.498   4.342
 2880SOL    MW411552   2.412   0.494   4.429
 2881SOL     OW11553   4.262   4.425   4.269
 2881SOL    HW211554   4.339   4.377   4.239
 2881SOL    HW311555   4.264   4.416   4.364
 2881SOL    MW411556   4.272   4.418   4.278
 2882NA      NA11557   2.714   4.296   0.657
 2883NA      NA11558   0.760   1.897   0.373
   4.49070   4.66690  10.00000
