Gromacs Runs On Most of All Computer Systems in water t= 900.00000 step= 900000
11558
    1RG35     P    1   2.118   2.878   4.406
    1RG35   O1P    2   2.063   2.857   4.269
    1RG35   O2P    3   2.105   3.014   4.455
    1RG35   O5'    4   2.028   2.790   4.490
    1RG35   C5'    5   1.890   2.811   4.490
    1RG35  H5'1    6   1.844   2.797   4.392
    1RG35  H5'2    7   1.868   2.904   4.543
    1RG35   C4'    8   1.816   2.703   4.565
    1RG35   H4'    9   1.711   2.731   4.568
    1RG35   O4'   10   1.837   2.585   4.493
    1RG35   C1'   11   1.859   2.477   4.582
    1RG35   H1'   12   1.763   2.450   4.625
    1RG35    N9   13   1.923   2.363   4.511
    1RG35    C8   14   2.010   2.374   4.405
    1RG35    H8   15   2.055   2.466   4.373
    1RG35    N7   16   2.038   2.258   4.352
    1RG35    C5   17   1.951   2.168   4.410
    1RG35    C6   18   1.928   2.027   4.384
    1RG35    O6   19   1.972   1.956   4.292
    1RG35    N1   20   1.830   1.974   4.468
    1RG35    H1   21   1.817   1.874   4.464
    1RG35    C2   22   1.769   2.044   4.564
    1RG35    N2   23   1.681   1.982   4.637
    1RG35   H21   24   1.663   1.884   4.620
    1RG35   H22   25   1.630   2.036   4.706
    1RG35    N3   26   1.786   2.175   4.588
    1RG35    C4   27   1.877   2.233   4.508
    1RG35   C3'   28   1.859   2.677   4.713
    1RG35   H3'   29   1.925   2.754   4.752
    1RG35   C2'   30   1.938   2.540   4.700
    1RG35  H2'1   31   2.038   2.562   4.663
    1RG35   O2'   32   1.936   2.456   4.820
    1RG35  HO'2   33   1.976   2.372   4.797
    1RG35   O3'   34   1.755   2.647   4.797
    1RG35   H3T   35   1.800   2.585   4.855
    1RG35   O3P   36   2.245   2.816   4.431
    2SOL     OW   37   0.381   0.031   0.405
    2SOL    HW2   38   0.387  -0.060   0.375
    2SOL    HW3   39   0.457   0.074   0.366
    2SOL    MW4   40   0.392   0.025   0.396
    3SOL     OW   41   3.219   0.842   0.253
    3SOL    HW2   42   3.153   0.820   0.319
    3SOL    HW3   43   3.179   0.914   0.203
    3SOL    MW4   44   3.205   0.849   0.255
    4SOL     OW   45   3.850   0.171   0.308
    4SOL    HW2   46   3.830   0.219   0.228
    4SOL    HW3   47   3.837   0.234   0.379
    4SOL    MW4   48   3.846   0.186   0.307
    5SOL     OW   49   0.724   1.778   0.249
    5SOL    HW2   50   0.723   1.693   0.294
    5SOL    HW3   51   0.658   1.769   0.180
    5SOL    MW4   52   0.715   1.765   0.246
    6SOL     OW   53   1.481   0.736   0.517
    6SOL    HW2   54   1.430   0.787   0.580
    6SOL    HW3   55   1.562   0.785   0.507
    6SOL    MW4   56   1.485   0.749   0.524
    7SOL     OW   57   0.134   0.467   0.481
    7SOL    HW2   58   0.161   0.467   0.573
    7SOL    HW3   59   0.137   0.375   0.456
    7SOL    MW4   60   0.138   0.455   0.490
    8SOL     OW   61   0.491   0.866   0.426
    8SOL    HW2   62   0.449   0.864   0.512
    8SOL    HW3   63   0.467   0.783   0.386
    8SOL    MW4   64   0.482   0.855   0.432
    9SOL     OW   65   0.768   0.791   0.477
    9SOL    HW2   66   0.782   0.808   0.570
    9SOL    HW3   67   0.673   0.799   0.465
    9SOL    MW4   68   0.757   0.794   0.488
   10SOL     OW   69   0.495   1.105   0.305
   10SOL    HW2   70   0.502   1.095   0.210
   10SOL    HW3   71   0.496   1.015   0.339
   10SOL    MW4   72   0.496   1.092   0.297
   11SOL     OW   73   4.311   1.426   0.503
   11SOL    HW2   74   4.225   1.465   0.492
   11SOL    HW3   75   4.305   1.374   0.583
   11SOL    MW4   76   4.299   1.424   0.512
   12SOL     OW   77   4.078   2.322   0.636
   12SOL    HW2   78   4.001   2.270   0.613
   12SOL    HW3   79   4.055   2.411   0.609
   12SOL    MW4   80   4.065   2.327   0.629
   13SOL     OW   81   0.053   1.598   0.502
   13SOL    HW2   82   0.058   1.623   0.594
   13SOL    HW3   83  -0.040   1.576   0.488
   13SOL    MW4   84   0.041   1.598   0.512
   14SOL     OW   85   0.805   2.384   0.362
   14SOL    HW2   86   0.896   2.389   0.393
   14SOL    HW3   87   0.794   2.463   0.310
   14SOL    MW4   88   0.816   2.395   0.359
   15SOL     OW   89   0.241   2.736   0.462
   15SOL    HW2   90   0.243   2.830   0.447
   15SOL    HW3   91   0.326   2.704   0.432
   15SOL    MW4   92   0.253   2.744   0.456
   16SOL     OW   93   4.175   3.406   0.463
   16SOL    HW2   94   4.189   3.329   0.408
   16SOL    HW3   95   4.158   3.370   0.551
   16SOL    MW4   96   4.174   3.391   0.468
   17SOL     OW   97   0.227   3.003   0.408
   17SOL    HW2   98   0.295   3.070   0.414
   17SOL    HW3   99   0.145   3.052   0.397
   17SOL    MW4  100   0.225   3.019   0.408
   18SOL     OW  101   0.639   3.313   0.315
   18SOL    HW2  102   0.686   3.353   0.389
   18SOL    HW3  103   0.583   3.384   0.282
   18SOL    MW4  104   0.638   3.328   0.320
   19SOL     OW  105   0.650   3.798   0.276
   19SOL    HW2  106   0.715   3.856   0.236
   19SOL    HW3  107   0.585   3.858   0.313
   19SOL    MW4  108   0.650   3.814   0.276
   20SOL     OW  109   4.267   3.816   0.294
   20SOL    HW2  110   4.283   3.898   0.340
   20SOL    HW3  111   4.300   3.748   0.354
   20SOL    MW4  112   4.273   3.818   0.308
   21SOL     OW  113   0.103   3.652   0.175
   21SOL    HW2  114   0.155   3.720   0.217
   21SOL    HW3  115   0.025   3.697   0.144
   21SOL    MW4  116   0.100   3.667   0.176
   22SOL     OW  117   4.403   4.470   0.487
   22SOL    HW2  118   4.337   4.460   0.418
   22SOL    HW3  119   4.355   4.452   0.568
   22SOL    MW4  120   4.388   4.466   0.489
   23SOL     OW  121   4.029   4.175   0.333
   23SOL    HW2  122   3.986   4.162   0.418
   23SOL    HW3  123   3.987   4.112   0.275
   23SOL    MW4  124   4.018   4.165   0.337
   24SOL     OW  125   4.256   0.259   0.391
   24SOL    HW2  126   4.310   0.196   0.344
   24SOL    HW3  127   4.293   0.262   0.479
   24SOL    MW4  128   4.268   0.251   0.396
   25SOL     OW  129   0.460   3.150   0.439
   25SOL    HW2  130   0.457   3.193   0.524
   25SOL    HW3  131   0.519   3.204   0.387
   25SOL    MW4  132   0.467   3.163   0.443
   26SOL     OW  133   0.361   4.438   0.280
   26SOL    HW2  134   0.286   4.444   0.340
   26SOL    HW3  135   0.323   4.410   0.197
   26SOL    MW4  136   0.346   4.435   0.277
   27SOL     OW  137   0.171   0.201   0.430
   27SOL    HW2  138   0.119   0.150   0.492
   27SOL    HW3  139   0.249   0.147   0.414
   27SOL    MW4  140   0.174   0.187   0.436
   28SOL     OW  141   4.458   0.875   0.478
   28SOL    HW2  142   4.536   0.916   0.440
   28SOL    HW3  143   4.390   0.943   0.472
   28SOL    MW4  144   4.459   0.890   0.472
   29SOL     OW  145   0.788   4.355   0.453
   29SOL    HW2  146   0.871   4.309   0.444
   29SOL    HW3  147   0.757   4.331   0.541
   29SOL    MW4  148   0.795   4.346   0.464
   30SOL     OW  149   1.142   1.188   0.415
   30SOL    HW2  150   1.082   1.116   0.435
   30SOL    HW3  151   1.086   1.258   0.383
   30SOL    MW4  152   1.127   1.187   0.413
   31SOL     OW  153   0.596   0.392   0.461
   31SOL    HW2  154   0.682   0.421   0.431
   31SOL    HW3  155   0.589   0.302   0.430
   31SOL    MW4  156   0.607   0.384   0.453
   32SOL     OW  157   0.215   1.208   0.432
   32SOL    HW2  158   0.273   1.171   0.365
   32SOL    HW3  159   0.138   1.237   0.383
   32SOL    MW4  160   0.212   1.207   0.417
   33SOL     OW  161   0.197   2.105   0.498
   33SOL    HW2  162   0.120   2.153   0.466
   33SOL    HW3  163   0.179   2.014   0.476
   33SOL    MW4  164   0.184   2.100   0.491
   34SOL     OW  165   0.711   2.103   0.324
   34SOL    HW2  166   0.625   2.103   0.365
   34SOL    HW3  167   0.743   2.193   0.334
   34SOL    MW4  168   0.704   2.115   0.330
   35SOL     OW  169   0.692   2.621   0.195
   35SOL    HW2  170   0.766   2.677   0.218
   35SOL    HW3  171   0.702   2.604   0.101
   35SOL    MW4  172   0.703   2.626   0.186
   36SOL     OW  173   0.831   3.090   0.359
   36SOL    HW2  174   0.776   3.042   0.421
   36SOL    HW3  175   0.773   3.158   0.325
   36SOL    MW4  176   0.816   3.093   0.363
   37SOL     OW  177   4.072   2.026   0.256
   37SOL    HW2  178   4.135   2.090   0.290
   37SOL    HW3  179   4.085   1.949   0.311
   37SOL    MW4  180   4.082   2.025   0.268
   38SOL     OW  181   1.202   2.205   0.470
   38SOL    HW2  182   1.184   2.142   0.540
   38SOL    HW3  183   1.297   2.207   0.463
   38SOL    MW4  184   1.212   2.197   0.479
   39SOL     OW  185   0.557   2.436   0.492
   39SOL    HW2  186   0.533   2.528   0.479
   39SOL    HW3  187   0.646   2.430   0.457
   39SOL    MW4  188   0.566   2.447   0.485
   40SOL     OW  189   4.229   3.210   0.275
   40SOL    HW2  190   4.187   3.124   0.271
   40SOL    HW3  191   4.251   3.230   0.184
   40SOL    MW4  192   4.227   3.201   0.263
   41SOL     OW  193   0.511   2.690   0.404
   41SOL    HW2  194   0.517   2.682   0.309
   41SOL    HW3  195   0.558   2.772   0.423
   41SOL    MW4  196   0.518   2.700   0.394
   42SOL     OW  197   0.842   0.319   0.194
   42SOL    HW2  198   0.846   0.392   0.256
   42SOL    HW3  199   0.884   0.352   0.115
   42SOL    MW4  200   0.848   0.333   0.192
   43SOL     OW  201   0.321   3.586   0.471
   43SOL    HW2  202   0.279   3.667   0.443
   43SOL    HW3  203   0.379   3.562   0.399
   43SOL    MW4  204   0.323   3.594   0.458
   44SOL     OW  205   0.486   3.546   0.247
   44SOL    HW2  206   0.430   3.553   0.170
   44SOL    HW3  207   0.539   3.625   0.247
   44SOL    MW4  208   0.485   3.557   0.237
   45SOL     OW  209   1.145   3.790   0.444
   45SOL    HW2  210   1.053   3.768   0.431
   45SOL    HW3  211   1.190   3.706   0.444
   45SOL    MW4  212   1.139   3.776   0.443
   46SOL     OW  213   0.159   4.345   0.436
   46SOL    HW2  214   0.079   4.393   0.456
   46SOL    HW3  215   0.133   4.253   0.434
   46SOL    MW4  216   0.145   4.339   0.438
   47SOL     OW  217   0.862   3.731   0.463
   47SOL    HW2  218   0.780   3.757   0.421
   47SOL    HW3  219   0.872   3.794   0.535
   47SOL    MW4  220   0.853   3.743   0.467
   48SOL     OW  221   0.558   4.237   0.328
   48SOL    HW2  222   0.639   4.276   0.361
   48SOL    HW3  223   0.493   4.307   0.337
   48SOL    MW4  224   0.560   4.251   0.334
   49SOL     OW  225   0.638   0.158   0.326
   49SOL    HW2  226   0.702   0.105   0.373
   49SOL    HW3  227   0.690   0.223   0.279
   49SOL    MW4  228   0.653   0.159   0.326
   50SOL     OW  229   0.833   0.529   0.396
   50SOL    HW2  230   0.818   0.620   0.423
   50SOL    HW3  231   0.919   0.507   0.433
   50SOL    MW4  232   0.842   0.538   0.404
   51SOL     OW  233   0.375   0.584   0.401
   51SOL    HW2  234   0.293   0.539   0.424
   51SOL    HW3  235   0.442   0.516   0.412
   51SOL    MW4  236   0.373   0.569   0.405
   52SOL     OW  237   1.791   0.638   0.360
   52SOL    HW2  238   1.756   0.722   0.392
   52SOL    HW3  239   1.713   0.585   0.343
   52SOL    MW4  240   1.776   0.642   0.362
   53SOL     OW  241   2.073   0.817   0.419
   53SOL    HW2  242   2.035   0.903   0.397
   53SOL    HW3  243   1.997   0.760   0.430
   53SOL    MW4  244   2.058   0.821   0.417
   54SOL     OW  245   1.945   0.058   0.494
   54SOL    HW2  246   1.911  -0.032   0.494
   54SOL    HW3  247   1.866   0.113   0.502
   54SOL    MW4  248   1.930   0.053   0.495
   55SOL     OW  249   0.697   1.544   0.405
   55SOL    HW2  250   0.624   1.554   0.467
   55SOL    HW3  251   0.721   1.451   0.411
   55SOL    MW4  252   0.690   1.533   0.414
   56SOL     OW  253   0.710   1.252   0.430
   56SOL    HW2  254   0.630   1.214   0.393
   56SOL    HW3  255   0.769   1.178   0.440
   56SOL    MW4  256   0.707   1.237   0.426
   57SOL     OW  257   2.183   1.599   0.350
   57SOL    HW2  258   2.269   1.625   0.382
   57SOL    HW3  259   2.126   1.673   0.373
   57SOL    MW4  260   2.187   1.612   0.357
   58SOL     OW  261   0.913   1.038   0.483
   58SOL    HW2  262   0.863   0.957   0.487
   58SOL    HW3  263   0.925   1.064   0.574
   58SOL    MW4  264   0.908   1.031   0.495
   59SOL     OW  265   1.425   1.470   0.194
   59SOL    HW2  266   1.469   1.466   0.109
   59SOL    HW3  267   1.495   1.491   0.256
   59SOL    MW4  268   1.440   1.472   0.191
   60SOL     OW  269   0.027   2.298   0.356
   60SOL    HW2  270   0.026   2.385   0.397
   60SOL    HW3  271   0.040   2.316   0.263
   60SOL    MW4  272   0.028   2.312   0.349
   61SOL     OW  273   0.137   1.853   0.395
   61SOL    HW2  274   0.230   1.840   0.375
   61SOL    HW3  275   0.104   1.764   0.412
   61SOL    MW4  276   0.145   1.839   0.394
   62SOL     OW  277   1.005   1.823   0.471
   62SOL    HW2  278   0.974   1.801   0.559
   62SOL    HW3  279   1.098   1.842   0.483
   62SOL    MW4  280   1.013   1.823   0.484
   63SOL     OW  281   1.045   1.812   0.138
   63SOL    HW2  282   1.113   1.762   0.183
   63SOL    HW3  283   1.031   1.766   0.056
   63SOL    MW4  284   1.052   1.800   0.133
   64SOL     OW  285   1.060   2.089   0.278
   64SOL    HW2  286   1.123   2.046   0.219
   64SOL    HW3  287   1.115   2.139   0.338
   64SOL    MW4  288   1.076   2.090   0.278
   65SOL     OW  289   0.882   2.798   0.270
   65SOL    HW2  290   0.843   2.885   0.283
   65SOL    HW3  291   0.957   2.814   0.213
   65SOL    MW4  292   0.886   2.812   0.265
   66SOL     OW  293   0.622   2.930   0.510
   66SOL    HW2  294   0.549   2.990   0.496
   66SOL    HW3  295   0.626   2.919   0.605
   66SOL    MW4  296   0.613   2.936   0.521
   67SOL     OW  297   1.003   3.281   0.499
   67SOL    HW2  298   0.932   3.338   0.528
   67SOL    HW3  299   0.959   3.210   0.451
   67SOL    MW4  300   0.988   3.279   0.496
   68SOL     OW  301   2.033   3.000   0.333
   68SOL    HW2  302   2.069   3.017   0.246
   68SOL    HW3  303   2.110   2.984   0.388
   68SOL    MW4  304   2.048   3.000   0.329
   69SOL     OW  305   1.235   4.013   0.300
   69SOL    HW2  306   1.301   3.973   0.243
   69SOL    HW3  307   1.201   3.940   0.351
   69SOL    MW4  308   1.239   3.998   0.299
   70SOL     OW  309   0.481   3.983   0.386
   70SOL    HW2  310   0.494   3.980   0.481
   70SOL    HW3  311   0.499   4.074   0.362
   70SOL    MW4  312   0.485   3.995   0.396
   71SOL     OW  313   1.054   4.221   0.453
   71SOL    HW2  314   1.077   4.212   0.545
   71SOL    HW3  315   1.109   4.157   0.408
   71SOL    MW4  316   1.064   4.211   0.459
   72SOL     OW  317   1.107   0.422   0.463
   72SOL    HW2  318   1.105   0.328   0.445
   72SOL    HW3  319   1.192   0.451   0.430
   72SOL    MW4  320   1.118   0.414   0.457
   73SOL     OW  321   0.830   4.649   0.453
   73SOL    HW2  322   0.822   4.554   0.443
   73SOL    HW3  323   0.838   4.663   0.547
   73SOL    MW4  324   0.830   4.639   0.464
   74SOL     OW  325   1.389   0.481   0.497
   74SOL    HW2  326   1.435   0.461   0.579
   74SOL    HW3  327   1.408   0.573   0.479
   74SOL    MW4  328   1.398   0.490   0.505
   75SOL     OW  329   2.006   4.662   0.750
   75SOL    HW2  330   2.046   4.577   0.735
   75SOL    HW3  331   1.981   4.693   0.663
   75SOL    MW4  332   2.008   4.655   0.737
   76SOL     OW  333   1.026   0.173   0.338
   76SOL    HW2  334   0.974   0.102   0.376
   76SOL    HW3  335   0.966   0.216   0.277
   76SOL    MW4  336   1.011   0.169   0.335
   77SOL     OW  337   2.155   0.133   0.327
   77SOL    HW2  338   2.124   0.126   0.237
   77SOL    HW3  339   2.081   0.103   0.380
   77SOL    MW4  340   2.141   0.128   0.322
   78SOL     OW  341   2.380   1.109   0.495
   78SOL    HW2  342   2.290   1.126   0.523
   78SOL    HW3  343   2.385   1.014   0.489
   78SOL    MW4  344   2.368   1.099   0.498
   79SOL     OW  345   1.593   1.131   0.412
   79SOL    HW2  346   1.513   1.136   0.359
   79SOL    HW3  347   1.657   1.180   0.361
   79SOL    MW4  348   1.591   1.138   0.398
   80SOL     OW  349   1.707   0.890   0.478
   80SOL    HW2  350   1.741   0.880   0.567
   80SOL    HW3  351   1.661   0.974   0.479
   80SOL    MW4  352   1.705   0.900   0.490
   81SOL     OW  353   1.373   1.201   0.278
   81SOL    HW2  354   1.283   1.198   0.311
   81SOL    HW3  355   1.389   1.294   0.261
   81SOL    MW4  356   1.363   1.213   0.280
   82SOL     OW  357   2.026   1.789   0.457
   82SOL    HW2  358   2.057   1.776   0.546
   82SOL    HW3  359   2.051   1.879   0.436
   82SOL    MW4  360   2.033   1.799   0.466
   83SOL     OW  361   1.050   2.428   0.488
   83SOL    HW2  362   1.108   2.352   0.482
   83SOL    HW3  363   1.007   2.419   0.573
   83SOL    MW4  364   1.052   2.417   0.499
   84SOL     OW  365   1.388   2.565   0.420
   84SOL    HW2  366   1.305   2.612   0.420
   84SOL    HW3  367   1.444   2.615   0.362
   84SOL    MW4  368   1.384   2.578   0.412
   85SOL     OW  369   2.379   2.110   0.506
   85SOL    HW2  370   2.455   2.068   0.466
   85SOL    HW3  371   2.386   2.202   0.479
   85SOL    MW4  372   2.390   2.117   0.497
   86SOL     OW  373   1.478   2.301   0.466
   86SOL    HW2  374   1.565   2.340   0.462
   86SOL    HW3  375   1.419   2.374   0.446
   86SOL    MW4  376   1.482   2.316   0.463
   87SOL     OW  377   1.019   1.446   0.372
   87SOL    HW2  378   0.952   1.513   0.386
   87SOL    HW3  379   1.093   1.494   0.335
   87SOL    MW4  380   1.020   1.461   0.369
   88SOL     OW  381   1.214   3.465   0.454
   88SOL    HW2  382   1.294   3.416   0.438
   88SOL    HW3  383   1.144   3.399   0.451
   88SOL    MW4  384   1.215   3.450   0.451
   89SOL     OW  385   1.974   2.312   0.356
   89SOL    HW2  386   2.021   2.232   0.379
   89SOL    HW3  387   2.042   2.380   0.353
   89SOL    MW4  388   1.990   2.311   0.359
   90SOL     OW  389   2.167   0.391   0.432
   90SOL    HW2  390   2.077   0.419   0.448
   90SOL    HW3  391   2.159   0.301   0.402
   90SOL    MW4  392   2.154   0.383   0.430
   91SOL     OW  393   1.439   3.842   0.151
   91SOL    HW2  394   1.430   3.753   0.117
   91SOL    HW3  395   1.431   3.898   0.074
   91SOL    MW4  396   1.437   3.838   0.137
   92SOL     OW  397   1.672   2.670   0.314
   92SOL    HW2  398   1.632   2.754   0.337
   92SOL    HW3  399   1.766   2.687   0.312
   92SOL    MW4  400   1.679   2.683   0.317
   93SOL     OW  401   1.609   3.881   0.378
   93SOL    HW2  402   1.563   3.871   0.295
   93SOL    HW3  403   1.555   3.942   0.428
   93SOL    MW4  404   1.596   3.888   0.374
   94SOL     OW  405   1.526   2.877   0.429
   94SOL    HW2  406   1.434   2.897   0.407
   94SOL    HW3  407   1.523   2.851   0.521
   94SOL    MW4  408   1.513   2.876   0.438
   95SOL     OW  409   2.135   4.051   0.437
   95SOL    HW2  410   2.049   4.010   0.429
   95SOL    HW3  411   2.185   4.013   0.365
   95SOL    MW4  412   2.130   4.041   0.426
   96SOL     OW  413   1.363   3.554   0.157
   96SOL    HW2  414   1.395   3.496   0.225
   96SOL    HW3  415   1.269   3.536   0.153
   96SOL    MW4  416   1.355   3.544   0.165
   97SOL     OW  417   1.810   4.480   0.504
   97SOL    HW2  418   1.868   4.410   0.473
   97SOL    HW3  419   1.722   4.446   0.490
   97SOL    MW4  420   1.806   4.466   0.498
   98SOL     OW  421   2.253   0.119   0.737
   98SOL    HW2  422   2.166   0.079   0.739
   98SOL    HW3  423   2.304   0.068   0.800
   98SOL    MW4  424   2.248   0.107   0.745
   99SOL     OW  425   2.568   4.499   0.241
   99SOL    HW2  426   2.614   4.502   0.325
   99SOL    HW3  427   2.577   4.588   0.206
   99SOL    MW4  428   2.575   4.511   0.248
  100SOL     OW  429   1.247   4.420   0.456
  100SOL    HW2  430   1.197   4.353   0.408
  100SOL    HW3  431   1.208   4.419   0.544
  100SOL    MW4  432   1.235   4.411   0.461
  101SOL     OW  433   2.435   0.415   0.497
  101SOL    HW2  434   2.340   0.417   0.491
  101SOL    HW3  435   2.463   0.496   0.454
  101SOL    MW4  436   2.426   0.426   0.490
  102SOL     OW  437   1.773   1.803   0.325
  102SOL    HW2  438   1.817   1.863   0.266
  102SOL    HW3  439   1.843   1.766   0.379
  102SOL    MW4  440   1.788   1.806   0.324
  103SOL     OW  441   2.118   1.194   0.515
  103SOL    HW2  442   2.039   1.153   0.480
  103SOL    HW3  443   2.137   1.264   0.453
  103SOL    MW4  444   2.110   1.198   0.502
  104SOL     OW  445   2.531   1.331   0.574
  104SOL    HW2  446   2.625   1.316   0.569
  104SOL    HW3  447   2.493   1.254   0.530
  104SOL    MW4  448   2.538   1.319   0.567
  105SOL     OW  449   2.689   1.723   0.562
  105SOL    HW2  450   2.765   1.681   0.521
  105SOL    HW3  451   2.703   1.714   0.656
  105SOL    MW4  452   2.701   1.716   0.569
  106SOL     OW  453   1.644   1.559   0.342
  106SOL    HW2  454   1.673   1.650   0.335
  106SOL    HW3  455   1.628   1.546   0.436
  106SOL    MW4  456   1.646   1.569   0.354
  107SOL     OW  457   1.288   1.831   0.478
  107SOL    HW2  458   1.346   1.907   0.487
  107SOL    HW3  459   1.308   1.777   0.554
  107SOL    MW4  460   1.298   1.834   0.489
  108SOL     OW  461   2.365   2.398   0.501
  108SOL    HW2  462   2.296   2.430   0.443
  108SOL    HW3  463   2.327   2.403   0.589
  108SOL    MW4  464   2.351   2.403   0.505
  109SOL     OW  465   1.866   3.220   0.439
  109SOL    HW2  466   1.916   3.150   0.398
  109SOL    HW3  467   1.905   3.301   0.405
  109SOL    MW4  468   1.878   3.222   0.429
  110SOL     OW  469   1.197   3.076   0.632
  110SOL    HW2  470   1.168   3.006   0.691
  110SOL    HW3  471   1.117   3.127   0.616
  110SOL    MW4  472   1.182   3.074   0.638
  111SOL     OW  473   1.589   3.151   0.427
  111SOL    HW2  474   1.679   3.170   0.402
  111SOL    HW3  475   1.580   3.056   0.417
  111SOL    MW4  476   1.600   3.141   0.422
  112SOL     OW  477   1.226   1.622   0.282
  112SOL    HW2  478   1.298   1.583   0.234
  112SOL    HW3  479   1.268   1.672   0.352
  112SOL    MW4  480   1.241   1.623   0.285
  113SOL     OW  481   3.752   1.533   0.506
  113SOL    HW2  482   3.719   1.551   0.594
  113SOL    HW3  483   3.709   1.598   0.450
  113SOL    MW4  484   3.742   1.544   0.510
  114SOL     OW  485   1.743   2.422   0.471
  114SOL    HW2  486   1.804   2.382   0.409
  114SOL    HW3  487   1.708   2.498   0.424
  114SOL    MW4  488   1.746   2.427   0.457
  115SOL     OW  489   1.496   2.018   0.483
  115SOL    HW2  490   1.516   2.111   0.475
  115SOL    HW3  491   1.556   1.975   0.422
  115SOL    MW4  492   1.506   2.024   0.474
  116SOL     OW  493   1.481   3.406   0.374
  116SOL    HW2  494   1.524   3.324   0.398
  116SOL    HW3  495   1.532   3.473   0.420
  116SOL    MW4  496   1.494   3.404   0.384
  117SOL     OW  497   2.268   3.319   0.466
  117SOL    HW2  498   2.264   3.292   0.558
  117SOL    HW3  499   2.360   3.344   0.453
  117SOL    MW4  500   2.280   3.319   0.477
  118SOL     OW  501   1.525   4.341   0.468
  118SOL    HW2  502   1.525   4.353   0.563
  118SOL    HW3  503   1.439   4.373   0.440
  118SOL    MW4  504   1.514   4.347   0.477
  119SOL     OW  505   1.648   3.617   0.459
  119SOL    HW2  506   1.614   3.702   0.432
  119SOL    HW3  507   1.743   3.625   0.452
  119SOL    MW4  508   1.656   3.629   0.454
  120SOL     OW  509   1.273   0.018   0.407
  120SOL    HW2  510   1.249  -0.075   0.408
  120SOL    HW3  511   1.193   0.063   0.381
  120SOL    MW4  512   1.259   0.012   0.404
  121SOL     OW  513   1.449   0.196   0.510
  121SOL    HW2  514   1.435   0.279   0.465
  121SOL    HW3  515   1.390   0.134   0.467
  121SOL    MW4  516   1.439   0.199   0.499
  122SOL     OW  517   2.640   0.094   0.543
  122SOL    HW2  518   2.553   0.075   0.506
  122SOL    HW3  519   2.670   0.171   0.495
  122SOL    MW4  520   2.632   0.102   0.532
  123SOL     OW  521   2.347   0.053   0.493
  123SOL    HW2  522   2.282   0.089   0.432
  123SOL    HW3  523   2.317   0.081   0.579
  123SOL    MW4  524   2.334   0.062   0.496
  124SOL     OW  525   2.438   1.600   0.507
  124SOL    HW2  526   2.463   1.507   0.502
  124SOL    HW3  527   2.521   1.647   0.507
  124SOL    MW4  528   2.452   1.594   0.506
  125SOL     OW  529   2.892   0.442   0.486
  125SOL    HW2  530   2.930   0.363   0.448
  125SOL    HW3  531   2.950   0.512   0.458
  125SOL    MW4  532   2.904   0.441   0.477
  126SOL     OW  533   1.912   1.035   0.348
  126SOL    HW2  534   1.880   1.120   0.319
  126SOL    HW3  535   1.834   0.989   0.378
  126SOL    MW4  536   1.898   1.040   0.348
  127SOL     OW  537   2.816   1.280   0.540
  127SOL    HW2  538   2.841   1.198   0.498
  127SOL    HW3  539   2.851   1.274   0.628
  127SOL    MW4  540   2.824   1.268   0.546
  128SOL     OW  541   2.879   1.557   0.458
  128SOL    HW2  542   2.874   1.504   0.379
  128SOL    HW3  543   2.866   1.495   0.530
  128SOL    MW4  544   2.876   1.542   0.457
  129SOL     OW  545   3.298   2.095   0.438
  129SOL    HW2  546   3.249   2.018   0.465
  129SOL    HW3  547   3.389   2.065   0.429
  129SOL    MW4  548   3.304   2.081   0.440
  130SOL     OW  549   2.969   4.521   0.368
  130SOL    HW2  550   3.043   4.576   0.394
  130SOL    HW3  551   3.002   4.432   0.372
  130SOL    MW4  552   2.983   4.517   0.372
  131SOL     OW  553   2.101   2.062   0.451
  131SOL    HW2  554   2.078   2.044   0.543
  131SOL    HW3  555   2.197   2.070   0.452
  131SOL    MW4  556   2.111   2.061   0.464
  132SOL     OW  557   1.584   1.539   0.622
  132SOL    HW2  558   1.630   1.567   0.701
  132SOL    HW3  559   1.499   1.584   0.627
  132SOL    MW4  560   1.579   1.549   0.633
  133SOL     OW  561   2.648   2.004   0.431
  133SOL    HW2  562   2.679   1.929   0.483
  133SOL    HW3  563   2.721   2.065   0.430
  133SOL    MW4  564   2.662   2.002   0.438
  134SOL     OW  565   2.843   2.206   0.457
  134SOL    HW2  566   2.920   2.228   0.404
  134SOL    HW3  567   2.879   2.181   0.542
  134SOL    MW4  568   2.858   2.206   0.461
  135SOL     OW  569   2.697   2.706   0.363
  135SOL    HW2  570   2.683   2.622   0.408
  135SOL    HW3  571   2.713   2.682   0.272
  135SOL    MW4  572   2.697   2.692   0.357
  136SOL     OW  573   1.239   2.918   0.419
  136SOL    HW2  574   1.238   2.978   0.494
  136SOL    HW3  575   1.183   2.845   0.446
  136SOL    MW4  576   1.231   2.916   0.433
  137SOL     OW  577   1.116   2.937   0.163
  137SOL    HW2  578   1.068   3.020   0.163
  137SOL    HW3  579   1.163   2.936   0.247
  137SOL    MW4  580   1.116   2.948   0.174
  138SOL     OW  581   1.924   3.656   0.445
  138SOL    HW2  582   1.956   3.589   0.385
  138SOL    HW3  583   1.970   3.639   0.528
  138SOL    MW4  584   1.934   3.645   0.448
  139SOL     OW  585   2.397   3.976   0.363
  139SOL    HW2  586   2.442   3.894   0.384
  139SOL    HW3  587   2.452   4.017   0.297
  139SOL    MW4  588   2.410   3.970   0.357
  140SOL     OW  589   1.874   3.935   0.479
  140SOL    HW2  590   1.899   3.843   0.482
  140SOL    HW3  591   1.788   3.935   0.437
  140SOL    MW4  592   1.866   3.923   0.474
  141SOL     OW  593   2.036   3.432   0.319
  141SOL    HW2  594   2.067   3.430   0.229
  141SOL    HW3  595   2.111   3.404   0.371
  141SOL    MW4  596   2.050   3.428   0.314
  142SOL     OW  597   2.346   4.442   0.424
  142SOL    HW2  598   2.407   4.443   0.350
  142SOL    HW3  599   2.342   4.534   0.452
  142SOL    MW4  600   2.353   4.455   0.418
  143SOL     OW  601   2.083   4.336   0.478
  143SOL    HW2  602   2.090   4.245   0.450
  143SOL    HW3  603   2.165   4.376   0.451
  143SOL    MW4  604   2.094   4.329   0.471
  144SOL     OW  605   3.155   0.068   0.428
  144SOL    HW2  606   3.092   0.136   0.402
  144SOL    HW3  607   3.144   0.062   0.523
  144SOL    MW4  608   3.145   0.076   0.437
  145SOL     OW  609   2.524   3.750   0.464
  145SOL    HW2  610   2.523   3.725   0.556
  145SOL    HW3  611   2.524   3.667   0.417
  145SOL    MW4  612   2.524   3.736   0.470
  146SOL     OW  613   2.477   4.226   0.540
  146SOL    HW2  614   2.414   4.294   0.519
  146SOL    HW3  615   2.453   4.153   0.483
  146SOL    MW4  616   2.465   4.225   0.530
  147SOL     OW  617   2.650   0.296   0.347
  147SOL    HW2  618   2.578   0.338   0.393
  147SOL    HW3  619   2.725   0.354   0.362
  147SOL    MW4  620   2.651   0.309   0.355
  148SOL     OW  621   1.906   0.420   0.496
  148SOL    HW2  622   1.834   0.358   0.508
  148SOL    HW3  623   1.867   0.494   0.450
  148SOL    MW4  624   1.892   0.422   0.492
  149SOL     OW  625   3.243   0.440   0.284
  149SOL    HW2  626   3.287   0.355   0.287
  149SOL    HW3  627   3.312   0.503   0.263
  149SOL    MW4  628   3.258   0.437   0.282
  150SOL     OW  629   2.066   1.378   0.214
  150SOL    HW2  630   2.114   1.447   0.261
  150SOL    HW3  631   2.086   1.394   0.122
  150SOL    MW4  632   2.075   1.389   0.208
  151SOL     OW  633   2.804   0.759   0.375
  151SOL    HW2  634   2.818   0.842   0.420
  151SOL    HW3  635   2.891   0.721   0.367
  151SOL    MW4  636   2.817   0.765   0.379
  152SOL     OW  637   3.132   1.643   0.519
  152SOL    HW2  638   3.047   1.605   0.500
  152SOL    HW3  639   3.119   1.738   0.514
  152SOL    MW4  640   3.119   1.651   0.516
  153SOL     OW  641   3.479   0.911   0.516
  153SOL    HW2  642   3.542   0.871   0.455
  153SOL    HW3  643   3.512   0.886   0.602
  153SOL    MW4  644   3.492   0.902   0.519
  154SOL     OW  645   4.092   1.820   0.430
  154SOL    HW2  646   4.180   1.852   0.450
  154SOL    HW3  647   4.037   1.855   0.500
  154SOL    MW4  648   4.096   1.829   0.442
  155SOL     OW  649   2.994   0.258   0.318
  155SOL    HW2  650   3.043   0.296   0.245
  155SOL    HW3  651   2.945   0.185   0.279
  155SOL    MW4  652   2.994   0.253   0.303
  156SOL     OW  653   3.135   1.921   0.585
  156SOL    HW2  654   3.060   1.974   0.610
  156SOL    HW3  655   3.179   1.901   0.668
  156SOL    MW4  656   3.131   1.925   0.600
  157SOL     OW  657   2.661   2.440   0.475
  157SOL    HW2  658   2.704   2.355   0.467
  157SOL    HW3  659   2.568   2.419   0.483
  157SOL    MW4  660   2.655   2.426   0.475
  158SOL     OW  661   3.084   2.233   0.293
  158SOL    HW2  662   3.075   2.237   0.197
  158SOL    HW3  663   3.171   2.196   0.307
  158SOL    MW4  664   3.095   2.229   0.282
  159SOL     OW  665   2.173   2.544   0.341
  159SOL    HW2  666   2.242   2.592   0.296
  159SOL    HW3  667   2.118   2.612   0.380
  159SOL    MW4  668   2.175   2.559   0.340
  160SOL     OW  669   2.579   2.943   0.497
  160SOL    HW2  670   2.626   2.877   0.448
  160SOL    HW3  671   2.568   2.905   0.584
  160SOL    MW4  672   2.583   2.929   0.502
  161SOL     OW  673   3.174   3.187   0.477
  161SOL    HW2  674   3.162   3.092   0.473
  161SOL    HW3  675   3.147   3.210   0.565
  161SOL    MW4  676   3.169   3.177   0.488
  162SOL     OW  677   3.445   3.272   0.558
  162SOL    HW2  678   3.445   3.236   0.646
  162SOL    HW3  679   3.362   3.243   0.520
  162SOL    MW4  680   3.434   3.264   0.564
  163SOL     OW  681   2.284   3.036   0.441
  163SOL    HW2  682   2.375   3.017   0.463
  163SOL    HW3  683   2.280   3.131   0.433
  163SOL    MW4  684   2.296   3.046   0.443
  164SOL     OW  685   1.428   4.068   0.498
  164SOL    HW2  686   1.474   4.145   0.466
  164SOL    HW3  687   1.365   4.047   0.429
  164SOL    MW4  688   1.426   4.075   0.485
  165SOL     OW  689   3.391   4.058   0.393
  165SOL    HW2  690   3.354   4.004   0.323
  165SOL    HW3  691   3.410   3.997   0.464
  165SOL    MW4  692   3.389   4.043   0.393
  166SOL     OW  693   2.956   3.357   0.450
  166SOL    HW2  694   2.874   3.310   0.462
  166SOL    HW3  695   3.012   3.297   0.401
  166SOL    MW4  696   2.953   3.343   0.445
  167SOL     OW  697   2.525   3.446   0.480
  167SOL    HW2  698   2.545   3.481   0.567
  167SOL    HW3  699   2.584   3.372   0.469
  167SOL    MW4  700   2.535   3.441   0.490
  168SOL     OW  701   3.875   4.179   0.570
  168SOL    HW2  702   3.889   4.085   0.582
  168SOL    HW3  703   3.795   4.185   0.518
  168SOL    MW4  704   3.866   4.168   0.565
  169SOL     OW  705   3.211   3.978   0.204
  169SOL    HW2  706   3.125   4.020   0.206
  169SOL    HW3  707   3.254   4.017   0.128
  169SOL    MW4  708   3.205   3.988   0.194
  170SOL     OW  709   3.377   0.196   0.353
  170SOL    HW2  710   3.303   0.141   0.376
  170SOL    HW3  711   3.453   0.150   0.389
  170SOL    MW4  712   3.377   0.183   0.360
  171SOL     OW  713   2.866   0.032   0.192
  171SOL    HW2  714   2.906  -0.049   0.222
  171SOL    HW3  715   2.776   0.008   0.169
  171SOL    MW4  716   2.859   0.018   0.193
  172SOL     OW  717   2.903   4.032   0.197
  172SOL    HW2  718   2.888   3.985   0.279
  172SOL    HW3  719   2.821   4.078   0.180
  172SOL    MW4  720   2.890   4.032   0.206
  173SOL     OW  721   2.575   0.103   0.167
  173SOL    HW2  722   2.511   0.150   0.113
  173SOL    HW3  723   2.602   0.167   0.233
  173SOL    MW4  724   2.570   0.118   0.169
  174SOL     OW  725   2.926   1.032   0.444
  174SOL    HW2  726   3.004   1.075   0.408
  174SOL    HW3  727   2.957   0.990   0.524
  174SOL    MW4  728   2.940   1.032   0.450
  175SOL     OW  729   3.409   1.553   0.457
  175SOL    HW2  730   3.320   1.577   0.482
  175SOL    HW3  731   3.413   1.458   0.469
  175SOL    MW4  732   3.398   1.544   0.462
  176SOL     OW  733   3.248   0.768   0.606
  176SOL    HW2  734   3.188   0.832   0.645
  176SOL    HW3  735   3.322   0.820   0.575
  176SOL    MW4  736   3.250   0.783   0.607
  177SOL     OW  737   3.414   0.666   0.299
  177SOL    HW2  738   3.351   0.734   0.277
  177SOL    HW3  739   3.497   0.698   0.264
  177SOL    MW4  740   3.417   0.679   0.292
  178SOL     OW  741   3.637   1.847   0.656
  178SOL    HW2  742   3.621   1.896   0.575
  178SOL    HW3  743   3.587   1.895   0.723
  178SOL    MW4  744   3.628   1.860   0.655
  179SOL     OW  745   3.568   1.968   0.406
  179SOL    HW2  746   3.571   1.880   0.369
  179SOL    HW3  747   3.640   2.014   0.363
  179SOL    MW4  748   3.578   1.963   0.395
  180SOL     OW  749   3.439   1.191   0.498
  180SOL    HW2  750   3.476   1.103   0.500
  180SOL    HW3  751   3.398   1.202   0.584
  180SOL    MW4  752   3.438   1.181   0.510
  181SOL     OW  753   3.791   2.125   0.312
  181SOL    HW2  754   3.873   2.088   0.279
  181SOL    HW3  755   3.811   2.150   0.402
  181SOL    MW4  756   3.804   2.124   0.319
  182SOL     OW  757   3.324   2.304   0.610
  182SOL    HW2  758   3.315   2.222   0.561
  182SOL    HW3  759   3.373   2.279   0.689
  182SOL    MW4  760   3.330   2.290   0.614
  183SOL     OW  761   3.538   2.727   0.588
  183SOL    HW2  762   3.572   2.694   0.671
  183SOL    HW3  763   3.476   2.660   0.559
  183SOL    MW4  764   3.534   2.714   0.595
  184SOL     OW  765   1.932   2.738   0.417
  184SOL    HW2  766   1.963   2.752   0.506
  184SOL    HW3  767   1.961   2.816   0.369
  184SOL    MW4  768   1.940   2.750   0.422
  185SOL     OW  769   3.263   2.637   0.420
  185SOL    HW2  770   3.198   2.567   0.432
  185SOL    HW3  771   3.346   2.591   0.407
  185SOL    MW4  772   3.265   2.622   0.420
  186SOL     OW  773   2.935   2.764   0.787
  186SOL    HW2  774   2.924   2.753   0.692
  186SOL    HW3  775   3.022   2.731   0.806
  186SOL    MW4  776   2.945   2.758   0.777
  187SOL     OW  777   2.521   0.654   0.359
  187SOL    HW2  778   2.512   0.643   0.265
  187SOL    HW3  779   2.608   0.691   0.371
  187SOL    MW4  780   2.531   0.657   0.348
  188SOL     OW  781   2.784   4.151   0.479
  188SOL    HW2  782   2.791   4.057   0.498
  188SOL    HW3  783   2.875   4.182   0.479
  188SOL    MW4  784   2.797   4.142   0.481
  189SOL     OW  785   3.181   3.803   0.436
  189SOL    HW2  786   3.193   3.813   0.342
  189SOL    HW3  787   3.270   3.800   0.472
  189SOL    MW4  788   3.194   3.804   0.429
  190SOL     OW  789   3.925   3.540   0.391
  190SOL    HW2  790   4.003   3.487   0.409
  190SOL    HW3  791   3.894   3.566   0.478
  190SOL    MW4  792   3.931   3.537   0.405
  191SOL     OW  793   3.800   3.302   0.700
  191SOL    HW2  794   3.894   3.291   0.715
  191SOL    HW3  795   3.784   3.257   0.617
  191SOL    MW4  796   3.811   3.294   0.691
  192SOL     OW  797   2.791   3.877   0.417
  192SOL    HW2  798   2.846   3.799   0.414
  192SOL    HW3  799   2.705   3.845   0.444
  192SOL    MW4  800   2.787   3.863   0.420
  193SOL     OW  801   2.696   3.228   0.478
  193SOL    HW2  802   2.708   3.218   0.572
  193SOL    HW3  803   2.667   3.141   0.449
  193SOL    MW4  804   2.694   3.215   0.487
  194SOL     OW  805   4.455   0.084   0.277
  194SOL    HW2  806   4.461   0.079   0.182
  194SOL    HW3  807   4.542   0.113   0.306
  194SOL    MW4  808   4.467   0.087   0.269
  195SOL     OW  809   4.074   0.032   0.393
  195SOL    HW2  810   4.000   0.064   0.342
  195SOL    HW3  811   4.129   0.109   0.407
  195SOL    MW4  812   4.071   0.046   0.388
  196SOL     OW  813   3.076   0.642   0.424
  196SOL    HW2  814   3.137   0.680   0.488
  196SOL    HW3  815   3.125   0.571   0.383
  196SOL    MW4  816   3.090   0.638   0.427
  197SOL     OW  817   3.493   0.437   0.491
  197SOL    HW2  818   3.431   0.373   0.457
  197SOL    HW3  819   3.473   0.518   0.445
  197SOL    MW4  820   3.482   0.439   0.480
  198SOL     OW  821   4.157   0.517   0.333
  198SOL    HW2  822   4.239   0.563   0.347
  198SOL    HW3  823   4.180   0.425   0.336
  198SOL    MW4  824   4.171   0.511   0.335
  199SOL     OW  825   4.267   1.060   0.463
  199SOL    HW2  826   4.257   1.130   0.528
  199SOL    HW3  827   4.181   1.019   0.459
  199SOL    MW4  828   4.254   1.064   0.471
  200SOL     OW  829   3.933   0.662   0.413
  200SOL    HW2  830   3.941   0.640   0.506
  200SOL    HW3  831   3.982   0.593   0.368
  200SOL    MW4  832   3.941   0.650   0.419
  201SOL     OW  833   3.807   1.084   0.352
  201SOL    HW2  834   3.867   1.124   0.289
  201SOL    HW3  835   3.763   1.158   0.394
  201SOL    MW4  836   3.809   1.099   0.349
  202SOL     OW  837   3.705   1.263   0.518
  202SOL    HW2  838   3.609   1.254   0.521
  202SOL    HW3  839   3.719   1.356   0.498
  202SOL    MW4  840   3.694   1.274   0.516
  203SOL     OW  841   3.614   1.708   0.347
  203SOL    HW2  842   3.540   1.660   0.383
  203SOL    HW3  843   3.624   1.674   0.258
  203SOL    MW4  844   3.606   1.697   0.340
  204SOL     OW  845   3.193   1.104   0.346
  204SOL    HW2  846   3.222   1.013   0.337
  204SOL    HW3  847   3.263   1.146   0.396
  204SOL    MW4  848   3.206   1.097   0.352
  205SOL     OW  849   3.761   2.430   0.284
  205SOL    HW2  850   3.794   2.464   0.200
  205SOL    HW3  851   3.771   2.335   0.277
  205SOL    MW4  852   3.767   2.422   0.272
  206SOL     OW  853   4.116   2.958   0.359
  206SOL    HW2  854   4.162   2.881   0.392
  206SOL    HW3  855   4.030   2.955   0.401
  206SOL    MW4  856   4.110   2.948   0.369
  207SOL     OW  857   3.043   2.472   0.444
  207SOL    HW2  858   3.059   2.448   0.536
  207SOL    HW3  859   3.075   2.397   0.394
  207SOL    MW4  860   3.049   2.459   0.450
  208SOL     OW  861   2.939   3.641   0.458
  208SOL    HW2  862   3.032   3.666   0.465
  208SOL    HW3  863   2.941   3.546   0.441
  208SOL    MW4  864   2.952   3.631   0.457
  209SOL     OW  865   3.164   2.904   0.475
  209SOL    HW2  866   3.208   2.831   0.432
  209SOL    HW3  867   3.073   2.876   0.485
  209SOL    MW4  868   3.158   2.891   0.471
  210SOL     OW  869   3.871   2.952   0.493
  210SOL    HW2  870   3.836   2.883   0.436
  210SOL    HW3  871   3.808   3.024   0.485
  210SOL    MW4  872   3.858   2.952   0.485
  211SOL     OW  873   3.771   2.669   0.456
  211SOL    HW2  874   3.751   2.594   0.400
  211SOL    HW3  875   3.689   2.687   0.503
  211SOL    MW4  876   3.757   2.661   0.455
  212SOL     OW  877   3.827   4.015   0.178
  212SOL    HW2  878   3.876   3.933   0.185
  212SOL    HW3  879   3.837   4.041   0.087
  212SOL    MW4  880   3.835   4.007   0.167
  213SOL     OW  881   3.481   2.477   0.407
  213SOL    HW2  882   3.467   2.396   0.457
  213SOL    HW3  883   3.571   2.470   0.375
  213SOL    MW4  884   3.491   2.465   0.410
  214SOL     OW  885   3.451   3.856   0.588
  214SOL    HW2  886   3.473   3.902   0.668
  214SOL    HW3  887   3.457   3.763   0.611
  214SOL    MW4  888   3.455   3.849   0.601
  215SOL     OW  889   4.281   4.093   0.425
  215SOL    HW2  890   4.229   4.062   0.500
  215SOL    HW3  891   4.216   4.129   0.364
  215SOL    MW4  892   4.265   4.093   0.427
  216SOL     OW  893   3.670   4.161   0.367
  216SOL    HW2  894   3.717   4.117   0.296
  216SOL    HW3  895   3.586   4.114   0.373
  216SOL    MW4  896   3.665   4.149   0.359
  217SOL     OW  897   3.586   4.439   0.455
  217SOL    HW2  898   3.642   4.370   0.420
  217SOL    HW3  899   3.617   4.453   0.545
  217SOL    MW4  900   3.597   4.432   0.462
  218SOL     OW  901   0.008   0.046   0.590
  218SOL    HW2  902  -0.033  -0.028   0.544
  218SOL    HW3  903  -0.066   0.103   0.612
  218SOL    MW4  904  -0.008   0.043   0.587
  219SOL     OW  905   4.007   0.952   0.482
  219SOL    HW2  906   3.995   0.867   0.439
  219SOL    HW3  907   3.930   1.003   0.456
  219SOL    MW4  908   3.995   0.947   0.473
  220SOL     OW  909   0.478   2.148   0.464
  220SOL    HW2  910   0.508   2.237   0.483
  220SOL    HW3  911   0.383   2.155   0.463
  220SOL    MW4  912   0.470   2.161   0.466
  221SOL     OW  913   4.397   0.607   0.465
  221SOL    HW2  914   4.472   0.551   0.484
  221SOL    HW3  915   4.431   0.696   0.472
  221SOL    MW4  916   4.411   0.612   0.468
  222SOL     OW  917   4.459   1.271   0.317
  222SOL    HW2  918   4.393   1.201   0.306
  222SOL    HW3  919   4.416   1.334   0.375
  222SOL    MW4  920   4.444   1.270   0.323
  223SOL     OW  921   3.602   0.068   0.447
  223SOL    HW2  922   3.590  -0.026   0.428
  223SOL    HW3  923   3.671   0.096   0.387
  223SOL    MW4  924   3.609   0.059   0.437
  224SOL     OW  925   3.667   0.841   0.329
  224SOL    HW2  926   3.705   0.920   0.290
  224SOL    HW3  927   3.742   0.782   0.339
  224SOL    MW4  928   3.682   0.844   0.325
  225SOL     OW  929   0.330   1.484   0.442
  225SOL    HW2  930   0.247   1.513   0.479
  225SOL    HW3  931   0.317   1.392   0.422
  225SOL    MW4  932   0.317   1.476   0.444
  226SOL     OW  933   4.252   2.181   0.409
  226SOL    HW2  934   4.208   2.249   0.460
  226SOL    HW3  935   4.332   2.223   0.377
  226SOL    MW4  936   4.257   2.196   0.412
  227SOL     OW  937   0.385   1.774   0.341
  227SOL    HW2  938   0.374   1.681   0.358
  227SOL    HW3  939   0.473   1.794   0.373
  227SOL    MW4  940   0.395   1.764   0.347
  228SOL     OW  941   1.082   2.697   0.479
  228SOL    HW2  942   1.066   2.602   0.481
  228SOL    HW3  943   1.003   2.733   0.438
  228SOL    MW4  944   1.069   2.689   0.474
  229SOL     OW  945   4.332   1.924   0.493
  229SOL    HW2  946   4.420   1.915   0.458
  229SOL    HW3  947   4.300   2.007   0.460
  229SOL    MW4  948   4.339   1.933   0.484
  230SOL     OW  949   0.009   2.572   0.486
  230SOL    HW2  950   0.077   2.640   0.481
  230SOL    HW3  951   0.012   2.541   0.576
  230SOL    MW4  952   0.019   2.577   0.497
  231SOL     OW  953   4.390   3.582   0.446
  231SOL    HW2  954   4.463   3.526   0.420
  231SOL    HW3  955   4.315   3.523   0.451
  231SOL    MW4  956   4.390   3.567   0.443
  232SOL     OW  957   4.263   2.713   0.468
  232SOL    HW2  958   4.192   2.654   0.493
  232SOL    HW3  959   4.338   2.655   0.453
  232SOL    MW4  960   4.263   2.697   0.469
  233SOL     OW  961   0.239   3.832   0.386
  233SOL    HW2  962   0.164   3.890   0.400
  233SOL    HW3  963   0.314   3.891   0.388
  233SOL    MW4  964   0.239   3.847   0.388
  234SOL     OW  965   0.118   3.448   0.358
  234SOL    HW2  966   0.105   3.502   0.281
  234SOL    HW3  967   0.192   3.489   0.404
  234SOL    MW4  968   0.126   3.460   0.354
  235SOL     OW  969   4.479   3.159   0.428
  235SOL    HW2  970   4.397   3.151   0.379
  235SOL    HW3  971   4.522   3.237   0.391
  235SOL    MW4  972   4.474   3.169   0.417
  236SOL     OW  973   3.986   3.804   0.288
  236SOL    HW2  974   3.967   3.710   0.292
  236SOL    HW3  975   4.081   3.809   0.289
  236SOL    MW4  976   3.996   3.792   0.289
  237SOL     OW  977   3.708   3.185   0.463
  237SOL    HW2  978   3.731   3.250   0.398
  237SOL    HW3  979   3.620   3.210   0.493
  237SOL    MW4  980   3.699   3.197   0.459
  238SOL     OW  981   0.073   4.074   0.470
  238SOL    HW2  982   0.080   4.073   0.565
  238SOL    HW3  983  -0.021   4.082   0.452
  238SOL    MW4  984   0.062   4.075   0.480
  239SOL     OW  985   4.156   4.428   0.351
  239SOL    HW2  986   4.089   4.361   0.337
  239SOL    HW3  987   4.108   4.511   0.345
  239SOL    MW4  988   4.141   4.430   0.348
  240SOL     OW  989   3.997   4.547   0.611
  240SOL    HW2  990   4.069   4.485   0.625
  240SOL    HW3  991   4.029   4.605   0.542
  240SOL    MW4  992   4.011   4.547   0.604
  241SOL     OW  993   3.735   4.466   0.689
  241SOL    HW2  994   3.703   4.554   0.709
  241SOL    HW3  995   3.822   4.481   0.651
  241SOL    MW4  996   3.742   4.480   0.686
  242SOL     OW  997   0.215   4.622   0.788
  242SOL    HW2  998   0.239   4.533   0.762
  242SOL    HW3  999   0.141   4.645   0.732
  242SOL    MW4 1000   0.209   4.613   0.777
  243SOL     OW 1001   4.329   0.232   0.673
  243SOL    HW2 1002   4.295   0.167   0.734
  243SOL    HW3 1003   4.367   0.300   0.729
  243SOL    MW4 1004   4.329   0.232   0.688
  244SOL     OW 1005   4.434   0.428   0.820
  244SOL    HW2 1006   4.436   0.409   0.914
  244SOL    HW3 1007   4.526   0.421   0.792
  244SOL    MW4 1008   4.447   0.425   0.828
  245SOL     OW 1009   0.213   0.455   0.748
  245SOL    HW2 1010   0.294   0.417   0.783
  245SOL    HW3 1011   0.215   0.546   0.775
  245SOL    MW4 1012   0.224   0.462   0.756
  246SOL     OW 1013   0.212   0.715   0.838
  246SOL    HW2 1014   0.222   0.727   0.932
  246SOL    HW3 1015   0.131   0.761   0.816
  246SOL    MW4 1016   0.203   0.722   0.848
  247SOL     OW 1017   0.014   0.910   0.753
  247SOL    HW2 1018  -0.066   0.865   0.780
  247SOL    HW3 1019   0.019   0.897   0.659
  247SOL    MW4 1020   0.004   0.902   0.744
  248SOL     OW 1021   0.008   1.179   0.849
  248SOL    HW2 1022   0.026   1.170   0.943
  248SOL    HW3 1023   0.008   1.089   0.817
  248SOL    MW4 1024   0.011   1.166   0.857
  249SOL     OW 1025   0.250   1.259   0.714
  249SOL    HW2 1026   0.168   1.232   0.755
  249SOL    HW3 1027   0.233   1.252   0.620
  249SOL    MW4 1028   0.237   1.255   0.707
  250SOL     OW 1029   0.307   1.485   0.838
  250SOL    HW2 1030   0.371   1.535   0.787
  250SOL    HW3 1031   0.291   1.406   0.786
  250SOL    MW4 1032   0.313   1.481   0.824
  251SOL     OW 1033   0.056   1.640   0.779
  251SOL    HW2 1034  -0.023   1.594   0.805
  251SOL    HW3 1035   0.127   1.598   0.828
  251SOL    MW4 1036   0.055   1.629   0.789
  252SOL     OW 1037   0.029   1.887   0.897
  252SOL    HW2 1038   0.099   1.940   0.860
  252SOL    HW3 1039   0.053   1.797   0.876
  252SOL    MW4 1040   0.041   1.882   0.890
  253SOL     OW 1041   0.220   2.068   0.780
  253SOL    HW2 1042   0.189   2.148   0.820
  253SOL    HW3 1043   0.208   2.081   0.686
  253SOL    MW4 1044   0.215   2.080   0.773
  254SOL     OW 1045   0.216   2.345   0.840
  254SOL    HW2 1046   0.231   2.346   0.934
  254SOL    HW3 1047   0.299   2.375   0.802
  254SOL    MW4 1048   0.229   2.349   0.847
  255SOL     OW 1049   4.475   2.472   0.758
  255SOL    HW2 1050   4.407   2.405   0.761
  255SOL    HW3 1051   4.557   2.424   0.770
  255SOL    MW4 1052   4.477   2.457   0.760
  256SOL     OW 1053   4.483   2.736   0.856
  256SOL    HW2 1054   4.482   2.715   0.949
  256SOL    HW3 1055   4.468   2.651   0.813
  256SOL    MW4 1056   4.481   2.722   0.863
  257SOL     OW 1057   0.241   2.796   0.736
  257SOL    HW2 1058   0.150   2.793   0.766
  257SOL    HW3 1059   0.237   2.772   0.644
  257SOL    MW4 1060   0.229   2.792   0.728
  258SOL     OW 1061   0.266   3.071   0.778
  258SOL    HW2 1062   0.264   3.070   0.873
  258SOL    HW3 1063   0.279   2.979   0.753
  258SOL    MW4 1064   0.268   3.059   0.787
  259SOL     OW 1065   0.021   3.210   0.692
  259SOL    HW2 1066   0.100   3.166   0.724
  259SOL    HW3 1067   0.006   3.173   0.605
  259SOL    MW4 1068   0.030   3.199   0.685
  260SOL     OW 1069   0.057   3.465   0.821
  260SOL    HW2 1070  -0.021   3.518   0.803
  260SOL    HW3 1071   0.040   3.381   0.779
  260SOL    MW4 1072   0.045   3.461   0.813
  261SOL     OW 1073   0.324   3.546   0.742
  261SOL    HW2 1074   0.234   3.516   0.755
  261SOL    HW3 1075   0.331   3.559   0.647
  261SOL    MW4 1076   0.313   3.544   0.731
  262SOL     OW 1077   0.329   3.815   0.831
  262SOL    HW2 1078   0.294   3.819   0.920
  262SOL    HW3 1079   0.334   3.721   0.812
  262SOL    MW4 1080   0.325   3.803   0.840
  263SOL     OW 1081   0.118   4.050   0.767
  263SOL    HW2 1082   0.047   3.985   0.768
  263SOL    HW3 1083   0.196   3.999   0.786
  263SOL    MW4 1084   0.119   4.035   0.770
  264SOL     OW 1085   0.004   4.295   0.835
  264SOL    HW2 1086   0.011   4.311   0.930
  264SOL    HW3 1087   0.025   4.202   0.825
  264SOL    MW4 1088   0.008   4.285   0.846
  265SOL     OW 1089   0.241   4.370   0.706
  265SOL    HW2 1090   0.155   4.347   0.739
  265SOL    HW3 1091   0.233   4.366   0.611
  265SOL    MW4 1092   0.229   4.366   0.698
  266SOL     OW 1093   0.630   4.606   0.786
  266SOL    HW2 1094   0.624   4.624   0.880
  266SOL    HW3 1095   0.589   4.682   0.745
  266SOL    MW4 1096   0.624   4.619   0.793
  267SOL     OW 1097   0.418   0.126   0.689
  267SOL    HW2 1098   0.348   0.086   0.742
  267SOL    HW3 1099   0.419   0.075   0.608
  267SOL    MW4 1100   0.409   0.114   0.685
  268SOL     OW 1101   0.465   0.358   0.854
  268SOL    HW2 1102   0.532   0.419   0.822
  268SOL    HW3 1103   0.467   0.286   0.792
  268SOL    MW4 1104   0.474   0.357   0.841
  269SOL     OW 1105   0.675   0.491   0.710
  269SOL    HW2 1106   0.748   0.435   0.734
  269SOL    HW3 1107   0.643   0.455   0.627
  269SOL    MW4 1108   0.680   0.479   0.702
  270SOL     OW 1109   0.591   0.737   0.883
  270SOL    HW2 1110   0.533   0.790   0.829
  270SOL    HW3 1111   0.623   0.668   0.825
  270SOL    MW4 1112   0.588   0.735   0.869
  271SOL     OW 1113   0.414   0.866   0.690
  271SOL    HW2 1114   0.411   0.948   0.739
  271SOL    HW3 1115   0.339   0.816   0.722
  271SOL    MW4 1116   0.403   0.870   0.701
  272SOL     OW 1117   0.445   1.103   0.844
  272SOL    HW2 1118   0.529   1.135   0.811
  272SOL    HW3 1119   0.380   1.154   0.797
  272SOL    MW4 1120   0.448   1.114   0.833
  273SOL     OW 1121   0.661   1.242   0.694
  273SOL    HW2 1122   0.666   1.335   0.719
  273SOL    HW3 1123   0.668   1.243   0.599
  273SOL    MW4 1124   0.663   1.255   0.685
  274SOL     OW 1125   0.697   1.505   0.768
  274SOL    HW2 1126   0.686   1.527   0.860
  274SOL    HW3 1127   0.618   1.537   0.725
  274SOL    MW4 1128   0.685   1.512   0.774
  275SOL     OW 1129   0.483   1.604   0.638
  275SOL    HW2 1130   0.475   1.699   0.633
  275SOL    HW3 1131   0.424   1.571   0.571
  275SOL    MW4 1132   0.474   1.612   0.629
  276SOL     OW 1133   0.466   1.874   0.608
  276SOL    HW2 1134   0.448   1.943   0.545
  276SOL    HW3 1135   0.495   1.919   0.687
  276SOL    MW4 1136   0.467   1.889   0.610
  277SOL     OW 1137   0.484   2.039   0.821
  277SOL    HW2 1138   0.471   1.988   0.901
  277SOL    HW3 1139   0.396   2.058   0.790
  277SOL    MW4 1140   0.471   2.035   0.828
  278SOL     OW 1141   0.665   2.234   0.845
  278SOL    HW2 1142   0.663   2.259   0.938
  278SOL    HW3 1143   0.600   2.164   0.839
  278SOL    MW4 1144   0.656   2.228   0.857
  279SOL     OW 1145   0.488   2.452   0.776
  279SOL    HW2 1146   0.543   2.379   0.805
  279SOL    HW3 1147   0.498   2.454   0.681
  279SOL    MW4 1148   0.497   2.443   0.767
  280SOL     OW 1149   0.442   2.704   0.892
  280SOL    HW2 1150   0.467   2.619   0.856
  280SOL    HW3 1151   0.363   2.729   0.843
  280SOL    MW4 1152   0.435   2.696   0.881
  281SOL     OW 1153   0.645   2.882   0.790
  281SOL    HW2 1154   0.716   2.818   0.781
  281SOL    HW3 1155   0.579   2.836   0.842
  281SOL    MW4 1156   0.646   2.867   0.795
  282SOL     OW 1157   0.693   3.102   0.930
  282SOL    HW2 1158   0.651   3.174   0.883
  282SOL    HW3 1159   0.671   3.024   0.879
  282SOL    MW4 1160   0.685   3.101   0.917
  283SOL     OW 1161   0.479   3.246   0.706
  283SOL    HW2 1162   0.495   3.315   0.771
  283SOL    HW3 1163   0.389   3.217   0.724
  283SOL    MW4 1164   0.469   3.251   0.717
  284SOL     OW 1165   0.532   3.432   0.884
  284SOL    HW2 1166   0.492   3.407   0.967
  284SOL    HW3 1167   0.465   3.484   0.840
  284SOL    MW4 1168   0.518   3.436   0.889
  285SOL     OW 1169   0.765   3.531   0.807
  285SOL    HW2 1170   0.691   3.497   0.857
  285SOL    HW3 1171   0.741   3.622   0.788
  285SOL    MW4 1172   0.752   3.539   0.811
  286SOL     OW 1173   0.659   3.805   0.796
  286SOL    HW2 1174   0.734   3.860   0.773
  286SOL    HW3 1175   0.584   3.852   0.760
  286SOL    MW4 1176   0.659   3.819   0.788
  287SOL     OW 1177   0.491   3.975   0.675
  287SOL    HW2 1178   0.484   4.063   0.712
  287SOL    HW3 1179   0.429   3.923   0.726
  287SOL    MW4 1180   0.482   3.980   0.686
  288SOL     OW 1181   0.455   4.220   0.799
  288SOL    HW2 1182   0.461   4.224   0.894
  288SOL    HW3 1183   0.379   4.273   0.777
  288SOL    MW4 1184   0.446   4.227   0.809
  289SOL     OW 1185   0.698   4.340   0.732
  289SOL    HW2 1186   0.612   4.301   0.749
  289SOL    HW3 1187   0.688   4.431   0.758
  289SOL    MW4 1188   0.685   4.347   0.738
  290SOL     OW 1189   1.115   4.602   0.813
  290SOL    HW2 1190   1.190   4.661   0.803
  290SOL    HW3 1191   1.040   4.653   0.781
  290SOL    MW4 1192   1.115   4.617   0.808
  291SOL     OW 1193   0.883   0.046   0.728
  291SOL    HW2 1194   0.876   0.139   0.746
  291SOL    HW3 1195   0.806   0.007   0.769
  291SOL    MW4 1196   0.872   0.053   0.736
  292SOL     OW 1197   0.926   0.318   0.839
  292SOL    HW2 1198   0.911   0.338   0.931
  292SOL    HW3 1199   0.998   0.376   0.813
  292SOL    MW4 1200   0.933   0.329   0.848
  293SOL     OW 1201   1.101   0.514   0.742
  293SOL    HW2 1202   1.183   0.473   0.770
  293SOL    HW3 1203   1.091   0.488   0.651
  293SOL    MW4 1204   1.110   0.505   0.734
  294SOL     OW 1205   1.055   0.778   0.826
  294SOL    HW2 1206   1.063   0.775   0.921
  294SOL    HW3 1207   1.061   0.687   0.798
  294SOL    MW4 1208   1.057   0.766   0.835
  295SOL     OW 1209   0.811   0.861   0.734
  295SOL    HW2 1210   0.893   0.817   0.756
  295SOL    HW3 1211   0.745   0.818   0.788
  295SOL    MW4 1212   0.813   0.850   0.744
  296SOL     OW 1213   0.888   1.127   0.773
  296SOL    HW2 1214   0.860   1.036   0.766
  296SOL    HW3 1215   0.811   1.178   0.750
  296SOL    MW4 1216   0.874   1.122   0.769
  297SOL     OW 1217   1.111   1.269   0.688
  297SOL    HW2 1218   1.031   1.225   0.716
  297SOL    HW3 1219   1.116   1.253   0.594
  297SOL    MW4 1220   1.101   1.261   0.679
  298SOL     OW 1221   1.105   1.536   0.790
  298SOL    HW2 1222   1.029   1.593   0.776
  298SOL    HW3 1223   1.080   1.453   0.751
  298SOL    MW4 1224   1.091   1.533   0.783
  299SOL     OW 1225   0.897   1.706   0.719
  299SOL    HW2 1226   0.884   1.787   0.768
  299SOL    HW3 1227   0.808   1.673   0.704
  299SOL    MW4 1228   0.883   1.713   0.724
  300SOL     OW 1229   0.847   1.992   0.786
  300SOL    HW2 1230   0.864   1.975   0.879
  300SOL    HW3 1231   0.806   2.079   0.785
  300SOL    MW4 1232   0.844   2.001   0.799
  301SOL     OW 1233   1.108   2.056   0.696
  301SOL    HW2 1234   1.120   2.137   0.746
  301SOL    HW3 1235   1.021   2.025   0.722
  301SOL    MW4 1236   1.098   2.062   0.706
  302SOL     OW 1237   1.131   2.318   0.788
  302SOL    HW2 1238   1.148   2.297   0.879
  302SOL    HW3 1239   1.202   2.377   0.763
  302SOL    MW4 1240   1.143   2.323   0.796
  303SOL     OW 1241   0.882   2.438   0.747
  303SOL    HW2 1242   0.968   2.407   0.774
  303SOL    HW3 1243   0.820   2.378   0.787
  303SOL    MW4 1244   0.885   2.426   0.756
  304SOL     OW 1245   0.857   2.709   0.792
  304SOL    HW2 1246   0.889   2.700   0.882
  304SOL    HW3 1247   0.848   2.619   0.761
  304SOL    MW4 1248   0.860   2.696   0.800
  305SOL     OW 1249   1.089   2.882   0.811
  305SOL    HW2 1250   1.025   2.951   0.830
  305SOL    HW3 1251   1.036   2.805   0.789
  305SOL    MW4 1252   1.074   2.881   0.810
  306SOL     OW 1253   0.942   3.119   0.855
  306SOL    HW2 1254   0.852   3.108   0.887
  306SOL    HW3 1255   0.949   3.213   0.837
  306SOL    MW4 1256   0.931   3.130   0.857
  307SOL     OW 1257   0.774   3.449   0.535
  307SOL    HW2 1258   0.813   3.535   0.518
  307SOL    HW3 1259   0.728   3.460   0.618
  307SOL    MW4 1260   0.773   3.462   0.544
  308SOL     OW 1261   1.003   3.406   0.857
  308SOL    HW2 1262   1.072   3.456   0.813
  308SOL    HW3 1263   0.923   3.456   0.840
  308SOL    MW4 1264   1.001   3.420   0.849
  309SOL     OW 1265   1.194   3.538   0.731
  309SOL    HW2 1266   1.285   3.520   0.757
  309SOL    HW3 1267   1.192   3.517   0.638
  309SOL    MW4 1268   1.206   3.533   0.722
  310SOL     OW 1269   1.111   3.805   0.797
  310SOL    HW2 1270   1.115   3.809   0.893
  310SOL    HW3 1271   1.140   3.717   0.775
  310SOL    MW4 1272   1.115   3.794   0.807
  311SOL     OW 1273   0.889   3.937   0.707
  311SOL    HW2 1274   0.900   4.029   0.730
  311SOL    HW3 1275   0.967   3.894   0.742
  311SOL    MW4 1276   0.901   3.944   0.715
  312SOL     OW 1277   0.934   4.207   0.822
  312SOL    HW2 1278   1.003   4.267   0.796
  312SOL    HW3 1279   0.853   4.258   0.812
  312SOL    MW4 1280   0.932   4.222   0.817
  313SOL     OW 1281   1.133   4.348   0.709
  313SOL    HW2 1282   1.209   4.314   0.756
  313SOL    HW3 1283   1.116   4.433   0.750
  313SOL    MW4 1284   1.141   4.355   0.720
  314SOL     OW 1285   1.561   4.664   0.859
  314SOL    HW2 1286   1.546   4.656   0.953
  314SOL    HW3 1287   1.493   4.724   0.828
  314SOL    MW4 1288   1.550   4.671   0.867
  315SOL     OW 1289   1.328   0.145   0.765
  315SOL    HW2 1290   1.303   0.229   0.802
  315SOL    HW3 1291   1.358   0.165   0.676
  315SOL    MW4 1292   1.329   0.158   0.758
  316SOL     OW 1293   1.318   0.404   0.844
  316SOL    HW2 1294   1.332   0.396   0.939
  316SOL    HW3 1295   1.401   0.437   0.811
  316SOL    MW4 1296   1.331   0.407   0.852
  317SOL     OW 1297   1.561   0.507   0.759
  317SOL    HW2 1298   1.556   0.601   0.777
  317SOL    HW3 1299   1.648   0.482   0.790
  317SOL    MW4 1300   1.572   0.516   0.766
  318SOL     OW 1301   1.546   0.755   0.859
  318SOL    HW2 1302   1.626   0.787   0.818
  318SOL    HW3 1303   1.475   0.796   0.810
  318SOL    MW4 1304   1.547   0.765   0.847
  319SOL     OW 1305   1.310   0.875   0.715
  319SOL    HW2 1306   1.333   0.962   0.748
  319SOL    HW3 1307   1.235   0.848   0.768
  319SOL    MW4 1308   1.303   0.883   0.726
  320SOL     OW 1309   1.343   1.146   0.814
  320SOL    HW2 1310   1.415   1.194   0.774
  320SOL    HW3 1311   1.264   1.180   0.772
  320SOL    MW4 1312   1.342   1.157   0.803
  321SOL     OW 1313   1.548   1.264   0.661
  321SOL    HW2 1314   1.546   1.358   0.642
  321SOL    HW3 1315   1.558   1.223   0.576
  321SOL    MW4 1316   1.549   1.271   0.648
  322SOL     OW 1317   1.755   1.633   0.830
  322SOL    HW2 1318   1.720   1.590   0.909
  322SOL    HW3 1319   1.837   1.587   0.812
  322SOL    MW4 1320   1.761   1.621   0.838
  323SOL     OW 1321   1.345   1.658   0.694
  323SOL    HW2 1322   1.350   1.744   0.734
  323SOL    HW3 1323   1.266   1.618   0.731
  323SOL    MW4 1324   1.335   1.664   0.704
  324SOL     OW 1325   1.302   1.907   0.801
  324SOL    HW2 1326   1.319   1.916   0.895
  324SOL    HW3 1327   1.242   1.979   0.781
  324SOL    MW4 1328   1.296   1.918   0.811
  325SOL     OW 1329   1.559   2.027   0.741
  325SOL    HW2 1330   1.550   2.015   0.647
  325SOL    HW3 1331   1.483   1.982   0.778
  325SOL    MW4 1332   1.548   2.019   0.734
  326SOL     OW 1333   1.533   2.303   0.822
  326SOL    HW2 1334   1.472   2.361   0.777
  326SOL    HW3 1335   1.523   2.219   0.776
  326SOL    MW4 1336   1.524   2.299   0.810
  327SOL     OW 1337   1.359   2.499   0.696
  327SOL    HW2 1338   1.345   2.580   0.745
  327SOL    HW3 1339   1.378   2.528   0.607
  327SOL    MW4 1340   1.359   2.514   0.691
  328SOL     OW 1341   1.318   2.730   0.823
  328SOL    HW2 1342   1.331   2.711   0.916
  328SOL    HW3 1343   1.237   2.782   0.820
  328SOL    MW4 1344   1.309   2.734   0.835
  329SOL     OW 1345   1.557   2.837   0.706
  329SOL    HW2 1346   1.588   2.924   0.733
  329SOL    HW3 1347   1.475   2.825   0.753
  329SOL    MW4 1348   1.551   2.847   0.716
  330SOL     OW 1349   1.636   3.084   0.800
  330SOL    HW2 1350   1.619   3.096   0.894
  330SOL    HW3 1351   1.573   3.143   0.757
  330SOL    MW4 1352   1.625   3.094   0.807
  331SOL     OW 1353   1.448   3.228   0.674
  331SOL    HW2 1354   1.365   3.182   0.677
  331SOL    HW3 1355   1.490   3.198   0.594
  331SOL    MW4 1356   1.443   3.218   0.664
  332SOL     OW 1357   1.444   3.457   0.839
  332SOL    HW2 1358   1.511   3.517   0.806
  332SOL    HW3 1359   1.445   3.384   0.776
  332SOL    MW4 1360   1.453   3.455   0.826
  333SOL     OW 1361   1.601   3.639   0.727
  333SOL    HW2 1362   1.684   3.608   0.764
  333SOL    HW3 1363   1.612   3.631   0.633
  333SOL    MW4 1364   1.614   3.634   0.720
  334SOL     OW 1365   1.589   3.899   0.822
  334SOL    HW2 1366   1.499   3.923   0.798
  334SOL    HW3 1367   1.593   3.805   0.802
  334SOL    MW4 1368   1.577   3.890   0.816
  335SOL     OW 1369   1.333   3.990   0.746
  335SOL    HW2 1370   1.260   3.931   0.760
  335SOL    HW3 1371   1.346   3.991   0.651
  335SOL    MW4 1372   1.325   3.983   0.735
  336SOL     OW 1373   1.349   4.246   0.829
  336SOL    HW2 1374   1.435   4.278   0.803
  336SOL    HW3 1375   1.346   4.156   0.796
  336SOL    MW4 1376   1.360   4.238   0.821
  337SOL     OW 1377   1.568   4.393   0.744
  337SOL    HW2 1378   1.660   4.367   0.756
  337SOL    HW3 1379   1.567   4.486   0.766
  337SOL    MW4 1380   1.580   4.402   0.748
  338SOL     OW 1381   1.773   0.161   0.796
  338SOL    HW2 1382   1.848   0.102   0.796
  338SOL    HW3 1383   1.698   0.104   0.818
  338SOL    MW4 1384   1.773   0.146   0.799
  339SOL     OW 1385   1.719   0.226   0.527
  339SOL    HW2 1386   1.626   0.231   0.507
  339SOL    HW3 1387   1.724   0.203   0.620
  339SOL    MW4 1388   1.708   0.224   0.537
  340SOL     OW 1389   1.794   0.414   0.889
  340SOL    HW2 1390   1.800   0.323   0.858
  340SOL    HW3 1391   1.860   0.460   0.837
  340SOL    MW4 1392   1.804   0.408   0.878
  341SOL     OW 1393   1.987   0.526   0.732
  341SOL    HW2 1394   1.955   0.482   0.653
  341SOL    HW3 1395   2.051   0.466   0.769
  341SOL    MW4 1396   1.992   0.512   0.727
  342SOL     OW 1397   2.048   0.799   0.830
  342SOL    HW2 1398   2.133   0.839   0.810
  342SOL    HW3 1399   2.049   0.715   0.785
  342SOL    MW4 1400   2.059   0.794   0.821
  343SOL     OW 1401   1.790   0.874   0.741
  343SOL    HW2 1402   1.768   0.961   0.776
  343SOL    HW3 1403   1.882   0.861   0.765
  343SOL    MW4 1404   1.799   0.884   0.749
  344SOL     OW 1405   1.763   1.146   0.816
  344SOL    HW2 1406   1.850   1.176   0.790
  344SOL    HW3 1407   1.704   1.182   0.750
  344SOL    MW4 1408   1.766   1.154   0.804
  345SOL     OW 1409   2.021   1.246   0.760
  345SOL    HW2 1410   2.086   1.213   0.822
  345SOL    HW3 1411   2.059   1.230   0.674
  345SOL    MW4 1412   2.034   1.239   0.757
  346SOL     OW 1413   2.011   1.523   0.799
  346SOL    HW2 1414   2.093   1.560   0.765
  346SOL    HW3 1415   2.014   1.430   0.774
  346SOL    MW4 1416   2.022   1.515   0.791
  347SOL     OW 1417   1.797   1.279   0.301
  347SOL    HW2 1418   1.865   1.310   0.242
  347SOL    HW3 1419   1.758   1.359   0.336
  347SOL    MW4 1420   1.801   1.294   0.298
  348SOL     OW 1421   1.802   1.901   0.837
  348SOL    HW2 1422   1.778   1.809   0.846
  348SOL    HW3 1423   1.722   1.945   0.809
  348SOL    MW4 1424   1.789   1.895   0.835
  349SOL     OW 1425   2.036   2.021   0.747
  349SOL    HW2 1426   2.020   2.115   0.756
  349SOL    HW3 1427   1.955   1.981   0.777
  349SOL    MW4 1428   2.023   2.028   0.752
  350SOL     OW 1429   1.988   2.273   0.821
  350SOL    HW2 1430   2.012   2.274   0.913
  350SOL    HW3 1431   1.909   2.327   0.816
  350SOL    MW4 1432   1.980   2.280   0.832
  351SOL     OW 1433   1.761   2.470   0.740
  351SOL    HW2 1434   1.690   2.414   0.772
  351SOL    HW3 1435   1.757   2.461   0.645
  351SOL    MW4 1436   1.751   2.461   0.732
  352SOL     OW 1437   1.829   2.737   0.824
  352SOL    HW2 1438   1.813   2.648   0.792
  352SOL    HW3 1439   1.746   2.783   0.811
  352SOL    MW4 1440   1.816   2.731   0.818
  353SOL     OW 1441   2.021   2.822   0.665
  353SOL    HW2 1442   2.101   2.786   0.703
  353SOL    HW3 1443   1.950   2.788   0.719
  353SOL    MW4 1444   2.022   2.813   0.677
  354SOL     OW 1445   2.036   3.083   0.803
  354SOL    HW2 1446   1.961   3.127   0.763
  354SOL    HW3 1447   2.042   2.999   0.758
  354SOL    MW4 1448   2.027   3.078   0.792
  355SOL     OW 1449   1.844   3.254   0.718
  355SOL    HW2 1450   1.783   3.189   0.753
  355SOL    HW3 1451   1.848   3.235   0.625
  355SOL    MW4 1452   1.836   3.243   0.710
  356SOL     OW 1453   1.819   3.506   0.846
  356SOL    HW2 1454   1.818   3.502   0.942
  356SOL    HW3 1455   1.827   3.415   0.819
  356SOL    MW4 1456   1.820   3.493   0.855
  357SOL     OW 1457   2.043   3.630   0.707
  357SOL    HW2 1458   2.035   3.723   0.728
  357SOL    HW3 1459   1.974   3.588   0.757
  357SOL    MW4 1460   2.033   3.637   0.716
  358SOL     OW 1461   2.025   3.908   0.827
  358SOL    HW2 1462   2.023   3.903   0.922
  358SOL    HW3 1463   1.953   3.966   0.804
  358SOL    MW4 1464   2.015   3.915   0.836
  359SOL     OW 1465   1.812   4.066   0.727
  359SOL    HW2 1466   1.742   4.010   0.758
  359SOL    HW3 1467   1.838   4.029   0.642
  359SOL    MW4 1468   1.806   4.054   0.720
  360SOL     OW 1469   1.837   4.323   0.814
  360SOL    HW2 1470   1.819   4.307   0.907
  360SOL    HW3 1471   1.837   4.236   0.774
  360SOL    MW4 1472   1.835   4.309   0.821
  361SOL     OW 1473   2.105   4.405   0.737
  361SOL    HW2 1474   2.025   4.368   0.775
  361SOL    HW3 1475   2.098   4.387   0.644
  361SOL    MW4 1476   2.093   4.398   0.730
  362SOL     OW 1477   2.701   0.137   0.806
  362SOL    HW2 1478   2.685   0.129   0.712
  362SOL    HW3 1479   2.694   0.230   0.824
  362SOL    MW4 1480   2.698   0.148   0.796
  363SOL     OW 1481   2.458   4.664   0.884
  363SOL    HW2 1482   2.542   4.708   0.870
  363SOL    HW3 1483   2.444   4.669   0.978
  363SOL    MW4 1484   2.467   4.670   0.894
  364SOL     OW 1485   2.203   0.379   0.834
  364SOL    HW2 1486   2.289   0.417   0.814
  364SOL    HW3 1487   2.212   0.287   0.809
  364SOL    MW4 1488   2.216   0.372   0.828
  365SOL     OW 1489   2.449   0.499   0.765
  365SOL    HW2 1490   2.448   0.472   0.673
  365SOL    HW3 1491   2.531   0.465   0.800
  365SOL    MW4 1492   2.459   0.491   0.757
  366SOL     OW 1493   2.345   0.836   0.496
  366SOL    HW2 1494   2.396   0.764   0.459
  366SOL    HW3 1495   2.254   0.816   0.472
  366SOL    MW4 1496   2.339   0.824   0.488
  367SOL     OW 1497   2.311   0.877   0.781
  367SOL    HW2 1498   2.388   0.840   0.825
  367SOL    HW3 1499   2.335   0.878   0.688
  367SOL    MW4 1500   2.325   0.872   0.775
  368SOL     OW 1501   2.261   1.134   0.887
  368SOL    HW2 1502   2.241   1.134   0.981
  368SOL    HW3 1503   2.275   1.042   0.865
  368SOL    MW4 1504   2.260   1.122   0.897
  369SOL     OW 1505   2.477   1.301   0.844
  369SOL    HW2 1506   2.400   1.246   0.859
  369SOL    HW3 1507   2.473   1.323   0.751
  369SOL    MW4 1508   2.466   1.297   0.833
  370SOL     OW 1509   2.480   1.570   0.919
  370SOL    HW2 1510   2.565   1.609   0.898
  370SOL    HW3 1511   2.494   1.476   0.908
  370SOL    MW4 1512   2.493   1.563   0.915
  371SOL     OW 1513   2.282   1.641   0.723
  371SOL    HW2 1514   2.342   1.613   0.793
  371SOL    HW3 1515   2.332   1.628   0.642
  371SOL    MW4 1516   2.297   1.635   0.721
  372SOL     OW 1517   2.267   1.903   0.861
  372SOL    HW2 1518   2.280   1.823   0.810
  372SOL    HW3 1519   2.196   1.949   0.817
  372SOL    MW4 1520   2.259   1.899   0.849
  373SOL     OW 1521   2.493   2.027   0.730
  373SOL    HW2 1522   2.425   1.985   0.783
  373SOL    HW3 1523   2.448   2.054   0.650
  373SOL    MW4 1524   2.478   2.025   0.726
  374SOL     OW 1525   2.446   2.287   0.851
  374SOL    HW2 1526   2.527   2.332   0.828
  374SOL    HW3 1527   2.445   2.208   0.796
  374SOL    MW4 1528   2.456   2.282   0.841
  375SOL     OW 1529   2.234   2.427   0.738
  375SOL    HW2 1530   2.289   2.371   0.792
  375SOL    HW3 1531   2.148   2.385   0.740
  375SOL    MW4 1532   2.229   2.414   0.746
  376SOL     OW 1533   2.248   2.718   0.805
  376SOL    HW2 1534   2.234   2.733   0.898
  376SOL    HW3 1535   2.246   2.623   0.796
  376SOL    MW4 1536   2.246   2.708   0.816
  377SOL     OW 1537   2.518   2.846   0.760
  377SOL    HW2 1538   2.592   2.791   0.787
  377SOL    HW3 1539   2.441   2.792   0.777
  377SOL    MW4 1540   2.517   2.832   0.766
  378SOL     OW 1541   2.454   3.108   0.816
  378SOL    HW2 1542   2.452   3.116   0.912
  378SOL    HW3 1543   2.477   3.017   0.801
  378SOL    MW4 1544   2.457   3.097   0.827
  379SOL     OW 1545   2.249   3.260   0.739
  379SOL    HW2 1546   2.176   3.202   0.759
  379SOL    HW3 1547   2.327   3.206   0.749
  379SOL    MW4 1548   2.250   3.245   0.743
  380SOL     OW 1549   2.291   3.514   0.822
  380SOL    HW2 1550   2.290   3.428   0.781
  380SOL    HW3 1551   2.218   3.561   0.783
  380SOL    MW4 1552   2.281   3.509   0.812
  381SOL     OW 1553   2.510   3.649   0.728
  381SOL    HW2 1554   2.577   3.597   0.772
  381SOL    HW3 1555   2.428   3.604   0.749
  381SOL    MW4 1556   2.508   3.636   0.737
  382SOL     OW 1557   2.482   3.919   0.808
  382SOL    HW2 1558   2.401   3.937   0.759
  382SOL    HW3 1559   2.501   3.827   0.790
  382SOL    MW4 1560   2.474   3.909   0.799
  383SOL     OW 1561   2.241   4.011   0.695
  383SOL    HW2 1562   2.163   3.974   0.737
  383SOL    HW3 1563   2.217   4.019   0.603
  383SOL    MW4 1564   2.228   4.007   0.689
  384SOL     OW 1565   2.319   4.253   0.849
  384SOL    HW2 1566   2.306   4.173   0.797
  384SOL    HW3 1567   2.259   4.317   0.810
  384SOL    MW4 1568   2.310   4.251   0.837
  385SOL     OW 1569   2.529   4.413   0.795
  385SOL    HW2 1570   2.465   4.352   0.832
  385SOL    HW3 1571   2.493   4.500   0.815
  385SOL    MW4 1572   2.516   4.416   0.802
  386SOL     OW 1573   2.923   4.656   0.851
  386SOL    HW2 1574   2.890   4.566   0.843
  386SOL    HW3 1575   2.850   4.710   0.822
  386SOL    MW4 1576   2.909   4.651   0.846
  387SOL     OW 1577   2.709   4.504   0.491
  387SOL    HW2 1578   2.804   4.507   0.490
  387SOL    HW3 1579   2.682   4.588   0.528
  387SOL    MW4 1580   2.718   4.515   0.496
  388SOL     OW 1581   2.698   0.420   0.892
  388SOL    HW2 1582   2.706   0.433   0.986
  388SOL    HW3 1583   2.777   0.459   0.855
  388SOL    MW4 1584   2.709   0.427   0.899
  389SOL     OW 1585   2.919   0.510   0.758
  389SOL    HW2 1586   3.009   0.484   0.780
  389SOL    HW3 1587   2.906   0.477   0.669
  389SOL    MW4 1588   2.929   0.502   0.749
  390SOL     OW 1589   2.858   0.789   0.850
  390SOL    HW2 1590   2.894   0.795   0.938
  390SOL    HW3 1591   2.883   0.702   0.819
  390SOL    MW4 1592   2.866   0.778   0.858
  391SOL     OW 1593   2.542   0.748   0.832
  391SOL    HW2 1594   2.634   0.743   0.808
  391SOL    HW3 1595   2.504   0.666   0.799
  391SOL    MW4 1596   2.549   0.736   0.824
  392SOL     OW 1597   2.694   1.126   0.875
  392SOL    HW2 1598   2.655   1.039   0.889
  392SOL    HW3 1599   2.619   1.184   0.866
  392SOL    MW4 1600   2.679   1.122   0.875
  393SOL     OW 1601   2.909   1.257   0.805
  393SOL    HW2 1602   2.997   1.219   0.818
  393SOL    HW3 1603   2.849   1.185   0.823
  393SOL    MW4 1604   2.913   1.242   0.809
  394SOL     OW 1605   2.908   1.481   0.940
  394SOL    HW2 1606   2.987   1.527   0.913
  394SOL    HW3 1607   2.909   1.400   0.889
  394SOL    MW4 1608   2.919   1.476   0.930
  395SOL     OW 1609   2.715   1.645   0.832
  395SOL    HW2 1610   2.738   1.735   0.855
  395SOL    HW3 1611   2.786   1.593   0.868
  395SOL    MW4 1612   2.727   1.650   0.840
  396SOL     OW 1613   2.752   1.918   0.821
  396SOL    HW2 1614   2.733   1.926   0.915
  396SOL    HW3 1615   2.668   1.935   0.778
  396SOL    MW4 1616   2.738   1.922   0.828
  397SOL     OW 1617   2.938   2.079   0.691
  397SOL    HW2 1618   2.959   2.149   0.754
  397SOL    HW3 1619   2.875   2.023   0.737
  397SOL    MW4 1620   2.933   2.081   0.706
  398SOL     OW 1621   2.903   2.298   0.846
  398SOL    HW2 1622   2.906   2.312   0.940
  398SOL    HW3 1623   2.813   2.320   0.821
  398SOL    MW4 1624   2.891   2.303   0.855
  399SOL     OW 1625   2.662   2.426   0.749
  399SOL    HW2 1626   2.661   2.449   0.657
  399SOL    HW3 1627   2.689   2.505   0.795
  399SOL    MW4 1628   2.665   2.439   0.743
  400SOL     OW 1629   2.706   2.659   0.877
  400SOL    HW2 1630   2.691   2.683   0.968
  400SOL    HW3 1631   2.791   2.698   0.855
  400SOL    MW4 1632   2.715   2.668   0.886
  401SOL     OW 1633   2.920   2.736   0.500
  401SOL    HW2 1634   2.962   2.653   0.476
  401SOL    HW3 1635   2.837   2.735   0.452
  401SOL    MW4 1636   2.915   2.725   0.490
  402SOL     OW 1637   2.949   3.049   0.869
  402SOL    HW2 1638   2.868   3.091   0.842
  402SOL    HW3 1639   2.935   2.956   0.850
  402SOL    MW4 1640   2.937   3.042   0.863
  403SOL     OW 1641   2.722   3.186   0.766
  403SOL    HW2 1642   2.727   3.278   0.791
  403SOL    HW3 1643   2.633   3.159   0.788
  403SOL    MW4 1644   2.711   3.194   0.772
  404SOL     OW 1645   2.712   3.465   0.836
  404SOL    HW2 1646   2.718   3.468   0.931
  404SOL    HW3 1647   2.786   3.519   0.806
  404SOL    MW4 1648   2.723   3.472   0.845
  405SOL     OW 1649   2.916   3.639   0.734
  405SOL    HW2 1650   2.901   3.728   0.765
  405SOL    HW3 1651   2.911   3.646   0.638
  405SOL    MW4 1652   2.913   3.651   0.725
  406SOL     OW 1653   2.900   3.901   0.804
  406SOL    HW2 1654   2.914   3.898   0.899
  406SOL    HW3 1655   2.822   3.955   0.793
  406SOL    MW4 1656   2.892   3.908   0.815
  407SOL     OW 1657   2.668   4.120   0.804
  407SOL    HW2 1658   2.687   4.156   0.891
  407SOL    HW3 1659   2.592   4.063   0.818
  407SOL    MW4 1660   2.661   4.117   0.818
  408SOL     OW 1661   2.836   4.390   0.820
  408SOL    HW2 1662   2.797   4.363   0.903
  408SOL    HW3 1663   2.925   4.354   0.822
  408SOL    MW4 1664   2.843   4.382   0.831
  409SOL     OW 1665   3.061   4.247   0.490
  409SOL    HW2 1666   3.147   4.288   0.496
  409SOL    HW3 1667   3.072   4.160   0.529
  409SOL    MW4 1668   3.074   4.241   0.496
  410SOL     OW 1669   3.371   4.606   0.843
  410SOL    HW2 1670   3.346   4.632   0.932
  410SOL    HW3 1671   3.307   4.648   0.786
  410SOL    MW4 1672   3.359   4.615   0.848
  411SOL     OW 1673   3.164   0.055   0.705
  411SOL    HW2 1674   3.170   0.144   0.740
  411SOL    HW3 1675   3.092   0.015   0.753
  411SOL    MW4 1676   3.156   0.062   0.716
  412SOL     OW 1677   3.155   0.340   0.823
  412SOL    HW2 1678   3.146   0.351   0.917
  412SOL    HW3 1679   3.244   0.371   0.803
  412SOL    MW4 1680   3.166   0.345   0.833
  413SOL     OW 1681   3.466   0.428   0.765
  413SOL    HW2 1682   3.545   0.390   0.805
  413SOL    HW3 1683   3.492   0.445   0.674
  413SOL    MW4 1684   3.480   0.425   0.758
  414SOL     OW 1685   3.407   0.679   0.855
  414SOL    HW2 1686   3.342   0.695   0.786
  414SOL    HW3 1687   3.429   0.587   0.845
  414SOL    MW4 1688   3.401   0.669   0.844
  415SOL     OW 1689   3.040   0.945   0.691
  415SOL    HW2 1690   3.066   1.017   0.749
  415SOL    HW3 1691   2.979   0.893   0.743
  415SOL    MW4 1692   3.035   0.948   0.706
  416SOL     OW 1693   3.131   1.136   0.866
  416SOL    HW2 1694   3.154   1.149   0.958
  416SOL    HW3 1695   3.203   1.177   0.818
  416SOL    MW4 1696   3.144   1.143   0.872
  417SOL     OW 1697   3.353   1.232   0.746
  417SOL    HW2 1698   3.420   1.204   0.808
  417SOL    HW3 1699   3.337   1.323   0.767
  417SOL    MW4 1700   3.359   1.240   0.757
  418SOL     OW 1701   3.366   1.495   0.810
  418SOL    HW2 1702   3.380   1.504   0.904
  418SOL    HW3 1703   3.449   1.519   0.770
  418SOL    MW4 1704   3.379   1.499   0.817
  419SOL     OW 1705   3.120   1.624   0.797
  419SOL    HW2 1706   3.202   1.577   0.810
  419SOL    HW3 1707   3.117   1.643   0.703
  419SOL    MW4 1708   3.130   1.620   0.786
  420SOL     OW 1709   3.250   1.892   0.833
  420SOL    HW2 1710   3.174   1.925   0.882
  420SOL    HW3 1711   3.237   1.798   0.829
  420SOL    MW4 1712   3.239   1.884   0.839
  421SOL     OW 1713   3.518   1.966   0.882
  421SOL    HW2 1714   3.506   2.059   0.860
  421SOL    HW3 1715   3.434   1.926   0.860
  421SOL    MW4 1716   3.505   1.973   0.876
  422SOL     OW 1717   3.469   2.246   0.835
  422SOL    HW2 1718   3.438   2.284   0.917
  422SOL    HW3 1719   3.545   2.299   0.812
  422SOL    MW4 1720   3.475   2.258   0.843
  423SOL     OW 1721   3.121   2.454   0.712
  423SOL    HW2 1722   3.196   2.397   0.691
  423SOL    HW3 1723   3.057   2.394   0.751
  423SOL    MW4 1724   3.123   2.438   0.714
  424SOL     OW 1725   3.197   2.694   0.845
  424SOL    HW2 1726   3.196   2.612   0.796
  424SOL    HW3 1727   3.236   2.758   0.786
  424SOL    MW4 1728   3.202   2.691   0.831
  425SOL     OW 1729   3.350   2.897   0.699
  425SOL    HW2 1730   3.285   2.906   0.630
  425SOL    HW3 1731   3.418   2.841   0.661
  425SOL    MW4 1732   3.351   2.891   0.685
  426SOL     OW 1733   3.412   3.145   0.824
  426SOL    HW2 1734   3.399   3.149   0.919
  426SOL    HW3 1735   3.392   3.054   0.801
  426SOL    MW4 1736   3.407   3.134   0.834
  427SOL     OW 1737   3.133   3.224   0.746
  427SOL    HW2 1738   3.211   3.190   0.790
  427SOL    HW3 1739   3.061   3.177   0.788
  427SOL    MW4 1740   3.134   3.213   0.758
  428SOL     OW 1741   3.188   3.518   0.757
  428SOL    HW2 1742   3.162   3.427   0.743
  428SOL    HW3 1743   3.105   3.567   0.753
  428SOL    MW4 1744   3.173   3.513   0.755
  429SOL     OW 1745   3.340   4.299   0.513
  429SOL    HW2 1746   3.344   4.218   0.462
  429SOL    HW3 1747   3.421   4.345   0.491
  429SOL    MW4 1748   3.351   4.295   0.503
  430SOL     OW 1749   3.504   3.980   0.831
  430SOL    HW2 1750   3.525   4.074   0.833
  430SOL    HW3 1751   3.452   3.966   0.910
  430SOL    MW4 1752   3.500   3.991   0.842
  431SOL     OW 1753   3.113   4.008   0.640
  431SOL    HW2 1754   3.144   3.948   0.571
  431SOL    HW3 1755   3.046   3.958   0.686
  431SOL    MW4 1756   3.108   3.993   0.637
  432SOL     OW 1757   3.095   4.232   0.839
  432SOL    HW2 1758   3.179   4.277   0.830
  432SOL    HW3 1759   3.106   4.153   0.787
  432SOL    MW4 1760   3.108   4.228   0.831
  433SOL     OW 1761   3.344   4.334   0.781
  433SOL    HW2 1762   3.361   4.422   0.812
  433SOL    HW3 1763   3.353   4.340   0.685
  433SOL    MW4 1764   3.347   4.346   0.772
  434SOL     OW 1765   3.937   0.025   0.850
  434SOL    HW2 1766   3.916   0.116   0.828
  434SOL    HW3 1767   3.925  -0.022   0.768
  434SOL    MW4 1768   3.933   0.031   0.836
  435SOL     OW 1769   3.616   0.036   0.741
  435SOL    HW2 1770   3.532  -0.004   0.764
  435SOL    HW3 1771   3.608   0.057   0.648
  435SOL    MW4 1772   3.604   0.034   0.732
  436SOL     OW 1773   3.665   0.298   0.895
  436SOL    HW2 1774   3.626   0.298   0.982
  436SOL    HW3 1775   3.659   0.207   0.866
  436SOL    MW4 1776   3.659   0.286   0.902
  437SOL     OW 1777   3.783   0.365   0.482
  437SOL    HW2 1778   3.826   0.417   0.550
  437SOL    HW3 1779   3.690   0.387   0.491
  437SOL    MW4 1780   3.776   0.375   0.493
  438SOL     OW 1781   3.829   0.778   0.820
  438SOL    HW2 1782   3.833   0.773   0.915
  438SOL    HW3 1783   3.897   0.841   0.796
  438SOL    MW4 1784   3.839   0.785   0.829
  439SOL     OW 1785   3.573   0.884   0.797
  439SOL    HW2 1786   3.666   0.861   0.804
  439SOL    HW3 1787   3.527   0.805   0.826
  439SOL    MW4 1788   3.579   0.870   0.802
  440SOL     OW 1789   3.552   1.136   0.898
  440SOL    HW2 1790   3.564   1.134   0.993
  440SOL    HW3 1791   3.556   1.044   0.872
  440SOL    MW4 1792   3.554   1.123   0.907
  441SOL     OW 1793   3.771   1.249   0.778
  441SOL    HW2 1794   3.696   1.214   0.826
  441SOL    HW3 1795   3.745   1.245   0.686
  441SOL    MW4 1796   3.758   1.244   0.772
  442SOL     OW 1797   3.858   1.499   0.886
  442SOL    HW2 1798   3.926   1.525   0.824
  442SOL    HW3 1799   3.833   1.411   0.860
  442SOL    MW4 1800   3.864   1.491   0.875
  443SOL     OW 1801   3.625   1.598   0.743
  443SOL    HW2 1802   3.627   1.688   0.712
  443SOL    HW3 1803   3.710   1.586   0.786
  443SOL    MW4 1804   3.637   1.608   0.745
  444SOL     OW 1805   3.911   1.930   0.620
  444SOL    HW2 1806   3.959   1.917   0.702
  444SOL    HW3 1807   3.825   1.890   0.636
  444SOL    MW4 1808   3.906   1.923   0.633
  445SOL     OW 1809   3.839   2.209   0.591
  445SOL    HW2 1810   3.779   2.257   0.647
  445SOL    HW3 1811   3.842   2.121   0.629
  445SOL    MW4 1812   3.831   2.204   0.603
  446SOL     OW 1813   4.065   1.554   0.445
  446SOL    HW2 1814   3.969   1.550   0.440
  446SOL    HW3 1815   4.086   1.645   0.427
  446SOL    MW4 1816   4.055   1.565   0.442
  447SOL     OW 1817   3.706   2.376   0.778
  447SOL    HW2 1818   3.698   2.471   0.782
  447SOL    HW3 1819   3.760   2.353   0.853
  447SOL    MW4 1820   3.712   2.385   0.788
  448SOL     OW 1821   3.646   2.653   0.834
  448SOL    HW2 1822   3.610   2.679   0.919
  448SOL    HW3 1823   3.724   2.707   0.824
  448SOL    MW4 1824   3.651   2.663   0.844
  449SOL     OW 1825   3.809   2.863   0.754
  449SOL    HW2 1826   3.767   2.930   0.808
  449SOL    HW3 1827   3.820   2.905   0.669
  449SOL    MW4 1828   3.805   2.878   0.750
  450SOL     OW 1829   3.707   3.102   0.868
  450SOL    HW2 1830   3.734   3.168   0.804
  450SOL    HW3 1831   3.613   3.094   0.857
  450SOL    MW4 1832   3.698   3.110   0.858
  451SOL     OW 1833   3.415   3.583   0.628
  451SOL    HW2 1834   3.432   3.516   0.561
  451SOL    HW3 1835   3.329   3.562   0.663
  451SOL    MW4 1836   3.406   3.572   0.624
  452SOL     OW 1837   3.610   3.491   0.807
  452SOL    HW2 1838   3.673   3.438   0.758
  452SOL    HW3 1839   3.541   3.510   0.743
  452SOL    MW4 1840   3.609   3.486   0.792
  453SOL     OW 1841   3.886   3.670   0.632
  453SOL    HW2 1842   3.816   3.706   0.687
  453SOL    HW3 1843   3.943   3.623   0.693
  453SOL    MW4 1844   3.884   3.668   0.647
  454SOL     OW 1845   3.691   3.764   0.830
  454SOL    HW2 1846   3.624   3.829   0.814
  454SOL    HW3 1847   3.646   3.680   0.824
  454SOL    MW4 1848   3.677   3.761   0.827
  455SOL     OW 1849   2.669   4.204   0.210
  455SOL    HW2 1850   2.631   4.290   0.195
  455SOL    HW3 1851   2.700   4.207   0.301
  455SOL    MW4 1852   2.668   4.216   0.220
  456SOL     OW 1853   3.603   4.251   0.849
  456SOL    HW2 1854   3.653   4.319   0.803
  456SOL    HW3 1855   3.512   4.271   0.830
  456SOL    MW4 1856   3.598   4.263   0.840
  457SOL     OW 1857   4.057   4.235   0.793
  457SOL    HW2 1858   3.988   4.229   0.726
  457SOL    HW3 1859   4.127   4.285   0.750
  457SOL    MW4 1860   4.057   4.241   0.778
  458SOL     OW 1861   4.212   0.025   0.833
  458SOL    HW2 1862   4.232   0.018   0.926
  458SOL    HW3 1863   4.116   0.023   0.828
  458SOL    MW4 1864   4.202   0.024   0.844
  459SOL     OW 1865   3.932   0.324   0.856
  459SOL    HW2 1866   3.939   0.393   0.790
  459SOL    HW3 1867   3.838   0.308   0.865
  459SOL    MW4 1868   3.921   0.331   0.848
  460SOL     OW 1869   3.933   0.544   0.679
  460SOL    HW2 1870   4.028   0.554   0.681
  460SOL    HW3 1871   3.900   0.624   0.721
  460SOL    MW4 1872   3.941   0.556   0.685
  461SOL     OW 1873   4.226   0.567   0.681
  461SOL    HW2 1874   4.272   0.572   0.598
  461SOL    HW3 1875   4.268   0.496   0.728
  461SOL    MW4 1876   4.237   0.559   0.676
  462SOL     OW 1877   4.276   0.799   0.815
  462SOL    HW2 1878   4.192   0.842   0.800
  462SOL    HW3 1879   4.269   0.717   0.765
  462SOL    MW4 1880   4.264   0.794   0.806
  463SOL     OW 1881   4.039   0.949   0.764
  463SOL    HW2 1882   4.016   1.029   0.811
  463SOL    HW3 1883   4.026   0.971   0.672
  463SOL    MW4 1884   4.034   0.963   0.758
  464SOL     OW 1885   4.045   1.214   0.845
  464SOL    HW2 1886   4.042   1.226   0.940
  464SOL    HW3 1887   3.956   1.231   0.816
  464SOL    MW4 1888   4.033   1.218   0.854
  465SOL     OW 1889   4.270   1.244   0.704
  465SOL    HW2 1890   4.197   1.221   0.762
  465SOL    HW3 1891   4.348   1.215   0.751
  465SOL    MW4 1892   4.271   1.237   0.718
  466SOL     OW 1893   4.315   1.506   0.851
  466SOL    HW2 1894   4.288   1.534   0.939
  466SOL    HW3 1895   4.303   1.411   0.852
  466SOL    MW4 1896   4.310   1.497   0.863
  467SOL     OW 1897   4.059   1.586   0.737
  467SOL    HW2 1898   4.148   1.573   0.768
  467SOL    HW3 1899   4.064   1.574   0.642
  467SOL    MW4 1900   4.071   1.583   0.729
  468SOL     OW 1901   4.040   1.862   0.843
  468SOL    HW2 1902   4.045   1.770   0.816
  468SOL    HW3 1903   4.130   1.894   0.839
  468SOL    MW4 1904   4.052   1.854   0.839
  469SOL     OW 1905   4.293   1.985   0.773
  469SOL    HW2 1906   4.366   1.946   0.820
  469SOL    HW3 1907   4.306   1.959   0.682
  469SOL    MW4 1908   4.304   1.977   0.767
  470SOL     OW 1909   4.284   2.257   0.797
  470SOL    HW2 1910   4.198   2.290   0.771
  470SOL    HW3 1911   4.275   2.162   0.794
  470SOL    MW4 1912   4.272   2.249   0.793
  471SOL     OW 1913   4.049   2.580   0.587
  471SOL    HW2 1914   4.051   2.618   0.675
  471SOL    HW3 1915   3.979   2.627   0.542
  471SOL    MW4 1916   4.040   2.591   0.593
  472SOL     OW 1917   4.050   2.741   0.807
  472SOL    HW2 1918   4.112   2.808   0.778
  472SOL    HW3 1919   3.965   2.784   0.805
  472SOL    MW4 1920   4.047   2.755   0.803
  473SOL     OW 1921   4.269   2.877   0.722
  473SOL    HW2 1922   4.336   2.838   0.777
  473SOL    HW3 1923   4.286   2.843   0.634
  473SOL    MW4 1924   4.280   2.867   0.717
  474SOL     OW 1925   4.276   3.138   0.814
  474SOL    HW2 1926   4.273   3.046   0.788
  474SOL    HW3 1927   4.359   3.170   0.779
  474SOL    MW4 1928   4.287   3.130   0.806
  475SOL     OW 1929   4.081   3.307   0.695
  475SOL    HW2 1930   4.066   3.375   0.761
  475SOL    HW3 1931   4.122   3.236   0.744
  475SOL    MW4 1932   4.085   3.307   0.711
  476SOL     OW 1933   4.050   3.535   0.830
  476SOL    HW2 1934   4.051   3.527   0.925
  476SOL    HW3 1935   4.140   3.555   0.806
  476SOL    MW4 1936   4.062   3.536   0.839
  477SOL     OW 1937   4.316   3.611   0.738
  477SOL    HW2 1938   4.342   3.703   0.737
  477SOL    HW3 1939   4.316   3.585   0.645
  477SOL    MW4 1940   4.320   3.619   0.725
  478SOL     OW 1941   4.403   3.877   0.769
  478SOL    HW2 1942   4.403   3.869   0.864
  478SOL    HW3 1943   4.325   3.927   0.748
  478SOL    MW4 1944   4.393   3.883   0.779
  479SOL     OW 1945   3.946   3.927   0.525
  479SOL    HW2 1946   3.929   3.847   0.575
  479SOL    HW3 1947   3.961   3.896   0.436
  479SOL    MW4 1948   3.946   3.912   0.520
  480SOL     OW 1949   4.166   4.013   0.678
  480SOL    HW2 1950   4.118   4.072   0.736
  480SOL    HW3 1951   4.098   3.974   0.623
  480SOL    MW4 1952   4.151   4.015   0.678
  481SOL     OW 1953   4.259   4.413   0.714
  481SOL    HW2 1954   4.246   4.491   0.767
  481SOL    HW3 1955   4.338   4.372   0.750
  481SOL    MW4 1956   4.268   4.418   0.725
  482SOL     OW 1957   0.193   4.575   1.070
  482SOL    HW2 1958   0.262   4.624   1.114
  482SOL    HW3 1959   0.210   4.588   0.976
  482SOL    MW4 1960   0.204   4.583   1.063
  483SOL     OW 1961   0.026   0.127   1.163
  483SOL    HW2 1962  -0.055   0.078   1.147
  483SOL    HW3 1963   0.093   0.078   1.115
  483SOL    MW4 1964   0.024   0.114   1.155
  484SOL     OW 1965   4.470   0.384   1.085
  484SOL    HW2 1966   4.398   0.414   1.141
  484SOL    HW3 1967   4.478   0.290   1.105
  484SOL    MW4 1968   4.461   0.375   1.095
  485SOL     OW 1969   0.216   0.461   1.194
  485SOL    HW2 1970   0.204   0.554   1.176
  485SOL    HW3 1971   0.139   0.418   1.158
  485SOL    MW4 1972   0.205   0.468   1.187
  486SOL     OW 1973   0.229   0.737   1.114
  486SOL    HW2 1974   0.302   0.785   1.152
  486SOL    HW3 1975   0.151   0.783   1.146
  486SOL    MW4 1976   0.228   0.749   1.123
  487SOL     OW 1977   0.019   0.894   1.219
  487SOL    HW2 1978   0.010   0.910   1.313
  487SOL    HW3 1979  -0.060   0.847   1.195
  487SOL    MW4 1980   0.008   0.890   1.228
  488SOL     OW 1981   0.022   1.163   1.142
  488SOL    HW2 1982  -0.042   1.217   1.189
  488SOL    HW3 1983   0.023   1.080   1.190
  488SOL    MW4 1984   0.013   1.159   1.155
  489SOL     OW 1985   0.266   1.297   1.245
  489SOL    HW2 1986   0.343   1.249   1.215
  489SOL    HW3 1987   0.192   1.251   1.204
  489SOL    MW4 1988   0.267   1.285   1.236
  490SOL     OW 1989   0.247   1.532   1.114
  490SOL    HW2 1990   0.247   1.447   1.157
  490SOL    HW3 1991   0.262   1.512   1.021
  490SOL    MW4 1992   0.249   1.518   1.107
  491SOL     OW 1993   0.010   1.673   1.178
  491SOL    HW2 1994   0.034   1.765   1.184
  491SOL    HW3 1995   0.092   1.628   1.154
  491SOL    MW4 1996   0.024   1.679   1.176
  492SOL     OW 1997   0.053   1.948   1.166
  492SOL    HW2 1998  -0.028   1.987   1.198
  492SOL    HW3 1999   0.039   1.935   1.072
  492SOL    MW4 2000   0.040   1.951   1.158
  493SOL     OW 2001   0.297   2.080   1.179
  493SOL    HW2 2002   0.276   2.166   1.143
  493SOL    HW3 2003   0.220   2.027   1.159
  493SOL    MW4 2004   0.284   2.084   1.171
  494SOL     OW 2005   0.238   2.348   1.099
  494SOL    HW2 2006   0.317   2.349   1.154
  494SOL    HW3 2007   0.175   2.402   1.146
  494SOL    MW4 2008   0.240   2.355   1.112
  495SOL     OW 2009   4.469   2.443   1.217
  495SOL    HW2 2010   4.474   2.445   1.313
  495SOL    HW3 2011   4.437   2.355   1.197
  495SOL    MW4 2012   4.465   2.432   1.227
  496SOL     OW 2013   4.455   2.706   1.128
  496SOL    HW2 2014   4.372   2.740   1.162
  496SOL    HW3 2015   4.450   2.611   1.144
  496SOL    MW4 2016   4.443   2.698   1.135
  497SOL     OW 2017   0.194   2.851   1.193
  497SOL    HW2 2018   0.196   2.876   1.285
  497SOL    HW3 2019   0.117   2.794   1.185
  497SOL    MW4 2020   0.184   2.847   1.204
  498SOL     OW 2021   0.243   3.082   1.058
  498SOL    HW2 2022   0.310   3.112   1.120
  498SOL    HW3 2023   0.213   2.998   1.094
  498SOL    MW4 2024   0.248   3.075   1.071
  499SOL     OW 2025   0.028   3.204   1.187
  499SOL    HW2 2026  -0.043   3.159   1.141
  499SOL    HW3 2027   0.108   3.169   1.149
  499SOL    MW4 2028   0.029   3.194   1.176
  500SOL     OW 2029   0.036   3.473   1.098
  500SOL    HW2 2030   0.033   3.384   1.134
  500SOL    HW3 2031   0.056   3.460   1.005
  500SOL    MW4 2032   0.038   3.460   1.090
  501SOL     OW 2033   0.242   3.591   1.225
  501SOL    HW2 2034   0.234   3.619   1.316
  501SOL    HW3 2035   0.154   3.563   1.200
  501SOL    MW4 2036   0.229   3.591   1.234
  502SOL     OW 2037   0.247   3.844   1.090
  502SOL    HW2 2038   0.168   3.890   1.119
  502SOL    HW3 2039   0.238   3.756   1.126
  502SOL    MW4 2040   0.235   3.839   1.099
  503SOL     OW 2041   0.036   3.986   1.168
  503SOL    HW2 2042   0.038   4.001   1.263
  503SOL    HW3 2043  -0.045   3.937   1.154
  503SOL    MW4 2044   0.026   3.982   1.179
  504SOL     OW 2045   4.482   4.280   1.101
  504SOL    HW2 2046   4.560   4.312   1.148
  504SOL    HW3 2047   4.473   4.189   1.130
  504SOL    MW4 2048   4.491   4.272   1.111
  505SOL     OW 2049   0.242   4.344   1.199
  505SOL    HW2 2050   0.233   4.349   1.294
  505SOL    HW3 2051   0.245   4.436   1.170
  505SOL    MW4 2052   0.241   4.357   1.207
  506SOL     OW 2053   0.609   4.570   1.108
  506SOL    HW2 2054   0.663   4.636   1.152
  506SOL    HW3 2055   0.632   4.488   1.151
  506SOL    MW4 2056   0.619   4.568   1.119
  507SOL     OW 2057   0.389   0.048   1.193
  507SOL    HW2 2058   0.407   0.139   1.169
  507SOL    HW3 2059   0.460  -0.002   1.155
  507SOL    MW4 2060   0.400   0.054   1.185
  508SOL     OW 2061   0.439   0.308   1.111
  508SOL    HW2 2062   0.364   0.363   1.134
  508SOL    HW3 2063   0.447   0.317   1.016
  508SOL    MW4 2064   0.431   0.317   1.101
  509SOL     OW 2065   0.649   0.448   1.258
  509SOL    HW2 2066   0.651   0.537   1.223
  509SOL    HW3 2067   0.572   0.408   1.217
  509SOL    MW4 2068   0.639   0.454   1.248
  510SOL     OW 2069   0.652   0.714   1.147
  510SOL    HW2 2070   0.592   0.772   1.195
  510SOL    HW3 2071   0.630   0.730   1.055
  510SOL    MW4 2072   0.641   0.724   1.141
  511SOL     OW 2073   0.440   0.892   1.217
  511SOL    HW2 2074   0.417   0.900   1.309
  511SOL    HW3 2075   0.447   0.982   1.185
  511SOL    MW4 2076   0.438   0.905   1.225
  512SOL     OW 2077   0.479   1.165   1.125
  512SOL    HW2 2078   0.552   1.217   1.157
  512SOL    HW3 2079   0.495   1.156   1.031
  512SOL    MW4 2080   0.491   1.171   1.117
  513SOL     OW 2081   0.707   1.278   1.210
  513SOL    HW2 2082   0.771   1.221   1.168
  513SOL    HW3 2083   0.730   1.366   1.180
  513SOL    MW4 2084   0.718   1.282   1.200
  514SOL     OW 2085   0.733   1.516   1.063
  514SOL    HW2 2086   0.802   1.567   1.106
  514SOL    HW3 2087   0.652   1.564   1.082
  514SOL    MW4 2088   0.731   1.529   1.072
  515SOL     OW 2089   0.497   1.652   1.151
  515SOL    HW2 2090   0.492   1.676   1.243
  515SOL    HW3 2091   0.420   1.596   1.137
  515SOL    MW4 2092   0.486   1.648   1.161
  516SOL     OW 2093   0.488   1.926   1.072
  516SOL    HW2 2094   0.464   1.834   1.081
  516SOL    HW3 2095   0.415   1.974   1.112
  516SOL    MW4 2096   0.475   1.920   1.079
  517SOL     OW 2097   0.701   2.055   1.192
  517SOL    HW2 2098   0.695   2.051   1.288
  517SOL    HW3 2099   0.625   2.005   1.161
  517SOL    MW4 2100   0.690   2.048   1.201
  518SOL     OW 2101   0.678   2.325   1.114
  518SOL    HW2 2102   0.607   2.371   1.158
  518SOL    HW3 2103   0.672   2.235   1.145
  518SOL    MW4 2104   0.668   2.319   1.124
  519SOL     OW 2105   0.457   2.405   1.257
  519SOL    HW2 2106   0.440   2.402   1.351
  519SOL    HW3 2107   0.452   2.498   1.235
  519SOL    MW4 2108   0.454   2.417   1.267
  520SOL     OW 2109   0.442   2.705   1.174
  520SOL    HW2 2110   0.372   2.765   1.202
  520SOL    HW3 2111   0.443   2.712   1.079
  520SOL    MW4 2112   0.433   2.714   1.165
  521SOL     OW 2113   0.720   2.800   1.223
  521SOL    HW2 2114   0.716   2.895   1.207
  521SOL    HW3 2115   0.630   2.771   1.212
  521SOL    MW4 2116   0.708   2.809   1.219
  522SOL     OW 2117   0.679   3.072   1.221
  522SOL    HW2 2118   0.749   3.135   1.233
  522SOL    HW3 2119   0.670   3.063   1.126
  522SOL    MW4 2120   0.687   3.079   1.210
  523SOL     OW 2121   0.408   3.176   1.245
  523SOL    HW2 2122   0.411   3.267   1.215
  523SOL    HW3 2123   0.499   3.146   1.242
  523SOL    MW4 2124   0.420   3.184   1.241
  524SOL     OW 2125   0.431   3.421   1.126
  524SOL    HW2 2126   0.511   3.468   1.150
  524SOL    HW3 2127   0.361   3.485   1.141
  524SOL    MW4 2128   0.432   3.436   1.131
  525SOL     OW 2129   0.663   3.552   1.167
  525SOL    HW2 2130   0.668   3.570   1.261
  525SOL    HW3 2131   0.656   3.639   1.127
  525SOL    MW4 2132   0.663   3.566   1.174
  526SOL     OW 2133   0.659   3.813   1.092
  526SOL    HW2 2134   0.594   3.865   1.139
  526SOL    HW3 2135   0.637   3.825   1.000
  526SOL    MW4 2136   0.647   3.821   1.086
  527SOL     OW 2137   0.448   3.974   1.224
  527SOL    HW2 2138   0.441   4.056   1.174
  527SOL    HW3 2139   0.372   3.923   1.197
  527SOL    MW4 2140   0.437   3.978   1.214
  528SOL     OW 2141   0.429   4.219   1.070
  528SOL    HW2 2142   0.506   4.238   1.124
  528SOL    HW3 2143   0.358   4.268   1.111
  528SOL    MW4 2144   0.430   4.228   1.082
  529SOL     OW 2145   0.663   4.331   1.223
  529SOL    HW2 2146   0.676   4.346   1.317
  529SOL    HW3 2147   0.749   4.305   1.191
  529SOL    MW4 2148   0.676   4.329   1.231
  530SOL     OW 2149   1.086   4.664   1.071
  530SOL    HW2 2150   1.079   4.579   1.116
  530SOL    HW3 2151   1.102   4.640   0.979
  530SOL    MW4 2152   1.087   4.649   1.065
  531SOL     OW 2153   0.838   0.065   1.209
  531SOL    HW2 2154   0.863   0.085   1.299
  531SOL    HW3 2155   0.921   0.056   1.162
  531SOL    MW4 2156   0.852   0.066   1.214
  532SOL     OW 2157   0.873   0.334   1.141
  532SOL    HW2 2158   0.868   0.241   1.165
  532SOL    HW3 2159   0.795   0.372   1.182
  532SOL    MW4 2160   0.862   0.326   1.150
  533SOL     OW 2161   1.102   0.473   1.198
  533SOL    HW2 2162   1.104   0.490   1.293
  533SOL    HW3 2163   1.020   0.427   1.184
  533SOL    MW4 2164   1.092   0.470   1.209
  534SOL     OW 2165   1.134   0.753   1.093
  534SOL    HW2 2166   1.057   0.796   1.130
  534SOL    HW3 2167   1.131   0.663   1.127
  534SOL    MW4 2168   1.124   0.747   1.103
  535SOL     OW 2169   0.894   0.860   1.198
  535SOL    HW2 2170   0.879   0.945   1.156
  535SOL    HW3 2171   0.811   0.814   1.189
  535SOL    MW4 2172   0.881   0.865   1.191
  536SOL     OW 2173   0.866   1.087   1.047
  536SOL    HW2 2174   0.955   1.114   1.068
  536SOL    HW3 2175   0.862   1.088   0.951
  536SOL    MW4 2176   0.877   1.091   1.037
  537SOL     OW 2177   1.100   1.233   1.151
  537SOL    HW2 2178   1.097   1.224   1.246
  537SOL    HW3 2179   1.187   1.199   1.127
  537SOL    MW4 2180   1.111   1.228   1.160
  538SOL     OW 2181   1.139   1.509   1.072
  538SOL    HW2 2182   1.132   1.419   1.104
  538SOL    HW3 2183   1.134   1.500   0.976
  538SOL    MW4 2184   1.138   1.496   1.063
  539SOL     OW 2185   0.912   1.651   1.204
  539SOL    HW2 2186   0.908   1.739   1.166
  539SOL    HW3 2187   0.992   1.613   1.168
  539SOL    MW4 2188   0.922   1.657   1.194
  540SOL     OW 2189   0.897   1.887   1.058
  540SOL    HW2 2190   0.976   1.924   1.096
  540SOL    HW3 2191   0.825   1.936   1.097
  540SOL    MW4 2192   0.898   1.898   1.068
  541SOL     OW 2193   1.131   1.993   1.188
  541SOL    HW2 2194   1.115   2.003   1.282
  541SOL    HW3 2195   1.137   2.083   1.155
  541SOL    MW4 2196   1.130   2.006   1.196
  542SOL     OW 2197   1.161   2.241   1.087
  542SOL    HW2 2198   1.237   2.275   1.133
  542SOL    HW3 2199   1.091   2.303   1.107
  542SOL    MW4 2200   1.162   2.254   1.096
  543SOL     OW 2201   0.951   2.396   1.145
  543SOL    HW2 2202   0.958   2.416   1.239
  543SOL    HW3 2203   0.859   2.374   1.132
  543SOL    MW4 2204   0.940   2.396   1.156
  544SOL     OW 2205   0.933   2.680   1.049
  544SOL    HW2 2206   0.940   2.587   1.072
  544SOL    HW3 2207   0.862   2.712   1.104
  544SOL    MW4 2208   0.924   2.672   1.059
  545SOL     OW 2209   1.129   2.811   1.183
  545SOL    HW2 2210   1.118   2.788   1.276
  545SOL    HW3 2211   1.069   2.754   1.137
  545SOL    MW4 2212   1.120   2.801   1.189
  546SOL     OW 2213   1.110   3.106   1.084
  546SOL    HW2 2214   1.119   3.011   1.099
  546SOL    HW3 2215   1.069   3.112   0.998
  546SOL    MW4 2216   1.106   3.094   1.074
  547SOL     OW 2217   0.912   3.242   1.239
  547SOL    HW2 2218   0.926   3.331   1.208
  547SOL    HW3 2219   0.988   3.193   1.208
  547SOL    MW4 2220   0.924   3.247   1.231
  548SOL     OW 2221   0.949   3.493   1.113
  548SOL    HW2 2222   0.864   3.535   1.107
  548SOL    HW3 2223   0.964   3.456   1.026
  548SOL    MW4 2224   0.940   3.494   1.101
  549SOL     OW 2225   1.177   3.623   1.177
  549SOL    HW2 2226   1.252   3.566   1.161
  549SOL    HW3 2227   1.101   3.569   1.155
  549SOL    MW4 2228   1.177   3.608   1.172
  550SOL     OW 2229   1.151   3.867   1.072
  550SOL    HW2 2230   1.062   3.892   1.098
  550SOL    HW3 2231   1.162   3.778   1.105
  550SOL    MW4 2232   1.140   3.859   1.080
  551SOL     OW 2233   0.891   3.963   1.180
  551SOL    HW2 2234   0.891   3.968   1.275
  551SOL    HW3 2235   0.812   3.913   1.159
  551SOL    MW4 2236   0.880   3.957   1.189
  552SOL     OW 2237   0.901   4.234   1.092
  552SOL    HW2 2238   0.908   4.149   1.135
  552SOL    HW3 2239   0.892   4.213   0.999
  552SOL    MW4 2240   0.901   4.220   1.085
  553SOL     OW 2241   1.114   4.420   1.188
  553SOL    HW2 2242   1.141   4.400   1.278
  553SOL    HW3 2243   1.052   4.351   1.165
  553SOL    MW4 2244   1.110   4.408   1.197
  554SOL     OW 2245   1.541   4.618   1.132
  554SOL    HW2 2246   1.609   4.667   1.179
  554SOL    HW3 2247   1.542   4.532   1.174
  554SOL    MW4 2248   1.550   4.613   1.144
  555SOL     OW 2249   1.302   0.106   1.184
  555SOL    HW2 2250   1.377   0.045   1.180
  555SOL    HW3 2251   1.227   0.053   1.156
  555SOL    MW4 2252   1.302   0.091   1.180
  556SOL     OW 2253   1.336   0.387   1.121
  556SOL    HW2 2254   1.326   0.292   1.132
  556SOL    HW3 2255   1.252   0.424   1.147
  556SOL    MW4 2256   1.324   0.379   1.126
  557SOL     OW 2257   1.537   0.481   1.264
  557SOL    HW2 2258   1.535   0.574   1.240
  557SOL    HW3 2259   1.468   0.441   1.212
  557SOL    MW4 2260   1.528   0.488   1.254
  558SOL     OW 2261   1.552   0.729   1.150
  558SOL    HW2 2262   1.635   0.762   1.186
  558SOL    HW3 2263   1.567   0.726   1.055
  558SOL    MW4 2264   1.565   0.733   1.142
  559SOL     OW 2265   1.343   0.887   1.184
  559SOL    HW2 2266   1.420   0.831   1.175
  559SOL    HW3 2267   1.270   0.832   1.156
  559SOL    MW4 2268   1.343   0.872   1.179
  560SOL     OW 2269   1.357   1.148   1.094
  560SOL    HW2 2270   1.356   1.061   1.134
  560SOL    HW3 2271   1.334   1.134   1.003
  560SOL    MW4 2272   1.354   1.135   1.088
  561SOL     OW 2273   1.573   1.294   1.199
  561SOL    HW2 2274   1.657   1.250   1.194
  561SOL    HW3 2275   1.512   1.235   1.155
  561SOL    MW4 2276   1.576   1.280   1.192
  562SOL     OW 2277   1.615   1.555   1.061
  562SOL    HW2 2278   1.665   1.597   1.130
  562SOL    HW3 2279   1.618   1.461   1.083
  562SOL    MW4 2280   1.622   1.548   1.073
  563SOL     OW 2281   1.382   1.639   1.162
  563SOL    HW2 2282   1.457   1.589   1.128
  563SOL    HW3 2283   1.305   1.590   1.134
  563SOL    MW4 2284   1.382   1.626   1.154
  564SOL     OW 2285   1.366   1.907   1.075
  564SOL    HW2 2286   1.383   1.817   1.102
  564SOL    HW3 2287   1.285   1.931   1.119
  564SOL    MW4 2288   1.358   1.899   1.084
  565SOL     OW 2289   1.567   2.050   1.181
  565SOL    HW2 2290   1.556   2.142   1.154
  565SOL    HW3 2291   1.481   2.010   1.164
  565SOL    MW4 2292   1.554   2.057   1.175
  566SOL     OW 2293   1.591   2.322   1.094
  566SOL    HW2 2294   1.511   2.368   1.121
  566SOL    HW3 2295   1.578   2.303   1.001
  566SOL    MW4 2296   1.579   2.325   1.085
  567SOL     OW 2297   1.365   2.427   1.180
  567SOL    HW2 2298   1.358   2.426   1.275
  567SOL    HW3 2299   1.371   2.520   1.157
  567SOL    MW4 2300   1.365   2.439   1.189
  568SOL     OW 2301   1.372   2.707   1.108
  568SOL    HW2 2302   1.441   2.759   1.150
  568SOL    HW3 2303   1.291   2.740   1.146
  568SOL    MW4 2304   1.371   2.719   1.118
  569SOL     OW 2305   1.606   2.846   1.177
  569SOL    HW2 2306   1.682   2.795   1.150
  569SOL    HW3 2307   1.621   2.933   1.138
  569SOL    MW4 2308   1.618   2.851   1.168
  570SOL     OW 2309   1.598   3.101   1.075
  570SOL    HW2 2310   1.662   3.158   1.119
  570SOL    HW3 2311   1.515   3.121   1.118
  570SOL    MW4 2312   1.596   3.111   1.087
  571SOL     OW 2313   1.361   3.202   1.186
  571SOL    HW2 2314   1.336   3.224   1.276
  571SOL    HW3 2315   1.280   3.172   1.145
  571SOL    MW4 2316   1.347   3.201   1.192
  572SOL     OW 2317   1.385   3.466   1.107
  572SOL    HW2 2318   1.365   3.373   1.118
  572SOL    HW3 2319   1.421   3.473   1.019
  572SOL    MW4 2320   1.387   3.455   1.097
  573SOL     OW 2321   1.595   3.638   1.212
  573SOL    HW2 2322   1.577   3.723   1.172
  573SOL    HW3 2323   1.534   3.578   1.168
  573SOL    MW4 2324   1.584   3.641   1.201
  574SOL     OW 2325   1.577   3.904   1.101
  574SOL    HW2 2326   1.500   3.946   1.140
  574SOL    HW3 2327   1.567   3.916   1.007
  574SOL    MW4 2328   1.566   3.911   1.094
  575SOL     OW 2329   1.329   4.028   1.206
  575SOL    HW2 2330   1.321   4.120   1.183
  575SOL    HW3 2331   1.269   3.982   1.147
  575SOL    MW4 2332   1.320   4.034   1.195
  576SOL     OW 2333   1.356   4.282   1.106
  576SOL    HW2 2334   1.280   4.339   1.120
  576SOL    HW3 2335   1.350   4.256   1.014
  576SOL    MW4 2336   1.345   4.286   1.096
  577SOL     OW 2337   1.590   4.338   1.253
  577SOL    HW2 2338   1.590   4.304   1.342
  577SOL    HW3 2339   1.513   4.297   1.212
  577SOL    MW4 2340   1.580   4.328   1.259
  578SOL     OW 2341   1.986   4.661   1.058
  578SOL    HW2 2342   2.001   4.573   1.090
  578SOL    HW3 2343   2.014   4.659   0.967
  578SOL    MW4 2344   1.991   4.649   1.050
  579SOL     OW 2345   1.769   0.078   1.234
  579SOL    HW2 2346   1.757   0.169   1.208
  579SOL    HW3 2347   1.833   0.043   1.172
  579SOL    MW4 2348   1.776   0.085   1.223
  580SOL     OW 2349   1.763   0.356   1.173
  580SOL    HW2 2350   1.688   0.399   1.213
  580SOL    HW3 2351   1.750   0.367   1.079
  580SOL    MW4 2352   1.752   0.363   1.166
  581SOL     OW 2353   2.006   0.470   1.224
  581SOL    HW2 2354   2.007   0.459   1.319
  581SOL    HW3 2355   1.926   0.425   1.195
  581SOL    MW4 2356   1.996   0.462   1.232
  582SOL     OW 2357   2.029   0.745   1.103
  582SOL    HW2 2358   2.027   0.654   1.132
  582SOL    HW3 2359   2.052   0.740   1.010
  582SOL    MW4 2360   2.032   0.732   1.094
  583SOL     OW 2361   1.784   0.870   1.206
  583SOL    HW2 2362   1.798   0.868   1.301
  583SOL    HW3 2363   1.860   0.825   1.170
  583SOL    MW4 2364   1.796   0.864   1.214
  584SOL     OW 2365   1.790   1.143   1.125
  584SOL    HW2 2366   1.786   1.055   1.162
  584SOL    HW3 2367   1.761   1.132   1.034
  584SOL    MW4 2368   1.786   1.130   1.118
  585SOL     OW 2369   1.997   1.321   1.197
  585SOL    HW2 2370   2.082   1.278   1.188
  585SOL    HW3 2371   1.933   1.254   1.173
  585SOL    MW4 2372   1.999   1.306   1.192
  586SOL     OW 2373   2.024   1.575   1.084
  586SOL    HW2 2374   2.012   1.481   1.100
  586SOL    HW3 2375   2.019   1.584   0.988
  586SOL    MW4 2376   2.022   1.564   1.073
  587SOL     OW 2377   1.812   1.687   1.238
  587SOL    HW2 2378   1.800   1.769   1.190
  587SOL    HW3 2379   1.888   1.646   1.197
  587SOL    MW4 2380   1.820   1.693   1.226
  588SOL     OW 2381   1.812   1.924   1.106
  588SOL    HW2 2382   1.728   1.965   1.129
  588SOL    HW3 2383   1.807   1.912   1.011
  588SOL    MW4 2384   1.800   1.927   1.097
  589SOL     OW 2385   2.028   2.051   1.207
  589SOL    HW2 2386   2.015   2.051   1.301
  589SOL    HW3 2387   1.951   2.008   1.171
  589SOL    MW4 2388   2.016   2.046   1.215
  590SOL     OW 2389   2.070   2.298   1.080
  590SOL    HW2 2390   2.140   2.352   1.117
  590SOL    HW3 2391   2.066   2.222   1.138
  590SOL    MW4 2392   2.079   2.295   1.092
  591SOL     OW 2393   1.852   2.442   1.147
  591SOL    HW2 2394   1.920   2.384   1.113
  591SOL    HW3 2395   1.773   2.388   1.151
  591SOL    MW4 2396   1.851   2.428   1.143
  592SOL     OW 2397   1.838   2.725   1.091
  592SOL    HW2 2398   1.853   2.630   1.098
  592SOL    HW3 2399   1.854   2.744   0.999
  592SOL    MW4 2400   1.842   2.715   1.080
  593SOL     OW 2401   2.046   2.866   1.213
  593SOL    HW2 2402   2.057   2.955   1.180
  593SOL    HW3 2403   1.968   2.834   1.169
  593SOL    MW4 2404   2.037   2.874   1.203
  594SOL     OW 2405   2.026   3.110   1.084
  594SOL    HW2 2406   1.943   3.153   1.101
  594SOL    HW3 2407   2.027   3.097   0.989
  594SOL    MW4 2408   2.015   3.114   1.074
  595SOL     OW 2409   1.806   3.253   1.186
  595SOL    HW2 2410   1.792   3.248   1.280
  595SOL    HW3 2411   1.792   3.345   1.164
  595SOL    MW4 2412   1.802   3.265   1.195
  596SOL     OW 2413   1.835   3.533   1.122
  596SOL    HW2 2414   1.902   3.579   1.174
  596SOL    HW3 2415   1.753   3.576   1.146
  596SOL    MW4 2416   1.833   3.545   1.132
  597SOL     OW 2417   2.051   3.656   1.233
  597SOL    HW2 2418   2.062   3.668   1.327
  597SOL    HW3 2419   2.126   3.602   1.207
  597SOL    MW4 2420   2.063   3.650   1.242
  598SOL     OW 2421   2.060   3.901   1.106
  598SOL    HW2 2422   1.981   3.945   1.136
  598SOL    HW3 2423   2.062   3.819   1.155
  598SOL    MW4 2424   2.050   3.896   1.116
  599SOL     OW 2425   1.823   3.993   1.209
  599SOL    HW2 2426   1.815   3.995   1.304
  599SOL    HW3 2427   1.737   3.966   1.178
  599SOL    MW4 2428   1.811   3.990   1.217
  600SOL     OW 2429   1.805   4.262   1.097
  600SOL    HW2 2430   1.822   4.177   1.138
  600SOL    HW3 2431   1.735   4.300   1.150
  600SOL    MW4 2432   1.798   4.256   1.109
  601SOL     OW 2433   2.020   4.407   1.173
  601SOL    HW2 2434   2.032   4.390   1.267
  601SOL    HW3 2435   1.941   4.357   1.150
  601SOL    MW4 2436   2.011   4.398   1.182
  602SOL     OW 2437   2.458   4.653   1.164
  602SOL    HW2 2438   2.523   4.719   1.191
  602SOL    HW3 2439   2.374   4.696   1.178
  602SOL    MW4 2440   2.455   4.668   1.169
  603SOL     OW 2441   2.221   0.103   1.193
  603SOL    HW2 2442   2.219   0.190   1.151
  603SOL    HW3 2443   2.140   0.061   1.164
  603SOL    MW4 2444   2.210   0.109   1.183
  604SOL     OW 2445   2.248   0.353   1.115
  604SOL    HW2 2446   2.170   0.394   1.152
  604SOL    HW3 2447   2.243   0.374   1.021
  604SOL    MW4 2448   2.237   0.362   1.107
  605SOL     OW 2449   2.451   0.493   1.240
  605SOL    HW2 2450   2.443   0.469   1.333
  605SOL    HW3 2451   2.399   0.427   1.194
  605SOL    MW4 2452   2.443   0.481   1.246
  606SOL     OW 2453   2.485   0.744   1.117
  606SOL    HW2 2454   2.471   0.656   1.152
  606SOL    HW3 2455   2.502   0.731   1.024
  606SOL    MW4 2456   2.485   0.731   1.110
  607SOL     OW 2457   2.245   0.911   1.188
  607SOL    HW2 2458   2.321   0.858   1.166
  607SOL    HW3 2459   2.171   0.867   1.147
  607SOL    MW4 2460   2.246   0.898   1.180
  608SOL     OW 2461   2.228   1.175   1.161
  608SOL    HW2 2462   2.319   1.197   1.182
  608SOL    HW3 2463   2.223   1.080   1.167
  608SOL    MW4 2464   2.239   1.166   1.164
  609SOL     OW 2465   2.471   1.269   1.236
  609SOL    HW2 2466   2.560   1.235   1.229
  609SOL    HW3 2467   2.481   1.364   1.225
  609SOL    MW4 2468   2.484   1.277   1.234
  610SOL     OW 2469   2.465   1.539   1.185
  610SOL    HW2 2470   2.391   1.589   1.221
  610SOL    HW3 2471   2.463   1.558   1.091
  610SOL    MW4 2472   2.455   1.548   1.178
  611SOL     OW 2473   2.230   1.657   1.259
  611SOL    HW2 2474   2.236   1.744   1.219
  611SOL    HW3 2475   2.160   1.613   1.210
  611SOL    MW4 2476   2.222   1.662   1.247
  612SOL     OW 2477   2.241   1.899   1.141
  612SOL    HW2 2478   2.158   1.945   1.153
  612SOL    HW3 2479   2.246   1.884   1.046
  612SOL    MW4 2480   2.231   1.903   1.130
  613SOL     OW 2481   2.457   2.063   1.239
  613SOL    HW2 2482   2.535   2.025   1.198
  613SOL    HW3 2483   2.385   2.006   1.210
  613SOL    MW4 2484   2.458   2.051   1.230
  614SOL     OW 2485   2.501   2.302   1.120
  614SOL    HW2 2486   2.471   2.222   1.163
  614SOL    HW3 2487   2.479   2.290   1.028
  614SOL    MW4 2488   2.494   2.290   1.114
  615SOL     OW 2489   2.277   2.446   1.187
  615SOL    HW2 2490   2.281   2.452   1.283
  615SOL    HW3 2491   2.347   2.385   1.164
  615SOL    MW4 2492   2.287   2.439   1.197
  616SOL     OW 2493   2.210   2.706   1.077
  616SOL    HW2 2494   2.221   2.619   1.113
  616SOL    HW3 2495   2.152   2.751   1.139
  616SOL    MW4 2496   2.203   2.701   1.090
  617SOL     OW 2497   2.434   2.838   1.168
  617SOL    HW2 2498   2.421   2.833   1.262
  617SOL    HW3 2499   2.361   2.788   1.130
  617SOL    MW4 2500   2.423   2.831   1.175
  618SOL     OW 2501   2.436   3.108   1.090
  618SOL    HW2 2502   2.367   3.153   1.138
  618SOL    HW3 2503   2.428   3.016   1.117
  618SOL    MW4 2504   2.426   3.102   1.100
  619SOL     OW 2505   2.247   3.252   1.212
  619SOL    HW2 2506   2.257   3.343   1.184
  619SOL    HW3 2507   2.177   3.217   1.156
  619SOL    MW4 2508   2.239   3.260   1.201
  620SOL     OW 2509   2.283   3.511   1.124
  620SOL    HW2 2510   2.363   3.548   1.162
  620SOL    HW3 2511   2.303   3.501   1.031
  620SOL    MW4 2512   2.297   3.514   1.117
  621SOL     OW 2513   2.528   3.642   1.189
  621SOL    HW2 2514   2.519   3.656   1.283
  621SOL    HW3 2515   2.556   3.727   1.155
  621SOL    MW4 2516   2.531   3.655   1.197
  622SOL     OW 2517   2.490   3.929   1.095
  622SOL    HW2 2518   2.408   3.946   1.142
  622SOL    HW3 2519   2.467   3.933   1.002
  622SOL    MW4 2520   2.476   3.932   1.089
  623SOL     OW 2521   2.267   4.017   1.235
  623SOL    HW2 2522   2.274   4.102   1.192
  623SOL    HW3 2523   2.200   3.970   1.185
  623SOL    MW4 2524   2.259   4.022   1.223
  624SOL     OW 2525   2.281   4.265   1.115
  624SOL    HW2 2526   2.193   4.296   1.136
  624SOL    HW3 2527   2.282   4.260   1.019
  624SOL    MW4 2528   2.270   4.268   1.105
  625SOL     OW 2529   2.501   4.369   1.211
  625SOL    HW2 2530   2.424   4.326   1.175
  625SOL    HW3 2531   2.491   4.461   1.188
  625SOL    MW4 2532   2.490   4.375   1.204
  626SOL     OW 2533   2.888   0.009   1.117
  626SOL    HW2 2534   2.880  -0.083   1.142
  626SOL    HW3 2535   2.891   0.007   1.021
  626SOL    MW4 2536   2.887  -0.004   1.108
  627SOL     OW 2537   2.659   0.152   1.232
  627SOL    HW2 2538   2.685   0.163   1.324
  627SOL    HW3 2539   2.738   0.119   1.189
  627SOL    MW4 2540   2.673   0.149   1.238
  628SOL     OW 2541   2.697   0.419   1.170
  628SOL    HW2 2542   2.696   0.324   1.184
  628SOL    HW3 2543   2.608   0.447   1.189
  628SOL    MW4 2544   2.685   0.410   1.174
  629SOL     OW 2545   2.952   0.537   1.255
  629SOL    HW2 2546   2.957   0.623   1.214
  629SOL    HW3 2547   2.867   0.502   1.228
  629SOL    MW4 2548   2.941   0.544   1.246
  630SOL     OW 2549   2.948   0.762   1.113
  630SOL    HW2 2550   3.020   0.812   1.151
  630SOL    HW3 2551   2.871   0.792   1.160
  630SOL    MW4 2552   2.947   0.773   1.124
  631SOL     OW 2553   2.705   0.869   1.255
  631SOL    HW2 2554   2.684   0.960   1.231
  631SOL    HW3 2555   2.632   0.818   1.219
  631SOL    MW4 2556   2.692   0.874   1.247
  632SOL     OW 2557   2.707   1.139   1.157
  632SOL    HW2 2558   2.784   1.186   1.188
  632SOL    HW3 2559   2.722   1.125   1.064
  632SOL    MW4 2560   2.719   1.143   1.149
  633SOL     OW 2561   2.954   1.281   1.284
  633SOL    HW2 2562   2.957   1.282   1.380
  633SOL    HW3 2563   2.933   1.371   1.260
  633SOL    MW4 2564   2.952   1.293   1.293
  634SOL     OW 2565   2.902   1.545   1.209
  634SOL    HW2 2566   2.984   1.594   1.213
  634SOL    HW3 2567   2.893   1.521   1.117
  634SOL    MW4 2568   2.912   1.548   1.197
  635SOL     OW 2569   2.677   1.723   1.250
  635SOL    HW2 2570   2.758   1.673   1.243
  635SOL    HW3 2571   2.608   1.660   1.230
  635SOL    MW4 2572   2.678   1.708   1.246
  636SOL     OW 2573   2.684   1.940   1.093
  636SOL    HW2 2574   2.746   1.989   1.147
  636SOL    HW3 2575   2.674   1.856   1.138
  636SOL    MW4 2576   2.691   1.936   1.106
  637SOL     OW 2577   2.901   2.043   1.246
  637SOL    HW2 2578   2.911   2.040   1.341
  637SOL    HW3 2579   2.916   2.135   1.223
  637SOL    MW4 2580   2.905   2.055   1.255
  638SOL     OW 2581   2.926   2.300   1.117
  638SOL    HW2 2582   3.003   2.337   1.160
  638SOL    HW3 2583   2.852   2.341   1.162
  638SOL    MW4 2584   2.927   2.311   1.129
  639SOL     OW 2585   2.722   2.446   1.222
  639SOL    HW2 2586   2.707   2.436   1.316
  639SOL    HW3 2587   2.652   2.395   1.181
  639SOL    MW4 2588   2.711   2.438   1.229
  640SOL     OW 2589   2.689   2.713   1.153
  640SOL    HW2 2590   2.681   2.627   1.194
  640SOL    HW3 2591   2.604   2.754   1.166
  640SOL    MW4 2592   2.677   2.707   1.160
  641SOL     OW 2593   2.942   2.779   1.219
  641SOL    HW2 2594   2.946   2.789   1.314
  641SOL    HW3 2595   2.860   2.732   1.203
  641SOL    MW4 2596   2.932   2.774   1.230
  642SOL     OW 2597   2.925   3.041   1.131
  642SOL    HW2 2598   2.928   2.952   1.165
  642SOL    HW3 2599   2.941   3.030   1.037
  642SOL    MW4 2600   2.928   3.028   1.123
  643SOL     OW 2601   2.672   3.177   1.195
  643SOL    HW2 2602   2.743   3.120   1.166
  643SOL    HW3 2603   2.595   3.146   1.147
  643SOL    MW4 2604   2.672   3.165   1.185
  644SOL     OW 2605   2.700   3.446   1.115
  644SOL    HW2 2606   2.678   3.357   1.142
  644SOL    HW3 2607   2.635   3.501   1.159
  644SOL    MW4 2608   2.689   3.441   1.124
  645SOL     OW 2609   2.931   3.610   1.165
  645SOL    HW2 2610   3.007   3.558   1.138
  645SOL    HW3 2611   2.856   3.552   1.148
  645SOL    MW4 2612   2.931   3.596   1.159
  646SOL     OW 2613   2.937   3.885   1.080
  646SOL    HW2 2614   3.010   3.935   1.116
  646SOL    HW3 2615   2.955   3.794   1.107
  646SOL    MW4 2616   2.949   3.879   1.088
  647SOL     OW 2617   2.724   4.018   1.182
  647SOL    HW2 2618   2.796   3.971   1.139
  647SOL    HW3 2619   2.645   3.976   1.148
  647SOL    MW4 2620   2.723   4.007   1.172
  648SOL     OW 2621   2.701   4.249   1.051
  648SOL    HW2 2622   2.718   4.168   1.099
  648SOL    HW3 2623   2.630   4.291   1.099
  648SOL    MW4 2624   2.694   4.244   1.064
  649SOL     OW 2625   2.882   4.407   1.206
  649SOL    HW2 2626   2.963   4.361   1.186
  649SOL    HW3 2627   2.815   4.364   1.153
  649SOL    MW4 2628   2.884   4.395   1.197
  650SOL     OW 2629   3.322   0.010   1.103
  650SOL    HW2 2630   3.396   0.030   1.160
  650SOL    HW3 2631   3.248   0.056   1.143
  650SOL    MW4 2632   3.322   0.019   1.115
  651SOL     OW 2633   3.109   0.133   1.220
  651SOL    HW2 2634   3.089   0.128   1.314
  651SOL    HW3 2635   3.036   0.090   1.177
  651SOL    MW4 2636   3.097   0.127   1.227
  652SOL     OW 2637   3.145   0.387   1.105
  652SOL    HW2 2638   3.131   0.296   1.134
  652SOL    HW3 2639   3.082   0.438   1.156
  652SOL    MW4 2640   3.135   0.381   1.116
  653SOL     OW 2641   3.359   0.509   1.239
  653SOL    HW2 2642   3.352   0.598   1.205
  653SOL    HW3 2643   3.293   0.459   1.191
  653SOL    MW4 2644   3.350   0.514   1.229
  654SOL     OW 2645   3.400   0.770   1.114
  654SOL    HW2 2646   3.332   0.838   1.114
  654SOL    HW3 2647   3.408   0.745   1.022
  654SOL    MW4 2648   3.392   0.776   1.102
  655SOL     OW 2649   3.158   0.908   1.194
  655SOL    HW2 2650   3.151   0.922   1.288
  655SOL    HW3 2651   3.160   0.997   1.157
  655SOL    MW4 2652   3.157   0.922   1.201
  656SOL     OW 2653   3.155   1.175   1.156
  656SOL    HW2 2654   3.237   1.209   1.191
  656SOL    HW3 2655   3.087   1.215   1.210
  656SOL    MW4 2656   3.157   1.185   1.168
  657SOL     OW 2657   3.393   1.277   1.226
  657SOL    HW2 2658   3.389   1.291   1.321
  657SOL    HW3 2659   3.389   1.365   1.189
  657SOL    MW4 2660   3.392   1.291   1.234
  658SOL     OW 2661   3.354   1.537   1.102
  658SOL    HW2 2662   3.420   1.554   1.169
  658SOL    HW3 2663   3.285   1.600   1.120
  658SOL    MW4 2664   3.354   1.547   1.113
  659SOL     OW 2665   3.141   1.693   1.162
  659SOL    HW2 2666   3.171   1.707   1.252
  659SOL    HW3 2667   3.122   1.781   1.129
  659SOL    MW4 2668   3.142   1.707   1.170
  660SOL     OW 2669   3.094   1.946   1.067
  660SOL    HW2 2670   3.177   1.984   1.095
  660SOL    HW3 2671   3.031   1.978   1.132
  660SOL    MW4 2672   3.096   1.955   1.080
  661SOL     OW 2673   3.319   2.053   1.164
  661SOL    HW2 2674   3.387   2.000   1.124
  661SOL    HW3 2675   3.340   2.143   1.139
  661SOL    MW4 2676   3.331   2.058   1.156
  662SOL     OW 2677   3.369   2.318   1.089
  662SOL    HW2 2678   3.447   2.366   1.117
  662SOL    HW3 2679   3.295   2.374   1.114
  662SOL    MW4 2680   3.369   2.332   1.096
  663SOL     OW 2681   3.142   2.424   1.217
  663SOL    HW2 2682   3.145   2.421   1.313
  663SOL    HW3 2683   3.140   2.517   1.196
  663SOL    MW4 2684   3.142   2.436   1.227
  664SOL     OW 2685   3.174   2.674   1.138
  664SOL    HW2 2686   3.095   2.719   1.168
  664SOL    HW3 2687   3.176   2.689   1.044
  664SOL    MW4 2688   3.164   2.682   1.130
  665SOL     OW 2689   3.365   2.847   1.227
  665SOL    HW2 2690   3.353   2.933   1.187
  665SOL    HW3 2691   3.299   2.791   1.186
  665SOL    MW4 2692   3.355   2.851   1.217
  666SOL     OW 2693   3.386   3.120   1.105
  666SOL    HW2 2694   3.437   3.163   1.174
  666SOL    HW3 2695   3.295   3.137   1.129
  666SOL    MW4 2696   3.381   3.128   1.117
  667SOL     OW 2697   3.140   3.197   1.186
  667SOL    HW2 2698   3.133   3.283   1.145
  667SOL    HW3 2699   3.058   3.153   1.163
  667SOL    MW4 2700   3.128   3.202   1.178
  668SOL     OW 2701   3.145   3.458   1.049
  668SOL    HW2 2702   3.216   3.502   1.095
  668SOL    HW3 2703   3.154   3.485   0.958
  668SOL    MW4 2704   3.155   3.467   1.043
  669SOL     OW 2705   3.342   3.586   1.194
  669SOL    HW2 2706   3.346   3.589   1.290
  669SOL    HW3 2707   3.431   3.566   1.167
  669SOL    MW4 2708   3.354   3.584   1.203
  670SOL     OW 2709   3.382   3.888   1.065
  670SOL    HW2 2710   3.316   3.939   1.113
  670SOL    HW3 2711   3.358   3.797   1.081
  670SOL    MW4 2712   3.370   3.883   1.073
  671SOL     OW 2713   3.156   4.025   1.172
  671SOL    HW2 2714   3.141   4.026   1.266
  671SOL    HW3 2715   3.148   4.116   1.145
  671SOL    MW4 2716   3.153   4.037   1.180
  672SOL     OW 2717   3.102   4.276   1.106
  672SOL    HW2 2718   3.182   4.328   1.114
  672SOL    HW3 2719   3.091   4.263   1.011
  672SOL    MW4 2720   3.111   4.281   1.094
  673SOL     OW 2721   3.344   4.403   1.166
  673SOL    HW2 2722   3.439   4.395   1.162
  673SOL    HW3 2723   3.326   4.494   1.139
  673SOL    MW4 2724   3.354   4.414   1.162
  674SOL     OW 2725   3.771   4.663   1.054
  674SOL    HW2 2726   3.785   4.584   1.105
  674SOL    HW3 2727   3.829   4.654   0.979
  674SOL    MW4 2728   3.780   4.652   1.051
  675SOL     OW 2729   3.559   0.074   1.193
  675SOL    HW2 2730   3.568   0.169   1.195
  675SOL    HW3 2731   3.633   0.044   1.140
  675SOL    MW4 2732   3.570   0.083   1.186
  676SOL     OW 2733   3.595   0.359   1.177
  676SOL    HW2 2734   3.669   0.408   1.213
  676SOL    HW3 2735   3.518   0.408   1.207
  676SOL    MW4 2736   3.594   0.372   1.186
  677SOL     OW 2737   3.820   0.501   1.232
  677SOL    HW2 2738   3.889   0.446   1.196
  677SOL    HW3 2739   3.831   0.585   1.187
  677SOL    MW4 2740   3.831   0.505   1.221
  678SOL     OW 2741   3.855   0.765   1.106
  678SOL    HW2 2742   3.928   0.821   1.134
  678SOL    HW3 2743   3.779   0.802   1.150
  678SOL    MW4 2744   3.855   0.777   1.115
  679SOL     OW 2745   3.630   0.878   1.231
  679SOL    HW2 2746   3.627   0.969   1.201
  679SOL    HW3 2747   3.554   0.837   1.192
  679SOL    MW4 2748   3.620   0.885   1.222
  680SOL     OW 2749   3.617   1.138   1.162
  680SOL    HW2 2750   3.689   1.194   1.189
  680SOL    HW3 2751   3.538   1.184   1.191
  680SOL    MW4 2752   3.616   1.151   1.169
  681SOL     OW 2753   3.823   1.317   1.205
  681SOL    HW2 2754   3.803   1.306   1.298
  681SOL    HW3 2755   3.792   1.405   1.184
  681SOL    MW4 2756   3.816   1.327   1.214
  682SOL     OW 2757   3.789   1.584   1.145
  682SOL    HW2 2758   3.866   1.607   1.198
  682SOL    HW3 2759   3.819   1.591   1.055
  682SOL    MW4 2760   3.803   1.588   1.140
  683SOL     OW 2761   3.546   1.652   1.255
  683SOL    HW2 2762   3.552   1.744   1.228
  683SOL    HW3 2763   3.631   1.615   1.231
  683SOL    MW4 2764   3.558   1.660   1.248
  684SOL     OW 2765   3.594   1.899   1.131
  684SOL    HW2 2766   3.671   1.954   1.147
  684SOL    HW3 2767   3.573   1.912   1.039
  684SOL    MW4 2768   3.601   1.908   1.121
  685SOL     OW 2769   3.815   2.075   1.175
  685SOL    HW2 2770   3.820   2.078   1.270
  685SOL    HW3 2771   3.889   2.020   1.149
  685SOL    MW4 2772   3.825   2.068   1.184
  686SOL     OW 2773   3.816   2.314   1.034
  686SOL    HW2 2774   3.890   2.353   1.080
  686SOL    HW3 2775   3.807   2.227   1.073
  686SOL    MW4 2776   3.825   2.307   1.045
  687SOL     OW 2777   3.604   2.459   1.182
  687SOL    HW2 2778   3.605   2.478   1.276
  687SOL    HW3 2779   3.689   2.419   1.165
  687SOL    MW4 2780   3.615   2.456   1.192
  688SOL     OW 2781   3.588   2.717   1.103
  688SOL    HW2 2782   3.580   2.627   1.134
  688SOL    HW3 2783   3.512   2.762   1.139
  688SOL    MW4 2784   3.577   2.711   1.112
  689SOL     OW 2785   3.851   2.861   1.165
  689SOL    HW2 2786   3.867   2.870   1.259
  689SOL    HW3 2787   3.770   2.812   1.159
  689SOL    MW4 2788   3.842   2.856   1.177
  690SOL     OW 2789   3.784   3.136   1.124
  690SOL    HW2 2790   3.799   3.051   1.164
  690SOL    HW3 2791   3.767   3.117   1.032
  690SOL    MW4 2792   3.783   3.123   1.117
  691SOL     OW 2793   3.568   3.269   1.254
  691SOL    HW2 2794   3.539   3.329   1.185
  691SOL    HW3 2795   3.645   3.225   1.217
  691SOL    MW4 2796   3.575   3.271   1.240
  692SOL     OW 2797   3.578   3.514   1.074
  692SOL    HW2 2798   3.670   3.527   1.097
  692SOL    HW3 2799   3.580   3.489   0.982
  692SOL    MW4 2800   3.590   3.513   1.065
  693SOL     OW 2801   3.805   3.595   1.185
  693SOL    HW2 2802   3.767   3.615   1.270
  693SOL    HW3 2803   3.822   3.680   1.145
  693SOL    MW4 2804   3.803   3.609   1.191
  694SOL     OW 2805   3.848   3.844   1.060
  694SOL    HW2 2806   3.769   3.880   1.102
  694SOL    HW3 2807   3.816   3.806   0.978
  694SOL    MW4 2808   3.833   3.843   1.055
  695SOL     OW 2809   3.635   3.973   1.170
  695SOL    HW2 2810   3.628   3.963   1.265
  695SOL    HW3 2811   3.553   3.937   1.136
  695SOL    MW4 2812   3.623   3.967   1.178
  696SOL     OW 2813   3.601   4.240   1.126
  696SOL    HW2 2814   3.621   4.147   1.142
  696SOL    HW3 2815   3.586   4.244   1.031
  696SOL    MW4 2816   3.601   4.228   1.116
  697SOL     OW 2817   3.809   4.414   1.176
  697SOL    HW2 2818   3.812   4.415   1.272
  697SOL    HW3 2819   3.729   4.364   1.156
  697SOL    MW4 2820   3.799   4.407   1.186
  698SOL     OW 2821   4.269   0.032   1.099
  698SOL    HW2 2822   4.278  -0.057   1.133
  698SOL    HW3 2823   4.178   0.057   1.120
  698SOL    MW4 2824   4.258   0.024   1.106
  699SOL     OW 2825   4.011   0.111   1.195
  699SOL    HW2 2826   3.995   0.093   1.288
  699SOL    HW3 2827   3.941   0.064   1.150
  699SOL    MW4 2828   4.000   0.102   1.202
  700SOL     OW 2829   4.029   0.364   1.109
  700SOL    HW2 2830   4.020   0.275   1.144
  700SOL    HW3 2831   4.013   0.355   1.016
  700SOL    MW4 2832   4.026   0.351   1.102
  701SOL     OW 2833   4.237   0.516   1.212
  701SOL    HW2 2834   4.221   0.510   1.306
  701SOL    HW3 2835   4.168   0.463   1.173
  701SOL    MW4 2836   4.225   0.508   1.219
  702SOL     OW 2837   4.256   0.768   1.099
  702SOL    HW2 2838   4.256   0.679   1.135
  702SOL    HW3 2839   4.274   0.756   1.006
  702SOL    MW4 2840   4.258   0.754   1.091
  703SOL     OW 2841   4.048   0.930   1.215
  703SOL    HW2 2842   4.020   0.897   1.300
  703SOL    HW3 2843   4.121   0.873   1.190
  703SOL    MW4 2844   4.054   0.918   1.223
  704SOL     OW 2845   4.062   1.201   1.135
  704SOL    HW2 2846   4.057   1.111   1.165
  704SOL    HW3 2847   3.986   1.244   1.175
  704SOL    MW4 2848   4.052   1.195   1.144
  705SOL     OW 2849   4.286   1.331   1.243
  705SOL    HW2 2850   4.285   1.315   1.337
  705SOL    HW3 2851   4.205   1.291   1.211
  705SOL    MW4 2852   4.275   1.323   1.251
  706SOL     OW 2853   4.257   1.568   1.118
  706SOL    HW2 2854   4.262   1.480   1.155
  706SOL    HW3 2855   4.339   1.610   1.146
  706SOL    MW4 2856   4.269   1.562   1.127
  707SOL     OW 2857   4.018   1.678   1.279
  707SOL    HW2 2858   4.016   1.675   1.374
  707SOL    HW3 2859   4.101   1.636   1.255
  707SOL    MW4 2860   4.029   1.672   1.288
  708SOL     OW 2861   4.022   1.900   1.116
  708SOL    HW2 2862   4.002   1.816   1.157
  708SOL    HW3 2863   4.014   1.884   1.022
  708SOL    MW4 2864   4.018   1.887   1.109
  709SOL     OW 2865   4.279   2.037   1.215
  709SOL    HW2 2866   4.266   2.117   1.165
  709SOL    HW3 2867   4.207   1.980   1.189
  709SOL    MW4 2868   4.268   2.040   1.205
  710SOL     OW 2869   4.244   2.263   1.081
  710SOL    HW2 2870   4.167   2.315   1.105
  710SOL    HW3 2871   4.252   2.274   0.987
  710SOL    MW4 2872   4.235   2.272   1.072
  711SOL     OW 2873   4.042   2.434   1.158
  711SOL    HW2 2874   4.045   2.454   1.251
  711SOL    HW3 2875   4.046   2.519   1.114
  711SOL    MW4 2876   4.043   2.448   1.165
  712SOL     OW 2877   4.050   2.709   1.076
  712SOL    HW2 2878   3.978   2.766   1.102
  712SOL    HW3 2879   4.053   2.714   0.981
  712SOL    MW4 2880   4.041   2.717   1.067
  713SOL     OW 2881   4.232   2.854   1.230
  713SOL    HW2 2882   4.253   2.928   1.174
  713SOL    HW3 2883   4.168   2.803   1.179
  713SOL    MW4 2884   4.226   2.857   1.216
  714SOL     OW 2885   4.271   3.098   1.095
  714SOL    HW2 2886   4.199   3.151   1.130
  714SOL    HW3 2887   4.274   3.122   1.002
  714SOL    MW4 2888   4.261   3.108   1.087
  715SOL     OW 2889   4.056   3.252   1.168
  715SOL    HW2 2890   4.054   3.246   1.264
  715SOL    HW3 2891   3.975   3.210   1.140
  715SOL    MW4 2892   4.045   3.246   1.177
  716SOL     OW 2893   4.053   3.510   1.125
  716SOL    HW2 2894   4.052   3.417   1.148
  716SOL    HW3 2895   3.963   3.539   1.136
  716SOL    MW4 2896   4.041   3.502   1.129
  717SOL     OW 2897   4.306   3.628   1.177
  717SOL    HW2 2898   4.223   3.580   1.172
  717SOL    HW3 2899   4.371   3.565   1.145
  717SOL    MW4 2900   4.304   3.613   1.172
  718SOL     OW 2901   4.321   3.855   1.047
  718SOL    HW2 2902   4.247   3.909   1.075
  718SOL    HW3 2903   4.321   3.781   1.108
  718SOL    MW4 2904   4.311   3.853   1.059
  719SOL     OW 2905   4.084   4.002   1.127
  719SOL    HW2 2906   4.059   4.094   1.136
  719SOL    HW3 2907   4.007   3.960   1.090
  719SOL    MW4 2908   4.070   4.009   1.123
  720SOL     OW 2909   4.054   4.298   1.106
  720SOL    HW2 2910   3.967   4.336   1.120
  720SOL    HW3 2911   4.066   4.302   1.011
  720SOL    MW4 2912   4.044   4.303   1.095
  721SOL     OW 2913   4.272   4.433   1.169
  721SOL    HW2 2914   4.190   4.386   1.149
  721SOL    HW3 2915   4.341   4.370   1.148
  721SOL    MW4 2916   4.270   4.418   1.164
  722SOL     OW 2917   0.236   4.630   1.603
  722SOL    HW2 2918   0.310   4.683   1.573
  722SOL    HW3 2919   0.159   4.675   1.569
  722SOL    MW4 2920   0.236   4.643   1.595
  723SOL     OW 2921   0.012   0.126   1.483
  723SOL    HW2 2922  -0.078   0.096   1.499
  723SOL    HW3 2923   0.014   0.147   1.390
  723SOL    MW4 2924   0.000   0.125   1.473
  724SOL     OW 2925   4.446   0.376   1.585
  724SOL    HW2 2926   4.449   0.379   1.681
  724SOL    HW3 2927   4.465   0.284   1.564
  724SOL    MW4 2928   4.449   0.364   1.595
  725SOL     OW 2929   0.192   0.472   1.472
  725SOL    HW2 2930   0.101   0.450   1.490
  725SOL    HW3 2931   0.202   0.459   1.378
  725SOL    MW4 2932   0.181   0.468   1.462
  726SOL     OW 2933   0.200   0.750   1.540
  726SOL    HW2 2934   0.283   0.794   1.522
  726SOL    HW3 2935   0.218   0.657   1.523
  726SOL    MW4 2936   0.213   0.743   1.535
  727SOL     OW 2937   4.474   0.914   1.508
  727SOL    HW2 2938   4.488   0.997   1.552
  727SOL    HW3 2939   4.558   0.867   1.518
  727SOL    MW4 2940   4.487   0.918   1.515
  728SOL     OW 2941   4.472   1.158   1.655
  728SOL    HW2 2942   4.481   1.195   1.743
  728SOL    HW3 2943   4.538   1.204   1.603
  728SOL    MW4 2944   4.482   1.169   1.659
  729SOL     OW 2945   0.217   1.270   1.522
  729SOL    HW2 2946   0.202   1.360   1.548
  729SOL    HW3 2947   0.240   1.275   1.429
  729SOL    MW4 2948   0.218   1.282   1.513
  730SOL     OW 2949   0.203   1.551   1.555
  730SOL    HW2 2950   0.194   1.559   1.650
  730SOL    HW3 2951   0.116   1.575   1.522
  730SOL    MW4 2952   0.190   1.555   1.563
  731SOL     OW 2953   4.458   1.644   1.466
  731SOL    HW2 2954   4.467   1.731   1.504
  731SOL    HW3 2955   4.471   1.657   1.372
  731SOL    MW4 2956   4.461   1.657   1.459
  732SOL     OW 2957   0.008   1.922   1.552
  732SOL    HW2 2958   0.004   1.906   1.647
  732SOL    HW3 2959  -0.070   1.975   1.534
  732SOL    MW4 2960  -0.003   1.927   1.562
  733SOL     OW 2961   0.251   2.067   1.468
  733SOL    HW2 2962   0.175   2.015   1.493
  733SOL    HW3 2963   0.249   2.068   1.372
  733SOL    MW4 2964   0.241   2.060   1.459
  734SOL     OW 2965   0.214   2.307   1.604
  734SOL    HW2 2966   0.221   2.297   1.698
  734SOL    HW3 2967   0.239   2.222   1.568
  734SOL    MW4 2968   0.219   2.294   1.611
  735SOL     OW 2969   0.007   2.451   1.506
  735SOL    HW2 2970  -0.069   2.410   1.548
  735SOL    HW3 2971   0.083   2.407   1.545
  735SOL    MW4 2972   0.007   2.440   1.517
  736SOL     OW 2973   0.011   2.758   1.544
  736SOL    HW2 2974  -0.082   2.774   1.528
  736SOL    HW3 2975   0.022   2.665   1.525
  736SOL    MW4 2976   0.000   2.748   1.539
  737SOL     OW 2977   0.262   2.860   1.454
  737SOL    HW2 2978   0.314   2.785   1.480
  737SOL    HW3 2979   0.173   2.838   1.482
  737SOL    MW4 2980   0.257   2.847   1.461
  738SOL     OW 2981   0.208   3.095   1.605
  738SOL    HW2 2982   0.129   3.133   1.565
  738SOL    HW3 2983   0.216   3.008   1.565
  738SOL    MW4 2984   0.198   3.089   1.595
  739SOL     OW 2985   0.007   3.227   1.468
  739SOL    HW2 2986   0.014   3.319   1.493
  739SOL    HW3 2987   0.020   3.227   1.373
  739SOL    MW4 2988   0.010   3.239   1.458
  740SOL     OW 2989   0.017   3.477   1.609
  740SOL    HW2 2990   0.011   3.477   1.705
  740SOL    HW3 2991  -0.064   3.518   1.579
  740SOL    MW4 2992   0.006   3.483   1.618
  741SOL     OW 2993   0.228   3.623   1.506
  741SOL    HW2 2994   0.208   3.711   1.539
  741SOL    HW3 2995   0.162   3.567   1.545
  741SOL    MW4 2996   0.217   3.627   1.515
  742SOL     OW 2997   0.222   3.902   1.600
  742SOL    HW2 2998   0.223   3.917   1.695
  742SOL    HW3 2999   0.303   3.941   1.569
  742SOL    MW4 3000   0.233   3.909   1.609
  743SOL     OW 3001   0.018   4.032   1.446
  743SOL    HW2 3002   0.010   4.113   1.497
  743SOL    HW3 3003   0.083   3.980   1.494
  743SOL    MW4 3004   0.026   4.036   1.459
  744SOL     OW 3005   4.477   4.272   1.585
  744SOL    HW2 3006   4.458   4.273   1.679
  744SOL    HW3 3007   4.404   4.319   1.545
  744SOL    MW4 3008   4.465   4.278   1.592
  745SOL     OW 3009   0.220   4.384   1.470
  745SOL    HW2 3010   0.149   4.329   1.505
  745SOL    HW3 3011   0.220   4.461   1.526
  745SOL    MW4 3012   0.211   4.387   1.482
  746SOL     OW 3013   0.682   4.643   1.539
  746SOL    HW2 3014   0.746   4.713   1.537
  746SOL    HW3 3015   0.603   4.681   1.500
  746SOL    MW4 3016   0.680   4.657   1.533
  747SOL     OW 3017   0.436   0.081   1.462
  747SOL    HW2 3018   0.424   0.172   1.489
  747SOL    HW3 3019   0.428   0.084   1.367
  747SOL    MW4 3020   0.433   0.094   1.453
  748SOL     OW 3021   0.421   0.335   1.560
  748SOL    HW2 3022   0.480   0.409   1.545
  748SOL    HW3 3023   0.334   0.368   1.539
  748SOL    MW4 3024   0.418   0.349   1.555
  749SOL     OW 3025   0.623   0.499   1.530
  749SOL    HW2 3026   0.636   0.592   1.551
  749SOL    HW3 3027   0.653   0.491   1.439
  749SOL    MW4 3028   0.629   0.510   1.521
  750SOL     OW 3029   0.658   0.757   1.593
  750SOL    HW2 3030   0.647   0.774   1.686
  750SOL    HW3 3031   0.741   0.798   1.571
  750SOL    MW4 3032   0.667   0.764   1.602
  751SOL     OW 3033   0.431   0.871   1.496
  751SOL    HW2 3034   0.446   0.954   1.542
  751SOL    HW3 3035   0.512   0.821   1.511
  751SOL    MW4 3036   0.444   0.875   1.504
  752SOL     OW 3037   0.458   1.140   1.578
  752SOL    HW2 3038   0.540   1.173   1.541
  752SOL    HW3 3039   0.394   1.208   1.559
  752SOL    MW4 3040   0.461   1.154   1.571
  753SOL     OW 3041   0.681   1.268   1.480
  753SOL    HW2 3042   0.643   1.356   1.485
  753SOL    HW3 3043   0.712   1.261   1.390
  753SOL    MW4 3044   0.680   1.279   1.469
  754SOL     OW 3045   0.608   1.533   1.544
  754SOL    HW2 3046   0.690   1.580   1.531
  754SOL    HW3 3047   0.540   1.598   1.522
  754SOL    MW4 3048   0.610   1.548   1.539
  755SOL     OW 3049   0.423   1.681   1.417
  755SOL    HW2 3050   0.437   1.768   1.456
  755SOL    HW3 3051   0.342   1.649   1.458
  755SOL    MW4 3052   0.414   1.688   1.428
  756SOL     OW 3053   0.471   1.942   1.544
  756SOL    HW2 3054   0.469   1.941   1.640
  756SOL    HW3 3055   0.397   1.998   1.519
  756SOL    MW4 3056   0.461   1.950   1.553
  757SOL     OW 3057   0.718   2.024   1.466
  757SOL    HW2 3058   0.789   1.994   1.523
  757SOL    HW3 3059   0.640   1.980   1.500
  757SOL    MW4 3060   0.717   2.014   1.478
  758SOL     OW 3061   0.707   2.292   1.546
  758SOL    HW2 3062   0.624   2.340   1.551
  758SOL    HW3 3063   0.686   2.212   1.498
  758SOL    MW4 3064   0.693   2.288   1.540
  759SOL     OW 3065   0.461   2.413   1.533
  759SOL    HW2 3066   0.467   2.506   1.557
  759SOL    HW3 3067   0.379   2.384   1.574
  759SOL    MW4 3068   0.451   2.422   1.542
  760SOL     OW 3069   0.444   2.687   1.554
  760SOL    HW2 3070   0.457   2.700   1.648
  760SOL    HW3 3071   0.519   2.729   1.513
  760SOL    MW4 3072   0.455   2.694   1.561
  761SOL     OW 3073   0.671   2.824   1.489
  761SOL    HW2 3074   0.675   2.913   1.522
  761SOL    HW3 3075   0.694   2.832   1.396
  761SOL    MW4 3076   0.675   2.837   1.481
  762SOL     OW 3077   0.671   3.107   1.567
  762SOL    HW2 3078   0.740   3.160   1.528
  762SOL    HW3 3079   0.589   3.148   1.539
  762SOL    MW4 3080   0.669   3.119   1.558
  763SOL     OW 3081   0.419   3.244   1.510
  763SOL    HW2 3082   0.354   3.203   1.567
  763SOL    HW3 3083   0.398   3.213   1.422
  763SOL    MW4 3084   0.408   3.235   1.506
  764SOL     OW 3085   0.448   3.521   1.601
  764SOL    HW2 3086   0.442   3.427   1.585
  764SOL    HW3 3087   0.366   3.556   1.566
  764SOL    MW4 3088   0.436   3.513   1.594
  765SOL     OW 3089   0.660   3.617   1.442
  765SOL    HW2 3090   0.732   3.584   1.496
  765SOL    HW3 3091   0.581   3.592   1.490
  765SOL    MW4 3092   0.659   3.609   1.456
  766SOL     OW 3093   0.685   3.864   1.558
  766SOL    HW2 3094   0.765   3.906   1.527
  766SOL    HW3 3095   0.692   3.774   1.527
  766SOL    MW4 3096   0.696   3.858   1.550
  767SOL     OW 3097   0.459   4.007   1.502
  767SOL    HW2 3098   0.536   3.953   1.521
  767SOL    HW3 3099   0.445   3.998   1.408
  767SOL    MW4 3100   0.467   3.999   1.492
  768SOL     OW 3101   0.453   4.261   1.604
  768SOL    HW2 3102   0.451   4.167   1.584
  768SOL    HW3 3103   0.385   4.299   1.549
  768SOL    MW4 3104   0.444   4.253   1.594
  769SOL     OW 3105   0.694   4.360   1.499
  769SOL    HW2 3106   0.607   4.325   1.520
  769SOL    HW3 3107   0.686   4.454   1.513
  769SOL    MW4 3108   0.682   4.367   1.504
  770SOL     OW 3109   1.212   4.586   1.576
  770SOL    HW2 3110   1.186   4.608   1.666
  770SOL    HW3 3111   1.184   4.662   1.524
  770SOL    MW4 3112   1.205   4.599   1.581
  771SOL     OW 3113   0.898   0.189   1.465
  771SOL    HW2 3114   0.901   0.273   1.510
  771SOL    HW3 3115   0.990   0.166   1.452
  771SOL    MW4 3116   0.911   0.197   1.469
  772SOL     OW 3117   0.882   0.419   1.608
  772SOL    HW2 3118   0.897   0.407   1.701
  772SOL    HW3 3119   0.790   0.446   1.601
  772SOL    MW4 3120   0.872   0.421   1.619
  773SOL     OW 3121   1.109   0.557   1.493
  773SOL    HW2 3122   1.111   0.644   1.533
  773SOL    HW3 3123   1.027   0.518   1.525
  773SOL    MW4 3124   1.098   0.564   1.502
  774SOL     OW 3125   1.123   0.813   1.589
  774SOL    HW2 3126   1.117   0.793   1.682
  774SOL    HW3 3127   1.217   0.829   1.574
  774SOL    MW4 3128   1.135   0.813   1.599
  775SOL     OW 3129   0.888   0.882   1.480
  775SOL    HW2 3130   0.979   0.874   1.507
  775SOL    HW3 3131   0.890   0.877   1.384
  775SOL    MW4 3132   0.900   0.880   1.471
  776SOL     OW 3133   0.914   1.160   1.586
  776SOL    HW2 3134   0.907   1.071   1.550
  776SOL    HW3 3135   0.826   1.197   1.574
  776SOL    MW4 3136   0.901   1.153   1.580
  777SOL     OW 3137   1.107   1.273   1.436
  777SOL    HW2 3138   1.188   1.241   1.477
  777SOL    HW3 3139   1.037   1.234   1.487
  777SOL    MW4 3140   1.109   1.264   1.448
  778SOL     OW 3141   1.108   1.524   1.600
  778SOL    HW2 3142   1.183   1.566   1.557
  778SOL    HW3 3143   1.096   1.442   1.552
  778SOL    MW4 3144   1.116   1.519   1.588
  779SOL     OW 3145   0.882   1.665   1.482
  779SOL    HW2 3146   0.950   1.603   1.509
  779SOL    HW3 3147   0.892   1.670   1.387
  779SOL    MW4 3148   0.892   1.657   1.473
  780SOL     OW 3149   0.894   1.903   1.647
  780SOL    HW2 3150   0.965   1.954   1.608
  780SOL    HW3 3151   0.906   1.815   1.613
  780SOL    MW4 3152   0.905   1.898   1.637
  781SOL     OW 3153   1.104   2.012   1.480
  781SOL    HW2 3154   1.186   1.972   1.508
  781SOL    HW3 3155   1.113   2.105   1.502
  781SOL    MW4 3156   1.116   2.019   1.486
  782SOL     OW 3157   1.135   2.291   1.576
  782SOL    HW2 3158   1.212   2.329   1.534
  782SOL    HW3 3159   1.062   2.343   1.542
  782SOL    MW4 3160   1.136   2.303   1.566
  783SOL     OW 3161   0.919   2.434   1.449
  783SOL    HW2 3162   0.904   2.523   1.484
  783SOL    HW3 3163   0.839   2.387   1.471
  783SOL    MW4 3164   0.907   2.440   1.457
  784SOL     OW 3165   0.920   2.686   1.566
  784SOL    HW2 3166   0.916   2.682   1.662
  784SOL    HW3 3167   0.844   2.738   1.541
  784SOL    MW4 3168   0.910   2.692   1.575
  785SOL     OW 3169   1.149   2.811   1.470
  785SOL    HW2 3170   1.131   2.902   1.494
  785SOL    HW3 3171   1.077   2.761   1.510
  785SOL    MW4 3172   1.137   2.817   1.479
  786SOL     OW 3173   1.112   3.061   1.560
  786SOL    HW2 3174   1.130   3.044   1.653
  786SOL    HW3 3175   1.194   3.099   1.527
  786SOL    MW4 3176   1.125   3.064   1.568
  787SOL     OW 3177   0.906   3.244   1.507
  787SOL    HW2 3178   0.972   3.184   1.541
  787SOL    HW3 3179   0.914   3.237   1.412
  787SOL    MW4 3180   0.916   3.235   1.499
  788SOL     OW 3181   0.875   3.522   1.585
  788SOL    HW2 3182   0.959   3.558   1.555
  788SOL    HW3 3183   0.880   3.429   1.561
  788SOL    MW4 3184   0.887   3.515   1.578
  789SOL     OW 3185   1.112   3.599   1.449
  789SOL    HW2 3186   1.176   3.537   1.485
  789SOL    HW3 3187   1.124   3.593   1.354
  789SOL    MW4 3188   1.122   3.590   1.441
  790SOL     OW 3189   1.125   3.823   1.610
  790SOL    HW2 3190   1.206   3.866   1.582
  790SOL    HW3 3191   1.129   3.736   1.570
  790SOL    MW4 3192   1.136   3.817   1.601
  791SOL     OW 3193   0.928   3.993   1.456
  791SOL    HW2 3194   0.938   4.082   1.491
  791SOL    HW3 3195   0.990   3.941   1.508
  791SOL    MW4 3196   0.938   3.998   1.468
  792SOL     OW 3197   0.940   4.243   1.574
  792SOL    HW2 3198   0.937   4.253   1.669
  792SOL    HW3 3199   0.853   4.270   1.545
  792SOL    MW4 3200   0.928   4.248   1.582
  793SOL     OW 3201   1.145   4.355   1.438
  793SOL    HW2 3202   1.072   4.311   1.482
  793SOL    HW3 3203   1.165   4.430   1.493
  793SOL    MW4 3204   1.138   4.359   1.451
  794SOL     OW 3205   1.480   4.605   1.560
  794SOL    HW2 3206   1.498   4.614   1.653
  794SOL    HW3 3207   1.385   4.599   1.554
  794SOL    MW4 3208   1.470   4.605   1.571
  795SOL     OW 3209   1.171   0.172   1.447
  795SOL    HW2 3210   1.230   0.227   1.498
  795SOL    HW3 3211   1.218   0.159   1.364
  795SOL    MW4 3212   1.185   0.177   1.443
  796SOL     OW 3213   1.327   0.382   1.572
  796SOL    HW2 3214   1.413   0.421   1.553
  796SOL    HW3 3215   1.265   0.441   1.530
  796SOL    MW4 3216   1.330   0.395   1.564
  797SOL     OW 3217   1.562   0.502   1.530
  797SOL    HW2 3218   1.630   0.440   1.554
  797SOL    HW3 3219   1.550   0.490   1.436
  797SOL    MW4 3220   1.569   0.492   1.521
  798SOL     OW 3221   1.557   0.763   1.622
  798SOL    HW2 3222   1.546   0.778   1.716
  798SOL    HW3 3223   1.551   0.668   1.612
  798SOL    MW4 3224   1.555   0.752   1.633
  799SOL     OW 3225   1.376   0.905   1.485
  799SOL    HW2 3226   1.436   0.841   1.524
  799SOL    HW3 3227   1.370   0.879   1.393
  799SOL    MW4 3228   1.383   0.893   1.478
  800SOL     OW 3229   1.314   1.158   1.579
  800SOL    HW2 3230   1.320   1.159   1.675
  800SOL    HW3 3231   1.348   1.072   1.554
  800SOL    MW4 3232   1.319   1.147   1.588
  801SOL     OW 3233   1.551   1.262   1.497
  801SOL    HW2 3234   1.466   1.225   1.520
  801SOL    HW3 3235   1.548   1.275   1.403
  801SOL    MW4 3236   1.540   1.259   1.488
  802SOL     OW 3237   1.599   1.519   1.554
  802SOL    HW2 3238   1.607   1.518   1.649
  802SOL    HW3 3239   1.581   1.427   1.531
  802SOL    MW4 3240   1.597   1.507   1.563
  803SOL     OW 3241   1.362   1.632   1.484
  803SOL    HW2 3242   1.440   1.582   1.507
  803SOL    HW3 3243   1.354   1.622   1.389
  803SOL    MW4 3244   1.371   1.624   1.474
  804SOL     OW 3245   1.371   1.889   1.559
  804SOL    HW2 3246   1.365   1.900   1.654
  804SOL    HW3 3247   1.374   1.794   1.547
  804SOL    MW4 3248   1.370   1.878   1.570
  805SOL     OW 3249   1.586   2.039   1.449
  805SOL    HW2 3250   1.515   1.988   1.488
  805SOL    HW3 3251   1.575   2.027   1.355
  805SOL    MW4 3252   1.575   2.031   1.442
  806SOL     OW 3253   1.568   2.300   1.547
  806SOL    HW2 3254   1.637   2.341   1.496
  806SOL    HW3 3255   1.578   2.206   1.530
  806SOL    MW4 3256   1.578   2.293   1.538
  807SOL     OW 3257   1.356   2.453   1.462
  807SOL    HW2 3258   1.382   2.540   1.491
  807SOL    HW3 3259   1.419   2.394   1.503
  807SOL    MW4 3260   1.368   2.457   1.471
  808SOL     OW 3261   1.394   2.719   1.528
  808SOL    HW2 3262   1.469   2.776   1.507
  808SOL    HW3 3263   1.318   2.768   1.498
  808SOL    MW4 3264   1.394   2.733   1.521
  809SOL     OW 3265   1.610   2.860   1.450
  809SOL    HW2 3266   1.658   2.784   1.483
  809SOL    HW3 3267   1.614   2.850   1.355
  809SOL    MW4 3268   1.617   2.849   1.442
  810SOL     OW 3269   1.576   3.103   1.575
  810SOL    HW2 3270   1.653   3.150   1.543
  810SOL    HW3 3271   1.585   3.014   1.538
  810SOL    MW4 3272   1.587   3.097   1.566
  811SOL     OW 3273   1.335   3.207   1.469
  811SOL    HW2 3274   1.354   3.291   1.509
  811SOL    HW3 3275   1.409   3.151   1.494
  811SOL    MW4 3276   1.347   3.210   1.478
  812SOL     OW 3277   1.354   3.472   1.547
  812SOL    HW2 3278   1.354   3.460   1.642
  812SOL    HW3 3279   1.423   3.536   1.531
  812SOL    MW4 3280   1.363   3.479   1.558
  813SOL     OW 3281   1.579   3.614   1.476
  813SOL    HW2 3282   1.575   3.705   1.506
  813SOL    HW3 3283   1.588   3.620   1.381
  813SOL    MW4 3284   1.580   3.627   1.468
  814SOL     OW 3285   1.582   3.862   1.573
  814SOL    HW2 3286   1.573   3.852   1.668
  814SOL    HW3 3287   1.498   3.900   1.546
  814SOL    MW4 3288   1.569   3.866   1.582
  815SOL     OW 3289   1.345   3.981   1.488
  815SOL    HW2 3290   1.345   4.070   1.523
  815SOL    HW3 3291   1.348   3.992   1.393
  815SOL    MW4 3292   1.345   3.994   1.480
  816SOL     OW 3293   1.328   4.213   1.607
  816SOL    HW2 3294   1.415   4.239   1.578
  816SOL    HW3 3295   1.269   4.245   1.539
  816SOL    MW4 3296   1.332   4.220   1.594
  817SOL     OW 3297   1.565   4.343   1.547
  817SOL    HW2 3298   1.661   4.344   1.547
  817SOL    HW3 3299   1.540   4.435   1.545
  817SOL    MW4 3300   1.574   4.355   1.547
  818SOL     OW 3301   1.973   4.654   1.568
  818SOL    HW2 3302   1.972   4.644   1.663
  818SOL    HW3 3303   1.883   4.680   1.546
  818SOL    MW4 3304   1.961   4.656   1.578
  819SOL     OW 3305   1.721   0.058   1.505
  819SOL    HW2 3306   1.630   0.031   1.523
  819SOL    HW3 3307   1.727   0.058   1.410
  819SOL    MW4 3308   1.709   0.054   1.495
  820SOL     OW 3309   1.730   0.307   1.618
  820SOL    HW2 3310   1.799   0.334   1.558
  820SOL    HW3 3311   1.714   0.215   1.596
  820SOL    MW4 3312   1.737   0.298   1.607
  821SOL     OW 3313   1.971   0.433   1.518
  821SOL    HW2 3314   2.053   0.386   1.536
  821SOL    HW3 3315   1.993   0.525   1.532
  821SOL    MW4 3316   1.985   0.439   1.522
  822SOL     OW 3317   2.025   0.725   1.587
  822SOL    HW2 3318   2.100   0.770   1.548
  822SOL    HW3 3319   1.949   0.772   1.552
  822SOL    MW4 3320   2.025   0.737   1.577
  823SOL     OW 3321   1.798   0.829   1.489
  823SOL    HW2 3322   1.793   0.918   1.523
  823SOL    HW3 3323   1.713   0.790   1.511
  823SOL    MW4 3324   1.786   0.836   1.497
  824SOL     OW 3325   1.766   1.084   1.563
  824SOL    HW2 3326   1.837   1.146   1.545
  824SOL    HW3 3327   1.687   1.127   1.531
  824SOL    MW4 3328   1.765   1.098   1.556
  825SOL     OW 3329   1.970   1.279   1.476
  825SOL    HW2 3330   1.946   1.360   1.522
  825SOL    HW3 3331   1.976   1.305   1.384
  825SOL    MW4 3332   1.967   1.293   1.470
  826SOL     OW 3333   2.022   1.543   1.645
  826SOL    HW2 3334   2.100   1.589   1.614
  826SOL    HW3 3335   1.949   1.594   1.611
  826SOL    MW4 3336   2.023   1.555   1.636
  827SOL     OW 3337   1.821   1.667   1.513
  827SOL    HW2 3338   1.742   1.614   1.520
  827SOL    HW3 3339   1.829   1.685   1.419
  827SOL    MW4 3340   1.812   1.662   1.501
  828SOL     OW 3341   1.788   1.929   1.618
  828SOL    HW2 3342   1.795   1.833   1.611
  828SOL    HW3 3343   1.725   1.953   1.550
  828SOL    MW4 3344   1.780   1.919   1.608
  829SOL     OW 3345   2.007   2.041   1.475
  829SOL    HW2 3346   2.079   1.994   1.516
  829SOL    HW3 3347   1.928   2.004   1.514
  829SOL    MW4 3348   2.006   2.030   1.486
  830SOL     OW 3349   2.035   2.300   1.584
  830SOL    HW2 3350   2.032   2.286   1.679
  830SOL    HW3 3351   2.043   2.211   1.548
  830SOL    MW4 3352   2.036   2.286   1.592
  831SOL     OW 3353   1.815   2.417   1.423
  831SOL    HW2 3354   1.885   2.377   1.476
  831SOL    HW3 3355   1.853   2.422   1.335
  831SOL    MW4 3356   1.830   2.412   1.419
  832SOL     OW 3357   1.773   2.665   1.596
  832SOL    HW2 3358   1.851   2.717   1.576
  832SOL    HW3 3359   1.781   2.587   1.540
  832SOL    MW4 3360   1.784   2.661   1.586
  833SOL     OW 3361   2.003   2.797   1.472
  833SOL    HW2 3362   2.017   2.883   1.511
  833SOL    HW3 3363   1.999   2.813   1.378
  833SOL    MW4 3364   2.005   2.810   1.464
  834SOL     OW 3365   2.026   3.050   1.580
  834SOL    HW2 3366   2.013   3.082   1.669
  834SOL    HW3 3367   2.093   3.108   1.543
  834SOL    MW4 3368   2.033   3.062   1.587
  835SOL     OW 3369   1.815   3.225   1.477
  835SOL    HW2 3370   1.836   3.316   1.499
  835SOL    HW3 3371   1.892   3.176   1.507
  835SOL    MW4 3372   1.828   3.231   1.484
  836SOL     OW 3373   1.840   3.510   1.544
  836SOL    HW2 3374   1.853   3.506   1.639
  836SOL    HW3 3375   1.747   3.530   1.533
  836SOL    MW4 3376   1.830   3.512   1.555
  837SOL     OW 3377   2.071   3.659   1.521
  837SOL    HW2 3378   2.131   3.587   1.540
  837SOL    HW3 3379   1.984   3.622   1.535
  837SOL    MW4 3380   2.067   3.645   1.525
  838SOL     OW 3381   2.055   3.908   1.641
  838SOL    HW2 3382   2.126   3.953   1.596
  838SOL    HW3 3383   2.069   3.815   1.621
  838SOL    MW4 3384   2.066   3.902   1.632
  839SOL     OW 3385   1.811   3.997   1.481
  839SOL    HW2 3386   1.890   3.953   1.512
  839SOL    HW3 3387   1.739   3.947   1.521
  839SOL    MW4 3388   1.812   3.985   1.491
  840SOL     OW 3389   1.827   4.247   1.593
  840SOL    HW2 3390   1.909   4.283   1.559
  840SOL    HW3 3391   1.828   4.155   1.566
  840SOL    MW4 3392   1.838   4.239   1.585
  841SOL     OW 3393   2.030   4.401   1.459
  841SOL    HW2 3394   2.115   4.378   1.499
  841SOL    HW3 3395   2.006   4.484   1.500
  841SOL    MW4 3396   2.038   4.409   1.470
  842SOL     OW 3397   2.474   4.636   1.547
  842SOL    HW2 3398   2.471   4.623   1.642
  842SOL    HW3 3399   2.386   4.667   1.525
  842SOL    MW4 3400   2.462   4.638   1.557
  843SOL     OW 3401   2.228   0.075   1.458
  843SOL    HW2 3402   2.139   0.063   1.489
  843SOL    HW3 3403   2.220   0.082   1.363
  843SOL    MW4 3404   2.215   0.074   1.450
  844SOL     OW 3405   2.213   0.325   1.562
  844SOL    HW2 3406   2.202   0.309   1.655
  844SOL    HW3 3407   2.227   0.238   1.524
  844SOL    MW4 3408   2.214   0.311   1.569
  845SOL     OW 3409   2.420   0.511   1.511
  845SOL    HW2 3410   2.493   0.478   1.563
  845SOL    HW3 3411   2.345   0.460   1.540
  845SOL    MW4 3412   2.420   0.500   1.521
  846SOL     OW 3413   2.428   0.772   1.597
  846SOL    HW2 3414   2.358   0.822   1.557
  846SOL    HW3 3415   2.419   0.684   1.561
  846SOL    MW4 3416   2.418   0.767   1.587
  847SOL     OW 3417   2.214   0.883   1.477
  847SOL    HW2 3418   2.205   0.975   1.502
  847SOL    HW3 3419   2.220   0.885   1.381
  847SOL    MW4 3420   2.213   0.896   1.468
  848SOL     OW 3421   2.195   1.138   1.552
  848SOL    HW2 3422   2.194   1.151   1.647
  848SOL    HW3 3423   2.116   1.183   1.521
  848SOL    MW4 3424   2.184   1.146   1.560
  849SOL     OW 3425   2.420   1.281   1.505
  849SOL    HW2 3426   2.343   1.228   1.527
  849SOL    HW3 3427   2.424   1.280   1.410
  849SOL    MW4 3428   2.410   1.274   1.496
  850SOL     OW 3429   2.451   1.516   1.615
  850SOL    HW2 3430   2.541   1.539   1.594
  850SOL    HW3 3431   2.441   1.426   1.583
  850SOL    MW4 3432   2.462   1.507   1.608
  851SOL     OW 3433   2.253   1.683   1.537
  851SOL    HW2 3434   2.327   1.625   1.552
  851SOL    HW3 3435   2.220   1.659   1.451
  851SOL    MW4 3436   2.258   1.672   1.528
  852SOL     OW 3437   2.228   1.955   1.613
  852SOL    HW2 3438   2.232   1.963   1.709
  852SOL    HW3 3439   2.227   1.860   1.597
  852SOL    MW4 3440   2.228   1.943   1.624
  853SOL     OW 3441   2.466   2.038   1.529
  853SOL    HW2 3442   2.386   1.998   1.563
  853SOL    HW3 3443   2.448   2.054   1.436
  853SOL    MW4 3444   2.453   2.035   1.521
  854SOL     OW 3445   2.469   2.298   1.587
  854SOL    HW2 3446   2.480   2.299   1.683
  854SOL    HW3 3447   2.453   2.206   1.566
  854SOL    MW4 3448   2.469   2.286   1.597
  855SOL     OW 3449   2.255   2.431   1.489
  855SOL    HW2 3450   2.328   2.384   1.529
  855SOL    HW3 3451   2.177   2.392   1.527
  855SOL    MW4 3452   2.254   2.420   1.499
  856SOL     OW 3453   2.222   2.695   1.583
  856SOL    HW2 3454   2.226   2.607   1.547
  856SOL    HW3 3455   2.148   2.736   1.538
  856SOL    MW4 3456   2.213   2.689   1.572
  857SOL     OW 3457   2.425   2.852   1.473
  857SOL    HW2 3458   2.416   2.937   1.515
  857SOL    HW3 3459   2.361   2.796   1.518
  857SOL    MW4 3460   2.415   2.856   1.485
  858SOL     OW 3461   2.450   3.107   1.588
  858SOL    HW2 3462   2.531   3.138   1.548
  858SOL    HW3 3463   2.381   3.152   1.540
  858SOL    MW4 3464   2.452   3.117   1.577
  859SOL     OW 3465   2.216   3.215   1.468
  859SOL    HW2 3466   2.222   3.304   1.503
  859SOL    HW3 3467   2.216   3.227   1.373
  859SOL    MW4 3468   2.217   3.228   1.460
  860SOL     OW 3469   2.264   3.453   1.584
  860SOL    HW2 3470   2.270   3.444   1.679
  860SOL    HW3 3471   2.340   3.506   1.560
  860SOL    MW4 3472   2.275   3.459   1.594
  861SOL     OW 3473   2.454   3.620   1.460
  861SOL    HW2 3474   2.533   3.575   1.490
  861SOL    HW3 3475   2.450   3.700   1.513
  861SOL    MW4 3476   2.464   3.625   1.471
  862SOL     OW 3477   2.488   3.866   1.588
  862SOL    HW2 3478   2.500   3.867   1.683
  862SOL    HW3 3479   2.572   3.896   1.553
  862SOL    MW4 3480   2.501   3.870   1.596
  863SOL     OW 3481   2.259   4.022   1.509
  863SOL    HW2 3482   2.338   3.976   1.538
  863SOL    HW3 3483   2.264   4.020   1.413
  863SOL    MW4 3484   2.270   4.015   1.500
  864SOL     OW 3485   2.231   4.293   1.587
  864SOL    HW2 3486   2.310   4.330   1.548
  864SOL    HW3 3487   2.238   4.199   1.569
  864SOL    MW4 3488   2.242   4.285   1.580
  865SOL     OW 3489   2.464   4.379   1.486
  865SOL    HW2 3490   2.468   4.472   1.507
  865SOL    HW3 3491   2.479   4.374   1.392
  865SOL    MW4 3492   2.466   4.390   1.476
  866SOL     OW 3493   2.898   0.003   1.591
  866SOL    HW2 3494   2.899   0.016   1.686
  866SOL    HW3 3495   2.821   0.052   1.562
  866SOL    MW4 3496   2.888   0.011   1.600
  867SOL     OW 3497   2.686   0.167   1.501
  867SOL    HW2 3498   2.673   0.247   1.551
  867SOL    HW3 3499   2.615   0.109   1.528
  867SOL    MW4 3500   2.675   0.170   1.511
  868SOL     OW 3501   2.671   0.421   1.618
  868SOL    HW2 3502   2.686   0.393   1.708
  868SOL    HW3 3503   2.746   0.476   1.596
  868SOL    MW4 3504   2.683   0.425   1.627
  869SOL     OW 3505   2.908   0.541   1.515
  869SOL    HW2 3506   2.914   0.629   1.552
  869SOL    HW3 3507   2.927   0.553   1.422
  869SOL    MW4 3508   2.911   0.554   1.508
  870SOL     OW 3509   2.922   0.801   1.592
  870SOL    HW2 3510   2.916   0.791   1.687
  870SOL    HW3 3511   2.845   0.852   1.568
  870SOL    MW4 3512   2.911   0.806   1.601
  871SOL     OW 3513   2.666   0.922   1.521
  871SOL    HW2 3514   2.587   0.872   1.539
  871SOL    HW3 3515   2.682   0.909   1.428
  871SOL    MW4 3516   2.658   0.914   1.511
  872SOL     OW 3517   2.686   1.194   1.580
  872SOL    HW2 3518   2.675   1.100   1.569
  872SOL    HW3 3519   2.601   1.231   1.559
  872SOL    MW4 3520   2.674   1.187   1.576
  873SOL     OW 3521   2.934   1.322   1.554
  873SOL    HW2 3522   3.005   1.260   1.569
  873SOL    HW3 3523   2.854   1.272   1.571
  873SOL    MW4 3524   2.933   1.307   1.559
  874SOL     OW 3525   2.942   1.587   1.610
  874SOL    HW2 3526   2.857   1.614   1.577
  874SOL    HW3 3527   2.950   1.495   1.584
  874SOL    MW4 3528   2.932   1.579   1.602
  875SOL     OW 3529   2.707   1.662   1.510
  875SOL    HW2 3530   2.706   1.751   1.546
  875SOL    HW3 3531   2.689   1.673   1.417
  875SOL    MW4 3532   2.704   1.675   1.502
  876SOL     OW 3533   2.709   1.923   1.610
  876SOL    HW2 3534   2.698   1.931   1.705
  876SOL    HW3 3535   2.626   1.954   1.574
  876SOL    MW4 3536   2.696   1.928   1.618
  877SOL     OW 3537   2.939   2.024   1.511
  877SOL    HW2 3538   2.946   2.095   1.575
  877SOL    HW3 3539   2.862   1.974   1.537
  877SOL    MW4 3540   2.930   2.027   1.522
  878SOL     OW 3541   2.925   2.276   1.636
  878SOL    HW2 3542   2.926   2.298   1.729
  878SOL    HW3 3543   2.841   2.309   1.604
  878SOL    MW4 3544   2.914   2.283   1.644
  879SOL     OW 3545   2.696   2.420   1.489
  879SOL    HW2 3546   2.674   2.507   1.522
  879SOL    HW3 3547   2.624   2.364   1.517
  879SOL    MW4 3548   2.684   2.424   1.497
  880SOL     OW 3549   2.650   2.700   1.553
  880SOL    HW2 3550   2.731   2.733   1.515
  880SOL    HW3 3551   2.581   2.757   1.519
  880SOL    MW4 3552   2.651   2.712   1.544
  881SOL     OW 3553   2.893   2.816   1.487
  881SOL    HW2 3554   2.966   2.772   1.531
  881SOL    HW3 3555   2.891   2.904   1.525
  881SOL    MW4 3556   2.902   2.822   1.498
  882SOL     OW 3557   2.926   3.090   1.552
  882SOL    HW2 3558   2.928   3.095   1.647
  882SOL    HW3 3559   3.000   3.144   1.523
  882SOL    MW4 3560   2.936   3.098   1.560
  883SOL     OW 3561   2.693   3.224   1.479
  883SOL    HW2 3562   2.770   3.182   1.517
  883SOL    HW3 3563   2.696   3.201   1.386
  883SOL    MW4 3564   2.704   3.215   1.472
  884SOL     OW 3565   2.700   3.500   1.550
  884SOL    HW2 3566   2.702   3.510   1.645
  884SOL    HW3 3567   2.684   3.407   1.536
  884SOL    MW4 3568   2.698   3.489   1.560
  885SOL     OW 3569   2.926   3.621   1.450
  885SOL    HW2 3570   2.851   3.569   1.479
  885SOL    HW3 3571   2.931   3.605   1.356
  885SOL    MW4 3572   2.917   3.612   1.441
  886SOL     OW 3573   2.942   3.872   1.541
  886SOL    HW2 3574   2.865   3.916   1.505
  886SOL    HW3 3575   2.928   3.779   1.523
  886SOL    MW4 3576   2.930   3.866   1.534
  887SOL     OW 3577   2.711   3.994   1.468
  887SOL    HW2 3578   2.692   4.085   1.492
  887SOL    HW3 3579   2.721   3.996   1.373
  887SOL    MW4 3580   2.710   4.006   1.459
  888SOL     OW 3581   2.680   4.245   1.561
  888SOL    HW2 3582   2.753   4.302   1.538
  888SOL    HW3 3583   2.602   4.293   1.531
  888SOL    MW4 3584   2.679   4.259   1.554
  889SOL     OW 3585   2.901   4.396   1.476
  889SOL    HW2 3586   2.896   4.487   1.507
  889SOL    HW3 3587   2.897   4.404   1.381
  889SOL    MW4 3588   2.899   4.409   1.468
  890SOL     OW 3589   3.396   4.633   1.622
  890SOL    HW2 3590   3.466   4.687   1.585
  890SOL    HW3 3591   3.384   4.562   1.559
  890SOL    MW4 3592   3.404   4.631   1.609
  891SOL     OW 3593   3.162   0.137   1.534
  891SOL    HW2 3594   3.227   0.078   1.573
  891SOL    HW3 3595   3.077   0.098   1.558
  891SOL    MW4 3596   3.159   0.124   1.542
  892SOL     OW 3597   3.133   0.396   1.609
  892SOL    HW2 3598   3.140   0.314   1.560
  892SOL    HW3 3599   3.064   0.445   1.565
  892SOL    MW4 3600   3.125   0.391   1.597
  893SOL     OW 3601   3.366   0.489   1.522
  893SOL    HW2 3602   3.279   0.470   1.558
  893SOL    HW3 3603   3.354   0.486   1.427
  893SOL    MW4 3604   3.353   0.486   1.514
  894SOL     OW 3605   3.381   0.750   1.567
  894SOL    HW2 3606   3.386   0.751   1.663
  894SOL    HW3 3607   3.381   0.658   1.543
  894SOL    MW4 3608   3.382   0.738   1.577
  895SOL     OW 3609   3.156   0.912   1.480
  895SOL    HW2 3610   3.227   0.854   1.506
  895SOL    HW3 3611   3.078   0.874   1.519
  895SOL    MW4 3612   3.155   0.900   1.488
  896SOL     OW 3613   3.168   1.186   1.572
  896SOL    HW2 3614   3.178   1.180   1.667
  896SOL    HW3 3615   3.161   1.095   1.542
  896SOL    MW4 3616   3.168   1.173   1.581
  897SOL     OW 3617   3.395   1.312   1.517
  897SOL    HW2 3618   3.477   1.270   1.544
  897SOL    HW3 3619   3.327   1.249   1.541
  897SOL    MW4 3620   3.397   1.298   1.524
  898SOL     OW 3621   3.358   1.573   1.628
  898SOL    HW2 3622   3.353   1.545   1.719
  898SOL    HW3 3623   3.366   1.492   1.578
  898SOL    MW4 3624   3.358   1.559   1.633
  899SOL     OW 3625   3.149   1.681   1.450
  899SOL    HW2 3626   3.214   1.643   1.510
  899SOL    HW3 3627   3.065   1.662   1.492
  899SOL    MW4 3628   3.146   1.673   1.464
  900SOL     OW 3629   3.182   1.910   1.577
  900SOL    HW2 3630   3.173   1.825   1.534
  900SOL    HW3 3631   3.107   1.961   1.546
  900SOL    MW4 3632   3.171   1.906   1.567
  901SOL     OW 3633   3.367   2.069   1.431
  901SOL    HW2 3634   3.301   2.025   1.484
  901SOL    HW3 3635   3.332   2.067   1.342
  901SOL    MW4 3636   3.354   2.063   1.426
  902SOL     OW 3637   3.376   2.313   1.568
  902SOL    HW2 3638   3.449   2.364   1.532
  902SOL    HW3 3639   3.369   2.237   1.509
  902SOL    MW4 3640   3.385   2.310   1.555
  903SOL     OW 3641   3.130   2.422   1.494
  903SOL    HW2 3642   3.206   2.369   1.521
  903SOL    HW3 3643   3.055   2.379   1.536
  903SOL    MW4 3644   3.130   2.409   1.503
  904SOL     OW 3645   3.115   2.688   1.598
  904SOL    HW2 3646   3.186   2.736   1.555
  904SOL    HW3 3647   3.121   2.599   1.562
  904SOL    MW4 3648   3.125   2.682   1.588
  905SOL     OW 3649   3.332   2.850   1.507
  905SOL    HW2 3650   3.332   2.941   1.536
  905SOL    HW3 3651   3.330   2.855   1.411
  905SOL    MW4 3652   3.332   2.863   1.498
  906SOL     OW 3653   3.336   3.100   1.610
  906SOL    HW2 3654   3.345   3.084   1.704
  906SOL    HW3 3655   3.420   3.135   1.582
  906SOL    MW4 3656   3.348   3.103   1.619
  907SOL     OW 3657   3.139   3.243   1.468
  907SOL    HW2 3658   3.218   3.205   1.505
  907SOL    HW3 3659   3.137   3.212   1.377
  907SOL    MW4 3660   3.149   3.234   1.461
  908SOL     OW 3661   3.141   3.516   1.596
  908SOL    HW2 3662   3.152   3.440   1.540
  908SOL    HW3 3663   3.063   3.560   1.562
  908SOL    MW4 3664   3.132   3.512   1.584
  909SOL     OW 3665   3.346   3.631   1.477
  909SOL    HW2 3666   3.414   3.588   1.528
  909SOL    HW3 3667   3.264   3.602   1.516
  909SOL    MW4 3668   3.345   3.622   1.489
  910SOL     OW 3669   3.360   3.884   1.562
  910SOL    HW2 3670   3.289   3.924   1.510
  910SOL    HW3 3671   3.358   3.791   1.537
  910SOL    MW4 3672   3.350   3.877   1.552
  911SOL     OW 3673   3.142   4.015   1.433
  911SOL    HW2 3674   3.141   4.096   1.485
  911SOL    HW3 3675   3.078   3.959   1.476
  911SOL    MW4 3676   3.133   4.019   1.445
  912SOL     OW 3677   3.133   4.249   1.568
  912SOL    HW2 3678   3.123   4.241   1.663
  912SOL    HW3 3679   3.053   4.295   1.539
  912SOL    MW4 3680   3.121   4.254   1.577
  913SOL     OW 3681   3.334   4.414   1.450
  913SOL    HW2 3682   3.266   4.354   1.481
  913SOL    HW3 3683   3.327   4.411   1.354
  913SOL    MW4 3684   3.324   4.405   1.441
  914SOL     OW 3685   3.777   4.637   1.558
  914SOL    HW2 3686   3.780   4.647   1.653
  914SOL    HW3 3687   3.856   4.680   1.527
  914SOL    MW4 3688   3.788   4.644   1.567
  915SOL     OW 3689   3.566   0.109   1.476
  915SOL    HW2 3690   3.646   0.066   1.506
  915SOL    HW3 3691   3.567   0.097   1.381
  915SOL    MW4 3692   3.577   0.102   1.468
  916SOL     OW 3693   3.580   0.342   1.600
  916SOL    HW2 3694   3.562   0.261   1.554
  916SOL    HW3 3695   3.498   0.392   1.593
  916SOL    MW4 3696   3.566   0.338   1.593
  917SOL     OW 3697   3.789   0.518   1.496
  917SOL    HW2 3698   3.712   0.464   1.516
  917SOL    HW3 3699   3.796   0.515   1.401
  917SOL    MW4 3700   3.780   0.511   1.486
  918SOL     OW 3701   3.808   0.763   1.640
  918SOL    HW2 3702   3.736   0.814   1.604
  918SOL    HW3 3703   3.800   0.676   1.600
  918SOL    MW4 3704   3.797   0.758   1.630
  919SOL     OW 3705   3.602   0.900   1.510
  919SOL    HW2 3706   3.524   0.845   1.518
  919SOL    HW3 3707   3.630   0.890   1.419
  919SOL    MW4 3708   3.596   0.892   1.499
  920SOL     OW 3709   3.606   1.161   1.625
  920SOL    HW2 3710   3.670   1.209   1.572
  920SOL    HW3 3711   3.601   1.075   1.584
  920SOL    MW4 3712   3.614   1.156   1.612
  921SOL     OW 3713   3.810   1.272   1.477
  921SOL    HW2 3714   3.890   1.235   1.514
  921SOL    HW3 3715   3.797   1.355   1.523
  921SOL    MW4 3716   3.819   1.278   1.488
  922SOL     OW 3717   3.773   1.521   1.591
  922SOL    HW2 3718   3.787   1.524   1.685
  922SOL    HW3 3719   3.712   1.592   1.573
  922SOL    MW4 3720   3.767   1.530   1.601
  923SOL     OW 3721   3.586   1.704   1.519
  923SOL    HW2 3722   3.510   1.672   1.569
  923SOL    HW3 3723   3.561   1.690   1.427
  923SOL    MW4 3724   3.572   1.698   1.514
  924SOL     OW 3725   3.602   1.961   1.566
  924SOL    HW2 3726   3.593   1.868   1.545
  924SOL    HW3 3727   3.521   2.000   1.533
  924SOL    MW4 3728   3.590   1.954   1.559
  925SOL     OW 3729   3.814   2.100   1.458
  925SOL    HW2 3730   3.808   2.190   1.491
  925SOL    HW3 3731   3.740   2.055   1.499
  925SOL    MW4 3732   3.804   2.106   1.468
  926SOL     OW 3733   3.817   2.349   1.551
  926SOL    HW2 3734   3.818   2.341   1.646
  926SOL    HW3 3735   3.901   2.389   1.529
  926SOL    MW4 3736   3.828   2.353   1.561
  927SOL     OW 3737   3.579   2.461   1.453
  927SOL    HW2 3738   3.588   2.554   1.475
  927SOL    HW3 3739   3.654   2.420   1.496
  927SOL    MW4 3740   3.590   2.468   1.462
  928SOL     OW 3741   3.592   2.740   1.527
  928SOL    HW2 3742   3.603   2.704   1.615
  928SOL    HW3 3743   3.504   2.778   1.528
  928SOL    MW4 3744   3.582   2.740   1.539
  929SOL     OW 3745   3.869   2.838   1.443
  929SOL    HW2 3746   3.925   2.776   1.489
  929SOL    HW3 3747   3.779   2.811   1.465
  929SOL    MW4 3748   3.864   2.826   1.452
  930SOL     OW 3749   3.841   3.087   1.536
  930SOL    HW2 3750   3.913   3.140   1.501
  930SOL    HW3 3751   3.866   2.997   1.514
  930SOL    MW4 3752   3.854   3.082   1.529
  931SOL     OW 3753   3.589   3.220   1.534
  931SOL    HW2 3754   3.679   3.187   1.531
  931SOL    HW3 3755   3.572   3.252   1.445
  931SOL    MW4 3756   3.598   3.220   1.522
  932SOL     OW 3757   3.556   3.504   1.616
  932SOL    HW2 3758   3.627   3.548   1.568
  932SOL    HW3 3759   3.563   3.412   1.588
  932SOL    MW4 3760   3.567   3.498   1.606
  933SOL     OW 3761   3.775   3.627   1.499
  933SOL    HW2 3762   3.861   3.586   1.509
  933SOL    HW3 3763   3.789   3.719   1.523
  933SOL    MW4 3764   3.788   3.634   1.504
  934SOL     OW 3765   3.824   3.890   1.571
  934SOL    HW2 3766   3.902   3.927   1.530
  934SOL    HW3 3767   3.751   3.937   1.532
  934SOL    MW4 3768   3.824   3.901   1.561
  935SOL     OW 3769   3.588   3.979   1.462
  935SOL    HW2 3770   3.583   4.073   1.474
  935SOL    HW3 3771   3.509   3.945   1.503
  935SOL    MW4 3772   3.577   3.987   1.469
  936SOL     OW 3773   3.550   4.253   1.529
  936SOL    HW2 3774   3.561   4.260   1.624
  936SOL    HW3 3775   3.474   4.308   1.509
  936SOL    MW4 3776   3.541   4.261   1.539
  937SOL     OW 3777   3.795   4.381   1.451
  937SOL    HW2 3778   3.715   4.334   1.473
  937SOL    HW3 3779   3.779   4.471   1.478
  937SOL    MW4 3780   3.783   4.386   1.457
  938SOL     OW 3781   4.250   0.016   1.537
  938SOL    HW2 3782   4.248   0.021   1.633
  938SOL    HW3 3783   4.285  -0.071   1.518
  938SOL    MW4 3784   4.255   0.005   1.547
  939SOL     OW 3785   3.993   0.085   1.460
  939SOL    HW2 3786   3.991   0.176   1.488
  939SOL    HW3 3787   4.071   0.049   1.502
  939SOL    MW4 3788   4.003   0.092   1.469
  940SOL     OW 3789   3.998   0.334   1.572
  940SOL    HW2 3790   4.008   0.347   1.666
  940SOL    HW3 3791   3.914   0.377   1.551
  940SOL    MW4 3792   3.988   0.342   1.581
  941SOL     OW 3793   4.216   0.508   1.481
  941SOL    HW2 3794   4.140   0.457   1.511
  941SOL    HW3 3795   4.292   0.458   1.512
  941SOL    MW4 3796   4.216   0.494   1.489
  942SOL     OW 3797   4.218   0.771   1.571
  942SOL    HW2 3798   4.230   0.676   1.560
  942SOL    HW3 3799   4.306   0.807   1.562
  942SOL    MW4 3800   4.231   0.763   1.568
  943SOL     OW 3801   3.992   0.887   1.480
  943SOL    HW2 3802   4.083   0.873   1.507
  943SOL    HW3 3803   3.940   0.832   1.539
  943SOL    MW4 3804   3.997   0.878   1.491
  944SOL     OW 3805   4.037   1.140   1.576
  944SOL    HW2 3806   4.035   1.134   1.671
  944SOL    HW3 3807   4.010   1.054   1.545
  944SOL    MW4 3808   4.033   1.128   1.584
  945SOL     OW 3809   4.273   1.256   1.502
  945SOL    HW2 3810   4.190   1.214   1.524
  945SOL    HW3 3811   4.338   1.208   1.553
  945SOL    MW4 3812   4.271   1.244   1.512
  946SOL     OW 3813   4.214   1.504   1.565
  946SOL    HW2 3814   4.237   1.411   1.562
  946SOL    HW3 3815   4.280   1.547   1.511
  946SOL    MW4 3816   4.226   1.497   1.557
  947SOL     OW 3817   3.995   1.670   1.563
  947SOL    HW2 3818   4.070   1.615   1.586
  947SOL    HW3 3819   3.919   1.616   1.583
  947SOL    MW4 3820   3.995   1.655   1.569
  948SOL     OW 3821   4.039   1.960   1.571
  948SOL    HW2 3822   4.018   1.868   1.555
  948SOL    HW3 3823   3.957   2.006   1.556
  948SOL    MW4 3824   4.025   1.954   1.567
  949SOL     OW 3825   4.289   2.065   1.483
  949SOL    HW2 3826   4.199   2.043   1.506
  949SOL    HW3 3827   4.287   2.075   1.388
  949SOL    MW4 3828   4.277   2.063   1.474
  950SOL     OW 3829   4.270   2.318   1.576
  950SOL    HW2 3830   4.258   2.311   1.671
  950SOL    HW3 3831   4.266   2.228   1.545
  950SOL    MW4 3832   4.268   2.305   1.585
  951SOL     OW 3833   4.073   2.454   1.424
  951SOL    HW2 3834   4.049   2.529   1.479
  951SOL    HW3 3835   4.135   2.405   1.477
  951SOL    MW4 3836   4.078   2.458   1.438
  952SOL     OW 3837   4.015   2.669   1.590
  952SOL    HW2 3838   4.027   2.652   1.683
  952SOL    HW3 3839   4.090   2.722   1.564
  952SOL    MW4 3840   4.026   2.674   1.599
  953SOL     OW 3841   4.212   2.843   1.517
  953SOL    HW2 3842   4.210   2.934   1.549
  953SOL    HW3 3843   4.197   2.851   1.423
  953SOL    MW4 3844   4.210   2.856   1.509
  954SOL     OW 3845   4.270   3.128   1.550
  954SOL    HW2 3846   4.284   3.137   1.645
  954SOL    HW3 3847   4.353   3.155   1.511
  954SOL    MW4 3848   4.283   3.133   1.558
  955SOL     OW 3849   4.046   3.250   1.439
  955SOL    HW2 3850   4.040   3.337   1.479
  955SOL    HW3 3851   4.122   3.209   1.480
  955SOL    MW4 3852   4.055   3.256   1.450
  956SOL     OW 3853   4.017   3.497   1.546
  956SOL    HW2 3854   4.011   3.498   1.641
  956SOL    HW3 3855   4.092   3.554   1.526
  956SOL    MW4 3856   4.026   3.505   1.556
  957SOL     OW 3857   4.290   3.601   1.478
  957SOL    HW2 3858   4.290   3.689   1.516
  957SOL    HW3 3859   4.295   3.616   1.383
  957SOL    MW4 3860   4.290   3.615   1.470
  958SOL     OW 3861   4.300   3.864   1.569
  958SOL    HW2 3862   4.222   3.905   1.532
  958SOL    HW3 3863   4.373   3.913   1.532
  958SOL    MW4 3864   4.299   3.876   1.559
  959SOL     OW 3865   4.055   3.998   1.415
  959SOL    HW2 3866   4.078   4.086   1.445
  959SOL    HW3 3867   4.060   4.003   1.319
  959SOL    MW4 3868   4.058   4.010   1.406
  960SOL     OW 3869   4.045   4.259   1.525
  960SOL    HW2 3870   4.034   4.254   1.620
  960SOL    HW3 3871   3.963   4.298   1.494
  960SOL    MW4 3872   4.032   4.263   1.533
  961SOL     OW 3873   4.279   4.401   1.460
  961SOL    HW2 3874   4.207   4.357   1.504
  961SOL    HW3 3875   4.264   4.385   1.367
  961SOL    MW4 3876   4.268   4.393   1.454
  962SOL     OW 3877   0.217   4.657   1.896
  962SOL    HW2 3878   0.300   4.699   1.917
  962SOL    HW3 3879   0.224   4.633   1.804
  962SOL    MW4 3880   0.229   4.659   1.887
  963SOL     OW 3881   4.447   0.091   1.948
  963SOL    HW2 3882   4.451   0.186   1.944
  963SOL    HW3 3883   4.538   0.062   1.933
  963SOL    MW4 3884   4.460   0.100   1.945
  964SOL     OW 3885   4.473   0.359   1.855
  964SOL    HW2 3886   4.399   0.407   1.894
  964SOL    HW3 3887   4.550   0.391   1.903
  964SOL    MW4 3888   4.473   0.370   1.867
  965SOL     OW 3889   0.194   0.515   1.928
  965SOL    HW2 3890   0.272   0.476   1.889
  965SOL    HW3 3891   0.184   0.599   1.883
  965SOL    MW4 3892   0.203   0.521   1.917
  966SOL     OW 3893   0.166   0.773   1.815
  966SOL    HW2 3894   0.247   0.821   1.832
  966SOL    HW3 3895   0.154   0.780   1.720
  966SOL    MW4 3896   0.175   0.780   1.805
  967SOL     OW 3897   4.443   0.883   1.973
  967SOL    HW2 3898   4.357   0.855   1.942
  967SOL    HW3 3899   4.504   0.856   1.904
  967SOL    MW4 3900   4.440   0.876   1.960
  968SOL     OW 3901   4.459   1.172   1.944
  968SOL    HW2 3902   4.377   1.215   1.968
  968SOL    HW3 3903   4.444   1.079   1.962
  968SOL    MW4 3904   4.446   1.165   1.949
  969SOL     OW 3905   0.220   1.268   1.959
  969SOL    HW2 3906   0.214   1.361   1.937
  969SOL    HW3 3907   0.130   1.237   1.953
  969SOL    MW4 3908   0.207   1.277   1.956
  970SOL     OW 3909   0.189   1.533   1.829
  970SOL    HW2 3910   0.266   1.577   1.864
  970SOL    HW3 3911   0.115   1.581   1.865
  970SOL    MW4 3912   0.190   1.545   1.838
  971SOL     OW 3913   4.447   1.661   1.939
  971SOL    HW2 3914   4.444   1.650   2.034
  971SOL    HW3 3915   4.367   1.620   1.907
  971SOL    MW4 3916   4.436   1.654   1.947
  972SOL     OW 3917   4.450   1.902   1.830
  972SOL    HW2 3918   4.396   1.963   1.881
  972SOL    HW3 3919   4.436   1.817   1.871
  972SOL    MW4 3920   4.441   1.899   1.842
  973SOL     OW 3921   0.218   2.006   1.909
  973SOL    HW2 3922   0.198   2.099   1.896
  973SOL    HW3 3923   0.135   1.961   1.891
  973SOL    MW4 3924   0.204   2.012   1.905
  974SOL     OW 3925   0.253   2.290   1.873
  974SOL    HW2 3926   0.329   2.346   1.889
  974SOL    HW3 3927   0.178   2.345   1.896
  974SOL    MW4 3928   0.253   2.305   1.878
  975SOL     OW 3929   0.029   2.457   1.947
  975SOL    HW2 3930   0.011   2.475   2.039
  975SOL    HW3 3931   0.006   2.539   1.901
  975SOL    MW4 3932   0.024   2.470   1.953
  976SOL     OW 3933   0.003   2.711   1.828
  976SOL    HW2 3934  -0.075   2.760   1.855
  976SOL    HW3 3935   0.008   2.724   1.734
  976SOL    MW4 3936  -0.007   2.719   1.819
  977SOL     OW 3937   0.202   2.848   1.955
  977SOL    HW2 3938   0.207   2.942   1.937
  977SOL    HW3 3939   0.132   2.816   1.899
  977SOL    MW4 3940   0.194   2.856   1.945
  978SOL     OW 3941   0.217   3.107   1.890
  978SOL    HW2 3942   0.298   3.154   1.913
  978SOL    HW3 3943   0.218   3.106   1.794
  978SOL    MW4 3944   0.228   3.113   1.880
  979SOL     OW 3945   4.478   3.251   1.951
  979SOL    HW2 3946   4.401   3.203   1.922
  979SOL    HW3 3947   4.552   3.199   1.922
  979SOL    MW4 3948   4.477   3.238   1.944
  980SOL     OW 3949   4.477   3.528   1.878
  980SOL    HW2 3950   4.560   3.568   1.906
  980SOL    HW3 3951   4.484   3.437   1.905
  980SOL    MW4 3952   4.489   3.521   1.886
  981SOL     OW 3953   0.240   3.639   1.977
  981SOL    HW2 3954   0.241   3.654   2.071
  981SOL    HW3 3955   0.308   3.573   1.962
  981SOL    MW4 3956   0.249   3.633   1.987
  982SOL     OW 3957   0.221   3.912   1.872
  982SOL    HW2 3958   0.299   3.954   1.910
  982SOL    HW3 3959   0.230   3.820   1.895
  982SOL    MW4 3960   0.233   3.905   1.880
  983SOL     OW 3961   4.488   4.024   1.989
  983SOL    HW2 3962   4.487   4.117   1.969
  983SOL    HW3 3963   4.567   3.991   1.947
  983SOL    MW4 3964   4.498   4.032   1.981
  984SOL     OW 3965   4.456   4.281   1.875
  984SOL    HW2 3966   4.387   4.326   1.924
  984SOL    HW3 3967   4.538   4.310   1.916
  984SOL    MW4 3968   4.457   4.291   1.887
  985SOL     OW 3969   0.200   4.389   1.966
  985SOL    HW2 3970   0.235   4.386   2.056
  985SOL    HW3 3971   0.207   4.480   1.940
  985SOL    MW4 3972   0.205   4.400   1.975
  986SOL     OW 3973   0.651   0.015   1.805
  986SOL    HW2 3974   0.640  -0.071   1.845
  986SOL    HW3 3975   0.665  -0.003   1.712
  986SOL    MW4 3976   0.652   0.002   1.798
  987SOL     OW 3977   0.451   0.143   1.967
  987SOL    HW2 3978   0.427   0.217   1.910
  987SOL    HW3 3979   0.522   0.099   1.921
  987SOL    MW4 3980   0.457   0.147   1.953
  988SOL     OW 3981   0.436   0.386   1.831
  988SOL    HW2 3982   0.522   0.417   1.859
  988SOL    HW3 3983   0.446   0.369   1.737
  988SOL    MW4 3984   0.448   0.388   1.822
  989SOL     OW 3985   0.657   0.492   1.945
  989SOL    HW2 3986   0.649   0.493   2.040
  989SOL    HW3 3987   0.730   0.433   1.927
  989SOL    MW4 3988   0.666   0.485   1.955
  990SOL     OW 3989   0.635   0.775   1.879
  990SOL    HW2 3990   0.720   0.805   1.913
  990SOL    HW3 3991   0.638   0.680   1.887
  990SOL    MW4 3992   0.647   0.766   1.884
  991SOL     OW 3993   0.394   0.884   1.938
  991SOL    HW2 3994   0.403   0.974   1.907
  991SOL    HW3 3995   0.481   0.846   1.925
  991SOL    MW4 3996   0.407   0.891   1.932
  992SOL     OW 3997   0.477   1.154   1.876
  992SOL    HW2 3998   0.405   1.209   1.909
  992SOL    HW3 3999   0.463   1.150   1.782
  992SOL    MW4 4000   0.465   1.161   1.868
  993SOL     OW 4001   0.723   1.306   1.950
  993SOL    HW2 4002   0.728   1.308   2.046
  993SOL    HW3 4003   0.642   1.259   1.932
  993SOL    MW4 4004   0.713   1.300   1.960
  994SOL     OW 4005   0.668   1.551   1.843
  994SOL    HW2 4006   0.679   1.461   1.875
  994SOL    HW3 4007   0.675   1.544   1.748
  994SOL    MW4 4008   0.670   1.538   1.835
  995SOL     OW 4009   0.428   1.638   1.933
  995SOL    HW2 4010   0.447   1.649   2.026
  995SOL    HW3 4011   0.509   1.601   1.896
  995SOL    MW4 4012   0.441   1.634   1.940
  996SOL     OW 4013   0.454   1.908   1.811
  996SOL    HW2 4014   0.460   1.822   1.852
  996SOL    HW3 4015   0.374   1.946   1.845
  996SOL    MW4 4016   0.444   1.902   1.821
  997SOL     OW 4017   0.651   2.041   1.943
  997SOL    HW2 4018   0.625   2.054   2.034
  997SOL    HW3 4019   0.579   1.992   1.904
  997SOL    MW4 4020   0.638   2.036   1.950
  998SOL     OW 4021   0.711   2.301   1.848
  998SOL    HW2 4022   0.693   2.211   1.875
  998SOL    HW3 4023   0.712   2.297   1.752
  998SOL    MW4 4024   0.709   2.288   1.839
  999SOL     OW 4025   0.478   2.460   1.942
  999SOL    HW2 4026   0.461   2.434   2.033
  999SOL    HW3 4027   0.551   2.404   1.915
  999SOL    MW4 4028   0.485   2.449   1.951
 1000SOL     OW 4029   0.448   2.741   1.842
 1000SOL    HW2 4030   0.451   2.663   1.896
 1000SOL    HW3 4031   0.379   2.795   1.881
 1000SOL    MW4 4032   0.439   2.738   1.854
 1001SOL     OW 4033   0.670   2.859   1.967
 1001SOL    HW2 4034   0.659   2.845   2.061
 1001SOL    HW3 4035   0.595   2.816   1.927
 1001SOL    MW4 4036   0.659   2.852   1.974
 1002SOL     OW 4037   0.677   3.095   1.836
 1002SOL    HW2 4038   0.690   3.006   1.869
 1002SOL    HW3 4039   0.672   3.085   1.741
 1002SOL    MW4 4040   0.678   3.082   1.828
 1003SOL     OW 4041   0.447   3.236   1.960
 1003SOL    HW2 4042   0.467   3.322   1.925
 1003SOL    HW3 4043   0.522   3.181   1.937
 1003SOL    MW4 4044   0.459   3.240   1.952
 1004SOL     OW 4045   0.500   3.485   1.882
 1004SOL    HW2 4046   0.583   3.526   1.907
 1004SOL    HW3 4047   0.491   3.504   1.788
 1004SOL    MW4 4048   0.510   3.493   1.873
 1005SOL     OW 4049   0.723   3.638   1.973
 1005SOL    HW2 4050   0.799   3.595   1.934
 1005SOL    HW3 4051   0.714   3.720   1.923
 1005SOL    MW4 4052   0.732   3.643   1.961
 1006SOL     OW 4053   0.674   3.867   1.827
 1006SOL    HW2 4054   0.737   3.936   1.848
 1006SOL    HW3 4055   0.683   3.856   1.732
 1006SOL    MW4 4056   0.684   3.875   1.817
 1007SOL     OW 4057   0.467   4.001   1.971
 1007SOL    HW2 4058   0.452   4.083   1.924
 1007SOL    HW3 4059   0.528   3.953   1.915
 1007SOL    MW4 4060   0.473   4.006   1.957
 1008SOL     OW 4061   0.416   4.249   1.874
 1008SOL    HW2 4062   0.334   4.298   1.882
 1008SOL    HW3 4063   0.443   4.261   1.783
 1008SOL    MW4 4064   0.408   4.257   1.863
 1009SOL     OW 4065   0.618   4.428   1.933
 1009SOL    HW2 4066   0.681   4.370   1.891
 1009SOL    HW3 4067   0.537   4.376   1.937
 1009SOL    MW4 4068   0.615   4.413   1.928
 1010SOL     OW 4069   1.120   4.640   1.832
 1010SOL    HW2 4070   1.197   4.680   1.874
 1010SOL    HW3 4071   1.105   4.560   1.881
 1010SOL    MW4 4072   1.129   4.635   1.844
 1011SOL     OW 4073   0.890   0.096   1.950
 1011SOL    HW2 4074   0.958   0.044   1.908
 1011SOL    HW3 4075   0.808   0.066   1.909
 1011SOL    MW4 4076   0.888   0.086   1.939
 1012SOL     OW 4077   0.882   0.355   1.880
 1012SOL    HW2 4078   0.960   0.399   1.913
 1012SOL    HW3 4079   0.896   0.262   1.897
 1012SOL    MW4 4080   0.894   0.349   1.886
 1013SOL     OW 4081   1.119   0.489   1.976
 1013SOL    HW2 4082   1.199   0.443   1.950
 1013SOL    HW3 4083   1.122   0.571   1.927
 1013SOL    MW4 4084   1.130   0.494   1.966
 1014SOL     OW 4085   1.108   0.730   1.861
 1014SOL    HW2 4086   1.181   0.786   1.887
 1014SOL    HW3 4087   1.031   0.773   1.899
 1014SOL    MW4 4088   1.107   0.743   1.869
 1015SOL     OW 4089   0.889   0.854   1.975
 1015SOL    HW2 4090   0.888   0.855   2.071
 1015SOL    HW3 4091   0.897   0.945   1.950
 1015SOL    MW4 4092   0.890   0.866   1.984
 1016SOL     OW 4093   0.919   1.114   1.865
 1016SOL    HW2 4094   0.856   1.182   1.888
 1016SOL    HW3 4095   0.928   1.121   1.770
 1016SOL    MW4 4096   0.912   1.124   1.855
 1017SOL     OW 4097   1.109   1.260   1.976
 1017SOL    HW2 4098   1.087   1.348   1.945
 1017SOL    HW3 4099   1.044   1.203   1.935
 1017SOL    MW4 4100   1.097   1.264   1.966
 1018SOL     OW 4101   1.095   1.518   1.884
 1018SOL    HW2 4102   1.026   1.583   1.898
 1018SOL    HW3 4103   1.102   1.511   1.788
 1018SOL    MW4 4104   1.087   1.526   1.873
 1019SOL     OW 4105   0.892   1.683   1.947
 1019SOL    HW2 4106   0.887   1.774   1.916
 1019SOL    HW3 4107   0.818   1.639   1.904
 1019SOL    MW4 4108   0.882   1.689   1.937
 1020SOL     OW 4109   0.918   1.970   1.916
 1020SOL    HW2 4110   0.831   1.993   1.950
 1020SOL    HW3 4111   0.907   1.967   1.821
 1020SOL    MW4 4112   0.905   1.972   1.908
 1021SOL     OW 4113   1.149   2.069   2.008
 1021SOL    HW2 4114   1.151   2.148   1.955
 1021SOL    HW3 4115   1.070   2.023   1.980
 1021SOL    MW4 4116   1.139   2.073   1.997
 1022SOL     OW 4117   1.161   2.313   1.879
 1022SOL    HW2 4118   1.238   2.368   1.893
 1022SOL    HW3 4119   1.158   2.299   1.785
 1022SOL    MW4 4120   1.170   2.318   1.869
 1023SOL     OW 4121   0.924   2.433   1.954
 1023SOL    HW2 4122   1.004   2.386   1.927
 1023SOL    HW3 4123   0.854   2.390   1.906
 1023SOL    MW4 4124   0.926   2.421   1.944
 1024SOL     OW 4125   0.881   2.683   1.841
 1024SOL    HW2 4126   0.889   2.597   1.881
 1024SOL    HW3 4127   0.820   2.731   1.897
 1024SOL    MW4 4128   0.874   2.678   1.853
 1025SOL     OW 4129   1.125   2.787   1.908
 1025SOL    HW2 4130   1.108   2.789   2.002
 1025SOL    HW3 4131   1.046   2.751   1.870
 1025SOL    MW4 4132   1.113   2.782   1.916
 1026SOL     OW 4133   1.111   3.070   1.851
 1026SOL    HW2 4134   1.031   3.113   1.882
 1026SOL    HW3 4135   1.102   2.980   1.882
 1026SOL    MW4 4136   1.099   3.064   1.859
 1027SOL     OW 4137   0.890   3.221   1.944
 1027SOL    HW2 4138   0.875   3.216   2.038
 1027SOL    HW3 4139   0.816   3.175   1.905
 1027SOL    MW4 4140   0.878   3.214   1.951
 1028SOL     OW 4141   0.952   3.497   1.856
 1028SOL    HW2 4142   0.942   3.406   1.885
 1028SOL    HW3 4143   0.919   3.497   1.766
 1028SOL    MW4 4144   0.946   3.485   1.848
 1029SOL     OW 4145   1.177   3.600   1.956
 1029SOL    HW2 4146   1.176   3.586   2.050
 1029SOL    HW3 4147   1.098   3.555   1.924
 1029SOL    MW4 4148   1.166   3.592   1.964
 1030SOL     OW 4149   1.077   3.851   1.876
 1030SOL    HW2 4150   1.106   3.764   1.902
 1030SOL    HW3 4151   1.084   3.852   1.781
 1030SOL    MW4 4152   1.082   3.840   1.867
 1031SOL     OW 4153   0.873   4.015   1.943
 1031SOL    HW2 4154   0.871   4.015   2.039
 1031SOL    HW3 4155   0.949   3.961   1.921
 1031SOL    MW4 4156   0.883   4.008   1.953
 1032SOL     OW 4157   0.862   4.293   1.853
 1032SOL    HW2 4158   0.922   4.348   1.904
 1032SOL    HW3 4159   0.874   4.205   1.891
 1032SOL    MW4 4160   0.872   4.288   1.865
 1033SOL     OW 4161   1.096   4.419   1.979
 1033SOL    HW2 4162   1.098   4.431   2.074
 1033SOL    HW3 4163   1.159   4.349   1.963
 1033SOL    MW4 4164   1.105   4.412   1.990
 1034SOL     OW 4165   1.527   4.638   1.851
 1034SOL    HW2 4166   1.607   4.683   1.878
 1034SOL    HW3 4167   1.540   4.547   1.879
 1034SOL    MW4 4168   1.539   4.632   1.859
 1035SOL     OW 4169   1.322   0.143   1.918
 1035SOL    HW2 4170   1.328   0.148   2.013
 1035SOL    HW3 4171   1.396   0.087   1.892
 1035SOL    MW4 4172   1.333   0.137   1.927
 1036SOL     OW 4173   1.353   0.403   1.843
 1036SOL    HW2 4174   1.334   0.313   1.870
 1036SOL    HW3 4175   1.338   0.404   1.749
 1036SOL    MW4 4176   1.349   0.391   1.834
 1037SOL     OW 4177   1.557   0.509   1.971
 1037SOL    HW2 4178   1.638   0.465   1.944
 1037SOL    HW3 4179   1.490   0.473   1.912
 1037SOL    MW4 4180   1.559   0.498   1.960
 1038SOL     OW 4181   1.551   0.767   1.895
 1038SOL    HW2 4182   1.627   0.801   1.941
 1038SOL    HW3 4183   1.535   0.681   1.935
 1038SOL    MW4 4184   1.559   0.760   1.906
 1039SOL     OW 4185   1.322   0.891   1.947
 1039SOL    HW2 4186   1.309   0.894   2.042
 1039SOL    HW3 4187   1.405   0.844   1.936
 1039SOL    MW4 4188   1.331   0.885   1.958
 1040SOL     OW 4189   1.337   1.156   1.857
 1040SOL    HW2 4190   1.358   1.069   1.889
 1040SOL    HW3 4191   1.265   1.186   1.912
 1040SOL    MW4 4192   1.330   1.149   1.868
 1041SOL     OW 4193   1.578   1.283   1.947
 1041SOL    HW2 4194   1.601   1.365   1.902
 1041SOL    HW3 4195   1.492   1.261   1.914
 1041SOL    MW4 4196   1.570   1.291   1.937
 1042SOL     OW 4197   1.612   1.556   1.839
 1042SOL    HW2 4198   1.666   1.609   1.897
 1042SOL    HW3 4199   1.524   1.595   1.846
 1042SOL    MW4 4200   1.607   1.568   1.847
 1043SOL     OW 4201   1.334   1.674   1.920
 1043SOL    HW2 4202   1.335   1.655   2.014
 1043SOL    HW3 4203   1.261   1.621   1.886
 1043SOL    MW4 4204   1.324   1.664   1.928
 1044SOL     OW 4205   1.354   1.949   1.842
 1044SOL    HW2 4206   1.338   1.859   1.873
 1044SOL    HW3 4207   1.291   2.002   1.891
 1044SOL    MW4 4208   1.344   1.944   1.853
 1045SOL     OW 4209   1.542   2.081   1.988
 1045SOL    HW2 4210   1.560   2.161   1.939
 1045SOL    HW3 4211   1.488   2.028   1.929
 1045SOL    MW4 4212   1.538   2.084   1.974
 1046SOL     OW 4213   1.586   2.318   1.838
 1046SOL    HW2 4214   1.662   2.361   1.878
 1046SOL    HW3 4215   1.598   2.330   1.744
 1046SOL    MW4 4216   1.598   2.325   1.831
 1047SOL     OW 4217   1.388   2.481   1.959
 1047SOL    HW2 4218   1.385   2.565   1.912
 1047SOL    HW3 4219   1.464   2.436   1.923
 1047SOL    MW4 4220   1.397   2.487   1.948
 1048SOL     OW 4221   1.371   2.725   1.809
 1048SOL    HW2 4222   1.278   2.733   1.831
 1048SOL    HW3 4223   1.373   2.712   1.715
 1048SOL    MW4 4224   1.359   2.725   1.800
 1049SOL     OW 4225   1.578   2.833   1.953
 1049SOL    HW2 4226   1.656   2.788   1.920
 1049SOL    HW3 4227   1.506   2.795   1.903
 1049SOL    MW4 4228   1.579   2.822   1.942
 1050SOL     OW 4229   1.586   3.099   1.847
 1050SOL    HW2 4230   1.596   3.004   1.860
 1050SOL    HW3 4231   1.562   3.109   1.755
 1050SOL    MW4 4232   1.584   3.088   1.837
 1051SOL     OW 4233   1.346   3.187   1.969
 1051SOL    HW2 4234   1.430   3.150   1.941
 1051SOL    HW3 4235   1.283   3.155   1.904
 1051SOL    MW4 4236   1.349   3.178   1.957
 1052SOL     OW 4237   1.378   3.443   1.830
 1052SOL    HW2 4238   1.383   3.363   1.883
 1052SOL    HW3 4239   1.315   3.498   1.877
 1052SOL    MW4 4240   1.370   3.439   1.843
 1053SOL     OW 4241   1.572   3.605   1.932
 1053SOL    HW2 4242   1.555   3.602   2.026
 1053SOL    HW3 4243   1.510   3.543   1.894
 1053SOL    MW4 4244   1.561   3.597   1.939
 1054SOL     OW 4245   1.505   3.851   1.830
 1054SOL    HW2 4246   1.579   3.901   1.865
 1054SOL    HW3 4247   1.519   3.762   1.863
 1054SOL    MW4 4248   1.516   3.846   1.839
 1055SOL     OW 4249   1.290   3.974   1.969
 1055SOL    HW2 4250   1.367   3.936   1.927
 1055SOL    HW3 4251   1.217   3.923   1.937
 1055SOL    MW4 4252   1.291   3.962   1.959
 1056SOL     OW 4253   1.298   4.249   1.899
 1056SOL    HW2 4254   1.298   4.160   1.936
 1056SOL    HW3 4255   1.315   4.236   1.806
 1056SOL    MW4 4256   1.300   4.235   1.891
 1057SOL     OW 4257   1.539   4.382   1.944
 1057SOL    HW2 4258   1.552   4.385   2.039
 1057SOL    HW3 4259   1.451   4.346   1.932
 1057SOL    MW4 4260   1.529   4.378   1.955
 1058SOL     OW 4261   2.008   4.640   1.872
 1058SOL    HW2 4262   2.079   4.683   1.920
 1058SOL    HW3 4263   1.989   4.561   1.923
 1058SOL    MW4 4264   2.014   4.635   1.885
 1059SOL     OW 4265   1.764   0.087   1.965
 1059SOL    HW2 4266   1.775   0.099   2.059
 1059SOL    HW3 4267   1.842   0.038   1.938
 1059SOL    MW4 4268   1.776   0.082   1.974
 1060SOL     OW 4269   1.792   0.360   1.888
 1060SOL    HW2 4270   1.786   0.270   1.920
 1060SOL    HW3 4271   1.775   0.353   1.794
 1060SOL    MW4 4272   1.789   0.347   1.880
 1061SOL     OW 4273   2.027   0.492   1.900
 1061SOL    HW2 4274   2.012   0.585   1.884
 1061SOL    HW3 4275   1.941   0.452   1.886
 1061SOL    MW4 4276   2.013   0.499   1.896
 1062SOL     OW 4277   2.003   0.773   1.874
 1062SOL    HW2 4278   2.088   0.797   1.912
 1062SOL    HW3 4279   2.019   0.770   1.780
 1062SOL    MW4 4280   2.017   0.776   1.867
 1063SOL     OW 4281   1.780   0.883   1.996
 1063SOL    HW2 4282   1.783   0.975   1.966
 1063SOL    HW3 4283   1.846   0.839   1.943
 1063SOL    MW4 4284   1.789   0.890   1.985
 1064SOL     OW 4285   1.776   1.127   1.836
 1064SOL    HW2 4286   1.701   1.179   1.866
 1064SOL    HW3 4287   1.764   1.120   1.741
 1064SOL    MW4 4288   1.764   1.133   1.828
 1065SOL     OW 4289   2.007   1.260   1.926
 1065SOL    HW2 4290   2.082   1.218   1.884
 1065SOL    HW3 4291   1.930   1.216   1.889
 1065SOL    MW4 4292   2.007   1.249   1.916
 1066SOL     OW 4293   2.003   1.536   1.914
 1066SOL    HW2 4294   1.990   1.442   1.931
 1066SOL    HW3 4295   2.026   1.541   1.822
 1066SOL    MW4 4296   2.004   1.524   1.904
 1067SOL     OW 4297   1.781   1.696   1.994
 1067SOL    HW2 4298   1.801   1.788   1.977
 1067SOL    HW3 4299   1.859   1.649   1.966
 1067SOL    MW4 4300   1.794   1.702   1.988
 1068SOL     OW 4301   1.785   1.964   1.890
 1068SOL    HW2 4302   1.711   2.005   1.934
 1068SOL    HW3 4303   1.759   1.961   1.798
 1068SOL    MW4 4304   1.772   1.969   1.884
 1069SOL     OW 4305   2.009   2.071   2.008
 1069SOL    HW2 4306   2.085   2.031   1.967
 1069SOL    HW3 4307   1.934   2.029   1.966
 1069SOL    MW4 4308   2.009   2.060   1.997
 1070SOL     OW 4309   2.038   2.306   1.863
 1070SOL    HW2 4310   2.109   2.352   1.908
 1070SOL    HW3 4311   2.025   2.226   1.914
 1070SOL    MW4 4312   2.046   2.301   1.875
 1071SOL     OW 4313   1.807   2.425   1.970
 1071SOL    HW2 4314   1.796   2.433   2.065
 1071SOL    HW3 4315   1.886   2.372   1.959
 1071SOL    MW4 4316   1.816   2.419   1.981
 1072SOL     OW 4317   1.797   2.692   1.870
 1072SOL    HW2 4318   1.815   2.610   1.916
 1072SOL    HW3 4319   1.781   2.665   1.780
 1072SOL    MW4 4320   1.797   2.677   1.864
 1073SOL     OW 4321   2.036   2.823   1.942
 1073SOL    HW2 4322   2.039   2.802   2.036
 1073SOL    HW3 4323   1.956   2.781   1.911
 1073SOL    MW4 4324   2.026   2.815   1.951
 1074SOL     OW 4325   1.997   3.083   1.859
 1074SOL    HW2 4326   1.936   3.136   1.909
 1074SOL    HW3 4327   1.997   2.998   1.904
 1074SOL    MW4 4328   1.989   3.079   1.872
 1075SOL     OW 4329   1.785   3.269   1.933
 1075SOL    HW2 4330   1.802   3.247   2.024
 1075SOL    HW3 4331   1.713   3.210   1.908
 1075SOL    MW4 4332   1.778   3.258   1.942
 1076SOL     OW 4333   1.822   3.521   1.822
 1076SOL    HW2 4334   1.791   3.437   1.855
 1076SOL    HW3 4335   1.750   3.582   1.840
 1076SOL    MW4 4336   1.809   3.518   1.829
 1077SOL     OW 4337   2.044   3.572   1.985
 1077SOL    HW2 4338   2.037   3.667   1.977
 1077SOL    HW3 4339   1.962   3.538   1.950
 1077SOL    MW4 4340   2.032   3.580   1.979
 1078SOL     OW 4341   2.009   3.872   1.909
 1078SOL    HW2 4342   2.081   3.923   1.947
 1078SOL    HW3 4343   2.026   3.874   1.815
 1078SOL    MW4 4344   2.021   3.879   1.901
 1079SOL     OW 4345   1.736   3.970   1.921
 1079SOL    HW2 4346   1.747   4.059   1.890
 1079SOL    HW3 4347   1.825   3.935   1.927
 1079SOL    MW4 4348   1.749   3.977   1.918
 1080SOL     OW 4349   1.768   4.245   1.865
 1080SOL    HW2 4350   1.686   4.286   1.893
 1080SOL    HW3 4351   1.765   4.247   1.770
 1080SOL    MW4 4352   1.757   4.251   1.856
 1081SOL     OW 4353   1.972   4.393   1.990
 1081SOL    HW2 4354   2.047   4.368   1.937
 1081SOL    HW3 4355   1.897   4.351   1.949
 1081SOL    MW4 4356   1.972   4.384   1.978
 1082SOL     OW 4357   2.467   4.630   1.823
 1082SOL    HW2 4358   2.549   4.675   1.845
 1082SOL    HW3 4359   2.465   4.555   1.883
 1082SOL    MW4 4360   2.478   4.626   1.834
 1083SOL     OW 4361   2.246   0.100   1.988
 1083SOL    HW2 4362   2.240   0.105   2.083
 1083SOL    HW3 4363   2.334   0.067   1.971
 1083SOL    MW4 4364   2.257   0.096   1.998
 1084SOL     OW 4365   2.226   0.332   1.837
 1084SOL    HW2 4366   2.232   0.258   1.897
 1084SOL    HW3 4367   2.158   0.388   1.875
 1084SOL    MW4 4368   2.218   0.330   1.850
 1085SOL     OW 4369   2.430   0.506   1.938
 1085SOL    HW2 4370   2.513   0.462   1.922
 1085SOL    HW3 4371   2.366   0.459   1.885
 1085SOL    MW4 4372   2.432   0.494   1.929
 1086SOL     OW 4373   2.480   0.765   1.883
 1086SOL    HW2 4374   2.471   0.670   1.891
 1086SOL    HW3 4375   2.469   0.783   1.790
 1086SOL    MW4 4376   2.478   0.755   1.872
 1087SOL     OW 4377   2.238   0.867   1.958
 1087SOL    HW2 4378   2.251   0.866   2.053
 1087SOL    HW3 4379   2.313   0.818   1.923
 1087SOL    MW4 4380   2.250   0.860   1.966
 1088SOL     OW 4381   2.225   1.141   1.829
 1088SOL    HW2 4382   2.288   1.192   1.880
 1088SOL    HW3 4383   2.227   1.054   1.869
 1088SOL    MW4 4384   2.234   1.136   1.841
 1089SOL     OW 4385   2.440   1.294   1.937
 1089SOL    HW2 4386   2.426   1.298   2.032
 1089SOL    HW3 4387   2.450   1.385   1.910
 1089SOL    MW4 4388   2.439   1.306   1.946
 1090SOL     OW 4389   2.444   1.568   1.894
 1090SOL    HW2 4390   2.367   1.616   1.922
 1090SOL    HW3 4391   2.438   1.566   1.798
 1090SOL    MW4 4392   2.433   1.574   1.885
 1091SOL     OW 4393   2.207   1.698   1.996
 1091SOL    HW2 4394   2.198   1.715   2.090
 1091SOL    HW3 4395   2.136   1.637   1.975
 1091SOL    MW4 4396   2.196   1.692   2.005
 1092SOL     OW 4397   2.236   1.968   1.880
 1092SOL    HW2 4398   2.313   2.003   1.924
 1092SOL    HW3 4399   2.227   1.879   1.914
 1092SOL    MW4 4400   2.245   1.961   1.890
 1093SOL     OW 4401   2.456   2.072   1.984
 1093SOL    HW2 4402   2.532   2.032   1.943
 1093SOL    HW3 4403   2.458   2.164   1.956
 1093SOL    MW4 4404   2.466   2.079   1.975
 1094SOL     OW 4405   2.481   2.329   1.864
 1094SOL    HW2 4406   2.553   2.377   1.905
 1094SOL    HW3 4407   2.402   2.369   1.902
 1094SOL    MW4 4408   2.480   2.341   1.875
 1095SOL     OW 4409   2.256   2.446   1.985
 1095SOL    HW2 4410   2.250   2.452   2.080
 1095SOL    HW3 4411   2.258   2.537   1.955
 1095SOL    MW4 4412   2.255   2.459   1.994
 1096SOL     OW 4413   2.268   2.699   1.873
 1096SOL    HW2 4414   2.192   2.750   1.901
 1096SOL    HW3 4415   2.250   2.679   1.781
 1096SOL    MW4 4416   2.256   2.703   1.864
 1097SOL     OW 4417   2.503   2.817   1.975
 1097SOL    HW2 4418   2.499   2.906   1.939
 1097SOL    HW3 4419   2.434   2.769   1.928
 1097SOL    MW4 4420   2.493   2.823   1.964
 1098SOL     OW 4421   2.499   3.091   1.847
 1098SOL    HW2 4422   2.416   3.126   1.879
 1098SOL    HW3 4423   2.496   3.103   1.752
 1098SOL    MW4 4424   2.488   3.097   1.839
 1099SOL     OW 4425   2.255   3.170   1.940
 1099SOL    HW2 4426   2.232   3.168   2.033
 1099SOL    HW3 4427   2.183   3.126   1.896
 1099SOL    MW4 4428   2.243   3.164   1.946
 1100SOL     OW 4429   2.261   3.440   1.861
 1100SOL    HW2 4430   2.249   3.346   1.877
 1100SOL    HW3 4431   2.181   3.480   1.897
 1100SOL    MW4 4432   2.249   3.433   1.868
 1101SOL     OW 4433   2.480   3.610   1.962
 1101SOL    HW2 4434   2.488   3.586   2.054
 1101SOL    HW3 4435   2.397   3.569   1.935
 1101SOL    MW4 4436   2.470   3.602   1.971
 1102SOL     OW 4437   2.508   3.863   1.863
 1102SOL    HW2 4438   2.428   3.900   1.900
 1102SOL    HW3 4439   2.515   3.776   1.904
 1102SOL    MW4 4440   2.498   3.857   1.874
 1103SOL     OW 4441   2.269   4.009   1.959
 1103SOL    HW2 4442   2.261   4.001   2.054
 1103SOL    HW3 4443   2.261   4.103   1.942
 1103SOL    MW4 4444   2.267   4.020   1.969
 1104SOL     OW 4445   2.229   4.271   1.884
 1104SOL    HW2 4446   2.313   4.315   1.895
 1104SOL    HW3 4447   2.215   4.269   1.789
 1104SOL    MW4 4448   2.238   4.276   1.873
 1105SOL     OW 4449   2.462   4.396   1.968
 1105SOL    HW2 4450   2.468   4.378   2.062
 1105SOL    HW3 4451   2.524   4.334   1.928
 1105SOL    MW4 4452   2.471   4.385   1.975
 1106SOL     OW 4453   2.890   0.024   1.876
 1106SOL    HW2 4454   2.974   0.058   1.908
 1106SOL    HW3 4455   2.889  -0.067   1.905
 1106SOL    MW4 4456   2.901   0.017   1.884
 1107SOL     OW 4457   2.654   0.112   1.966
 1107SOL    HW2 4458   2.645   0.102   2.061
 1107SOL    HW3 4459   2.746   0.092   1.948
 1107SOL    MW4 4460   2.665   0.108   1.976
 1108SOL     OW 4461   2.673   0.392   1.893
 1108SOL    HW2 4462   2.747   0.435   1.935
 1108SOL    HW3 4463   2.676   0.302   1.924
 1108SOL    MW4 4464   2.683   0.386   1.903
 1109SOL     OW 4465   2.914   0.505   1.978
 1109SOL    HW2 4466   2.987   0.451   1.945
 1109SOL    HW3 4467   2.933   0.593   1.947
 1109SOL    MW4 4468   2.926   0.509   1.969
 1110SOL     OW 4469   2.939   0.763   1.870
 1110SOL    HW2 4470   3.019   0.808   1.896
 1110SOL    HW3 4471   2.871   0.802   1.925
 1110SOL    MW4 4472   2.941   0.774   1.880
 1111SOL     OW 4473   2.723   0.916   1.976
 1111SOL    HW2 4474   2.710   1.005   1.943
 1111SOL    HW3 4475   2.648   0.867   1.942
 1111SOL    MW4 4476   2.712   0.921   1.967
 1112SOL     OW 4477   2.675   1.165   1.854
 1112SOL    HW2 4478   2.596   1.206   1.890
 1112SOL    HW3 4479   2.667   1.178   1.760
 1112SOL    MW4 4480   2.663   1.172   1.846
 1113SOL     OW 4481   2.931   1.253   1.959
 1113SOL    HW2 4482   2.933   1.345   1.934
 1113SOL    HW3 4483   2.855   1.218   1.912
 1113SOL    MW4 4484   2.921   1.260   1.949
 1114SOL     OW 4485   2.912   1.526   1.890
 1114SOL    HW2 4486   2.987   1.573   1.928
 1114SOL    HW3 4487   2.916   1.549   1.797
 1114SOL    MW4 4488   2.923   1.535   1.882
 1115SOL     OW 4489   2.692   1.682   1.985
 1115SOL    HW2 4490   2.758   1.624   1.946
 1115SOL    HW3 4491   2.608   1.645   1.956
 1115SOL    MW4 4492   2.689   1.669   1.976
 1116SOL     OW 4493   2.686   1.936   1.894
 1116SOL    HW2 4494   2.772   1.972   1.918
 1116SOL    HW3 4495   2.685   1.848   1.932
 1116SOL    MW4 4496   2.697   1.929   1.902
 1117SOL     OW 4497   2.939   2.046   1.943
 1117SOL    HW2 4498   2.946   2.046   2.038
 1117SOL    HW3 4499   3.023   2.013   1.913
 1117SOL    MW4 4500   2.951   2.042   1.952
 1118SOL     OW 4501   2.942   2.319   1.898
 1118SOL    HW2 4502   3.026   2.358   1.921
 1118SOL    HW3 4503   2.946   2.230   1.930
 1118SOL    MW4 4504   2.953   2.313   1.905
 1119SOL     OW 4505   2.692   2.463   1.974
 1119SOL    HW2 4506   2.705   2.546   1.928
 1119SOL    HW3 4507   2.778   2.421   1.971
 1119SOL    MW4 4508   2.705   2.469   1.968
 1120SOL     OW 4509   2.709   2.713   1.823
 1120SOL    HW2 4510   2.632   2.753   1.864
 1120SOL    HW3 4511   2.693   2.722   1.729
 1120SOL    MW4 4512   2.697   2.720   1.816
 1121SOL     OW 4513   2.904   2.840   1.987
 1121SOL    HW2 4514   2.911   2.925   1.944
 1121SOL    HW3 4515   2.834   2.794   1.941
 1121SOL    MW4 4516   2.896   2.845   1.976
 1122SOL     OW 4517   2.917   3.081   1.836
 1122SOL    HW2 4518   2.980   3.128   1.889
 1122SOL    HW3 4519   2.833   3.121   1.858
 1122SOL    MW4 4520   2.914   3.093   1.846
 1123SOL     OW 4521   2.710   3.223   1.948
 1123SOL    HW2 4522   2.707   3.311   1.911
 1123SOL    HW3 4523   2.626   3.184   1.924
 1123SOL    MW4 4524   2.699   3.229   1.940
 1124SOL     OW 4525   2.709   3.486   1.847
 1124SOL    HW2 4526   2.789   3.520   1.888
 1124SOL    HW3 4527   2.638   3.538   1.886
 1124SOL    MW4 4528   2.710   3.498   1.858
 1125SOL     OW 4529   2.934   3.606   1.929
 1125SOL    HW2 4530   2.925   3.604   2.025
 1125SOL    HW3 4531   3.014   3.555   1.913
 1125SOL    MW4 4532   2.944   3.599   1.940
 1126SOL     OW 4533   2.934   3.863   1.830
 1126SOL    HW2 4534   2.927   3.769   1.849
 1126SOL    HW3 4535   2.945   3.867   1.735
 1126SOL    MW4 4536   2.934   3.851   1.820
 1127SOL     OW 4537   2.732   4.014   1.944
 1127SOL    HW2 4538   2.802   3.956   1.914
 1127SOL    HW3 4539   2.652   3.967   1.924
 1127SOL    MW4 4540   2.731   4.000   1.938
 1128SOL     OW 4541   2.676   4.268   1.847
 1128SOL    HW2 4542   2.697   4.178   1.872
 1128SOL    HW3 4543   2.672   4.267   1.751
 1128SOL    MW4 4544   2.678   4.256   1.838
 1129SOL     OW 4545   2.895   4.419   1.935
 1129SOL    HW2 4546   2.894   4.414   2.031
 1129SOL    HW3 4547   2.819   4.368   1.908
 1129SOL    MW4 4548   2.885   4.412   1.944
 1130SOL     OW 4549   3.345   4.647   1.896
 1130SOL    HW2 4550   3.357   4.555   1.920
 1130SOL    HW3 4551   3.363   4.650   1.802
 1130SOL    MW4 4552   3.349   4.635   1.887
 1131SOL     OW 4553   3.128   0.116   1.975
 1131SOL    HW2 4554   3.116   0.111   2.070
 1131SOL    HW3 4555   3.202   0.058   1.957
 1131SOL    MW4 4556   3.136   0.108   1.986
 1132SOL     OW 4557   3.142   0.384   1.895
 1132SOL    HW2 4558   3.139   0.292   1.923
 1132SOL    HW3 4559   3.133   0.379   1.799
 1132SOL    MW4 4560   3.141   0.371   1.886
 1133SOL     OW 4561   3.356   0.522   1.965
 1133SOL    HW2 4562   3.426   0.461   1.940
 1133SOL    HW3 4563   3.275   0.474   1.946
 1133SOL    MW4 4564   3.355   0.508   1.959
 1134SOL     OW 4565   3.386   0.763   1.838
 1134SOL    HW2 4566   3.313   0.814   1.872
 1134SOL    HW3 4567   3.377   0.676   1.878
 1134SOL    MW4 4568   3.376   0.758   1.848
 1135SOL     OW 4569   3.163   0.899   1.955
 1135SOL    HW2 4570   3.159   0.902   2.050
 1135SOL    HW3 4571   3.169   0.991   1.928
 1135SOL    MW4 4572   3.163   0.911   1.964
 1136SOL     OW 4573   3.154   1.152   1.843
 1136SOL    HW2 4574   3.222   1.180   1.904
 1136SOL    HW3 4575   3.073   1.192   1.877
 1136SOL    MW4 4576   3.152   1.161   1.855
 1137SOL     OW 4577   3.372   1.229   1.997
 1137SOL    HW2 4578   3.358   1.227   2.092
 1137SOL    HW3 4579   3.363   1.322   1.974
 1137SOL    MW4 4580   3.369   1.241   2.007
 1138SOL     OW 4581   3.359   1.487   1.895
 1138SOL    HW2 4582   3.432   1.549   1.904
 1138SOL    HW3 4583   3.286   1.530   1.940
 1138SOL    MW4 4584   3.359   1.501   1.902
 1139SOL     OW 4585   3.162   1.635   2.000
 1139SOL    HW2 4586   3.141   1.647   2.093
 1139SOL    HW3 4587   3.154   1.723   1.962
 1139SOL    MW4 4588   3.158   1.648   2.007
 1140SOL     OW 4589   3.160   1.887   1.854
 1140SOL    HW2 4590   3.225   1.946   1.892
 1140SOL    HW3 4591   3.181   1.885   1.761
 1140SOL    MW4 4592   3.171   1.895   1.847
 1141SOL     OW 4593   3.351   2.057   1.985
 1141SOL    HW2 4594   3.431   2.014   1.954
 1141SOL    HW3 4595   3.356   2.146   1.952
 1141SOL    MW4 4596   3.362   2.063   1.977
 1142SOL     OW 4597   3.370   2.302   1.852
 1142SOL    HW2 4598   3.298   2.356   1.885
 1142SOL    HW3 4599   3.366   2.312   1.757
 1142SOL    MW4 4600   3.360   2.310   1.844
 1143SOL     OW 4601   3.167   2.444   1.983
 1143SOL    HW2 4602   3.146   2.440   2.076
 1143SOL    HW3 4603   3.140   2.531   1.956
 1143SOL    MW4 4604   3.161   2.455   1.992
 1144SOL     OW 4605   3.134   2.702   1.882
 1144SOL    HW2 4606   3.054   2.747   1.912
 1144SOL    HW3 4607   3.123   2.697   1.786
 1144SOL    MW4 4608   3.122   2.708   1.873
 1145SOL     OW 4609   3.385   2.820   1.922
 1145SOL    HW2 4610   3.408   2.821   2.015
 1145SOL    HW3 4611   3.293   2.794   1.920
 1145SOL    MW4 4612   3.376   2.817   1.934
 1146SOL     OW 4613   3.354   3.095   1.876
 1146SOL    HW2 4614   3.425   3.152   1.906
 1146SOL    HW3 4615   3.384   3.007   1.897
 1146SOL    MW4 4616   3.367   3.091   1.883
 1147SOL     OW 4617   3.115   3.192   1.971
 1147SOL    HW2 4618   3.130   3.284   1.951
 1147SOL    HW3 4619   3.191   3.147   1.934
 1147SOL    MW4 4620   3.127   3.198   1.963
 1148SOL     OW 4621   3.158   3.442   1.859
 1148SOL    HW2 4622   3.222   3.510   1.880
 1148SOL    HW3 4623   3.145   3.450   1.764
 1148SOL    MW4 4624   3.165   3.452   1.849
 1149SOL     OW 4625   3.347   3.640   1.946
 1149SOL    HW2 4626   3.426   3.600   1.910
 1149SOL    HW3 4627   3.352   3.731   1.918
 1149SOL    MW4 4628   3.358   3.647   1.937
 1150SOL     OW 4629   3.380   3.893   1.853
 1150SOL    HW2 4630   3.296   3.937   1.867
 1150SOL    HW3 4631   3.381   3.874   1.759
 1150SOL    MW4 4632   3.369   3.896   1.842
 1151SOL     OW 4633   3.140   4.000   1.953
 1151SOL    HW2 4634   3.124   3.992   2.047
 1151SOL    HW3 4635   3.068   3.951   1.912
 1151SOL    MW4 4636   3.128   3.993   1.960
 1152SOL     OW 4637   3.123   4.244   1.844
 1152SOL    HW2 4638   3.120   4.170   1.904
 1152SOL    HW3 4639   3.040   4.289   1.857
 1152SOL    MW4 4640   3.112   4.240   1.854
 1153SOL     OW 4641   3.353   4.355   1.956
 1153SOL    HW2 4642   3.429   4.317   1.912
 1153SOL    HW3 4643   3.278   4.309   1.918
 1153SOL    MW4 4644   3.353   4.344   1.945
 1154SOL     OW 4645   3.801   4.656   1.846
 1154SOL    HW2 4646   3.797   4.562   1.861
 1154SOL    HW3 4647   3.733   4.693   1.904
 1154SOL    MW4 4648   3.791   4.648   1.856
 1155SOL     OW 4649   3.592   0.112   1.977
 1155SOL    HW2 4650   3.605   0.113   2.072
 1155SOL    HW3 4651   3.508   0.068   1.965
 1155SOL    MW4 4652   3.583   0.107   1.988
 1156SOL     OW 4653   3.558   0.362   1.871
 1156SOL    HW2 4654   3.575   0.274   1.903
 1156SOL    HW3 4655   3.566   0.355   1.776
 1156SOL    MW4 4656   3.562   0.350   1.863
 1157SOL     OW 4657   3.777   0.483   1.991
 1157SOL    HW2 4658   3.767   0.575   1.967
 1157SOL    HW3 4659   3.702   0.440   1.951
 1157SOL    MW4 4660   3.766   0.490   1.983
 1158SOL     OW 4661   3.787   0.745   1.921
 1158SOL    HW2 4662   3.720   0.801   1.960
 1158SOL    HW3 4663   3.778   0.759   1.826
 1158SOL    MW4 4664   3.777   0.754   1.913
 1159SOL     OW 4665   3.568   0.882   2.004
 1159SOL    HW2 4666   3.582   0.966   1.959
 1159SOL    HW3 4667   3.502   0.837   1.951
 1159SOL    MW4 4668   3.561   0.887   1.991
 1160SOL     OW 4669   3.617   1.133   1.911
 1160SOL    HW2 4670   3.539   1.169   1.952
 1160SOL    HW3 4671   3.601   1.141   1.817
 1160SOL    MW4 4672   3.605   1.139   1.904
 1161SOL     OW 4673   3.825   1.294   1.993
 1161SOL    HW2 4674   3.821   1.296   2.088
 1161SOL    HW3 4675   3.755   1.234   1.967
 1161SOL    MW4 4676   3.815   1.287   2.002
 1162SOL     OW 4677   3.828   1.557   1.867
 1162SOL    HW2 4678   3.909   1.601   1.892
 1162SOL    HW3 4679   3.834   1.470   1.907
 1162SOL    MW4 4680   3.839   1.551   1.875
 1163SOL     OW 4681   3.584   1.664   1.950
 1163SOL    HW2 4682   3.570   1.755   1.924
 1163SOL    HW3 4683   3.671   1.642   1.915
 1163SOL    MW4 4684   3.594   1.673   1.942
 1164SOL     OW 4685   3.569   1.939   1.837
 1164SOL    HW2 4686   3.649   1.983   1.864
 1164SOL    HW3 4687   3.564   1.954   1.743
 1164SOL    MW4 4688   3.579   1.947   1.828
 1165SOL     OW 4689   3.792   2.065   1.942
 1165SOL    HW2 4690   3.874   2.024   1.915
 1165SOL    HW3 4691   3.793   2.151   1.900
 1165SOL    MW4 4692   3.803   2.071   1.933
 1166SOL     OW 4693   3.828   2.318   1.828
 1166SOL    HW2 4694   3.902   2.338   1.884
 1166SOL    HW3 4695   3.757   2.374   1.860
 1166SOL    MW4 4696   3.828   2.328   1.840
 1167SOL     OW 4697   3.599   2.437   1.918
 1167SOL    HW2 4698   3.602   2.520   1.870
 1167SOL    HW3 4699   3.519   2.394   1.888
 1167SOL    MW4 4700   3.589   2.443   1.908
 1168SOL     OW 4701   3.617   2.677   1.808
 1168SOL    HW2 4702   3.678   2.736   1.853
 1168SOL    HW3 4703   3.531   2.717   1.822
 1168SOL    MW4 4704   3.614   2.690   1.816
 1169SOL     OW 4705   3.828   2.826   1.923
 1169SOL    HW2 4706   3.818   2.829   2.018
 1169SOL    HW3 4707   3.824   2.917   1.896
 1169SOL    MW4 4708   3.826   2.838   1.932
 1170SOL     OW 4709   3.804   3.096   1.844
 1170SOL    HW2 4710   3.729   3.155   1.860
 1170SOL    HW3 4711   3.816   3.098   1.749
 1170SOL    MW4 4712   3.795   3.104   1.834
 1171SOL     OW 4713   3.582   3.249   1.947
 1171SOL    HW2 4714   3.592   3.243   2.042
 1171SOL    HW3 4715   3.577   3.343   1.929
 1171SOL    MW4 4716   3.582   3.261   1.957
 1172SOL     OW 4717   3.588   3.520   1.882
 1172SOL    HW2 4718   3.676   3.547   1.907
 1172SOL    HW3 4719   3.590   3.514   1.786
 1172SOL    MW4 4720   3.600   3.523   1.873
 1173SOL     OW 4721   3.840   3.600   1.945
 1173SOL    HW2 4722   3.913   3.545   1.916
 1173SOL    HW3 4723   3.862   3.687   1.911
 1173SOL    MW4 4724   3.853   3.604   1.936
 1174SOL     OW 4725   3.796   3.883   1.850
 1174SOL    HW2 4726   3.717   3.932   1.875
 1174SOL    HW3 4727   3.801   3.894   1.755
 1174SOL    MW4 4728   3.786   3.891   1.841
 1175SOL     OW 4729   3.582   4.034   1.970
 1175SOL    HW2 4730   3.559   4.041   2.062
 1175SOL    HW3 4731   3.523   3.968   1.935
 1175SOL    MW4 4732   3.571   4.026   1.977
 1176SOL     OW 4733   3.578   4.265   1.817
 1176SOL    HW2 4734   3.666   4.292   1.843
 1176SOL    HW3 4735   3.567   4.178   1.854
 1176SOL    MW4 4736   3.588   4.257   1.826
 1177SOL     OW 4737   3.819   4.398   1.926
 1177SOL    HW2 4738   3.830   4.379   2.019
 1177SOL    HW3 4739   3.901   4.371   1.885
 1177SOL    MW4 4740   3.831   4.392   1.933
 1178SOL     OW 4741   4.226   4.638   1.837
 1178SOL    HW2 4742   4.158   4.692   1.877
 1178SOL    HW3 4743   4.307   4.667   1.878
 1178SOL    MW4 4744   4.228   4.649   1.847
 1179SOL     OW 4745   4.030   0.114   1.946
 1179SOL    HW2 4746   4.028   0.109   2.042
 1179SOL    HW3 4747   3.943   0.086   1.919
 1179SOL    MW4 4748   4.019   0.109   1.955
 1180SOL     OW 4749   4.001   0.382   1.846
 1180SOL    HW2 4750   4.019   0.301   1.894
 1180SOL    HW3 4751   3.912   0.405   1.871
 1180SOL    MW4 4752   3.992   0.374   1.856
 1181SOL     OW 4753   4.245   0.486   1.952
 1181SOL    HW2 4754   4.223   0.495   2.045
 1181SOL    HW3 4755   4.161   0.466   1.909
 1181SOL    MW4 4756   4.231   0.484   1.958
 1182SOL     OW 4757   4.215   0.747   1.857
 1182SOL    HW2 4758   4.230   0.659   1.890
 1182SOL    HW3 4759   4.214   0.738   1.762
 1182SOL    MW4 4760   4.217   0.734   1.849
 1183SOL     OW 4761   4.008   0.899   1.964
 1183SOL    HW2 4762   4.072   0.841   1.922
 1183SOL    HW3 4763   3.924   0.855   1.952
 1183SOL    MW4 4764   4.005   0.885   1.957
 1184SOL     OW 4765   4.021   1.153   1.842
 1184SOL    HW2 4766   4.020   1.064   1.879
 1184SOL    HW3 4767   3.949   1.198   1.886
 1184SOL    MW4 4768   4.011   1.147   1.853
 1185SOL     OW 4769   4.205   1.296   1.981
 1185SOL    HW2 4770   4.174   1.311   2.070
 1185SOL    HW3 4771   4.134   1.249   1.938
 1185SOL    MW4 4772   4.192   1.292   1.987
 1186SOL     OW 4773   4.232   1.529   1.840
 1186SOL    HW2 4774   4.228   1.442   1.879
 1186SOL    HW3 4775   4.221   1.514   1.746
 1186SOL    MW4 4776   4.230   1.515   1.833
 1187SOL     OW 4777   4.056   1.718   1.933
 1187SOL    HW2 4778   4.054   1.699   2.026
 1187SOL    HW3 4779   4.122   1.659   1.897
 1187SOL    MW4 4780   4.064   1.708   1.940
 1188SOL     OW 4781   4.027   1.972   1.858
 1188SOL    HW2 4782   4.042   1.879   1.878
 1188SOL    HW3 4783   4.032   1.978   1.763
 1188SOL    MW4 4784   4.029   1.961   1.848
 1189SOL     OW 4785   4.271   2.056   1.972
 1189SOL    HW2 4786   4.265   2.051   2.067
 1189SOL    HW3 4787   4.184   2.033   1.940
 1189SOL    MW4 4788   4.259   2.052   1.980
 1190SOL     OW 4789   4.294   2.316   1.857
 1190SOL    HW2 4790   4.307   2.234   1.904
 1190SOL    HW3 4791   4.356   2.376   1.897
 1190SOL    MW4 4792   4.304   2.313   1.868
 1191SOL     OW 4793   4.063   2.393   1.962
 1191SOL    HW2 4794   4.055   2.386   2.057
 1191SOL    HW3 4795   4.154   2.370   1.944
 1191SOL    MW4 4796   4.074   2.389   1.972
 1192SOL     OW 4797   4.040   2.668   1.846
 1192SOL    HW2 4798   4.012   2.582   1.876
 1192SOL    HW3 4799   3.966   2.726   1.865
 1192SOL    MW4 4800   4.027   2.664   1.852
 1193SOL     OW 4801   4.246   2.831   1.933
 1193SOL    HW2 4802   4.248   2.853   2.027
 1193SOL    HW3 4803   4.178   2.763   1.926
 1193SOL    MW4 4804   4.237   2.825   1.945
 1194SOL     OW 4805   4.268   3.092   1.839
 1194SOL    HW2 4806   4.188   3.133   1.873
 1194SOL    HW3 4807   4.267   3.004   1.875
 1194SOL    MW4 4808   4.257   3.086   1.848
 1195SOL     OW 4809   4.051   3.222   1.922
 1195SOL    HW2 4810   4.055   3.231   2.017
 1195SOL    HW3 4811   3.973   3.169   1.906
 1195SOL    MW4 4812   4.042   3.216   1.932
 1196SOL     OW 4813   4.043   3.474   1.830
 1196SOL    HW2 4814   4.114   3.521   1.874
 1196SOL    HW3 4815   4.049   3.384   1.863
 1196SOL    MW4 4816   4.053   3.468   1.840
 1197SOL     OW 4817   4.235   3.641   1.978
 1197SOL    HW2 4818   4.233   3.730   1.941
 1197SOL    HW3 4819   4.308   3.599   1.935
 1197SOL    MW4 4820   4.244   3.647   1.967
 1198SOL     OW 4821   4.259   3.884   1.851
 1198SOL    HW2 4822   4.331   3.921   1.901
 1198SOL    HW3 4823   4.293   3.876   1.762
 1198SOL    MW4 4824   4.273   3.888   1.846
 1199SOL     OW 4825   4.022   4.015   1.932
 1199SOL    HW2 4826   4.098   3.972   1.892
 1199SOL    HW3 4827   3.946   3.970   1.896
 1199SOL    MW4 4828   4.022   4.003   1.922
 1200SOL     OW 4829   4.038   4.258   1.805
 1200SOL    HW2 4830   4.104   4.296   1.865
 1200SOL    HW3 4831   4.027   4.168   1.836
 1200SOL    MW4 4832   4.046   4.251   1.817
 1201SOL     OW 4833   4.199   4.403   1.970
 1201SOL    HW2 4834   4.217   4.405   2.064
 1201SOL    HW3 4835   4.214   4.493   1.941
 1201SOL    MW4 4836   4.204   4.415   1.979
 1202SOL     OW 4837   0.212   4.653   2.340
 1202SOL    HW2 4838   0.203   4.658   2.435
 1202SOL    HW3 4839   0.294   4.698   2.320
 1202SOL    MW4 4840   0.221   4.659   2.350
 1203SOL     OW 4841   4.490   0.123   2.215
 1203SOL    HW2 4842   4.567   0.075   2.246
 1203SOL    HW3 4843   4.477   0.091   2.126
 1203SOL    MW4 4844   4.499   0.112   2.207
 1204SOL     OW 4845   4.468   0.380   2.315
 1204SOL    HW2 4846   4.546   0.419   2.276
 1204SOL    HW3 4847   4.474   0.287   2.291
 1204SOL    MW4 4848   4.479   0.373   2.307
 1205SOL     OW 4849   0.191   0.516   2.198
 1205SOL    HW2 4850   0.280   0.485   2.215
 1205SOL    HW3 4851   0.185   0.522   2.102
 1205SOL    MW4 4852   0.202   0.513   2.187
 1206SOL     OW 4853   0.186   0.760   2.318
 1206SOL    HW2 4854   0.170   0.736   2.409
 1206SOL    HW3 4855   0.181   0.677   2.270
 1206SOL    MW4 4856   0.183   0.746   2.324
 1207SOL     OW 4857   4.467   0.911   2.244
 1207SOL    HW2 4858   4.540   0.856   2.273
 1207SOL    HW3 4859   4.475   0.913   2.149
 1207SOL    MW4 4860   4.478   0.904   2.235
 1208SOL     OW 4861   4.475   1.188   2.329
 1208SOL    HW2 4862   4.477   1.188   2.425
 1208SOL    HW3 4863   4.480   1.095   2.305
 1208SOL    MW4 4864   4.476   1.176   2.339
 1209SOL     OW 4865   0.222   1.329   2.225
 1209SOL    HW2 4866   0.137   1.306   2.262
 1209SOL    HW3 4867   0.213   1.314   2.131
 1209SOL    MW4 4868   0.210   1.324   2.218
 1210SOL     OW 4869   0.208   1.572   2.353
 1210SOL    HW2 4870   0.217   1.584   2.448
 1210SOL    HW3 4871   0.227   1.480   2.338
 1210SOL    MW4 4872   0.212   1.562   2.363
 1211SOL     OW 4873   4.469   1.663   2.216
 1211SOL    HW2 4874   4.469   1.748   2.260
 1211SOL    HW3 4875   4.546   1.618   2.252
 1211SOL    MW4 4876   4.479   1.669   2.226
 1212SOL     OW 4877   4.476   1.927   2.346
 1212SOL    HW2 4878   4.408   1.979   2.304
 1212SOL    HW3 4879   4.559   1.966   2.316
 1212SOL    MW4 4880   4.478   1.939   2.337
 1213SOL     OW 4881   0.201   2.043   2.200
 1213SOL    HW2 4882   0.285   2.004   2.226
 1213SOL    HW3 4883   0.197   2.030   2.106
 1213SOL    MW4 4884   0.212   2.036   2.191
 1214SOL     OW 4885   0.194   2.333   2.312
 1214SOL    HW2 4886   0.172   2.316   2.404
 1214SOL    HW3 4887   0.213   2.247   2.275
 1214SOL    MW4 4888   0.193   2.320   2.319
 1215SOL     OW 4889   4.475   2.480   2.220
 1215SOL    HW2 4890   4.484   2.569   2.254
 1215SOL    HW3 4891   4.554   2.434   2.251
 1215SOL    MW4 4892   4.486   2.485   2.229
 1216SOL     OW 4893   4.473   2.742   2.303
 1216SOL    HW2 4894   4.479   2.732   2.398
 1216SOL    HW3 4895   4.549   2.797   2.281
 1216SOL    MW4 4896   4.484   2.748   2.313
 1217SOL     OW 4897   0.222   2.874   2.240
 1217SOL    HW2 4898   0.294   2.813   2.255
 1217SOL    HW3 4899   0.196   2.857   2.149
 1217SOL    MW4 4900   0.228   2.863   2.230
 1218SOL     OW 4901   0.236   3.125   2.353
 1218SOL    HW2 4902   0.152   3.159   2.321
 1218SOL    HW3 4903   0.239   3.035   2.318
 1218SOL    MW4 4904   0.225   3.117   2.344
 1219SOL     OW 4905   4.486   3.221   2.237
 1219SOL    HW2 4906   4.475   3.309   2.272
 1219SOL    HW3 4907   4.486   3.233   2.142
 1219SOL    MW4 4908   4.484   3.234   2.229
 1220SOL     OW 4909   0.019   3.512   2.313
 1220SOL    HW2 4910  -0.005   3.516   2.406
 1220SOL    HW3 4911  -0.037   3.578   2.272
 1220SOL    MW4 4912   0.008   3.521   2.320
 1221SOL     OW 4913   0.261   3.654   2.251
 1221SOL    HW2 4914   0.332   3.616   2.304
 1221SOL    HW3 4915   0.184   3.601   2.274
 1221SOL    MW4 4916   0.260   3.642   2.261
 1222SOL     OW 4917   0.258   3.919   2.335
 1222SOL    HW2 4918   0.181   3.965   2.300
 1222SOL    HW3 4919   0.255   3.833   2.294
 1222SOL    MW4 4920   0.248   3.914   2.325
 1223SOL     OW 4921   0.022   4.012   2.255
 1223SOL    HW2 4922   0.047   4.103   2.271
 1223SOL    HW3 4923  -0.001   4.010   2.162
 1223SOL    MW4 4924   0.022   4.024   2.245
 1224SOL     OW 4925   0.045   4.268   2.333
 1224SOL    HW2 4926   0.037   4.284   2.427
 1224SOL    HW3 4927   0.133   4.299   2.311
 1224SOL    MW4 4928   0.055   4.274   2.343
 1225SOL     OW 4929   0.287   4.391   2.243
 1225SOL    HW2 4930   0.370   4.360   2.280
 1225SOL    HW3 4931   0.274   4.478   2.282
 1225SOL    MW4 4932   0.296   4.398   2.253
 1226SOL     OW 4933   0.667   0.006   2.333
 1226SOL    HW2 4934   0.673  -0.012   2.426
 1226SOL    HW3 4935   0.746   0.055   2.312
 1226SOL    MW4 4936   0.678   0.010   2.342
 1227SOL     OW 4937   0.426   0.123   2.261
 1227SOL    HW2 4938   0.510   0.079   2.271
 1227SOL    HW3 4939   0.416   0.135   2.167
 1227SOL    MW4 4940   0.436   0.119   2.250
 1228SOL     OW 4941   0.451   0.391   2.311
 1228SOL    HW2 4942   0.452   0.406   2.405
 1228SOL    HW3 4943   0.453   0.296   2.302
 1228SOL    MW4 4944   0.452   0.381   2.322
 1229SOL     OW 4945   0.662   0.519   2.212
 1229SOL    HW2 4946   0.657   0.611   2.241
 1229SOL    HW3 4947   0.590   0.476   2.258
 1229SOL    MW4 4948   0.652   0.526   2.222
 1230SOL     OW 4949   0.628   0.760   2.305
 1230SOL    HW2 4950   0.625   0.762   2.400
 1230SOL    HW3 4951   0.546   0.802   2.278
 1230SOL    MW4 4952   0.617   0.766   2.314
 1231SOL     OW 4953   0.407   0.908   2.227
 1231SOL    HW2 4954   0.334   0.858   2.263
 1231SOL    HW3 4955   0.400   0.897   2.133
 1231SOL    MW4 4956   0.396   0.900   2.220
 1232SOL     OW 4957   0.438   1.160   2.358
 1232SOL    HW2 4958   0.419   1.072   2.324
 1232SOL    HW3 4959   0.385   1.218   2.304
 1232SOL    MW4 4960   0.428   1.156   2.346
 1233SOL     OW 4961   0.687   1.271   2.233
 1233SOL    HW2 4962   0.694   1.350   2.286
 1233SOL    HW3 4963   0.614   1.222   2.271
 1233SOL    MW4 4964   0.678   1.275   2.245
 1234SOL     OW 4965   0.677   1.522   2.341
 1234SOL    HW2 4966   0.673   1.551   2.432
 1234SOL    HW3 4967   0.758   1.560   2.307
 1234SOL    MW4 4968   0.688   1.531   2.348
 1235SOL     OW 4969   0.444   1.652   2.228
 1235SOL    HW2 4970   0.507   1.594   2.269
 1235SOL    HW3 4971   0.363   1.639   2.278
 1235SOL    MW4 4972   0.441   1.643   2.240
 1236SOL     OW 4973   0.427   1.931   2.291
 1236SOL    HW2 4974   0.500   1.986   2.261
 1236SOL    HW3 4975   0.452   1.842   2.266
 1236SOL    MW4 4976   0.440   1.927   2.284
 1237SOL     OW 4977   0.633   2.083   2.209
 1237SOL    HW2 4978   0.698   2.025   2.249
 1237SOL    HW3 4979   0.630   2.159   2.267
 1237SOL    MW4 4980   0.641   2.086   2.222
 1238SOL     OW 4981   0.647   2.316   2.338
 1238SOL    HW2 4982   0.643   2.283   2.428
 1238SOL    HW3 4983   0.733   2.358   2.332
 1238SOL    MW4 4984   0.658   2.317   2.349
 1239SOL     OW 4985   0.433   2.448   2.213
 1239SOL    HW2 4986   0.510   2.418   2.262
 1239SOL    HW3 4987   0.358   2.415   2.262
 1239SOL    MW4 4988   0.434   2.440   2.226
 1240SOL     OW 4989   0.442   2.709   2.311
 1240SOL    HW2 4990   0.451   2.693   2.405
 1240SOL    HW3 4991   0.431   2.622   2.273
 1240SOL    MW4 4992   0.441   2.695   2.318
 1241SOL     OW 4993   0.661   2.856   2.255
 1241SOL    HW2 4994   0.729   2.791   2.271
 1241SOL    HW3 4995   0.579   2.809   2.268
 1241SOL    MW4 4996   0.659   2.842   2.258
 1242SOL     OW 4997   0.664   3.122   2.352
 1242SOL    HW2 4998   0.583   3.158   2.317
 1242SOL    HW3 4999   0.661   3.029   2.329
 1242SOL    MW4 5000   0.653   3.115   2.344
 1243SOL     OW 5001   0.447   3.269   2.236
 1243SOL    HW2 5002   0.372   3.224   2.275
 1243SOL    HW3 5003   0.435   3.258   2.142
 1243SOL    MW4 5004   0.435   3.262   2.229
 1244SOL     OW 5005   0.463   3.508   2.354
 1244SOL    HW2 5006   0.541   3.558   2.329
 1244SOL    HW3 5007   0.469   3.428   2.302
 1244SOL    MW4 5008   0.474   3.504   2.344
 1245SOL     OW 5009   0.673   3.648   2.236
 1245SOL    HW2 5010   0.684   3.741   2.256
 1245SOL    HW3 5011   0.692   3.641   2.143
 1245SOL    MW4 5012   0.677   3.659   2.227
 1246SOL     OW 5013   0.680   3.912   2.362
 1246SOL    HW2 5014   0.662   3.907   2.456
 1246SOL    HW3 5015   0.611   3.968   2.327
 1246SOL    MW4 5016   0.669   3.919   2.370
 1247SOL     OW 5017   0.468   4.041   2.241
 1247SOL    HW2 5018   0.390   3.995   2.270
 1247SOL    HW3 5019   0.472   4.025   2.147
 1247SOL    MW4 5020   0.458   4.033   2.233
 1248SOL     OW 5021   0.518   4.273   2.368
 1248SOL    HW2 5022   0.591   4.310   2.318
 1248SOL    HW3 5023   0.495   4.193   2.321
 1248SOL    MW4 5024   0.524   4.267   2.356
 1249SOL     OW 5025   0.701   4.416   2.211
 1249SOL    HW2 5026   0.695   4.508   2.235
 1249SOL    HW3 5027   0.689   4.415   2.116
 1249SOL    MW4 5028   0.698   4.428   2.201
 1250SOL     OW 5029   1.138   0.007   2.321
 1250SOL    HW2 5030   1.138  -0.012   2.415
 1250SOL    HW3 5031   1.062   0.063   2.308
 1250SOL    MW4 5032   1.128   0.012   2.332
 1251SOL     OW 5033   0.908   0.154   2.254
 1251SOL    HW2 5034   0.896   0.245   2.281
 1251SOL    HW3 5035   0.922   0.160   2.159
 1251SOL    MW4 5036   0.908   0.167   2.245
 1252SOL     OW 5037   0.882   0.422   2.348
 1252SOL    HW2 5038   0.961   0.465   2.316
 1252SOL    HW3 5039   0.812   0.457   2.293
 1252SOL    MW4 5040   0.883   0.432   2.336
 1253SOL     OW 5041   1.112   0.566   2.248
 1253SOL    HW2 5042   1.188   0.514   2.275
 1253SOL    HW3 5043   1.103   0.549   2.155
 1253SOL    MW4 5044   1.121   0.557   2.240
 1254SOL     OW 5045   1.111   0.825   2.372
 1254SOL    HW2 5046   1.023   0.847   2.341
 1254SOL    HW3 5047   1.127   0.737   2.339
 1254SOL    MW4 5048   1.101   0.816   2.363
 1255SOL     OW 5049   0.877   0.884   2.238
 1255SOL    HW2 5050   0.870   0.976   2.264
 1255SOL    HW3 5051   0.791   0.846   2.259
 1255SOL    MW4 5052   0.865   0.891   2.244
 1256SOL     OW 5053   0.889   1.133   2.341
 1256SOL    HW2 5054   0.966   1.185   2.316
 1256SOL    HW3 5055   0.815   1.183   2.308
 1256SOL    MW4 5056   0.890   1.147   2.333
 1257SOL     OW 5057   1.124   1.246   2.246
 1257SOL    HW2 5058   1.216   1.239   2.271
 1257SOL    HW3 5059   1.126   1.241   2.150
 1257SOL    MW4 5060   1.137   1.244   2.236
 1258SOL     OW 5061   1.142   1.535   2.296
 1258SOL    HW2 5062   1.064   1.578   2.263
 1258SOL    HW3 5063   1.129   1.442   2.275
 1258SOL    MW4 5064   1.130   1.528   2.289
 1259SOL     OW 5065   0.884   1.654   2.221
 1259SOL    HW2 5066   0.876   1.745   2.249
 1259SOL    HW3 5067   0.892   1.659   2.126
 1259SOL    MW4 5068   0.884   1.667   2.212
 1260SOL     OW 5069   0.856   1.911   2.327
 1260SOL    HW2 5070   0.863   1.901   2.422
 1260SOL    HW3 5071   0.936   1.959   2.303
 1260SOL    MW4 5072   0.868   1.916   2.337
 1261SOL     OW 5073   1.097   2.042   2.278
 1261SOL    HW2 5074   1.165   1.980   2.305
 1261SOL    HW3 5075   1.105   2.045   2.182
 1261SOL    MW4 5076   1.107   2.034   2.269
 1262SOL     OW 5077   1.102   2.325   2.365
 1262SOL    HW2 5078   1.179   2.364   2.323
 1262SOL    HW3 5079   1.101   2.235   2.334
 1262SOL    MW4 5080   1.112   2.318   2.355
 1263SOL     OW 5081   0.889   2.438   2.235
 1263SOL    HW2 5082   0.959   2.384   2.272
 1263SOL    HW3 5083   0.901   2.432   2.141
 1263SOL    MW4 5084   0.900   2.430   2.228
 1264SOL     OW 5085   0.878   2.685   2.308
 1264SOL    HW2 5086   0.871   2.683   2.403
 1264SOL    HW3 5087   0.888   2.594   2.283
 1264SOL    MW4 5088   0.878   2.673   2.317
 1265SOL     OW 5089   1.074   2.830   2.170
 1265SOL    HW2 5090   1.158   2.792   2.196
 1265SOL    HW3 5091   1.008   2.776   2.214
 1265SOL    MW4 5092   1.076   2.818   2.179
 1266SOL     OW 5093   1.076   3.073   2.361
 1266SOL    HW2 5094   1.005   3.123   2.318
 1266SOL    HW3 5095   1.075   2.989   2.316
 1266SOL    MW4 5096   1.066   3.069   2.349
 1267SOL     OW 5097   0.873   3.218   2.217
 1267SOL    HW2 5098   0.885   3.303   2.260
 1267SOL    HW3 5099   0.799   3.178   2.264
 1267SOL    MW4 5100   0.865   3.224   2.229
 1268SOL     OW 5101   0.877   3.482   2.320
 1268SOL    HW2 5102   0.872   3.494   2.415
 1268SOL    HW3 5103   0.807   3.537   2.286
 1268SOL    MW4 5104   0.867   3.491   2.328
 1269SOL     OW 5105   1.143   3.599   2.247
 1269SOL    HW2 5106   1.212   3.550   2.291
 1269SOL    HW3 5107   1.062   3.553   2.271
 1269SOL    MW4 5108   1.141   3.586   2.256
 1270SOL     OW 5109   1.115   3.863   2.328
 1270SOL    HW2 5110   1.190   3.917   2.302
 1270SOL    HW3 5111   1.139   3.774   2.299
 1270SOL    MW4 5112   1.128   3.858   2.321
 1271SOL     OW 5113   0.892   3.999   2.227
 1271SOL    HW2 5114   0.963   3.945   2.263
 1271SOL    HW3 5115   0.815   3.973   2.276
 1271SOL    MW4 5116   0.891   3.988   2.238
 1272SOL     OW 5117   0.896   4.263   2.345
 1272SOL    HW2 5118   0.907   4.180   2.299
 1272SOL    HW3 5119   0.818   4.302   2.306
 1272SOL    MW4 5120   0.887   4.257   2.334
 1273SOL     OW 5121   1.109   4.406   2.251
 1273SOL    HW2 5122   1.034   4.361   2.290
 1273SOL    HW3 5123   1.113   4.491   2.296
 1273SOL    MW4 5124   1.100   4.412   2.262
 1274SOL     OW 5125   1.568   4.664   2.308
 1274SOL    HW2 5126   1.646   4.716   2.289
 1274SOL    HW3 5127   1.498   4.707   2.258
 1274SOL    MW4 5128   1.569   4.677   2.299
 1275SOL     OW 5129   1.344   0.134   2.185
 1275SOL    HW2 5130   1.335   0.225   2.215
 1275SOL    HW3 5131   1.272   0.087   2.227
 1275SOL    MW4 5132   1.333   0.140   2.194
 1276SOL     OW 5133   1.330   0.389   2.330
 1276SOL    HW2 5134   1.325   0.367   2.423
 1276SOL    HW3 5135   1.414   0.434   2.320
 1276SOL    MW4 5136   1.341   0.392   2.341
 1277SOL     OW 5137   1.569   0.512   2.259
 1277SOL    HW2 5138   1.651   0.466   2.276
 1277SOL    HW3 5139   1.558   0.506   2.164
 1277SOL    MW4 5140   1.578   0.505   2.248
 1278SOL     OW 5141   1.550   0.786   2.324
 1278SOL    HW2 5142   1.634   0.821   2.293
 1278SOL    HW3 5143   1.552   0.694   2.299
 1278SOL    MW4 5144   1.561   0.779   2.316
 1279SOL     OW 5145   1.326   0.931   2.216
 1279SOL    HW2 5146   1.408   0.886   2.237
 1279SOL    HW3 5147   1.263   0.896   2.278
 1279SOL    MW4 5148   1.329   0.921   2.227
 1280SOL     OW 5149   1.375   1.190   2.329
 1280SOL    HW2 5150   1.375   1.185   2.425
 1280SOL    HW3 5151   1.367   1.100   2.300
 1280SOL    MW4 5152   1.374   1.178   2.338
 1281SOL     OW 5153   1.621   1.282   2.240
 1281SOL    HW2 5154   1.540   1.249   2.279
 1281SOL    HW3 5155   1.599   1.298   2.148
 1281SOL    MW4 5156   1.608   1.280   2.233
 1282SOL     OW 5157   1.575   1.516   2.346
 1282SOL    HW2 5158   1.631   1.577   2.298
 1282SOL    HW3 5159   1.590   1.432   2.303
 1282SOL    MW4 5160   1.584   1.513   2.334
 1283SOL     OW 5161   1.375   1.629   2.190
 1283SOL    HW2 5162   1.450   1.606   2.243
 1283SOL    HW3 5163   1.303   1.577   2.226
 1283SOL    MW4 5164   1.375   1.619   2.201
 1284SOL     OW 5165   1.319   1.872   2.326
 1284SOL    HW2 5166   1.389   1.938   2.319
 1284SOL    HW3 5167   1.350   1.798   2.275
 1284SOL    MW4 5168   1.333   1.871   2.319
 1285SOL     OW 5169   1.511   2.061   2.281
 1285SOL    HW2 5170   1.591   2.016   2.309
 1285SOL    HW3 5171   1.518   2.067   2.186
 1285SOL    MW4 5172   1.522   2.056   2.272
 1286SOL     OW 5173   1.501   2.358   2.359
 1286SOL    HW2 5174   1.490   2.354   2.454
 1286SOL    HW3 5175   1.506   2.266   2.332
 1286SOL    MW4 5176   1.500   2.345   2.368
 1287SOL     OW 5177   1.297   2.485   2.218
 1287SOL    HW2 5178   1.363   2.433   2.264
 1287SOL    HW3 5179   1.327   2.485   2.127
 1287SOL    MW4 5180   1.310   2.478   2.212
 1288SOL     OW 5181   1.317   2.748   2.309
 1288SOL    HW2 5182   1.408   2.769   2.289
 1288SOL    HW3 5183   1.305   2.659   2.275
 1288SOL    MW4 5184   1.328   2.739   2.302
 1289SOL     OW 5185   1.593   2.863   2.220
 1289SOL    HW2 5186   1.588   2.958   2.229
 1289SOL    HW3 5187   1.592   2.847   2.125
 1289SOL    MW4 5188   1.592   2.873   2.208
 1290SOL     OW 5189   1.578   3.131   2.292
 1290SOL    HW2 5190   1.578   3.108   2.385
 1290SOL    HW3 5191   1.485   3.141   2.270
 1290SOL    MW4 5192   1.566   3.129   2.301
 1291SOL     OW 5193   1.299   3.193   2.249
 1291SOL    HW2 5194   1.220   3.150   2.280
 1291SOL    HW3 5195   1.291   3.191   2.153
 1291SOL    MW4 5196   1.288   3.187   2.240
 1292SOL     OW 5197   1.343   3.442   2.339
 1292SOL    HW2 5198   1.360   3.430   2.433
 1292SOL    HW3 5199   1.317   3.355   2.309
 1292SOL    MW4 5200   1.342   3.429   2.347
 1293SOL     OW 5201   1.558   3.597   2.214
 1293SOL    HW2 5202   1.549   3.684   2.253
 1293SOL    HW3 5203   1.495   3.543   2.262
 1293SOL    MW4 5204   1.548   3.601   2.226
 1294SOL     OW 5205   1.535   3.866   2.292
 1294SOL    HW2 5206   1.537   3.882   2.387
 1294SOL    HW3 5207   1.596   3.930   2.256
 1294SOL    MW4 5208   1.543   3.877   2.300
 1295SOL     OW 5209   1.322   4.020   2.234
 1295SOL    HW2 5210   1.389   3.962   2.270
 1295SOL    HW3 5211   1.315   3.994   2.142
 1295SOL    MW4 5212   1.330   4.009   2.226
 1296SOL     OW 5213   1.361   4.298   2.282
 1296SOL    HW2 5214   1.351   4.205   2.260
 1296SOL    HW3 5215   1.272   4.330   2.290
 1296SOL    MW4 5216   1.348   4.290   2.280
 1297SOL     OW 5217   1.612   4.421   2.223
 1297SOL    HW2 5218   1.538   4.369   2.254
 1297SOL    HW3 5219   1.595   4.509   2.256
 1297SOL    MW4 5220   1.600   4.425   2.231
 1298SOL     OW 5221   2.023   4.627   2.341
 1298SOL    HW2 5222   2.111   4.662   2.329
 1298SOL    HW3 5223   2.027   4.539   2.304
 1298SOL    MW4 5224   2.035   4.620   2.335
 1299SOL     OW 5225   1.806   0.116   2.232
 1299SOL    HW2 5226   1.808   0.208   2.260
 1299SOL    HW3 5227   1.880   0.075   2.278
 1299SOL    MW4 5228   1.816   0.123   2.242
 1300SOL     OW 5229   1.802   0.371   2.315
 1300SOL    HW2 5230   1.817   0.374   2.410
 1300SOL    HW3 5231   1.875   0.421   2.278
 1300SOL    MW4 5232   1.813   0.378   2.323
 1301SOL     OW 5233   1.999   0.499   2.185
 1301SOL    HW2 5234   2.003   0.592   2.208
 1301SOL    HW3 5235   2.017   0.496   2.091
 1301SOL    MW4 5236   2.002   0.511   2.176
 1302SOL     OW 5237   2.028   0.729   2.345
 1302SOL    HW2 5238   2.100   0.783   2.313
 1302SOL    HW3 5239   1.951   0.786   2.339
 1302SOL    MW4 5240   2.027   0.744   2.340
 1303SOL     OW 5241   1.806   0.861   2.264
 1303SOL    HW2 5242   1.812   0.953   2.290
 1303SOL    HW3 5243   1.805   0.863   2.168
 1303SOL    MW4 5244   1.806   0.873   2.255
 1304SOL     OW 5245   1.836   1.133   2.328
 1304SOL    HW2 5246   1.922   1.162   2.299
 1304SOL    HW3 5247   1.777   1.204   2.304
 1304SOL    MW4 5248   1.840   1.146   2.321
 1305SOL     OW 5249   2.048   1.278   2.207
 1305SOL    HW2 5250   2.057   1.373   2.219
 1305SOL    HW3 5251   2.023   1.268   2.115
 1305SOL    MW4 5252   2.046   1.289   2.197
 1306SOL     OW 5253   1.993   1.532   2.351
 1306SOL    HW2 5254   2.005   1.524   2.445
 1306SOL    HW3 5255   1.915   1.588   2.341
 1306SOL    MW4 5256   1.984   1.538   2.362
 1307SOL     OW 5257   1.784   1.690   2.278
 1307SOL    HW2 5258   1.780   1.784   2.295
 1307SOL    HW3 5259   1.789   1.684   2.182
 1307SOL    MW4 5260   1.784   1.702   2.268
 1308SOL     OW 5261   1.747   1.948   2.388
 1308SOL    HW2 5262   1.749   1.923   2.480
 1308SOL    HW3 5263   1.817   2.013   2.379
 1308SOL    MW4 5264   1.756   1.953   2.399
 1309SOL     OW 5265   1.999   2.056   2.307
 1309SOL    HW2 5266   2.081   2.020   2.341
 1309SOL    HW3 5267   2.006   2.047   2.212
 1309SOL    MW4 5268   2.011   2.050   2.299
 1310SOL     OW 5269   1.966   2.319   2.369
 1310SOL    HW2 5270   2.042   2.370   2.341
 1310SOL    HW3 5271   1.988   2.229   2.347
 1310SOL    MW4 5272   1.979   2.314   2.362
 1311SOL     OW 5273   1.749   2.404   2.235
 1311SOL    HW2 5274   1.812   2.360   2.293
 1311SOL    HW3 5275   1.663   2.379   2.270
 1311SOL    MW4 5276   1.746   2.395   2.248
 1312SOL     OW 5277   1.782   2.678   2.313
 1312SOL    HW2 5278   1.762   2.594   2.273
 1312SOL    HW3 5279   1.717   2.738   2.276
 1312SOL    MW4 5280   1.771   2.675   2.303
 1313SOL     OW 5281   2.016   2.806   2.214
 1313SOL    HW2 5282   2.097   2.780   2.259
 1313SOL    HW3 5283   1.947   2.759   2.260
 1313SOL    MW4 5284   2.017   2.797   2.226
 1314SOL     OW 5285   2.011   3.057   2.339
 1314SOL    HW2 5286   2.096   3.088   2.309
 1314SOL    HW3 5287   1.998   2.974   2.293
 1314SOL    MW4 5288   2.020   3.050   2.329
 1315SOL     OW 5289   1.825   3.224   2.206
 1315SOL    HW2 5290   1.896   3.174   2.246
 1315SOL    HW3 5291   1.745   3.181   2.236
 1315SOL    MW4 5292   1.823   3.212   2.215
 1316SOL     OW 5293   1.807   3.492   2.279
 1316SOL    HW2 5294   1.784   3.401   2.259
 1316SOL    HW3 5295   1.735   3.543   2.241
 1316SOL    MW4 5296   1.794   3.487   2.271
 1317SOL     OW 5297   2.048   3.616   2.252
 1317SOL    HW2 5298   1.965   3.569   2.263
 1317SOL    HW3 5299   2.067   3.610   2.159
 1317SOL    MW4 5300   2.039   3.609   2.241
 1318SOL     OW 5301   1.993   3.877   2.307
 1318SOL    HW2 5302   2.009   3.889   2.400
 1318SOL    HW3 5303   1.997   3.782   2.294
 1318SOL    MW4 5304   1.996   3.866   2.317
 1319SOL     OW 5305   1.774   4.008   2.205
 1319SOL    HW2 5306   1.848   3.954   2.232
 1319SOL    HW3 5307   1.763   3.990   2.112
 1319SOL    MW4 5308   1.782   3.999   2.196
 1320SOL     OW 5309   1.812   4.260   2.317
 1320SOL    HW2 5310   1.787   4.175   2.282
 1320SOL    HW3 5311   1.754   4.323   2.273
 1320SOL    MW4 5312   1.801   4.257   2.307
 1321SOL     OW 5313   2.041   4.380   2.249
 1321SOL    HW2 5314   1.967   4.336   2.291
 1321SOL    HW3 5315   2.015   4.386   2.157
 1321SOL    MW4 5316   2.027   4.375   2.242
 1322SOL     OW 5317   2.481   4.628   2.360
 1322SOL    HW2 5318   2.553   4.679   2.320
 1322SOL    HW3 5319   2.489   4.541   2.322
 1322SOL    MW4 5320   2.492   4.624   2.350
 1323SOL     OW 5321   2.265   0.109   2.265
 1323SOL    HW2 5322   2.248   0.194   2.305
 1323SOL    HW3 5323   2.340   0.074   2.314
 1323SOL    MW4 5324   2.273   0.115   2.277
 1324SOL     OW 5325   2.205   0.404   2.346
 1324SOL    HW2 5326   2.267   0.457   2.296
 1324SOL    HW3 5327   2.120   0.422   2.305
 1324SOL    MW4 5328   2.202   0.413   2.334
 1325SOL     OW 5329   2.423   0.515   2.213
 1325SOL    HW2 5330   2.494   0.457   2.240
 1325SOL    HW3 5331   2.418   0.504   2.118
 1325SOL    MW4 5332   2.432   0.506   2.204
 1326SOL     OW 5333   2.467   0.758   2.353
 1326SOL    HW2 5334   2.549   0.791   2.316
 1326SOL    HW3 5335   2.459   0.669   2.318
 1326SOL    MW4 5336   2.477   0.751   2.344
 1327SOL     OW 5337   2.243   0.863   2.230
 1327SOL    HW2 5338   2.251   0.958   2.239
 1327SOL    HW3 5339   2.327   0.829   2.260
 1327SOL    MW4 5340   2.255   0.871   2.235
 1328SOL     OW 5341   2.252   1.132   2.286
 1328SOL    HW2 5342   2.329   1.189   2.277
 1328SOL    HW3 5343   2.177   1.190   2.274
 1328SOL    MW4 5344   2.253   1.147   2.283
 1329SOL     OW 5345   2.450   1.316   2.240
 1329SOL    HW2 5346   2.530   1.277   2.275
 1329SOL    HW3 5347   2.437   1.395   2.293
 1329SOL    MW4 5348   2.459   1.322   2.252
 1330SOL     OW 5349   2.416   1.571   2.361
 1330SOL    HW2 5350   2.433   1.563   2.455
 1330SOL    HW3 5351   2.502   1.588   2.322
 1330SOL    MW4 5352   2.430   1.572   2.368
 1331SOL     OW 5353   2.201   1.728   2.282
 1331SOL    HW2 5354   2.283   1.679   2.294
 1331SOL    HW3 5355   2.133   1.667   2.311
 1331SOL    MW4 5356   2.203   1.714   2.287
 1332SOL     OW 5357   2.234   1.953   2.422
 1332SOL    HW2 5358   2.308   1.991   2.374
 1332SOL    HW3 5359   2.215   1.872   2.374
 1332SOL    MW4 5360   2.241   1.947   2.409
 1333SOL     OW 5361   2.466   2.060   2.279
 1333SOL    HW2 5362   2.555   2.029   2.297
 1333SOL    HW3 5363   2.464   2.073   2.184
 1333SOL    MW4 5364   2.478   2.057   2.269
 1334SOL     OW 5365   2.419   2.307   2.353
 1334SOL    HW2 5366   2.501   2.357   2.347
 1334SOL    HW3 5367   2.443   2.219   2.324
 1334SOL    MW4 5368   2.433   2.302   2.349
 1335SOL     OW 5369   2.190   2.435   2.253
 1335SOL    HW2 5370   2.200   2.525   2.286
 1335SOL    HW3 5371   2.263   2.387   2.292
 1335SOL    MW4 5372   2.201   2.441   2.263
 1336SOL     OW 5373   2.218   2.691   2.333
 1336SOL    HW2 5374   2.225   2.694   2.429
 1336SOL    HW3 5375   2.299   2.730   2.302
 1336SOL    MW4 5376   2.229   2.696   2.342
 1337SOL     OW 5377   2.453   2.812   2.244
 1337SOL    HW2 5378   2.534   2.773   2.278
 1337SOL    HW3 5379   2.463   2.809   2.149
 1337SOL    MW4 5380   2.465   2.806   2.236
 1338SOL     OW 5381   2.475   3.058   2.366
 1338SOL    HW2 5382   2.551   3.103   2.330
 1338SOL    HW3 5383   2.475   2.972   2.324
 1338SOL    MW4 5384   2.485   3.052   2.355
 1339SOL     OW 5385   2.259   3.177   2.219
 1339SOL    HW2 5386   2.254   3.268   2.248
 1339SOL    HW3 5387   2.337   3.142   2.261
 1339SOL    MW4 5388   2.268   3.184   2.228
 1340SOL     OW 5389   2.263   3.450   2.321
 1340SOL    HW2 5390   2.266   3.444   2.417
 1340SOL    HW3 5391   2.186   3.505   2.304
 1340SOL    MW4 5392   2.253   3.457   2.332
 1341SOL     OW 5393   2.507   3.559   2.228
 1341SOL    HW2 5394   2.499   3.650   2.254
 1341SOL    HW3 5395   2.427   3.517   2.261
 1341SOL    MW4 5396   2.495   3.565   2.236
 1342SOL     OW 5397   2.472   3.821   2.322
 1342SOL    HW2 5398   2.467   3.826   2.417
 1342SOL    HW3 5399   2.400   3.876   2.291
 1342SOL    MW4 5400   2.462   3.829   2.330
 1343SOL     OW 5401   2.260   3.989   2.228
 1343SOL    HW2 5402   2.258   4.079   2.262
 1343SOL    HW3 5403   2.180   3.949   2.263
 1343SOL    MW4 5404   2.249   3.996   2.237
 1344SOL     OW 5405   2.277   4.256   2.322
 1344SOL    HW2 5406   2.274   4.266   2.418
 1344SOL    HW3 5407   2.194   4.294   2.292
 1344SOL    MW4 5408   2.265   4.263   2.331
 1345SOL     OW 5409   2.497   4.391   2.247
 1345SOL    HW2 5410   2.574   4.356   2.294
 1345SOL    HW3 5411   2.422   4.354   2.294
 1345SOL    MW4 5412   2.498   4.381   2.260
 1346SOL     OW 5413   2.901   4.632   2.318
 1346SOL    HW2 5414   2.984   4.679   2.313
 1346SOL    HW3 5415   2.921   4.545   2.285
 1346SOL    MW4 5416   2.915   4.627   2.313
 1347SOL     OW 5417   2.674   0.114   2.246
 1347SOL    HW2 5418   2.665   0.203   2.280
 1347SOL    HW3 5419   2.758   0.084   2.281
 1347SOL    MW4 5420   2.684   0.122   2.255
 1348SOL     OW 5421   2.656   0.385   2.330
 1348SOL    HW2 5422   2.660   0.388   2.426
 1348SOL    HW3 5423   2.739   0.424   2.302
 1348SOL    MW4 5424   2.668   0.391   2.339
 1349SOL     OW 5425   2.915   0.503   2.265
 1349SOL    HW2 5426   2.927   0.581   2.319
 1349SOL    HW3 5427   2.915   0.536   2.175
 1349SOL    MW4 5428   2.917   0.517   2.260
 1350SOL     OW 5429   2.923   0.752   2.368
 1350SOL    HW2 5430   2.936   0.767   2.462
 1350SOL    HW3 5431   2.836   0.787   2.350
 1350SOL    MW4 5432   2.913   0.759   2.378
 1351SOL     OW 5433   2.699   0.881   2.258
 1351SOL    HW2 5434   2.662   0.961   2.296
 1351SOL    HW3 5435   2.703   0.899   2.164
 1351SOL    MW4 5436   2.695   0.894   2.250
 1352SOL     OW 5437   2.649   1.153   2.339
 1352SOL    HW2 5438   2.650   1.161   2.434
 1352SOL    HW3 5439   2.737   1.178   2.312
 1352SOL    MW4 5440   2.661   1.157   2.348
 1353SOL     OW 5441   2.900   1.251   2.246
 1353SOL    HW2 5442   2.980   1.216   2.284
 1353SOL    HW3 5443   2.916   1.251   2.152
 1353SOL    MW4 5444   2.913   1.246   2.238
 1354SOL     OW 5445   2.880   1.517   2.350
 1354SOL    HW2 5446   2.884   1.525   2.445
 1354SOL    HW3 5447   2.888   1.423   2.333
 1354SOL    MW4 5448   2.882   1.506   2.360
 1355SOL     OW 5449   2.667   1.639   2.255
 1355SOL    HW2 5450   2.753   1.603   2.278
 1355SOL    HW3 5451   2.675   1.665   2.163
 1355SOL    MW4 5452   2.679   1.637   2.246
 1356SOL     OW 5453   2.702   1.947   2.359
 1356SOL    HW2 5454   2.681   1.939   2.452
 1356SOL    HW3 5455   2.691   1.858   2.325
 1356SOL    MW4 5456   2.698   1.934   2.367
 1357SOL     OW 5457   2.919   2.084   2.237
 1357SOL    HW2 5458   2.992   2.029   2.263
 1357SOL    HW3 5459   2.842   2.041   2.274
 1357SOL    MW4 5460   2.918   2.071   2.245
 1358SOL     OW 5461   2.914   2.343   2.321
 1358SOL    HW2 5462   2.919   2.330   2.415
 1358SOL    HW3 5463   2.915   2.254   2.285
 1358SOL    MW4 5464   2.915   2.329   2.328
 1359SOL     OW 5465   2.665   2.441   2.270
 1359SOL    HW2 5466   2.751   2.402   2.288
 1359SOL    HW3 5467   2.660   2.444   2.174
 1359SOL    MW4 5468   2.676   2.436   2.260
 1360SOL     OW 5469   2.704   2.717   2.343
 1360SOL    HW2 5470   2.785   2.758   2.314
 1360SOL    HW3 5471   2.714   2.625   2.319
 1360SOL    MW4 5472   2.716   2.710   2.336
 1361SOL     OW 5473   2.946   2.820   2.255
 1361SOL    HW2 5474   2.945   2.906   2.298
 1361SOL    HW3 5475   2.944   2.840   2.162
 1361SOL    MW4 5476   2.945   2.834   2.249
 1362SOL     OW 5477   2.910   3.091   2.373
 1362SOL    HW2 5478   2.977   3.141   2.326
 1362SOL    HW3 5479   2.830   3.103   2.321
 1362SOL    MW4 5480   2.908   3.100   2.360
 1363SOL     OW 5481   2.692   3.177   2.232
 1363SOL    HW2 5482   2.703   3.261   2.276
 1363SOL    HW3 5483   2.705   3.196   2.139
 1363SOL    MW4 5484   2.695   3.191   2.226
 1364SOL     OW 5485   2.721   3.445   2.360
 1364SOL    HW2 5486   2.791   3.505   2.336
 1364SOL    HW3 5487   2.645   3.476   2.311
 1364SOL    MW4 5488   2.720   3.457   2.350
 1365SOL     OW 5489   2.914   3.576   2.197
 1365SOL    HW2 5490   2.998   3.544   2.228
 1365SOL    HW3 5491   2.902   3.660   2.241
 1365SOL    MW4 5492   2.923   3.583   2.207
 1366SOL     OW 5493   2.870   3.809   2.324
 1366SOL    HW2 5494   2.882   3.815   2.419
 1366SOL    HW3 5495   2.801   3.872   2.304
 1366SOL    MW4 5496   2.862   3.818   2.334
 1367SOL     OW 5497   2.689   3.999   2.231
 1367SOL    HW2 5498   2.619   3.937   2.253
 1367SOL    HW3 5499   2.685   4.007   2.136
 1367SOL    MW4 5500   2.679   3.992   2.221
 1368SOL     OW 5501   2.712   4.252   2.366
 1368SOL    HW2 5502   2.733   4.240   2.458
 1368SOL    HW3 5503   2.701   4.164   2.331
 1368SOL    MW4 5504   2.714   4.239   2.373
 1369SOL     OW 5505   2.915   4.376   2.212
 1369SOL    HW2 5506   2.998   4.331   2.229
 1369SOL    HW3 5507   2.849   4.324   2.258
 1369SOL    MW4 5508   2.917   4.363   2.220
 1370SOL     OW 5509   3.385   4.629   2.295
 1370SOL    HW2 5510   3.368   4.631   2.390
 1370SOL    HW3 5511   3.455   4.694   2.283
 1370SOL    MW4 5512   3.392   4.638   2.306
 1371SOL     OW 5513   3.140   0.087   2.269
 1371SOL    HW2 5514   3.159   0.170   2.314
 1371SOL    HW3 5515   3.220   0.036   2.277
 1371SOL    MW4 5516   3.153   0.092   2.276
 1372SOL     OW 5517   3.134   0.350   2.354
 1372SOL    HW2 5518   3.195   0.410   2.312
 1372SOL    HW3 5519   3.048   0.389   2.340
 1372SOL    MW4 5520   3.131   0.363   2.347
 1373SOL     OW 5521   3.335   0.524   2.245
 1373SOL    HW2 5522   3.403   0.470   2.287
 1373SOL    HW3 5523   3.359   0.525   2.152
 1373SOL    MW4 5524   3.347   0.517   2.238
 1374SOL     OW 5525   3.360   0.779   2.366
 1374SOL    HW2 5526   3.434   0.826   2.327
 1374SOL    HW3 5527   3.358   0.695   2.319
 1374SOL    MW4 5528   3.370   0.774   2.355
 1375SOL     OW 5529   3.138   0.884   2.250
 1375SOL    HW2 5530   3.207   0.844   2.304
 1375SOL    HW3 5531   3.057   0.840   2.278
 1375SOL    MW4 5532   3.136   0.873   2.261
 1376SOL     OW 5533   3.134   1.155   2.332
 1376SOL    HW2 5534   3.216   1.195   2.303
 1376SOL    HW3 5535   3.139   1.065   2.301
 1376SOL    MW4 5536   3.146   1.149   2.324
 1377SOL     OW 5537   3.387   1.254   2.272
 1377SOL    HW2 5538   3.457   1.226   2.331
 1377SOL    HW3 5539   3.376   1.347   2.290
 1377SOL    MW4 5540   3.395   1.262   2.282
 1378SOL     OW 5541   3.353   1.504   2.337
 1378SOL    HW2 5542   3.364   1.506   2.432
 1378SOL    HW3 5543   3.273   1.555   2.321
 1378SOL    MW4 5544   3.344   1.511   2.347
 1379SOL     OW 5545   3.136   1.631   2.276
 1379SOL    HW2 5546   3.129   1.723   2.301
 1379SOL    HW3 5547   3.056   1.590   2.308
 1379SOL    MW4 5548   3.125   1.638   2.283
 1380SOL     OW 5549   3.127   1.922   2.305
 1380SOL    HW2 5550   3.108   1.908   2.397
 1380SOL    HW3 5551   3.215   1.960   2.303
 1380SOL    MW4 5552   3.136   1.925   2.317
 1381SOL     OW 5553   3.360   2.060   2.257
 1381SOL    HW2 5554   3.436   2.005   2.278
 1381SOL    HW3 5555   3.356   2.060   2.162
 1381SOL    MW4 5556   3.369   2.053   2.248
 1382SOL     OW 5557   3.411   2.317   2.341
 1382SOL    HW2 5558   3.335   2.365   2.308
 1382SOL    HW3 5559   3.394   2.225   2.317
 1382SOL    MW4 5560   3.399   2.311   2.333
 1383SOL     OW 5561   3.195   2.438   2.255
 1383SOL    HW2 5562   3.200   2.530   2.281
 1383SOL    HW3 5563   3.107   2.411   2.280
 1383SOL    MW4 5564   3.184   2.447   2.262
 1384SOL     OW 5565   3.187   2.708   2.336
 1384SOL    HW2 5566   3.176   2.707   2.432
 1384SOL    HW3 5567   3.108   2.752   2.303
 1384SOL    MW4 5568   3.175   2.713   2.345
 1385SOL     OW 5569   3.398   2.819   2.203
 1385SOL    HW2 5570   3.399   2.901   2.251
 1385SOL    HW3 5571   3.322   2.772   2.239
 1385SOL    MW4 5572   3.388   2.823   2.214
 1386SOL     OW 5573   3.374   3.076   2.303
 1386SOL    HW2 5574   3.441   3.140   2.277
 1386SOL    HW3 5575   3.293   3.110   2.266
 1386SOL    MW4 5576   3.372   3.089   2.295
 1387SOL     OW 5577   3.143   3.191   2.255
 1387SOL    HW2 5578   3.156   3.285   2.270
 1387SOL    HW3 5579   3.121   3.185   2.162
 1387SOL    MW4 5580   3.142   3.203   2.245
 1388SOL     OW 5581   3.148   3.465   2.289
 1388SOL    HW2 5582   3.158   3.468   2.385
 1388SOL    HW3 5583   3.225   3.512   2.256
 1388SOL    MW4 5584   3.160   3.472   2.298
 1389SOL     OW 5585   3.346   3.633   2.216
 1389SOL    HW2 5586   3.418   3.574   2.235
 1389SOL    HW3 5587   3.353   3.649   2.121
 1389SOL    MW4 5588   3.356   3.628   2.206
 1390SOL     OW 5589   3.359   3.888   2.349
 1390SOL    HW2 5590   3.439   3.931   2.319
 1390SOL    HW3 5591   3.367   3.798   2.315
 1390SOL    MW4 5592   3.370   3.882   2.340
 1391SOL     OW 5593   3.105   3.969   2.229
 1391SOL    HW2 5594   3.178   3.928   2.275
 1391SOL    HW3 5595   3.028   3.920   2.256
 1391SOL    MW4 5596   3.105   3.957   2.239
 1392SOL     OW 5597   3.136   4.241   2.326
 1392SOL    HW2 5598   3.218   4.283   2.298
 1392SOL    HW3 5599   3.142   4.152   2.291
 1392SOL    MW4 5600   3.148   4.235   2.318
 1393SOL     OW 5601   3.371   4.345   2.254
 1393SOL    HW2 5602   3.369   4.438   2.278
 1393SOL    HW3 5603   3.369   4.345   2.158
 1393SOL    MW4 5604   3.371   4.357   2.244
 1394SOL     OW 5605   3.809   4.636   2.333
 1394SOL    HW2 5606   3.809   4.639   2.428
 1394SOL    HW3 5607   3.892   4.675   2.307
 1394SOL    MW4 5608   3.820   4.641   2.342
 1395SOL     OW 5609   3.594   0.136   2.270
 1395SOL    HW2 5610   3.585   0.224   2.305
 1395SOL    HW3 5611   3.676   0.103   2.306
 1395SOL    MW4 5612   3.603   0.143   2.279
 1396SOL     OW 5613   3.554   0.395   2.374
 1396SOL    HW2 5614   3.560   0.404   2.469
 1396SOL    HW3 5615   3.635   0.434   2.341
 1396SOL    MW4 5616   3.565   0.402   2.382
 1397SOL     OW 5617   3.816   0.475   2.283
 1397SOL    HW2 5618   3.813   0.569   2.305
 1397SOL    HW3 5619   3.821   0.473   2.188
 1397SOL    MW4 5620   3.816   0.487   2.273
 1398SOL     OW 5621   3.817   0.739   2.339
 1398SOL    HW2 5622   3.827   0.762   2.431
 1398SOL    HW3 5623   3.883   0.792   2.293
 1398SOL    MW4 5624   3.827   0.749   2.345
 1399SOL     OW 5625   3.605   0.885   2.280
 1399SOL    HW2 5626   3.679   0.829   2.305
 1399SOL    HW3 5627   3.605   0.883   2.184
 1399SOL    MW4 5628   3.615   0.878   2.270
 1400SOL     OW 5629   3.593   1.150   2.420
 1400SOL    HW2 5630   3.594   1.143   2.515
 1400SOL    HW3 5631   3.593   1.059   2.389
 1400SOL    MW4 5632   3.593   1.137   2.428
 1401SOL     OW 5633   3.790   1.270   2.272
 1401SOL    HW2 5634   3.797   1.361   2.301
 1401SOL    HW3 5635   3.724   1.232   2.329
 1401SOL    MW4 5636   3.783   1.277   2.283
 1402SOL     OW 5637   3.819   1.537   2.349
 1402SOL    HW2 5638   3.822   1.548   2.444
 1402SOL    HW3 5639   3.747   1.593   2.321
 1402SOL    MW4 5640   3.810   1.545   2.358
 1403SOL     OW 5641   3.567   1.661   2.237
 1403SOL    HW2 5642   3.496   1.610   2.276
 1403SOL    HW3 5643   3.558   1.647   2.143
 1403SOL    MW4 5644   3.556   1.653   2.229
 1404SOL     OW 5645   3.569   1.907   2.345
 1404SOL    HW2 5646   3.647   1.947   2.307
 1404SOL    HW3 5647   3.563   1.821   2.304
 1404SOL    MW4 5648   3.578   1.901   2.335
 1405SOL     OW 5649   3.793   2.064   2.221
 1405SOL    HW2 5650   3.868   2.011   2.248
 1405SOL    HW3 5651   3.799   2.068   2.126
 1405SOL    MW4 5652   3.804   2.058   2.212
 1406SOL     OW 5653   3.797   2.312   2.345
 1406SOL    HW2 5654   3.728   2.354   2.293
 1406SOL    HW3 5655   3.802   2.223   2.311
 1406SOL    MW4 5656   3.789   2.306   2.333
 1407SOL     OW 5657   3.606   2.450   2.205
 1407SOL    HW2 5658   3.536   2.394   2.240
 1407SOL    HW3 5659   3.590   2.451   2.111
 1407SOL    MW4 5660   3.594   2.443   2.197
 1408SOL     OW 5661   3.604   2.702   2.322
 1408SOL    HW2 5662   3.615   2.620   2.274
 1408SOL    HW3 5663   3.526   2.743   2.282
 1408SOL    MW4 5664   3.595   2.697   2.310
 1409SOL     OW 5665   3.808   2.838   2.208
 1409SOL    HW2 5666   3.837   2.918   2.252
 1409SOL    HW3 5667   3.726   2.815   2.253
 1409SOL    MW4 5668   3.801   2.845   2.220
 1410SOL     OW 5669   3.858   3.084   2.310
 1410SOL    HW2 5670   3.860   3.095   2.405
 1410SOL    HW3 5671   3.934   3.133   2.279
 1410SOL    MW4 5672   3.868   3.092   2.319
 1411SOL     OW 5673   3.608   3.217   2.221
 1411SOL    HW2 5674   3.606   3.306   2.255
 1411SOL    HW3 5675   3.693   3.182   2.249
 1411SOL    MW4 5676   3.619   3.224   2.229
 1412SOL     OW 5677   3.573   3.481   2.321
 1412SOL    HW2 5678   3.569   3.489   2.416
 1412SOL    HW3 5679   3.661   3.510   2.298
 1412SOL    MW4 5680   3.584   3.486   2.331
 1413SOL     OW 5681   3.808   3.615   2.226
 1413SOL    HW2 5682   3.817   3.709   2.242
 1413SOL    HW3 5683   3.819   3.605   2.132
 1413SOL    MW4 5684   3.811   3.626   2.216
 1414SOL     OW 5685   3.795   3.880   2.316
 1414SOL    HW2 5686   3.786   3.894   2.410
 1414SOL    HW3 5687   3.870   3.934   2.291
 1414SOL    MW4 5688   3.804   3.889   2.325
 1415SOL     OW 5689   3.573   4.042   2.245
 1415SOL    HW2 5690   3.596   4.123   2.289
 1415SOL    HW3 5691   3.652   3.987   2.254
 1415SOL    MW4 5692   3.587   4.045   2.252
 1416SOL     OW 5693   3.612   4.275   2.379
 1416SOL    HW2 5694   3.685   4.315   2.332
 1416SOL    HW3 5695   3.534   4.314   2.340
 1416SOL    MW4 5696   3.612   4.286   2.368
 1417SOL     OW 5697   3.820   4.382   2.231
 1417SOL    HW2 5698   3.898   4.347   2.274
 1417SOL    HW3 5699   3.818   4.475   2.255
 1417SOL    MW4 5700   3.830   4.390   2.240
 1418SOL     OW 5701   4.266   4.638   2.316
 1418SOL    HW2 5702   4.256   4.644   2.411
 1418SOL    HW3 5703   4.337   4.700   2.296
 1418SOL    MW4 5704   4.274   4.647   2.326
 1419SOL     OW 5705   4.029   0.071   2.226
 1419SOL    HW2 5706   4.051   0.158   2.260
 1419SOL    HW3 5707   4.105   0.017   2.247
 1419SOL    MW4 5708   4.042   0.076   2.233
 1420SOL     OW 5709   4.032   0.325   2.346
 1420SOL    HW2 5710   4.106   0.375   2.313
 1420SOL    HW3 5711   3.955   0.375   2.320
 1420SOL    MW4 5712   4.032   0.338   2.338
 1421SOL     OW 5713   4.235   0.478   2.223
 1421SOL    HW2 5714   4.242   0.562   2.269
 1421SOL    HW3 5715   4.314   0.430   2.249
 1421SOL    MW4 5716   4.246   0.483   2.233
 1422SOL     OW 5717   4.229   0.735   2.350
 1422SOL    HW2 5718   4.153   0.787   2.321
 1422SOL    HW3 5719   4.304   0.780   2.312
 1422SOL    MW4 5720   4.229   0.748   2.341
 1423SOL     OW 5721   4.027   0.889   2.234
 1423SOL    HW2 5722   4.010   0.979   2.263
 1423SOL    HW3 5723   4.023   0.893   2.139
 1423SOL    MW4 5724   4.024   0.901   2.225
 1424SOL     OW 5725   4.016   1.141   2.364
 1424SOL    HW2 5726   4.011   1.155   2.458
 1424SOL    HW3 5727   3.942   1.190   2.327
 1424SOL    MW4 5728   4.006   1.149   2.371
 1425SOL     OW 5729   4.224   1.296   2.266
 1425SOL    HW2 5730   4.162   1.228   2.293
 1425SOL    HW3 5731   4.310   1.260   2.284
 1425SOL    MW4 5732   4.227   1.282   2.272
 1426SOL     OW 5733   4.261   1.560   2.336
 1426SOL    HW2 5734   4.264   1.466   2.317
 1426SOL    HW3 5735   4.334   1.597   2.288
 1426SOL    MW4 5736   4.271   1.552   2.327
 1427SOL     OW 5737   4.030   1.670   2.226
 1427SOL    HW2 5738   4.110   1.631   2.262
 1427SOL    HW3 5739   3.959   1.618   2.264
 1427SOL    MW4 5740   4.032   1.658   2.236
 1428SOL     OW 5741   4.029   1.937   2.309
 1428SOL    HW2 5742   4.036   1.947   2.404
 1428SOL    HW3 5743   4.005   1.845   2.296
 1428SOL    MW4 5744   4.027   1.926   2.320
 1429SOL     OW 5745   4.256   2.073   2.249
 1429SOL    HW2 5746   4.243   2.165   2.272
 1429SOL    HW3 5747   4.174   2.030   2.275
 1429SOL    MW4 5748   4.243   2.079   2.256
 1430SOL     OW 5749   4.266   2.339   2.330
 1430SOL    HW2 5750   4.184   2.382   2.306
 1430SOL    HW3 5751   4.334   2.388   2.284
 1430SOL    MW4 5752   4.264   2.351   2.321
 1431SOL     OW 5753   4.015   2.420   2.217
 1431SOL    HW2 5754   4.007   2.509   2.253
 1431SOL    HW3 5755   3.949   2.369   2.264
 1431SOL    MW4 5756   4.005   2.425   2.228
 1432SOL     OW 5757   4.009   2.683   2.315
 1432SOL    HW2 5758   4.006   2.692   2.411
 1432SOL    HW3 5759   3.931   2.730   2.285
 1432SOL    MW4 5760   3.998   2.690   2.324
 1433SOL     OW 5761   4.246   2.847   2.209
 1433SOL    HW2 5762   4.168   2.804   2.244
 1433SOL    HW3 5763   4.318   2.790   2.235
 1433SOL    MW4 5764   4.245   2.834   2.217
 1434SOL     OW 5765   4.244   3.089   2.345
 1434SOL    HW2 5766   4.251   2.996   2.322
 1434SOL    HW3 5767   4.324   3.128   2.310
 1434SOL    MW4 5768   4.256   3.082   2.337
 1435SOL     OW 5769   4.057   3.222   2.193
 1435SOL    HW2 5770   4.040   3.308   2.230
 1435SOL    HW3 5771   4.130   3.186   2.244
 1435SOL    MW4 5772   4.064   3.228   2.204
 1436SOL     OW 5773   4.047   3.485   2.315
 1436SOL    HW2 5774   4.128   3.534   2.302
 1436SOL    HW3 5775   3.979   3.542   2.279
 1436SOL    MW4 5776   4.049   3.499   2.308
 1437SOL     OW 5777   4.269   3.659   2.252
 1437SOL    HW2 5778   4.261   3.752   2.270
 1437SOL    HW3 5779   4.251   3.651   2.159
 1437SOL    MW4 5780   4.266   3.670   2.242
 1438SOL     OW 5781   4.257   3.923   2.351
 1438SOL    HW2 5782   4.256   3.895   2.443
 1438SOL    HW3 5783   4.339   3.971   2.341
 1438SOL    MW4 5784   4.267   3.925   2.362
 1439SOL     OW 5785   4.017   4.010   2.211
 1439SOL    HW2 5786   4.096   3.967   2.244
 1439SOL    HW3 5787   4.027   4.008   2.116
 1439SOL    MW4 5788   4.029   4.004   2.203
 1440SOL     OW 5789   4.037   4.273   2.339
 1440SOL    HW2 5790   4.118   4.311   2.305
 1440SOL    HW3 5791   4.030   4.188   2.296
 1440SOL    MW4 5792   4.047   4.267   2.329
 1441SOL     OW 5793   4.289   4.376   2.239
 1441SOL    HW2 5794   4.300   4.463   2.279
 1441SOL    HW3 5795   4.361   4.324   2.276
 1441SOL    MW4 5796   4.300   4.381   2.249
 1442SOL     OW 5797   0.222   4.664   2.606
 1442SOL    HW2 5798   0.233   4.572   2.631
 1442SOL    HW3 5799   0.139   4.689   2.647
 1442SOL    MW4 5800   0.212   4.655   2.615
 1443SOL     OW 5801   4.476   0.106   2.716
 1443SOL    HW2 5802   4.472   0.111   2.812
 1443SOL    HW3 5803   4.477   0.197   2.688
 1443SOL    MW4 5804   4.476   0.119   2.725
 1444SOL     OW 5805   4.469   0.365   2.602
 1444SOL    HW2 5806   4.553   0.403   2.627
 1444SOL    HW3 5807   4.460   0.384   2.509
 1444SOL    MW4 5808   4.479   0.372   2.593
 1445SOL     OW 5809   0.215   0.495   2.700
 1445SOL    HW2 5810   0.244   0.507   2.790
 1445SOL    HW3 5811   0.290   0.457   2.655
 1445SOL    MW4 5812   0.228   0.491   2.706
 1446SOL     OW 5813   0.181   0.733   2.584
 1446SOL    HW2 5814   0.262   0.781   2.596
 1446SOL    HW3 5815   0.196   0.649   2.628
 1446SOL    MW4 5816   0.193   0.728   2.592
 1447SOL     OW 5817   4.488   0.886   2.714
 1447SOL    HW2 5818   4.408   0.857   2.669
 1447SOL    HW3 5819   4.558   0.835   2.673
 1447SOL    MW4 5820   4.486   0.875   2.702
 1448SOL     OW 5821   4.486   1.167   2.603
 1448SOL    HW2 5822   4.570   1.208   2.624
 1448SOL    HW3 5823   4.496   1.076   2.631
 1448SOL    MW4 5824   4.499   1.161   2.609
 1449SOL     OW 5825   0.217   1.280   2.713
 1449SOL    HW2 5826   0.298   1.236   2.687
 1449SOL    HW3 5827   0.232   1.372   2.693
 1449SOL    MW4 5828   0.230   1.286   2.707
 1450SOL     OW 5829   0.218   1.541   2.622
 1450SOL    HW2 5830   0.292   1.589   2.660
 1450SOL    HW3 5831   0.140   1.584   2.657
 1450SOL    MW4 5832   0.218   1.553   2.632
 1451SOL     OW 5833   0.001   1.661   2.722
 1451SOL    HW2 5834  -0.004   1.677   2.816
 1451SOL    HW3 5835  -0.017   1.747   2.682
 1451SOL    MW4 5836  -0.003   1.675   2.729
 1452SOL     OW 5837   4.475   1.925   2.617
 1452SOL    HW2 5838   4.547   1.980   2.649
 1452SOL    HW3 5839   4.482   1.930   2.521
 1452SOL    MW4 5840   4.486   1.933   2.608
 1453SOL     OW 5841   0.195   2.082   2.684
 1453SOL    HW2 5842   0.268   2.041   2.638
 1453SOL    HW3 5843   0.207   2.176   2.672
 1453SOL    MW4 5844   0.206   2.089   2.677
 1454SOL     OW 5845   0.201   2.352   2.600
 1454SOL    HW2 5846   0.279   2.383   2.645
 1454SOL    HW3 5847   0.128   2.389   2.650
 1454SOL    MW4 5848   0.202   2.361   2.613
 1455SOL     OW 5849   4.466   2.480   2.704
 1455SOL    HW2 5850   4.465   2.464   2.798
 1455SOL    HW3 5851   4.398   2.422   2.669
 1455SOL    MW4 5852   4.456   2.470   2.712
 1456SOL     OW 5853   0.001   2.735   2.585
 1456SOL    HW2 5854  -0.081   2.781   2.603
 1456SOL    HW3 5855  -0.014   2.646   2.615
 1456SOL    MW4 5856  -0.012   2.729   2.591
 1457SOL     OW 5857   0.240   2.802   2.690
 1457SOL    HW2 5858   0.249   2.896   2.680
 1457SOL    HW3 5859   0.154   2.781   2.652
 1457SOL    MW4 5860   0.230   2.811   2.684
 1458SOL     OW 5861   0.226   3.062   2.639
 1458SOL    HW2 5862   0.304   3.114   2.656
 1458SOL    HW3 5863   0.207   3.077   2.546
 1458SOL    MW4 5864   0.234   3.071   2.629
 1459SOL     OW 5865   0.015   3.239   2.693
 1459SOL    HW2 5866  -0.065   3.197   2.661
 1459SOL    HW3 5867   0.081   3.169   2.694
 1459SOL    MW4 5868   0.013   3.224   2.689
 1460SOL     OW 5869   4.490   3.500   2.584
 1460SOL    HW2 5870   4.554   3.550   2.633
 1460SOL    HW3 5871   4.495   3.412   2.621
 1460SOL    MW4 5872   4.499   3.495   2.595
 1461SOL     OW 5873   0.178   3.630   2.728
 1461SOL    HW2 5874   0.181   3.613   2.822
 1461SOL    HW3 5875   0.249   3.578   2.691
 1461SOL    MW4 5876   0.187   3.621   2.736
 1462SOL     OW 5877   0.198   3.902   2.618
 1462SOL    HW2 5878   0.189   3.812   2.649
 1462SOL    HW3 5879   0.195   3.896   2.523
 1462SOL    MW4 5880   0.197   3.890   2.610
 1463SOL     OW 5881   4.451   4.008   2.701
 1463SOL    HW2 5882   4.459   4.100   2.675
 1463SOL    HW3 5883   4.534   3.969   2.673
 1463SOL    MW4 5884   4.463   4.015   2.694
 1464SOL     OW 5885   4.477   4.271   2.615
 1464SOL    HW2 5886   4.403   4.317   2.654
 1464SOL    HW3 5887   4.554   4.306   2.659
 1464SOL    MW4 5888   4.477   4.282   2.626
 1465SOL     OW 5889   0.228   4.395   2.686
 1465SOL    HW2 5890   0.220   4.404   2.781
 1465SOL    HW3 5891   0.301   4.334   2.673
 1465SOL    MW4 5892   0.237   4.388   2.696
 1466SOL     OW 5893   0.672   4.625   2.610
 1466SOL    HW2 5894   0.743   4.686   2.633
 1466SOL    HW3 5895   0.592   4.677   2.620
 1466SOL    MW4 5896   0.671   4.640   2.615
 1467SOL     OW 5897   0.452   0.132   2.675
 1467SOL    HW2 5898   0.460   0.113   2.768
 1467SOL    HW3 5899   0.364   0.103   2.651
 1467SOL    MW4 5900   0.441   0.126   2.684
 1468SOL     OW 5901   0.451   0.394   2.584
 1468SOL    HW2 5902   0.515   0.441   2.639
 1468SOL    HW3 5903   0.457   0.303   2.613
 1468SOL    MW4 5904   0.460   0.388   2.595
 1469SOL     OW 5905   0.671   0.511   2.727
 1469SOL    HW2 5906   0.672   0.493   2.822
 1469SOL    HW3 5907   0.758   0.484   2.697
 1469SOL    MW4 5908   0.683   0.505   2.736
 1470SOL     OW 5909   0.649   0.761   2.614
 1470SOL    HW2 5910   0.726   0.798   2.658
 1470SOL    HW3 5911   0.643   0.672   2.648
 1470SOL    MW4 5912   0.658   0.754   2.624
 1471SOL     OW 5913   0.400   0.878   2.672
 1471SOL    HW2 5914   0.405   0.973   2.678
 1471SOL    HW3 5915   0.486   0.851   2.640
 1471SOL    MW4 5916   0.412   0.887   2.669
 1472SOL     OW 5917   0.452   1.154   2.650
 1472SOL    HW2 5918   0.533   1.195   2.681
 1472SOL    HW3 5919   0.455   1.164   2.555
 1472SOL    MW4 5920   0.463   1.161   2.642
 1473SOL     OW 5921   0.689   1.289   2.741
 1473SOL    HW2 5922   0.693   1.268   2.835
 1473SOL    HW3 5923   0.765   1.244   2.704
 1473SOL    MW4 5924   0.699   1.280   2.749
 1474SOL     OW 5925   0.686   1.537   2.625
 1474SOL    HW2 5926   0.607   1.586   2.645
 1474SOL    HW3 5927   0.682   1.460   2.683
 1474SOL    MW4 5928   0.675   1.533   2.636
 1475SOL     OW 5929   0.440   1.675   2.681
 1475SOL    HW2 5930   0.446   1.682   2.776
 1475SOL    HW3 5931   0.432   1.766   2.651
 1475SOL    MW4 5932   0.440   1.688   2.689
 1476SOL     OW 5933   0.382   1.946   2.561
 1476SOL    HW2 5934   0.465   1.989   2.583
 1476SOL    HW3 5935   0.383   1.939   2.466
 1476SOL    MW4 5936   0.393   1.951   2.551
 1477SOL     OW 5937   0.645   1.994   2.684
 1477SOL    HW2 5938   0.642   2.012   2.778
 1477SOL    HW3 5939   0.737   1.974   2.666
 1477SOL    MW4 5940   0.657   1.994   2.694
 1478SOL     OW 5941   0.610   2.271   2.616
 1478SOL    HW2 5942   0.679   2.327   2.651
 1478SOL    HW3 5943   0.628   2.184   2.651
 1478SOL    MW4 5944   0.621   2.267   2.625
 1479SOL     OW 5945   0.434   2.457   2.736
 1479SOL    HW2 5946   0.449   2.533   2.681
 1479SOL    HW3 5947   0.488   2.388   2.697
 1479SOL    MW4 5948   0.443   2.458   2.724
 1480SOL     OW 5949   0.460   2.669   2.578
 1480SOL    HW2 5950   0.528   2.713   2.630
 1480SOL    HW3 5951   0.378   2.709   2.607
 1480SOL    MW4 5952   0.458   2.680   2.589
 1481SOL     OW 5953   0.666   2.824   2.708
 1481SOL    HW2 5954   0.672   2.820   2.804
 1481SOL    HW3 5955   0.673   2.918   2.688
 1481SOL    MW4 5956   0.668   2.836   2.718
 1482SOL     OW 5957   0.682   3.101   2.628
 1482SOL    HW2 5958   0.760   3.142   2.665
 1482SOL    HW3 5959   0.686   3.121   2.535
 1482SOL    MW4 5960   0.693   3.109   2.621
 1483SOL     OW 5961   0.453   3.221   2.725
 1483SOL    HW2 5962   0.458   3.205   2.820
 1483SOL    HW3 5963   0.525   3.169   2.689
 1483SOL    MW4 5964   0.463   3.212   2.733
 1484SOL     OW 5965   0.405   3.484   2.638
 1484SOL    HW2 5966   0.439   3.396   2.658
 1484SOL    HW3 5967   0.393   3.484   2.543
 1484SOL    MW4 5968   0.408   3.472   2.628
 1485SOL     OW 5969   0.662   3.595   2.705
 1485SOL    HW2 5970   0.662   3.575   2.798
 1485SOL    HW3 5971   0.579   3.560   2.673
 1485SOL    MW4 5972   0.651   3.587   2.713
 1486SOL     OW 5973   0.637   3.867   2.641
 1486SOL    HW2 5974   0.570   3.911   2.693
 1486SOL    HW3 5975   0.641   3.778   2.676
 1486SOL    MW4 5976   0.629   3.861   2.653
 1487SOL     OW 5977   0.438   3.997   2.752
 1487SOL    HW2 5978   0.449   4.082   2.709
 1487SOL    HW3 5979   0.364   3.957   2.707
 1487SOL    MW4 5980   0.430   4.003   2.740
 1488SOL     OW 5981   0.471   4.248   2.632
 1488SOL    HW2 5982   0.550   4.281   2.674
 1488SOL    HW3 5983   0.490   4.253   2.538
 1488SOL    MW4 5984   0.484   4.253   2.625
 1489SOL     OW 5985   0.674   4.408   2.770
 1489SOL    HW2 5986   0.753   4.357   2.752
 1489SOL    HW3 5987   0.678   4.482   2.709
 1489SOL    MW4 5988   0.685   4.411   2.760
 1490SOL     OW 5989   1.100   4.622   2.600
 1490SOL    HW2 5990   1.176   4.666   2.639
 1490SOL    HW3 5991   1.103   4.534   2.636
 1490SOL    MW4 5992   1.110   4.616   2.610
 1491SOL     OW 5993   0.895   0.121   2.656
 1491SOL    HW2 5994   0.884   0.122   2.751
 1491SOL    HW3 5995   0.964   0.057   2.640
 1491SOL    MW4 5996   0.903   0.113   2.666
 1492SOL     OW 5997   0.909   0.400   2.632
 1492SOL    HW2 5998   0.907   0.306   2.647
 1492SOL    HW3 5999   0.908   0.409   2.536
 1492SOL    MW4 6000   0.908   0.389   2.621
 1493SOL     OW 6001   1.151   0.496   2.739
 1493SOL    HW2 6002   1.151   0.585   2.702
 1493SOL    HW3 6003   1.072   0.455   2.702
 1493SOL    MW4 6004   1.140   0.502   2.729
 1494SOL     OW 6005   1.117   0.758   2.633
 1494SOL    HW2 6006   1.195   0.804   2.662
 1494SOL    HW3 6007   1.113   0.774   2.539
 1494SOL    MW4 6008   1.127   0.766   2.625
 1495SOL     OW 6009   0.883   0.876   2.723
 1495SOL    HW2 6010   0.905   0.877   2.816
 1495SOL    HW3 6011   0.948   0.817   2.684
 1495SOL    MW4 6012   0.894   0.868   2.730
 1496SOL     OW 6013   0.932   1.130   2.629
 1496SOL    HW2 6014   0.922   1.046   2.673
 1496SOL    HW3 6015   0.924   1.110   2.536
 1496SOL    MW4 6016   0.929   1.117   2.623
 1497SOL     OW 6017   1.165   1.250   2.719
 1497SOL    HW2 6018   1.167   1.331   2.669
 1497SOL    HW3 6019   1.086   1.205   2.689
 1497SOL    MW4 6020   1.155   1.255   2.708
 1498SOL     OW 6021   1.134   1.493   2.573
 1498SOL    HW2 6022   1.055   1.543   2.593
 1498SOL    HW3 6023   1.149   1.508   2.479
 1498SOL    MW4 6024   1.126   1.502   2.563
 1499SOL     OW 6025   0.939   1.650   2.683
 1499SOL    HW2 6026   0.933   1.652   2.778
 1499SOL    HW3 6027   0.854   1.617   2.654
 1499SOL    MW4 6028   0.927   1.646   2.692
 1500SOL     OW 6029   0.906   1.906   2.604
 1500SOL    HW2 6030   0.966   1.968   2.645
 1500SOL    HW3 6031   0.935   1.820   2.635
 1500SOL    MW4 6032   0.917   1.903   2.614
 1501SOL     OW 6033   1.090   2.053   2.746
 1501SOL    HW2 6034   1.164   2.008   2.706
 1501SOL    HW3 6035   1.101   2.145   2.721
 1501SOL    MW4 6036   1.101   2.059   2.738
 1502SOL     OW 6037   1.093   2.319   2.645
 1502SOL    HW2 6038   1.153   2.388   2.674
 1502SOL    HW3 6039   1.093   2.327   2.550
 1502SOL    MW4 6040   1.101   2.329   2.636
 1503SOL     OW 6041   0.832   2.406   2.698
 1503SOL    HW2 6042   0.852   2.491   2.658
 1503SOL    HW3 6043   0.916   2.359   2.697
 1503SOL    MW4 6044   0.846   2.411   2.692
 1504SOL     OW 6045   0.875   2.676   2.593
 1504SOL    HW2 6046   0.949   2.724   2.630
 1504SOL    HW3 6047   0.799   2.706   2.642
 1504SOL    MW4 6048   0.875   2.686   2.604
 1505SOL     OW 6049   1.083   2.832   2.712
 1505SOL    HW2 6050   1.106   2.825   2.805
 1505SOL    HW3 6051   1.159   2.795   2.666
 1505SOL    MW4 6052   1.096   2.826   2.718
 1506SOL     OW 6053   1.148   3.096   2.633
 1506SOL    HW2 6054   1.122   3.007   2.656
 1506SOL    HW3 6055   1.136   3.101   2.538
 1506SOL    MW4 6056   1.143   3.085   2.623
 1507SOL     OW 6057   0.919   3.208   2.705
 1507SOL    HW2 6058   0.903   3.286   2.652
 1507SOL    HW3 6059   1.006   3.179   2.677
 1507SOL    MW4 6060   0.928   3.215   2.694
 1508SOL     OW 6061   0.887   3.462   2.601
 1508SOL    HW2 6062   0.961   3.508   2.643
 1508SOL    HW3 6063   0.810   3.512   2.630
 1508SOL    MW4 6064   0.887   3.475   2.611
 1509SOL     OW 6065   1.102   3.599   2.718
 1509SOL    HW2 6066   1.101   3.626   2.810
 1509SOL    HW3 6067   1.100   3.681   2.669
 1509SOL    MW4 6068   1.102   3.613   2.724
 1510SOL     OW 6069   1.098   3.851   2.601
 1510SOL    HW2 6070   1.178   3.889   2.639
 1510SOL    HW3 6071   1.110   3.859   2.507
 1510SOL    MW4 6072   1.110   3.857   2.594
 1511SOL     OW 6073   0.893   4.008   2.719
 1511SOL    HW2 6074   0.958   3.963   2.664
 1511SOL    HW3 6075   0.809   3.970   2.693
 1511SOL    MW4 6076   0.890   3.997   2.709
 1512SOL     OW 6077   0.888   4.266   2.633
 1512SOL    HW2 6078   0.892   4.174   2.658
 1512SOL    HW3 6079   0.884   4.265   2.537
 1512SOL    MW4 6080   0.888   4.254   2.623
 1513SOL     OW 6081   1.144   4.351   2.688
 1513SOL    HW2 6082   1.137   4.378   2.779
 1513SOL    HW3 6083   1.055   4.327   2.663
 1513SOL    MW4 6084   1.131   4.351   2.697
 1514SOL     OW 6085   1.584   4.649   2.601
 1514SOL    HW2 6086   1.555   4.559   2.613
 1514SOL    HW3 6087   1.586   4.662   2.507
 1514SOL    MW4 6088   1.581   4.639   2.591
 1515SOL     OW 6089   1.337   0.100   2.693
 1515SOL    HW2 6090   1.335   0.192   2.665
 1515SOL    HW3 6091   1.422   0.068   2.665
 1515SOL    MW4 6092   1.348   0.108   2.685
 1516SOL     OW 6093   1.344   0.372   2.620
 1516SOL    HW2 6094   1.426   0.397   2.664
 1516SOL    HW3 6095   1.277   0.422   2.665
 1516SOL    MW4 6096   1.346   0.382   2.632
 1517SOL     OW 6097   1.599   0.460   2.712
 1517SOL    HW2 6098   1.661   0.407   2.664
 1517SOL    HW3 6099   1.600   0.545   2.667
 1517SOL    MW4 6100   1.607   0.465   2.700
 1518SOL     OW 6101   1.580   0.737   2.606
 1518SOL    HW2 6102   1.501   0.773   2.645
 1518SOL    HW3 6103   1.569   0.751   2.512
 1518SOL    MW4 6104   1.568   0.744   2.599
 1519SOL     OW 6105   1.353   0.870   2.707
 1519SOL    HW2 6106   1.363   0.876   2.802
 1519SOL    HW3 6107   1.358   0.960   2.676
 1519SOL    MW4 6108   1.355   0.882   2.715
 1520SOL     OW 6109   1.373   1.133   2.618
 1520SOL    HW2 6110   1.445   1.185   2.653
 1520SOL    HW3 6111   1.295   1.166   2.663
 1520SOL    MW4 6112   1.372   1.144   2.628
 1521SOL     OW 6113   1.589   1.279   2.703
 1521SOL    HW2 6114   1.565   1.266   2.795
 1521SOL    HW3 6115   1.672   1.233   2.693
 1521SOL    MW4 6116   1.597   1.271   2.714
 1522SOL     OW 6117   1.572   1.540   2.625
 1522SOL    HW2 6118   1.579   1.453   2.664
 1522SOL    HW3 6119   1.599   1.528   2.534
 1522SOL    MW4 6120   1.576   1.527   2.618
 1523SOL     OW 6121   1.325   1.641   2.721
 1523SOL    HW2 6122   1.415   1.610   2.706
 1523SOL    HW3 6123   1.270   1.578   2.674
 1523SOL    MW4 6124   1.330   1.628   2.713
 1524SOL     OW 6125   1.278   1.899   2.616
 1524SOL    HW2 6126   1.290   1.818   2.666
 1524SOL    HW3 6127   1.291   1.873   2.525
 1524SOL    MW4 6128   1.282   1.885   2.611
 1525SOL     OW 6129   1.499   2.053   2.718
 1525SOL    HW2 6130   1.572   1.999   2.686
 1525SOL    HW3 6131   1.421   2.001   2.698
 1525SOL    MW4 6132   1.499   2.039   2.711
 1526SOL     OW 6133   1.502   2.327   2.638
 1526SOL    HW2 6134   1.589   2.362   2.655
 1526SOL    HW3 6135   1.503   2.240   2.678
 1526SOL    MW4 6136   1.513   2.320   2.645
 1527SOL     OW 6137   1.310   2.506   2.724
 1527SOL    HW2 6138   1.315   2.587   2.674
 1527SOL    HW3 6139   1.382   2.452   2.692
 1527SOL    MW4 6140   1.320   2.509   2.714
 1528SOL     OW 6141   1.304   2.749   2.595
 1528SOL    HW2 6142   1.387   2.791   2.620
 1528SOL    HW3 6143   1.304   2.752   2.499
 1528SOL    MW4 6144   1.315   2.755   2.586
 1529SOL     OW 6145   1.574   2.849   2.690
 1529SOL    HW2 6146   1.575   2.836   2.785
 1529SOL    HW3 6147   1.653   2.806   2.659
 1529SOL    MW4 6148   1.584   2.841   2.698
 1530SOL     OW 6149   1.557   3.110   2.565
 1530SOL    HW2 6150   1.636   3.157   2.589
 1530SOL    HW3 6151   1.563   3.026   2.612
 1530SOL    MW4 6152   1.568   3.105   2.574
 1531SOL     OW 6153   1.374   3.255   2.717
 1531SOL    HW2 6154   1.442   3.202   2.677
 1531SOL    HW3 6155   1.293   3.206   2.703
 1531SOL    MW4 6156   1.372   3.242   2.710
 1532SOL     OW 6157   1.341   3.509   2.626
 1532SOL    HW2 6158   1.358   3.423   2.662
 1532SOL    HW3 6159   1.259   3.537   2.668
 1532SOL    MW4 6160   1.332   3.502   2.636
 1533SOL     OW 6161   1.576   3.638   2.671
 1533SOL    HW2 6162   1.640   3.581   2.629
 1533SOL    HW3 6163   1.491   3.601   2.646
 1533SOL    MW4 6164   1.573   3.625   2.662
 1534SOL     OW 6165   1.540   3.895   2.564
 1534SOL    HW2 6166   1.466   3.929   2.613
 1534SOL    HW3 6167   1.552   3.806   2.597
 1534SOL    MW4 6168   1.532   3.888   2.575
 1535SOL     OW 6169   1.320   3.992   2.682
 1535SOL    HW2 6170   1.323   4.010   2.776
 1535SOL    HW3 6171   1.333   4.078   2.641
 1535SOL    MW4 6172   1.322   4.006   2.689
 1536SOL     OW 6173   1.358   4.242   2.557
 1536SOL    HW2 6174   1.286   4.287   2.602
 1536SOL    HW3 6175   1.351   4.271   2.466
 1536SOL    MW4 6176   1.348   4.252   2.551
 1537SOL     OW 6177   1.568   4.379   2.695
 1537SOL    HW2 6178   1.564   4.373   2.790
 1537SOL    HW3 6179   1.489   4.334   2.665
 1537SOL    MW4 6180   1.557   4.372   2.703
 1538SOL     OW 6181   2.019   4.616   2.625
 1538SOL    HW2 6182   2.097   4.670   2.637
 1538SOL    HW3 6183   2.001   4.618   2.531
 1538SOL    MW4 6184   2.027   4.623   2.615
 1539SOL     OW 6185   1.806   0.081   2.749
 1539SOL    HW2 6186   1.882   0.035   2.715
 1539SOL    HW3 6187   1.732   0.045   2.700
 1539SOL    MW4 6188   1.806   0.070   2.738
 1540SOL     OW 6189   1.794   0.320   2.604
 1540SOL    HW2 6190   1.869   0.371   2.633
 1540SOL    HW3 6191   1.798   0.239   2.654
 1540SOL    MW4 6192   1.804   0.316   2.614
 1541SOL     OW 6193   2.036   0.446   2.705
 1541SOL    HW2 6194   2.129   0.422   2.702
 1541SOL    HW3 6195   2.033   0.535   2.672
 1541SOL    MW4 6196   2.048   0.455   2.700
 1542SOL     OW 6197   2.062   0.712   2.607
 1542SOL    HW2 6198   1.995   0.763   2.652
 1542SOL    HW3 6199   2.039   0.717   2.514
 1542SOL    MW4 6200   2.050   0.719   2.601
 1543SOL     OW 6201   1.832   0.841   2.687
 1543SOL    HW2 6202   1.822   0.933   2.662
 1543SOL    HW3 6203   1.753   0.799   2.651
 1543SOL    MW4 6204   1.820   0.848   2.679
 1544SOL     OW 6205   1.811   1.111   2.623
 1544SOL    HW2 6206   1.878   1.171   2.657
 1544SOL    HW3 6207   1.812   1.124   2.529
 1544SOL    MW4 6208   1.820   1.121   2.615
 1545SOL     OW 6209   2.020   1.254   2.711
 1545SOL    HW2 6210   2.034   1.259   2.806
 1545SOL    HW3 6211   2.093   1.202   2.679
 1545SOL    MW4 6212   2.031   1.248   2.720
 1546SOL     OW 6213   2.046   1.501   2.620
 1546SOL    HW2 6214   1.970   1.544   2.660
 1546SOL    HW3 6215   2.038   1.410   2.647
 1546SOL    MW4 6216   2.035   1.495   2.629
 1547SOL     OW 6217   1.834   1.643   2.718
 1547SOL    HW2 6218   1.808   1.640   2.810
 1547SOL    HW3 6219   1.757   1.613   2.670
 1547SOL    MW4 6220   1.821   1.638   2.723
 1548SOL     OW 6221   1.758   1.915   2.656
 1548SOL    HW2 6222   1.826   1.974   2.688
 1548SOL    HW3 6223   1.791   1.827   2.677
 1548SOL    MW4 6224   1.771   1.911   2.663
 1549SOL     OW 6225   1.955   2.067   2.774
 1549SOL    HW2 6226   1.970   2.083   2.867
 1549SOL    HW3 6227   1.985   2.146   2.730
 1549SOL    MW4 6228   1.961   2.079   2.780
 1550SOL     OW 6229   2.012   2.297   2.640
 1550SOL    HW2 6230   2.083   2.357   2.664
 1550SOL    HW3 6231   2.010   2.299   2.545
 1550SOL    MW4 6232   2.021   2.305   2.631
 1551SOL     OW 6233   1.765   2.421   2.677
 1551SOL    HW2 6234   1.770   2.454   2.767
 1551SOL    HW3 6235   1.848   2.375   2.663
 1551SOL    MW4 6236   1.776   2.419   2.687
 1552SOL     OW 6237   1.782   2.690   2.590
 1552SOL    HW2 6238   1.760   2.602   2.620
 1552SOL    HW3 6239   1.767   2.688   2.496
 1552SOL    MW4 6240   1.777   2.678   2.582
 1553SOL     OW 6241   1.990   2.850   2.709
 1553SOL    HW2 6242   2.074   2.808   2.692
 1553SOL    HW3 6243   1.926   2.794   2.665
 1553SOL    MW4 6244   1.993   2.837   2.701
 1554SOL     OW 6245   2.004   3.114   2.610
 1554SOL    HW2 6246   1.987   3.025   2.641
 1554SOL    HW3 6247   2.013   3.106   2.515
 1554SOL    MW4 6248   2.003   3.101   2.602
 1555SOL     OW 6249   1.763   3.249   2.685
 1555SOL    HW2 6250   1.765   3.340   2.653
 1555SOL    HW3 6251   1.835   3.206   2.639
 1555SOL    MW4 6252   1.772   3.255   2.675
 1556SOL     OW 6253   1.792   3.495   2.564
 1556SOL    HW2 6254   1.869   3.542   2.596
 1556SOL    HW3 6255   1.802   3.496   2.468
 1556SOL    MW4 6256   1.804   3.501   2.555
 1557SOL     OW 6257   2.011   3.622   2.662
 1557SOL    HW2 6258   2.005   3.603   2.755
 1557SOL    HW3 6259   2.089   3.575   2.633
 1557SOL    MW4 6260   2.020   3.613   2.670
 1558SOL     OW 6261   2.003   3.890   2.591
 1558SOL    HW2 6262   1.917   3.917   2.625
 1558SOL    HW3 6263   2.005   3.795   2.604
 1558SOL    MW4 6264   1.992   3.881   2.597
 1559SOL     OW 6265   1.771   4.008   2.670
 1559SOL    HW2 6266   1.778   4.098   2.639
 1559SOL    HW3 6267   1.692   3.974   2.629
 1559SOL    MW4 6268   1.762   4.015   2.661
 1560SOL     OW 6269   1.797   4.277   2.601
 1560SOL    HW2 6270   1.713   4.314   2.628
 1560SOL    HW3 6271   1.794   4.276   2.506
 1560SOL    MW4 6272   1.786   4.282   2.592
 1561SOL     OW 6273   2.024   4.365   2.750
 1561SOL    HW2 6274   1.938   4.332   2.727
 1561SOL    HW3 6275   2.028   4.452   2.710
 1561SOL    MW4 6276   2.013   4.372   2.741
 1562SOL     OW 6277   2.488   4.626   2.634
 1562SOL    HW2 6278   2.554   4.687   2.668
 1562SOL    HW3 6279   2.495   4.634   2.539
 1562SOL    MW4 6280   2.498   4.635   2.626
 1563SOL     OW 6281   2.230   0.113   2.675
 1563SOL    HW2 6282   2.212   0.119   2.769
 1563SOL    HW3 6283   2.310   0.060   2.669
 1563SOL    MW4 6284   2.238   0.107   2.686
 1564SOL     OW 6285   2.277   0.385   2.618
 1564SOL    HW2 6286   2.266   0.290   2.627
 1564SOL    HW3 6287   2.247   0.404   2.529
 1564SOL    MW4 6288   2.271   0.375   2.607
 1565SOL     OW 6289   2.486   0.522   2.720
 1565SOL    HW2 6290   2.488   0.606   2.673
 1565SOL    HW3 6291   2.414   0.474   2.679
 1565SOL    MW4 6292   2.477   0.527   2.708
 1566SOL     OW 6293   2.501   0.768   2.620
 1566SOL    HW2 6294   2.420   0.813   2.643
 1566SOL    HW3 6295   2.497   0.758   2.525
 1566SOL    MW4 6296   2.490   0.773   2.610
 1567SOL     OW 6297   2.264   0.876   2.703
 1567SOL    HW2 6298   2.249   0.870   2.798
 1567SOL    HW3 6299   2.200   0.816   2.666
 1567SOL    MW4 6300   2.253   0.867   2.711
 1568SOL     OW 6301   2.243   1.122   2.567
 1568SOL    HW2 6302   2.224   1.038   2.608
 1568SOL    HW3 6303   2.240   1.104   2.473
 1568SOL    MW4 6304   2.240   1.108   2.560
 1569SOL     OW 6305   2.466   1.272   2.727
 1569SOL    HW2 6306   2.538   1.225   2.686
 1569SOL    HW3 6307   2.388   1.239   2.681
 1569SOL    MW4 6308   2.465   1.261   2.715
 1570SOL     OW 6309   2.482   1.547   2.637
 1570SOL    HW2 6310   2.394   1.572   2.664
 1570SOL    HW3 6311   2.500   1.465   2.684
 1570SOL    MW4 6312   2.473   1.539   2.647
 1571SOL     OW 6313   2.250   1.643   2.747
 1571SOL    HW2 6314   2.233   1.735   2.724
 1571SOL    HW3 6315   2.177   1.595   2.710
 1571SOL    MW4 6316   2.238   1.649   2.739
 1572SOL     OW 6317   2.176   1.913   2.696
 1572SOL    HW2 6318   2.097   1.958   2.725
 1572SOL    HW3 6319   2.187   1.940   2.605
 1572SOL    MW4 6320   2.167   1.922   2.688
 1573SOL     OW 6321   2.436   2.019   2.750
 1573SOL    HW2 6322   2.444   2.112   2.731
 1573SOL    HW3 6323   2.346   1.997   2.726
 1573SOL    MW4 6324   2.425   2.028   2.744
 1574SOL     OW 6325   2.423   2.266   2.631
 1574SOL    HW2 6326   2.504   2.312   2.653
 1574SOL    HW3 6327   2.417   2.274   2.536
 1574SOL    MW4 6328   2.433   2.273   2.621
 1575SOL     OW 6329   2.227   2.438   2.718
 1575SOL    HW2 6330   2.233   2.447   2.813
 1575SOL    HW3 6331   2.299   2.378   2.695
 1575SOL    MW4 6332   2.237   2.431   2.728
 1576SOL     OW 6333   2.214   2.702   2.632
 1576SOL    HW2 6334   2.304   2.727   2.653
 1576SOL    HW3 6335   2.208   2.611   2.659
 1576SOL    MW4 6336   2.225   2.693   2.638
 1577SOL     OW 6337   2.449   2.770   2.750
 1577SOL    HW2 6338   2.527   2.731   2.712
 1577SOL    HW3 6339   2.453   2.862   2.723
 1577SOL    MW4 6340   2.460   2.777   2.742
 1578SOL     OW 6341   2.467   3.035   2.658
 1578SOL    HW2 6342   2.395   3.090   2.688
 1578SOL    HW3 6343   2.467   3.046   2.563
 1578SOL    MW4 6344   2.458   3.044   2.649
 1579SOL     OW 6345   2.257   3.210   2.728
 1579SOL    HW2 6346   2.251   3.197   2.823
 1579SOL    HW3 6347   2.171   3.185   2.695
 1579SOL    MW4 6348   2.245   3.205   2.736
 1580SOL     OW 6349   2.251   3.476   2.601
 1580SOL    HW2 6350   2.318   3.536   2.636
 1580SOL    HW3 6351   2.247   3.405   2.666
 1580SOL    MW4 6352   2.260   3.475   2.614
 1581SOL     OW 6353   2.487   3.587   2.694
 1581SOL    HW2 6354   2.489   3.600   2.789
 1581SOL    HW3 6355   2.503   3.674   2.657
 1581SOL    MW4 6356   2.490   3.600   2.701
 1582SOL     OW 6357   2.491   3.846   2.597
 1582SOL    HW2 6358   2.567   3.888   2.637
 1582SOL    HW3 6359   2.417   3.901   2.623
 1582SOL    MW4 6360   2.491   3.859   2.606
 1583SOL     OW 6361   2.242   3.982   2.671
 1583SOL    HW2 6362   2.244   3.994   2.766
 1583SOL    HW3 6363   2.151   3.960   2.652
 1583SOL    MW4 6364   2.230   3.981   2.681
 1584SOL     OW 6365   2.245   4.247   2.590
 1584SOL    HW2 6366   2.252   4.158   2.626
 1584SOL    HW3 6367   2.166   4.283   2.631
 1584SOL    MW4 6368   2.236   4.240   2.600
 1585SOL     OW 6369   2.475   4.354   2.702
 1585SOL    HW2 6370   2.397   4.313   2.664
 1585SOL    HW3 6371   2.474   4.444   2.669
 1585SOL    MW4 6372   2.465   4.360   2.693
 1586SOL     OW 6373   2.892   4.638   2.626
 1586SOL    HW2 6374   2.974   4.683   2.646
 1586SOL    HW3 6375   2.895   4.624   2.531
 1586SOL    MW4 6376   2.903   4.642   2.616
 1587SOL     OW 6377   2.686   0.150   2.726
 1587SOL    HW2 6378   2.665   0.151   2.819
 1587SOL    HW3 6379   2.748   0.077   2.716
 1587SOL    MW4 6380   2.692   0.140   2.737
 1588SOL     OW 6381   2.693   0.388   2.599
 1588SOL    HW2 6382   2.695   0.307   2.650
 1588SOL    HW3 6383   2.633   0.446   2.646
 1588SOL    MW4 6384   2.685   0.385   2.612
 1589SOL     OW 6385   2.919   0.494   2.734
 1589SOL    HW2 6386   2.906   0.588   2.725
 1589SOL    HW3 6387   2.860   0.455   2.670
 1589SOL    MW4 6388   2.910   0.501   2.725
 1590SOL     OW 6389   2.889   0.776   2.659
 1590SOL    HW2 6390   2.975   0.812   2.682
 1590SOL    HW3 6391   2.826   0.840   2.691
 1590SOL    MW4 6392   2.892   0.789   2.666
 1591SOL     OW 6393   2.682   0.930   2.748
 1591SOL    HW2 6394   2.682   0.908   2.841
 1591SOL    HW3 6395   2.628   0.863   2.706
 1591SOL    MW4 6396   2.675   0.918   2.754
 1592SOL     OW 6397   2.692   1.163   2.618
 1592SOL    HW2 6398   2.775   1.202   2.645
 1592SOL    HW3 6399   2.692   1.076   2.659
 1592SOL    MW4 6400   2.703   1.156   2.627
 1593SOL     OW 6401   2.934   1.272   2.701
 1593SOL    HW2 6402   2.940   1.254   2.795
 1593SOL    HW3 6403   3.021   1.252   2.667
 1593SOL    MW4 6404   2.947   1.267   2.709
 1594SOL     OW 6405   2.952   1.546   2.613
 1594SOL    HW2 6406   2.877   1.591   2.652
 1594SOL    HW3 6407   2.948   1.457   2.648
 1594SOL    MW4 6408   2.941   1.540   2.623
 1595SOL     OW 6409   2.706   1.665   2.724
 1595SOL    HW2 6410   2.690   1.644   2.816
 1595SOL    HW3 6411   2.624   1.646   2.680
 1595SOL    MW4 6412   2.693   1.660   2.730
 1596SOL     OW 6413   2.672   1.930   2.640
 1596SOL    HW2 6414   2.691   1.837   2.655
 1596SOL    HW3 6415   2.585   1.943   2.679
 1596SOL    MW4 6416   2.663   1.919   2.647
 1597SOL     OW 6417   2.902   2.061   2.743
 1597SOL    HW2 6418   2.911   2.145   2.697
 1597SOL    HW3 6419   2.818   2.026   2.713
 1597SOL    MW4 6420   2.892   2.068   2.733
 1598SOL     OW 6421   2.912   2.297   2.590
 1598SOL    HW2 6422   2.979   2.353   2.628
 1598SOL    HW3 6423   2.829   2.338   2.615
 1598SOL    MW4 6424   2.910   2.310   2.598
 1599SOL     OW 6425   2.655   2.399   2.704
 1599SOL    HW2 6426   2.666   2.403   2.799
 1599SOL    HW3 6427   2.665   2.490   2.675
 1599SOL    MW4 6428   2.657   2.412   2.713
 1600SOL     OW 6429   2.685   2.652   2.627
 1600SOL    HW2 6430   2.749   2.717   2.657
 1600SOL    HW3 6431   2.688   2.658   2.531
 1600SOL    MW4 6432   2.694   2.662   2.618
 1601SOL     OW 6433   2.908   2.805   2.719
 1601SOL    HW2 6434   2.911   2.796   2.814
 1601SOL    HW3 6435   2.909   2.900   2.704
 1601SOL    MW4 6436   2.909   2.817   2.729
 1602SOL     OW 6437   2.947   3.081   2.633
 1602SOL    HW2 6438   2.869   3.116   2.679
 1602SOL    HW3 6439   2.920   3.077   2.541
 1602SOL    MW4 6440   2.933   3.085   2.627
 1603SOL     OW 6441   2.715   3.180   2.735
 1603SOL    HW2 6442   2.721   3.268   2.698
 1603SOL    HW3 6443   2.624   3.154   2.722
 1603SOL    MW4 6444   2.704   3.188   2.728
 1604SOL     OW 6445   2.725   3.427   2.639
 1604SOL    HW2 6446   2.644   3.471   2.666
 1604SOL    HW3 6447   2.724   3.431   2.543
 1604SOL    MW4 6448   2.714   3.433   2.630
 1605SOL     OW 6449   2.917   3.614   2.734
 1605SOL    HW2 6450   2.923   3.609   2.830
 1605SOL    HW3 6451   2.842   3.558   2.712
 1605SOL    MW4 6452   2.908   3.606   2.744
 1606SOL     OW 6453   2.927   3.869   2.596
 1606SOL    HW2 6454   2.986   3.922   2.650
 1606SOL    HW3 6455   2.929   3.782   2.636
 1606SOL    MW4 6456   2.935   3.865   2.609
 1607SOL     OW 6457   2.708   3.954   2.732
 1607SOL    HW2 6458   2.709   4.046   2.708
 1607SOL    HW3 6459   2.787   3.917   2.691
 1607SOL    MW4 6460   2.719   3.961   2.724
 1608SOL     OW 6461   2.711   4.206   2.645
 1608SOL    HW2 6462   2.774   4.262   2.689
 1608SOL    HW3 6463   2.626   4.242   2.669
 1608SOL    MW4 6464   2.708   4.218   2.654
 1609SOL     OW 6465   2.896   4.382   2.713
 1609SOL    HW2 6466   2.890   4.386   2.808
 1609SOL    HW3 6467   2.872   4.470   2.683
 1609SOL    MW4 6468   2.892   4.394   2.721
 1610SOL     OW 6469   3.342   4.649   2.569
 1610SOL    HW2 6470   3.338   4.566   2.616
 1610SOL    HW3 6471   3.270   4.701   2.606
 1610SOL    MW4 6472   3.332   4.645   2.580
 1611SOL     OW 6473   3.125   0.106   2.694
 1611SOL    HW2 6474   3.133   0.100   2.789
 1611SOL    HW3 6475   3.138   0.199   2.675
 1611SOL    MW4 6476   3.128   0.118   2.704
 1612SOL     OW 6477   3.156   0.365   2.630
 1612SOL    HW2 6478   3.072   0.405   2.653
 1612SOL    HW3 6479   3.154   0.358   2.534
 1612SOL    MW4 6480   3.144   0.369   2.620
 1613SOL     OW 6481   3.365   0.492   2.764
 1613SOL    HW2 6482   3.369   0.585   2.740
 1613SOL    HW3 6483   3.289   0.458   2.718
 1613SOL    MW4 6484   3.356   0.500   2.755
 1614SOL     OW 6485   3.363   0.754   2.665
 1614SOL    HW2 6486   3.445   0.797   2.690
 1614SOL    HW3 6487   3.375   0.733   2.573
 1614SOL    MW4 6488   3.375   0.757   2.656
 1615SOL     OW 6489   3.151   0.915   2.707
 1615SOL    HW2 6490   3.129   0.911   2.800
 1615SOL    HW3 6491   3.216   0.845   2.696
 1615SOL    MW4 6492   3.157   0.905   2.718
 1616SOL     OW 6493   3.176   1.164   2.622
 1616SOL    HW2 6494   3.176   1.076   2.660
 1616SOL    HW3 6495   3.174   1.149   2.527
 1616SOL    MW4 6496   3.176   1.150   2.614
 1617SOL     OW 6497   3.409   1.287   2.747
 1617SOL    HW2 6498   3.396   1.284   2.841
 1617SOL    HW3 6499   3.338   1.234   2.711
 1617SOL    MW4 6500   3.398   1.280   2.754
 1618SOL     OW 6501   3.391   1.540   2.611
 1618SOL    HW2 6502   3.326   1.595   2.655
 1618SOL    HW3 6503   3.390   1.457   2.660
 1618SOL    MW4 6504   3.382   1.536   2.623
 1619SOL     OW 6505   3.181   1.691   2.706
 1619SOL    HW2 6506   3.148   1.771   2.665
 1619SOL    HW3 6507   3.119   1.623   2.678
 1619SOL    MW4 6508   3.168   1.693   2.697
 1620SOL     OW 6509   3.076   1.909   2.573
 1620SOL    HW2 6510   3.155   1.956   2.599
 1620SOL    HW3 6511   3.005   1.953   2.621
 1620SOL    MW4 6512   3.077   1.921   2.583
 1621SOL     OW 6513   3.308   2.029   2.694
 1621SOL    HW2 6514   3.309   2.024   2.790
 1621SOL    HW3 6515   3.309   2.122   2.675
 1621SOL    MW4 6516   3.308   2.040   2.704
 1622SOL     OW 6517   3.351   2.321   2.638
 1622SOL    HW2 6518   3.424   2.363   2.684
 1622SOL    HW3 6519   3.376   2.322   2.546
 1622SOL    MW4 6520   3.364   2.327   2.632
 1623SOL     OW 6521   3.101   2.462   2.721
 1623SOL    HW2 6522   3.106   2.554   2.697
 1623SOL    HW3 6523   3.182   2.424   2.687
 1623SOL    MW4 6524   3.113   2.469   2.713
 1624SOL     OW 6525   3.149   2.718   2.621
 1624SOL    HW2 6526   3.226   2.769   2.646
 1624SOL    HW3 6527   3.076   2.764   2.662
 1624SOL    MW4 6528   3.150   2.731   2.630
 1625SOL     OW 6529   3.393   2.851   2.708
 1625SOL    HW2 6530   3.381   2.823   2.799
 1625SOL    HW3 6531   3.465   2.796   2.676
 1625SOL    MW4 6532   3.401   2.840   2.716
 1626SOL     OW 6533   3.375   3.103   2.603
 1626SOL    HW2 6534   3.393   3.025   2.655
 1626SOL    HW3 6535   3.383   3.075   2.512
 1626SOL    MW4 6536   3.379   3.089   2.598
 1627SOL     OW 6537   3.151   3.240   2.689
 1627SOL    HW2 6538   3.224   3.185   2.661
 1627SOL    HW3 6539   3.072   3.190   2.667
 1627SOL    MW4 6540   3.150   3.226   2.682
 1628SOL     OW 6541   3.121   3.488   2.570
 1628SOL    HW2 6542   3.117   3.404   2.614
 1628SOL    HW3 6543   3.071   3.547   2.626
 1628SOL    MW4 6544   3.114   3.485   2.583
 1629SOL     OW 6545   3.365   3.611   2.703
 1629SOL    HW2 6546   3.361   3.621   2.798
 1629SOL    HW3 6547   3.286   3.562   2.680
 1629SOL    MW4 6548   3.354   3.606   2.713
 1630SOL     OW 6549   3.373   3.874   2.633
 1630SOL    HW2 6550   3.367   3.784   2.666
 1630SOL    HW3 6551   3.376   3.864   2.538
 1630SOL    MW4 6552   3.373   3.861   2.625
 1631SOL     OW 6553   3.152   4.013   2.711
 1631SOL    HW2 6554   3.147   4.094   2.661
 1631SOL    HW3 6555   3.234   3.972   2.683
 1631SOL    MW4 6556   3.162   4.018   2.701
 1632SOL     OW 6557   3.141   4.257   2.595
 1632SOL    HW2 6558   3.066   4.299   2.638
 1632SOL    HW3 6559   3.119   4.259   2.502
 1632SOL    MW4 6560   3.128   4.263   2.588
 1633SOL     OW 6561   3.351   4.399   2.708
 1633SOL    HW2 6562   3.354   4.388   2.803
 1633SOL    HW3 6563   3.284   4.336   2.679
 1633SOL    MW4 6564   3.343   4.389   2.717
 1634SOL     OW 6565   3.781   4.633   2.610
 1634SOL    HW2 6566   3.782   4.551   2.660
 1634SOL    HW3 6567   3.702   4.679   2.641
 1634SOL    MW4 6568   3.771   4.628   2.621
 1635SOL     OW 6569   3.556   0.111   2.695
 1635SOL    HW2 6570   3.572   0.200   2.662
 1635SOL    HW3 6571   3.477   0.083   2.649
 1635SOL    MW4 6572   3.548   0.119   2.684
 1636SOL     OW 6573   3.575   0.381   2.641
 1636SOL    HW2 6574   3.657   0.415   2.677
 1636SOL    HW3 6575   3.506   0.426   2.690
 1636SOL    MW4 6576   3.576   0.391   2.652
 1637SOL     OW 6577   3.814   0.526   2.707
 1637SOL    HW2 6578   3.828   0.514   2.801
 1637SOL    HW3 6579   3.875   0.464   2.666
 1637SOL    MW4 6580   3.824   0.516   2.714
 1638SOL     OW 6581   3.791   0.773   2.616
 1638SOL    HW2 6582   3.716   0.796   2.670
 1638SOL    HW3 6583   3.802   0.678   2.629
 1638SOL    MW4 6584   3.783   0.763   2.625
 1639SOL     OW 6585   3.592   0.856   2.763
 1639SOL    HW2 6586   3.576   0.853   2.857
 1639SOL    HW3 6587   3.606   0.949   2.744
 1639SOL    MW4 6588   3.592   0.868   2.773
 1640SOL     OW 6589   3.617   1.126   2.695
 1640SOL    HW2 6590   3.695   1.174   2.723
 1640SOL    HW3 6591   3.544   1.183   2.718
 1640SOL    MW4 6592   3.618   1.140   2.701
 1641SOL     OW 6593   3.833   1.277   2.770
 1641SOL    HW2 6594   3.909   1.229   2.737
 1641SOL    HW3 6595   3.836   1.361   2.726
 1641SOL    MW4 6596   3.843   1.282   2.760
 1642SOL     OW 6597   3.843   1.502   2.626
 1642SOL    HW2 6598   3.913   1.566   2.639
 1642SOL    HW3 6599   3.766   1.544   2.666
 1642SOL    MW4 6600   3.842   1.516   2.633
 1643SOL     OW 6601   3.628   1.636   2.716
 1643SOL    HW2 6602   3.630   1.725   2.679
 1643SOL    HW3 6603   3.546   1.599   2.683
 1643SOL    MW4 6604   3.618   1.643   2.707
 1644SOL     OW 6605   3.574   1.911   2.624
 1644SOL    HW2 6606   3.487   1.939   2.652
 1644SOL    HW3 6607   3.575   1.926   2.529
 1644SOL    MW4 6608   3.563   1.917   2.615
 1645SOL     OW 6609   3.796   2.054   2.725
 1645SOL    HW2 6610   3.869   2.029   2.668
 1645SOL    HW3 6611   3.722   2.002   2.695
 1645SOL    MW4 6612   3.796   2.044   2.714
 1646SOL     OW 6613   3.773   2.306   2.625
 1646SOL    HW2 6614   3.786   2.218   2.662
 1646SOL    HW3 6615   3.775   2.293   2.530
 1646SOL    MW4 6616   3.775   2.293   2.617
 1647SOL     OW 6617   3.582   2.464   2.741
 1647SOL    HW2 6618   3.595   2.457   2.835
 1647SOL    HW3 6619   3.650   2.409   2.703
 1647SOL    MW4 6620   3.592   2.456   2.748
 1648SOL     OW 6621   3.599   2.703   2.610
 1648SOL    HW2 6622   3.584   2.619   2.653
 1648SOL    HW3 6623   3.608   2.680   2.517
 1648SOL    MW4 6624   3.598   2.689   2.603
 1649SOL     OW 6625   3.831   2.879   2.711
 1649SOL    HW2 6626   3.902   2.827   2.672
 1649SOL    HW3 6627   3.752   2.829   2.690
 1649SOL    MW4 6628   3.830   2.865   2.703
 1650SOL     OW 6629   3.800   3.135   2.593
 1650SOL    HW2 6630   3.726   3.174   2.639
 1650SOL    HW3 6631   3.814   3.051   2.638
 1650SOL    MW4 6632   3.792   3.129   2.605
 1651SOL     OW 6633   3.570   3.245   2.718
 1651SOL    HW2 6634   3.572   3.336   2.688
 1651SOL    HW3 6635   3.490   3.208   2.681
 1651SOL    MW4 6636   3.560   3.252   2.709
 1652SOL     OW 6637   3.572   3.487   2.595
 1652SOL    HW2 6638   3.656   3.527   2.617
 1652SOL    HW3 6639   3.506   3.541   2.638
 1652SOL    MW4 6640   3.574   3.499   2.603
 1653SOL     OW 6641   3.782   3.628   2.700
 1653SOL    HW2 6642   3.866   3.591   2.676
 1653SOL    HW3 6643   3.780   3.714   2.657
 1653SOL    MW4 6644   3.793   3.635   2.691
 1654SOL     OW 6645   3.775   3.886   2.598
 1654SOL    HW2 6646   3.857   3.916   2.636
 1654SOL    HW3 6647   3.707   3.931   2.649
 1654SOL    MW4 6648   3.777   3.896   2.610
 1655SOL     OW 6649   3.586   4.017   2.760
 1655SOL    HW2 6650   3.580   4.102   2.717
 1655SOL    HW3 6651   3.524   3.961   2.714
 1655SOL    MW4 6652   3.577   4.020   2.748
 1656SOL     OW 6653   3.598   4.261   2.646
 1656SOL    HW2 6654   3.514   4.302   2.670
 1656SOL    HW3 6655   3.603   4.273   2.551
 1656SOL    MW4 6656   3.587   4.268   2.636
 1657SOL     OW 6657   3.813   4.395   2.733
 1657SOL    HW2 6658   3.897   4.359   2.704
 1657SOL    HW3 6659   3.748   4.353   2.678
 1657SOL    MW4 6660   3.816   4.385   2.722
 1658SOL     OW 6661   4.222   4.663   2.613
 1658SOL    HW2 6662   4.149   4.708   2.655
 1658SOL    HW3 6663   4.300   4.706   2.648
 1658SOL    MW4 6664   4.223   4.675   2.623
 1659SOL     OW 6665   3.995   0.095   2.720
 1659SOL    HW2 6666   3.986   0.093   2.815
 1659SOL    HW3 6667   3.918   0.050   2.687
 1659SOL    MW4 6668   3.984   0.089   2.728
 1660SOL     OW 6669   4.001   0.347   2.627
 1660SOL    HW2 6670   3.978   0.259   2.657
 1660SOL    HW3 6671   4.037   0.332   2.539
 1660SOL    MW4 6672   4.003   0.333   2.619
 1661SOL     OW 6673   4.225   0.488   2.746
 1661SOL    HW2 6674   4.147   0.440   2.718
 1661SOL    HW3 6675   4.296   0.448   2.696
 1661SOL    MW4 6676   4.224   0.476   2.736
 1662SOL     OW 6677   4.215   0.761   2.647
 1662SOL    HW2 6678   4.209   0.672   2.682
 1662SOL    HW3 6679   4.215   0.749   2.552
 1662SOL    MW4 6680   4.214   0.747   2.639
 1663SOL     OW 6681   3.996   0.891   2.731
 1663SOL    HW2 6682   4.075   0.842   2.706
 1663SOL    HW3 6683   3.925   0.849   2.682
 1663SOL    MW4 6684   3.997   0.879   2.721
 1664SOL     OW 6685   4.060   1.152   2.663
 1664SOL    HW2 6686   4.133   1.191   2.710
 1664SOL    HW3 6687   4.061   1.060   2.689
 1664SOL    MW4 6688   4.069   1.145   2.673
 1665SOL     OW 6689   4.283   1.295   2.745
 1665SOL    HW2 6690   4.282   1.381   2.704
 1665SOL    HW3 6691   4.352   1.247   2.699
 1665SOL    MW4 6692   4.292   1.300   2.734
 1666SOL     OW 6693   4.250   1.566   2.611
 1666SOL    HW2 6694   4.334   1.591   2.649
 1666SOL    HW3 6695   4.262   1.580   2.517
 1666SOL    MW4 6696   4.263   1.571   2.603
 1667SOL     OW 6697   4.026   1.713   2.666
 1667SOL    HW2 6698   4.012   1.713   2.760
 1667SOL    HW3 6699   4.109   1.666   2.654
 1667SOL    MW4 6700   4.035   1.707   2.677
 1668SOL     OW 6701   4.034   1.975   2.590
 1668SOL    HW2 6702   4.112   1.998   2.640
 1668SOL    HW3 6703   4.023   1.881   2.606
 1668SOL    MW4 6704   4.043   1.965   2.599
 1669SOL     OW 6705   4.261   2.062   2.714
 1669SOL    HW2 6706   4.274   2.151   2.684
 1669SOL    HW3 6707   4.334   2.013   2.676
 1669SOL    MW4 6708   4.272   2.067   2.705
 1670SOL     OW 6709   4.282   2.312   2.587
 1670SOL    HW2 6710   4.203   2.352   2.622
 1670SOL    HW3 6711   4.266   2.305   2.493
 1670SOL    MW4 6712   4.270   2.316   2.579
 1671SOL     OW 6713   4.030   2.452   2.647
 1671SOL    HW2 6714   4.016   2.456   2.741
 1671SOL    HW3 6715   3.958   2.397   2.615
 1671SOL    MW4 6716   4.018   2.445   2.655
 1672SOL     OW 6717   4.022   2.714   2.595
 1672SOL    HW2 6718   4.107   2.750   2.619
 1672SOL    HW3 6719   4.030   2.620   2.612
 1672SOL    MW4 6720   4.034   2.706   2.600
 1673SOL     OW 6721   4.267   2.854   2.680
 1673SOL    HW2 6722   4.281   2.844   2.774
 1673SOL    HW3 6723   4.262   2.948   2.666
 1673SOL    MW4 6724   4.268   2.865   2.690
 1674SOL     OW 6725   4.273   3.118   2.614
 1674SOL    HW2 6726   4.194   3.156   2.653
 1674SOL    HW3 6727   4.257   3.120   2.520
 1674SOL    MW4 6728   4.260   3.123   2.607
 1675SOL     OW 6729   4.032   3.255   2.694
 1675SOL    HW2 6730   4.029   3.345   2.661
 1675SOL    HW3 6731   3.954   3.213   2.658
 1675SOL    MW4 6732   4.021   3.261   2.685
 1676SOL     OW 6733   4.012   3.506   2.597
 1676SOL    HW2 6734   4.089   3.548   2.636
 1676SOL    HW3 6735   4.027   3.510   2.503
 1676SOL    MW4 6736   4.024   3.512   2.590
 1677SOL     OW 6737   4.234   3.634   2.687
 1677SOL    HW2 6738   4.238   3.613   2.780
 1677SOL    HW3 6739   4.315   3.599   2.651
 1677SOL    MW4 6740   4.245   3.626   2.695
 1678SOL     OW 6741   4.211   3.895   2.627
 1678SOL    HW2 6742   4.219   3.807   2.662
 1678SOL    HW3 6743   4.289   3.941   2.659
 1678SOL    MW4 6744   4.222   3.890   2.636
 1679SOL     OW 6745   3.983   4.023   2.726
 1679SOL    HW2 6746   4.005   4.032   2.818
 1679SOL    HW3 6747   4.061   3.982   2.687
 1679SOL    MW4 6748   3.996   4.019   2.733
 1680SOL     OW 6749   4.040   4.273   2.617
 1680SOL    HW2 6750   4.029   4.180   2.640
 1680SOL    HW3 6751   4.022   4.276   2.523
 1680SOL    MW4 6752   4.036   4.261   2.607
 1681SOL     OW 6753   4.243   4.417   2.739
 1681SOL    HW2 6754   4.170   4.370   2.700
 1681SOL    HW3 6755   4.235   4.506   2.705
 1681SOL    MW4 6756   4.232   4.423   2.729
 1682SOL     OW 6757   0.181   4.638   3.071
 1682SOL    HW2 6758   0.188   4.640   3.167
 1682SOL    HW3 6759   0.112   4.701   3.051
 1682SOL    MW4 6760   0.173   4.646   3.081
 1683SOL     OW 6761   4.480   0.144   2.995
 1683SOL    HW2 6762   4.405   0.110   3.044
 1683SOL    HW3 6763   4.498   0.229   3.036
 1683SOL    MW4 6764   4.473   0.151   3.007
 1684SOL     OW 6765   4.489   0.390   3.113
 1684SOL    HW2 6766   4.482   0.377   3.207
 1684SOL    HW3 6767   4.400   0.413   3.085
 1684SOL    MW4 6768   4.476   0.391   3.122
 1685SOL     OW 6769   0.236   0.488   2.995
 1685SOL    HW2 6770   0.290   0.424   3.042
 1685SOL    HW3 6771   0.146   0.465   3.020
 1685SOL    MW4 6772   0.231   0.476   3.005
 1686SOL     OW 6773   0.196   0.746   3.082
 1686SOL    HW2 6774   0.216   0.747   3.175
 1686SOL    HW3 6775   0.204   0.655   3.056
 1686SOL    MW4 6776   0.199   0.734   3.090
 1687SOL     OW 6777   4.431   0.836   2.998
 1687SOL    HW2 6778   4.519   0.811   3.027
 1687SOL    HW3 6779   4.438   0.842   2.903
 1687SOL    MW4 6780   4.443   0.834   2.989
 1688SOL     OW 6781   4.479   1.089   3.057
 1688SOL    HW2 6782   4.415   1.145   3.014
 1688SOL    HW3 6783   4.460   1.001   3.025
 1688SOL    MW4 6784   4.468   1.085   3.047
 1689SOL     OW 6785   0.217   1.243   3.002
 1689SOL    HW2 6786   0.141   1.197   3.040
 1689SOL    HW3 6787   0.200   1.242   2.908
 1689SOL    MW4 6788   0.205   1.237   2.995
 1690SOL     OW 6789   0.229   1.536   3.078
 1690SOL    HW2 6790   0.148   1.575   3.044
 1690SOL    HW3 6791   0.228   1.446   3.045
 1690SOL    MW4 6792   0.218   1.529   3.069
 1691SOL     OW 6793   0.006   1.673   3.002
 1691SOL    HW2 6794  -0.080   1.640   3.030
 1691SOL    HW3 6795   0.016   1.757   3.047
 1691SOL    MW4 6796  -0.004   1.680   3.011
 1692SOL     OW 6797   0.038   1.945   3.081
 1692SOL    HW2 6798  -0.039   1.991   3.047
 1692SOL    HW3 6799   0.113   1.986   3.038
 1692SOL    MW4 6800   0.038   1.956   3.071
 1693SOL     OW 6801   0.246   2.088   2.971
 1693SOL    HW2 6802   0.222   2.178   2.991
 1693SOL    HW3 6803   0.227   2.079   2.877
 1693SOL    MW4 6804   0.240   2.099   2.961
 1694SOL     OW 6805   0.214   2.346   3.038
 1694SOL    HW2 6806   0.198   2.343   3.132
 1694SOL    HW3 6807   0.292   2.401   3.029
 1694SOL    MW4 6808   0.222   2.353   3.049
 1695SOL     OW 6809   4.457   2.454   2.983
 1695SOL    HW2 6810   4.479   2.541   3.016
 1695SOL    HW3 6811   4.539   2.404   2.992
 1695SOL    MW4 6812   4.471   2.459   2.989
 1696SOL     OW 6813   4.483   2.712   3.097
 1696SOL    HW2 6814   4.508   2.689   3.186
 1696SOL    HW3 6815   4.563   2.750   3.059
 1696SOL    MW4 6816   4.497   2.714   3.104
 1697SOL     OW 6817   0.212   2.837   2.962
 1697SOL    HW2 6818   0.297   2.804   2.990
 1697SOL    HW3 6819   0.214   2.829   2.866
 1697SOL    MW4 6820   0.223   2.832   2.953
 1698SOL     OW 6821   0.208   3.067   3.106
 1698SOL    HW2 6822   0.126   3.111   3.084
 1698SOL    HW3 6823   0.208   2.987   3.054
 1698SOL    MW4 6824   0.197   3.062   3.096
 1699SOL     OW 6825   4.484   3.239   2.967
 1699SOL    HW2 6826   4.401   3.195   2.983
 1699SOL    HW3 6827   4.484   3.257   2.873
 1699SOL    MW4 6828   4.473   3.236   2.957
 1700SOL     OW 6829   0.017   3.490   3.102
 1700SOL    HW2 6830  -0.052   3.545   3.064
 1700SOL    HW3 6831   0.012   3.408   3.053
 1700SOL    MW4 6832   0.008   3.486   3.090
 1701SOL     OW 6833   0.264   3.620   3.003
 1701SOL    HW2 6834   0.231   3.710   3.013
 1701SOL    HW3 6835   0.194   3.565   3.039
 1701SOL    MW4 6836   0.250   3.625   3.009
 1702SOL     OW 6837   0.155   3.873   3.076
 1702SOL    HW2 6838   0.138   3.870   3.170
 1702SOL    HW3 6839   0.243   3.908   3.068
 1702SOL    MW4 6840   0.164   3.877   3.087
 1703SOL     OW 6841   4.416   4.013   2.985
 1703SOL    HW2 6842   4.497   3.973   3.018
 1703SOL    HW3 6843   4.429   4.019   2.890
 1703SOL    MW4 6844   4.429   4.009   2.977
 1704SOL     OW 6845   4.465   4.262   3.088
 1704SOL    HW2 6846   4.475   4.254   3.182
 1704SOL    HW3 6847   4.442   4.174   3.058
 1704SOL    MW4 6848   4.463   4.250   3.096
 1705SOL     OW 6849   0.200   4.381   2.961
 1705SOL    HW2 6850   0.132   4.334   3.009
 1705SOL    HW3 6851   0.213   4.462   3.011
 1705SOL    MW4 6852   0.192   4.385   2.974
 1706SOL     OW 6853   0.657   4.662   3.086
 1706SOL    HW2 6854   0.652   4.567   3.075
 1706SOL    HW3 6855   0.581   4.696   3.040
 1706SOL    MW4 6856   0.646   4.654   3.079
 1707SOL     OW 6857   0.423   0.085   2.948
 1707SOL    HW2 6858   0.418   0.164   3.002
 1707SOL    HW3 6859   0.365   0.022   2.990
 1707SOL    MW4 6860   0.415   0.087   2.960
 1708SOL     OW 6861   0.428   0.315   3.104
 1708SOL    HW2 6862   0.421   0.338   3.197
 1708SOL    HW3 6863   0.507   0.361   3.074
 1708SOL    MW4 6864   0.438   0.324   3.112
 1709SOL     OW 6865   0.645   0.470   3.001
 1709SOL    HW2 6866   0.726   0.429   3.028
 1709SOL    HW3 6867   0.644   0.554   3.047
 1709SOL    MW4 6868   0.655   0.476   3.011
 1710SOL     OW 6869   0.636   0.736   3.089
 1710SOL    HW2 6870   0.631   0.735   3.185
 1710SOL    HW3 6871   0.551   0.767   3.061
 1710SOL    MW4 6872   0.624   0.740   3.098
 1711SOL     OW 6873   0.410   0.866   2.953
 1711SOL    HW2 6874   0.332   0.824   2.988
 1711SOL    HW3 6875   0.400   0.862   2.858
 1711SOL    MW4 6876   0.399   0.860   2.945
 1712SOL     OW 6877   0.439   1.123   3.101
 1712SOL    HW2 6878   0.434   1.046   3.045
 1712SOL    HW3 6879   0.362   1.175   3.077
 1712SOL    MW4 6880   0.428   1.120   3.091
 1713SOL     OW 6881   0.676   1.264   3.018
 1713SOL    HW2 6882   0.750   1.217   3.057
 1713SOL    HW3 6883   0.598   1.220   3.052
 1713SOL    MW4 6884   0.676   1.252   3.028
 1714SOL     OW 6885   0.667   1.557   3.077
 1714SOL    HW2 6886   0.676   1.554   3.172
 1714SOL    HW3 6887   0.666   1.465   3.050
 1714SOL    MW4 6888   0.668   1.545   3.086
 1715SOL     OW 6889   0.441   1.688   2.955
 1715SOL    HW2 6890   0.522   1.649   2.988
 1715SOL    HW3 6891   0.371   1.639   2.998
 1715SOL    MW4 6892   0.442   1.677   2.965
 1716SOL     OW 6893   0.457   1.959   3.081
 1716SOL    HW2 6894   0.457   1.875   3.034
 1716SOL    HW3 6895   0.372   1.998   3.060
 1716SOL    MW4 6896   0.446   1.953   3.072
 1717SOL     OW 6897   0.666   2.093   2.953
 1717SOL    HW2 6898   0.729   2.032   2.992
 1717SOL    HW3 6899   0.583   2.072   2.997
 1717SOL    MW4 6900   0.663   2.082   2.964
 1718SOL     OW 6901   0.675   2.344   3.084
 1718SOL    HW2 6902   0.663   2.339   3.179
 1718SOL    HW3 6903   0.667   2.253   3.054
 1718SOL    MW4 6904   0.672   2.331   3.093
 1719SOL     OW 6905   0.453   2.483   3.003
 1719SOL    HW2 6906   0.536   2.449   3.037
 1719SOL    HW3 6907   0.465   2.485   2.908
 1719SOL    MW4 6908   0.466   2.478   2.995
 1720SOL     OW 6909   0.442   2.748   3.086
 1720SOL    HW2 6910   0.529   2.775   3.057
 1720SOL    HW3 6911   0.439   2.654   3.068
 1720SOL    MW4 6912   0.453   2.739   3.080
 1721SOL     OW 6913   0.699   2.838   2.986
 1721SOL    HW2 6914   0.773   2.799   3.033
 1721SOL    HW3 6915   0.705   2.931   3.005
 1721SOL    MW4 6916   0.709   2.845   2.995
 1722SOL     OW 6917   0.684   3.090   3.070
 1722SOL    HW2 6918   0.693   3.092   3.165
 1722SOL    HW3 6919   0.593   3.114   3.054
 1722SOL    MW4 6920   0.673   3.094   3.080
 1723SOL     OW 6921   0.427   3.178   2.998
 1723SOL    HW2 6922   0.443   3.264   3.037
 1723SOL    HW3 6923   0.350   3.145   3.045
 1723SOL    MW4 6924   0.419   3.185   3.010
 1724SOL     OW 6925   0.467   3.453   3.098
 1724SOL    HW2 6926   0.492   3.479   3.187
 1724SOL    HW3 6927   0.403   3.520   3.071
 1724SOL    MW4 6928   0.462   3.466   3.106
 1725SOL     OW 6929   0.656   3.608   2.993
 1725SOL    HW2 6930   0.742   3.575   3.020
 1725SOL    HW3 6931   0.593   3.550   3.035
 1725SOL    MW4 6932   0.659   3.596   3.002
 1726SOL     OW 6933   0.630   3.862   3.099
 1726SOL    HW2 6934   0.670   3.863   3.186
 1726SOL    HW3 6935   0.637   3.771   3.071
 1726SOL    MW4 6936   0.636   3.850   3.107
 1727SOL     OW 6937   0.396   4.005   3.022
 1727SOL    HW2 6938   0.456   3.937   3.055
 1727SOL    HW3 6939   0.409   4.004   2.928
 1727SOL    MW4 6940   0.406   3.996   3.014
 1728SOL     OW 6941   0.397   4.270   3.133
 1728SOL    HW2 6942   0.399   4.178   3.108
 1728SOL    HW3 6943   0.331   4.309   3.077
 1728SOL    MW4 6944   0.389   4.263   3.122
 1729SOL     OW 6945   0.638   4.376   3.049
 1729SOL    HW2 6946   0.565   4.322   3.079
 1729SOL    HW3 6947   0.627   4.381   2.954
 1729SOL    MW4 6948   0.627   4.370   3.040
 1730SOL     OW 6949   1.074   4.660   3.090
 1730SOL    HW2 6950   1.156   4.700   3.060
 1730SOL    HW3 6951   1.006   4.721   3.061
 1730SOL    MW4 6952   1.075   4.673   3.082
 1731SOL     OW 6953   0.865   0.117   2.957
 1731SOL    HW2 6954   0.865   0.195   3.012
 1731SOL    HW3 6955   0.796   0.062   2.992
 1731SOL    MW4 6956   0.856   0.120   2.969
 1732SOL     OW 6957   0.875   0.349   3.087
 1732SOL    HW2 6958   0.869   0.358   3.182
 1732SOL    HW3 6959   0.966   0.372   3.067
 1732SOL    MW4 6960   0.886   0.353   3.097
 1733SOL     OW 6961   1.130   0.451   3.024
 1733SOL    HW2 6962   1.216   0.417   3.050
 1733SOL    HW3 6963   1.138   0.464   2.929
 1733SOL    MW4 6964   1.143   0.448   3.015
 1734SOL     OW 6965   1.146   0.714   3.092
 1734SOL    HW2 6966   1.125   0.727   3.185
 1734SOL    HW3 6967   1.141   0.620   3.079
 1734SOL    MW4 6968   1.143   0.703   3.102
 1735SOL     OW 6969   0.919   0.862   3.012
 1735SOL    HW2 6970   0.996   0.811   3.036
 1735SOL    HW3 6971   0.844   0.809   3.040
 1735SOL    MW4 6972   0.919   0.848   3.019
 1736SOL     OW 6973   0.894   1.111   3.117
 1736SOL    HW2 6974   0.968   1.154   3.075
 1736SOL    HW3 6975   0.890   1.025   3.077
 1736SOL    MW4 6976   0.903   1.106   3.106
 1737SOL     OW 6977   1.102   1.262   3.007
 1737SOL    HW2 6978   1.180   1.213   3.035
 1737SOL    HW3 6979   1.112   1.271   2.912
 1737SOL    MW4 6980   1.114   1.257   2.998
 1738SOL     OW 6981   1.119   1.522   3.103
 1738SOL    HW2 6982   1.199   1.568   3.079
 1738SOL    HW3 6983   1.124   1.440   3.054
 1738SOL    MW4 6984   1.131   1.517   3.093
 1739SOL     OW 6985   0.905   1.647   2.957
 1739SOL    HW2 6986   0.980   1.614   3.007
 1739SOL    HW3 6987   0.830   1.602   2.994
 1739SOL    MW4 6988   0.905   1.637   2.969
 1740SOL     OW 6989   0.826   1.899   3.095
 1740SOL    HW2 6990   0.850   1.907   3.188
 1740SOL    HW3 6991   0.856   1.811   3.070
 1740SOL    MW4 6992   0.833   1.888   3.104
 1741SOL     OW 6993   1.080   2.027   3.035
 1741SOL    HW2 6994   1.003   1.986   3.072
 1741SOL    HW3 6995   1.062   2.031   2.941
 1741SOL    MW4 6996   1.068   2.022   3.028
 1742SOL     OW 6997   1.118   2.302   3.070
 1742SOL    HW2 6998   1.049   2.347   3.021
 1742SOL    HW3 6999   1.097   2.209   3.062
 1742SOL    MW4 7000   1.106   2.296   3.063
 1743SOL     OW 7001   0.902   2.457   2.970
 1743SOL    HW2 7002   0.822   2.424   3.011
 1743SOL    HW3 7003   0.889   2.440   2.876
 1743SOL    MW4 7004   0.890   2.450   2.963
 1744SOL     OW 7005   0.928   2.709   3.097
 1744SOL    HW2 7006   0.948   2.685   3.188
 1744SOL    HW3 7007   0.921   2.626   3.051
 1744SOL    MW4 7008   0.930   2.695   3.103
 1745SOL     OW 7009   1.130   2.865   2.986
 1745SOL    HW2 7010   1.132   2.957   3.015
 1745SOL    HW3 7011   1.052   2.828   3.027
 1745SOL    MW4 7012   1.120   2.873   2.995
 1746SOL     OW 7013   1.122   3.118   3.085
 1746SOL    HW2 7014   1.195   3.176   3.064
 1746SOL    HW3 7015   1.044   3.165   3.055
 1746SOL    MW4 7016   1.122   3.132   3.078
 1747SOL     OW 7017   0.893   3.245   2.993
 1747SOL    HW2 7018   0.814   3.198   3.020
 1747SOL    HW3 7019   0.899   3.230   2.899
 1747SOL    MW4 7020   0.883   3.237   2.984
 1748SOL     OW 7021   0.898   3.511   3.071
 1748SOL    HW2 7022   0.973   3.563   3.042
 1748SOL    HW3 7023   0.915   3.423   3.036
 1748SOL    MW4 7024   0.910   3.506   3.063
 1749SOL     OW 7025   1.125   3.654   2.982
 1749SOL    HW2 7026   1.201   3.629   3.035
 1749SOL    HW3 7027   1.116   3.748   2.995
 1749SOL    MW4 7028   1.134   3.663   2.991
 1750SOL     OW 7029   1.122   3.916   3.077
 1750SOL    HW2 7030   1.136   3.922   3.171
 1750SOL    HW3 7031   1.033   3.949   3.065
 1750SOL    MW4 7032   1.112   3.921   3.088
 1751SOL     OW 7033   0.865   4.003   3.001
 1751SOL    HW2 7034   0.792   3.946   3.025
 1751SOL    HW3 7035   0.871   3.996   2.906
 1751SOL    MW4 7036   0.856   3.995   2.992
 1752SOL     OW 7037   0.880   4.263   3.091
 1752SOL    HW2 7038   0.868   4.178   3.050
 1752SOL    HW3 7039   0.799   4.311   3.073
 1752SOL    MW4 7040   0.868   4.258   3.084
 1753SOL     OW 7041   1.089   4.403   2.978
 1753SOL    HW2 7042   1.021   4.348   3.017
 1753SOL    HW3 7043   1.077   4.489   3.018
 1753SOL    MW4 7044   1.078   4.407   2.988
 1754SOL     OW 7045   1.507   4.611   3.073
 1754SOL    HW2 7046   1.507   4.623   3.168
 1754SOL    HW3 7047   1.429   4.658   3.043
 1754SOL    MW4 7048   1.496   4.619   3.082
 1755SOL     OW 7049   1.310   0.089   2.972
 1755SOL    HW2 7050   1.324   0.181   2.997
 1755SOL    HW3 7051   1.305   0.092   2.876
 1755SOL    MW4 7052   1.311   0.102   2.962
 1756SOL     OW 7053   1.394   0.350   3.074
 1756SOL    HW2 7054   1.392   0.351   3.170
 1756SOL    HW3 7055   1.468   0.406   3.051
 1756SOL    MW4 7056   1.403   0.358   3.083
 1757SOL     OW 7057   1.632   0.481   2.975
 1757SOL    HW2 7058   1.625   0.574   2.998
 1757SOL    HW3 7059   1.610   0.479   2.882
 1757SOL    MW4 7060   1.628   0.493   2.966
 1758SOL     OW 7061   1.590   0.742   3.079
 1758SOL    HW2 7062   1.576   0.729   3.173
 1758SOL    HW3 7063   1.504   0.768   3.045
 1758SOL    MW4 7064   1.577   0.744   3.087
 1759SOL     OW 7065   1.366   0.844   2.988
 1759SOL    HW2 7066   1.346   0.932   3.020
 1759SOL    HW3 7067   1.299   0.789   3.027
 1759SOL    MW4 7068   1.355   0.849   2.997
 1760SOL     OW 7069   1.321   1.105   3.080
 1760SOL    HW2 7070   1.327   1.120   3.174
 1760SOL    HW3 7071   1.392   1.157   3.042
 1760SOL    MW4 7072   1.331   1.114   3.087
 1761SOL     OW 7073   1.541   1.246   2.978
 1761SOL    HW2 7074   1.614   1.196   3.014
 1761SOL    HW3 7075   1.547   1.331   3.020
 1761SOL    MW4 7076   1.551   1.250   2.988
 1762SOL     OW 7077   1.529   1.501   3.092
 1762SOL    HW2 7078   1.605   1.546   3.054
 1762SOL    HW3 7079   1.454   1.554   3.065
 1762SOL    MW4 7080   1.530   1.514   3.084
 1763SOL     OW 7081   1.330   1.664   3.007
 1763SOL    HW2 7082   1.328   1.757   3.027
 1763SOL    HW3 7083   1.310   1.659   2.913
 1763SOL    MW4 7084   1.327   1.676   2.997
 1764SOL     OW 7085   1.331   1.914   3.091
 1764SOL    HW2 7086   1.352   1.908   3.185
 1764SOL    HW3 7087   1.242   1.948   3.088
 1764SOL    MW4 7088   1.322   1.917   3.103
 1765SOL     OW 7089   1.548   2.072   2.989
 1765SOL    HW2 7090   1.480   2.022   3.034
 1765SOL    HW3 7091   1.529   2.060   2.896
 1765SOL    MW4 7092   1.536   2.064   2.982
 1766SOL     OW 7093   1.554   2.351   3.090
 1766SOL    HW2 7094   1.489   2.406   3.047
 1766SOL    HW3 7095   1.530   2.262   3.066
 1766SOL    MW4 7096   1.542   2.347   3.081
 1767SOL     OW 7097   1.327   2.482   3.011
 1767SOL    HW2 7098   1.258   2.422   3.038
 1767SOL    HW3 7099   1.303   2.508   2.922
 1767SOL    MW4 7100   1.315   2.478   3.003
 1768SOL     OW 7101   1.340   2.728   3.108
 1768SOL    HW2 7102   1.338   2.637   3.079
 1768SOL    HW3 7103   1.259   2.766   3.074
 1768SOL    MW4 7104   1.329   2.721   3.100
 1769SOL     OW 7105   1.549   2.842   2.971
 1769SOL    HW2 7106   1.626   2.808   3.016
 1769SOL    HW3 7107   1.474   2.810   3.022
 1769SOL    MW4 7108   1.549   2.833   2.984
 1770SOL     OW 7109   1.544   3.127   3.084
 1770SOL    HW2 7110   1.543   3.127   3.179
 1770SOL    HW3 7111   1.551   3.034   3.060
 1770SOL    MW4 7112   1.545   3.115   3.093
 1771SOL     OW 7113   1.320   3.286   3.013
 1771SOL    HW2 7114   1.394   3.231   3.039
 1771SOL    HW3 7115   1.324   3.287   2.917
 1771SOL    MW4 7116   1.331   3.279   3.003
 1772SOL     OW 7117   1.370   3.575   3.069
 1772SOL    HW2 7118   1.360   3.569   3.164
 1772SOL    HW3 7119   1.382   3.484   3.041
 1772SOL    MW4 7120   1.370   3.562   3.078
 1773SOL     OW 7121   1.607   3.624   2.955
 1773SOL    HW2 7122   1.521   3.603   2.990
 1773SOL    HW3 7123   1.592   3.639   2.861
 1773SOL    MW4 7124   1.594   3.623   2.947
 1774SOL     OW 7125   1.572   3.874   3.061
 1774SOL    HW2 7126   1.652   3.921   3.038
 1774SOL    HW3 7127   1.579   3.790   3.016
 1774SOL    MW4 7128   1.583   3.869   3.052
 1775SOL     OW 7129   1.347   4.018   2.966
 1775SOL    HW2 7130   1.419   3.962   2.993
 1775SOL    HW3 7131   1.271   3.983   3.012
 1775SOL    MW4 7132   1.346   4.006   2.976
 1776SOL     OW 7133   1.314   4.268   3.039
 1776SOL    HW2 7134   1.314   4.178   3.006
 1776SOL    HW3 7135   1.226   4.301   3.020
 1776SOL    MW4 7136   1.303   4.260   3.032
 1777SOL     OW 7137   1.557   4.369   2.961
 1777SOL    HW2 7138   1.470   4.335   2.982
 1777SOL    HW3 7139   1.554   4.460   2.991
 1777SOL    MW4 7140   1.545   4.376   2.968
 1778SOL     OW 7141   2.026   4.618   3.083
 1778SOL    HW2 7142   2.015   4.624   3.178
 1778SOL    HW3 7143   1.943   4.650   3.047
 1778SOL    MW4 7144   2.014   4.623   3.091
 1779SOL     OW 7145   1.765   0.081   3.043
 1779SOL    HW2 7146   1.684   0.038   3.071
 1779SOL    HW3 7147   1.762   0.080   2.948
 1779SOL    MW4 7148   1.754   0.075   3.034
 1780SOL     OW 7149   1.816   0.361   3.105
 1780SOL    HW2 7150   1.801   0.268   3.086
 1780SOL    HW3 7151   1.749   0.407   3.055
 1780SOL    MW4 7152   1.805   0.355   3.096
 1781SOL     OW 7153   2.020   0.496   2.979
 1781SOL    HW2 7154   1.943   0.455   3.017
 1781SOL    HW3 7155   2.009   0.484   2.884
 1781SOL    MW4 7156   2.009   0.489   2.971
 1782SOL     OW 7157   2.012   0.742   3.080
 1782SOL    HW2 7158   1.925   0.775   3.061
 1782SOL    HW3 7159   2.016   0.658   3.035
 1782SOL    MW4 7160   2.001   0.735   3.072
 1783SOL     OW 7161   1.797   0.891   2.971
 1783SOL    HW2 7162   1.717   0.846   2.999
 1783SOL    HW3 7163   1.805   0.870   2.878
 1783SOL    MW4 7164   1.787   0.882   2.963
 1784SOL     OW 7165   1.762   1.138   3.079
 1784SOL    HW2 7166   1.773   1.125   3.173
 1784SOL    HW3 7167   1.770   1.051   3.041
 1784SOL    MW4 7168   1.764   1.125   3.087
 1785SOL     OW 7169   1.993   1.257   2.985
 1785SOL    HW2 7170   2.069   1.215   3.027
 1785SOL    HW3 7171   1.917   1.220   3.029
 1785SOL    MW4 7172   1.993   1.247   2.996
 1786SOL     OW 7173   2.007   1.506   3.104
 1786SOL    HW2 7174   2.014   1.504   3.200
 1786SOL    HW3 7175   2.003   1.414   3.078
 1786SOL    MW4 7176   2.007   1.494   3.114
 1787SOL     OW 7177   1.772   1.621   3.004
 1787SOL    HW2 7178   1.764   1.711   3.036
 1787SOL    HW3 7179   1.843   1.583   3.056
 1787SOL    MW4 7180   1.780   1.628   3.015
 1788SOL     OW 7181   1.765   1.907   3.095
 1788SOL    HW2 7182   1.844   1.956   3.072
 1788SOL    HW3 7183   1.694   1.968   3.079
 1788SOL    MW4 7184   1.766   1.922   3.090
 1789SOL     OW 7185   2.003   2.043   3.049
 1789SOL    HW2 7186   2.079   1.991   3.073
 1789SOL    HW3 7187   2.030   2.134   3.066
 1789SOL    MW4 7188   2.016   2.048   3.054
 1790SOL     OW 7189   2.014   2.310   3.084
 1790SOL    HW2 7190   2.081   2.363   3.042
 1790SOL    HW3 7191   1.931   2.350   3.056
 1790SOL    MW4 7192   2.012   2.323   3.075
 1791SOL     OW 7193   1.776   2.444   2.961
 1791SOL    HW2 7194   1.781   2.532   2.997
 1791SOL    HW3 7195   1.691   2.411   2.990
 1791SOL    MW4 7196   1.766   2.451   2.970
 1792SOL     OW 7197   1.788   2.719   3.037
 1792SOL    HW2 7198   1.790   2.731   3.132
 1792SOL    HW3 7199   1.876   2.743   3.009
 1792SOL    MW4 7200   1.800   2.724   3.046
 1793SOL     OW 7201   2.049   2.866   2.974
 1793SOL    HW2 7202   2.042   2.954   3.013
 1793SOL    HW3 7203   2.010   2.876   2.887
 1793SOL    MW4 7204   2.043   2.879   2.967
 1794SOL     OW 7205   1.991   3.105   3.093
 1794SOL    HW2 7206   1.997   3.122   3.187
 1794SOL    HW3 7207   1.920   3.162   3.063
 1794SOL    MW4 7208   1.982   3.115   3.101
 1795SOL     OW 7209   1.770   3.247   2.967
 1795SOL    HW2 7210   1.687   3.228   3.010
 1795SOL    HW3 7211   1.751   3.238   2.873
 1795SOL    MW4 7212   1.756   3.243   2.960
 1796SOL     OW 7213   1.799   3.501   3.102
 1796SOL    HW2 7214   1.803   3.419   3.053
 1796SOL    HW3 7215   1.738   3.556   3.051
 1796SOL    MW4 7216   1.791   3.497   3.089
 1797SOL     OW 7217   2.014   3.625   2.953
 1797SOL    HW2 7218   2.037   3.709   2.994
 1797SOL    HW3 7219   1.945   3.589   3.010
 1797SOL    MW4 7220   2.008   3.631   2.966
 1798SOL     OW 7221   2.027   3.875   3.061
 1798SOL    HW2 7222   2.021   3.861   3.155
 1798SOL    HW3 7223   1.939   3.902   3.034
 1798SOL    MW4 7224   2.014   3.877   3.070
 1799SOL     OW 7225   1.808   4.002   2.955
 1799SOL    HW2 7226   1.790   4.088   2.993
 1799SOL    HW3 7227   1.778   4.009   2.864
 1799SOL    MW4 7228   1.802   4.015   2.948
 1800SOL     OW 7229   1.768   4.237   3.081
 1800SOL    HW2 7230   1.849   4.283   3.060
 1800SOL    HW3 7231   1.698   4.291   3.044
 1800SOL    MW4 7232   1.769   4.250   3.073
 1801SOL     OW 7233   2.022   4.347   3.023
 1801SOL    HW2 7234   2.040   4.439   3.043
 1801SOL    HW3 7235   2.032   4.341   2.928
 1801SOL    MW4 7236   2.026   4.358   3.013
 1802SOL     OW 7237   2.440   4.649   3.086
 1802SOL    HW2 7238   2.434   4.561   3.049
 1802SOL    HW3 7239   2.371   4.698   3.041
 1802SOL    MW4 7240   2.430   4.644   3.075
 1803SOL     OW 7241   2.223   0.117   2.968
 1803SOL    HW2 7242   2.205   0.204   3.003
 1803SOL    HW3 7243   2.155   0.062   3.005
 1803SOL    MW4 7244   2.212   0.122   2.977
 1804SOL     OW 7245   2.229   0.363   3.104
 1804SOL    HW2 7246   2.229   0.353   3.199
 1804SOL    HW3 7247   2.152   0.418   3.086
 1804SOL    MW4 7248   2.219   0.369   3.114
 1805SOL     OW 7249   2.464   0.486   2.977
 1805SOL    HW2 7250   2.381   0.437   2.976
 1805SOL    HW3 7251   2.485   0.499   2.885
 1805SOL    MW4 7252   2.455   0.481   2.965
 1806SOL     OW 7253   2.439   0.747   3.092
 1806SOL    HW2 7254   2.509   0.798   3.053
 1806SOL    HW3 7255   2.443   0.662   3.047
 1806SOL    MW4 7256   2.449   0.742   3.081
 1807SOL     OW 7257   2.224   0.889   2.979
 1807SOL    HW2 7258   2.295   0.845   3.024
 1807SOL    HW3 7259   2.145   0.847   3.012
 1807SOL    MW4 7260   2.223   0.878   2.989
 1808SOL     OW 7261   2.223   1.152   3.099
 1808SOL    HW2 7262   2.223   1.165   3.194
 1808SOL    HW3 7263   2.222   1.057   3.088
 1808SOL    MW4 7264   2.223   1.141   3.110
 1809SOL     OW 7265   2.462   1.238   3.008
 1809SOL    HW2 7266   2.381   1.194   3.033
 1809SOL    HW3 7267   2.459   1.242   2.913
 1809SOL    MW4 7268   2.451   1.232   2.999
 1810SOL     OW 7269   2.473   1.477   3.122
 1810SOL    HW2 7270   2.393   1.520   3.090
 1810SOL    HW3 7271   2.473   1.392   3.077
 1810SOL    MW4 7272   2.462   1.471   3.112
 1811SOL     OW 7273   2.253   1.609   3.045
 1811SOL    HW2 7274   2.173   1.573   3.084
 1811SOL    HW3 7275   2.241   1.597   2.951
 1811SOL    MW4 7276   2.241   1.602   3.038
 1812SOL     OW 7277   2.250   1.884   3.117
 1812SOL    HW2 7278   2.335   1.923   3.101
 1812SOL    HW3 7279   2.256   1.796   3.078
 1812SOL    MW4 7280   2.262   1.877   3.110
 1813SOL     OW 7281   2.466   2.060   3.018
 1813SOL    HW2 7282   2.543   2.007   3.040
 1813SOL    HW3 7283   2.444   2.034   2.928
 1813SOL    MW4 7284   2.473   2.049   3.009
 1814SOL     OW 7285   2.436   2.316   3.092
 1814SOL    HW2 7286   2.427   2.329   3.186
 1814SOL    HW3 7287   2.419   2.223   3.078
 1814SOL    MW4 7288   2.433   2.306   3.102
 1815SOL     OW 7289   2.230   2.473   3.013
 1815SOL    HW2 7290   2.246   2.558   3.054
 1815SOL    HW3 7291   2.308   2.421   3.033
 1815SOL    MW4 7292   2.242   2.477   3.021
 1816SOL     OW 7293   2.222   2.739   3.136
 1816SOL    HW2 7294   2.306   2.771   3.104
 1816SOL    HW3 7295   2.158   2.775   3.074
 1816SOL    MW4 7296   2.225   2.748   3.124
 1817SOL     OW 7297   2.457   2.833   3.030
 1817SOL    HW2 7298   2.451   2.923   3.062
 1817SOL    HW3 7299   2.430   2.838   2.938
 1817SOL    MW4 7300   2.453   2.846   3.022
 1818SOL     OW 7301   2.461   3.083   3.132
 1818SOL    HW2 7302   2.533   3.115   3.077
 1818SOL    HW3 7303   2.382   3.112   3.087
 1818SOL    MW4 7304   2.460   3.091   3.119
 1819SOL     OW 7305   2.243   3.188   3.000
 1819SOL    HW2 7306   2.243   3.283   3.011
 1819SOL    HW3 7307   2.154   3.162   3.025
 1819SOL    MW4 7308   2.231   3.197   3.005
 1820SOL     OW 7309   2.235   3.464   3.063
 1820SOL    HW2 7310   2.314   3.511   3.036
 1820SOL    HW3 7311   2.163   3.513   3.024
 1820SOL    MW4 7312   2.236   3.477   3.055
 1821SOL     OW 7313   2.478   3.575   2.975
 1821SOL    HW2 7314   2.536   3.522   3.030
 1821SOL    HW3 7315   2.466   3.656   3.025
 1821SOL    MW4 7316   2.484   3.579   2.989
 1822SOL     OW 7317   2.445   3.816   3.089
 1822SOL    HW2 7318   2.444   3.822   3.185
 1822SOL    HW3 7319   2.526   3.862   3.063
 1822SOL    MW4 7320   2.456   3.823   3.098
 1823SOL     OW 7321   2.249   3.990   2.947
 1823SOL    HW2 7322   2.313   3.938   2.995
 1823SOL    HW3 7323   2.165   3.965   2.986
 1823SOL    MW4 7324   2.246   3.980   2.959
 1824SOL     OW 7325   2.273   4.248   3.064
 1824SOL    HW2 7326   2.262   4.163   3.022
 1824SOL    HW3 7327   2.188   4.290   3.057
 1824SOL    MW4 7328   2.260   4.242   3.058
 1825SOL     OW 7329   2.473   4.399   2.983
 1825SOL    HW2 7330   2.391   4.355   3.008
 1825SOL    HW3 7331   2.478   4.387   2.888
 1825SOL    MW4 7332   2.463   4.391   2.973
 1826SOL     OW 7333   2.881   0.006   3.091
 1826SOL    HW2 7334   2.955   0.037   3.039
 1826SOL    HW3 7335   2.869  -0.086   3.064
 1826SOL    MW4 7336   2.889  -0.002   3.080
 1827SOL     OW 7337   2.658   0.137   2.998
 1827SOL    HW2 7338   2.740   0.095   3.027
 1827SOL    HW3 7339   2.589   0.076   3.026
 1827SOL    MW4 7340   2.660   0.124   3.006
 1828SOL     OW 7341   2.682   0.401   3.108
 1828SOL    HW2 7342   2.670   0.312   3.075
 1828SOL    HW3 7343   2.598   0.444   3.094
 1828SOL    MW4 7344   2.669   0.395   3.102
 1829SOL     OW 7345   2.922   0.502   3.016
 1829SOL    HW2 7346   2.833   0.475   3.042
 1829SOL    HW3 7347   2.924   0.490   2.921
 1829SOL    MW4 7348   2.910   0.497   3.007
 1830SOL     OW 7349   2.898   0.759   3.083
 1830SOL    HW2 7350   2.902   0.760   3.179
 1830SOL    HW3 7351   2.903   0.666   3.060
 1830SOL    MW4 7352   2.899   0.747   3.092
 1831SOL     OW 7353   2.666   0.880   3.010
 1831SOL    HW2 7354   2.662   0.971   3.038
 1831SOL    HW3 7355   2.747   0.847   3.050
 1831SOL    MW4 7356   2.676   0.888   3.019
 1832SOL     OW 7357   2.719   1.145   3.129
 1832SOL    HW2 7358   2.797   1.176   3.083
 1832SOL    HW3 7359   2.647   1.193   3.088
 1832SOL    MW4 7360   2.720   1.155   3.117
 1833SOL     OW 7361   2.943   1.243   2.984
 1833SOL    HW2 7362   3.016   1.199   3.028
 1833SOL    HW3 7363   2.939   1.329   3.024
 1833SOL    MW4 7364   2.952   1.248   2.995
 1834SOL     OW 7365   2.906   1.506   3.060
 1834SOL    HW2 7366   2.897   1.540   3.149
 1834SOL    HW3 7367   2.978   1.557   3.023
 1834SOL    MW4 7368   2.915   1.518   3.067
 1835SOL     OW 7369   2.663   1.616   2.977
 1835SOL    HW2 7370   2.743   1.567   2.995
 1835SOL    HW3 7371   2.596   1.573   3.029
 1835SOL    MW4 7372   2.665   1.604   2.986
 1836SOL     OW 7373   2.669   1.881   3.078
 1836SOL    HW2 7374   2.749   1.926   3.050
 1836SOL    HW3 7375   2.678   1.792   3.044
 1836SOL    MW4 7376   2.681   1.875   3.070
 1837SOL     OW 7377   2.915   2.015   3.034
 1837SOL    HW2 7378   2.903   2.094   3.087
 1837SOL    HW3 7379   2.937   2.048   2.947
 1837SOL    MW4 7380   2.917   2.030   3.030
 1838SOL     OW 7381   2.862   2.279   3.127
 1838SOL    HW2 7382   2.941   2.319   3.091
 1838SOL    HW3 7383   2.792   2.305   3.067
 1838SOL    MW4 7384   2.863   2.288   3.115
 1839SOL     OW 7385   2.657   2.410   2.978
 1839SOL    HW2 7386   2.659   2.496   3.020
 1839SOL    HW3 7387   2.587   2.363   3.023
 1839SOL    MW4 7388   2.648   2.415   2.990
 1840SOL     OW 7389   2.671   2.665   3.101
 1840SOL    HW2 7390   2.652   2.649   3.193
 1840SOL    HW3 7391   2.599   2.721   3.071
 1840SOL    MW4 7392   2.659   2.670   3.109
 1841SOL     OW 7393   2.914   2.806   3.017
 1841SOL    HW2 7394   2.995   2.764   3.044
 1841SOL    HW3 7395   2.845   2.745   3.042
 1841SOL    MW4 7396   2.916   2.793   3.024
 1842SOL     OW 7397   2.917   3.082   3.087
 1842SOL    HW2 7398   2.830   3.116   3.063
 1842SOL    HW3 7399   2.914   2.990   3.062
 1842SOL    MW4 7400   2.905   3.074   3.080
 1843SOL     OW 7401   2.681   3.205   3.012
 1843SOL    HW2 7402   2.703   3.293   3.043
 1843SOL    HW3 7403   2.700   3.208   2.918
 1843SOL    MW4 7404   2.687   3.217   3.003
 1844SOL     OW 7405   2.715   3.450   3.120
 1844SOL    HW2 7406   2.717   3.441   3.216
 1844SOL    HW3 7407   2.772   3.525   3.102
 1844SOL    MW4 7408   2.723   3.459   3.131
 1845SOL     OW 7409   2.928   3.627   3.025
 1845SOL    HW2 7410   3.013   3.592   3.051
 1845SOL    HW3 7411   2.927   3.716   3.061
 1845SOL    MW4 7412   2.939   3.634   3.033
 1846SOL     OW 7413   2.943   3.903   3.097
 1846SOL    HW2 7414   2.936   3.900   3.192
 1846SOL    HW3 7415   2.858   3.934   3.068
 1846SOL    MW4 7416   2.931   3.907   3.106
 1847SOL     OW 7417   2.692   3.964   2.998
 1847SOL    HW2 7418   2.685   4.057   3.021
 1847SOL    HW3 7419   2.705   3.965   2.903
 1847SOL    MW4 7420   2.693   3.976   2.988
 1848SOL     OW 7421   2.685   4.222   3.070
 1848SOL    HW2 7422   2.699   4.229   3.165
 1848SOL    HW3 7423   2.609   4.278   3.053
 1848SOL    MW4 7424   2.676   4.230   3.080
 1849SOL     OW 7425   2.863   4.412   2.989
 1849SOL    HW2 7426   2.951   4.393   3.022
 1849SOL    HW3 7427   2.809   4.339   3.021
 1849SOL    MW4 7428   2.867   4.400   2.998
 1850SOL     OW 7429   3.307   4.630   3.109
 1850SOL    HW2 7430   3.381   4.677   3.072
 1850SOL    HW3 7431   3.319   4.539   3.080
 1850SOL    MW4 7432   3.318   4.624   3.100
 1851SOL     OW 7433   3.119   0.123   2.988
 1851SOL    HW2 7434   3.106   0.207   3.033
 1851SOL    HW3 7435   3.190   0.081   3.034
 1851SOL    MW4 7436   3.126   0.129   3.000
 1852SOL     OW 7437   3.107   0.349   3.136
 1852SOL    HW2 7438   3.191   0.386   3.106
 1852SOL    HW3 7439   3.041   0.405   3.095
 1852SOL    MW4 7440   3.109   0.361   3.126
 1853SOL     OW 7441   3.340   0.439   3.039
 1853SOL    HW2 7442   3.415   0.391   3.074
 1853SOL    HW3 7443   3.357   0.445   2.945
 1853SOL    MW4 7444   3.352   0.433   3.031
 1854SOL     OW 7445   3.346   0.719   3.086
 1854SOL    HW2 7446   3.339   0.722   3.181
 1854SOL    HW3 7447   3.344   0.625   3.065
 1854SOL    MW4 7448   3.345   0.707   3.096
 1855SOL     OW 7449   3.140   0.877   2.993
 1855SOL    HW2 7450   3.200   0.816   3.035
 1855SOL    HW3 7451   3.053   0.843   3.014
 1855SOL    MW4 7452   3.136   0.865   3.002
 1856SOL     OW 7453   3.146   1.117   3.145
 1856SOL    HW2 7454   3.218   1.150   3.091
 1856SOL    HW3 7455   3.132   1.027   3.114
 1856SOL    MW4 7456   3.154   1.110   3.133
 1857SOL     OW 7457   3.343   1.241   3.013
 1857SOL    HW2 7458   3.414   1.203   3.064
 1857SOL    HW3 7459   3.341   1.333   3.038
 1857SOL    MW4 7460   3.352   1.248   3.023
 1858SOL     OW 7461   3.345   1.526   3.066
 1858SOL    HW2 7462   3.338   1.505   3.159
 1858SOL    HW3 7463   3.425   1.579   3.059
 1858SOL    MW4 7464   3.355   1.530   3.077
 1859SOL     OW 7465   3.119   1.678   2.987
 1859SOL    HW2 7466   3.197   1.627   3.008
 1859SOL    HW3 7467   3.129   1.698   2.894
 1859SOL    MW4 7468   3.130   1.674   2.977
 1860SOL     OW 7469   3.156   1.912   3.122
 1860SOL    HW2 7470   3.142   1.825   3.086
 1860SOL    HW3 7471   3.079   1.962   3.094
 1860SOL    MW4 7472   3.144   1.907   3.113
 1861SOL     OW 7473   3.373   2.036   2.979
 1861SOL    HW2 7474   3.449   1.981   2.995
 1861SOL    HW3 7475   3.306   2.004   3.039
 1861SOL    MW4 7476   3.374   2.025   2.989
 1862SOL     OW 7477   3.358   2.304   3.061
 1862SOL    HW2 7478   3.363   2.301   3.157
 1862SOL    HW3 7479   3.368   2.213   3.033
 1862SOL    MW4 7480   3.360   2.292   3.070
 1863SOL     OW 7481   3.096   2.366   2.998
 1863SOL    HW2 7482   3.189   2.351   3.016
 1863SOL    HW3 7483   3.092   2.386   2.905
 1863SOL    MW4 7484   3.108   2.366   2.988
 1864SOL     OW 7485   3.152   2.639   3.070
 1864SOL    HW2 7486   3.147   2.657   3.164
 1864SOL    HW3 7487   3.121   2.548   3.061
 1864SOL    MW4 7488   3.147   2.629   3.081
 1865SOL     OW 7489   3.353   2.798   2.975
 1865SOL    HW2 7490   3.350   2.879   3.026
 1865SOL    HW3 7491   3.280   2.746   3.008
 1865SOL    MW4 7492   3.343   2.802   2.986
 1866SOL     OW 7493   3.359   3.064   3.093
 1866SOL    HW2 7494   3.370   3.092   3.183
 1866SOL    HW3 7495   3.276   3.104   3.065
 1866SOL    MW4 7496   3.349   3.073   3.101
 1867SOL     OW 7497   3.150   3.218   2.982
 1867SOL    HW2 7498   3.068   3.175   3.009
 1867SOL    HW3 7499   3.147   3.216   2.886
 1867SOL    MW4 7500   3.139   3.212   2.973
 1868SOL     OW 7501   3.155   3.490   3.092
 1868SOL    HW2 7502   3.223   3.542   3.049
 1868SOL    HW3 7503   3.159   3.404   3.049
 1868SOL    MW4 7504   3.164   3.485   3.081
 1869SOL     OW 7505   3.357   3.631   2.967
 1869SOL    HW2 7506   3.429   3.593   3.017
 1869SOL    HW3 7507   3.339   3.715   3.010
 1869SOL    MW4 7508   3.364   3.637   2.979
 1870SOL     OW 7509   3.307   3.863   3.075
 1870SOL    HW2 7510   3.309   3.856   3.171
 1870SOL    HW3 7511   3.240   3.930   3.058
 1870SOL    MW4 7512   3.298   3.871   3.086
 1871SOL     OW 7513   3.134   4.071   3.003
 1871SOL    HW2 7514   3.064   4.019   3.042
 1871SOL    HW3 7515   3.132   4.048   2.910
 1871SOL    MW4 7516   3.124   4.061   2.996
 1872SOL     OW 7517   3.101   4.322   3.108
 1872SOL    HW2 7518   3.128   4.316   3.200
 1872SOL    HW3 7519   3.096   4.232   3.078
 1872SOL    MW4 7520   3.104   4.310   3.116
 1873SOL     OW 7521   3.357   4.376   2.998
 1873SOL    HW2 7522   3.428   4.342   3.053
 1873SOL    HW3 7523   3.277   4.342   3.039
 1873SOL    MW4 7524   3.356   4.367   3.011
 1874SOL     OW 7525   3.789   4.639   3.103
 1874SOL    HW2 7526   3.796   4.546   3.086
 1874SOL    HW3 7527   3.714   4.667   3.050
 1874SOL    MW4 7528   3.780   4.631   3.094
 1875SOL     OW 7529   3.544   0.069   2.990
 1875SOL    HW2 7530   3.570   0.155   3.023
 1875SOL    HW3 7531   3.547   0.077   2.895
 1875SOL    MW4 7532   3.548   0.081   2.982
 1876SOL     OW 7533   3.591   0.319   3.083
 1876SOL    HW2 7534   3.590   0.344   3.175
 1876SOL    HW3 7535   3.671   0.359   3.049
 1876SOL    MW4 7536   3.601   0.328   3.090
 1877SOL     OW 7537   3.800   0.477   2.982
 1877SOL    HW2 7538   3.884   0.445   3.016
 1877SOL    HW3 7539   3.779   0.553   3.036
 1877SOL    MW4 7540   3.809   0.483   2.993
 1878SOL     OW 7541   3.794   0.703   3.134
 1878SOL    HW2 7542   3.807   0.722   3.227
 1878SOL    HW3 7543   3.868   0.747   3.090
 1878SOL    MW4 7544   3.806   0.712   3.140
 1879SOL     OW 7545   3.589   0.853   3.055
 1879SOL    HW2 7546   3.659   0.798   3.089
 1879SOL    HW3 7547   3.509   0.802   3.069
 1879SOL    MW4 7548   3.587   0.839   3.061
 1880SOL     OW 7549   3.558   1.120   3.137
 1880SOL    HW2 7550   3.647   1.152   3.122
 1880SOL    HW3 7551   3.562   1.027   3.116
 1880SOL    MW4 7552   3.570   1.112   3.132
 1881SOL     OW 7553   3.796   1.233   3.051
 1881SOL    HW2 7554   3.802   1.320   3.090
 1881SOL    HW3 7555   3.794   1.249   2.957
 1881SOL    MW4 7556   3.796   1.247   3.044
 1882SOL     OW 7557   3.831   1.516   3.112
 1882SOL    HW2 7558   3.845   1.505   3.206
 1882SOL    HW3 7559   3.743   1.552   3.105
 1882SOL    MW4 7560   3.821   1.520   3.124
 1883SOL     OW 7561   3.608   1.657   2.991
 1883SOL    HW2 7562   3.616   1.751   3.008
 1883SOL    HW3 7563   3.608   1.651   2.895
 1883SOL    MW4 7564   3.609   1.669   2.980
 1884SOL     OW 7565   3.634   1.912   3.093
 1884SOL    HW2 7566   3.654   1.905   3.187
 1884SOL    HW3 7567   3.706   1.962   3.057
 1884SOL    MW4 7568   3.646   1.918   3.101
 1885SOL     OW 7569   3.845   2.059   3.006
 1885SOL    HW2 7570   3.848   2.148   3.039
 1885SOL    HW3 7571   3.831   2.068   2.912
 1885SOL    MW4 7572   3.843   2.072   2.998
 1886SOL     OW 7573   3.852   2.333   3.079
 1886SOL    HW2 7574   3.854   2.330   3.175
 1886SOL    HW3 7575   3.764   2.366   3.059
 1886SOL    MW4 7576   3.841   2.337   3.089
 1887SOL     OW 7577   3.603   2.439   3.004
 1887SOL    HW2 7578   3.593   2.528   3.037
 1887SOL    HW3 7579   3.527   2.392   3.037
 1887SOL    MW4 7580   3.592   2.445   3.013
 1888SOL     OW 7581   3.591   2.689   3.107
 1888SOL    HW2 7582   3.668   2.734   3.072
 1888SOL    HW3 7583   3.517   2.726   3.058
 1888SOL    MW4 7584   3.591   2.700   3.096
 1889SOL     OW 7585   3.795   2.832   2.998
 1889SOL    HW2 7586   3.786   2.917   3.041
 1889SOL    HW3 7587   3.813   2.853   2.907
 1889SOL    MW4 7588   3.796   2.846   2.992
 1890SOL     OW 7589   3.786   3.095   3.113
 1890SOL    HW2 7590   3.863   3.128   3.067
 1890SOL    HW3 7591   3.712   3.140   3.071
 1890SOL    MW4 7592   3.786   3.105   3.101
 1891SOL     OW 7593   3.572   3.230   3.010
 1891SOL    HW2 7594   3.506   3.164   3.032
 1891SOL    HW3 7595   3.565   3.239   2.915
 1891SOL    MW4 7596   3.562   3.223   3.000
 1892SOL     OW 7597   3.546   3.492   3.096
 1892SOL    HW2 7598   3.631   3.531   3.074
 1892SOL    HW3 7599   3.559   3.398   3.080
 1892SOL    MW4 7600   3.559   3.485   3.091
 1893SOL     OW 7601   3.772   3.620   3.001
 1893SOL    HW2 7602   3.765   3.714   3.020
 1893SOL    HW3 7603   3.779   3.615   2.905
 1893SOL    MW4 7604   3.772   3.632   2.991
 1894SOL     OW 7605   3.749   3.890   3.115
 1894SOL    HW2 7606   3.738   3.885   3.210
 1894SOL    HW3 7607   3.675   3.943   3.085
 1894SOL    MW4 7608   3.738   3.896   3.124
 1895SOL     OW 7609   3.519   4.037   3.033
 1895SOL    HW2 7610   3.446   3.979   3.054
 1895SOL    HW3 7611   3.540   4.017   2.942
 1895SOL    MW4 7612   3.512   4.026   3.024
 1896SOL     OW 7613   3.571   4.271   3.157
 1896SOL    HW2 7614   3.635   4.313   3.100
 1896SOL    HW3 7615   3.567   4.181   3.125
 1896SOL    MW4 7616   3.579   4.264   3.145
 1897SOL     OW 7617   3.794   4.367   3.012
 1897SOL    HW2 7618   3.874   4.320   3.033
 1897SOL    HW3 7619   3.787   4.361   2.917
 1897SOL    MW4 7620   3.804   4.360   3.002
 1898SOL     OW 7621   4.254   0.005   3.121
 1898SOL    HW2 7622   4.265  -0.007   3.215
 1898SOL    HW3 7623   4.245  -0.083   3.086
 1898SOL    MW4 7624   4.254  -0.008   3.128
 1899SOL     OW 7625   4.015   0.090   2.992
 1899SOL    HW2 7626   4.095   0.055   3.031
 1899SOL    HW3 7627   3.945   0.034   3.025
 1899SOL    MW4 7628   4.017   0.078   3.001
 1900SOL     OW 7629   4.011   0.362   3.105
 1900SOL    HW2 7630   4.093   0.385   3.063
 1900SOL    HW3 7631   4.009   0.266   3.104
 1900SOL    MW4 7632   4.021   0.352   3.099
 1901SOL     OW 7633   4.235   0.473   3.015
 1901SOL    HW2 7634   4.212   0.564   3.033
 1901SOL    HW3 7635   4.236   0.467   2.919
 1901SOL    MW4 7636   4.232   0.484   3.005
 1902SOL     OW 7637   4.193   0.726   3.101
 1902SOL    HW2 7638   4.124   0.785   3.069
 1902SOL    HW3 7639   4.275   0.768   3.074
 1902SOL    MW4 7640   4.194   0.739   3.093
 1903SOL     OW 7641   3.972   0.886   3.002
 1903SOL    HW2 7642   3.998   0.972   3.036
 1903SOL    HW3 7643   3.966   0.898   2.907
 1903SOL    MW4 7644   3.974   0.899   2.994
 1904SOL     OW 7645   4.039   1.143   3.090
 1904SOL    HW2 7646   4.052   1.157   3.184
 1904SOL    HW3 7647   3.950   1.173   3.074
 1904SOL    MW4 7648   4.029   1.149   3.101
 1905SOL     OW 7649   4.280   1.282   3.020
 1905SOL    HW2 7650   4.198   1.241   3.048
 1905SOL    HW3 7651   4.266   1.304   2.928
 1905SOL    MW4 7652   4.268   1.279   3.012
 1906SOL     OW 7653   4.240   1.556   3.111
 1906SOL    HW2 7654   4.167   1.588   3.058
 1906SOL    HW3 7655   4.253   1.466   3.082
 1906SOL    MW4 7656   4.232   1.548   3.100
 1907SOL     OW 7657   4.017   1.637   2.943
 1907SOL    HW2 7658   4.026   1.718   2.992
 1907SOL    HW3 7659   3.945   1.591   2.987
 1907SOL    MW4 7660   4.009   1.641   2.955
 1908SOL     OW 7661   4.064   1.903   3.069
 1908SOL    HW2 7662   4.139   1.950   3.031
 1908SOL    HW3 7663   3.989   1.958   3.049
 1908SOL    MW4 7664   4.064   1.916   3.061
 1909SOL     OW 7665   4.285   2.053   2.992
 1909SOL    HW2 7666   4.252   2.137   3.023
 1909SOL    HW3 7667   4.276   2.057   2.896
 1909SOL    MW4 7668   4.279   2.065   2.983
 1910SOL     OW 7669   4.237   2.324   3.077
 1910SOL    HW2 7670   4.183   2.387   3.030
 1910SOL    HW3 7671   4.327   2.354   3.063
 1910SOL    MW4 7672   4.242   2.336   3.069
 1911SOL     OW 7673   4.043   2.478   2.928
 1911SOL    HW2 7674   4.053   2.560   2.977
 1911SOL    HW3 7675   3.970   2.434   2.972
 1911SOL    MW4 7676   4.034   2.483   2.940
 1912SOL     OW 7677   4.026   2.701   3.067
 1912SOL    HW2 7678   4.028   2.703   3.163
 1912SOL    HW3 7679   3.951   2.756   3.043
 1912SOL    MW4 7680   4.016   2.709   3.077
 1913SOL     OW 7681   4.251   2.840   2.974
 1913SOL    HW2 7682   4.170   2.801   3.006
 1913SOL    HW3 7683   4.321   2.796   3.023
 1913SOL    MW4 7684   4.250   2.829   2.985
 1914SOL     OW 7685   4.266   3.095   3.057
 1914SOL    HW2 7686   4.182   3.140   3.053
 1914SOL    HW3 7687   4.245   3.004   3.034
 1914SOL    MW4 7688   4.252   3.089   3.053
 1915SOL     OW 7689   4.018   3.205   3.009
 1915SOL    HW2 7690   4.026   3.298   3.032
 1915SOL    HW3 7691   4.033   3.202   2.915
 1915SOL    MW4 7692   4.021   3.217   3.000
 1916SOL     OW 7693   4.030   3.494   3.038
 1916SOL    HW2 7694   4.054   3.494   3.131
 1916SOL    HW3 7695   3.943   3.533   3.036
 1916SOL    MW4 7696   4.021   3.499   3.050
 1917SOL     OW 7697   4.263   3.598   2.950
 1917SOL    HW2 7698   4.257   3.688   2.981
 1917SOL    HW3 7699   4.185   3.555   2.985
 1917SOL    MW4 7700   4.252   3.604   2.959
 1918SOL     OW 7701   4.224   3.844   3.084
 1918SOL    HW2 7702   4.143   3.885   3.056
 1918SOL    HW3 7703   4.293   3.902   3.051
 1918SOL    MW4 7704   4.222   3.857   3.076
 1919SOL     OW 7705   4.011   3.985   3.002
 1919SOL    HW2 7706   4.027   4.070   3.044
 1919SOL    HW3 7707   3.928   3.955   3.040
 1919SOL    MW4 7708   4.002   3.992   3.013
 1920SOL     OW 7709   4.053   4.256   3.113
 1920SOL    HW2 7710   4.046   4.271   3.207
 1920SOL    HW3 7711   4.133   4.303   3.087
 1920SOL    MW4 7712   4.063   4.264   3.122
 1921SOL     OW 7713   4.252   4.422   3.008
 1921SOL    HW2 7714   4.336   4.382   3.031
 1921SOL    HW3 7715   4.252   4.426   2.913
 1921SOL    MW4 7716   4.263   4.417   2.999
 1922SOL     OW 7717   0.201   4.636   3.358
 1922SOL    HW2 7718   0.275   4.680   3.400
 1922SOL    HW3 7719   0.199   4.549   3.398
 1922SOL    MW4 7720   0.210   4.630   3.369
 1923SOL     OW 7721   0.001   0.099   3.507
 1923SOL    HW2 7722   0.008   0.192   3.484
 1923SOL    HW3 7723   0.081   0.060   3.473
 1923SOL    MW4 7724   0.012   0.106   3.500
 1924SOL     OW 7725   4.465   0.352   3.380
 1924SOL    HW2 7726   4.399   0.409   3.418
 1924SOL    HW3 7727   4.546   0.404   3.382
 1924SOL    MW4 7728   4.467   0.367   3.385
 1925SOL     OW 7729   0.191   0.513   3.451
 1925SOL    HW2 7730   0.272   0.474   3.420
 1925SOL    HW3 7731   0.194   0.603   3.420
 1925SOL    MW4 7732   0.202   0.520   3.443
 1926SOL     OW 7733   0.236   0.755   3.364
 1926SOL    HW2 7734   0.309   0.807   3.397
 1926SOL    HW3 7735   0.160   0.789   3.410
 1926SOL    MW4 7736   0.236   0.766   3.374
 1927SOL     OW 7737   0.009   0.842   3.472
 1927SOL    HW2 7738   0.001   0.841   3.568
 1927SOL    HW3 7739  -0.005   0.934   3.448
 1927SOL    MW4 7740   0.006   0.854   3.482
 1928SOL     OW 7741   4.458   1.106   3.381
 1928SOL    HW2 7742   4.543   1.149   3.395
 1928SOL    HW3 7743   4.458   1.084   3.287
 1928SOL    MW4 7744   4.469   1.109   3.370
 1929SOL     OW 7745   0.188   1.234   3.467
 1929SOL    HW2 7746   0.271   1.191   3.448
 1929SOL    HW3 7747   0.197   1.321   3.429
 1929SOL    MW4 7748   0.200   1.240   3.459
 1930SOL     OW 7749   0.239   1.489   3.348
 1930SOL    HW2 7750   0.311   1.544   3.378
 1930SOL    HW3 7751   0.246   1.490   3.253
 1930SOL    MW4 7752   0.249   1.497   3.340
 1931SOL     OW 7753   0.040   1.662   3.459
 1931SOL    HW2 7754  -0.050   1.630   3.444
 1931SOL    HW3 7755   0.095   1.603   3.409
 1931SOL    MW4 7756   0.035   1.650   3.450
 1932SOL     OW 7757   4.479   1.934   3.353
 1932SOL    HW2 7758   4.498   1.841   3.367
 1932SOL    HW3 7759   4.486   1.945   3.258
 1932SOL    MW4 7760   4.483   1.923   3.342
 1933SOL     OW 7761   0.236   2.081   3.446
 1933SOL    HW2 7762   0.222   2.070   3.540
 1933SOL    HW3 7763   0.168   2.027   3.405
 1933SOL    MW4 7764   0.225   2.072   3.453
 1934SOL     OW 7765   0.212   2.331   3.305
 1934SOL    HW2 7766   0.136   2.366   3.353
 1934SOL    HW3 7767   0.230   2.247   3.348
 1934SOL    MW4 7768   0.204   2.324   3.317
 1935SOL     OW 7769   4.481   2.443   3.437
 1935SOL    HW2 7770   4.484   2.451   3.532
 1935SOL    HW3 7771   4.397   2.401   3.419
 1935SOL    MW4 7772   4.470   2.439   3.447
 1936SOL     OW 7773   0.077   2.701   3.356
 1936SOL    HW2 7774   0.135   2.730   3.426
 1936SOL    HW3 7775   0.053   2.611   3.381
 1936SOL    MW4 7776   0.081   2.693   3.369
 1937SOL     OW 7777   0.276   2.850   3.505
 1937SOL    HW2 7778   0.357   2.823   3.463
 1937SOL    HW3 7779   0.249   2.928   3.457
 1937SOL    MW4 7780   0.283   2.857   3.493
 1938SOL     OW 7781   0.251   3.118   3.383
 1938SOL    HW2 7782   0.170   3.159   3.414
 1938SOL    HW3 7783   0.234   3.096   3.292
 1938SOL    MW4 7784   0.238   3.121   3.375
 1939SOL     OW 7785   0.013   3.210   3.487
 1939SOL    HW2 7786  -0.064   3.169   3.447
 1939SOL    HW3 7787   0.010   3.301   3.457
 1939SOL    MW4 7788   0.002   3.217   3.478
 1940SOL     OW 7789   0.001   3.473   3.401
 1940SOL    HW2 7790  -0.076   3.526   3.424
 1940SOL    HW3 7791  -0.004   3.467   3.305
 1940SOL    MW4 7792  -0.010   3.479   3.391
 1941SOL     OW 7793   0.267   3.600   3.485
 1941SOL    HW2 7794   0.247   3.622   3.577
 1941SOL    HW3 7795   0.184   3.567   3.450
 1941SOL    MW4 7796   0.253   3.599   3.493
 1942SOL     OW 7797   0.226   3.860   3.366
 1942SOL    HW2 7798   0.156   3.910   3.409
 1942SOL    HW3 7799   0.219   3.772   3.403
 1942SOL    MW4 7800   0.216   3.855   3.377
 1943SOL     OW 7801   4.489   3.997   3.439
 1943SOL    HW2 7802   4.484   3.992   3.535
 1943SOL    HW3 7803   4.488   4.091   3.421
 1943SOL    MW4 7804   4.488   4.009   3.450
 1944SOL     OW 7805   4.490   4.262   3.379
 1944SOL    HW2 7806   4.419   4.303   3.427
 1944SOL    HW3 7807   4.569   4.307   3.409
 1944SOL    MW4 7808   4.491   4.273   3.390
 1945SOL     OW 7809   0.203   4.393   3.494
 1945SOL    HW2 7810   0.208   4.399   3.590
 1945SOL    HW3 7811   0.287   4.355   3.468
 1945SOL    MW4 7812   0.215   4.389   3.503
 1946SOL     OW 7813   0.618   4.662   3.364
 1946SOL    HW2 7814   0.685   4.721   3.397
 1946SOL    HW3 7815   0.624   4.669   3.269
 1946SOL    MW4 7816   0.627   4.671   3.356
 1947SOL     OW 7817   0.407   0.118   3.486
 1947SOL    HW2 7818   0.425   0.114   3.580
 1947SOL    HW3 7819   0.485   0.079   3.446
 1947SOL    MW4 7820   0.420   0.112   3.493
 1948SOL     OW 7821   0.415   0.370   3.372
 1948SOL    HW2 7822   0.494   0.411   3.407
 1948SOL    HW3 7823   0.411   0.285   3.416
 1948SOL    MW4 7824   0.425   0.364   3.382
 1949SOL     OW 7825   0.634   0.503   3.472
 1949SOL    HW2 7826   0.647   0.517   3.566
 1949SOL    HW3 7827   0.707   0.447   3.445
 1949SOL    MW4 7828   0.646   0.498   3.481
 1950SOL     OW 7829   0.676   0.745   3.366
 1950SOL    HW2 7830   0.596   0.788   3.395
 1950SOL    HW3 7831   0.665   0.653   3.393
 1950SOL    MW4 7832   0.664   0.738   3.373
 1951SOL     OW 7833   0.457   0.872   3.477
 1951SOL    HW2 7834   0.428   0.864   3.568
 1951SOL    HW3 7835   0.466   0.966   3.462
 1951SOL    MW4 7836   0.455   0.883   3.487
 1952SOL     OW 7837   0.429   1.129   3.393
 1952SOL    HW2 7838   0.505   1.183   3.416
 1952SOL    HW3 7839   0.430   1.126   3.298
 1952SOL    MW4 7840   0.439   1.136   3.384
 1953SOL     OW 7841   0.651   1.263   3.485
 1953SOL    HW2 7842   0.735   1.224   3.461
 1953SOL    HW3 7843   0.647   1.345   3.436
 1953SOL    MW4 7844   0.661   1.268   3.475
 1954SOL     OW 7845   0.651   1.515   3.350
 1954SOL    HW2 7846   0.726   1.565   3.384
 1954SOL    HW3 7847   0.575   1.569   3.372
 1954SOL    MW4 7848   0.651   1.529   3.357
 1955SOL     OW 7849   0.432   1.659   3.436
 1955SOL    HW2 7850   0.434   1.664   3.532
 1955SOL    HW3 7851   0.442   1.750   3.408
 1955SOL    MW4 7852   0.434   1.672   3.445
 1956SOL     OW 7853   0.442   1.923   3.356
 1956SOL    HW2 7854   0.375   1.983   3.389
 1956SOL    HW3 7855   0.450   1.944   3.263
 1956SOL    MW4 7856   0.434   1.934   3.348
 1957SOL     OW 7857   0.655   2.054   3.463
 1957SOL    HW2 7858   0.643   2.065   3.557
 1957SOL    HW3 7859   0.581   2.000   3.435
 1957SOL    MW4 7860   0.644   2.049   3.471
 1958SOL     OW 7861   0.640   2.340   3.383
 1958SOL    HW2 7862   0.718   2.371   3.428
 1958SOL    HW3 7863   0.641   2.245   3.394
 1958SOL    MW4 7864   0.650   2.332   3.390
 1959SOL     OW 7865   0.411   2.493   3.398
 1959SOL    HW2 7866   0.492   2.445   3.413
 1959SOL    HW3 7867   0.350   2.428   3.363
 1959SOL    MW4 7868   0.414   2.478   3.396
 1960SOL     OW 7869   0.480   2.757   3.355
 1960SOL    HW2 7870   0.472   2.662   3.363
 1960SOL    HW3 7871   0.450   2.776   3.267
 1960SOL    MW4 7872   0.475   2.747   3.345
 1961SOL     OW 7873   0.706   2.842   3.461
 1961SOL    HW2 7874   0.776   2.785   3.430
 1961SOL    HW3 7875   0.625   2.802   3.428
 1961SOL    MW4 7876   0.704   2.829   3.452
 1962SOL     OW 7877   0.705   3.099   3.337
 1962SOL    HW2 7878   0.621   3.140   3.361
 1962SOL    HW3 7879   0.699   3.010   3.372
 1962SOL    MW4 7880   0.693   3.093   3.345
 1963SOL     OW 7881   0.487   3.227   3.446
 1963SOL    HW2 7882   0.464   3.237   3.538
 1963SOL    HW3 7883   0.406   3.200   3.404
 1963SOL    MW4 7884   0.473   3.225   3.453
 1964SOL     OW 7885   0.509   3.479   3.371
 1964SOL    HW2 7886   0.503   3.390   3.407
 1964SOL    HW3 7887   0.440   3.527   3.417
 1964SOL    MW4 7888   0.499   3.474   3.382
 1965SOL     OW 7889   0.718   3.592   3.509
 1965SOL    HW2 7890   0.797   3.560   3.465
 1965SOL    HW3 7891   0.646   3.553   3.459
 1965SOL    MW4 7892   0.719   3.583   3.497
 1966SOL     OW 7893   0.698   3.838   3.370
 1966SOL    HW2 7894   0.629   3.892   3.409
 1966SOL    HW3 7895   0.704   3.762   3.428
 1966SOL    MW4 7896   0.690   3.835   3.383
 1967SOL     OW 7897   0.478   3.988   3.462
 1967SOL    HW2 7898   0.458   4.079   3.440
 1967SOL    HW3 7899   0.399   3.940   3.438
 1967SOL    MW4 7900   0.465   3.994   3.456
 1968SOL     OW 7901   0.434   4.252   3.411
 1968SOL    HW2 7902   0.505   4.312   3.434
 1968SOL    HW3 7903   0.425   4.261   3.316
 1968SOL    MW4 7904   0.443   4.261   3.401
 1969SOL     OW 7905   0.647   4.408   3.491
 1969SOL    HW2 7906   0.728   4.371   3.457
 1969SOL    HW3 7907   0.640   4.494   3.450
 1969SOL    MW4 7908   0.656   4.414   3.481
 1970SOL     OW 7909   1.046   0.030   3.354
 1970SOL    HW2 7910   1.127   0.071   3.387
 1970SOL    HW3 7911   1.063   0.016   3.261
 1970SOL    MW4 7912   1.059   0.034   3.346
 1971SOL     OW 7913   0.811   0.142   3.488
 1971SOL    HW2 7914   0.827   0.132   3.582
 1971SOL    HW3 7915   0.889   0.104   3.447
 1971SOL    MW4 7916   0.823   0.136   3.495
 1972SOL     OW 7917   0.860   0.381   3.363
 1972SOL    HW2 7918   0.943   0.413   3.401
 1972SOL    HW3 7919   0.843   0.299   3.409
 1972SOL    MW4 7920   0.869   0.375   3.374
 1973SOL     OW 7921   1.096   0.472   3.465
 1973SOL    HW2 7922   1.061   0.490   3.553
 1973SOL    HW3 7923   1.089   0.556   3.420
 1973SOL    MW4 7924   1.091   0.486   3.471
 1974SOL     OW 7925   1.085   0.736   3.356
 1974SOL    HW2 7926   1.157   0.790   3.387
 1974SOL    HW3 7927   1.007   0.776   3.392
 1974SOL    MW4 7928   1.084   0.748   3.365
 1975SOL     OW 7929   0.868   0.897   3.490
 1975SOL    HW2 7930   0.880   0.981   3.445
 1975SOL    HW3 7931   0.799   0.853   3.441
 1975SOL    MW4 7932   0.861   0.902   3.478
 1976SOL     OW 7933   0.878   1.163   3.384
 1976SOL    HW2 7934   0.957   1.206   3.417
 1976SOL    HW3 7935   0.894   1.151   3.291
 1976SOL    MW4 7936   0.890   1.167   3.376
 1977SOL     OW 7937   1.128   1.281   3.464
 1977SOL    HW2 7938   1.110   1.283   3.558
 1977SOL    HW3 7939   1.118   1.371   3.435
 1977SOL    MW4 7940   1.125   1.293   3.472
 1978SOL     OW 7941   1.098   1.553   3.370
 1978SOL    HW2 7942   1.175   1.597   3.405
 1978SOL    HW3 7943   1.116   1.545   3.276
 1978SOL    MW4 7944   1.110   1.558   3.362
 1979SOL     OW 7945   0.855   1.672   3.457
 1979SOL    HW2 7946   0.859   1.766   3.438
 1979SOL    HW3 7947   0.936   1.637   3.420
 1979SOL    MW4 7948   0.866   1.680   3.450
 1980SOL     OW 7949   0.890   1.950   3.376
 1980SOL    HW2 7950   0.966   1.997   3.411
 1980SOL    HW3 7951   0.815   2.000   3.408
 1980SOL    MW4 7952   0.890   1.963   3.385
 1981SOL     OW 7953   1.114   2.070   3.472
 1981SOL    HW2 7954   1.202   2.039   3.451
 1981SOL    HW3 7955   1.113   2.161   3.443
 1981SOL    MW4 7956   1.125   2.078   3.466
 1982SOL     OW 7957   1.128   2.338   3.375
 1982SOL    HW2 7958   1.207   2.381   3.406
 1982SOL    HW3 7959   1.131   2.347   3.280
 1982SOL    MW4 7960   1.138   2.345   3.366
 1983SOL     OW 7961   0.869   2.410   3.507
 1983SOL    HW2 7962   0.859   2.402   3.602
 1983SOL    HW3 7963   0.958   2.382   3.490
 1983SOL    MW4 7964   0.879   2.405   3.517
 1984SOL     OW 7965   0.898   2.669   3.366
 1984SOL    HW2 7966   0.966   2.718   3.413
 1984SOL    HW3 7967   0.889   2.588   3.416
 1984SOL    MW4 7968   0.906   2.665   3.379
 1985SOL     OW 7969   1.079   2.857   3.433
 1985SOL    HW2 7970   1.075   2.855   3.529
 1985SOL    HW3 7971   1.169   2.834   3.412
 1985SOL    MW4 7972   1.090   2.853   3.443
 1986SOL     OW 7973   1.163   3.129   3.351
 1986SOL    HW2 7974   1.132   3.041   3.375
 1986SOL    HW3 7975   1.148   3.135   3.257
 1986SOL    MW4 7976   1.157   3.118   3.342
 1987SOL     OW 7977   0.921   3.230   3.446
 1987SOL    HW2 7978   1.005   3.199   3.410
 1987SOL    HW3 7979   0.856   3.172   3.406
 1987SOL    MW4 7980   0.924   3.218   3.436
 1988SOL     OW 7981   0.924   3.482   3.343
 1988SOL    HW2 7982   0.929   3.392   3.376
 1988SOL    HW3 7983   0.898   3.473   3.252
 1988SOL    MW4 7984   0.921   3.469   3.336
 1989SOL     OW 7985   1.108   3.671   3.420
 1989SOL    HW2 7986   1.112   3.667   3.516
 1989SOL    HW3 7987   1.029   3.622   3.398
 1989SOL    MW4 7988   1.098   3.664   3.430
 1990SOL     OW 7989   1.128   3.938   3.347
 1990SOL    HW2 7990   1.194   3.990   3.393
 1990SOL    HW3 7991   1.135   3.851   3.385
 1990SOL    MW4 7992   1.138   3.934   3.358
 1991SOL     OW 7993   0.891   4.007   3.473
 1991SOL    HW2 7994   0.962   3.986   3.413
 1991SOL    HW3 7995   0.827   3.937   3.460
 1991SOL    MW4 7996   0.892   3.995   3.463
 1992SOL     OW 7997   0.862   4.262   3.365
 1992SOL    HW2 7998   0.859   4.169   3.389
 1992SOL    HW3 7999   0.866   4.262   3.269
 1992SOL    MW4 8000   0.862   4.250   3.355
 1993SOL     OW 8001   1.093   4.430   3.436
 1993SOL    HW2 8002   1.023   4.379   3.395
 1993SOL    HW3 8003   1.069   4.521   3.419
 1993SOL    MW4 8004   1.081   4.435   3.428
 1994SOL     OW 8005   1.535   4.667   3.344
 1994SOL    HW2 8006   1.523   4.575   3.370
 1994SOL    HW3 8007   1.452   4.709   3.365
 1994SOL    MW4 8008   1.523   4.660   3.350
 1995SOL     OW 8009   1.290   0.127   3.431
 1995SOL    HW2 8010   1.300   0.127   3.527
 1995SOL    HW3 8011   1.305   0.218   3.406
 1995SOL    MW4 8012   1.293   0.139   3.440
 1996SOL     OW 8013   1.337   0.384   3.329
 1996SOL    HW2 8014   1.405   0.435   3.372
 1996SOL    HW3 8015   1.256   0.409   3.374
 1996SOL    MW4 8016   1.335   0.394   3.340
 1997SOL     OW 8017   1.542   0.491   3.479
 1997SOL    HW2 8018   1.532   0.507   3.573
 1997SOL    HW3 8019   1.625   0.446   3.471
 1997SOL    MW4 8020   1.551   0.487   3.491
 1998SOL     OW 8021   1.524   0.738   3.352
 1998SOL    HW2 8022   1.444   0.788   3.366
 1998SOL    HW3 8023   1.513   0.659   3.405
 1998SOL    MW4 8024   1.512   0.734   3.361
 1999SOL     OW 8025   1.299   0.876   3.439
 1999SOL    HW2 8026   1.293   0.886   3.534
 1999SOL    HW3 8027   1.326   0.963   3.408
 1999SOL    MW4 8028   1.302   0.889   3.448
 2000SOL     OW 8029   1.329   1.141   3.361
 2000SOL    HW2 8030   1.410   1.188   3.381
 2000SOL    HW3 8031   1.259   1.198   3.392
 2000SOL    MW4 8032   1.331   1.155   3.368
 2001SOL     OW 8033   1.554   1.290   3.429
 2001SOL    HW2 8034   1.555   1.274   3.523
 2001SOL    HW3 8035   1.632   1.244   3.395
 2001SOL    MW4 8036   1.565   1.282   3.437
 2002SOL     OW 8037   1.617   1.562   3.361
 2002SOL    HW2 8038   1.605   1.473   3.394
 2002SOL    HW3 8039   1.586   1.558   3.270
 2002SOL    MW4 8040   1.611   1.550   3.353
 2003SOL     OW 8041   1.343   1.644   3.462
 2003SOL    HW2 8042   1.336   1.663   3.556
 2003SOL    HW3 8043   1.435   1.620   3.450
 2003SOL    MW4 8044   1.354   1.643   3.473
 2004SOL     OW 8045   1.339   1.910   3.368
 2004SOL    HW2 8046   1.419   1.946   3.409
 2004SOL    HW3 8047   1.340   1.817   3.392
 2004SOL    MW4 8048   1.350   1.903   3.377
 2005SOL     OW 8049   1.560   2.083   3.482
 2005SOL    HW2 8050   1.641   2.041   3.455
 2005SOL    HW3 8051   1.567   2.173   3.449
 2005SOL    MW4 8052   1.572   2.089   3.474
 2006SOL     OW 8053   1.553   2.339   3.379
 2006SOL    HW2 8054   1.491   2.402   3.414
 2006SOL    HW3 8055   1.547   2.349   3.284
 2006SOL    MW4 8056   1.544   2.349   3.371
 2007SOL     OW 8057   1.344   2.501   3.474
 2007SOL    HW2 8058   1.340   2.494   3.570
 2007SOL    HW3 8059   1.340   2.595   3.457
 2007SOL    MW4 8060   1.343   2.512   3.485
 2008SOL     OW 8061   1.332   2.771   3.388
 2008SOL    HW2 8062   1.416   2.807   3.417
 2008SOL    HW3 8063   1.341   2.764   3.293
 2008SOL    MW4 8064   1.345   2.775   3.379
 2009SOL     OW 8065   1.578   2.865   3.448
 2009SOL    HW2 8066   1.645   2.815   3.400
 2009SOL    HW3 8067   1.578   2.951   3.406
 2009SOL    MW4 8068   1.587   2.870   3.436
 2010SOL     OW 8069   1.549   3.119   3.358
 2010SOL    HW2 8070   1.631   3.144   3.401
 2010SOL    HW3 8071   1.482   3.174   3.400
 2010SOL    MW4 8072   1.551   3.129   3.369
 2011SOL     OW 8073   1.351   3.284   3.482
 2011SOL    HW2 8074   1.350   3.278   3.578
 2011SOL    HW3 8075   1.288   3.218   3.453
 2011SOL    MW4 8076   1.343   3.275   3.491
 2012SOL     OW 8077   1.341   3.544   3.352
 2012SOL    HW2 8078   1.348   3.454   3.385
 2012SOL    HW3 8079   1.251   3.571   3.373
 2012SOL    MW4 8080   1.330   3.536   3.359
 2013SOL     OW 8081   1.576   3.633   3.461
 2013SOL    HW2 8082   1.572   3.631   3.557
 2013SOL    HW3 8083   1.490   3.604   3.432
 2013SOL    MW4 8084   1.564   3.629   3.470
 2014SOL     OW 8085   1.528   3.889   3.353
 2014SOL    HW2 8086   1.537   3.804   3.396
 2014SOL    HW3 8087   1.551   3.873   3.262
 2014SOL    MW4 8088   1.532   3.876   3.347
 2015SOL     OW 8089   1.343   4.049   3.478
 2015SOL    HW2 8090   1.343   4.130   3.427
 2015SOL    HW3 8091   1.406   3.993   3.432
 2015SOL    MW4 8092   1.352   4.052   3.465
 2016SOL     OW 8093   1.323   4.290   3.331
 2016SOL    HW2 8094   1.245   4.338   3.359
 2016SOL    HW3 8095   1.316   4.285   3.236
 2016SOL    MW4 8096   1.312   4.296   3.322
 2017SOL     OW 8097   1.561   4.401   3.431
 2017SOL    HW2 8098   1.627   4.342   3.397
 2017SOL    HW3 8099   1.478   4.365   3.399
 2017SOL    MW4 8100   1.559   4.389   3.422
 2018SOL     OW 8101   1.975   4.630   3.341
 2018SOL    HW2 8102   2.049   4.678   3.379
 2018SOL    HW3 8103   1.898   4.678   3.368
 2018SOL    MW4 8104   1.975   4.642   3.349
 2019SOL     OW 8105   1.774   0.103   3.441
 2019SOL    HW2 8106   1.779   0.086   3.535
 2019SOL    HW3 8107   1.685   0.079   3.417
 2019SOL    MW4 8108   1.763   0.098   3.451
 2020SOL     OW 8109   1.767   0.376   3.398
 2020SOL    HW2 8110   1.770   0.285   3.427
 2020SOL    HW3 8111   1.800   0.374   3.308
 2020SOL    MW4 8112   1.772   0.364   3.390
 2021SOL     OW 8113   2.002   0.501   3.483
 2021SOL    HW2 8114   2.003   0.586   3.439
 2021SOL    HW3 8115   1.917   0.463   3.460
 2021SOL    MW4 8116   1.991   0.507   3.474
 2022SOL     OW 8117   1.998   0.748   3.369
 2022SOL    HW2 8118   2.073   0.796   3.402
 2022SOL    HW3 8119   2.000   0.761   3.275
 2022SOL    MW4 8120   2.008   0.756   3.361
 2023SOL     OW 8121   1.757   0.863   3.444
 2023SOL    HW2 8122   1.842   0.825   3.422
 2023SOL    HW3 8123   1.695   0.817   3.388
 2023SOL    MW4 8124   1.760   0.852   3.434
 2024SOL     OW 8125   1.785   1.139   3.368
 2024SOL    HW2 8126   1.851   1.175   3.427
 2024SOL    HW3 8127   1.786   1.044   3.386
 2024SOL    MW4 8128   1.794   1.131   3.378
 2025SOL     OW 8129   2.000   1.280   3.467
 2025SOL    HW2 8130   2.018   1.278   3.560
 2025SOL    HW3 8131   2.014   1.371   3.441
 2025SOL    MW4 8132   2.004   1.291   3.476
 2026SOL     OW 8133   2.036   1.547   3.386
 2026SOL    HW2 8134   2.117   1.579   3.426
 2026SOL    HW3 8135   1.967   1.601   3.425
 2026SOL    MW4 8136   2.038   1.558   3.397
 2027SOL     OW 8137   1.819   1.689   3.490
 2027SOL    HW2 8138   1.798   1.781   3.475
 2027SOL    HW3 8139   1.759   1.641   3.433
 2027SOL    MW4 8140   1.809   1.695   3.480
 2028SOL     OW 8141   1.757   1.935   3.379
 2028SOL    HW2 8142   1.825   1.994   3.412
 2028SOL    HW3 8143   1.776   1.926   3.285
 2028SOL    MW4 8144   1.769   1.942   3.371
 2029SOL     OW 8145   1.980   2.073   3.497
 2029SOL    HW2 8146   2.044   2.020   3.449
 2029SOL    HW3 8147   1.985   2.159   3.456
 2029SOL    MW4 8148   1.989   2.077   3.485
 2030SOL     OW 8149   2.004   2.322   3.364
 2030SOL    HW2 8150   2.081   2.361   3.405
 2030SOL    HW3 8151   2.014   2.341   3.270
 2030SOL    MW4 8152   2.015   2.329   3.357
 2031SOL     OW 8153   1.791   2.488   3.423
 2031SOL    HW2 8154   1.869   2.434   3.409
 2031SOL    HW3 8155   1.718   2.431   3.399
 2031SOL    MW4 8156   1.792   2.473   3.418
 2032SOL     OW 8157   1.801   2.742   3.318
 2032SOL    HW2 8158   1.861   2.802   3.362
 2032SOL    HW3 8159   1.813   2.658   3.364
 2032SOL    MW4 8160   1.810   2.739   3.330
 2033SOL     OW 8161   1.992   2.886   3.456
 2033SOL    HW2 8162   1.988   2.892   3.552
 2033SOL    HW3 8163   2.014   2.975   3.428
 2033SOL    MW4 8164   1.994   2.898   3.465
 2034SOL     OW 8165   2.005   3.146   3.357
 2034SOL    HW2 8166   2.073   3.201   3.394
 2034SOL    HW3 8167   1.925   3.172   3.403
 2034SOL    MW4 8168   2.003   3.156   3.368
 2035SOL     OW 8169   1.787   3.230   3.493
 2035SOL    HW2 8170   1.775   3.254   3.585
 2035SOL    HW3 8171   1.796   3.314   3.448
 2035SOL    MW4 8172   1.787   3.244   3.500
 2036SOL     OW 8173   1.786   3.470   3.381
 2036SOL    HW2 8174   1.704   3.503   3.416
 2036SOL    HW3 8175   1.778   3.481   3.286
 2036SOL    MW4 8176   1.774   3.476   3.373
 2037SOL     OW 8177   1.986   3.627   3.483
 2037SOL    HW2 8178   2.064   3.583   3.451
 2037SOL    HW3 8179   1.914   3.586   3.434
 2037SOL    MW4 8180   1.987   3.615   3.472
 2038SOL     OW 8181   2.005   3.869   3.341
 2038SOL    HW2 8182   1.931   3.925   3.362
 2038SOL    HW3 8183   1.988   3.788   3.389
 2038SOL    MW4 8184   1.993   3.865   3.350
 2039SOL     OW 8185   1.761   4.009   3.434
 2039SOL    HW2 8186   1.755   4.015   3.529
 2039SOL    HW3 8187   1.679   3.969   3.407
 2039SOL    MW4 8188   1.750   4.004   3.443
 2040SOL     OW 8189   1.785   4.263   3.349
 2040SOL    HW2 8190   1.778   4.173   3.380
 2040SOL    HW3 8191   1.773   4.256   3.254
 2040SOL    MW4 8192   1.782   4.250   3.341
 2041SOL     OW 8193   2.044   4.373   3.396
 2041SOL    HW2 8194   1.962   4.331   3.370
 2041SOL    HW3 8195   2.037   4.463   3.363
 2041SOL    MW4 8196   2.033   4.379   3.388
 2042SOL     OW 8197   2.455   4.637   3.368
 2042SOL    HW2 8198   2.461   4.544   3.390
 2042SOL    HW3 8199   2.466   4.640   3.273
 2042SOL    MW4 8200   2.457   4.625   3.359
 2043SOL     OW 8201   2.210   0.076   3.465
 2043SOL    HW2 8202   2.212   0.171   3.455
 2043SOL    HW3 8203   2.291   0.046   3.423
 2043SOL    MW4 8204   2.221   0.084   3.458
 2044SOL     OW 8205   2.213   0.351   3.396
 2044SOL    HW2 8206   2.292   0.404   3.406
 2044SOL    HW3 8207   2.142   0.407   3.426
 2044SOL    MW4 8208   2.214   0.365   3.401
 2045SOL     OW 8209   2.455   0.473   3.483
 2045SOL    HW2 8210   2.524   0.422   3.441
 2045SOL    HW3 8211   2.464   0.561   3.446
 2045SOL    MW4 8212   2.465   0.478   3.473
 2046SOL     OW 8213   2.441   0.721   3.378
 2046SOL    HW2 8214   2.508   0.785   3.403
 2046SOL    HW3 8215   2.432   0.732   3.283
 2046SOL    MW4 8216   2.448   0.731   3.369
 2047SOL     OW 8217   2.228   0.878   3.483
 2047SOL    HW2 8218   2.221   0.967   3.448
 2047SOL    HW3 8219   2.299   0.838   3.434
 2047SOL    MW4 8220   2.236   0.884   3.472
 2048SOL     OW 8221   2.224   1.120   3.402
 2048SOL    HW2 8222   2.306   1.155   3.437
 2048SOL    HW3 8223   2.159   1.187   3.422
 2048SOL    MW4 8224   2.226   1.133   3.409
 2049SOL     OW 8225   2.450   1.253   3.502
 2049SOL    HW2 8226   2.466   1.247   3.596
 2049SOL    HW3 8227   2.537   1.247   3.463
 2049SOL    MW4 8228   2.463   1.252   3.510
 2050SOL     OW 8229   2.442   1.515   3.379
 2050SOL    HW2 8230   2.454   1.424   3.407
 2050SOL    HW3 8231   2.436   1.510   3.284
 2050SOL    MW4 8232   2.443   1.502   3.371
 2051SOL     OW 8233   2.254   1.664   3.521
 2051SOL    HW2 8234   2.259   1.677   3.615
 2051SOL    HW3 8235   2.333   1.614   3.499
 2051SOL    MW4 8236   2.265   1.659   3.530
 2052SOL     OW 8237   2.183   1.887   3.394
 2052SOL    HW2 8238   2.209   1.805   3.437
 2052SOL    HW3 8239   2.212   1.877   3.304
 2052SOL    MW4 8240   2.190   1.875   3.388
 2053SOL     OW 8241   2.396   2.056   3.451
 2053SOL    HW2 8242   2.411   2.046   3.545
 2053SOL    HW3 8243   2.325   1.995   3.432
 2053SOL    MW4 8244   2.388   2.047   3.461
 2054SOL     OW 8245   2.404   2.322   3.363
 2054SOL    HW2 8246   2.473   2.334   3.428
 2054SOL    HW3 8247   2.389   2.227   3.362
 2054SOL    MW4 8248   2.411   2.311   3.371
 2055SOL     OW 8249   2.212   2.463   3.507
 2055SOL    HW2 8250   2.213   2.551   3.469
 2055SOL    HW3 8251   2.286   2.419   3.466
 2055SOL    MW4 8252   2.222   2.469   3.496
 2056SOL     OW 8253   2.223   2.722   3.419
 2056SOL    HW2 8254   2.137   2.761   3.433
 2056SOL    HW3 8255   2.238   2.729   3.325
 2056SOL    MW4 8256   2.214   2.728   3.408
 2057SOL     OW 8257   2.463   2.848   3.492
 2057SOL    HW2 8258   2.441   2.938   3.470
 2057SOL    HW3 8259   2.384   2.798   3.471
 2057SOL    MW4 8260   2.450   2.853   3.486
 2058SOL     OW 8261   2.443   3.120   3.415
 2058SOL    HW2 8262   2.530   3.142   3.448
 2058SOL    HW3 8263   2.452   3.129   3.320
 2058SOL    MW4 8264   2.456   3.124   3.406
 2059SOL     OW 8265   2.219   3.271   3.465
 2059SOL    HW2 8266   2.211   3.258   3.560
 2059SOL    HW3 8267   2.302   3.228   3.443
 2059SOL    MW4 8268   2.229   3.263   3.475
 2060SOL     OW 8269   2.208   3.542   3.342
 2060SOL    HW2 8270   2.219   3.457   3.385
 2060SOL    HW3 8271   2.214   3.523   3.248
 2060SOL    MW4 8272   2.210   3.528   3.335
 2061SOL     OW 8273   2.456   3.599   3.485
 2061SOL    HW2 8274   2.495   3.685   3.466
 2061SOL    HW3 8275   2.378   3.596   3.429
 2061SOL    MW4 8276   2.451   3.610   3.475
 2062SOL     OW 8277   2.490   3.860   3.368
 2062SOL    HW2 8278   2.554   3.919   3.408
 2062SOL    HW3 8279   2.406   3.884   3.406
 2062SOL    MW4 8280   2.488   3.871   3.378
 2063SOL     OW 8281   2.258   3.951   3.465
 2063SOL    HW2 8282   2.262   4.037   3.423
 2063SOL    HW3 8283   2.175   3.914   3.436
 2063SOL    MW4 8284   2.248   3.957   3.456
 2064SOL     OW 8285   2.258   4.208   3.363
 2064SOL    HW2 8286   2.186   4.267   3.386
 2064SOL    HW3 8287   2.269   4.219   3.268
 2064SOL    MW4 8288   2.250   4.217   3.354
 2065SOL     OW 8289   2.463   4.370   3.417
 2065SOL    HW2 8290   2.464   4.368   3.513
 2065SOL    HW3 8291   2.389   4.315   3.392
 2065SOL    MW4 8292   2.453   4.363   3.426
 2066SOL     OW 8293   2.910   0.001   3.354
 2066SOL    HW2 8294   2.837   0.038   3.403
 2066SOL    HW3 8295   2.892   0.024   3.263
 2066SOL    MW4 8296   2.898   0.009   3.349
 2067SOL     OW 8297   2.676   0.097   3.467
 2067SOL    HW2 8298   2.666   0.184   3.428
 2067SOL    HW3 8299   2.596   0.051   3.442
 2067SOL    MW4 8300   2.664   0.102   3.458
 2068SOL     OW 8301   2.681   0.358   3.381
 2068SOL    HW2 8302   2.733   0.428   3.419
 2068SOL    HW3 8303   2.694   0.366   3.287
 2068SOL    MW4 8304   2.689   0.368   3.374
 2069SOL     OW 8305   2.870   0.520   3.501
 2069SOL    HW2 8306   2.886   0.534   3.595
 2069SOL    HW3 8307   2.865   0.608   3.464
 2069SOL    MW4 8308   2.871   0.533   3.509
 2070SOL     OW 8309   2.877   0.758   3.360
 2070SOL    HW2 8310   2.959   0.780   3.403
 2070SOL    HW3 8311   2.817   0.828   3.388
 2070SOL    MW4 8312   2.880   0.770   3.370
 2071SOL     OW 8313   2.632   0.899   3.452
 2071SOL    HW2 8314   2.625   0.899   3.548
 2071SOL    HW3 8315   2.655   0.989   3.430
 2071SOL    MW4 8316   2.634   0.911   3.462
 2072SOL     OW 8317   2.686   1.162   3.389
 2072SOL    HW2 8318   2.761   1.211   3.422
 2072SOL    HW3 8319   2.701   1.155   3.295
 2072SOL    MW4 8320   2.698   1.167   3.381
 2073SOL     OW 8321   2.923   1.302   3.468
 2073SOL    HW2 8322   2.925   1.304   3.564
 2073SOL    HW3 8323   2.996   1.246   3.443
 2073SOL    MW4 8324   2.933   1.295   3.477
 2074SOL     OW 8325   2.938   1.550   3.352
 2074SOL    HW2 8326   2.870   1.609   3.384
 2074SOL    HW3 8327   2.925   1.468   3.400
 2074SOL    MW4 8328   2.927   1.547   3.362
 2075SOL     OW 8329   2.680   1.646   3.459
 2075SOL    HW2 8330   2.676   1.742   3.460
 2075SOL    HW3 8331   2.595   1.619   3.425
 2075SOL    MW4 8332   2.669   1.655   3.454
 2076SOL     OW 8333   2.666   1.924   3.387
 2076SOL    HW2 8334   2.579   1.959   3.407
 2076SOL    HW3 8335   2.667   1.915   3.292
 2076SOL    MW4 8336   2.654   1.928   3.377
 2077SOL     OW 8337   2.910   2.066   3.478
 2077SOL    HW2 8338   2.902   2.067   3.574
 2077SOL    HW3 8339   2.826   2.032   3.447
 2077SOL    MW4 8340   2.898   2.061   3.487
 2078SOL     OW 8341   2.894   2.354   3.383
 2078SOL    HW2 8342   2.907   2.272   3.431
 2078SOL    HW3 8343   2.876   2.326   3.293
 2078SOL    MW4 8344   2.893   2.339   3.377
 2079SOL     OW 8345   2.634   2.437   3.526
 2079SOL    HW2 8346   2.658   2.443   3.619
 2079SOL    HW3 8347   2.716   2.417   3.481
 2079SOL    MW4 8348   2.648   2.435   3.532
 2080SOL     OW 8349   2.656   2.685   3.393
 2080SOL    HW2 8350   2.652   2.602   3.441
 2080SOL    HW3 8351   2.602   2.745   3.444
 2080SOL    MW4 8352   2.649   2.682   3.406
 2081SOL     OW 8353   2.892   2.833   3.414
 2081SOL    HW2 8354   2.901   2.839   3.509
 2081SOL    HW3 8355   2.808   2.790   3.400
 2081SOL    MW4 8356   2.882   2.828   3.424
 2082SOL     OW 8357   2.938   3.099   3.377
 2082SOL    HW2 8358   2.908   3.010   3.397
 2082SOL    HW3 8359   2.937   3.103   3.281
 2082SOL    MW4 8360   2.934   3.088   3.367
 2083SOL     OW 8361   2.692   3.208   3.514
 2083SOL    HW2 8362   2.699   3.203   3.609
 2083SOL    HW3 8363   2.775   3.172   3.482
 2083SOL    MW4 8364   2.704   3.202   3.522
 2084SOL     OW 8365   2.679   3.471   3.405
 2084SOL    HW2 8366   2.695   3.385   3.445
 2084SOL    HW3 8367   2.609   3.509   3.458
 2084SOL    MW4 8368   2.672   3.465   3.418
 2085SOL     OW 8369   2.914   3.609   3.476
 2085SOL    HW2 8370   2.913   3.702   3.451
 2085SOL    HW3 8371   2.826   3.578   3.456
 2085SOL    MW4 8372   2.903   3.617   3.470
 2086SOL     OW 8373   2.935   3.884   3.374
 2086SOL    HW2 8374   3.010   3.923   3.418
 2086SOL    HW3 8375   2.859   3.908   3.427
 2086SOL    MW4 8376   2.935   3.892   3.387
 2087SOL     OW 8377   2.702   4.011   3.490
 2087SOL    HW2 8378   2.702   4.014   3.586
 2087SOL    HW3 8379   2.690   4.102   3.463
 2087SOL    MW4 8380   2.701   4.023   3.499
 2088SOL     OW 8381   2.699   4.255   3.340
 2088SOL    HW2 8382   2.769   4.302   3.386
 2088SOL    HW3 8383   2.619   4.299   3.369
 2088SOL    MW4 8384   2.698   4.267   3.350
 2089SOL     OW 8385   2.923   4.389   3.441
 2089SOL    HW2 8386   2.913   4.403   3.535
 2089SOL    HW3 8387   2.922   4.477   3.403
 2089SOL    MW4 8388   2.922   4.403   3.448
 2090SOL     OW 8389   3.355   4.659   3.382
 2090SOL    HW2 8390   3.283   4.715   3.411
 2090SOL    HW3 8391   3.338   4.644   3.289
 2090SOL    MW4 8392   3.344   4.665   3.373
 2091SOL     OW 8393   3.141   0.124   3.468
 2091SOL    HW2 8394   3.122   0.217   3.456
 2091SOL    HW3 8395   3.071   0.079   3.421
 2091SOL    MW4 8396   3.129   0.130   3.460
 2092SOL     OW 8397   3.121   0.385   3.410
 2092SOL    HW2 8398   3.034   0.409   3.441
 2092SOL    HW3 8399   3.111   0.373   3.316
 2092SOL    MW4 8400   3.108   0.387   3.402
 2093SOL     OW 8401   3.373   0.497   3.450
 2093SOL    HW2 8402   3.362   0.504   3.545
 2093SOL    HW3 8403   3.290   0.461   3.419
 2093SOL    MW4 8404   3.360   0.493   3.458
 2094SOL     OW 8405   3.314   0.759   3.359
 2094SOL    HW2 8406   3.392   0.813   3.372
 2094SOL    HW3 8407   3.338   0.672   3.392
 2094SOL    MW4 8408   3.327   0.755   3.365
 2095SOL     OW 8409   3.090   0.875   3.470
 2095SOL    HW2 8410   3.104   0.968   3.453
 2095SOL    HW3 8411   3.169   0.832   3.437
 2095SOL    MW4 8412   3.102   0.882   3.464
 2096SOL     OW 8413   3.131   1.139   3.416
 2096SOL    HW2 8414   3.206   1.194   3.438
 2096SOL    HW3 8415   3.125   1.144   3.321
 2096SOL    MW4 8416   3.140   1.147   3.406
 2097SOL     OW 8417   3.362   1.275   3.491
 2097SOL    HW2 8418   3.444   1.227   3.478
 2097SOL    HW3 8419   3.365   1.346   3.427
 2097SOL    MW4 8420   3.373   1.278   3.481
 2098SOL     OW 8421   3.406   1.505   3.333
 2098SOL    HW2 8422   3.484   1.545   3.372
 2098SOL    HW3 8423   3.333   1.544   3.380
 2098SOL    MW4 8424   3.407   1.515   3.344
 2099SOL     OW 8425   3.190   1.650   3.428
 2099SOL    HW2 8426   3.182   1.739   3.393
 2099SOL    HW3 8427   3.107   1.608   3.404
 2099SOL    MW4 8428   3.178   1.657   3.421
 2100SOL     OW 8429   3.144   1.925   3.389
 2100SOL    HW2 8430   3.072   1.977   3.424
 2100SOL    HW3 8431   3.142   1.942   3.295
 2100SOL    MW4 8432   3.134   1.934   3.381
 2101SOL     OW 8433   3.387   2.015   3.480
 2101SOL    HW2 8434   3.402   2.101   3.440
 2101SOL    HW3 8435   3.298   1.992   3.455
 2101SOL    MW4 8436   3.377   2.023   3.472
 2102SOL     OW 8437   3.370   2.270   3.354
 2102SOL    HW2 8438   3.448   2.322   3.371
 2102SOL    HW3 8439   3.297   2.331   3.365
 2102SOL    MW4 8440   3.370   2.285   3.358
 2103SOL     OW 8441   3.158   2.426   3.420
 2103SOL    HW2 8442   3.163   2.519   3.400
 2103SOL    HW3 8443   3.067   2.402   3.401
 2103SOL    MW4 8444   3.147   2.435   3.415
 2104SOL     OW 8445   3.126   2.691   3.334
 2104SOL    HW2 8446   3.195   2.735   3.382
 2104SOL    HW3 8447   3.045   2.732   3.365
 2104SOL    MW4 8448   3.124   2.702   3.344
 2105SOL     OW 8449   3.333   2.826   3.447
 2105SOL    HW2 8450   3.414   2.785   3.418
 2105SOL    HW3 8451   3.341   2.918   3.423
 2105SOL    MW4 8452   3.345   2.833   3.440
 2106SOL     OW 8453   3.368   3.099   3.376
 2106SOL    HW2 8454   3.443   3.136   3.422
 2106SOL    HW3 8455   3.292   3.138   3.420
 2106SOL    MW4 8456   3.367   3.109   3.388
 2107SOL     OW 8457   3.154   3.242   3.486
 2107SOL    HW2 8458   3.167   3.322   3.435
 2107SOL    HW3 8459   3.066   3.212   3.461
 2107SOL    MW4 8460   3.144   3.248   3.476
 2108SOL     OW 8461   3.160   3.500   3.373
 2108SOL    HW2 8462   3.074   3.537   3.392
 2108SOL    HW3 8463   3.160   3.485   3.278
 2108SOL    MW4 8464   3.149   3.503   3.363
 2109SOL     OW 8465   3.382   3.643   3.505
 2109SOL    HW2 8466   3.391   3.719   3.448
 2109SOL    HW3 8467   3.305   3.597   3.471
 2109SOL    MW4 8468   3.373   3.647   3.493
 2110SOL     OW 8469   3.369   3.871   3.343
 2110SOL    HW2 8470   3.443   3.924   3.372
 2110SOL    HW3 8471   3.296   3.902   3.395
 2110SOL    MW4 8472   3.369   3.882   3.354
 2111SOL     OW 8473   3.151   4.021   3.471
 2111SOL    HW2 8474   3.162   4.044   3.563
 2111SOL    HW3 8475   3.159   4.104   3.424
 2111SOL    MW4 8476   3.154   4.035   3.477
 2112SOL     OW 8477   3.159   4.277   3.377
 2112SOL    HW2 8478   3.234   4.319   3.420
 2112SOL    HW3 8479   3.083   4.311   3.423
 2112SOL    MW4 8480   3.159   4.287   3.389
 2113SOL     OW 8481   3.392   4.406   3.489
 2113SOL    HW2 8482   3.401   4.420   3.583
 2113SOL    HW3 8483   3.390   4.494   3.452
 2113SOL    MW4 8484   3.393   4.420   3.497
 2114SOL     OW 8485   3.800   4.663   3.392
 2114SOL    HW2 8486   3.726   4.712   3.427
 2114SOL    HW3 8487   3.781   4.655   3.298
 2114SOL    MW4 8488   3.787   4.668   3.384
 2115SOL     OW 8489   3.580   0.127   3.490
 2115SOL    HW2 8490   3.576   0.215   3.452
 2115SOL    HW3 8491   3.505   0.081   3.451
 2115SOL    MW4 8492   3.570   0.133   3.480
 2116SOL     OW 8493   3.607   0.384   3.343
 2116SOL    HW2 8494   3.690   0.414   3.381
 2116SOL    HW3 8495   3.541   0.439   3.384
 2116SOL    MW4 8496   3.609   0.395   3.353
 2117SOL     OW 8497   3.837   0.545   3.440
 2117SOL    HW2 8498   3.811   0.521   3.528
 2117SOL    HW3 8499   3.904   0.482   3.416
 2117SOL    MW4 8500   3.842   0.534   3.448
 2118SOL     OW 8501   3.820   0.828   3.397
 2118SOL    HW2 8502   3.886   0.893   3.423
 2118SOL    HW3 8503   3.848   0.747   3.438
 2118SOL    MW4 8504   3.832   0.826   3.406
 2119SOL     OW 8505   3.561   0.880   3.430
 2119SOL    HW2 8506   3.567   0.881   3.525
 2119SOL    HW3 8507   3.645   0.844   3.401
 2119SOL    MW4 8508   3.573   0.875   3.438
 2120SOL     OW 8509   3.605   1.154   3.417
 2120SOL    HW2 8510   3.599   1.061   3.437
 2120SOL    HW3 8511   3.585   1.160   3.324
 2120SOL    MW4 8512   3.601   1.143   3.407
 2121SOL     OW 8513   3.852   1.261   3.488
 2121SOL    HW2 8514   3.845   1.253   3.583
 2121SOL    HW3 8515   3.781   1.207   3.454
 2121SOL    MW4 8516   3.842   1.253   3.496
 2122SOL     OW 8517   3.863   1.525   3.375
 2122SOL    HW2 8518   3.934   1.572   3.418
 2122SOL    HW3 8519   3.867   1.437   3.412
 2122SOL    MW4 8520   3.873   1.520   3.386
 2123SOL     OW 8521   3.624   1.631   3.453
 2123SOL    HW2 8522   3.630   1.726   3.439
 2123SOL    HW3 8523   3.713   1.599   3.440
 2123SOL    MW4 8524   3.636   1.639   3.449
 2124SOL     OW 8525   3.625   1.898   3.377
 2124SOL    HW2 8526   3.682   1.970   3.403
 2124SOL    HW3 8527   3.536   1.931   3.394
 2124SOL    MW4 8528   3.620   1.912   3.383
 2125SOL     OW 8529   3.824   2.077   3.445
 2125SOL    HW2 8530   3.822   2.061   3.539
 2125SOL    HW3 8531   3.899   2.026   3.413
 2125SOL    MW4 8532   3.834   2.068   3.453
 2126SOL     OW 8533   3.811   2.329   3.353
 2126SOL    HW2 8534   3.874   2.381   3.403
 2126SOL    HW3 8535   3.814   2.242   3.395
 2126SOL    MW4 8536   3.820   2.324   3.365
 2127SOL     OW 8537   3.559   2.453   3.437
 2127SOL    HW2 8538   3.561   2.548   3.420
 2127SOL    HW3 8539   3.641   2.420   3.399
 2127SOL    MW4 8540   3.570   2.461   3.430
 2128SOL     OW 8541   3.575   2.729   3.379
 2128SOL    HW2 8542   3.666   2.753   3.398
 2128SOL    HW3 8543   3.574   2.713   3.285
 2128SOL    MW4 8544   3.587   2.730   3.369
 2129SOL     OW 8545   3.840   2.824   3.438
 2129SOL    HW2 8546   3.861   2.822   3.532
 2129SOL    HW3 8547   3.838   2.917   3.416
 2129SOL    MW4 8548   3.843   2.836   3.448
 2130SOL     OW 8549   3.829   3.089   3.385
 2130SOL    HW2 8550   3.912   3.137   3.391
 2130SOL    HW3 8551   3.808   3.087   3.292
 2130SOL    MW4 8552   3.837   3.095   3.374
 2131SOL     OW 8553   3.600   3.202   3.499
 2131SOL    HW2 8554   3.608   3.284   3.451
 2131SOL    HW3 8555   3.680   3.154   3.478
 2131SOL    MW4 8556   3.612   3.207   3.490
 2132SOL     OW 8557   3.616   3.465   3.369
 2132SOL    HW2 8558   3.542   3.500   3.417
 2132SOL    HW3 8559   3.591   3.474   3.277
 2132SOL    MW4 8560   3.603   3.471   3.363
 2133SOL     OW 8561   3.859   3.617   3.425
 2133SOL    HW2 8562   3.858   3.641   3.518
 2133SOL    HW3 8563   3.770   3.584   3.408
 2133SOL    MW4 8564   3.847   3.616   3.435
 2134SOL     OW 8565   3.765   3.886   3.390
 2134SOL    HW2 8566   3.712   3.918   3.464
 2134SOL    HW3 8567   3.773   3.792   3.406
 2134SOL    MW4 8568   3.759   3.878   3.402
 2135SOL     OW 8569   3.556   3.998   3.520
 2135SOL    HW2 8570   3.551   3.989   3.615
 2135SOL    HW3 8571   3.590   4.087   3.506
 2135SOL    MW4 8572   3.560   4.009   3.531
 2136SOL     OW 8573   3.610   4.252   3.435
 2136SOL    HW2 8574   3.535   4.305   3.462
 2136SOL    HW3 8575   3.594   4.232   3.343
 2136SOL    MW4 8576   3.598   4.256   3.427
 2137SOL     OW 8577   3.816   4.404   3.517
 2137SOL    HW2 8578   3.740   4.358   3.481
 2137SOL    HW3 8579   3.806   4.495   3.488
 2137SOL    MW4 8580   3.805   4.410   3.508
 2138SOL     OW 8581   4.264   4.646   3.400
 2138SOL    HW2 8582   4.278   4.553   3.417
 2138SOL    HW3 8583   4.340   4.689   3.438
 2138SOL    MW4 8584   4.276   4.639   3.407
 2139SOL     OW 8585   4.036   0.136   3.451
 2139SOL    HW2 8586   4.109   0.094   3.405
 2139SOL    HW3 8587   3.958   0.090   3.420
 2139SOL    MW4 8588   4.035   0.124   3.441
 2140SOL     OW 8589   4.051   0.379   3.367
 2140SOL    HW2 8590   4.044   0.285   3.382
 2140SOL    HW3 8591   4.045   0.389   3.272
 2140SOL    MW4 8592   4.049   0.368   3.357
 2141SOL     OW 8593   4.264   0.511   3.485
 2141SOL    HW2 8594   4.247   0.593   3.438
 2141SOL    HW3 8595   4.184   0.459   3.473
 2141SOL    MW4 8596   4.251   0.515   3.477
 2142SOL     OW 8597   4.242   0.761   3.369
 2142SOL    HW2 8598   4.332   0.786   3.390
 2142SOL    HW3 8599   4.242   0.746   3.274
 2142SOL    MW4 8600   4.254   0.762   3.359
 2143SOL     OW 8601   4.060   0.942   3.508
 2143SOL    HW2 8602   4.078   1.017   3.451
 2143SOL    HW3 8603   4.113   0.871   3.470
 2143SOL    MW4 8604   4.069   0.942   3.495
 2144SOL     OW 8605   4.079   1.176   3.355
 2144SOL    HW2 8606   4.147   1.217   3.409
 2144SOL    HW3 8607   3.998   1.192   3.402
 2144SOL    MW4 8608   4.078   1.183   3.368
 2145SOL     OW 8609   4.281   1.300   3.499
 2145SOL    HW2 8610   4.291   1.385   3.455
 2145SOL    HW3 8611   4.336   1.240   3.449
 2145SOL    MW4 8612   4.290   1.304   3.487
 2146SOL     OW 8613   4.267   1.561   3.393
 2146SOL    HW2 8614   4.183   1.592   3.426
 2146SOL    HW3 8615   4.258   1.564   3.298
 2146SOL    MW4 8616   4.255   1.565   3.385
 2147SOL     OW 8617   4.056   1.677   3.493
 2147SOL    HW2 8618   4.039   1.689   3.586
 2147SOL    HW3 8619   4.049   1.765   3.456
 2147SOL    MW4 8620   4.053   1.690   3.500
 2148SOL     OW 8621   4.031   1.918   3.338
 2148SOL    HW2 8622   4.095   1.982   3.370
 2148SOL    HW3 8623   4.044   1.916   3.243
 2148SOL    MW4 8624   4.041   1.926   3.330
 2149SOL     OW 8625   4.241   2.048   3.451
 2149SOL    HW2 8626   4.239   2.140   3.423
 2149SOL    HW3 8627   4.328   2.017   3.425
 2149SOL    MW4 8628   4.252   2.056   3.444
 2150SOL     OW 8629   4.243   2.311   3.357
 2150SOL    HW2 8630   4.159   2.346   3.385
 2150SOL    HW3 8631   4.237   2.307   3.261
 2150SOL    MW4 8632   4.231   2.315   3.348
 2151SOL     OW 8633   4.032   2.475   3.430
 2151SOL    HW2 8634   4.047   2.468   3.524
 2151SOL    HW3 8635   4.057   2.565   3.408
 2151SOL    MW4 8636   4.037   2.486   3.440
 2152SOL     OW 8637   4.082   2.738   3.333
 2152SOL    HW2 8638   4.153   2.789   3.372
 2152SOL    HW3 8639   4.003   2.770   3.378
 2152SOL    MW4 8640   4.081   2.749   3.344
 2153SOL     OW 8641   4.352   2.849   3.447
 2153SOL    HW2 8642   4.352   2.838   3.542
 2153SOL    HW3 8643   4.422   2.791   3.416
 2153SOL    MW4 8644   4.361   2.840   3.456
 2154SOL     OW 8645   4.306   3.110   3.338
 2154SOL    HW2 8646   4.315   3.018   3.365
 2154SOL    HW3 8647   4.307   3.107   3.243
 2154SOL    MW4 8648   4.307   3.097   3.329
 2155SOL     OW 8649   4.063   3.233   3.407
 2155SOL    HW2 8650   4.067   3.323   3.374
 2155SOL    HW3 8651   4.149   3.197   3.388
 2155SOL    MW4 8652   4.075   3.241   3.400
 2156SOL     OW 8653   4.068   3.488   3.321
 2156SOL    HW2 8654   4.137   3.528   3.373
 2156SOL    HW3 8655   3.990   3.538   3.342
 2156SOL    MW4 8656   4.067   3.500   3.330
 2157SOL     OW 8657   4.262   3.619   3.477
 2157SOL    HW2 8658   4.262   3.620   3.572
 2157SOL    HW3 8659   4.254   3.711   3.452
 2157SOL    MW4 8660   4.261   3.631   3.486
 2158SOL     OW 8661   4.223   3.875   3.363
 2158SOL    HW2 8662   4.306   3.916   3.388
 2158SOL    HW3 8663   4.218   3.887   3.268
 2158SOL    MW4 8664   4.234   3.882   3.354
 2159SOL     OW 8665   4.008   4.005   3.483
 2159SOL    HW2 8666   4.095   3.976   3.457
 2159SOL    HW3 8667   3.948   3.949   3.434
 2159SOL    MW4 8668   4.011   3.994   3.473
 2160SOL     OW 8669   4.023   4.269   3.403
 2160SOL    HW2 8670   4.003   4.179   3.430
 2160SOL    HW3 8671   3.959   4.323   3.450
 2160SOL    MW4 8672   4.012   4.264   3.413
 2161SOL     OW 8673   4.259   4.376   3.487
 2161SOL    HW2 8674   4.258   4.375   3.583
 2161SOL    HW3 8675   4.174   4.340   3.462
 2161SOL    MW4 8676   4.247   4.371   3.496
 2162SOL     OW 8677   0.220   0.005   3.825
 2162SOL    HW2 8678   0.223  -0.001   3.920
 2162SOL    HW3 8679   0.141   0.055   3.806
 2162SOL    MW4 8680   0.210   0.011   3.835
 2163SOL     OW 8681   4.463   0.101   3.771
 2163SOL    HW2 8682   4.455   0.194   3.794
 2163SOL    HW3 8683   4.466   0.101   3.675
 2163SOL    MW4 8684   4.462   0.113   3.761
 2164SOL     OW 8685   4.476   0.380   3.846
 2164SOL    HW2 8686   4.400   0.428   3.814
 2164SOL    HW3 8687   4.552   0.428   3.811
 2164SOL    MW4 8688   4.476   0.393   3.837
 2165SOL     OW 8689   0.228   0.509   3.729
 2165SOL    HW2 8690   0.213   0.597   3.761
 2165SOL    HW3 8691   0.208   0.513   3.635
 2165SOL    MW4 8692   0.224   0.521   3.721
 2166SOL     OW 8693   0.202   0.771   3.824
 2166SOL    HW2 8694   0.215   0.789   3.917
 2166SOL    HW3 8695   0.108   0.775   3.811
 2166SOL    MW4 8696   0.192   0.774   3.834
 2167SOL     OW 8697   4.442   0.848   3.769
 2167SOL    HW2 8698   4.367   0.812   3.817
 2167SOL    HW3 8699   4.441   0.942   3.789
 2167SOL    MW4 8700   4.432   0.856   3.778
 2168SOL     OW 8701   4.439   1.117   3.832
 2168SOL    HW2 8702   4.375   1.187   3.823
 2168SOL    HW3 8703   4.523   1.157   3.807
 2168SOL    MW4 8704   4.442   1.131   3.828
 2169SOL     OW 8705   0.185   1.253   3.754
 2169SOL    HW2 8706   0.189   1.346   3.775
 2169SOL    HW3 8707   0.196   1.249   3.659
 2169SOL    MW4 8708   0.187   1.265   3.744
 2170SOL     OW 8709   0.164   1.510   3.810
 2170SOL    HW2 8710   0.174   1.506   3.905
 2170SOL    HW3 8711   0.072   1.536   3.797
 2170SOL    MW4 8712   0.153   1.513   3.821
 2171SOL     OW 8713   4.450   1.703   3.728
 2171SOL    HW2 8714   4.481   1.786   3.763
 2171SOL    HW3 8715   4.477   1.703   3.636
 2171SOL    MW4 8716   4.458   1.714   3.721
 2172SOL     OW 8717   4.477   1.951   3.855
 2172SOL    HW2 8718   4.466   1.933   3.948
 2172SOL    HW3 8719   4.388   1.969   3.824
 2172SOL    MW4 8720   4.464   1.951   3.863
 2173SOL     OW 8721   0.222   2.073   3.732
 2173SOL    HW2 8722   0.241   2.156   3.777
 2173SOL    HW3 8723   0.139   2.044   3.771
 2173SOL    MW4 8724   0.214   2.080   3.743
 2174SOL     OW 8725   0.228   2.331   3.836
 2174SOL    HW2 8726   0.207   2.318   3.929
 2174SOL    HW3 8727   0.143   2.339   3.793
 2174SOL    MW4 8728   0.214   2.330   3.843
 2175SOL     OW 8729   4.490   2.441   3.719
 2175SOL    HW2 8730   4.412   2.395   3.750
 2175SOL    HW3 8731   4.494   2.520   3.773
 2175SOL    MW4 8732   4.480   2.445   3.730
 2176SOL     OW 8733   0.036   2.689   3.853
 2176SOL    HW2 8734   0.020   2.711   3.945
 2176SOL    HW3 8735   0.122   2.727   3.834
 2176SOL    MW4 8736   0.045   2.697   3.863
 2177SOL     OW 8737   0.281   2.840   3.786
 2177SOL    HW2 8738   0.355   2.789   3.820
 2177SOL    HW3 8739   0.282   2.822   3.692
 2177SOL    MW4 8740   0.291   2.831   3.779
 2178SOL     OW 8741   0.241   3.106   3.838
 2178SOL    HW2 8742   0.258   3.112   3.932
 2178SOL    HW3 8743   0.258   3.014   3.817
 2178SOL    MW4 8744   0.245   3.095   3.848
 2179SOL     OW 8745   0.009   3.273   3.784
 2179SOL    HW2 8746   0.088   3.228   3.814
 2179SOL    HW3 8747   0.009   3.261   3.689
 2179SOL    MW4 8748   0.019   3.265   3.775
 2180SOL     OW 8749   4.488   3.538   3.901
 2180SOL    HW2 8750   4.546   3.585   3.841
 2180SOL    HW3 8751   4.491   3.447   3.871
 2180SOL    MW4 8752   4.496   3.532   3.889
 2181SOL     OW 8753   0.194   3.664   3.747
 2181SOL    HW2 8754   0.252   3.612   3.803
 2181SOL    HW3 8755   0.198   3.752   3.784
 2181SOL    MW4 8756   0.202   3.668   3.759
 2182SOL     OW 8757   0.227   3.943   3.834
 2182SOL    HW2 8758   0.216   3.977   3.922
 2182SOL    HW3 8759   0.307   3.985   3.802
 2182SOL    MW4 8760   0.236   3.953   3.841
 2183SOL     OW 8761   4.470   4.003   3.710
 2183SOL    HW2 8762   4.401   3.954   3.756
 2183SOL    HW3 8763   4.552   3.967   3.744
 2183SOL    MW4 8764   4.472   3.992   3.721
 2184SOL     OW 8765   0.003   4.251   3.853
 2184SOL    HW2 8766   0.074   4.300   3.812
 2184SOL    HW3 8767  -0.023   4.186   3.787
 2184SOL    MW4 8768   0.009   4.249   3.839
 2185SOL     OW 8769   0.222   4.409   3.773
 2185SOL    HW2 8770   0.294   4.378   3.827
 2185SOL    HW3 8771   0.228   4.505   3.778
 2185SOL    MW4 8772   0.232   4.418   3.781
 2186SOL     OW 8773   0.666   0.022   3.926
 2186SOL    HW2 8774   0.666  -0.069   3.896
 2186SOL    HW3 8775   0.585   0.059   3.889
 2186SOL    MW4 8776   0.655   0.015   3.917
 2187SOL     OW 8777   0.453   0.108   3.749
 2187SOL    HW2 8778   0.454   0.202   3.765
 2187SOL    HW3 8779   0.366   0.080   3.777
 2187SOL    MW4 8780   0.442   0.117   3.755
 2188SOL     OW 8781   0.455   0.367   3.806
 2188SOL    HW2 8782   0.531   0.422   3.787
 2188SOL    HW3 8783   0.381   0.415   3.769
 2188SOL    MW4 8784   0.456   0.381   3.799
 2189SOL     OW 8785   0.660   0.548   3.740
 2189SOL    HW2 8786   0.711   0.498   3.804
 2189SOL    HW3 8787   0.669   0.639   3.768
 2189SOL    MW4 8788   0.668   0.553   3.752
 2190SOL     OW 8789   0.639   0.793   3.908
 2190SOL    HW2 8790   0.721   0.812   3.863
 2190SOL    HW3 8791   0.571   0.815   3.844
 2190SOL    MW4 8792   0.640   0.799   3.893
 2191SOL     OW 8793   0.430   0.876   3.748
 2191SOL    HW2 8794   0.440   0.963   3.787
 2191SOL    HW3 8795   0.339   0.853   3.765
 2191SOL    MW4 8796   0.419   0.885   3.755
 2192SOL     OW 8797   0.445   1.144   3.850
 2192SOL    HW2 8798   0.522   1.191   3.818
 2192SOL    HW3 8799   0.371   1.192   3.816
 2192SOL    MW4 8800   0.446   1.156   3.841
 2193SOL     OW 8801   0.653   1.288   3.755
 2193SOL    HW2 8802   0.728   1.237   3.785
 2193SOL    HW3 8803   0.669   1.303   3.662
 2193SOL    MW4 8804   0.665   1.284   3.747
 2194SOL     OW 8805   0.649   1.557   3.848
 2194SOL    HW2 8806   0.733   1.592   3.817
 2194SOL    HW3 8807   0.657   1.462   3.837
 2194SOL    MW4 8808   0.661   1.549   3.843
 2195SOL     OW 8809   0.426   1.668   3.712
 2195SOL    HW2 8810   0.501   1.621   3.748
 2195SOL    HW3 8811   0.350   1.629   3.755
 2195SOL    MW4 8812   0.426   1.657   3.722
 2196SOL     OW 8813   0.398   1.894   3.860
 2196SOL    HW2 8814   0.401   1.816   3.805
 2196SOL    HW3 8815   0.331   1.950   3.820
 2196SOL    MW4 8816   0.389   1.891   3.847
 2197SOL     OW 8817   0.615   2.041   3.729
 2197SOL    HW2 8818   0.608   2.121   3.781
 2197SOL    HW3 8819   0.562   1.977   3.777
 2197SOL    MW4 8820   0.607   2.043   3.742
 2198SOL     OW 8821   0.637   2.281   3.852
 2198SOL    HW2 8822   0.725   2.307   3.824
 2198SOL    HW3 8823   0.579   2.349   3.817
 2198SOL    MW4 8824   0.641   2.293   3.844
 2199SOL     OW 8825   0.446   2.412   3.681
 2199SOL    HW2 8826   0.365   2.385   3.724
 2199SOL    HW3 8827   0.420   2.440   3.594
 2199SOL    MW4 8828   0.432   2.412   3.675
 2200SOL     OW 8829   0.475   2.629   3.859
 2200SOL    HW2 8830   0.535   2.685   3.810
 2200SOL    HW3 8831   0.446   2.563   3.796
 2200SOL    MW4 8832   0.479   2.628   3.844
 2201SOL     OW 8833   0.647   2.812   3.738
 2201SOL    HW2 8834   0.730   2.786   3.778
 2201SOL    HW3 8835   0.668   2.824   3.645
 2201SOL    MW4 8836   0.660   2.811   3.731
 2202SOL     OW 8837   0.662   3.089   3.784
 2202SOL    HW2 8838   0.653   3.106   3.878
 2202SOL    HW3 8839   0.646   2.995   3.775
 2202SOL    MW4 8840   0.659   3.079   3.795
 2203SOL     OW 8841   0.456   3.265   3.752
 2203SOL    HW2 8842   0.531   3.206   3.761
 2203SOL    HW3 8843   0.383   3.216   3.791
 2203SOL    MW4 8844   0.456   3.251   3.759
 2204SOL     OW 8845   0.410   3.509   3.855
 2204SOL    HW2 8846   0.489   3.555   3.826
 2204SOL    HW3 8847   0.424   3.418   3.830
 2204SOL    MW4 8848   0.422   3.503   3.848
 2205SOL     OW 8849   0.645   3.638   3.764
 2205SOL    HW2 8850   0.649   3.733   3.776
 2205SOL    HW3 8851   0.673   3.624   3.673
 2205SOL    MW4 8852   0.649   3.649   3.754
 2206SOL     OW 8853   0.625   3.907   3.842
 2206SOL    HW2 8854   0.625   3.917   3.937
 2206SOL    HW3 8855   0.708   3.943   3.813
 2206SOL    MW4 8856   0.636   3.913   3.851
 2207SOL     OW 8857   0.455   4.078   3.733
 2207SOL    HW2 8858   0.507   4.018   3.786
 2207SOL    HW3 8859   0.471   4.051   3.643
 2207SOL    MW4 8860   0.464   4.067   3.728
 2208SOL     OW 8861   0.434   4.294   3.931
 2208SOL    HW2 8862   0.503   4.353   3.903
 2208SOL    HW3 8863   0.439   4.221   3.870
 2208SOL    MW4 8864   0.443   4.292   3.919
 2209SOL     OW 8865   0.644   4.428   3.804
 2209SOL    HW2 8866   0.729   4.387   3.817
 2209SOL    HW3 8867   0.628   4.419   3.710
 2209SOL    MW4 8868   0.653   4.421   3.793
 2210SOL     OW 8869   1.125   4.625   3.829
 2210SOL    HW2 8870   1.196   4.671   3.785
 2210SOL    HW3 8871   1.120   4.540   3.785
 2210SOL    MW4 8872   1.133   4.620   3.817
 2211SOL     OW 8873   0.907   0.121   3.770
 2211SOL    HW2 8874   0.985   0.072   3.797
 2211SOL    HW3 8875   0.837   0.086   3.825
 2211SOL    MW4 8876   0.908   0.110   3.781
 2212SOL     OW 8877   0.829   0.370   3.877
 2212SOL    HW2 8878   0.812   0.347   3.968
 2212SOL    HW3 8879   0.861   0.290   3.836
 2212SOL    MW4 8880   0.831   0.356   3.883
 2213SOL     OW 8881   1.070   0.515   3.744
 2213SOL    HW2 8882   1.149   0.462   3.757
 2213SOL    HW3 8883   1.005   0.475   3.802
 2213SOL    MW4 8884   1.072   0.503   3.754
 2214SOL     OW 8885   1.093   0.806   3.847
 2214SOL    HW2 8886   1.089   0.825   3.941
 2214SOL    HW3 8887   1.099   0.711   3.842
 2214SOL    MW4 8888   1.094   0.796   3.858
 2215SOL     OW 8889   0.846   0.879   3.758
 2215SOL    HW2 8890   0.933   0.852   3.790
 2215SOL    HW3 8891   0.854   0.877   3.663
 2215SOL    MW4 8892   0.859   0.875   3.750
 2216SOL     OW 8893   0.886   1.166   3.849
 2216SOL    HW2 8894   0.856   1.156   3.940
 2216SOL    HW3 8895   0.897   1.076   3.817
 2216SOL    MW4 8896   0.884   1.153   3.857
 2217SOL     OW 8897   1.102   1.299   3.743
 2217SOL    HW2 8898   1.106   1.389   3.776
 2217SOL    HW3 8899   1.028   1.260   3.788
 2217SOL    MW4 8900   1.093   1.306   3.753
 2218SOL     OW 8901   1.091   1.553   3.852
 2218SOL    HW2 8902   1.091   1.551   3.947
 2218SOL    HW3 8903   1.168   1.605   3.829
 2218SOL    MW4 8904   1.101   1.560   3.861
 2219SOL     OW 8905   0.861   1.713   3.737
 2219SOL    HW2 8906   0.939   1.665   3.765
 2219SOL    HW3 8907   0.866   1.715   3.642
 2219SOL    MW4 8908   0.872   1.707   3.728
 2220SOL     OW 8909   0.844   1.972   3.886
 2220SOL    HW2 8910   0.843   1.880   3.861
 2220SOL    HW3 8911   0.779   2.013   3.829
 2220SOL    MW4 8912   0.835   1.965   3.875
 2221SOL     OW 8913   1.077   2.051   3.761
 2221SOL    HW2 8914   0.991   2.016   3.785
 2221SOL    HW3 8915   1.075   2.057   3.666
 2221SOL    MW4 8916   1.066   2.047   3.752
 2222SOL     OW 8917   1.145   2.308   3.850
 2222SOL    HW2 8918   1.137   2.312   3.946
 2222SOL    HW3 8919   1.131   2.215   3.830
 2222SOL    MW4 8920   1.142   2.296   3.860
 2223SOL     OW 8921   0.890   2.396   3.778
 2223SOL    HW2 8922   0.885   2.489   3.797
 2223SOL    HW3 8923   0.978   2.370   3.804
 2223SOL    MW4 8924   0.901   2.405   3.784
 2224SOL     OW 8925   0.870   2.684   3.813
 2224SOL    HW2 8926   0.870   2.688   3.909
 2224SOL    HW3 8927   0.946   2.736   3.787
 2224SOL    MW4 8928   0.880   2.691   3.822
 2225SOL     OW 8929   1.069   2.834   3.701
 2225SOL    HW2 8930   1.153   2.793   3.723
 2225SOL    HW3 8931   1.075   2.922   3.737
 2225SOL    MW4 8932   1.081   2.840   3.709
 2226SOL     OW 8933   1.099   3.107   3.779
 2226SOL    HW2 8934   1.178   3.159   3.763
 2226SOL    HW3 8935   1.029   3.171   3.786
 2226SOL    MW4 8936   1.100   3.122   3.778
 2227SOL     OW 8937   0.874   3.257   3.716
 2227SOL    HW2 8938   0.799   3.199   3.731
 2227SOL    HW3 8939   0.890   3.252   3.622
 2227SOL    MW4 8940   0.866   3.249   3.706
 2228SOL     OW 8941   0.891   3.507   3.833
 2228SOL    HW2 8942   0.887   3.418   3.798
 2228SOL    HW3 8943   0.804   3.543   3.818
 2228SOL    MW4 8944   0.879   3.500   3.827
 2229SOL     OW 8945   1.105   3.645   3.696
 2229SOL    HW2 8946   1.105   3.728   3.743
 2229SOL    HW3 8947   1.042   3.591   3.744
 2229SOL    MW4 8948   1.096   3.649   3.709
 2230SOL     OW 8949   1.077   3.881   3.856
 2230SOL    HW2 8950   1.089   3.864   3.949
 2230SOL    HW3 8951   1.150   3.939   3.832
 2230SOL    MW4 8952   1.088   3.886   3.865
 2231SOL     OW 8953   0.861   4.022   3.758
 2231SOL    HW2 8954   0.938   3.975   3.789
 2231SOL    HW3 8955   0.878   4.038   3.665
 2231SOL    MW4 8956   0.874   4.018   3.749
 2232SOL     OW 8957   0.876   4.278   3.866
 2232SOL    HW2 8958   0.848   4.266   3.957
 2232SOL    HW3 8959   0.853   4.196   3.823
 2232SOL    MW4 8960   0.869   4.266   3.872
 2233SOL     OW 8961   1.106   4.368   3.731
 2233SOL    HW2 8962   1.032   4.323   3.772
 2233SOL    HW3 8963   1.085   4.367   3.637
 2233SOL    MW4 8964   1.093   4.362   3.724
 2234SOL     OW 8965   1.552   0.010   3.816
 2234SOL    HW2 8966   1.549   0.003   3.911
 2234SOL    HW3 8967   1.564  -0.081   3.786
 2234SOL    MW4 8968   1.553  -0.003   3.825
 2235SOL     OW 8969   1.316   0.109   3.702
 2235SOL    HW2 8970   1.323   0.189   3.755
 2235SOL    HW3 8971   1.392   0.057   3.727
 2235SOL    MW4 8972   1.327   0.113   3.712
 2236SOL     OW 8973   1.296   0.385   3.816
 2236SOL    HW2 8974   1.284   0.391   3.911
 2236SOL    HW3 8975   1.377   0.432   3.800
 2236SOL    MW4 8976   1.305   0.392   3.827
 2237SOL     OW 8977   1.512   0.531   3.756
 2237SOL    HW2 8978   1.599   0.497   3.778
 2237SOL    HW3 8979   1.508   0.617   3.799
 2237SOL    MW4 8980   1.523   0.538   3.765
 2238SOL     OW 8981   1.537   0.796   3.827
 2238SOL    HW2 8982   1.615   0.840   3.795
 2238SOL    HW3 8983   1.466   0.830   3.774
 2238SOL    MW4 8984   1.538   0.806   3.816
 2239SOL     OW 8985   1.308   0.934   3.706
 2239SOL    HW2 8986   1.318   1.029   3.712
 2239SOL    HW3 8987   1.231   0.914   3.758
 2239SOL    MW4 8988   1.299   0.944   3.714
 2240SOL     OW 8989   1.336   1.179   3.807
 2240SOL    HW2 8990   1.406   1.229   3.765
 2240SOL    HW3 8991   1.256   1.226   3.783
 2240SOL    MW4 8992   1.334   1.192   3.798
 2241SOL     OW 8993   1.568   1.298   3.707
 2241SOL    HW2 8994   1.640   1.247   3.745
 2241SOL    HW3 8995   1.569   1.381   3.755
 2241SOL    MW4 8996   1.578   1.302   3.719
 2242SOL     OW 8997   1.538   1.541   3.832
 2242SOL    HW2 8998   1.521   1.536   3.926
 2242SOL    HW3 8999   1.622   1.587   3.826
 2242SOL    MW4 9000   1.547   1.546   3.844
 2243SOL     OW 9001   1.315   1.680   3.726
 2243SOL    HW2 9002   1.297   1.765   3.765
 2243SOL    HW3 9003   1.396   1.651   3.767
 2243SOL    MW4 9004   1.323   1.687   3.737
 2244SOL     OW 9005   1.315   1.931   3.851
 2244SOL    HW2 9006   1.312   1.936   3.946
 2244SOL    HW3 9007   1.234   1.973   3.822
 2244SOL    MW4 9008   1.304   1.937   3.860
 2245SOL     OW 9009   1.553   2.067   3.775
 2245SOL    HW2 9010   1.472   2.019   3.794
 2245SOL    HW3 9011   1.561   2.063   3.680
 2245SOL    MW4 9012   1.544   2.060   3.765
 2246SOL     OW 9013   1.605   2.380   3.829
 2246SOL    HW2 9014   1.693   2.402   3.800
 2246SOL    HW3 9015   1.597   2.286   3.812
 2246SOL    MW4 9016   1.615   2.370   3.823
 2247SOL     OW 9017   1.357   2.488   3.747
 2247SOL    HW2 9018   1.438   2.452   3.783
 2247SOL    HW3 9019   1.289   2.426   3.774
 2247SOL    MW4 9020   1.358   2.475   3.756
 2248SOL     OW 9021   1.347   2.761   3.792
 2248SOL    HW2 9022   1.321   2.783   3.882
 2248SOL    HW3 9023   1.355   2.666   3.792
 2248SOL    MW4 9024   1.345   2.752   3.804
 2249SOL     OW 9025   1.567   2.948   3.717
 2249SOL    HW2 9026   1.499   2.884   3.740
 2249SOL    HW3 9027   1.584   2.933   3.624
 2249SOL    MW4 9028   1.560   2.937   3.708
 2250SOL     OW 9029   1.531   3.161   3.896
 2250SOL    HW2 9030   1.520   3.144   3.989
 2250SOL    HW3 9031   1.552   3.075   3.858
 2250SOL    MW4 9032   1.533   3.147   3.903
 2251SOL     OW 9033   1.311   3.276   3.755
 2251SOL    HW2 9034   1.285   3.361   3.791
 2251SOL    HW3 9035   1.379   3.245   3.814
 2251SOL    MW4 9036   1.316   3.283   3.767
 2252SOL     OW 9037   1.303   3.534   3.849
 2252SOL    HW2 9038   1.387   3.573   3.824
 2252SOL    HW3 9039   1.240   3.571   3.787
 2252SOL    MW4 9040   1.306   3.544   3.837
 2253SOL     OW 9041   1.549   3.644   3.753
 2253SOL    HW2 9042   1.619   3.603   3.804
 2253SOL    HW3 9043   1.554   3.737   3.777
 2253SOL    MW4 9044   1.559   3.651   3.763
 2254SOL     OW 9045   1.528   3.913   3.851
 2254SOL    HW2 9046   1.510   3.913   3.945
 2254SOL    HW3 9047   1.443   3.932   3.811
 2254SOL    MW4 9048   1.514   3.916   3.858
 2255SOL     OW 9049   1.299   4.004   3.739
 2255SOL    HW2 9050   1.315   4.091   3.774
 2255SOL    HW3 9051   1.330   4.008   3.649
 2255SOL    MW4 9052   1.305   4.016   3.732
 2256SOL     OW 9053   1.360   4.272   3.831
 2256SOL    HW2 9054   1.432   4.314   3.783
 2256SOL    HW3 9055   1.282   4.319   3.801
 2256SOL    MW4 9056   1.359   4.284   3.821
 2257SOL     OW 9057   1.568   4.425   3.715
 2257SOL    HW2 9058   1.654   4.393   3.742
 2257SOL    HW3 9059   1.571   4.424   3.619
 2257SOL    MW4 9060   1.580   4.420   3.705
 2258SOL     OW 9061   2.003   4.654   3.851
 2258SOL    HW2 9062   2.081   4.696   3.815
 2258SOL    HW3 9063   1.984   4.582   3.791
 2258SOL    MW4 9064   2.011   4.650   3.838
 2259SOL     OW 9065   1.778   0.124   3.728
 2259SOL    HW2 9066   1.846   0.093   3.788
 2259SOL    HW3 9067   1.696   0.092   3.767
 2259SOL    MW4 9068   1.776   0.115   3.741
 2260SOL     OW 9069   1.738   0.385   3.836
 2260SOL    HW2 9070   1.724   0.365   3.929
 2260SOL    HW3 9071   1.733   0.300   3.792
 2260SOL    MW4 9072   1.735   0.371   3.843
 2261SOL     OW 9073   1.976   0.491   3.764
 2261SOL    HW2 9074   1.898   0.441   3.789
 2261SOL    HW3 9075   1.967   0.504   3.669
 2261SOL    MW4 9076   1.964   0.486   3.755
 2262SOL     OW 9077   1.981   0.749   3.855
 2262SOL    HW2 9078   1.993   0.756   3.950
 2262SOL    HW3 9079   1.978   0.656   3.838
 2262SOL    MW4 9080   1.983   0.738   3.866
 2263SOL     OW 9081   1.790   0.896   3.725
 2263SOL    HW2 9082   1.860   0.840   3.759
 2263SOL    HW3 9083   1.797   0.888   3.630
 2263SOL    MW4 9084   1.801   0.888   3.717
 2264SOL     OW 9085   1.791   1.158   3.839
 2264SOL    HW2 9086   1.782   1.146   3.934
 2264SOL    HW3 9087   1.818   1.073   3.806
 2264SOL    MW4 9088   1.794   1.146   3.847
 2265SOL     OW 9089   2.030   1.273   3.744
 2265SOL    HW2 9090   2.105   1.223   3.775
 2265SOL    HW3 9091   1.954   1.222   3.774
 2265SOL    MW4 9092   2.030   1.259   3.752
 2266SOL     OW 9093   2.017   1.534   3.867
 2266SOL    HW2 9094   1.929   1.563   3.841
 2266SOL    HW3 9095   2.029   1.451   3.821
 2266SOL    MW4 9096   2.007   1.527   3.858
 2267SOL     OW 9097   1.777   1.659   3.774
 2267SOL    HW2 9098   1.769   1.753   3.789
 2267SOL    HW3 9099   1.805   1.652   3.683
 2267SOL    MW4 9100   1.780   1.671   3.764
 2268SOL     OW 9101   1.756   1.920   3.881
 2268SOL    HW2 9102   1.745   1.916   3.976
 2268SOL    HW3 9103   1.681   1.971   3.850
 2268SOL    MW4 9104   1.745   1.926   3.890
 2269SOL     OW 9105   1.993   2.030   3.772
 2269SOL    HW2 9106   1.927   1.969   3.805
 2269SOL    HW3 9107   1.979   2.032   3.677
 2269SOL    MW4 9108   1.983   2.022   3.764
 2270SOL     OW 9109   2.004   2.300   3.879
 2270SOL    HW2 9110   1.935   2.339   3.825
 2270SOL    HW3 9111   1.993   2.206   3.868
 2270SOL    MW4 9112   1.994   2.293   3.870
 2271SOL     OW 9113   1.838   2.478   3.708
 2271SOL    HW2 9114   1.813   2.564   3.739
 2271SOL    HW3 9115   1.832   2.484   3.612
 2271SOL    MW4 9116   1.834   2.490   3.699
 2272SOL     OW 9117   1.772   2.762   3.787
 2272SOL    HW2 9118   1.762   2.758   3.882
 2272SOL    HW3 9119   1.707   2.826   3.758
 2272SOL    MW4 9120   1.762   2.770   3.796
 2273SOL     OW 9121   2.028   2.900   3.759
 2273SOL    HW2 9122   2.109   2.854   3.780
 2273SOL    HW3 9123   1.960   2.834   3.771
 2273SOL    MW4 9124   2.030   2.885   3.764
 2274SOL     OW 9125   1.979   3.176   3.822
 2274SOL    HW2 9126   1.998   3.087   3.794
 2274SOL    HW3 9127   2.057   3.226   3.796
 2274SOL    MW4 9128   1.992   3.171   3.814
 2275SOL     OW 9129   1.727   3.292   3.756
 2275SOL    HW2 9130   1.812   3.253   3.777
 2275SOL    HW3 9131   1.666   3.249   3.815
 2275SOL    MW4 9132   1.730   3.281   3.767
 2276SOL     OW 9133   1.746   3.518   3.891
 2276SOL    HW2 9134   1.825   3.557   3.853
 2276SOL    HW3 9135   1.726   3.444   3.833
 2276SOL    MW4 9136   1.754   3.514   3.878
 2277SOL     OW 9137   1.969   3.628   3.773
 2277SOL    HW2 9138   2.037   3.594   3.832
 2277SOL    HW3 9139   2.010   3.627   3.687
 2277SOL    MW4 9140   1.984   3.624   3.769
 2278SOL     OW 9141   1.978   3.923   3.818
 2278SOL    HW2 9142   2.060   3.962   3.787
 2278SOL    HW3 9143   1.985   3.831   3.795
 2278SOL    MW4 9144   1.990   3.916   3.811
 2279SOL     OW 9145   1.740   4.039   3.717
 2279SOL    HW2 9146   1.815   3.995   3.758
 2279SOL    HW3 9147   1.664   4.001   3.760
 2279SOL    MW4 9148   1.740   4.028   3.728
 2280SOL     OW 9149   1.802   4.317   3.788
 2280SOL    HW2 9150   1.872   4.351   3.733
 2280SOL    HW3 9151   1.779   4.233   3.748
 2280SOL    MW4 9152   1.808   4.311   3.775
 2281SOL     OW 9153   1.983   4.456   3.643
 2281SOL    HW2 9154   2.057   4.413   3.686
 2281SOL    HW3 9155   1.992   4.431   3.551
 2281SOL    MW4 9156   1.994   4.447   3.636
 2282SOL     OW 9157   2.460   4.624   3.794
 2282SOL    HW2 9158   2.478   4.583   3.879
 2282SOL    HW3 9159   2.526   4.693   3.787
 2282SOL    MW4 9160   2.471   4.628   3.805
 2283SOL     OW 9161   2.240   0.123   3.755
 2283SOL    HW2 9162   2.307   0.060   3.784
 2283SOL    HW3 9163   2.243   0.119   3.660
 2283SOL    MW4 9164   2.249   0.114   3.747
 2284SOL     OW 9165   2.193   0.367   3.890
 2284SOL    HW2 9166   2.205   0.277   3.859
 2284SOL    HW3 9167   2.125   0.403   3.833
 2284SOL    MW4 9168   2.186   0.359   3.879
 2285SOL     OW 9169   2.420   0.500   3.751
 2285SOL    HW2 9170   2.347   0.444   3.773
 2285SOL    HW3 9171   2.428   0.493   3.656
 2285SOL    MW4 9172   2.412   0.492   3.741
 2286SOL     OW 9173   2.460   0.748   3.867
 2286SOL    HW2 9174   2.373   0.780   3.843
 2286SOL    HW3 9175   2.460   0.657   3.837
 2286SOL    MW4 9176   2.448   0.740   3.860
 2287SOL     OW 9177   2.209   0.859   3.759
 2287SOL    HW2 9178   2.137   0.802   3.788
 2287SOL    HW3 9179   2.206   0.854   3.664
 2287SOL    MW4 9180   2.199   0.851   3.750
 2288SOL     OW 9181   2.243   1.134   3.849
 2288SOL    HW2 9182   2.239   1.123   3.944
 2288SOL    HW3 9183   2.255   1.046   3.815
 2288SOL    MW4 9184   2.244   1.121   3.857
 2289SOL     OW 9185   2.487   1.282   3.769
 2289SOL    HW2 9186   2.487   1.363   3.819
 2289SOL    HW3 9187   2.406   1.238   3.795
 2289SOL    MW4 9188   2.477   1.287   3.779
 2290SOL     OW 9189   2.471   1.531   3.886
 2290SOL    HW2 9190   2.543   1.587   3.856
 2290SOL    HW3 9191   2.392   1.571   3.848
 2290SOL    MW4 9192   2.470   1.544   3.877
 2291SOL     OW 9193   2.251   1.677   3.789
 2291SOL    HW2 9194   2.242   1.769   3.815
 2291SOL    HW3 9195   2.166   1.638   3.810
 2291SOL    MW4 9196   2.239   1.684   3.795
 2292SOL     OW 9197   2.253   1.942   3.870
 2292SOL    HW2 9198   2.242   1.937   3.965
 2292SOL    HW3 9199   2.174   1.986   3.838
 2292SOL    MW4 9200   2.241   1.947   3.878
 2293SOL     OW 9201   2.478   2.037   3.739
 2293SOL    HW2 9202   2.488   2.127   3.769
 2293SOL    HW3 9203   2.408   2.000   3.794
 2293SOL    MW4 9204   2.470   2.044   3.750
 2294SOL     OW 9205   2.483   2.284   3.848
 2294SOL    HW2 9206   2.554   2.345   3.829
 2294SOL    HW3 9207   2.403   2.332   3.824
 2294SOL    MW4 9208   2.482   2.298   3.842
 2295SOL     OW 9209   2.244   2.449   3.793
 2295SOL    HW2 9210   2.168   2.398   3.821
 2295SOL    HW3 9211   2.226   2.470   3.701
 2295SOL    MW4 9212   2.232   2.445   3.784
 2296SOL     OW 9213   2.246   2.737   3.829
 2296SOL    HW2 9214   2.225   2.735   3.922
 2296SOL    HW3 9215   2.267   2.646   3.807
 2296SOL    MW4 9216   2.246   2.724   3.838
 2297SOL     OW 9217   2.483   2.894   3.761
 2297SOL    HW2 9218   2.404   2.864   3.806
 2297SOL    HW3 9219   2.470   2.871   3.670
 2297SOL    MW4 9220   2.471   2.887   3.755
 2298SOL     OW 9221   2.461   3.169   3.842
 2298SOL    HW2 9222   2.465   3.163   3.938
 2298SOL    HW3 9223   2.463   3.078   3.813
 2298SOL    MW4 9224   2.462   3.156   3.851
 2299SOL     OW 9225   2.221   3.305   3.745
 2299SOL    HW2 9226   2.222   3.398   3.768
 2299SOL    HW3 9227   2.303   3.271   3.781
 2299SOL    MW4 9228   2.232   3.313   3.752
 2300SOL     OW 9229   2.203   3.543   3.893
 2300SOL    HW2 9230   2.201   3.520   3.986
 2300SOL    HW3 9231   2.289   3.581   3.879
 2300SOL    MW4 9232   2.214   3.545   3.903
 2301SOL     OW 9233   2.438   3.616   3.776
 2301SOL    HW2 9234   2.530   3.594   3.791
 2301SOL    HW3 9235   2.423   3.594   3.684
 2301SOL    MW4 9236   2.448   3.610   3.766
 2302SOL     OW 9237   2.450   3.887   3.868
 2302SOL    HW2 9238   2.539   3.917   3.851
 2302SOL    HW3 9239   2.445   3.801   3.826
 2302SOL    MW4 9240   2.461   3.880   3.860
 2303SOL     OW 9241   2.235   4.015   3.744
 2303SOL    HW2 9242   2.318   3.981   3.776
 2303SOL    HW3 9243   2.236   3.997   3.650
 2303SOL    MW4 9244   2.246   4.008   3.735
 2304SOL     OW 9245   2.198   4.280   3.811
 2304SOL    HW2 9246   2.230   4.287   3.901
 2304SOL    HW3 9247   2.200   4.186   3.793
 2304SOL    MW4 9248   2.203   4.268   3.820
 2305SOL     OW 9249   2.462   4.373   3.679
 2305SOL    HW2 9250   2.394   4.322   3.722
 2305SOL    HW3 9251   2.457   4.459   3.721
 2305SOL    MW4 9252   2.452   4.378   3.690
 2306SOL     OW 9253   2.879   4.665   3.860
 2306SOL    HW2 9254   2.870   4.666   3.955
 2306SOL    HW3 9255   2.970   4.691   3.844
 2306SOL    MW4 9256   2.890   4.668   3.870
 2307SOL     OW 9257   2.667   0.148   3.763
 2307SOL    HW2 9258   2.744   0.096   3.788
 2307SOL    HW3 9259   2.670   0.149   3.667
 2307SOL    MW4 9260   2.678   0.141   3.753
 2308SOL     OW 9261   2.682   0.419   3.847
 2308SOL    HW2 9262   2.681   0.336   3.799
 2308SOL    HW3 9263   2.600   0.462   3.822
 2308SOL    MW4 9264   2.671   0.414   3.838
 2309SOL     OW 9265   2.917   0.539   3.796
 2309SOL    HW2 9266   2.983   0.470   3.802
 2309SOL    HW3 9267   2.835   0.496   3.821
 2309SOL    MW4 9268   2.915   0.524   3.800
 2310SOL     OW 9269   2.883   0.800   3.860
 2310SOL    HW2 9270   2.949   0.833   3.799
 2310SOL    HW3 9271   2.902   0.707   3.869
 2310SOL    MW4 9272   2.894   0.792   3.853
 2311SOL     OW 9273   2.643   0.884   3.724
 2311SOL    HW2 9274   2.724   0.836   3.743
 2311SOL    HW3 9275   2.576   0.838   3.775
 2311SOL    MW4 9276   2.645   0.871   3.734
 2312SOL     OW 9277   2.703   1.138   3.856
 2312SOL    HW2 9278   2.700   1.051   3.816
 2312SOL    HW3 9279   2.621   1.179   3.829
 2312SOL    MW4 9280   2.692   1.132   3.847
 2313SOL     OW 9281   2.907   1.281   3.745
 2313SOL    HW2 9282   2.892   1.372   3.769
 2313SOL    HW3 9283   2.825   1.237   3.764
 2313SOL    MW4 9284   2.895   1.287   3.750
 2314SOL     OW 9285   2.923   1.542   3.802
 2314SOL    HW2 9286   2.917   1.544   3.897
 2314SOL    HW3 9287   2.999   1.596   3.781
 2314SOL    MW4 9288   2.932   1.549   3.812
 2315SOL     OW 9289   2.686   1.639   3.745
 2315SOL    HW2 9290   2.772   1.601   3.761
 2315SOL    HW3 9291   2.681   1.646   3.649
 2315SOL    MW4 9292   2.697   1.635   3.734
 2316SOL     OW 9293   2.675   1.903   3.866
 2316SOL    HW2 9294   2.680   1.815   3.828
 2316SOL    HW3 9295   2.599   1.943   3.825
 2316SOL    MW4 9296   2.665   1.897   3.856
 2317SOL     OW 9297   2.869   2.093   3.761
 2317SOL    HW2 9298   2.876   2.163   3.827
 2317SOL    HW3 9299   2.803   2.034   3.796
 2317SOL    MW4 9300   2.861   2.095   3.775
 2318SOL     OW 9301   2.896   2.315   3.948
 2318SOL    HW2 9302   2.874   2.343   4.037
 2318SOL    HW3 9303   2.989   2.336   3.939
 2318SOL    MW4 9304   2.906   2.322   3.959
 2319SOL     OW 9305   2.706   2.446   3.795
 2319SOL    HW2 9306   2.712   2.541   3.794
 2319SOL    HW3 9307   2.778   2.418   3.852
 2319SOL    MW4 9308   2.716   2.455   3.802
 2320SOL     OW 9309   2.709   2.723   3.820
 2320SOL    HW2 9310   2.690   2.717   3.913
 2320SOL    HW3 9311   2.642   2.781   3.785
 2320SOL    MW4 9312   2.698   2.729   3.827
 2321SOL     OW 9313   2.918   2.836   3.701
 2321SOL    HW2 9314   2.933   2.920   3.744
 2321SOL    HW3 9315   2.844   2.798   3.749
 2321SOL    MW4 9316   2.910   2.842   3.713
 2322SOL     OW 9317   2.937   3.068   3.869
 2322SOL    HW2 9318   3.007   3.131   3.852
 2322SOL    HW3 9319   2.857   3.116   3.848
 2322SOL    MW4 9320   2.936   3.083   3.864
 2323SOL     OW 9321   2.718   3.229   3.787
 2323SOL    HW2 9322   2.720   3.318   3.824
 2323SOL    HW3 9323   2.628   3.200   3.801
 2323SOL    MW4 9324   2.706   3.237   3.793
 2324SOL     OW 9325   2.677   3.503   3.857
 2324SOL    HW2 9326   2.689   3.510   3.951
 2324SOL    HW3 9327   2.749   3.553   3.819
 2324SOL    MW4 9328   2.688   3.510   3.864
 2325SOL     OW 9329   2.926   3.630   3.749
 2325SOL    HW2 9330   2.996   3.578   3.787
 2325SOL    HW3 9331   2.926   3.607   3.656
 2325SOL    MW4 9332   2.935   3.620   3.742
 2326SOL     OW 9333   2.939   3.896   3.843
 2326SOL    HW2 9334   2.929   3.886   3.938
 2326SOL    HW3 9335   2.945   3.807   3.810
 2326SOL    MW4 9336   2.938   3.883   3.851
 2327SOL     OW 9337   2.695   3.978   3.784
 2327SOL    HW2 9338   2.696   4.073   3.794
 2327SOL    HW3 9339   2.773   3.949   3.832
 2327SOL    MW4 9340   2.705   3.986   3.792
 2328SOL     OW 9341   2.694   4.255   3.800
 2328SOL    HW2 9342   2.768   4.314   3.783
 2328SOL    HW3 9343   2.617   4.304   3.772
 2328SOL    MW4 9344   2.694   4.269   3.794
 2329SOL     OW 9345   2.895   4.428   3.719
 2329SOL    HW2 9346   2.974   4.385   3.751
 2329SOL    HW3 9347   2.891   4.511   3.767
 2329SOL    MW4 9348   2.905   4.433   3.730
 2330SOL     OW 9349   3.365   4.653   3.884
 2330SOL    HW2 9350   3.357   4.655   3.979
 2330SOL    HW3 9351   3.428   4.723   3.865
 2330SOL    MW4 9352   3.372   4.663   3.894
 2331SOL     OW 9353   3.131   0.088   3.753
 2331SOL    HW2 9354   3.217   0.070   3.793
 2331SOL    HW3 9355   3.151   0.111   3.662
 2331SOL    MW4 9356   3.145   0.089   3.746
 2332SOL     OW 9357   3.112   0.362   3.851
 2332SOL    HW2 9358   3.107   0.366   3.946
 2332SOL    HW3 9359   3.105   0.268   3.831
 2332SOL    MW4 9360   3.111   0.350   3.861
 2333SOL     OW 9361   3.324   0.497   3.716
 2333SOL    HW2 9362   3.402   0.470   3.764
 2333SOL    HW3 9363   3.251   0.453   3.761
 2333SOL    MW4 9364   3.324   0.488   3.728
 2334SOL     OW 9365   3.308   0.773   3.819
 2334SOL    HW2 9366   3.293   0.766   3.914
 2334SOL    HW3 9367   3.322   0.683   3.790
 2334SOL    MW4 9368   3.308   0.760   3.828
 2335SOL     OW 9369   3.096   0.930   3.742
 2335SOL    HW2 9370   3.170   0.875   3.765
 2335SOL    HW3 9371   3.087   0.920   3.647
 2335SOL    MW4 9372   3.105   0.922   3.732
 2336SOL     OW 9373   3.138   1.165   3.871
 2336SOL    HW2 9374   3.124   1.077   3.838
 2336SOL    HW3 9375   3.056   1.212   3.853
 2336SOL    MW4 9376   3.126   1.160   3.864
 2337SOL     OW 9377   3.359   1.301   3.774
 2337SOL    HW2 9378   3.279   1.258   3.806
 2337SOL    HW3 9379   3.361   1.281   3.681
 2337SOL    MW4 9380   3.348   1.293   3.766
 2338SOL     OW 9381   3.372   1.585   3.827
 2338SOL    HW2 9382   3.295   1.622   3.784
 2338SOL    HW3 9383   3.362   1.490   3.816
 2338SOL    MW4 9384   3.361   1.577   3.820
 2339SOL     OW 9385   3.158   1.693   3.702
 2339SOL    HW2 9386   3.137   1.785   3.717
 2339SOL    HW3 9387   3.172   1.687   3.608
 2339SOL    MW4 9388   3.157   1.704   3.692
 2340SOL     OW 9389   3.126   1.956   3.796
 2340SOL    HW2 9390   3.124   1.930   3.888
 2340SOL    HW3 9391   3.058   2.023   3.788
 2340SOL    MW4 9392   3.117   1.961   3.807
 2341SOL     OW 9393   3.380   2.045   3.748
 2341SOL    HW2 9394   3.289   2.021   3.769
 2341SOL    HW3 9395   3.391   2.018   3.657
 2341SOL    MW4 9396   3.369   2.038   3.739
 2342SOL     OW 9397   3.388   2.310   3.821
 2342SOL    HW2 9398   3.313   2.348   3.776
 2342SOL    HW3 9399   3.384   2.217   3.800
 2342SOL    MW4 9400   3.378   2.303   3.813
 2343SOL     OW 9401   3.152   2.424   3.705
 2343SOL    HW2 9402   3.144   2.514   3.736
 2343SOL    HW3 9403   3.144   2.430   3.610
 2343SOL    MW4 9404   3.150   2.436   3.697
 2344SOL     OW 9405   3.135   2.690   3.786
 2344SOL    HW2 9406   3.104   2.704   3.875
 2344SOL    HW3 9407   3.070   2.734   3.731
 2344SOL    MW4 9408   3.123   2.697   3.790
 2345SOL     OW 9409   3.369   2.828   3.723
 2345SOL    HW2 9410   3.288   2.787   3.753
 2345SOL    HW3 9411   3.363   2.827   3.628
 2345SOL    MW4 9412   3.358   2.822   3.715
 2346SOL     OW 9413   3.368   3.102   3.852
 2346SOL    HW2 9414   3.451   3.146   3.833
 2346SOL    HW3 9415   3.373   3.019   3.805
 2346SOL    MW4 9416   3.380   3.097   3.843
 2347SOL     OW 9417   3.137   3.254   3.775
 2347SOL    HW2 9418   3.208   3.197   3.802
 2347SOL    HW3 9419   3.146   3.261   3.680
 2347SOL    MW4 9420   3.147   3.247   3.766
 2348SOL     OW 9421   3.122   3.490   3.904
 2348SOL    HW2 9422   3.200   3.541   3.881
 2348SOL    HW3 9423   3.136   3.406   3.860
 2348SOL    MW4 9424   3.134   3.486   3.895
 2349SOL     OW 9425   3.341   3.625   3.790
 2349SOL    HW2 9426   3.345   3.716   3.819
 2349SOL    HW3 9427   3.360   3.629   3.696
 2349SOL    MW4 9428   3.344   3.637   3.781
 2350SOL     OW 9429   3.347   3.887   3.886
 2350SOL    HW2 9430   3.427   3.934   3.862
 2350SOL    HW3 9431   3.276   3.939   3.849
 2350SOL    MW4 9432   3.348   3.900   3.878
 2351SOL     OW 9433   3.152   4.048   3.748
 2351SOL    HW2 9434   3.144   4.136   3.783
 2351SOL    HW3 9435   3.082   3.998   3.790
 2351SOL    MW4 9436   3.142   4.053   3.758
 2352SOL     OW 9437   3.137   4.314   3.823
 2352SOL    HW2 9438   3.138   4.325   3.918
 2352SOL    HW3 9439   3.223   4.345   3.794
 2352SOL    MW4 9440   3.148   4.320   3.831
 2353SOL     OW 9441   3.385   4.422   3.755
 2353SOL    HW2 9442   3.455   4.378   3.804
 2353SOL    HW3 9443   3.379   4.509   3.794
 2353SOL    MW4 9444   3.394   4.428   3.767
 2354SOL     OW 9445   3.777   4.642   3.884
 2354SOL    HW2 9446   3.854   4.666   3.833
 2354SOL    HW3 9447   3.760   4.551   3.861
 2354SOL    MW4 9448   3.785   4.633   3.874
 2355SOL     OW 9449   3.559   0.138   3.763
 2355SOL    HW2 9450   3.640   0.106   3.803
 2355SOL    HW3 9451   3.566   0.113   3.671
 2355SOL    MW4 9452   3.571   0.131   3.756
 2356SOL     OW 9453   3.549   0.416   3.833
 2356SOL    HW2 9454   3.627   0.450   3.788
 2356SOL    HW3 9455   3.535   0.330   3.794
 2356SOL    MW4 9456   3.558   0.409   3.822
 2357SOL     OW 9457   3.774   0.483   3.701
 2357SOL    HW2 9458   3.849   0.435   3.739
 2357SOL    HW3 9459   3.782   0.571   3.737
 2357SOL    MW4 9460   3.785   0.488   3.711
 2358SOL     OW 9461   3.761   0.729   3.831
 2358SOL    HW2 9462   3.831   0.788   3.803
 2358SOL    HW3 9463   3.683   0.785   3.835
 2358SOL    MW4 9464   3.760   0.744   3.828
 2359SOL     OW 9465   3.552   0.895   3.743
 2359SOL    HW2 9466   3.539   0.985   3.771
 2359SOL    HW3 9467   3.466   0.853   3.756
 2359SOL    MW4 9468   3.539   0.901   3.748
 2360SOL     OW 9469   3.576   1.140   3.865
 2360SOL    HW2 9470   3.660   1.183   3.848
 2360SOL    HW3 9471   3.511   1.204   3.839
 2360SOL    MW4 9472   3.579   1.154   3.859
 2361SOL     OW 9473   3.820   1.258   3.766
 2361SOL    HW2 9474   3.898   1.211   3.797
 2361SOL    HW3 9475   3.830   1.347   3.800
 2361SOL    MW4 9476   3.832   1.263   3.775
 2362SOL     OW 9477   3.828   1.532   3.843
 2362SOL    HW2 9478   3.831   1.537   3.938
 2362SOL    HW3 9479   3.745   1.572   3.819
 2362SOL    MW4 9480   3.818   1.538   3.852
 2363SOL     OW 9481   3.606   1.670   3.723
 2363SOL    HW2 9482   3.516   1.643   3.740
 2363SOL    HW3 9483   3.616   1.662   3.628
 2363SOL    MW4 9484   3.596   1.666   3.713
 2364SOL     OW 9485   3.598   1.908   3.857
 2364SOL    HW2 9486   3.619   1.829   3.806
 2364SOL    HW3 9487   3.511   1.933   3.827
 2364SOL    MW4 9488   3.589   1.901   3.846
 2365SOL     OW 9489   3.787   2.048   3.724
 2365SOL    HW2 9490   3.859   1.988   3.742
 2365SOL    HW3 9491   3.713   2.012   3.774
 2365SOL    MW4 9492   3.787   2.035   3.733
 2366SOL     OW 9493   3.824   2.308   3.837
 2366SOL    HW2 9494   3.741   2.328   3.795
 2366SOL    HW3 9495   3.851   2.225   3.799
 2366SOL    MW4 9496   3.817   2.300   3.826
 2367SOL     OW 9497   3.607   2.444   3.725
 2367SOL    HW2 9498   3.528   2.401   3.757
 2367SOL    HW3 9499   3.601   2.437   3.629
 2367SOL    MW4 9500   3.596   2.438   3.716
 2368SOL     OW 9501   3.596   2.694   3.841
 2368SOL    HW2 9502   3.586   2.602   3.816
 2368SOL    HW3 9503   3.513   2.735   3.816
 2368SOL    MW4 9504   3.584   2.688   3.834
 2369SOL     OW 9505   3.820   2.826   3.704
 2369SOL    HW2 9506   3.896   2.784   3.743
 2369SOL    HW3 9507   3.746   2.771   3.730
 2369SOL    MW4 9508   3.820   2.813   3.712
 2370SOL     OW 9509   3.840   3.088   3.759
 2370SOL    HW2 9510   3.754   3.130   3.753
 2370SOL    HW3 9511   3.826   2.999   3.728
 2370SOL    MW4 9512   3.827   3.082   3.755
 2371SOL     OW 9513   3.598   3.212   3.770
 2371SOL    HW2 9514   3.612   3.305   3.791
 2371SOL    HW3 9515   3.588   3.210   3.675
 2371SOL    MW4 9516   3.599   3.224   3.760
 2372SOL     OW 9517   3.587   3.507   3.814
 2372SOL    HW2 9518   3.605   3.518   3.907
 2372SOL    HW3 9519   3.508   3.559   3.798
 2372SOL    MW4 9520   3.579   3.515   3.824
 2373SOL     OW 9521   3.817   3.654   3.706
 2373SOL    HW2 9522   3.814   3.730   3.764
 2373SOL    HW3 9523   3.738   3.604   3.727
 2373SOL    MW4 9524   3.806   3.657   3.717
 2374SOL     OW 9525   3.782   3.870   3.881
 2374SOL    HW2 9526   3.797   3.869   3.976
 2374SOL    HW3 9527   3.867   3.893   3.844
 2374SOL    MW4 9528   3.795   3.873   3.889
 2375SOL     OW 9529   3.566   4.013   3.790
 2375SOL    HW2 9530   3.578   4.092   3.843
 2375SOL    HW3 9531   3.633   3.952   3.823
 2375SOL    MW4 9532   3.577   4.015   3.801
 2376SOL     OW 9533   3.573   4.257   3.914
 2376SOL    HW2 9534   3.581   4.274   4.008
 2376SOL    HW3 9535   3.644   4.307   3.874
 2376SOL    MW4 9536   3.583   4.266   3.921
 2377SOL     OW 9537   3.780   4.386   3.787
 2377SOL    HW2 9538   3.858   4.338   3.815
 2377SOL    HW3 9539   3.791   4.396   3.692
 2377SOL    MW4 9540   3.792   4.381   3.778
 2378SOL     OW 9541   4.255   4.623   3.855
 2378SOL    HW2 9542   4.251   4.647   3.947
 2378SOL    HW3 9543   4.334   4.667   3.822
 2378SOL    MW4 9544   4.265   4.632   3.863
 2379SOL     OW 9545   3.997   0.092   3.711
 2379SOL    HW2 9546   4.069   0.047   3.755
 2379SOL    HW3 9547   4.022   0.092   3.619
 2379SOL    MW4 9548   4.010   0.086   3.705
 2380SOL     OW 9549   3.997   0.363   3.808
 2380SOL    HW2 9550   4.010   0.377   3.902
 2380SOL    HW3 9551   3.994   0.267   3.799
 2380SOL    MW4 9552   3.999   0.352   3.819
 2381SOL     OW 9553   4.232   0.519   3.756
 2381SOL    HW2 9554   4.162   0.455   3.765
 2381SOL    HW3 9555   4.250   0.524   3.662
 2381SOL    MW4 9556   4.225   0.511   3.745
 2382SOL     OW 9557   4.205   0.763   3.899
 2382SOL    HW2 9558   4.136   0.823   3.869
 2382SOL    HW3 9559   4.191   0.684   3.847
 2382SOL    MW4 9560   4.194   0.761   3.888
 2383SOL     OW 9561   3.979   0.891   3.773
 2383SOL    HW2 9562   3.982   0.979   3.812
 2383SOL    HW3 9563   4.011   0.903   3.683
 2383SOL    MW4 9564   3.983   0.904   3.766
 2384SOL     OW 9565   4.023   1.143   3.890
 2384SOL    HW2 9566   4.006   1.155   3.983
 2384SOL    HW3 9567   4.095   1.204   3.871
 2384SOL    MW4 9568   4.030   1.152   3.900
 2385SOL     OW 9569   4.265   1.331   3.782
 2385SOL    HW2 9570   4.277   1.421   3.810
 2385SOL    HW3 9571   4.273   1.334   3.686
 2385SOL    MW4 9572   4.267   1.343   3.773
 2386SOL     OW 9573   4.249   1.585   3.899
 2386SOL    HW2 9574   4.175   1.621   3.850
 2386SOL    HW3 9575   4.327   1.623   3.857
 2386SOL    MW4 9576   4.250   1.595   3.887
 2387SOL     OW 9577   4.038   1.692   3.760
 2387SOL    HW2 9578   4.013   1.779   3.790
 2387SOL    HW3 9579   3.966   1.635   3.788
 2387SOL    MW4 9580   4.025   1.696   3.768
 2388SOL     OW 9581   4.019   1.939   3.866
 2388SOL    HW2 9582   4.051   1.931   3.956
 2388SOL    HW3 9583   4.097   1.962   3.815
 2388SOL    MW4 9584   4.034   1.941   3.871
 2389SOL     OW 9585   4.240   2.030   3.739
 2389SOL    HW2 9586   4.264   2.118   3.769
 2389SOL    HW3 9587   4.235   2.039   3.644
 2389SOL    MW4 9588   4.242   2.043   3.730
 2390SOL     OW 9589   4.258   2.307   3.801
 2390SOL    HW2 9590   4.261   2.321   3.896
 2390SOL    HW3 9591   4.183   2.359   3.771
 2390SOL    MW4 9592   4.248   2.316   3.809
 2391SOL     OW 9593   4.030   2.458   3.720
 2391SOL    HW2 9594   4.038   2.539   3.770
 2391SOL    HW3 9595   3.955   2.413   3.757
 2391SOL    MW4 9596   4.021   2.463   3.732
 2392SOL     OW 9597   4.062   2.729   3.786
 2392SOL    HW2 9598   4.063   2.733   3.882
 2392SOL    HW3 9599   4.134   2.787   3.759
 2392SOL    MW4 9600   4.072   2.737   3.795
 2393SOL     OW 9601   4.302   2.850   3.714
 2393SOL    HW2 9602   4.292   2.944   3.730
 2393SOL    HW3 9603   4.379   2.825   3.764
 2393SOL    MW4 9604   4.311   2.859   3.723
 2394SOL     OW 9605   4.267   3.108   3.799
 2394SOL    HW2 9606   4.192   3.161   3.773
 2394SOL    HW3 9607   4.339   3.171   3.808
 2394SOL    MW4 9608   4.267   3.123   3.796
 2395SOL     OW 9609   4.044   3.244   3.694
 2395SOL    HW2 9610   3.974   3.180   3.706
 2395SOL    HW3 9611   4.037   3.271   3.602
 2395SOL    MW4 9612   4.034   3.239   3.683
 2396SOL     OW 9613   4.016   3.491   3.845
 2396SOL    HW2 9614   4.027   3.402   3.810
 2396SOL    HW3 9615   3.946   3.529   3.791
 2396SOL    MW4 9616   4.008   3.484   3.833
 2397SOL     OW 9617   4.265   3.604   3.768
 2397SOL    HW2 9618   4.199   3.547   3.809
 2397SOL    HW3 9619   4.346   3.583   3.815
 2397SOL    MW4 9620   4.267   3.593   3.780
 2398SOL     OW 9621   4.259   3.865   3.837
 2398SOL    HW2 9622   4.180   3.905   3.799
 2398SOL    HW3 9623   4.261   3.776   3.801
 2398SOL    MW4 9624   4.249   3.859   3.827
 2399SOL     OW 9625   3.997   3.974   3.745
 2399SOL    HW2 9626   3.988   4.064   3.776
 2399SOL    HW3 9627   3.994   3.982   3.650
 2399SOL    MW4 9628   3.995   3.987   3.737
 2400SOL     OW 9629   3.997   4.231   3.854
 2400SOL    HW2 9630   4.009   4.232   3.949
 2400SOL    HW3 9631   4.081   4.261   3.819
 2400SOL    MW4 9632   4.010   4.235   3.862
 2401SOL     OW 9633   4.228   4.353   3.779
 2401SOL    HW2 9634   4.213   4.439   3.817
 2401SOL    HW3 9635   4.320   4.333   3.799
 2401SOL    MW4 9636   4.238   4.362   3.786
 2402SOL     OW 9637   0.221   4.656   4.100
 2402SOL    HW2 9638   0.284   4.714   4.143
 2402SOL    HW3 9639   0.223   4.576   4.152
 2402SOL    MW4 9640   0.229   4.653   4.112
 2403SOL     OW 9641   4.473   0.108   4.220
 2403SOL    HW2 9642   4.472   0.099   4.315
 2403SOL    HW3 9643   4.555   0.066   4.193
 2403SOL    MW4 9644   4.484   0.101   4.229
 2404SOL     OW 9645   4.440   0.352   4.128
 2404SOL    HW2 9646   4.452   0.262   4.158
 2404SOL    HW3 9647   4.451   0.347   4.033
 2404SOL    MW4 9648   4.443   0.339   4.119
 2405SOL     OW 9649   0.139   0.532   4.201
 2405SOL    HW2 9650   0.215   0.488   4.162
 2405SOL    HW3 9651   0.067   0.468   4.191
 2405SOL    MW4 9652   0.139   0.518   4.194
 2406SOL     OW 9653   0.174   0.789   4.113
 2406SOL    HW2 9654   0.085   0.816   4.133
 2406SOL    HW3 9655   0.177   0.696   4.136
 2406SOL    MW4 9656   0.163   0.780   4.119
 2407SOL     OW 9657   4.427   0.884   4.267
 2407SOL    HW2 9658   4.350   0.842   4.229
 2407SOL    HW3 9659   4.427   0.972   4.229
 2407SOL    MW4 9660   4.417   0.890   4.257
 2408SOL     OW 9661   4.456   1.141   4.133
 2408SOL    HW2 9662   4.540   1.173   4.166
 2408SOL    HW3 9663   4.469   1.133   4.039
 2408SOL    MW4 9664   4.468   1.144   4.125
 2409SOL     OW 9665   0.216   1.308   4.241
 2409SOL    HW2 9666   0.214   1.266   4.327
 2409SOL    HW3 9667   0.293   1.272   4.198
 2409SOL    MW4 9668   0.226   1.298   4.247
 2410SOL     OW 9669   0.119   1.374   4.742
 2410SOL    HW2 9670   0.075   1.290   4.757
 2410SOL    HW3 9671   0.050   1.440   4.752
 2410SOL    MW4 9672   0.104   1.372   4.746
 2411SOL     OW 9673   0.017   1.667   4.264
 2411SOL    HW2 9674  -0.057   1.619   4.226
 2411SOL    HW3 9675   0.015   1.753   4.223
 2411SOL    MW4 9676   0.007   1.672   4.254
 2412SOL     OW 9677   0.194   1.997   4.195
 2412SOL    HW2 9678   0.182   2.018   4.287
 2412SOL    HW3 9679   0.277   1.950   4.191
 2412SOL    MW4 9680   0.203   1.994   4.206
 2413SOL     OW 9681   0.349   1.367   4.591
 2413SOL    HW2 9682   0.349   1.449   4.542
 2413SOL    HW3 9683   0.290   1.384   4.664
 2413SOL    MW4 9684   0.341   1.380   4.594
 2414SOL     OW 9685   0.209   2.262   4.129
 2414SOL    HW2 9686   0.284   2.285   4.184
 2414SOL    HW3 9687   0.200   2.167   4.138
 2414SOL    MW4 9688   0.217   2.253   4.138
 2415SOL     OW 9689   0.037   2.457   4.202
 2415SOL    HW2 9690  -0.054   2.445   4.173
 2415SOL    HW3 9691   0.086   2.387   4.160
 2415SOL    MW4 9692   0.032   2.446   4.193
 2416SOL     OW 9693   4.483   2.737   4.158
 2416SOL    HW2 9694   4.556   2.773   4.208
 2416SOL    HW3 9695   4.488   2.643   4.172
 2416SOL    MW4 9696   4.493   2.730   4.167
 2417SOL     OW 9697   0.247   2.808   4.266
 2417SOL    HW2 9698   0.307   2.748   4.222
 2417SOL    HW3 9699   0.261   2.892   4.221
 2417SOL    MW4 9700   0.257   2.811   4.254
 2418SOL     OW 9701   0.245   3.077   4.116
 2418SOL    HW2 9702   0.293   3.141   4.169
 2418SOL    HW3 9703   0.153   3.099   4.130
 2418SOL    MW4 9704   0.239   3.088   4.125
 2419SOL     OW 9705   0.011   3.234   4.219
 2419SOL    HW2 9706  -0.068   3.209   4.171
 2419SOL    HW3 9707   0.006   3.329   4.226
 2419SOL    MW4 9708   0.000   3.243   4.214
 2420SOL     OW 9709   4.486   3.519   4.187
 2420SOL    HW2 9710   4.404   3.563   4.210
 2420SOL    HW3 9711   4.493   3.529   4.092
 2420SOL    MW4 9712   4.476   3.526   4.178
 2421SOL     OW 9713   0.186   3.709   4.165
 2421SOL    HW2 9714   0.261   3.651   4.147
 2421SOL    HW3 9715   0.112   3.649   4.176
 2421SOL    MW4 9716   0.187   3.693   4.164
 2422SOL     OW 9717   4.460   4.048   4.247
 2422SOL    HW2 9718   4.398   3.993   4.199
 2422SOL    HW3 9719   4.448   4.023   4.339
 2422SOL    MW4 9720   4.450   4.038   4.253
 2423SOL     OW 9721   0.033   3.779   4.616
 2423SOL    HW2 9722   0.112   3.777   4.562
 2423SOL    HW3 9723   0.014   3.686   4.634
 2423SOL    MW4 9724   0.041   3.766   4.611
 2424SOL     OW 9725   4.479   4.303   4.148
 2424SOL    HW2 9726   4.471   4.219   4.194
 2424SOL    HW3 9727   4.485   4.280   4.056
 2424SOL    MW4 9728   4.479   4.289   4.142
 2425SOL     OW 9729   0.191   4.432   4.262
 2425SOL    HW2 9730   0.170   4.458   4.352
 2425SOL    HW3 9731   0.116   4.380   4.234
 2425SOL    MW4 9732   0.178   4.429   4.270
 2426SOL     OW 9733   0.637   0.011   4.195
 2426SOL    HW2 9734   0.562   0.064   4.220
 2426SOL    HW3 9735   0.630   0.003   4.100
 2426SOL    MW4 9736   0.626   0.017   4.185
 2427SOL     OW 9737   0.397   0.159   4.212
 2427SOL    HW2 9738   0.426   0.185   4.299
 2427SOL    HW3 9739   0.398   0.240   4.161
 2427SOL    MW4 9740   0.401   0.173   4.217
 2428SOL     OW 9741   0.372   0.405   4.085
 2428SOL    HW2 9742   0.443   0.441   4.139
 2428SOL    HW3 9743   0.410   0.397   3.998
 2428SOL    MW4 9744   0.387   0.409   4.081
 2429SOL     OW 9745   0.575   0.506   4.243
 2429SOL    HW2 9746   0.651   0.453   4.219
 2429SOL    HW3 9747   0.603   0.596   4.226
 2429SOL    MW4 9748   0.589   0.511   4.238
 2430SOL     OW 9749   0.653   0.768   4.174
 2430SOL    HW2 9750   0.568   0.791   4.212
 2430SOL    HW3 9751   0.641   0.782   4.080
 2430SOL    MW4 9752   0.640   0.773   4.166
 2431SOL     OW 9753   0.402   0.885   4.223
 2431SOL    HW2 9754   0.413   0.975   4.193
 2431SOL    HW3 9755   0.321   0.856   4.181
 2431SOL    MW4 9756   0.393   0.893   4.213
 2432SOL     OW 9757   0.435   1.160   4.125
 2432SOL    HW2 9758   0.504   1.214   4.163
 2432SOL    HW3 9759   0.456   1.155   4.032
 2432SOL    MW4 9760   0.447   1.166   4.118
 2433SOL     OW 9761   0.643   1.342   4.205
 2433SOL    HW2 9762   0.634   1.345   4.301
 2433SOL    HW3 9763   0.619   1.430   4.176
 2433SOL    MW4 9764   0.639   1.354   4.214
 2434SOL     OW 9765   0.618   1.606   4.131
 2434SOL    HW2 9766   0.704   1.618   4.170
 2434SOL    HW3 9767   0.636   1.587   4.039
 2434SOL    MW4 9768   0.631   1.605   4.124
 2435SOL     OW 9769   0.212   1.550   4.104
 2435SOL    HW2 9770   0.208   1.464   4.147
 2435SOL    HW3 9771   0.165   1.608   4.164
 2435SOL    MW4 9772   0.205   1.546   4.118
 2436SOL     OW 9773   0.427   1.866   4.133
 2436SOL    HW2 9774   0.460   1.776   4.132
 2436SOL    HW3 9775   0.420   1.889   4.040
 2436SOL    MW4 9776   0.430   1.857   4.120
 2437SOL     OW 9777   0.614   2.020   4.244
 2437SOL    HW2 9778   0.625   2.023   4.339
 2437SOL    HW3 9779   0.543   1.956   4.230
 2437SOL    MW4 9780   0.606   2.012   4.255
 2438SOL     OW 9781   0.622   2.296   4.154
 2438SOL    HW2 9782   0.616   2.208   4.190
 2438SOL    HW3 9783   0.633   2.283   4.059
 2438SOL    MW4 9784   0.623   2.283   4.146
 2439SOL     OW 9785   0.411   2.410   4.293
 2439SOL    HW2 9786   0.382   2.485   4.242
 2439SOL    HW3 9787   0.487   2.377   4.245
 2439SOL    MW4 9788   0.417   2.416   4.280
 2440SOL     OW 9789   0.435   2.654   4.152
 2440SOL    HW2 9790   0.510   2.708   4.174
 2440SOL    HW3 9791   0.432   2.653   4.057
 2440SOL    MW4 9792   0.444   2.661   4.142
 2441SOL     OW 9793   0.623   2.853   4.200
 2441SOL    HW2 9794   0.613   2.883   4.290
 2441SOL    HW3 9795   0.604   2.931   4.147
 2441SOL    MW4 9796   0.619   2.867   4.205
 2442SOL     OW 9797   0.619   3.101   4.059
 2442SOL    HW2 9798   0.705   3.121   4.098
 2442SOL    HW3 9799   0.560   3.165   4.098
 2442SOL    MW4 9800   0.623   3.112   4.069
 2443SOL     OW 9801   0.477   3.268   4.208
 2443SOL    HW2 9802   0.485   3.257   4.303
 2443SOL    HW3 9803   0.452   3.360   4.197
 2443SOL    MW4 9804   0.475   3.278   4.219
 2444SOL     OW 9805   0.412   3.531   4.139
 2444SOL    HW2 9806   0.498   3.571   4.157
 2444SOL    HW3 9807   0.411   3.520   4.044
 2444SOL    MW4 9808   0.423   3.535   4.129
 2445SOL     OW 9809   0.891   3.588   4.382
 2445SOL    HW2 9810   0.809   3.560   4.424
 2445SOL    HW3 9811   0.887   3.550   4.294
 2445SOL    MW4 9812   0.879   3.579   4.376
 2446SOL     OW 9813   0.661   3.651   4.182
 2446SOL    HW2 9814   0.692   3.731   4.139
 2446SOL    HW3 9815   0.727   3.585   4.162
 2446SOL    MW4 9816   0.674   3.653   4.174
 2447SOL     OW 9817   0.439   3.993   4.254
 2447SOL    HW2 9818   0.447   4.076   4.301
 2447SOL    HW3 9819   0.352   3.996   4.214
 2447SOL    MW4 9820   0.428   4.004   4.255
 2448SOL     OW 9821   0.415   4.286   4.201
 2448SOL    HW2 9822   0.332   4.327   4.223
 2448SOL    HW3 9823   0.412   4.277   4.106
 2448SOL    MW4 9824   0.404   4.291   4.191
 2449SOL     OW 9825   0.637   4.419   4.280
 2449SOL    HW2 9826   0.546   4.396   4.259
 2449SOL    HW3 9827   0.641   4.514   4.266
 2449SOL    MW4 9828   0.625   4.429   4.276
 2450SOL     OW 9829   1.064   0.004   4.098
 2450SOL    HW2 9830   1.049  -0.082   4.138
 2450SOL    HW3 9831   1.088  -0.016   4.007
 2450SOL    MW4 9832   1.065  -0.010   4.091
 2451SOL     OW 9833   0.890   0.106   4.269
 2451SOL    HW2 9834   0.952   0.068   4.207
 2451SOL    HW3 9835   0.805   0.071   4.242
 2451SOL    MW4 9836   0.887   0.096   4.257
 2452SOL     OW 9837   0.810   0.355   4.153
 2452SOL    HW2 9838   0.890   0.403   4.171
 2452SOL    HW3 9839   0.825   0.268   4.191
 2452SOL    MW4 9840   0.822   0.350   4.160
 2453SOL     OW 9841   1.039   0.510   4.173
 2453SOL    HW2 9842   1.035   0.560   4.254
 2453SOL    HW3 9843   1.128   0.475   4.171
 2453SOL    MW4 9844   1.050   0.512   4.183
 2454SOL     OW 9845   1.072   0.802   4.121
 2454SOL    HW2 9846   1.142   0.845   4.171
 2454SOL    HW3 9847   1.088   0.709   4.133
 2454SOL    MW4 9848   1.083   0.796   4.129
 2455SOL     OW 9849   0.880   0.935   4.234
 2455SOL    HW2 9850   0.946   0.880   4.192
 2455SOL    HW3 9851   0.799   0.883   4.229
 2455SOL    MW4 9852   0.878   0.921   4.228
 2456SOL     OW 9853   0.851   1.181   4.121
 2456SOL    HW2 9854   0.858   1.099   4.171
 2456SOL    HW3 9855   0.771   1.222   4.154
 2456SOL    MW4 9856   0.841   1.175   4.132
 2457SOL     OW 9857   1.143   1.266   4.150
 2457SOL    HW2 9858   1.122   1.271   4.243
 2457SOL    HW3 9859   1.063   1.231   4.109
 2457SOL    MW4 9860   1.130   1.262   4.157
 2458SOL     OW 9861   1.148   1.552   4.122
 2458SOL    HW2 9862   1.059   1.574   4.147
 2458SOL    HW3 9863   1.158   1.460   4.144
 2458SOL    MW4 9864   1.138   1.543   4.128
 2459SOL     OW 9865   0.906   1.681   4.192
 2459SOL    HW2 9866   0.923   1.691   4.286
 2459SOL    HW3 9867   0.867   1.764   4.166
 2459SOL    MW4 9868   0.903   1.693   4.201
 2460SOL     OW 9869   0.853   1.954   4.166
 2460SOL    HW2 9870   0.765   1.980   4.192
 2460SOL    HW3 9871   0.856   1.969   4.071
 2460SOL    MW4 9872   0.842   1.959   4.157
 2461SOL     OW 9873   1.089   2.036   4.291
 2461SOL    HW2 9874   1.085   2.023   4.386
 2461SOL    HW3 9875   1.000   2.019   4.260
 2461SOL    MW4 9876   1.077   2.032   4.299
 2462SOL     OW 9877   1.054   2.315   4.129
 2462SOL    HW2 9878   1.137   2.359   4.149
 2462SOL    HW3 9879   1.057   2.234   4.180
 2462SOL    MW4 9880   1.066   2.310   4.138
 2463SOL     OW 9881   0.840   2.471   4.197
 2463SOL    HW2 9882   0.921   2.424   4.176
 2463SOL    HW3 9883   0.772   2.404   4.196
 2463SOL    MW4 9884   0.842   2.456   4.194
 2464SOL     OW 9885   0.833   2.718   4.086
 2464SOL    HW2 9886   0.826   2.629   4.121
 2464SOL    HW3 9887   0.755   2.763   4.117
 2464SOL    MW4 9888   0.822   2.712   4.095
 2465SOL     OW 9889   1.045   2.841   4.243
 2465SOL    HW2 9890   1.073   2.917   4.192
 2465SOL    HW3 9891   0.983   2.796   4.186
 2465SOL    MW4 9892   1.041   2.845   4.229
 2466SOL     OW 9893   1.103   3.074   4.088
 2466SOL    HW2 9894   1.157   3.146   4.122
 2466SOL    HW3 9895   1.134   3.061   3.999
 2466SOL    MW4 9896   1.114   3.082   4.081
 2467SOL     OW 9897   0.866   3.186   4.176
 2467SOL    HW2 9898   0.864   3.192   4.272
 2467SOL    HW3 9899   0.954   3.154   4.156
 2467SOL    MW4 9900   0.878   3.182   4.186
 2468SOL     OW 9901   0.879   3.469   4.141
 2468SOL    HW2 9902   0.865   3.375   4.147
 2468SOL    HW3 9903   0.892   3.486   4.048
 2468SOL    MW4 9904   0.879   3.459   4.130
 2469SOL     OW 9905   0.894   3.870   4.312
 2469SOL    HW2 9906   0.817   3.901   4.265
 2469SOL    HW3 9907   0.882   3.775   4.317
 2469SOL    MW4 9908   0.882   3.862   4.307
 2470SOL     OW 9909   1.096   3.845   4.138
 2470SOL    HW2 9910   1.145   3.927   4.145
 2470SOL    HW3 9911   1.023   3.855   4.198
 2470SOL    MW4 9912   1.093   3.857   4.147
 2471SOL     OW 9913   0.687   3.941   4.124
 2471SOL    HW2 9914   0.730   4.026   4.111
 2471SOL    HW3 9915   0.597   3.962   4.149
 2471SOL    MW4 9916   0.681   3.955   4.125
 2472SOL     OW 9917   1.083   4.434   4.224
 2472SOL    HW2 9918   1.161   4.400   4.180
 2472SOL    HW3 9919   1.117   4.478   4.302
 2472SOL    MW4 9920   1.098   4.435   4.229
 2473SOL     OW 9921   0.882   4.584   4.670
 2473SOL    HW2 9922   0.909   4.522   4.738
 2473SOL    HW3 9923   0.958   4.592   4.612
 2473SOL    MW4 9924   0.895   4.577   4.671
 2474SOL     OW 9925   1.530   0.010   4.085
 2474SOL    HW2 9926   1.613   0.026   4.131
 2474SOL    HW3 9927   1.469   0.073   4.124
 2474SOL    MW4 9928   1.533   0.021   4.096
 2475SOL     OW 9929   1.292   0.131   4.213
 2475SOL    HW2 9930   1.283   0.134   4.308
 2475SOL    HW3 9931   1.210   0.092   4.183
 2475SOL    MW4 9932   1.280   0.126   4.222
 2476SOL     OW 9933   1.274   0.402   4.126
 2476SOL    HW2 9934   1.357   0.437   4.159
 2476SOL    HW3 9935   1.280   0.308   4.142
 2476SOL    MW4 9936   1.286   0.394   4.133
 2477SOL     OW 9937   1.516   0.502   4.248
 2477SOL    HW2 9938   1.489   0.518   4.338
 2477SOL    HW3 9939   1.532   0.589   4.212
 2477SOL    MW4 9940   1.515   0.515   4.255
 2478SOL     OW 9941   1.549   0.781   4.129
 2478SOL    HW2 9942   1.630   0.810   4.170
 2478SOL    HW3 9943   1.564   0.790   4.035
 2478SOL    MW4 9944   1.561   0.786   4.122
 2479SOL     OW 9945   1.308   0.921   4.231
 2479SOL    HW2 9946   1.339   0.997   4.181
 2479SOL    HW3 9947   1.383   0.861   4.231
 2479SOL    MW4 9948   1.322   0.923   4.225
 2480SOL     OW 9949   1.363   1.136   4.078
 2480SOL    HW2 9950   1.288   1.193   4.093
 2480SOL    HW3 9951   1.372   1.132   3.983
 2480SOL    MW4 9952   1.354   1.143   4.068
 2481SOL     OW 9953   1.564   1.281   4.202
 2481SOL    HW2 9954   1.559   1.264   4.296
 2481SOL    HW3 9955   1.485   1.241   4.166
 2481SOL    MW4 9956   1.553   1.274   4.209
 2482SOL     OW 9957   1.547   1.525   4.103
 2482SOL    HW2 9958   1.488   1.572   4.163
 2482SOL    HW3 9959   1.554   1.437   4.141
 2482SOL    MW4 9960   1.540   1.520   4.116
 2483SOL     OW 9961   1.354   1.652   4.265
 2483SOL    HW2 9962   1.344   1.746   4.248
 2483SOL    HW3 9963   1.282   1.612   4.217
 2483SOL    MW4 9964   1.343   1.659   4.257
 2484SOL     OW 9965   1.296   1.902   4.147
 2484SOL    HW2 9966   1.374   1.953   4.169
 2484SOL    HW3 9967   1.226   1.940   4.199
 2484SOL    MW4 9968   1.297   1.914   4.157
 2485SOL     OW 9969   1.510   2.073   4.188
 2485SOL    HW2 9970   1.598   2.033   4.186
 2485SOL    HW3 9971   1.525   2.164   4.165
 2485SOL    MW4 9972   1.524   2.079   4.185
 2486SOL     OW 9973   1.555   2.342   4.118
 2486SOL    HW2 9974   1.612   2.391   4.177
 2486SOL    HW3 9975   1.579   2.373   4.031
 2486SOL    MW4 9976   1.566   2.353   4.114
 2487SOL     OW 9977   1.502   2.841   4.209
 2487SOL    HW2 9978   1.494   2.808   4.298
 2487SOL    HW3 9979   1.584   2.804   4.177
 2487SOL    MW4 9980   1.512   2.832   4.217
 2488SOL     OW 9981   1.293   2.733   4.058
 2488SOL    HW2 9982   1.380   2.766   4.084
 2488SOL    HW3 9983   1.239   2.747   4.136
 2488SOL    MW4 9984   1.298   2.739   4.072
 2489SOL     OW 9985   1.546   2.227   4.766
 2489SOL    HW2 9986   1.546   2.318   4.797
 2489SOL    HW3 9987   1.611   2.226   4.696
 2489SOL    MW4 9988   1.555   2.239   4.761
 2490SOL     OW 9989   1.495   3.132   4.161
 2490SOL    HW2 9990   1.563   3.158   4.223
 2490SOL    HW3 9991   1.496   3.036   4.163
 2490SOL    MW4 9992   1.504   3.123   4.169
 2491SOL     OW 9993   1.261   3.286   4.178
 2491SOL    HW2 9994   1.352   3.261   4.163
 2491SOL    HW3 9995   1.257   3.378   4.152
 2491SOL    MW4 9996   1.272   3.295   4.173
 2492SOL     OW 9997   1.252   3.555   4.123
 2492SOL    HW2 9998   1.183   3.621   4.124
 2492SOL    HW3 9999   1.278   3.548   4.031
 2492SOL    MW410000   1.246   3.563   4.111
 2493SOL     OW10001   1.479   3.667   4.241
 2493SOL    HW210002   1.474   3.677   4.337
 2493SOL    HW310003   1.393   3.635   4.216
 2493SOL    MW410004   1.467   3.664   4.251
 2494SOL     OW10005   1.525   3.916   4.132
 2494SOL    HW210006   1.451   3.962   4.173
 2494SOL    HW310007   1.523   3.828   4.171
 2494SOL    MW410008   1.515   3.910   4.143
 2495SOL     OW10009   1.270   4.055   4.189
 2495SOL    HW210010   1.257   4.052   4.284
 2495SOL    HW310011   1.285   4.147   4.170
 2495SOL    MW410012   1.270   4.067   4.199
 2496SOL     OW10013   1.322   4.344   4.106
 2496SOL    HW210014   1.406   4.359   4.148
 2496SOL    HW310015   1.344   4.312   4.019
 2496SOL    MW410016   1.336   4.342   4.100
 2497SOL     OW10017   1.566   4.432   4.208
 2497SOL    HW210018   1.561   4.516   4.162
 2497SOL    HW310019   1.632   4.382   4.160
 2497SOL    MW410020   1.574   4.437   4.196
 2498SOL     OW10021   2.004   4.663   4.116
 2498SOL    HW210022   1.916   4.685   4.147
 2498SOL    HW310023   1.996   4.663   4.020
 2498SOL    MW410024   1.991   4.666   4.107
 2499SOL     OW10025   1.768   0.090   4.203
 2499SOL    HW210026   1.787   0.120   4.292
 2499SOL    HW310027   1.753   0.171   4.153
 2499SOL    MW410028   1.768   0.105   4.208
 2500SOL     OW10029   1.696   0.360   4.112
 2500SOL    HW210030   1.779   0.398   4.138
 2500SOL    HW310031   1.631   0.401   4.170
 2500SOL    MW410032   1.698   0.370   4.123
 2501SOL     OW10033   1.932   0.477   4.220
 2501SOL    HW210034   1.950   0.487   4.314
 2501SOL    HW310035   2.009   0.432   4.186
 2501SOL    MW410036   1.945   0.473   4.228
 2502SOL     OW10037   2.021   0.731   4.133
 2502SOL    HW210038   2.102   0.761   4.174
 2502SOL    HW310039   1.989   0.660   4.190
 2502SOL    MW410040   2.027   0.726   4.146
 2503SOL     OW10041   1.799   0.876   4.237
 2503SOL    HW210042   1.806   0.967   4.206
 2503SOL    HW310043   1.866   0.829   4.188
 2503SOL    MW410044   1.809   0.882   4.227
 2504SOL     OW10045   1.794   1.129   4.118
 2504SOL    HW210046   1.866   1.178   4.157
 2504SOL    HW310047   1.715   1.167   4.158
 2504SOL    MW410048   1.793   1.141   4.129
 2505SOL     OW10049   2.020   1.244   4.223
 2505SOL    HW210050   2.096   1.200   4.186
 2505SOL    HW310051   2.042   1.337   4.218
 2505SOL    MW410052   2.033   1.251   4.218
 2506SOL     OW10053   2.018   1.523   4.155
 2506SOL    HW210054   2.094   1.566   4.194
 2506SOL    HW310055   2.030   1.533   4.060
 2506SOL    MW410056   2.029   1.530   4.147
 2507SOL     OW10057   1.758   1.652   4.203
 2507SOL    HW210058   1.840   1.608   4.181
 2507SOL    HW310059   1.691   1.599   4.160
 2507SOL    MW410060   1.760   1.639   4.194
 2508SOL     OW10061   1.740   1.937   4.160
 2508SOL    HW210062   1.733   1.850   4.200
 2508SOL    HW310063   1.830   1.965   4.178
 2508SOL    MW410064   1.751   1.930   4.168
 2509SOL     OW10065   1.651   2.569   4.259
 2509SOL    HW210066   1.620   2.555   4.348
 2509SOL    HW310067   1.745   2.587   4.269
 2509SOL    MW410068   1.659   2.570   4.272
 2510SOL     OW10069   2.399   2.325   4.118
 2510SOL    HW210070   2.413   2.239   4.159
 2510SOL    HW310071   2.425   2.312   4.027
 2510SOL    MW410072   2.404   2.312   4.111
 2511SOL     OW10073   1.618   3.031   4.453
 2511SOL    HW210074   1.588   2.940   4.453
 2511SOL    HW310075   1.689   3.033   4.388
 2511SOL    MW410076   1.624   3.019   4.445
 2512SOL     OW10077   1.749   2.803   4.058
 2512SOL    HW210078   1.804   2.732   4.092
 2512SOL    HW310079   1.782   2.882   4.099
 2512SOL    MW410080   1.760   2.804   4.068
 2513SOL     OW10081   1.842   2.999   4.244
 2513SOL    HW210082   1.915   2.939   4.260
 2513SOL    HW310083   1.871   3.083   4.279
 2513SOL    MW410084   1.855   3.002   4.251
 2514SOL     OW10085   2.157   3.004   4.033
 2514SOL    HW210086   2.089   2.986   3.968
 2514SOL    HW310087   2.125   2.963   4.114
 2514SOL    MW410088   2.144   2.996   4.035
 2515SOL     OW10089   1.661   3.315   4.301
 2515SOL    HW210090   1.679   3.395   4.251
 2515SOL    HW310091   1.748   3.279   4.320
 2515SOL    MW410092   1.675   3.321   4.297
 2516SOL     OW10093   1.711   3.543   4.163
 2516SOL    HW210094   1.630   3.592   4.179
 2516SOL    HW310095   1.722   3.546   4.068
 2516SOL    MW410096   1.701   3.550   4.153
 2517SOL     OW10097   1.950   3.682   4.230
 2517SOL    HW210098   1.955   3.762   4.177
 2517SOL    HW310099   1.869   3.640   4.204
 2517SOL    MW410100   1.940   3.687   4.220
 2518SOL     OW10101   1.997   3.945   4.126
 2518SOL    HW210102   1.921   3.986   4.168
 2518SOL    HW310103   1.970   3.930   4.036
 2518SOL    MW410104   1.984   3.949   4.120
 2519SOL     OW10105   1.761   4.054   4.207
 2519SOL    HW210106   1.763   4.136   4.157
 2519SOL    HW310107   1.688   4.005   4.169
 2519SOL    MW410108   1.752   4.058   4.196
 2520SOL     OW10109   1.776   4.298   4.075
 2520SOL    HW210110   1.859   4.335   4.106
 2520SOL    HW310111   1.784   4.295   3.980
 2520SOL    MW410112   1.788   4.302   4.067
 2521SOL     OW10113   2.010   4.393   4.172
 2521SOL    HW210114   1.995   4.405   4.266
 2521SOL    HW310115   2.003   4.481   4.136
 2521SOL    MW410116   2.007   4.406   4.180
 2522SOL     OW10117   2.454   4.617   4.332
 2522SOL    HW210118   2.515   4.658   4.270
 2522SOL    HW310119   2.448   4.526   4.302
 2522SOL    MW410120   2.462   4.610   4.320
 2523SOL     OW10121   2.216   0.115   4.308
 2523SOL    HW210122   2.276   0.040   4.304
 2523SOL    HW310123   2.131   0.078   4.283
 2523SOL    MW410124   2.213   0.100   4.304
 2524SOL     OW10125   2.186   0.369   4.160
 2524SOL    HW210126   2.200   0.277   4.180
 2524SOL    HW310127   2.186   0.373   4.064
 2524SOL    MW410128   2.188   0.358   4.150
 2525SOL     OW10129   2.439   0.494   4.235
 2525SOL    HW210130   2.509   0.449   4.187
 2525SOL    HW310131   2.358   0.458   4.198
 2525SOL    MW410132   2.438   0.483   4.224
 2526SOL     OW10133   2.480   0.755   4.147
 2526SOL    HW210134   2.448   0.668   4.170
 2526SOL    HW310135   2.459   0.765   4.054
 2526SOL    MW410136   2.473   0.745   4.138
 2527SOL     OW10137   2.237   0.853   4.259
 2527SOL    HW210138   2.223   0.851   4.353
 2527SOL    HW310139   2.317   0.803   4.245
 2527SOL    MW410140   2.246   0.846   4.269
 2528SOL     OW10141   2.239   1.103   4.134
 2528SOL    HW210142   2.326   1.139   4.153
 2528SOL    HW310143   2.239   1.018   4.178
 2528SOL    MW410144   2.251   1.096   4.143
 2529SOL     OW10145   2.460   1.249   4.227
 2529SOL    HW210146   2.439   1.237   4.320
 2529SOL    HW310147   2.538   1.196   4.213
 2529SOL    MW410148   2.468   1.240   4.238
 2530SOL     OW10149   2.507   1.549   4.168
 2530SOL    HW210150   2.515   1.458   4.198
 2530SOL    HW310151   2.485   1.542   4.076
 2530SOL    MW410152   2.505   1.536   4.160
 2531SOL     OW10153   2.280   1.652   4.267
 2531SOL    HW210154   2.359   1.617   4.226
 2531SOL    HW310155   2.267   1.737   4.225
 2531SOL    MW410156   2.289   1.659   4.256
 2532SOL     OW10157   2.230   1.912   4.174
 2532SOL    HW210158   2.286   1.973   4.221
 2532SOL    HW310159   2.142   1.928   4.209
 2532SOL    MW410160   2.225   1.922   4.185
 2533SOL     OW10161   2.441   2.090   4.240
 2533SOL    HW210162   2.517   2.052   4.196
 2533SOL    HW310163   2.467   2.098   4.331
 2533SOL    MW410164   2.455   2.086   4.246
 2534SOL     OW10165   2.628   2.711   4.117
 2534SOL    HW210166   2.570   2.773   4.161
 2534SOL    HW310167   2.716   2.741   4.140
 2534SOL    MW410168   2.632   2.723   4.125
 2535SOL     OW10169   2.298   2.546   4.386
 2535SOL    HW210170   2.274   2.638   4.377
 2535SOL    HW310171   2.341   2.524   4.304
 2535SOL    MW410172   2.300   2.555   4.374
 2536SOL     OW10173   1.919   2.625   4.196
 2536SOL    HW210174   1.975   2.695   4.229
 2536SOL    HW310175   1.979   2.558   4.165
 2536SOL    MW410176   1.934   2.625   4.197
 2537SOL     OW10177   2.418   2.875   4.199
 2537SOL    HW210178   2.366   2.819   4.140
 2537SOL    HW310179   2.378   2.862   4.285
 2537SOL    MW410180   2.406   2.866   4.202
 2538SOL     OW10181   1.942   3.221   4.382
 2538SOL    HW210182   1.977   3.243   4.296
 2538SOL    HW310183   2.001   3.153   4.415
 2538SOL    MW410184   1.954   3.215   4.375
 2539SOL     OW10185   2.063   3.258   4.102
 2539SOL    HW210186   2.016   3.257   4.018
 2539SOL    HW310187   2.124   3.185   4.096
 2539SOL    MW410188   2.065   3.248   4.090
 2540SOL     OW10189   2.190   3.504   4.181
 2540SOL    HW210190   2.144   3.422   4.164
 2540SOL    HW310191   2.122   3.563   4.215
 2540SOL    MW410192   2.175   3.501   4.183
 2541SOL     OW10193   2.441   3.602   4.240
 2541SOL    HW210194   2.355   3.564   4.226
 2541SOL    HW310195   2.432   3.693   4.212
 2541SOL    MW410196   2.429   3.609   4.234
 2542SOL     OW10197   2.431   3.860   4.145
 2542SOL    HW210198   2.520   3.879   4.175
 2542SOL    HW310199   2.435   3.871   4.050
 2542SOL    MW410200   2.444   3.864   4.136
 2543SOL     OW10201   2.232   4.036   4.241
 2543SOL    HW210202   2.294   3.964   4.233
 2543SOL    HW310203   2.151   4.003   4.201
 2543SOL    MW410204   2.229   4.022   4.235
 2544SOL     OW10205   2.263   4.283   4.105
 2544SOL    HW210206   2.257   4.191   4.129
 2544SOL    HW310207   2.179   4.320   4.131
 2544SOL    MW410208   2.251   4.276   4.111
 2545SOL     OW10209   2.456   4.476   4.048
 2545SOL    HW210210   2.384   4.415   4.060
 2545SOL    HW310211   2.535   4.425   4.069
 2545SOL    MW410212   2.457   4.461   4.052
 2546SOL     OW10213   2.875   4.658   4.133
 2546SOL    HW210214   2.949   4.702   4.175
 2546SOL    HW310215   2.887   4.565   4.155
 2546SOL    MW410216   2.887   4.651   4.141
 2547SOL     OW10217   2.645   0.110   4.212
 2547SOL    HW210218   2.629   0.188   4.159
 2547SOL    HW310219   2.715   0.063   4.165
 2547SOL    MW410220   2.652   0.114   4.199
 2548SOL     OW10221   2.629   0.349   4.098
 2548SOL    HW210222   2.641   0.364   4.004
 2548SOL    HW310223   2.714   0.368   4.137
 2548SOL    MW410224   2.642   0.354   4.091
 2549SOL     OW10225   3.255   0.717   4.080
 2549SOL    HW210226   3.324   0.750   4.137
 2549SOL    HW310227   3.178   0.769   4.103
 2549SOL    MW410228   3.254   0.728   4.090
 2550SOL     OW10229   3.027   0.867   4.101
 2550SOL    HW210230   3.026   0.959   4.126
 2550SOL    HW310231   2.965   0.861   4.028
 2550SOL    MW410232   3.019   0.878   4.095
 2551SOL     OW10233   2.690   0.885   4.247
 2551SOL    HW210234   2.759   0.821   4.264
 2551SOL    HW310235   2.617   0.834   4.212
 2551SOL    MW410236   2.689   0.870   4.245
 2552SOL     OW10237   2.700   1.147   4.136
 2552SOL    HW210238   2.718   1.057   4.162
 2552SOL    HW310239   2.704   1.146   4.040
 2552SOL    MW410240   2.703   1.135   4.127
 2553SOL     OW10241   2.894   1.330   4.143
 2553SOL    HW210242   2.968   1.270   4.145
 2553SOL    HW310243   2.817   1.273   4.144
 2553SOL    MW410244   2.893   1.315   4.143
 2554SOL     OW10245   2.906   1.586   4.068
 2554SOL    HW210246   2.977   1.623   4.122
 2554SOL    HW310247   2.894   1.498   4.103
 2554SOL    MW410248   2.914   1.579   4.080
 2555SOL     OW10249   2.718   1.709   4.255
 2555SOL    HW210250   2.774   1.658   4.196
 2555SOL    HW310251   2.631   1.670   4.245
 2555SOL    MW410252   2.714   1.697   4.246
 2556SOL     OW10253   2.661   1.971   4.121
 2556SOL    HW210254   2.681   1.883   4.154
 2556SOL    HW310255   2.668   1.963   4.026
 2556SOL    MW410256   2.665   1.958   4.113
 2557SOL     OW10257   2.888   2.076   4.238
 2557SOL    HW210258   2.863   2.169   4.235
 2557SOL    HW310259   2.816   2.030   4.195
 2557SOL    MW410260   2.875   2.082   4.232
 2558SOL     OW10261   2.827   2.351   4.212
 2558SOL    HW210262   2.914   2.378   4.241
 2558SOL    HW310263   2.768   2.416   4.249
 2558SOL    MW410264   2.831   2.363   4.221
 2559SOL     OW10265   2.735   3.260   4.468
 2559SOL    HW210266   2.723   3.346   4.509
 2559SOL    HW310267   2.669   3.204   4.509
 2559SOL    MW410268   2.725   3.264   4.479
 2560SOL     OW10269   2.414   3.150   4.133
 2560SOL    HW210270   2.408   3.057   4.154
 2560SOL    HW310271   2.381   3.195   4.211
 2560SOL    MW410272   2.409   3.144   4.146
 2561SOL     OW10273   2.932   3.080   4.154
 2561SOL    HW210274   2.853   3.132   4.169
 2561SOL    HW310275   2.937   3.070   4.059
 2561SOL    MW410276   2.923   3.085   4.143
 2562SOL     OW10277   2.968   3.122   4.546
 2562SOL    HW210278   2.946   3.033   4.517
 2562SOL    HW310279   2.899   3.177   4.509
 2562SOL    MW410280   2.956   3.117   4.537
 2563SOL     OW10281   2.686   3.229   4.186
 2563SOL    HW210282   2.692   3.229   4.282
 2563SOL    HW310283   2.603   3.185   4.168
 2563SOL    MW410284   2.676   3.223   4.196
 2564SOL     OW10285   2.710   3.491   4.155
 2564SOL    HW210286   2.708   3.397   4.173
 2564SOL    HW310287   2.636   3.526   4.204
 2564SOL    MW410288   2.700   3.483   4.164
 2565SOL     OW10289   2.968   3.633   4.266
 2565SOL    HW210290   2.976   3.631   4.362
 2565SOL    HW310291   2.882   3.596   4.248
 2565SOL    MW410292   2.958   3.628   4.277
 2566SOL     OW10293   2.919   3.885   4.131
 2566SOL    HW210294   2.990   3.945   4.153
 2566SOL    HW310295   2.952   3.799   4.154
 2566SOL    MW410296   2.933   3.882   4.137
 2567SOL     OW10297   2.658   4.033   4.206
 2567SOL    HW210298   2.636   4.125   4.193
 2567SOL    HW310299   2.743   4.023   4.165
 2567SOL    MW410300   2.666   4.044   4.199
 2568SOL     OW10301   2.673   4.297   4.072
 2568SOL    HW210302   2.762   4.317   4.100
 2568SOL    HW310303   2.681   4.281   3.978
 2568SOL    MW410304   2.686   4.297   4.063
 2569SOL     OW10305   2.903   4.390   4.164
 2569SOL    HW210306   2.891   4.395   4.259
 2569SOL    HW310307   2.993   4.359   4.154
 2569SOL    MW410308   2.913   4.386   4.175
 2570SOL     OW10309   3.345   4.653   4.159
 2570SOL    HW210310   3.416   4.707   4.193
 2570SOL    HW310311   3.356   4.569   4.202
 2570SOL    MW410312   3.356   4.649   4.169
 2571SOL     OW10313   3.105   0.104   4.243
 2571SOL    HW210314   3.087   0.097   4.336
 2571SOL    HW310315   3.180   0.046   4.229
 2571SOL    MW410316   3.113   0.095   4.253
 2572SOL     OW10317   3.093   0.344   4.116
 2572SOL    HW210318   3.175   0.384   4.146
 2572SOL    HW310319   3.094   0.256   4.154
 2572SOL    MW410320   3.104   0.337   4.125
 2573SOL     OW10321   3.320   0.473   4.193
 2573SOL    HW210322   3.405   0.451   4.155
 2573SOL    HW310323   3.293   0.552   4.145
 2573SOL    MW410324   3.328   0.481   4.181
 2574SOL     OW10325   3.443   0.820   4.265
 2574SOL    HW210326   3.484   0.885   4.207
 2574SOL    HW310327   3.420   0.870   4.343
 2574SOL    MW410328   3.446   0.835   4.268
 2575SOL     OW10329   3.137   1.103   4.586
 2575SOL    HW210330   3.133   1.164   4.659
 2575SOL    HW310331   3.046   1.096   4.556
 2575SOL    MW410332   3.124   1.110   4.592
 2576SOL     OW10333   3.112   1.145   4.148
 2576SOL    HW210334   3.186   1.131   4.207
 2576SOL    HW310335   3.150   1.147   4.060
 2576SOL    MW410336   3.127   1.144   4.144
 2577SOL     OW10337   3.608   1.133   4.353
 2577SOL    HW210338   3.631   1.109   4.442
 2577SOL    HW310339   3.516   1.161   4.359
 2577SOL    MW410340   3.599   1.134   4.365
 2578SOL     OW10341   3.299   1.454   4.359
 2578SOL    HW210342   3.301   1.485   4.268
 2578SOL    HW310343   3.357   1.514   4.405
 2578SOL    MW410344   3.307   1.466   4.353
 2579SOL     OW10345   3.111   1.709   4.202
 2579SOL    HW210346   3.127   1.715   4.296
 2579SOL    HW310347   3.115   1.800   4.171
 2579SOL    MW410348   3.113   1.722   4.210
 2580SOL     OW10349   3.082   1.966   4.080
 2580SOL    HW210350   3.160   2.016   4.104
 2580SOL    HW310351   3.012   2.005   4.131
 2580SOL    MW410352   3.083   1.977   4.090
 2581SOL     OW10353   3.345   2.078   4.168
 2581SOL    HW210354   3.431   2.042   4.150
 2581SOL    HW310355   3.351   2.171   4.143
 2581SOL    MW410356   3.357   2.086   4.162
 2582SOL     OW10357   3.382   2.343   4.100
 2582SOL    HW210358   3.454   2.392   4.139
 2582SOL    HW310359   3.408   2.330   4.009
 2582SOL    MW410360   3.395   2.348   4.093
 2583SOL     OW10361   3.118   2.461   4.118
 2583SOL    HW210362   3.125   2.557   4.119
 2583SOL    HW310363   3.201   2.432   4.079
 2583SOL    MW410364   3.130   2.470   4.113
 2584SOL     OW10365   3.112   2.734   4.067
 2584SOL    HW210366   3.169   2.810   4.074
 2584SOL    HW310367   3.037   2.754   4.123
 2584SOL    MW410368   3.109   2.747   4.075
 2585SOL     OW10369   3.413   2.801   4.294
 2585SOL    HW210370   3.393   2.872   4.233
 2585SOL    HW310371   3.490   2.759   4.257
 2585SOL    MW410372   3.420   2.805   4.281
 2586SOL     OW10373   3.327   2.986   4.113
 2586SOL    HW210374   3.287   3.059   4.160
 2586SOL    HW310375   3.351   3.023   4.028
 2586SOL    MW410376   3.325   3.000   4.108
 2587SOL     OW10377   3.179   3.174   4.270
 2587SOL    HW210378   3.174   3.266   4.246
 2587SOL    HW310379   3.098   3.136   4.236
 2587SOL    MW410380   3.168   3.181   4.263
 2588SOL     OW10381   3.148   3.441   4.179
 2588SOL    HW210382   3.080   3.494   4.220
 2588SOL    HW310383   3.129   3.446   4.085
 2588SOL    MW410384   3.137   3.448   4.172
 2589SOL     OW10385   3.366   3.606   4.200
 2589SOL    HW210386   3.376   3.596   4.294
 2589SOL    HW310387   3.308   3.535   4.174
 2589SOL    MW410388   3.360   3.596   4.209
 2590SOL     OW10389   3.357   3.897   4.160
 2590SOL    HW210390   3.358   3.809   4.198
 2590SOL    HW310391   3.338   3.882   4.067
 2590SOL    MW410392   3.354   3.883   4.153
 2591SOL     OW10393   3.126   4.064   4.209
 2591SOL    HW210394   3.113   4.075   4.303
 2591SOL    HW310395   3.205   4.010   4.202
 2591SOL    MW410396   3.134   4.058   4.221
 2592SOL     OW10397   3.163   4.317   4.097
 2592SOL    HW210398   3.237   4.364   4.136
 2592SOL    HW310399   3.163   4.231   4.140
 2592SOL    MW410400   3.173   4.312   4.108
 2593SOL     OW10401   3.350   4.413   4.272
 2593SOL    HW210402   3.340   4.434   4.365
 2593SOL    HW310403   3.439   4.381   4.264
 2593SOL    MW410404   3.360   4.412   4.283
 2594SOL     OW10405   3.765   0.039   4.182
 2594SOL    HW210406   3.850   0.083   4.183
 2594SOL    HW310407   3.751   0.018   4.090
 2594SOL    MW410408   3.775   0.042   4.170
 2595SOL     OW10409   3.528   0.156   4.294
 2595SOL    HW210410   3.535   0.244   4.259
 2595SOL    HW310411   3.614   0.116   4.277
 2595SOL    MW410412   3.540   0.162   4.287
 2596SOL     OW10413   3.571   0.369   4.119
 2596SOL    HW210414   3.649   0.414   4.151
 2596SOL    HW310415   3.572   0.381   4.024
 2596SOL    MW410416   3.581   0.376   4.111
 2597SOL     OW10417   3.798   0.543   4.185
 2597SOL    HW210418   3.819   0.547   4.279
 2597SOL    HW310419   3.785   0.635   4.160
 2597SOL    MW410420   3.799   0.556   4.194
 2598SOL     OW10421   3.778   0.801   4.100
 2598SOL    HW210422   3.717   0.874   4.109
 2598SOL    HW310423   3.764   0.769   4.011
 2598SOL    MW410424   3.768   0.807   4.090
 2599SOL     OW10425   3.470   0.791   4.662
 2599SOL    HW210426   3.512   0.727   4.605
 2599SOL    HW310427   3.414   0.842   4.604
 2599SOL    MW410428   3.468   0.789   4.647
 2600SOL     OW10429   3.591   1.001   4.112
 2600SOL    HW210430   3.590   1.054   4.191
 2600SOL    HW310431   3.576   1.064   4.041
 2600SOL    MW410432   3.589   1.017   4.113
 2601SOL     OW10433   3.827   1.325   4.320
 2601SOL    HW210434   3.761   1.262   4.350
 2601SOL    HW310435   3.845   1.379   4.396
 2601SOL    MW410436   3.821   1.324   4.334
 2602SOL     OW10437   3.833   1.525   4.129
 2602SOL    HW210438   3.822   1.439   4.171
 2602SOL    HW310439   3.910   1.563   4.172
 2602SOL    MW410440   3.842   1.519   4.140
 2603SOL     OW10441   3.601   1.965   4.116
 2603SOL    HW210442   3.595   1.940   4.024
 2603SOL    HW310443   3.610   1.882   4.163
 2603SOL    MW410444   3.601   1.951   4.110
 2604SOL     OW10445   3.348   1.589   4.110
 2604SOL    HW210446   3.339   1.591   4.014
 2604SOL    HW310447   3.267   1.628   4.142
 2604SOL    MW410448   3.336   1.595   4.101
 2605SOL     OW10449   3.848   2.103   4.211
 2605SOL    HW210450   3.813   2.102   4.300
 2605SOL    HW310451   3.785   2.053   4.159
 2605SOL    MW410452   3.835   2.096   4.215
 2606SOL     OW10453   3.876   2.356   4.109
 2606SOL    HW210454   3.897   2.275   4.154
 2606SOL    HW310455   3.862   2.330   4.018
 2606SOL    MW410456   3.877   2.342   4.103
 2607SOL     OW10457   3.630   2.430   4.209
 2607SOL    HW210458   3.655   2.410   4.299
 2607SOL    HW310459   3.698   2.389   4.156
 2607SOL    MW410460   3.643   2.422   4.214
 2608SOL     OW10461   3.649   2.703   4.184
 2608SOL    HW210462   3.645   2.610   4.207
 2608SOL    HW310463   3.637   2.705   4.090
 2608SOL    MW410464   3.647   2.691   4.175
 2609SOL     OW10465   3.857   2.874   4.192
 2609SOL    HW210466   3.861   2.899   4.284
 2609SOL    HW310467   3.788   2.808   4.188
 2609SOL    MW410468   3.848   2.869   4.203
 2610SOL     OW10469   3.830   3.132   4.075
 2610SOL    HW210470   3.843   3.048   4.118
 2610SOL    HW310471   3.822   3.111   3.982
 2610SOL    MW410472   3.831   3.118   4.068
 2611SOL     OW10473   3.644   3.210   4.253
 2611SOL    HW210474   3.711   3.177   4.192
 2611SOL    HW310475   3.612   3.132   4.297
 2611SOL    MW410476   3.649   3.196   4.251
 2612SOL     OW10477   3.606   3.484   4.117
 2612SOL    HW210478   3.600   3.393   4.146
 2612SOL    HW310479   3.522   3.522   4.140
 2612SOL    MW410480   3.594   3.477   4.124
 2613SOL     OW10481   3.817   3.634   4.223
 2613SOL    HW210482   3.882   3.594   4.165
 2613SOL    HW310483   3.734   3.597   4.195
 2613SOL    MW410484   3.815   3.624   4.212
 2614SOL     OW10485   3.799   3.899   4.167
 2614SOL    HW210486   3.732   3.944   4.218
 2614SOL    HW310487   3.793   3.807   4.193
 2614SOL    MW410488   3.789   3.893   4.177
 2615SOL     OW10489   3.577   4.036   4.274
 2615SOL    HW210490   3.589   3.982   4.351
 2615SOL    HW310491   3.505   3.995   4.226
 2615SOL    MW410492   3.569   4.024   4.278
 2616SOL     OW10493   3.599   4.300   4.179
 2616SOL    HW210494   3.679   4.345   4.207
 2616SOL    HW310495   3.604   4.213   4.220
 2616SOL    MW410496   3.610   4.295   4.188
 2617SOL     OW10497   3.825   4.439   4.277
 2617SOL    HW210498   3.874   4.382   4.217
 2617SOL    HW310499   3.855   4.527   4.256
 2617SOL    MW410500   3.836   4.443   4.266
 2618SOL     OW10501   4.232   4.653   4.119
 2618SOL    HW210502   4.212   4.571   4.164
 2618SOL    HW310503   4.312   4.685   4.162
 2618SOL    MW410504   4.240   4.647   4.131
 2619SOL     OW10505   4.021   0.153   4.205
 2619SOL    HW210506   4.009   0.236   4.159
 2619SOL    HW310507   4.091   0.108   4.157
 2619SOL    MW410508   4.029   0.158   4.193
 2620SOL     OW10509   3.987   0.393   4.080
 2620SOL    HW210510   4.061   0.431   4.127
 2620SOL    HW310511   3.915   0.453   4.097
 2620SOL    MW410512   3.987   0.406   4.089
 2621SOL     OW10513   4.219   0.477   4.220
 2621SOL    HW210514   4.230   0.568   4.191
 2621SOL    HW310515   4.290   0.430   4.178
 2621SOL    MW410516   4.230   0.483   4.210
 2622SOL     OW10517   4.214   0.753   4.175
 2622SOL    HW210518   4.138   0.799   4.209
 2622SOL    HW310519   4.210   0.765   4.080
 2622SOL    MW410520   4.204   0.761   4.167
 2623SOL     OW10521   3.987   0.902   4.280
 2623SOL    HW210522   4.000   0.993   4.254
 2623SOL    HW310523   3.910   0.873   4.231
 2623SOL    MW410524   3.978   0.910   4.270
 2624SOL     OW10525   3.999   1.151   4.167
 2624SOL    HW210526   4.077   1.194   4.202
 2624SOL    HW310527   3.926   1.202   4.203
 2624SOL    MW410528   3.999   1.164   4.177
 2625SOL     OW10529   4.235   1.274   4.237
 2625SOL    HW210530   4.233   1.282   4.333
 2625SOL    HW310531   4.310   1.218   4.218
 2625SOL    MW410532   4.244   1.268   4.247
 2626SOL     OW10533   4.283   1.530   4.153
 2626SOL    HW210534   4.280   1.435   4.161
 2626SOL    HW310535   4.268   1.547   4.060
 2626SOL    MW410536   4.281   1.520   4.142
 2627SOL     OW10537   4.051   1.670   4.678
 2627SOL    HW210538   4.002   1.613   4.618
 2627SOL    HW310539   4.126   1.617   4.705
 2627SOL    MW410540   4.054   1.655   4.674
 2628SOL     OW10541   4.089   1.934   4.150
 2628SOL    HW210542   4.082   1.847   4.190
 2628SOL    HW310543   4.011   1.981   4.180
 2628SOL    MW410544   4.078   1.928   4.159
 2629SOL     OW10545   4.430   1.912   4.136
 2629SOL    HW210546   4.519   1.941   4.158
 2629SOL    HW310547   4.373   1.970   4.186
 2629SOL    MW410548   4.435   1.923   4.146
 2630SOL     OW10549   4.303   2.368   4.073
 2630SOL    HW210550   4.235   2.423   4.112
 2630SOL    HW310551   4.297   2.286   4.121
 2630SOL    MW410552   4.293   2.365   4.084
 2631SOL     OW10553   4.095   2.494   4.178
 2631SOL    HW210554   4.075   2.507   4.270
 2631SOL    HW310555   4.020   2.446   4.143
 2631SOL    MW410556   4.083   2.489   4.185
 2632SOL     OW10557   4.059   2.744   4.075
 2632SOL    HW210558   4.060   2.658   4.115
 2632SOL    HW310559   3.983   2.788   4.113
 2632SOL    MW410560   4.049   2.739   4.085
 2633SOL     OW10561   4.259   2.884   4.213
 2633SOL    HW210562   4.191   2.840   4.162
 2633SOL    HW310563   4.338   2.831   4.199
 2633SOL    MW410564   4.260   2.871   4.204
 2634SOL     OW10565   4.296   3.119   4.083
 2634SOL    HW210566   4.280   3.045   4.140
 2634SOL    HW310567   4.265   3.091   3.997
 2634SOL    MW410568   4.290   3.106   4.079
 2635SOL     OW10569   4.048   3.253   4.195
 2635SOL    HW210570   4.123   3.207   4.156
 2635SOL    HW310571   3.972   3.216   4.151
 2635SOL    MW410572   4.048   3.242   4.184
 2636SOL     OW10573   4.055   3.522   4.124
 2636SOL    HW210574   4.048   3.437   4.167
 2636SOL    HW310575   4.044   3.503   4.030
 2636SOL    MW410576   4.053   3.508   4.117
 2637SOL     OW10577   4.248   3.683   4.250
 2637SOL    HW210578   4.261   3.767   4.205
 2637SOL    HW310579   4.164   3.651   4.216
 2637SOL    MW410580   4.239   3.690   4.240
 2638SOL     OW10581   4.269   3.914   4.108
 2638SOL    HW210582   4.188   3.963   4.127
 2638SOL    HW310583   4.270   3.907   4.013
 2638SOL    MW410584   4.258   3.920   4.098
 2639SOL     OW10585   4.040   4.038   4.238
 2639SOL    HW210586   4.067   4.005   4.324
 2639SOL    HW310587   3.971   3.978   4.210
 2639SOL    MW410588   4.035   4.026   4.245
 2640SOL     OW10589   4.006   4.291   4.119
 2640SOL    HW210590   4.087   4.329   4.153
 2640SOL    HW310591   4.000   4.206   4.163
 2640SOL    MW410592   4.016   4.285   4.129
 2641SOL     OW10593   4.459   4.241   4.703
 2641SOL    HW210594   4.456   4.162   4.649
 2641SOL    HW310595   4.414   4.218   4.784
 2641SOL    MW410596   4.453   4.228   4.706
 2642SOL     OW10597   4.041   4.327   4.614
 2642SOL    HW210598   4.015   4.239   4.641
 2642SOL    HW310599   3.959   4.375   4.605
 2642SOL    MW410600   4.027   4.322   4.616
 2643SOL     OW10601   4.237   4.656   4.570
 2643SOL    HW210602   4.217   4.676   4.661
 2643SOL    HW310603   4.239   4.560   4.566
 2643SOL    MW410604   4.235   4.646   4.581
 2644SOL     OW10605   3.726   0.036   4.641
 2644SOL    HW210606   3.733   0.038   4.736
 2644SOL    HW310607   3.771   0.116   4.612
 2644SOL    MW410608   3.733   0.047   4.649
 2645SOL     OW10609   3.877   1.527   4.537
 2645SOL    HW210610   3.809   1.591   4.514
 2645SOL    HW310611   3.831   1.462   4.589
 2645SOL    MW410612   3.862   1.527   4.541
 2646SOL     OW10613   0.518   0.184   4.461
 2646SOL    HW210614   0.499   0.093   4.484
 2646SOL    HW310615   0.609   0.197   4.486
 2646SOL    MW410616   0.527   0.174   4.467
 2647SOL     OW10617   0.157   0.724   4.627
 2647SOL    HW210618   0.121   0.680   4.704
 2647SOL    HW310619   0.152   0.659   4.557
 2647SOL    MW410620   0.151   0.710   4.628
 2648SOL     OW10621   4.210   0.678   4.648
 2648SOL    HW210622   4.216   0.611   4.580
 2648SOL    HW310623   4.286   0.734   4.633
 2648SOL    MW410624   4.221   0.676   4.637
 2649SOL     OW10625   0.624   1.369   4.491
 2649SOL    HW210626   0.645   1.462   4.498
 2649SOL    HW310627   0.533   1.362   4.521
 2649SOL    MW410628   0.615   1.380   4.496
 2650SOL     OW10629   1.085   1.984   4.568
 2650SOL    HW210630   1.158   1.943   4.614
 2650SOL    HW310631   1.095   2.078   4.586
 2650SOL    MW410632   1.096   1.991   4.577
 2651SOL     OW10633   4.066   1.191   4.652
 2651SOL    HW210634   4.004   1.128   4.614
 2651SOL    HW310635   4.017   1.232   4.724
 2651SOL    MW410636   4.051   1.188   4.656
 2652SOL     OW10637   4.449   1.713   4.529
 2652SOL    HW210638   4.481   1.686   4.443
 2652SOL    HW310639   4.529   1.734   4.578
 2652SOL    MW410640   4.464   1.712   4.524
 2653SOL     OW10641   0.365   1.598   4.367
 2653SOL    HW210642   0.325   1.591   4.280
 2653SOL    HW310643   0.459   1.596   4.351
 2653SOL    MW410644   0.372   1.597   4.353
 2654SOL     OW10645   4.192   1.842   4.534
 2654SOL    HW210646   4.154   1.778   4.593
 2654SOL    HW310647   4.283   1.815   4.525
 2654SOL    MW410648   4.199   1.830   4.541
 2655SOL     OW10649   4.199   2.254   4.480
 2655SOL    HW210650   4.152   2.190   4.534
 2655SOL    HW310651   4.159   2.338   4.503
 2655SOL    MW410652   4.187   2.256   4.490
 2656SOL     OW10653   0.653   3.104   4.693
 2656SOL    HW210654   0.704   3.027   4.719
 2656SOL    HW310655   0.718   3.173   4.682
 2656SOL    MW410656   0.668   3.103   4.695
 2657SOL     OW10657   0.588   2.931   4.477
 2657SOL    HW210658   0.494   2.915   4.487
 2657SOL    HW310659   0.610   2.990   4.549
 2657SOL    MW410660   0.578   2.937   4.488
 2658SOL     OW10661   0.146   2.456   4.650
 2658SOL    HW210662   0.097   2.400   4.589
 2658SOL    HW310663   0.137   2.413   4.735
 2658SOL    MW410664   0.138   2.443   4.653
 2659SOL     OW10665   3.585   3.624   4.580
 2659SOL    HW210666   3.664   3.571   4.576
 2659SOL    HW310667   3.519   3.574   4.532
 2659SOL    MW410668   3.587   3.611   4.574
 2660SOL     OW10669   0.456   3.292   4.500
 2660SOL    HW210670   0.367   3.319   4.523
 2660SOL    HW310671   0.485   3.237   4.573
 2660SOL    MW410672   0.448   3.289   4.513
 2661SOL     OW10673   4.132   3.965   4.487
 2661SOL    HW210674   4.154   3.875   4.510
 2661SOL    HW310675   4.085   3.999   4.563
 2661SOL    MW410676   4.129   3.958   4.500
 2662SOL     OW10677   0.019   0.101   4.493
 2662SOL    HW210678  -0.064   0.061   4.519
 2662SOL    HW310679   0.027   0.178   4.549
 2662SOL    MW410680   0.009   0.106   4.504
 2663SOL     OW10681   3.326   0.462   4.476
 2663SOL    HW210682   3.301   0.453   4.384
 2663SOL    HW310683   3.280   0.390   4.520
 2663SOL    MW410684   3.317   0.451   4.470
 2664SOL     OW10685   3.992   4.043   4.707
 2664SOL    HW210686   4.038   4.012   4.784
 2664SOL    HW310687   3.899   4.034   4.729
 2664SOL    MW410688   3.986   4.038   4.720
 2665SOL     OW10689   3.705   4.030   4.715
 2665SOL    HW210690   3.661   4.014   4.799
 2665SOL    HW310691   3.657   3.975   4.652
 2665SOL    MW410692   3.693   4.021   4.718
 2666SOL     OW10693   0.440   4.587   4.515
 2666SOL    HW210694   0.482   4.510   4.553
 2666SOL    HW310695   0.347   4.571   4.525
 2666SOL    MW410696   0.433   4.575   4.521
 2667SOL     OW10697   3.924   0.738   4.672
 2667SOL    HW210698   4.014   0.715   4.692
 2667SOL    HW310699   3.873   0.701   4.744
 2667SOL    MW410700   3.929   0.730   4.684
 2668SOL     OW10701   1.063   0.636   4.435
 2668SOL    HW210702   1.029   0.724   4.446
 2668SOL    HW310703   0.999   0.579   4.477
 2668SOL    MW410704   1.050   0.640   4.442
 2669SOL     OW10705   0.910   0.433   4.563
 2669SOL    HW210706   0.867   0.349   4.548
 2669SOL    HW310707   0.839   0.496   4.568
 2669SOL    MW410708   0.895   0.430   4.562
 2670SOL     OW10709   0.929   0.881   4.493
 2670SOL    HW210710   0.915   0.901   4.400
 2670SOL    HW310711   0.841   0.869   4.528
 2670SOL    MW410712   0.916   0.882   4.485
 2671SOL     OW10713   0.361   0.919   4.491
 2671SOL    HW210714   0.361   0.913   4.396
 2671SOL    HW310715   0.302   0.849   4.520
 2671SOL    MW410716   0.353   0.909   4.483
 2672SOL     OW10717   2.127   1.162   4.488
 2672SOL    HW210718   2.087   1.196   4.409
 2672SOL    HW310719   2.215   1.200   4.489
 2672SOL    MW410720   2.133   1.171   4.478
 2673SOL     OW10721   0.228   1.781   4.562
 2673SOL    HW210722   0.226   1.866   4.518
 2673SOL    HW310723   0.258   1.720   4.495
 2673SOL    MW410724   0.231   1.784   4.547
 2674SOL     OW10725   1.315   1.047   4.467
 2674SOL    HW210726   1.222   1.060   4.486
 2674SOL    HW310727   1.316   1.009   4.379
 2674SOL    MW410728   1.303   1.044   4.458
 2675SOL     OW10729   0.670   1.639   4.449
 2675SOL    HW210730   0.638   1.687   4.524
 2675SOL    HW310731   0.761   1.668   4.438
 2675SOL    MW410732   0.678   1.649   4.457
 2676SOL     OW10733   0.670   2.060   4.510
 2676SOL    HW210734   0.728   2.136   4.508
 2676SOL    HW310735   0.719   1.993   4.558
 2676SOL    MW410736   0.684   2.061   4.516
 2677SOL     OW10737   0.985   1.729   4.470
 2677SOL    HW210738   1.059   1.670   4.484
 2677SOL    HW310739   1.018   1.816   4.493
 2677SOL    MW410740   0.999   1.733   4.475
 2678SOL     OW10741   0.405   2.204   4.495
 2678SOL    HW210742   0.488   2.156   4.496
 2678SOL    HW310743   0.424   2.282   4.443
 2678SOL    MW410744   0.419   2.208   4.488
 2679SOL     OW10745   1.150   2.526   4.567
 2679SOL    HW210746   1.172   2.597   4.627
 2679SOL    HW310747   1.062   2.546   4.536
 2679SOL    MW410748   1.141   2.538   4.571
 2680SOL     OW10749   0.879   2.534   4.462
 2680SOL    HW210750   0.818   2.600   4.496
 2680SOL    HW310751   0.865   2.535   4.367
 2680SOL    MW410752   0.869   2.543   4.454
 2681SOL     OW10753   0.944   3.161   4.458
 2681SOL    HW210754   1.021   3.219   4.458
 2681SOL    HW310755   0.882   3.204   4.517
 2681SOL    MW410756   0.946   3.175   4.466
 2682SOL     OW10757   1.041   3.738   4.720
 2682SOL    HW210758   1.039   3.737   4.816
 2682SOL    HW310759   1.018   3.648   4.695
 2682SOL    MW410760   1.038   3.726   4.730
 2683SOL     OW10761   1.123   4.570   4.490
 2683SOL    HW210762   1.176   4.649   4.477
 2683SOL    HW310763   1.188   4.500   4.502
 2683SOL    MW410764   1.139   4.571   4.490
 2684SOL     OW10765   0.407   2.551   4.535
 2684SOL    HW210766   0.421   2.518   4.446
 2684SOL    HW310767   0.327   2.507   4.565
 2684SOL    MW410768   0.398   2.541   4.527
 2685SOL     OW10769   0.017   3.161   4.486
 2685SOL    HW210770   0.085   3.222   4.516
 2685SOL    HW310771  -0.008   3.194   4.399
 2685SOL    MW410772   0.023   3.173   4.479
 2686SOL     OW10773   1.482   3.660   4.507
 2686SOL    HW210774   1.500   3.571   4.537
 2686SOL    HW310775   1.565   3.706   4.516
 2686SOL    MW410776   1.495   3.654   4.512
 2687SOL     OW10777   4.418   4.013   4.538
 2687SOL    HW210778   4.325   3.993   4.526
 2687SOL    HW310779   4.455   3.932   4.572
 2687SOL    MW410780   4.410   4.000   4.541
 2688SOL     OW10781   0.210   3.981   4.104
 2688SOL    HW210782   0.197   3.899   4.152
 2688SOL    HW310783   0.137   4.036   4.131
 2688SOL    MW410784   0.198   3.977   4.114
 2689SOL     OW10785   0.173   4.533   4.531
 2689SOL    HW210786   0.139   4.470   4.594
 2689SOL    HW310787   0.117   4.610   4.541
 2689SOL    MW410788   0.162   4.535   4.541
 2690SOL     OW10789   0.458   0.459   4.506
 2690SOL    HW210790   0.490   0.475   4.417
 2690SOL    HW310791   0.472   0.365   4.519
 2690SOL    MW410792   0.464   0.449   4.496
 2691SOL     OW10793   0.890   3.930   4.587
 2691SOL    HW210794   0.935   3.857   4.628
 2691SOL    HW310795   0.899   3.915   4.493
 2691SOL    MW410796   0.897   3.919   4.580
 2692SOL     OW10797   4.458   0.563   4.794
 2692SOL    HW210798   4.369   0.579   4.764
 2692SOL    HW310799   4.483   0.480   4.755
 2692SOL    MW410800   4.450   0.554   4.785
 2693SOL     OW10801   1.051   1.109   4.581
 2693SOL    HW210802   1.084   1.067   4.661
 2693SOL    HW310803   1.011   1.038   4.531
 2693SOL    MW410804   1.050   1.094   4.585
 2694SOL     OW10805   1.719   1.010   4.544
 2694SOL    HW210806   1.765   1.089   4.573
 2694SOL    HW310807   1.786   0.943   4.538
 2694SOL    MW410808   1.734   1.012   4.547
 2695SOL     OW10809   0.215   1.159   4.480
 2695SOL    HW210810   0.260   1.076   4.497
 2695SOL    HW310811   0.258   1.222   4.537
 2695SOL    MW410812   0.227   1.157   4.490
 2696SOL     OW10813   1.331   1.912   4.695
 2696SOL    HW210814   1.359   1.959   4.617
 2696SOL    HW310815   1.389   1.835   4.699
 2696SOL    MW410816   1.342   1.908   4.685
 2697SOL     OW10817   0.773   1.161   4.614
 2697SOL    HW210818   0.740   1.242   4.575
 2697SOL    HW310819   0.867   1.174   4.620
 2697SOL    MW410820   0.781   1.173   4.610
 2698SOL     OW10821   1.894   1.206   4.657
 2698SOL    HW210822   1.918   1.161   4.737
 2698SOL    HW310823   1.961   1.180   4.594
 2698SOL    MW410824   1.906   1.196   4.659
 2699SOL     OW10825   1.057   1.337   4.405
 2699SOL    HW210826   1.073   1.278   4.479
 2699SOL    HW310827   1.079   1.424   4.439
 2699SOL    MW410828   1.062   1.340   4.419
 2700SOL     OW10829   1.113   2.263   4.656
 2700SOL    HW210830   1.180   2.225   4.713
 2700SOL    HW310831   1.141   2.353   4.643
 2700SOL    MW410832   1.126   2.270   4.662
 2701SOL     OW10833   1.511   2.517   4.766
 2701SOL    HW210834   1.576   2.584   4.786
 2701SOL    HW310835   1.427   2.561   4.780
 2701SOL    MW410836   1.508   2.532   4.770
 2702SOL     OW10837   1.391   3.179   4.592
 2702SOL    HW210838   1.449   3.253   4.609
 2702SOL    HW310839   1.440   3.123   4.532
 2702SOL    MW410840   1.405   3.181   4.586
 2703SOL     OW10841   1.578   3.384   4.567
 2703SOL    HW210842   1.640   3.326   4.611
 2703SOL    HW310843   1.595   3.370   4.474
 2703SOL    MW410844   1.588   3.375   4.560
 2704SOL     OW10845   0.817   2.876   4.714
 2704SOL    HW210846   0.898   2.867   4.664
 2704SOL    HW310847   0.769   2.795   4.698
 2704SOL    MW410848   0.822   2.864   4.706
 2705SOL     OW10849   0.879   4.219   4.557
 2705SOL    HW210850   0.788   4.242   4.542
 2705SOL    HW310851   0.875   4.137   4.607
 2705SOL    MW410852   0.867   4.211   4.562
 2706SOL     OW10853   1.262   2.904   4.637
 2706SOL    HW210854   1.182   2.922   4.587
 2706SOL    HW310855   1.296   2.991   4.659
 2706SOL    MW410856   1.256   2.918   4.633
 2707SOL     OW10857   1.015   2.900   4.525
 2707SOL    HW210858   0.972   2.984   4.505
 2707SOL    HW310859   1.031   2.860   4.439
 2707SOL    MW410860   1.011   2.906   4.511
 2708SOL     OW10861   1.965   3.695   4.527
 2708SOL    HW210862   1.961   3.702   4.432
 2708SOL    HW310863   1.948   3.603   4.546
 2708SOL    MW410864   1.962   3.684   4.517
 2709SOL     OW10865   0.562   3.817   4.482
 2709SOL    HW210866   0.565   3.872   4.404
 2709SOL    HW310867   0.608   3.867   4.549
 2709SOL    MW410868   0.568   3.831   4.480
 2710SOL     OW10869   0.170   3.417   4.518
 2710SOL    HW210870   0.209   3.500   4.492
 2710SOL    HW310871   0.079   3.439   4.537
 2710SOL    MW410872   0.163   3.431   4.517
 2711SOL     OW10873   0.635   4.380   4.573
 2711SOL    HW210874   0.628   4.390   4.478
 2711SOL    HW310875   0.704   4.442   4.599
 2711SOL    MW410876   0.643   4.389   4.564
 2712SOL     OW10877   0.767   4.228   4.121
 2712SOL    HW210878   0.835   4.205   4.185
 2712SOL    HW310879   0.729   4.309   4.156
 2712SOL    MW410880   0.771   4.236   4.134
 2713SOL     OW10881   2.159   3.870   4.611
 2713SOL    HW210882   2.111   3.800   4.567
 2713SOL    HW310883   2.095   3.910   4.670
 2713SOL    MW410884   2.144   3.866   4.613
 2714SOL     OW10885   1.510   4.483   4.479
 2714SOL    HW210886   1.522   4.467   4.386
 2714SOL    HW310887   1.435   4.427   4.503
 2714SOL    MW410888   1.502   4.473   4.470
 2715SOL     OW10889   1.285   4.344   4.558
 2715SOL    HW210890   1.267   4.253   4.532
 2715SOL    HW310891   1.260   4.347   4.651
 2715SOL    MW410892   1.279   4.332   4.567
 2716SOL     OW10893   0.697   0.619   4.591
 2716SOL    HW210894   0.670   0.709   4.570
 2716SOL    HW310895   0.615   0.572   4.605
 2716SOL    MW410896   0.683   0.625   4.590
 2717SOL     OW10897   1.633   0.069   4.565
 2717SOL    HW210898   1.600  -0.017   4.542
 2717SOL    HW310899   1.726   0.067   4.543
 2717SOL    MW410900   1.641   0.058   4.559
 2718SOL     OW10901   1.205   0.399   4.532
 2718SOL    HW210902   1.176   0.466   4.470
 2718SOL    HW310903   1.130   0.385   4.589
 2718SOL    MW410904   1.191   0.406   4.531
 2719SOL     OW10905   1.693   1.701   4.506
 2719SOL    HW210906   1.716   1.618   4.548
 2719SOL    HW310907   1.696   1.683   4.412
 2719SOL    MW410908   1.696   1.688   4.499
 2720SOL     OW10909   0.652   0.921   4.540
 2720SOL    HW210910   0.559   0.939   4.524
 2720SOL    HW310911   0.685   1.001   4.580
 2720SOL    MW410912   0.644   0.934   4.543
 2721SOL     OW10913   1.698   0.403   4.527
 2721SOL    HW210914   1.684   0.315   4.563
 2721SOL    HW310915   1.612   0.444   4.529
 2721SOL    MW410916   1.685   0.397   4.532
 2722SOL     OW10917   1.536   1.232   4.488
 2722SOL    HW210918   1.444   1.208   4.478
 2722SOL    HW310919   1.580   1.151   4.512
 2722SOL    MW410920   1.530   1.219   4.490
 2723SOL     OW10921   1.205   1.564   4.508
 2723SOL    HW210922   1.266   1.579   4.580
 2723SOL    HW310923   1.247   1.605   4.432
 2723SOL    MW410924   1.219   1.571   4.507
 2724SOL     OW10925   1.283   2.664   4.801
 2724SOL    HW210926   1.266   2.750   4.763
 2724SOL    HW310927   1.214   2.653   4.867
 2724SOL    MW410928   1.271   2.674   4.805
 2725SOL     OW10929   2.210   2.700   4.098
 2725SOL    HW210930   2.179   2.610   4.102
 2725SOL    HW310931   2.161   2.745   4.168
 2725SOL    MW410932   2.200   2.694   4.108
 2726SOL     OW10933   0.849   2.259   4.488
 2726SOL    HW210934   0.926   2.244   4.543
 2726SOL    HW310935   0.836   2.354   4.489
 2726SOL    MW410936   0.857   2.269   4.496
 2727SOL     OW10937   1.205   4.104   4.456
 2727SOL    HW210938   1.113   4.114   4.432
 2727SOL    HW310939   1.205   4.033   4.520
 2727SOL    MW410940   1.193   4.096   4.461
 2728SOL     OW10941   1.293   2.456   4.137
 2728SOL    HW210942   1.299   2.551   4.132
 2728SOL    HW310943   1.383   2.425   4.126
 2728SOL    MW410944   1.306   2.464   4.135
 2729SOL     OW10945   1.300   2.332   4.380
 2729SOL    HW210946   1.235   2.384   4.427
 2729SOL    HW310947   1.286   2.356   4.288
 2729SOL    MW410948   1.289   2.342   4.374
 2730SOL     OW10949   1.190   3.318   4.458
 2730SOL    HW210950   1.266   3.274   4.497
 2730SOL    HW310951   1.216   3.336   4.368
 2730SOL    MW410952   1.203   3.314   4.451
 2731SOL     OW10953   0.783   3.331   4.624
 2731SOL    HW210954   0.710   3.381   4.588
 2731SOL    HW310955   0.852   3.396   4.639
 2731SOL    MW410956   0.783   3.346   4.622
 2732SOL     OW10957   0.641   3.537   4.482
 2732SOL    HW210958   0.559   3.487   4.478
 2732SOL    HW310959   0.614   3.627   4.466
 2732SOL    MW410960   0.626   3.542   4.479
 2733SOL     OW10961   2.256   3.403   4.607
 2733SOL    HW210962   2.269   3.351   4.528
 2733SOL    HW310963   2.163   3.426   4.606
 2733SOL    MW410964   2.246   3.400   4.597
 2734SOL     OW10965   1.960   3.424   4.546
 2734SOL    HW210966   1.963   3.353   4.482
 2734SOL    HW310967   1.914   3.387   4.621
 2734SOL    MW410968   1.955   3.410   4.548
 2735SOL     OW10969   2.292   3.224   4.407
 2735SOL    HW210970   2.233   3.149   4.413
 2735SOL    HW310971   2.373   3.195   4.449
 2735SOL    MW410972   2.295   3.210   4.413
 2736SOL     OW10973   1.013   3.495   4.609
 2736SOL    HW210974   0.981   3.529   4.525
 2736SOL    HW310975   1.088   3.441   4.585
 2736SOL    MW410976   1.018   3.493   4.594
 2737SOL     OW10977   1.830   4.075   4.492
 2737SOL    HW210978   1.813   4.055   4.400
 2737SOL    HW310979   1.925   4.081   4.499
 2737SOL    MW410980   1.840   4.073   4.481
 2738SOL     OW10981   1.943   0.540   4.488
 2738SOL    HW210982   1.851   0.513   4.489
 2738SOL    HW310983   1.989   0.471   4.537
 2738SOL    MW410984   1.937   0.527   4.494
 2739SOL     OW10985   0.784   0.189   4.534
 2739SOL    HW210986   0.829   0.174   4.451
 2739SOL    HW310987   0.794   0.107   4.582
 2739SOL    MW410988   0.791   0.177   4.529
 2740SOL     OW10989   1.300   0.149   4.485
 2740SOL    HW210990   1.392   0.153   4.512
 2740SOL    HW310991   1.270   0.240   4.489
 2740SOL    MW410992   1.308   0.161   4.489
 2741SOL     OW10993   2.224   4.364   4.525
 2741SOL    HW210994   2.191   4.274   4.526
 2741SOL    HW310995   2.294   4.365   4.590
 2741SOL    MW410996   2.229   4.352   4.534
 2742SOL     OW10997   1.933   0.845   4.482
 2742SOL    HW210998   1.944   0.752   4.500
 2742SOL    HW310999   1.880   0.848   4.403
 2742SOL    MW411000   1.928   0.833   4.474
 2743SOL     OW11001   1.460   0.550   4.507
 2743SOL    HW211002   1.379   0.510   4.537
 2743SOL    HW311003   1.465   0.633   4.554
 2743SOL    MW411004   1.450   0.556   4.517
 2744SOL     OW11005   2.320   1.830   4.518
 2744SOL    HW211006   2.260   1.903   4.534
 2744SOL    HW311007   2.272   1.771   4.459
 2744SOL    MW411008   2.306   1.832   4.512
 2745SOL     OW11009   0.510   1.800   4.616
 2745SOL    HW211010   0.514   1.852   4.696
 2745SOL    HW311011   0.416   1.792   4.597
 2745SOL    MW411012   0.498   1.806   4.624
 2746SOL     OW11013   1.460   1.659   4.670
 2746SOL    HW211014   1.507   1.613   4.739
 2746SOL    HW311015   1.526   1.676   4.602
 2746SOL    MW411016   1.475   1.655   4.670
 2747SOL     OW11017   1.499   2.506   4.492
 2747SOL    HW211018   1.511   2.504   4.587
 2747SOL    HW311019   1.439   2.433   4.474
 2747SOL    MW411020   1.493   2.496   4.502
 2748SOL     OW11021   1.395   2.073   4.456
 2748SOL    HW211022   1.413   2.071   4.362
 2748SOL    HW311023   1.345   2.154   4.469
 2748SOL    MW411024   1.390   2.083   4.445
 2749SOL     OW11025   2.106   2.452   4.113
 2749SOL    HW211026   2.059   2.401   4.046
 2749SOL    HW311027   2.165   2.388   4.154
 2749SOL    MW411028   2.107   2.437   4.109
 2750SOL     OW11029   1.291   2.142   4.824
 2750SOL    HW211030   1.300   2.052   4.792
 2750SOL    HW311031   1.376   2.182   4.809
 2750SOL    MW411032   1.303   2.135   4.818
 2751SOL     OW11033   2.906   3.173   4.851
 2751SOL    HW211034   2.985   3.225   4.835
 2751SOL    HW311035   2.901   3.114   4.775
 2751SOL    MW411036   2.916   3.172   4.839
 2752SOL     OW11037   1.732   3.169   4.668
 2752SOL    HW211038   1.679   3.112   4.612
 2752SOL    HW311039   1.801   3.112   4.701
 2752SOL    MW411040   1.734   3.154   4.665
 2753SOL     OW11041   1.716   3.809   4.547
 2753SOL    HW211042   1.734   3.903   4.540
 2753SOL    HW311043   1.803   3.768   4.549
 2753SOL    MW411044   1.730   3.816   4.546
 2754SOL     OW11045   2.411   3.191   4.779
 2754SOL    HW211046   2.371   3.265   4.731
 2754SOL    HW311047   2.342   3.125   4.781
 2754SOL    MW411048   2.396   3.192   4.773
 2755SOL     OW11049   2.379   2.421   4.626
 2755SOL    HW211050   2.343   2.450   4.542
 2755SOL    HW311051   2.312   2.364   4.662
 2755SOL    MW411052   2.366   2.417   4.620
 2756SOL     OW11053   2.859   3.934   4.567
 2756SOL    HW211054   2.847   3.941   4.662
 2756SOL    HW311055   2.771   3.944   4.531
 2756SOL    MW411056   2.846   3.937   4.575
 2757SOL     OW11057   2.616   4.014   4.475
 2757SOL    HW211058   2.624   4.005   4.380
 2757SOL    HW311059   2.537   3.964   4.497
 2757SOL    MW411060   2.606   4.006   4.465
 2758SOL     OW11061   2.475   3.575   4.509
 2758SOL    HW211062   2.400   3.527   4.546
 2758SOL    HW311063   2.455   3.584   4.416
 2758SOL    MW411064   2.462   3.570   4.502
 2759SOL     OW11065   2.401   3.841   4.481
 2759SOL    HW211066   2.437   3.756   4.507
 2759SOL    HW311067   2.329   3.856   4.542
 2759SOL    MW411068   2.396   3.831   4.492
 2760SOL     OW11069   1.769   4.370   4.474
 2760SOL    HW211070   1.773   4.275   4.483
 2760SOL    HW311071   1.677   4.392   4.491
 2760SOL    MW411072   1.757   4.360   4.477
 2761SOL     OW11073   1.251   3.827   4.560
 2761SOL    HW211074   1.318   3.758   4.567
 2761SOL    HW311075   1.177   3.793   4.611
 2761SOL    MW411076   1.250   3.813   4.568
 2762SOL     OW11077   2.039   0.272   4.605
 2762SOL    HW211078   2.045   0.298   4.697
 2762SOL    HW311079   2.125   0.235   4.584
 2762SOL    MW411080   2.051   0.271   4.614
 2763SOL     OW11081   1.893   0.095   4.462
 2763SOL    HW211082   1.940   0.014   4.441
 2763SOL    HW311083   1.957   0.147   4.511
 2763SOL    MW411084   1.908   0.091   4.466
 2764SOL     OW11085   1.706   1.427   4.633
 2764SOL    HW211086   1.633   1.374   4.603
 2764SOL    HW311087   1.777   1.364   4.649
 2764SOL    MW411088   1.706   1.412   4.631
 2765SOL     OW11089   2.780   0.671   4.653
 2765SOL    HW211090   2.687   0.694   4.658
 2765SOL    HW311091   2.781   0.581   4.621
 2765SOL    MW411092   2.768   0.662   4.649
 2766SOL     OW11093   2.899   0.695   4.284
 2766SOL    HW211094   2.937   0.733   4.363
 2766SOL    HW311095   2.959   0.719   4.214
 2766SOL    MW411096   2.912   0.703   4.285
 2767SOL     OW11097   3.334   1.183   4.339
 2767SOL    HW211098   3.272   1.155   4.407
 2767SOL    HW311099   3.335   1.278   4.345
 2767SOL    MW411100   3.326   1.192   4.349
 2768SOL     OW11101   2.192   0.922   4.587
 2768SOL    HW211102   2.170   1.012   4.564
 2768SOL    HW311103   2.115   0.871   4.563
 2768SOL    MW411104   2.179   0.927   4.581
 2769SOL     OW11105   2.606   1.413   4.476
 2769SOL    HW211106   2.604   1.499   4.519
 2769SOL    HW311107   2.698   1.399   4.454
 2769SOL    MW411108   2.618   1.423   4.478
 2770SOL     OW11109   2.607   1.785   4.511
 2770SOL    HW211110   2.635   1.756   4.424
 2770SOL    HW311111   2.513   1.802   4.501
 2770SOL    MW411112   2.598   1.784   4.498
 2771SOL     OW11113   2.222   2.110   4.523
 2771SOL    HW211114   2.316   2.127   4.527
 2771SOL    HW311115   2.191   2.165   4.451
 2771SOL    MW411116   2.231   2.119   4.514
 2772SOL     OW11117   2.520   2.082   4.499
 2772SOL    HW211118   2.601   2.123   4.528
 2772SOL    HW311119   2.537   1.988   4.507
 2772SOL    MW411120   2.533   2.075   4.504
 2773SOL     OW11121   2.144   2.271   4.770
 2773SOL    HW211122   2.191   2.233   4.844
 2773SOL    HW311123   2.154   2.206   4.699
 2773SOL    MW411124   2.152   2.257   4.770
 2774SOL     OW11125   2.481   2.856   4.568
 2774SOL    HW211126   2.407   2.830   4.513
 2774SOL    HW311127   2.441   2.873   4.654
 2774SOL    MW411128   2.466   2.855   4.572
 2775SOL     OW11129   1.469   2.788   4.484
 2775SOL    HW211130   1.396   2.817   4.538
 2775SOL    HW311131   1.469   2.692   4.492
 2775SOL    MW411132   1.459   2.779   4.492
 2776SOL     OW11133   2.244   2.973   4.723
 2776SOL    HW211134   2.236   2.878   4.712
 2776SOL    HW311135   2.214   3.009   4.640
 2776SOL    MW411136   2.239   2.965   4.711
 2777SOL     OW11137   2.725   3.513   4.593
 2777SOL    HW211138   2.733   3.497   4.687
 2777SOL    HW311139   2.631   3.528   4.580
 2777SOL    MW411140   2.713   3.513   4.604
 2778SOL     OW11141   2.512   3.114   4.548
 2778SOL    HW211142   2.505   3.020   4.532
 2778SOL    HW311143   2.466   3.129   4.630
 2778SOL    MW411144   2.505   3.104   4.556
 2779SOL     OW11145   0.967   4.185   4.296
 2779SOL    HW211146   0.999   4.273   4.277
 2779SOL    HW311147   0.930   4.192   4.384
 2779SOL    MW411148   0.966   4.198   4.305
 2780SOL     OW11149   3.115   4.048   4.487
 2780SOL    HW211150   3.033   4.006   4.512
 2780SOL    HW311151   3.183   3.987   4.515
 2780SOL    MW411152   3.114   4.034   4.494
 2781SOL     OW11153   1.984   3.073   4.706
 2781SOL    HW211154   2.002   3.044   4.616
 2781SOL    HW311155   2.056   3.038   4.757
 2781SOL    MW411156   1.996   3.065   4.701
 2782SOL     OW11157   3.330   3.962   4.629
 2782SOL    HW211158   3.329   4.044   4.677
 2782SOL    HW311159   3.326   3.894   4.697
 2782SOL    MW411160   3.330   3.964   4.644
 2783SOL     OW11161   2.982   0.028   4.500
 2783SOL    HW211162   2.893   0.059   4.519
 2783SOL    HW311163   2.973  -0.067   4.492
 2783SOL    MW411164   2.969   0.020   4.502
 2784SOL     OW11165   2.118   4.116   4.483
 2784SOL    HW211166   2.155   4.046   4.537
 2784SOL    HW311167   2.156   4.102   4.396
 2784SOL    MW411168   2.128   4.105   4.479
 2785SOL     OW11169   2.416   4.334   4.332
 2785SOL    HW211170   2.347   4.349   4.397
 2785SOL    HW311171   2.368   4.319   4.250
 2785SOL    MW411172   2.400   4.334   4.330
 2786SOL     OW11173   2.852   0.433   4.244
 2786SOL    HW211174   2.879   0.525   4.251
 2786SOL    HW311175   2.920   0.393   4.189
 2786SOL    MW411176   2.865   0.440   4.238
 2787SOL     OW11177   2.886   4.433   4.447
 2787SOL    HW211178   2.945   4.373   4.493
 2787SOL    HW311179   2.799   4.395   4.457
 2787SOL    MW411180   2.883   4.420   4.454
 2788SOL     OW11181   2.651   4.291   4.502
 2788SOL    HW211182   2.567   4.313   4.460
 2788SOL    HW311183   2.648   4.196   4.513
 2788SOL    MW411184   2.639   4.282   4.498
 2789SOL     OW11185   2.868   1.061   4.495
 2789SOL    HW211186   2.913   0.977   4.498
 2789SOL    HW311187   2.775   1.039   4.502
 2789SOL    MW411188   2.862   1.047   4.496
 2790SOL     OW11189   2.711   0.101   4.535
 2790SOL    HW211190   2.641   0.058   4.583
 2790SOL    HW311191   2.684   0.096   4.444
 2790SOL    MW411192   2.698   0.095   4.530
 2791SOL     OW11193   1.478   0.834   4.536
 2791SOL    HW211194   1.407   0.898   4.524
 2791SOL    HW311195   1.558   0.886   4.526
 2791SOL    MW411196   1.479   0.850   4.533
 2792SOL     OW11197   2.597   0.981   4.501
 2792SOL    HW211198   2.561   0.910   4.554
 2792SOL    HW311199   2.604   0.943   4.413
 2792SOL    MW411200   2.593   0.966   4.496
 2793SOL     OW11201   3.086   1.486   4.537
 2793SOL    HW211202   3.009   1.437   4.507
 2793SOL    HW311203   3.155   1.462   4.476
 2793SOL    MW411204   3.085   1.476   4.525
 2794SOL     OW11205   3.129   1.752   4.460
 2794SOL    HW211206   3.050   1.806   4.461
 2794SOL    HW311207   3.102   1.669   4.499
 2794SOL    MW411208   3.115   1.748   4.465
 2795SOL     OW11209   2.872   1.895   4.490
 2795SOL    HW211210   2.850   1.925   4.402
 2795SOL    HW311211   2.797   1.841   4.516
 2795SOL    MW411212   2.859   1.892   4.482
 2796SOL     OW11213   2.580   2.482   4.271
 2796SOL    HW211214   2.591   2.564   4.223
 2796SOL    HW311215   2.532   2.425   4.211
 2796SOL    MW411216   2.575   2.485   4.256
 2797SOL     OW11217   2.654   2.460   4.541
 2797SOL    HW211218   2.627   2.484   4.452
 2797SOL    HW311219   2.572   2.438   4.585
 2797SOL    MW411220   2.639   2.460   4.535
 2798SOL     OW11221   3.009   2.268   4.428
 2798SOL    HW211222   3.007   2.187   4.377
 2798SOL    HW311223   2.927   2.268   4.476
 2798SOL    MW411224   2.998   2.257   4.427
 2799SOL     OW11225   2.258   2.690   4.669
 2799SOL    HW211226   2.298   2.603   4.665
 2799SOL    HW311227   2.238   2.712   4.578
 2799SOL    MW411228   2.260   2.681   4.657
 2800SOL     OW11229   3.546   3.950   4.913
 2800SOL    HW211230   3.492   4.022   4.883
 2800SOL    HW311231   3.510   3.873   4.870
 2800SOL    MW411232   3.534   3.949   4.904
 2801SOL     OW11233   2.877   2.801   4.193
 2801SOL    HW211234   2.895   2.886   4.152
 2801SOL    HW311235   2.887   2.818   4.287
 2801SOL    MW411236   2.881   2.815   4.200
 2802SOL     OW11237   2.677   3.336   4.823
 2802SOL    HW211238   2.608   3.269   4.824
 2802SOL    HW311239   2.758   3.288   4.837
 2802SOL    MW411240   2.678   3.321   4.825
 2803SOL     OW11241   2.929   2.841   4.462
 2803SOL    HW211242   3.008   2.785   4.466
 2803SOL    HW311243   2.865   2.795   4.515
 2803SOL    MW411244   2.931   2.827   4.469
 2804SOL     OW11245   2.329   0.227   4.563
 2804SOL    HW211246   2.377   0.309   4.556
 2804SOL    HW311247   2.302   0.206   4.474
 2804SOL    MW411248   2.332   0.235   4.551
 2805SOL     OW11249   3.407   4.177   4.782
 2805SOL    HW211250   3.342   4.240   4.814
 2805SOL    HW311251   3.462   4.227   4.722
 2805SOL    MW411252   3.406   4.192   4.779
 2806SOL     OW11253   3.883   3.592   4.505
 2806SOL    HW211254   3.846   3.606   4.418
 2806SOL    HW311255   3.858   3.502   4.527
 2806SOL    MW411256   3.875   3.582   4.497
 2807SOL     OW11257   2.959   3.659   4.542
 2807SOL    HW211258   2.883   3.601   4.540
 2807SOL    HW311259   2.923   3.747   4.534
 2807SOL    MW411260   2.944   3.663   4.541
 2808SOL     OW11261   3.123   4.317   4.572
 2808SOL    HW211262   3.117   4.222   4.562
 2808SOL    HW311263   3.213   4.338   4.551
 2808SOL    MW411264   3.134   4.307   4.568
 2809SOL     OW11265   2.745   0.402   4.534
 2809SOL    HW211266   2.736   0.313   4.569
 2809SOL    HW311267   2.769   0.389   4.442
 2809SOL    MW411268   2.747   0.389   4.526
 2810SOL     OW11269   2.971   0.817   4.517
 2810SOL    HW211270   3.048   0.798   4.570
 2810SOL    HW311271   2.899   0.775   4.564
 2810SOL    MW411272   2.972   0.809   4.530
 2811SOL     OW11273   2.452   0.746   4.607
 2811SOL    HW211274   2.368   0.790   4.591
 2811SOL    HW311275   2.433   0.653   4.592
 2811SOL    MW411276   2.438   0.739   4.603
 2812SOL     OW11277   2.412   1.211   4.516
 2812SOL    HW211278   2.462   1.138   4.552
 2812SOL    HW311279   2.472   1.286   4.521
 2812SOL    MW411280   2.427   1.212   4.521
 2813SOL     OW11281   2.434   4.356   4.698
 2813SOL    HW211282   2.509   4.329   4.646
 2813SOL    HW311283   2.440   4.452   4.700
 2813SOL    MW411284   2.445   4.365   4.691
 2814SOL     OW11285   2.452   4.651   4.612
 2814SOL    HW211286   2.449   4.620   4.521
 2814SOL    HW311287   2.416   4.739   4.608
 2814SOL    MW411288   2.447   4.658   4.599
 2815SOL     OW11289   3.187   1.326   4.758
 2815SOL    HW211290   3.194   1.372   4.841
 2815SOL    HW311291   3.145   1.388   4.699
 2815SOL    MW411292   3.182   1.340   4.761
 2816SOL     OW11293   2.871   1.347   4.423
 2816SOL    HW211294   2.876   1.255   4.448
 2816SOL    HW311295   2.891   1.348   4.329
 2816SOL    MW411296   2.874   1.335   4.414
 2817SOL     OW11297   3.920   0.975   4.550
 2817SOL    HW211298   3.955   0.967   4.461
 2817SOL    HW311299   3.941   0.891   4.591
 2817SOL    MW411300   3.928   0.963   4.543
 2818SOL     OW11301   3.395   1.654   4.597
 2818SOL    HW211302   3.486   1.677   4.577
 2818SOL    HW311303   3.347   1.736   4.584
 2818SOL    MW411304   3.401   1.668   4.593
 2819SOL     OW11305   3.334   1.949   4.597
 2819SOL    HW211306   3.356   2.028   4.548
 2819SOL    HW311307   3.243   1.931   4.572
 2819SOL    MW411308   3.325   1.957   4.587
 2820SOL     OW11309   3.403   2.140   4.420
 2820SOL    HW211310   3.369   2.230   4.416
 2820SOL    HW311311   3.387   2.105   4.333
 2820SOL    MW411312   3.396   2.148   4.408
 2821SOL     OW11313   3.667   1.692   4.508
 2821SOL    HW211314   3.689   1.782   4.531
 2821SOL    HW311315   3.637   1.697   4.417
 2821SOL    MW411316   3.666   1.705   4.499
 2822SOL     OW11317   2.722   2.713   4.581
 2822SOL    HW211318   2.706   2.619   4.582
 2822SOL    HW311319   2.634   2.751   4.581
 2822SOL    MW411320   2.708   2.706   4.581
 2823SOL     OW11321   3.276   2.388   4.399
 2823SOL    HW211322   3.196   2.335   4.410
 2823SOL    HW311323   3.277   2.410   4.306
 2823SOL    MW411324   3.266   2.384   4.388
 2824SOL     OW11325   2.765   2.203   4.571
 2824SOL    HW211326   2.730   2.292   4.562
 2824SOL    HW311327   2.793   2.197   4.662
 2824SOL    MW411328   2.764   2.214   4.582
 2825SOL     OW11329   3.570   3.014   4.414
 2825SOL    HW211330   3.511   2.947   4.380
 2825SOL    HW311331   3.643   2.965   4.453
 2825SOL    MW411332   3.572   2.999   4.415
 2826SOL     OW11333   3.361   3.513   4.466
 2826SOL    HW211334   3.296   3.532   4.534
 2826SOL    HW311335   3.353   3.420   4.450
 2826SOL    MW411336   3.352   3.503   4.473
 2827SOL     OW11337   3.370   3.221   4.493
 2827SOL    HW211338   3.299   3.177   4.447
 2827SOL    HW311339   3.439   3.155   4.500
 2827SOL    MW411340   3.370   3.207   4.488
 2828SOL     OW11341   3.889   2.933   4.463
 2828SOL    HW211342   3.952   2.872   4.498
 2828SOL    HW311343   3.934   3.017   4.462
 2828SOL    MW411344   3.903   2.936   4.467
 2829SOL     OW11345   3.732   3.337   4.502
 2829SOL    HW211346   3.685   3.330   4.419
 2829SOL    HW311347   3.789   3.260   4.505
 2829SOL    MW411348   3.733   3.326   4.492
 2830SOL     OW11349   3.608   4.298   4.631
 2830SOL    HW211350   3.676   4.365   4.628
 2830SOL    HW311351   3.656   4.215   4.640
 2830SOL    MW411352   3.623   4.295   4.632
 2831SOL     OW11353   3.214   0.206   4.561
 2831SOL    HW211354   3.137   0.150   4.566
 2831SOL    HW311355   3.287   0.146   4.548
 2831SOL    MW411356   3.213   0.191   4.560
 2832SOL     OW11357   3.813   0.541   4.472
 2832SOL    HW211358   3.874   0.605   4.508
 2832SOL    HW311359   3.728   0.586   4.472
 2832SOL    MW411360   3.810   0.555   4.477
 2833SOL     OW11361   3.371   4.453   4.524
 2833SOL    HW211362   3.453   4.413   4.552
 2833SOL    HW311363   3.383   4.546   4.542
 2833SOL    MW411364   3.384   4.460   4.530
 2834SOL     OW11365   3.592   3.882   4.520
 2834SOL    HW211366   3.598   3.790   4.545
 2834SOL    HW311367   3.503   3.908   4.543
 2834SOL    MW411368   3.581   3.874   4.526
 2835SOL     OW11369   3.460   0.050   4.551
 2835SOL    HW211370   3.543   0.058   4.598
 2835SOL    HW311371   3.479   0.080   4.463
 2835SOL    MW411372   3.473   0.055   4.546
 2836SOL     OW11373   3.310   0.907   4.487
 2836SOL    HW211374   3.249   0.972   4.521
 2836SOL    HW311375   3.274   0.823   4.514
 2836SOL    MW411376   3.297   0.905   4.495
 2837SOL     OW11377   2.009   4.526   4.431
 2837SOL    HW211378   2.085   4.481   4.469
 2837SOL    HW311379   1.934   4.472   4.458
 2837SOL    MW411380   2.009   4.513   4.440
 2838SOL     OW11381   4.315   1.538   4.681
 2838SOL    HW211382   4.292   1.455   4.640
 2838SOL    HW311383   4.361   1.586   4.612
 2838SOL    MW411384   4.318   1.533   4.666
 2839SOL     OW11385   3.648   1.017   4.614
 2839SOL    HW211386   3.599   0.949   4.660
 2839SOL    HW311387   3.731   0.976   4.592
 2839SOL    MW411388   3.652   1.002   4.617
 2840SOL     OW11389   4.423   0.844   4.557
 2840SOL    HW211390   4.429   0.856   4.462
 2840SOL    HW311391   4.505   0.799   4.580
 2840SOL    MW411392   4.435   0.840   4.547
 2841SOL     OW11393   4.244   0.413   4.495
 2841SOL    HW211394   4.243   0.434   4.402
 2841SOL    HW311395   4.178   0.343   4.504
 2841SOL    MW411396   4.235   0.406   4.484
 2842SOL     OW11397   3.607   1.701   4.224
 2842SOL    HW211398   3.682   1.649   4.194
 2842SOL    HW311399   3.532   1.665   4.176
 2842SOL    MW411400   3.607   1.690   4.213
 2843SOL     OW11401   4.051   1.652   4.280
 2843SOL    HW211402   4.132   1.613   4.247
 2843SOL    HW311403   4.068   1.669   4.372
 2843SOL    MW411404   4.064   1.649   4.288
 2844SOL     OW11405   3.772   2.490   4.457
 2844SOL    HW211406   3.687   2.522   4.487
 2844SOL    HW311407   3.775   2.399   4.486
 2844SOL    MW411408   3.761   2.483   4.464
 2845SOL     OW11409   3.655   1.956   4.611
 2845SOL    HW211410   3.565   1.938   4.637
 2845SOL    HW311411   3.707   1.942   4.690
 2845SOL    MW411412   3.650   1.952   4.625
 2846SOL     OW11413   0.180   2.046   4.455
 2846SOL    HW211414   0.256   2.103   4.456
 2846SOL    HW311415   0.106   2.104   4.473
 2846SOL    MW411416   0.180   2.061   4.458
 2847SOL     OW11417   3.793   2.164   4.469
 2847SOL    HW211418   3.876   2.137   4.508
 2847SOL    HW311419   3.726   2.115   4.518
 2847SOL    MW411420   3.795   2.154   4.481
 2848SOL     OW11421   4.157   2.814   4.485
 2848SOL    HW211422   4.224   2.838   4.549
 2848SOL    HW311423   4.200   2.820   4.400
 2848SOL    MW411424   4.171   2.818   4.483
 2849SOL     OW11425   4.068   2.543   4.459
 2849SOL    HW211426   3.973   2.551   4.458
 2849SOL    HW311427   4.099   2.630   4.483
 2849SOL    MW411428   4.060   2.556   4.462
 2850SOL     OW11429   4.387   2.924   4.643
 2850SOL    HW211430   4.441   2.991   4.602
 2850SOL    HW311431   4.445   2.849   4.654
 2850SOL    MW411432   4.402   2.923   4.639
 2851SOL     OW11433   3.130   3.319   4.694
 2851SOL    HW211434   3.087   3.262   4.631
 2851SOL    HW311435   3.222   3.295   4.689
 2851SOL    MW411436   3.136   3.308   4.685
 2852SOL     OW11437   3.407   3.730   4.791
 2852SOL    HW211438   3.321   3.688   4.789
 2852SOL    HW311439   3.464   3.671   4.741
 2852SOL    MW411440   3.403   3.716   4.784
 2853SOL     OW11441   3.188   3.576   4.691
 2853SOL    HW211442   3.114   3.620   4.649
 2853SOL    HW311443   3.160   3.485   4.699
 2853SOL    MW411444   3.175   3.570   4.687
 2854SOL     OW11445   4.407   3.494   4.620
 2854SOL    HW211446   4.330   3.551   4.614
 2854SOL    HW311447   4.371   3.405   4.615
 2854SOL    MW411448   4.392   3.490   4.618
 2855SOL     OW11449   0.302   2.902   4.539
 2855SOL    HW211450   0.282   2.861   4.455
 2855SOL    HW311451   0.231   2.965   4.553
 2855SOL    MW411452   0.290   2.905   4.529
 2856SOL     OW11453   4.173   3.671   4.524
 2856SOL    HW211454   4.079   3.654   4.529
 2856SOL    HW311455   4.194   3.663   4.431
 2856SOL    MW411456   4.164   3.668   4.512
 2857SOL     OW11457   3.827   4.462   4.547
 2857SOL    HW211458   3.825   4.452   4.452
 2857SOL    HW311459   3.796   4.552   4.562
 2857SOL    MW411460   3.822   4.473   4.536
 2858SOL     OW11461   3.554   0.629   4.439
 2858SOL    HW211462   3.481   0.568   4.424
 2858SOL    HW311463   3.540   0.699   4.376
 2858SOL    MW411464   3.542   0.630   4.429
 2859SOL     OW11465   3.708   1.297   4.619
 2859SOL    HW211466   3.617   1.324   4.629
 2859SOL    HW311467   3.705   1.201   4.622
 2859SOL    MW411468   3.696   1.288   4.621
 2860SOL     OW11469   3.202   0.674   4.639
 2860SOL    HW211470   3.262   0.694   4.711
 2860SOL    HW311471   3.246   0.605   4.590
 2860SOL    MW411472   3.216   0.668   4.642
 2861SOL     OW11473   0.003   0.329   4.633
 2861SOL    HW211474   0.071   0.371   4.580
 2861SOL    HW311475  -0.079   0.351   4.589
 2861SOL    MW411476   0.001   0.337   4.620
 2862SOL     OW11477   0.176   0.498   4.482
 2862SOL    HW211478   0.268   0.475   4.494
 2862SOL    HW311479   0.166   0.505   4.387
 2862SOL    MW411480   0.187   0.496   4.471
 2863SOL     OW11481   4.078   0.193   4.472
 2863SOL    HW211482   4.141   0.125   4.497
 2863SOL    HW311483   4.062   0.178   4.379
 2863SOL    MW411484   4.084   0.182   4.463
 2864SOL     OW11485   3.452   1.385   4.618
 2864SOL    HW211486   3.429   1.478   4.622
 2864SOL    HW311487   3.369   1.340   4.632
 2864SOL    MW411488   3.438   1.392   4.621
 2865SOL     OW11489   4.457   1.118   4.620
 2865SOL    HW211490   4.543   1.127   4.577
 2865SOL    HW311491   4.434   1.026   4.610
 2865SOL    MW411492   4.465   1.107   4.613
 2866SOL     OW11493   4.285   1.294   4.523
 2866SOL    HW211494   4.204   1.267   4.566
 2866SOL    HW311495   4.350   1.231   4.552
 2866SOL    MW411496   4.283   1.282   4.532
 2867SOL     OW11497   3.889   1.870   4.815
 2867SOL    HW211498   3.931   1.788   4.788
 2867SOL    HW311499   3.891   1.866   4.911
 2867SOL    MW411500   3.895   1.858   4.824
 2868SOL     OW11501   3.166   2.699   4.472
 2868SOL    HW211502   3.177   2.613   4.433
 2868SOL    HW311503   3.235   2.753   4.433
 2868SOL    MW411504   3.176   2.695   4.461
 2869SOL     OW11505   4.268   2.137   4.217
 2869SOL    HW211506   4.188   2.095   4.186
 2869SOL    HW311507   4.257   2.146   4.311
 2869SOL    MW411508   4.256   2.133   4.225
 2870SOL     OW11509   0.012   2.287   4.454
 2870SOL    HW211510  -0.082   2.272   4.459
 2870SOL    HW311511   0.022   2.352   4.384
 2870SOL    MW411512   0.001   2.294   4.446
 2871SOL     OW11513   4.012   2.038   4.588
 2871SOL    HW211514   4.074   1.974   4.555
 2871SOL    HW311515   3.992   2.009   4.677
 2871SOL    MW411516   4.018   2.026   4.595
 2872SOL     OW11517   3.489   2.544   4.501
 2872SOL    HW211518   3.449   2.622   4.463
 2872SOL    HW311519   3.425   2.474   4.485
 2872SOL    MW411520   3.475   2.545   4.494
 2873SOL     OW11521   0.664   2.678   4.573
 2873SOL    HW211522   0.576   2.639   4.572
 2873SOL    HW311523   0.651   2.767   4.539
 2873SOL    MW411524   0.650   2.685   4.568
 2874SOL     OW11525   4.276   3.254   4.592
 2874SOL    HW211526   4.244   3.205   4.669
 2874SOL    HW311527   4.349   3.202   4.560
 2874SOL    MW411528   4.281   3.240   4.598
 2875SOL     OW11529   0.104   2.718   4.634
 2875SOL    HW211530   0.126   2.625   4.642
 2875SOL    HW311531   0.186   2.761   4.611
 2875SOL    MW411532   0.118   2.711   4.632
 2876SOL     OW11533   0.263   3.690   4.456
 2876SOL    HW211534   0.353   3.719   4.468
 2876SOL    HW311535   0.245   3.704   4.363
 2876SOL    MW411536   0.273   3.696   4.446
 2877SOL     OW11537   3.850   0.281   4.570
 2877SOL    HW211538   3.837   0.372   4.543
 2877SOL    HW311539   3.938   0.259   4.542
 2877SOL    MW411540   3.860   0.290   4.563
 2878SOL     OW11541   4.287   4.378   4.521
 2878SOL    HW211542   4.199   4.358   4.553
 2878SOL    HW311543   4.345   4.323   4.573
 2878SOL    MW411544   4.283   4.368   4.532
 2879SOL     OW11545   4.002   3.194   4.469
 2879SOL    HW211546   4.087   3.217   4.508
 2879SOL    HW311547   4.011   3.217   4.377
 2879SOL    MW411548   4.015   3.200   4.462
 2880SOL     OW11549   2.462   0.482   4.508
 2880SOL    HW211550   2.554   0.453   4.509
 2880SOL    HW311551   2.437   0.480   4.416
 2880SOL    MW411552   2.471   0.478   4.496
 2881SOL     OW11553   4.234   4.403   4.260
 2881SOL    HW211554   4.310   4.362   4.219
 2881SOL    HW311555   4.242   4.383   4.353
 2881SOL    MW411556   4.245   4.395   4.267
 2882NA      NA11557   2.672   4.310   0.647
 2883NA      NA11558   0.875   1.947   0.260
   4.49070   4.66690  10.00000
