Gromacs Runs On Most of All Computer Systems in water t= 930.00000 step= 930000
11558
    1RG35     P    1   2.164   2.866   4.385
    1RG35   O1P    2   2.127   2.827   4.251
    1RG35   O2P    3   2.163   3.007   4.409
    1RG35   O5'    4   2.051   2.808   4.477
    1RG35   C5'    5   1.917   2.862   4.471
    1RG35  H5'1    6   1.887   2.890   4.370
    1RG35  H5'2    7   1.919   2.954   4.528
    1RG35   C4'    8   1.813   2.765   4.521
    1RG35   H4'    9   1.715   2.812   4.512
    1RG35   O4'   10   1.820   2.640   4.446
    1RG35   C1'   11   1.827   2.527   4.538
    1RG35   H1'   12   1.731   2.484   4.565
    1RG35    N9   13   1.907   2.422   4.479
    1RG35    C8   14   2.026   2.425   4.411
    1RG35    H8   15   2.072   2.520   4.391
    1RG35    N7   16   2.072   2.308   4.372
    1RG35    C5   17   1.977   2.223   4.422
    1RG35    C6   18   1.959   2.080   4.407
    1RG35    O6   19   2.019   2.004   4.337
    1RG35    N1   20   1.838   2.038   4.458
    1RG35    H1   21   1.805   1.944   4.444
    1RG35    C2   22   1.762   2.110   4.543
    1RG35    N2   23   1.666   2.040   4.600
    1RG35   H21   24   1.653   1.942   4.576
    1RG35   H22   25   1.595   2.087   4.654
    1RG35    N3   26   1.768   2.238   4.565
    1RG35    C4   27   1.879   2.291   4.498
    1RG35   C3'   28   1.827   2.728   4.670
    1RG35   H3'   29   1.890   2.801   4.720
    1RG35   C2'   30   1.896   2.591   4.662
    1RG35  H2'1   31   2.004   2.597   4.657
    1RG35   O2'   32   1.872   2.518   4.782
    1RG35  HO'2   33   1.924   2.437   4.772
    1RG35   O3'   34   1.699   2.715   4.728
    1RG35   H3T   35   1.715   2.638   4.782
    1RG35   O3P   36   2.282   2.803   4.447
    2SOL     OW   37   0.459   4.623   0.426
    2SOL    HW2   38   0.443   4.543   0.376
    2SOL    HW3   39   0.530   4.667   0.378
    2SOL    MW4   40   0.466   4.618   0.413
    3SOL     OW   41   3.353   0.833   0.209
    3SOL    HW2   42   3.278   0.776   0.227
    3SOL    HW3   43   3.336   0.869   0.122
    3SOL    MW4   44   3.341   0.830   0.200
    4SOL     OW   45   3.857   0.198   0.260
    4SOL    HW2   46   3.863   0.217   0.166
    4SOL    HW3   47   3.885   0.278   0.303
    4SOL    MW4   48   3.862   0.211   0.253
    5SOL     OW   49   0.722   1.679   0.345
    5SOL    HW2   50   0.739   1.595   0.388
    5SOL    HW3   51   0.641   1.710   0.385
    5SOL    MW4   52   0.713   1.672   0.356
    6SOL     OW   53   1.488   0.843   0.479
    6SOL    HW2   54   1.457   0.888   0.558
    6SOL    HW3   55   1.495   0.912   0.413
    6SOL    MW4   56   1.484   0.858   0.481
    7SOL     OW   57   0.202   0.382   0.433
    7SOL    HW2   58   0.203   0.400   0.527
    7SOL    HW3   59   0.212   0.287   0.427
    7SOL    MW4   60   0.203   0.372   0.445
    8SOL     OW   61   0.540   0.784   0.459
    8SOL    HW2   62   0.530   0.778   0.554
    8SOL    HW3   63   0.514   0.698   0.427
    8SOL    MW4   64   0.535   0.772   0.467
    9SOL     OW   65   0.843   0.760   0.438
    9SOL    HW2   66   0.858   0.734   0.528
    9SOL    HW3   67   0.751   0.786   0.435
    9SOL    MW4   68   0.833   0.760   0.449
   10SOL     OW   69   0.542   1.047   0.353
   10SOL    HW2   70   0.549   1.044   0.258
   10SOL    HW3   71   0.511   0.960   0.378
   10SOL    MW4   72   0.539   1.035   0.344
   11SOL     OW   73   4.314   1.551   0.462
   11SOL    HW2   74   4.227   1.584   0.437
   11SOL    HW3   75   4.305   1.526   0.554
   11SOL    MW4   76   4.301   1.552   0.471
   12SOL     OW   77   4.069   2.350   0.565
   12SOL    HW2   78   3.985   2.304   0.568
   12SOL    HW3   79   4.046   2.442   0.581
   12SOL    MW4   80   4.055   2.356   0.568
   13SOL     OW   81   0.073   1.648   0.488
   13SOL    HW2   82   0.070   1.649   0.584
   13SOL    HW3   83  -0.010   1.607   0.462
   13SOL    MW4   84   0.062   1.642   0.497
   14SOL     OW   85   0.625   2.326   0.355
   14SOL    HW2   86   0.706   2.317   0.404
   14SOL    HW3   87   0.651   2.371   0.274
   14SOL    MW4   88   0.639   2.331   0.351
   15SOL     OW   89   0.229   2.828   0.390
   15SOL    HW2   90   0.259   2.913   0.358
   15SOL    HW3   91   0.306   2.772   0.386
   15SOL    MW4   92   0.243   2.832   0.385
   16SOL     OW   93   4.164   3.351   0.418
   16SOL    HW2   94   4.194   3.276   0.366
   16SOL    HW3   95   4.152   3.315   0.506
   16SOL    MW4   96   4.167   3.336   0.423
   17SOL     OW   97   0.331   3.089   0.335
   17SOL    HW2   98   0.410   3.130   0.371
   17SOL    HW3   99   0.261   3.149   0.360
   17SOL    MW4  100   0.332   3.103   0.343
   18SOL     OW  101   0.712   3.382   0.360
   18SOL    HW2  102   0.756   3.440   0.422
   18SOL    HW3  103   0.629   3.425   0.340
   18SOL    MW4  104   0.707   3.395   0.365
   19SOL     OW  105   0.653   3.783   0.367
   19SOL    HW2  106   0.677   3.809   0.277
   19SOL    HW3  107   0.606   3.858   0.402
   19SOL    MW4  108   0.650   3.796   0.359
   20SOL     OW  109   4.138   3.809   0.387
   20SOL    HW2  110   4.197   3.883   0.371
   20SOL    HW3  111   4.190   3.747   0.439
   20SOL    MW4  112   4.153   3.810   0.392
   21SOL     OW  113   0.241   3.695   0.165
   21SOL    HW2  114   0.233   3.760   0.235
   21SOL    HW3  115   0.213   3.741   0.087
   21SOL    MW4  116   0.236   3.709   0.164
   22SOL     OW  117   4.418   4.477   0.559
   22SOL    HW2  118   4.379   4.498   0.475
   22SOL    HW3  119   4.344   4.456   0.616
   22SOL    MW4  120   4.403   4.477   0.556
   23SOL     OW  121   4.083   4.241   0.317
   23SOL    HW2  122   4.060   4.301   0.388
   23SOL    HW3  123   4.011   4.177   0.314
   23SOL    MW4  124   4.071   4.240   0.326
   24SOL     OW  125   4.271   0.197   0.376
   24SOL    HW2  126   4.339   0.156   0.323
   24SOL    HW3  127   4.299   0.183   0.467
   24SOL    MW4  128   4.283   0.190   0.381
   25SOL     OW  129   0.578   3.152   0.468
   25SOL    HW2  130   0.563   3.178   0.559
   25SOL    HW3  131   0.633   3.222   0.432
   25SOL    MW4  132   0.584   3.165   0.475
   26SOL     OW  133   0.367   4.352   0.344
   26SOL    HW2  134   0.288   4.344   0.397
   26SOL    HW3  135   0.347   4.304   0.263
   26SOL    MW4  136   0.354   4.345   0.340
   27SOL     OW  137   0.204   0.097   0.413
   27SOL    HW2  138   0.165   0.084   0.499
   27SOL    HW3  139   0.291   0.057   0.419
   27SOL    MW4  140   0.210   0.090   0.425
   28SOL     OW  141   0.093   1.148   0.411
   28SOL    HW2  142   0.007   1.190   0.420
   28SOL    HW3  143   0.072   1.054   0.409
   28SOL    MW4  144   0.079   1.141   0.412
   29SOL     OW  145   1.113   4.426   0.447
   29SOL    HW2  146   1.106   4.335   0.420
   29SOL    HW3  147   1.124   4.422   0.542
   29SOL    MW4  148   1.114   4.414   0.456
   30SOL     OW  149   1.160   1.228   0.510
   30SOL    HW2  150   1.109   1.161   0.465
   30SOL    HW3  151   1.138   1.309   0.465
   30SOL    MW4  152   1.151   1.230   0.498
   31SOL     OW  153   0.670   0.381   0.464
   31SOL    HW2  154   0.742   0.405   0.406
   31SOL    HW3  155   0.673   0.285   0.467
   31SOL    MW4  156   0.680   0.372   0.457
   32SOL     OW  157   0.341   1.245   0.432
   32SOL    HW2  158   0.404   1.188   0.388
   32SOL    HW3  159   0.256   1.212   0.403
   32SOL    MW4  160   0.338   1.233   0.422
   33SOL     OW  161   0.214   2.084   0.469
   33SOL    HW2  162   0.157   2.161   0.462
   33SOL    HW3  163   0.165   2.014   0.425
   33SOL    MW4  164   0.200   2.085   0.462
   34SOL     OW  165   0.772   1.995   0.473
   34SOL    HW2  166   0.679   1.989   0.454
   34SOL    HW3  167   0.783   2.079   0.516
   34SOL    MW4  168   0.761   2.005   0.476
   35SOL     OW  169   0.650   2.556   0.165
   35SOL    HW2  170   0.706   2.617   0.214
   35SOL    HW3  171   0.688   2.555   0.077
   35SOL    MW4  172   0.662   2.564   0.160
   36SOL     OW  173   0.928   3.241   0.226
   36SOL    HW2  174   0.938   3.250   0.132
   36SOL    HW3  175   0.836   3.261   0.243
   36SOL    MW4  176   0.917   3.245   0.216
   37SOL     OW  177   3.989   2.153   0.201
   37SOL    HW2  178   4.061   2.203   0.238
   37SOL    HW3  179   4.000   2.065   0.238
   37SOL    MW4  180   4.000   2.148   0.211
   38SOL     OW  181   1.098   2.148   0.574
   38SOL    HW2  182   1.101   2.111   0.663
   38SOL    HW3  183   1.187   2.180   0.559
   38SOL    MW4  184   1.110   2.148   0.584
   39SOL     OW  185   0.391   2.421   0.492
   39SOL    HW2  186   0.390   2.502   0.440
   39SOL    HW3  187   0.473   2.378   0.468
   39SOL    MW4  188   0.402   2.426   0.482
   40SOL     OW  189   4.348   3.105   0.303
   40SOL    HW2  190   4.300   3.038   0.351
   40SOL    HW3  191   4.378   3.060   0.224
   40SOL    MW4  192   4.345   3.090   0.299
   41SOL     OW  193   0.474   2.674   0.373
   41SOL    HW2  194   0.496   2.673   0.280
   41SOL    HW3  195   0.543   2.726   0.413
   41SOL    MW4  196   0.486   2.681   0.366
   42SOL     OW  197   0.928   0.271   0.198
   42SOL    HW2  198   0.907   0.360   0.226
   42SOL    HW3  199   0.963   0.282   0.109
   42SOL    MW4  200   0.930   0.284   0.190
   43SOL     OW  201   0.257   3.607   0.523
   43SOL    HW2  202   0.264   3.691   0.478
   43SOL    HW3  203   0.338   3.561   0.502
   43SOL    MW4  204   0.269   3.612   0.514
   44SOL     OW  205   0.478   3.564   0.296
   44SOL    HW2  206   0.422   3.608   0.232
   44SOL    HW3  207   0.521   3.635   0.343
   44SOL    MW4  208   0.476   3.579   0.294
   45SOL     OW  209   1.186   3.732   0.335
   45SOL    HW2  210   1.108   3.776   0.369
   45SOL    HW3  211   1.195   3.653   0.387
   45SOL    MW4  212   1.177   3.728   0.346
   46SOL     OW  213   0.143   4.298   0.475
   46SOL    HW2  214   0.062   4.343   0.500
   46SOL    HW3  215   0.122   4.205   0.482
   46SOL    MW4  216   0.130   4.292   0.479
   47SOL     OW  217   0.933   3.822   0.442
   47SOL    HW2  218   0.846   3.812   0.405
   47SOL    HW3  219   0.920   3.866   0.525
   47SOL    MW4  220   0.920   3.826   0.448
   48SOL     OW  221   0.603   4.215   0.411
   48SOL    HW2  222   0.618   4.262   0.493
   48SOL    HW3  223   0.535   4.266   0.367
   48SOL    MW4  224   0.596   4.228   0.416
   49SOL     OW  225   0.698   0.096   0.349
   49SOL    HW2  226   0.748   0.025   0.390
   49SOL    HW3  227   0.762   0.141   0.294
   49SOL    MW4  228   0.713   0.092   0.347
   50SOL     OW  229   0.888   0.508   0.349
   50SOL    HW2  230   0.864   0.597   0.376
   50SOL    HW3  231   0.974   0.493   0.389
   50SOL    MW4  232   0.896   0.518   0.358
   51SOL     OW  233   0.438   0.525   0.365
   51SOL    HW2  234   0.362   0.467   0.375
   51SOL    HW3  235   0.513   0.468   0.383
   51SOL    MW4  236   0.438   0.510   0.368
   52SOL     OW  237   1.779   0.747   0.477
   52SOL    HW2  238   1.808   0.800   0.551
   52SOL    HW3  239   1.683   0.746   0.484
   52SOL    MW4  240   1.770   0.754   0.488
   53SOL     OW  241   2.279   0.713   0.607
   53SOL    HW2  242   2.345   0.644   0.601
   53SOL    HW3  243   2.197   0.669   0.582
   53SOL    MW4  244   2.277   0.698   0.603
   54SOL     OW  245   2.005   0.125   0.492
   54SOL    HW2  246   1.985   0.063   0.421
   54SOL    HW3  247   1.931   0.186   0.490
   54SOL    MW4  248   1.992   0.125   0.482
   55SOL     OW  249   0.784   1.457   0.502
   55SOL    HW2  250   0.778   1.465   0.597
   55SOL    HW3  251   0.753   1.368   0.484
   55SOL    MW4  252   0.779   1.446   0.512
   56SOL     OW  253   0.728   1.180   0.524
   56SOL    HW2  254   0.659   1.129   0.481
   56SOL    HW3  255   0.809   1.134   0.503
   56SOL    MW4  256   0.730   1.167   0.515
   57SOL     OW  257   2.156   1.498   0.363
   57SOL    HW2  258   2.231   1.527   0.414
   57SOL    HW3  259   2.082   1.545   0.401
   57SOL    MW4  260   2.156   1.508   0.375
   58SOL     OW  261   0.948   1.020   0.477
   58SOL    HW2  262   0.915   0.937   0.442
   58SOL    HW3  263   0.968   1.001   0.569
   58SOL    MW4  264   0.946   1.006   0.485
   59SOL     OW  265   1.445   1.494   0.211
   59SOL    HW2  266   1.487   1.464   0.131
   59SOL    HW3  267   1.514   1.540   0.259
   59SOL    MW4  268   1.460   1.496   0.207
   60SOL     OW  269   0.109   2.369   0.511
   60SOL    HW2  270   0.199   2.392   0.535
   60SOL    HW3  271   0.055   2.406   0.581
   60SOL    MW4  272   0.114   2.377   0.524
   61SOL     OW  273   0.027   1.898   0.378
   61SOL    HW2  274   0.030   1.895   0.283
   61SOL    HW3  275   0.045   1.808   0.405
   61SOL    MW4  276   0.030   1.886   0.369
   62SOL     OW  277   1.075   1.778   0.490
   62SOL    HW2  278   1.068   1.749   0.581
   62SOL    HW3  279   1.166   1.807   0.480
   62SOL    MW4  280   1.086   1.778   0.501
   63SOL     OW  281   1.003   1.777   0.121
   63SOL    HW2  282   1.079   1.730   0.156
   63SOL    HW3  283   1.015   1.773   0.026
   63SOL    MW4  284   1.015   1.770   0.113
   64SOL     OW  285   1.086   2.052   0.299
   64SOL    HW2  286   1.109   2.133   0.254
   64SOL    HW3  287   1.112   2.067   0.390
   64SOL    MW4  288   1.093   2.065   0.305
   65SOL     OW  289   0.838   2.716   0.278
   65SOL    HW2  290   0.800   2.772   0.346
   65SOL    HW3  291   0.874   2.778   0.214
   65SOL    MW4  292   0.838   2.732   0.279
   66SOL     OW  293   0.677   2.861   0.451
   66SOL    HW2  294   0.656   2.953   0.442
   66SOL    HW3  295   0.676   2.845   0.545
   66SOL    MW4  296   0.674   2.871   0.462
   67SOL     OW  297   1.042   3.286   0.493
   67SOL    HW2  298   0.980   3.356   0.513
   67SOL    HW3  299   1.026   3.266   0.401
   67SOL    MW4  300   1.032   3.293   0.483
   68SOL     OW  301   2.010   2.958   0.466
   68SOL    HW2  302   2.099   2.971   0.433
   68SOL    HW3  303   2.022   2.926   0.555
   68SOL    MW4  304   2.023   2.956   0.473
   69SOL     OW  305   1.309   3.971   0.263
   69SOL    HW2  306   1.362   3.967   0.184
   69SOL    HW3  307   1.277   3.882   0.275
   69SOL    MW4  308   1.312   3.959   0.254
   70SOL     OW  309   0.494   3.981   0.469
   70SOL    HW2  310   0.510   3.985   0.564
   70SOL    HW3  311   0.531   4.062   0.435
   70SOL    MW4  312   0.501   3.992   0.477
   71SOL     OW  313   1.120   4.149   0.407
   71SOL    HW2  314   1.047   4.090   0.392
   71SOL    HW3  315   1.194   4.107   0.363
   71SOL    MW4  316   1.120   4.136   0.399
   72SOL     OW  317   1.142   0.442   0.508
   72SOL    HW2  318   1.126   0.350   0.485
   72SOL    HW3  319   1.235   0.455   0.490
   72SOL    MW4  320   1.152   0.431   0.503
   73SOL     OW  321   0.860   4.575   0.477
   73SOL    HW2  322   0.932   4.519   0.449
   73SOL    HW3  323   0.802   4.517   0.526
   73SOL    MW4  324   0.862   4.560   0.480
   74SOL     OW  325   1.437   0.557   0.510
   74SOL    HW2  326   1.494   0.565   0.587
   74SOL    HW3  327   1.432   0.646   0.475
   74SOL    MW4  328   1.444   0.570   0.516
   75SOL     OW  329   2.022   0.023   0.747
   75SOL    HW2  330   2.031  -0.070   0.725
   75SOL    HW3  331   1.998   0.065   0.665
   75SOL    MW4  332   2.020   0.017   0.733
   76SOL     OW  333   1.070   0.184   0.443
   76SOL    HW2  334   1.028   0.141   0.517
   76SOL    HW3  335   1.011   0.167   0.369
   76SOL    MW4  336   1.057   0.176   0.443
   77SOL     OW  337   2.215   0.225   0.339
   77SOL    HW2  338   2.186   0.179   0.260
   77SOL    HW3  339   2.153   0.196   0.407
   77SOL    MW4  340   2.203   0.215   0.338
   78SOL     OW  341   2.378   1.114   0.524
   78SOL    HW2  342   2.298   1.165   0.535
   78SOL    HW3  343   2.348   1.034   0.479
   78SOL    MW4  344   2.363   1.110   0.519
   79SOL     OW  345   1.632   1.136   0.399
   79SOL    HW2  346   1.543   1.172   0.397
   79SOL    HW3  347   1.687   1.206   0.364
   79SOL    MW4  348   1.627   1.150   0.394
   80SOL     OW  349   1.849   0.939   0.288
   80SOL    HW2  350   1.819   0.858   0.331
   80SOL    HW3  351   1.782   1.003   0.308
   80SOL    MW4  352   1.837   0.937   0.296
   81SOL     OW  353   1.404   1.266   0.394
   81SOL    HW2  354   1.317   1.266   0.433
   81SOL    HW3  355   1.398   1.329   0.322
   81SOL    MW4  356   1.392   1.274   0.389
   82SOL     OW  357   1.915   1.583   0.528
   82SOL    HW2  358   1.872   1.499   0.514
   82SOL    HW3  359   1.933   1.586   0.622
   82SOL    MW4  360   1.912   1.573   0.539
   83SOL     OW  361   0.870   2.290   0.482
   83SOL    HW2  362   0.941   2.226   0.492
   83SOL    HW3  363   0.866   2.335   0.566
   83SOL    MW4  364   0.879   2.288   0.494
   84SOL     OW  365   1.165   2.318   0.241
   84SOL    HW2  366   1.214   2.362   0.171
   84SOL    HW3  367   1.107   2.386   0.275
   84SOL    MW4  368   1.164   2.333   0.236
   85SOL     OW  369   2.258   2.081   0.456
   85SOL    HW2  370   2.341   2.058   0.415
   85SOL    HW3  371   2.264   2.175   0.472
   85SOL    MW4  372   2.270   2.090   0.452
   86SOL     OW  373   1.326   2.283   0.485
   86SOL    HW2  374   1.420   2.284   0.465
   86SOL    HW3  375   1.284   2.295   0.400
   86SOL    MW4  376   1.333   2.285   0.471
   87SOL     OW  377   1.106   1.458   0.378
   87SOL    HW2  378   1.012   1.476   0.382
   87SOL    HW3  379   1.145   1.544   0.361
   87SOL    MW4  380   1.098   1.472   0.376
   88SOL     OW  381   1.239   3.504   0.512
   88SOL    HW2  382   1.322   3.477   0.473
   88SOL    HW3  383   1.178   3.432   0.493
   88SOL    MW4  384   1.242   3.491   0.505
   89SOL     OW  385   1.854   2.298   0.502
   89SOL    HW2  386   1.892   2.211   0.489
   89SOL    HW3  387   1.912   2.357   0.455
   89SOL    MW4  388   1.866   2.294   0.494
   90SOL     OW  389   2.212   0.508   0.387
   90SOL    HW2  390   2.120   0.531   0.376
   90SOL    HW3  391   2.217   0.415   0.365
   90SOL    MW4  392   2.201   0.499   0.382
   91SOL     OW  393   1.514   3.846   0.093
   91SOL    HW2  394   1.473   3.760   0.107
   91SOL    HW3  395   1.566   3.835   0.014
   91SOL    MW4  396   1.515   3.833   0.085
   92SOL     OW  397   1.612   2.611   0.386
   92SOL    HW2  398   1.560   2.688   0.360
   92SOL    HW3  399   1.691   2.648   0.423
   92SOL    MW4  400   1.615   2.626   0.387
   93SOL     OW  401   1.668   3.844   0.356
   93SOL    HW2  402   1.624   3.839   0.271
   93SOL    HW3  403   1.614   3.904   0.407
   93SOL    MW4  404   1.655   3.851   0.351
   94SOL     OW  405   1.472   2.868   0.394
   94SOL    HW2  406   1.378   2.852   0.400
   94SOL    HW3  407   1.502   2.873   0.484
   94SOL    MW4  408   1.463   2.867   0.407
   95SOL     OW  409   2.173   4.120   0.464
   95SOL    HW2  410   2.099   4.059   0.461
   95SOL    HW3  411   2.226   4.097   0.387
   95SOL    MW4  412   2.170   4.109   0.453
   96SOL     OW  413   1.382   3.626   0.148
   96SOL    HW2  414   1.306   3.656   0.198
   96SOL    HW3  415   1.411   3.548   0.195
   96SOL    MW4  416   1.376   3.619   0.161
   97SOL     OW  417   1.950   4.604   0.284
   97SOL    HW2  418   2.001   4.525   0.301
   97SOL    HW3  419   1.865   4.572   0.253
   97SOL    MW4  420   1.946   4.589   0.282
   98SOL     OW  421   2.288   0.142   0.687
   98SOL    HW2  422   2.206   0.093   0.696
   98SOL    HW3  423   2.353   0.088   0.732
   98SOL    MW4  424   2.286   0.129   0.694
   99SOL     OW  425   2.613   4.411   0.240
   99SOL    HW2  426   2.664   4.422   0.320
   99SOL    HW3  427   2.666   4.452   0.171
   99SOL    MW4  428   2.627   4.418   0.241
  100SOL     OW  429   1.353   4.502   0.326
  100SOL    HW2  430   1.321   4.514   0.237
  100SOL    HW3  431   1.276   4.474   0.375
  100SOL    MW4  432   1.339   4.500   0.321
  101SOL     OW  433   2.514   0.577   0.374
  101SOL    HW2  434   2.419   0.583   0.370
  101SOL    HW3  435   2.546   0.659   0.336
  101SOL    MW4  436   2.506   0.588   0.369
  102SOL     OW  437   1.811   1.848   0.433
  102SOL    HW2  438   1.879   1.913   0.452
  102SOL    HW3  439   1.851   1.764   0.457
  102SOL    MW4  440   1.825   1.845   0.439
  103SOL     OW  441   2.145   1.253   0.495
  103SOL    HW2  442   2.128   1.191   0.425
  103SOL    HW3  443   2.130   1.339   0.455
  103SOL    MW4  444   2.141   1.256   0.481
  104SOL     OW  445   2.537   1.354   0.543
  104SOL    HW2  446   2.623   1.339   0.504
  104SOL    HW3  447   2.482   1.285   0.505
  104SOL    MW4  448   2.541   1.343   0.532
  105SOL     OW  449   2.648   1.746   0.484
  105SOL    HW2  450   2.707   1.673   0.468
  105SOL    HW3  451   2.637   1.748   0.579
  105SOL    MW4  452   2.654   1.737   0.494
  106SOL     OW  453   1.643   1.625   0.364
  106SOL    HW2  454   1.690   1.707   0.376
  106SOL    HW3  455   1.618   1.598   0.453
  106SOL    MW4  456   1.646   1.632   0.377
  107SOL     OW  457   1.337   1.844   0.470
  107SOL    HW2  458   1.418   1.895   0.473
  107SOL    HW3  459   1.341   1.788   0.547
  107SOL    MW4  460   1.348   1.843   0.480
  108SOL     OW  461   2.272   2.353   0.502
  108SOL    HW2  462   2.204   2.406   0.459
  108SOL    HW3  463   2.266   2.378   0.594
  108SOL    MW4  464   2.262   2.364   0.508
  109SOL     OW  465   1.858   3.193   0.462
  109SOL    HW2  466   1.909   3.112   0.467
  109SOL    HW3  467   1.918   3.258   0.426
  109SOL    MW4  468   1.872   3.190   0.458
  110SOL     OW  469   1.122   3.107   0.674
  110SOL    HW2  470   1.073   3.131   0.752
  110SOL    HW3  471   1.081   3.156   0.603
  110SOL    MW4  472   1.110   3.117   0.675
  111SOL     OW  473   1.510   3.137   0.405
  111SOL    HW2  474   1.600   3.142   0.435
  111SOL    HW3  475   1.499   3.046   0.376
  111SOL    MW4  476   1.520   3.126   0.405
  112SOL     OW  477   1.240   1.680   0.250
  112SOL    HW2  478   1.309   1.615   0.236
  112SOL    HW3  479   1.283   1.752   0.295
  112SOL    MW4  480   1.255   1.681   0.254
  113SOL     OW  481   3.789   1.552   0.423
  113SOL    HW2  482   3.727   1.560   0.495
  113SOL    HW3  483   3.753   1.608   0.354
  113SOL    MW4  484   3.776   1.560   0.423
  114SOL     OW  485   1.584   2.333   0.424
  114SOL    HW2  486   1.678   2.320   0.438
  114SOL    HW3  487   1.577   2.419   0.383
  114SOL    MW4  488   1.596   2.342   0.421
  115SOL     OW  489   1.570   2.013   0.490
  115SOL    HW2  490   1.564   2.098   0.446
  115SOL    HW3  491   1.649   1.973   0.455
  115SOL    MW4  492   1.579   2.019   0.479
  116SOL     OW  493   1.471   3.419   0.331
  116SOL    HW2  494   1.493   3.326   0.333
  116SOL    HW3  495   1.554   3.464   0.348
  116SOL    MW4  496   1.485   3.413   0.333
  117SOL     OW  497   2.269   3.283   0.441
  117SOL    HW2  498   2.251   3.267   0.533
  117SOL    HW3  499   2.336   3.352   0.441
  117SOL    MW4  500   2.275   3.290   0.453
  118SOL     OW  501   1.512   4.310   0.395
  118SOL    HW2  502   1.562   4.347   0.468
  118SOL    HW3  503   1.456   4.382   0.365
  118SOL    MW4  504   1.512   4.325   0.401
  119SOL     OW  505   1.696   3.576   0.406
  119SOL    HW2  506   1.674   3.663   0.373
  119SOL    HW3  507   1.792   3.574   0.406
  119SOL    MW4  508   1.706   3.587   0.401
  120SOL     OW  509   1.342   0.112   0.409
  120SOL    HW2  510   1.361   0.019   0.403
  120SOL    HW3  511   1.249   0.119   0.386
  120SOL    MW4  512   1.332   0.101   0.405
  121SOL     OW  513   1.547   0.321   0.428
  121SOL    HW2  514   1.499   0.403   0.437
  121SOL    HW3  515   1.480   0.253   0.440
  121SOL    MW4  516   1.532   0.323   0.431
  122SOL     OW  517   2.708   0.150   0.479
  122SOL    HW2  518   2.614   0.139   0.469
  122SOL    HW3  519   2.732   0.218   0.416
  122SOL    MW4  520   2.699   0.157   0.470
  123SOL     OW  521   2.432   0.095   0.449
  123SOL    HW2  522   2.389   0.142   0.378
  123SOL    HW3  523   2.377   0.110   0.525
  123SOL    MW4  524   2.419   0.103   0.450
  124SOL     OW  525   2.417   1.587   0.501
  124SOL    HW2  526   2.464   1.504   0.500
  124SOL    HW3  527   2.481   1.651   0.470
  124SOL    MW4  528   2.431   1.585   0.496
  125SOL     OW  529   2.877   0.615   0.471
  125SOL    HW2  530   2.962   0.629   0.428
  125SOL    HW3  531   2.841   0.703   0.482
  125SOL    MW4  532   2.884   0.628   0.467
  126SOL     OW  533   2.099   1.087   0.285
  126SOL    HW2  534   2.175   1.030   0.275
  126SOL    HW3  535   2.024   1.028   0.281
  126SOL    MW4  536   2.099   1.072   0.283
  127SOL     OW  537   2.813   1.268   0.486
  127SOL    HW2  538   2.886   1.210   0.465
  127SOL    HW3  539   2.810   1.269   0.582
  127SOL    MW4  540   2.822   1.261   0.496
  128SOL     OW  541   2.813   1.539   0.388
  128SOL    HW2  542   2.755   1.510   0.318
  128SOL    HW3  543   2.848   1.458   0.425
  128SOL    MW4  544   2.810   1.524   0.384
  129SOL     OW  545   3.275   2.129   0.441
  129SOL    HW2  546   3.223   2.054   0.471
  129SOL    HW3  547   3.351   2.090   0.399
  129SOL    MW4  548   3.278   2.114   0.439
  130SOL     OW  549   2.999   4.524   0.394
  130SOL    HW2  550   3.041   4.593   0.444
  130SOL    HW3  551   3.043   4.443   0.420
  130SOL    MW4  552   3.010   4.522   0.404
  131SOL     OW  553   1.989   2.049   0.501
  131SOL    HW2  554   1.991   2.039   0.596
  131SOL    HW3  555   2.081   2.050   0.475
  131SOL    MW4  556   2.001   2.048   0.510
  132SOL     OW  557   1.551   1.521   0.628
  132SOL    HW2  558   1.602   1.548   0.705
  132SOL    HW3  559   1.464   1.557   0.642
  132SOL    MW4  560   1.547   1.530   0.640
  133SOL     OW  561   2.547   2.009   0.436
  133SOL    HW2  562   2.581   1.922   0.417
  133SOL    HW3  563   2.616   2.068   0.408
  133SOL    MW4  564   2.561   2.005   0.430
  134SOL     OW  565   2.725   2.214   0.332
  134SOL    HW2  566   2.721   2.202   0.237
  134SOL    HW3  567   2.817   2.234   0.349
  134SOL    MW4  568   2.737   2.215   0.322
  135SOL     OW  569   2.644   2.691   0.472
  135SOL    HW2  570   2.603   2.607   0.451
  135SOL    HW3  571   2.602   2.718   0.554
  135SOL    MW4  572   2.633   2.683   0.480
  136SOL     OW  573   1.173   2.810   0.365
  136SOL    HW2  574   1.141   2.816   0.455
  136SOL    HW3  575   1.179   2.715   0.349
  136SOL    MW4  576   1.170   2.798   0.374
  137SOL     OW  577   0.984   2.959   0.200
  137SOL    HW2  578   0.978   3.051   0.226
  137SOL    HW3  579   1.042   2.919   0.265
  137SOL    MW4  580   0.991   2.966   0.212
  138SOL     OW  581   1.972   3.668   0.445
  138SOL    HW2  582   2.000   3.595   0.389
  138SOL    HW3  583   2.006   3.646   0.532
  138SOL    MW4  584   1.980   3.656   0.449
  139SOL     OW  585   2.411   4.030   0.325
  139SOL    HW2  586   2.413   3.935   0.339
  139SOL    HW3  587   2.496   4.051   0.287
  139SOL    MW4  588   2.423   4.020   0.322
  140SOL     OW  589   1.943   3.926   0.409
  140SOL    HW2  590   1.963   3.833   0.421
  140SOL    HW3  591   1.850   3.928   0.385
  140SOL    MW4  592   1.933   3.914   0.408
  141SOL     OW  593   2.043   3.418   0.340
  141SOL    HW2  594   2.042   3.376   0.254
  141SOL    HW3  595   2.116   3.376   0.386
  141SOL    MW4  596   2.053   3.407   0.334
  142SOL     OW  597   2.383   4.474   0.408
  142SOL    HW2  598   2.432   4.454   0.329
  142SOL    HW3  599   2.394   4.568   0.421
  142SOL    MW4  600   2.391   4.484   0.399
  143SOL     OW  601   2.115   4.389   0.401
  143SOL    HW2  602   2.110   4.296   0.421
  143SOL    HW3  603   2.207   4.405   0.381
  143SOL    MW4  604   2.126   4.379   0.401
  144SOL     OW  605   3.137   0.103   0.436
  144SOL    HW2  606   3.073   0.169   0.409
  144SOL    HW3  607   3.148   0.118   0.530
  144SOL    MW4  608   3.130   0.114   0.445
  145SOL     OW  609   2.445   3.756   0.430
  145SOL    HW2  610   2.423   3.725   0.518
  145SOL    HW3  611   2.456   3.676   0.379
  145SOL    MW4  612   2.444   3.741   0.435
  146SOL     OW  613   2.482   4.221   0.537
  146SOL    HW2  614   2.435   4.302   0.517
  146SOL    HW3  615   2.447   4.158   0.474
  146SOL    MW4  616   2.471   4.223   0.526
  147SOL     OW  617   2.729   0.410   0.337
  147SOL    HW2  618   2.645   0.455   0.327
  147SOL    HW3  619   2.788   0.476   0.371
  147SOL    MW4  620   2.726   0.424   0.340
  148SOL     OW  621   1.929   0.512   0.473
  148SOL    HW2  622   1.879   0.433   0.492
  148SOL    HW3  623   1.866   0.584   0.482
  148SOL    MW4  624   1.914   0.511   0.477
  149SOL     OW  625   3.190   0.437   0.269
  149SOL    HW2  626   3.261   0.379   0.296
  149SOL    HW3  627   3.112   0.382   0.271
  149SOL    MW4  628   3.189   0.422   0.273
  150SOL     OW  629   1.999   1.321   0.172
  150SOL    HW2  630   2.067   1.378   0.208
  150SOL    HW3  631   2.030   1.232   0.188
  150SOL    MW4  632   2.012   1.317   0.179
  151SOL     OW  633   2.790   0.883   0.473
  151SOL    HW2  634   2.873   0.930   0.478
  151SOL    HW3  635   2.738   0.919   0.545
  151SOL    MW4  636   2.794   0.894   0.483
  152SOL     OW  637   3.099   1.672   0.449
  152SOL    HW2  638   3.010   1.649   0.421
  152SOL    HW3  639   3.093   1.766   0.470
  152SOL    MW4  640   3.086   1.681   0.448
  153SOL     OW  641   3.487   0.935   0.481
  153SOL    HW2  642   3.520   0.880   0.410
  153SOL    HW3  643   3.544   0.914   0.555
  153SOL    MW4  644   3.499   0.925   0.481
  154SOL     OW  645   4.031   1.935   0.375
  154SOL    HW2  646   4.117   1.971   0.395
  154SOL    HW3  647   3.981   1.947   0.456
  154SOL    MW4  648   4.035   1.942   0.388
  155SOL     OW  649   2.964   0.275   0.298
  155SOL    HW2  650   2.886   0.325   0.277
  155SOL    HW3  651   2.963   0.202   0.236
  155SOL    MW4  652   2.954   0.272   0.287
  156SOL     OW  653   3.109   1.933   0.561
  156SOL    HW2  654   3.030   1.968   0.602
  156SOL    HW3  655   3.171   1.924   0.633
  156SOL    MW4  656   3.106   1.936   0.576
  157SOL     OW  657   2.562   2.435   0.441
  157SOL    HW2  658   2.612   2.361   0.408
  157SOL    HW3  659   2.473   2.401   0.452
  157SOL    MW4  660   2.556   2.421   0.438
  158SOL     OW  661   3.004   2.241   0.431
  158SOL    HW2  662   3.096   2.217   0.421
  158SOL    HW3  663   2.975   2.193   0.509
  158SOL    MW4  664   3.012   2.231   0.440
  159SOL     OW  665   2.036   2.475   0.358
  159SOL    HW2  666   2.047   2.463   0.264
  159SOL    HW3  667   1.995   2.560   0.368
  159SOL    MW4  668   2.032   2.484   0.347
  160SOL     OW  669   2.559   2.965   0.419
  160SOL    HW2  670   2.589   2.878   0.392
  160SOL    HW3  671   2.535   2.955   0.511
  160SOL    MW4  672   2.560   2.952   0.427
  161SOL     OW  673   3.157   3.258   0.442
  161SOL    HW2  674   3.132   3.171   0.410
  161SOL    HW3  675   3.168   3.248   0.536
  161SOL    MW4  676   3.155   3.245   0.450
  162SOL     OW  677   3.462   3.228   0.514
  162SOL    HW2  678   3.466   3.189   0.602
  162SOL    HW3  679   3.370   3.224   0.490
  162SOL    MW4  680   3.450   3.222   0.523
  163SOL     OW  681   2.271   3.019   0.374
  163SOL    HW2  682   2.362   2.990   0.383
  163SOL    HW3  683   2.274   3.114   0.387
  163SOL    MW4  684   2.284   3.028   0.377
  164SOL     OW  685   1.493   4.022   0.480
  164SOL    HW2  686   1.526   4.106   0.447
  164SOL    HW3  687   1.438   3.989   0.409
  164SOL    MW4  688   1.490   4.029   0.466
  165SOL     OW  689   3.377   3.986   0.368
  165SOL    HW2  690   3.286   3.956   0.366
  165SOL    HW3  691   3.421   3.923   0.425
  165SOL    MW4  692   3.370   3.973   0.375
  166SOL     OW  693   2.888   3.380   0.397
  166SOL    HW2  694   2.809   3.326   0.396
  166SOL    HW3  695   2.957   3.321   0.427
  166SOL    MW4  696   2.887   3.365   0.401
  167SOL     OW  697   2.475   3.464   0.439
  167SOL    HW2  698   2.478   3.482   0.533
  167SOL    HW3  699   2.542   3.397   0.425
  167SOL    MW4  700   2.484   3.458   0.449
  168SOL     OW  701   3.767   4.173   0.721
  168SOL    HW2  702   3.771   4.101   0.659
  168SOL    HW3  703   3.762   4.252   0.667
  168SOL    MW4  704   3.767   4.174   0.706
  169SOL     OW  705   3.002   4.113   0.338
  169SOL    HW2  706   3.056   4.174   0.388
  169SOL    HW3  707   2.966   4.165   0.266
  169SOL    MW4  708   3.004   4.128   0.335
  170SOL     OW  709   3.381   0.250   0.341
  170SOL    HW2  710   3.318   0.180   0.361
  170SOL    HW3  711   3.466   0.206   0.342
  170SOL    MW4  712   3.384   0.235   0.343
  171SOL     OW  713   2.991   4.666   0.144
  171SOL    HW2  714   3.022   4.607   0.214
  171SOL    HW3  715   3.069   4.684   0.092
  171SOL    MW4  716   3.006   4.660   0.147
  172SOL     OW  717   2.896   4.236   0.104
  172SOL    HW2  718   2.932   4.174   0.041
  172SOL    HW3  719   2.804   4.212   0.111
  172SOL    MW4  720   2.889   4.225   0.096
  173SOL     OW  721   2.787   4.505   0.056
  173SOL    HW2  722   2.841   4.427   0.066
  173SOL    HW3  723   2.840   4.577   0.091
  173SOL    MW4  724   2.801   4.504   0.062
  174SOL     OW  725   3.019   1.064   0.476
  174SOL    HW2  726   3.097   1.075   0.422
  174SOL    HW3  727   3.046   1.006   0.548
  174SOL    MW4  728   3.033   1.058   0.478
  175SOL     OW  729   3.353   1.608   0.345
  175SOL    HW2  730   3.281   1.654   0.388
  175SOL    HW3  731   3.321   1.519   0.334
  175SOL    MW4  732   3.340   1.602   0.350
  176SOL     OW  733   3.265   0.771   0.577
  176SOL    HW2  734   3.192   0.819   0.615
  176SOL    HW3  735   3.333   0.837   0.565
  176SOL    MW4  736   3.264   0.786   0.581
  177SOL     OW  737   3.567   0.697   0.325
  177SOL    HW2  738   3.500   0.725   0.263
  177SOL    HW3  739   3.649   0.706   0.277
  177SOL    MW4  740   3.569   0.702   0.311
  178SOL     OW  741   3.642   1.878   0.611
  178SOL    HW2  742   3.596   1.899   0.531
  178SOL    HW3  743   3.584   1.908   0.681
  178SOL    MW4  744   3.629   1.885   0.610
  179SOL     OW  745   3.504   1.979   0.370
  179SOL    HW2  746   3.543   1.915   0.311
  179SOL    HW3  747   3.555   2.059   0.356
  179SOL    MW4  748   3.516   1.981   0.361
  180SOL     OW  749   3.481   1.210   0.475
  180SOL    HW2  750   3.495   1.116   0.469
  180SOL    HW3  751   3.425   1.222   0.552
  180SOL    MW4  752   3.475   1.199   0.484
  181SOL     OW  753   3.651   2.226   0.336
  181SOL    HW2  754   3.695   2.263   0.259
  181SOL    HW3  755   3.718   2.226   0.404
  181SOL    MW4  756   3.666   2.231   0.335
  182SOL     OW  757   3.352   2.333   0.600
  182SOL    HW2  758   3.311   2.264   0.548
  182SOL    HW3  759   3.380   2.290   0.680
  182SOL    MW4  760   3.350   2.318   0.603
  183SOL     OW  761   3.545   2.674   0.538
  183SOL    HW2  762   3.572   2.629   0.618
  183SOL    HW3  763   3.512   2.604   0.481
  183SOL    MW4  764   3.545   2.659   0.541
  184SOL     OW  765   1.876   2.695   0.468
  184SOL    HW2  766   1.915   2.781   0.460
  184SOL    HW3  767   1.834   2.694   0.554
  184SOL    MW4  768   1.875   2.706   0.478
  185SOL     OW  769   3.317   2.644   0.286
  185SOL    HW2  770   3.396   2.591   0.279
  185SOL    HW3  771   3.249   2.584   0.317
  185SOL    MW4  772   3.318   2.629   0.289
  186SOL     OW  773   2.904   2.806   0.711
  186SOL    HW2  774   2.919   2.788   0.618
  186SOL    HW3  775   2.985   2.778   0.754
  186SOL    MW4  776   2.917   2.800   0.705
  187SOL     OW  777   2.578   0.891   0.301
  187SOL    HW2  778   2.587   0.968   0.246
  187SOL    HW3  779   2.659   0.886   0.350
  187SOL    MW4  780   2.590   0.900   0.300
  188SOL     OW  781   2.783   4.143   0.492
  188SOL    HW2  782   2.756   4.051   0.493
  188SOL    HW3  783   2.868   4.142   0.447
  188SOL    MW4  784   2.791   4.131   0.487
  189SOL     OW  785   3.099   3.849   0.323
  189SOL    HW2  786   3.065   3.938   0.333
  189SOL    HW3  787   3.150   3.852   0.243
  189SOL    MW4  788   3.101   3.861   0.314
  190SOL     OW  789   3.912   3.467   0.393
  190SOL    HW2  790   3.892   3.500   0.480
  190SOL    HW3  791   3.991   3.415   0.405
  190SOL    MW4  792   3.920   3.465   0.406
  191SOL     OW  793   3.822   3.322   0.717
  191SOL    HW2  794   3.916   3.302   0.708
  191SOL    HW3  795   3.785   3.298   0.632
  191SOL    MW4  796   3.830   3.316   0.704
  192SOL     OW  797   2.688   3.878   0.496
  192SOL    HW2  798   2.747   3.808   0.469
  192SOL    HW3  799   2.601   3.845   0.475
  192SOL    MW4  800   2.684   3.864   0.489
  193SOL     OW  801   2.646   3.232   0.434
  193SOL    HW2  802   2.672   3.226   0.526
  193SOL    HW3  803   2.615   3.144   0.412
  193SOL    MW4  804   2.645   3.219   0.443
  194SOL     OW  805   4.475   0.062   0.233
  194SOL    HW2  806   4.465  -0.030   0.206
  194SOL    HW3  807   4.559   0.063   0.280
  194SOL    MW4  808   4.485   0.050   0.236
  195SOL     OW  809   4.075   0.009   0.333
  195SOL    HW2  810   3.987   0.041   0.311
  195SOL    HW3  811   4.128   0.088   0.343
  195SOL    MW4  812   4.070   0.023   0.331
  196SOL     OW  813   3.127   0.701   0.350
  196SOL    HW2  814   3.163   0.720   0.436
  196SOL    HW3  815   3.153   0.611   0.332
  196SOL    MW4  816   3.135   0.692   0.359
  197SOL     OW  817   3.570   0.426   0.456
  197SOL    HW2  818   3.507   0.373   0.407
  197SOL    HW3  819   3.573   0.509   0.407
  197SOL    MW4  820   3.562   0.430   0.443
  198SOL     OW  821   4.262   0.486   0.401
  198SOL    HW2  822   4.350   0.516   0.378
  198SOL    HW3  823   4.257   0.397   0.364
  198SOL    MW4  824   4.273   0.478   0.393
  199SOL     OW  825   4.453   0.877   0.442
  199SOL    HW2  826   4.464   0.798   0.390
  199SOL    HW3  827   4.358   0.888   0.450
  199SOL    MW4  828   4.442   0.868   0.436
  200SOL     OW  829   4.030   0.643   0.355
  200SOL    HW2  830   3.978   0.571   0.389
  200SOL    HW3  831   4.118   0.606   0.343
  200SOL    MW4  832   4.035   0.629   0.358
  201SOL     OW  833   4.035   1.120   0.425
  201SOL    HW2  834   4.112   1.176   0.422
  201SOL    HW3  835   3.962   1.181   0.441
  201SOL    MW4  836   4.035   1.135   0.426
  202SOL     OW  837   3.770   1.292   0.463
  202SOL    HW2  838   3.675   1.279   0.455
  202SOL    HW3  839   3.783   1.386   0.449
  202SOL    MW4  840   3.759   1.302   0.460
  203SOL     OW  841   3.613   1.688   0.261
  203SOL    HW2  842   3.526   1.660   0.289
  203SOL    HW3  843   3.615   1.673   0.167
  203SOL    MW4  844   3.602   1.682   0.252
  204SOL     OW  845   3.251   1.065   0.332
  204SOL    HW2  846   3.275   0.978   0.299
  204SOL    HW3  847   3.335   1.107   0.351
  204SOL    MW4  848   3.266   1.059   0.331
  205SOL     OW  849   3.830   2.377   0.143
  205SOL    HW2  850   3.823   2.398   0.050
  205SOL    HW3  851   3.893   2.305   0.147
  205SOL    MW4  852   3.837   2.370   0.131
  206SOL     OW  853   4.212   2.933   0.456
  206SOL    HW2  854   4.232   2.843   0.430
  206SOL    HW3  855   4.117   2.934   0.465
  206SOL    MW4  856   4.202   2.921   0.454
  207SOL     OW  857   3.079   2.544   0.443
  207SOL    HW2  858   3.077   2.553   0.538
  207SOL    HW3  859   3.040   2.458   0.426
  207SOL    MW4  860   3.073   2.533   0.453
  208SOL     OW  861   2.872   3.668   0.420
  208SOL    HW2  862   2.947   3.703   0.372
  208SOL    HW3  863   2.871   3.575   0.399
  208SOL    MW4  864   2.882   3.660   0.411
  209SOL     OW  865   3.164   2.969   0.408
  209SOL    HW2  866   3.216   2.950   0.330
  209SOL    HW3  867   3.088   2.912   0.401
  209SOL    MW4  868   3.161   2.959   0.397
  210SOL     OW  869   3.930   2.960   0.490
  210SOL    HW2  870   3.882   2.884   0.455
  210SOL    HW3  871   3.870   3.033   0.478
  210SOL    MW4  872   3.916   2.959   0.484
  211SOL     OW  873   3.809   2.701   0.459
  211SOL    HW2  874   3.819   2.641   0.386
  211SOL    HW3  875   3.716   2.694   0.482
  211SOL    MW4  876   3.798   2.692   0.453
  212SOL     OW  877   3.856   4.053   0.301
  212SOL    HW2  878   3.822   4.034   0.388
  212SOL    HW3  879   3.859   3.968   0.257
  212SOL    MW4  880   3.852   4.039   0.307
  213SOL     OW  881   3.500   2.442   0.371
  213SOL    HW2  882   3.442   2.418   0.444
  213SOL    HW3  883   3.552   2.363   0.355
  213SOL    MW4  884   3.499   2.429   0.379
  214SOL     OW  885   3.516   3.786   0.533
  214SOL    HW2  886   3.474   3.826   0.609
  214SOL    HW3  887   3.515   3.692   0.552
  214SOL    MW4  888   3.510   3.778   0.546
  215SOL     OW  889   4.296   4.079   0.421
  215SOL    HW2  890   4.248   4.057   0.501
  215SOL    HW3  891   4.235   4.133   0.371
  215SOL    MW4  892   4.282   4.083   0.425
  216SOL     OW  893   3.602   4.135   0.226
  216SOL    HW2  894   3.690   4.100   0.239
  216SOL    HW3  895   3.544   4.060   0.239
  216SOL    MW4  896   3.606   4.121   0.230
  217SOL     OW  897   3.593   4.412   0.334
  217SOL    HW2  898   3.594   4.333   0.280
  217SOL    HW3  899   3.651   4.392   0.407
  217SOL    MW4  900   3.601   4.399   0.336
  218SOL     OW  901   0.036   0.038   0.646
  218SOL    HW2  902   0.005  -0.046   0.612
  218SOL    HW3  903  -0.044   0.091   0.654
  218SOL    MW4  904   0.021   0.034   0.642
  219SOL     OW  905   4.174   0.872   0.476
  219SOL    HW2  906   4.115   0.800   0.453
  219SOL    HW3  907   4.124   0.951   0.454
  219SOL    MW4  908   4.159   0.873   0.470
  220SOL     OW  909   0.496   2.064   0.367
  220SOL    HW2  910   0.533   2.149   0.346
  220SOL    HW3  911   0.408   2.082   0.398
  220SOL    MW4  912   0.489   2.077   0.368
  221SOL     OW  913   0.027   0.584   0.325
  221SOL    HW2  914   0.093   0.519   0.346
  221SOL    HW3  915   0.010   0.572   0.231
  221SOL    MW4  916   0.033   0.574   0.315
  222SOL     OW  917   4.304   1.256   0.412
  222SOL    HW2  918   4.286   1.241   0.504
  222SOL    HW3  919   4.317   1.351   0.405
  222SOL    MW4  920   4.303   1.266   0.423
  223SOL     OW  921   3.635   0.081   0.357
  223SOL    HW2  922   3.650  -0.011   0.339
  223SOL    HW3  923   3.719   0.124   0.339
  223SOL    MW4  924   3.648   0.075   0.353
  224SOL     OW  925   3.813   0.718   0.197
  224SOL    HW2  926   3.831   0.799   0.149
  224SOL    HW3  927   3.878   0.717   0.268
  224SOL    MW4  928   3.824   0.728   0.200
  225SOL     OW  929   0.332   1.566   0.458
  225SOL    HW2  930   0.240   1.593   0.464
  225SOL    HW3  931   0.328   1.475   0.430
  225SOL    MW4  932   0.319   1.558   0.455
  226SOL     OW  933   4.219   2.267   0.362
  226SOL    HW2  934   4.176   2.304   0.438
  226SOL    HW3  935   4.279   2.336   0.332
  226SOL    MW4  936   4.221   2.281   0.368
  227SOL     OW  937   0.497   1.806   0.460
  227SOL    HW2  938   0.431   1.742   0.436
  227SOL    HW3  939   0.482   1.880   0.401
  227SOL    MW4  940   0.487   1.807   0.449
  228SOL     OW  941   1.033   2.532   0.343
  228SOL    HW2  942   0.996   2.488   0.420
  228SOL    HW3  943   0.966   2.595   0.317
  228SOL    MW4  944   1.020   2.534   0.350
  229SOL     OW  945   4.269   2.024   0.485
  229SOL    HW2  946   4.352   1.981   0.465
  229SOL    HW3  947   4.279   2.113   0.450
  229SOL    MW4  948   4.282   2.030   0.478
  230SOL     OW  949   4.413   2.483   0.337
  230SOL    HW2  950   4.455   2.540   0.272
  230SOL    HW3  951   4.486   2.431   0.373
  230SOL    MW4  952   4.428   2.484   0.333
  231SOL     OW  953   4.314   3.567   0.466
  231SOL    HW2  954   4.399   3.549   0.425
  231SOL    HW3  955   4.260   3.491   0.445
  231SOL    MW4  956   4.318   3.555   0.458
  232SOL     OW  957   4.236   2.673   0.398
  232SOL    HW2  958   4.180   2.644   0.470
  232SOL    HW3  959   4.304   2.606   0.392
  232SOL    MW4  960   4.238   2.660   0.407
  233SOL     OW  961   0.264   3.856   0.399
  233SOL    HW2  962   0.189   3.913   0.415
  233SOL    HW3  963   0.337   3.900   0.443
  233SOL    MW4  964   0.264   3.869   0.407
  234SOL     OW  965   0.068   3.501   0.355
  234SOL    HW2  966   0.095   3.532   0.268
  234SOL    HW3  967   0.133   3.537   0.415
  234SOL    MW4  968   0.080   3.510   0.351
  235SOL     OW  969   0.085   3.228   0.389
  235SOL    HW2  970  -0.002   3.195   0.363
  235SOL    HW3  971   0.087   3.317   0.354
  235SOL    MW4  972   0.074   3.236   0.381
  236SOL     OW  973   3.912   3.765   0.240
  236SOL    HW2  974   3.888   3.677   0.269
  236SOL    HW3  975   4.000   3.779   0.275
  236SOL    MW4  976   3.920   3.755   0.249
  237SOL     OW  977   3.745   3.207   0.439
  237SOL    HW2  978   3.773   3.281   0.385
  237SOL    HW3  979   3.649   3.213   0.439
  237SOL    MW4  980   3.736   3.218   0.432
  238SOL     OW  981   0.078   4.035   0.481
  238SOL    HW2  982   0.069   4.026   0.576
  238SOL    HW3  983  -0.013   4.040   0.450
  238SOL    MW4  984   0.065   4.034   0.490
  239SOL     OW  985   4.263   4.478   0.295
  239SOL    HW2  986   4.206   4.402   0.279
  239SOL    HW3  987   4.202   4.548   0.317
  239SOL    MW4  988   4.247   4.477   0.296
  240SOL     OW  989   4.030   4.421   0.527
  240SOL    HW2  990   4.091   4.408   0.599
  240SOL    HW3  991   4.049   4.509   0.494
  240SOL    MW4  992   4.040   4.431   0.532
  241SOL     OW  993   3.748   4.400   0.563
  241SOL    HW2  994   3.712   4.480   0.601
  241SOL    HW3  995   3.839   4.421   0.543
  241SOL    MW4  996   3.755   4.413   0.565
  242SOL     OW  997   0.250   4.622   0.807
  242SOL    HW2  998   0.248   4.533   0.772
  242SOL    HW3  999   0.180   4.668   0.760
  242SOL    MW4 1000   0.240   4.616   0.796
  243SOL     OW 1001   4.290   0.190   0.680
  243SOL    HW2 1002   4.251   0.128   0.742
  243SOL    HW3 1003   4.323   0.261   0.735
  243SOL    MW4 1004   4.289   0.191   0.695
  244SOL     OW 1005   4.445   0.362   0.850
  244SOL    HW2 1006   4.469   0.366   0.943
  244SOL    HW3 1007   4.521   0.399   0.804
  244SOL    MW4 1008   4.458   0.368   0.856
  245SOL     OW 1009   0.199   0.445   0.702
  245SOL    HW2 1010   0.267   0.390   0.741
  245SOL    HW3 1011   0.222   0.534   0.730
  245SOL    MW4 1012   0.211   0.449   0.711
  246SOL     OW 1013   0.242   0.686   0.816
  246SOL    HW2 1014   0.234   0.698   0.910
  246SOL    HW3 1015   0.179   0.748   0.778
  246SOL    MW4 1016   0.233   0.696   0.823
  247SOL     OW 1017   0.040   0.842   0.697
  247SOL    HW2 1018  -0.031   0.793   0.740
  247SOL    HW3 1019   0.014   0.848   0.606
  247SOL    MW4 1020   0.027   0.836   0.691
  248SOL     OW 1021   0.018   1.101   0.802
  248SOL    HW2 1022   0.017   1.080   0.895
  248SOL    HW3 1023   0.035   1.017   0.758
  248SOL    MW4 1024   0.020   1.087   0.808
  249SOL     OW 1025   0.252   1.235   0.725
  249SOL    HW2 1026   0.165   1.195   0.726
  249SOL    HW3 1027   0.272   1.248   0.632
  249SOL    MW4 1028   0.243   1.231   0.713
  250SOL     OW 1029   0.274   1.467   0.885
  250SOL    HW2 1030   0.335   1.522   0.837
  250SOL    HW3 1031   0.269   1.386   0.835
  250SOL    MW4 1032   0.281   1.464   0.872
  251SOL     OW 1033   0.073   1.626   0.762
  251SOL    HW2 1034  -0.009   1.579   0.778
  251SOL    HW3 1035   0.136   1.586   0.823
  251SOL    MW4 1036   0.071   1.614   0.772
  252SOL     OW 1037   0.000   1.882   0.847
  252SOL    HW2 1038   0.071   1.942   0.824
  252SOL    HW3 1039   0.030   1.796   0.816
  252SOL    MW4 1040   0.014   1.879   0.840
  253SOL     OW 1041   0.196   2.055   0.760
  253SOL    HW2 1042   0.192   2.145   0.790
  253SOL    HW3 1043   0.180   2.060   0.666
  253SOL    MW4 1044   0.194   2.067   0.751
  254SOL     OW 1045   0.202   2.323   0.843
  254SOL    HW2 1046   0.193   2.333   0.938
  254SOL    HW3 1047   0.277   2.379   0.820
  254SOL    MW4 1048   0.211   2.332   0.852
  255SOL     OW 1049   4.457   2.436   0.739
  255SOL    HW2 1050   4.380   2.400   0.784
  255SOL    HW3 1051   4.531   2.411   0.794
  255SOL    MW4 1052   4.456   2.428   0.752
  256SOL     OW 1053   4.466   2.706   0.794
  256SOL    HW2 1054   4.454   2.718   0.889
  256SOL    HW3 1055   4.464   2.611   0.782
  256SOL    MW4 1056   4.464   2.695   0.805
  257SOL     OW 1057   0.233   2.782   0.691
  257SOL    HW2 1058   0.146   2.763   0.727
  257SOL    HW3 1059   0.216   2.808   0.601
  257SOL    MW4 1060   0.219   2.783   0.684
  258SOL     OW 1061   0.288   3.048   0.780
  258SOL    HW2 1062   0.259   3.059   0.870
  258SOL    HW3 1063   0.266   2.957   0.759
  258SOL    MW4 1064   0.281   3.037   0.789
  259SOL     OW 1065   0.090   3.232   0.675
  259SOL    HW2 1066   0.165   3.175   0.693
  259SOL    HW3 1067   0.074   3.221   0.581
  259SOL    MW4 1068   0.098   3.223   0.665
  260SOL     OW 1069   0.066   3.459   0.851
  260SOL    HW2 1070  -0.007   3.505   0.810
  260SOL    HW3 1071   0.078   3.381   0.796
  260SOL    MW4 1072   0.058   3.455   0.838
  261SOL     OW 1073   0.249   3.656   0.792
  261SOL    HW2 1074   0.188   3.592   0.829
  261SOL    HW3 1075   0.241   3.645   0.697
  261SOL    MW4 1076   0.240   3.646   0.784
  262SOL     OW 1077   0.268   3.932   0.848
  262SOL    HW2 1078   0.244   3.950   0.938
  262SOL    HW3 1079   0.261   3.837   0.840
  262SOL    MW4 1080   0.264   3.922   0.859
  263SOL     OW 1081   0.047   4.037   0.744
  263SOL    HW2 1082  -0.021   3.974   0.770
  263SOL    HW3 1083   0.129   3.999   0.778
  263SOL    MW4 1084   0.049   4.024   0.752
  264SOL     OW 1085   4.449   4.279   0.829
  264SOL    HW2 1086   4.443   4.286   0.924
  264SOL    HW3 1087   4.477   4.189   0.813
  264SOL    MW4 1088   4.452   4.268   0.839
  265SOL     OW 1089   0.210   4.362   0.729
  265SOL    HW2 1090   0.126   4.353   0.775
  265SOL    HW3 1091   0.197   4.316   0.646
  265SOL    MW4 1092   0.197   4.355   0.724
  266SOL     OW 1093   0.740   4.659   0.790
  266SOL    HW2 1094   0.749   4.650   0.885
  266SOL    HW3 1095   0.655   4.701   0.777
  266SOL    MW4 1096   0.730   4.663   0.801
  267SOL     OW 1097   0.476   0.061   0.692
  267SOL    HW2 1098   0.401   0.026   0.741
  267SOL    HW3 1099   0.467   0.024   0.604
  267SOL    MW4 1100   0.465   0.051   0.687
  268SOL     OW 1101   0.430   0.327   0.781
  268SOL    HW2 1102   0.497   0.391   0.758
  268SOL    HW3 1103   0.461   0.244   0.743
  268SOL    MW4 1104   0.443   0.324   0.773
  269SOL     OW 1105   0.688   0.497   0.711
  269SOL    HW2 1106   0.756   0.454   0.763
  269SOL    HW3 1107   0.690   0.451   0.627
  269SOL    MW4 1108   0.697   0.485   0.707
  270SOL     OW 1109   0.741   0.759   0.775
  270SOL    HW2 1110   0.658   0.804   0.759
  270SOL    HW3 1111   0.719   0.666   0.766
  270SOL    MW4 1112   0.727   0.752   0.771
  271SOL     OW 1113   0.477   0.841   0.741
  271SOL    HW2 1114   0.449   0.925   0.777
  271SOL    HW3 1115   0.412   0.779   0.774
  271SOL    MW4 1116   0.465   0.844   0.750
  272SOL     OW 1117   0.446   1.078   0.856
  272SOL    HW2 1118   0.528   1.126   0.844
  272SOL    HW3 1119   0.382   1.127   0.804
  272SOL    MW4 1120   0.449   1.091   0.848
  273SOL     OW 1121   0.674   1.225   0.794
  273SOL    HW2 1122   0.655   1.317   0.809
  273SOL    HW3 1123   0.680   1.216   0.699
  273SOL    MW4 1124   0.673   1.236   0.784
  274SOL     OW 1125   0.701   1.508   0.774
  274SOL    HW2 1126   0.720   1.538   0.863
  274SOL    HW3 1127   0.614   1.543   0.754
  274SOL    MW4 1128   0.692   1.516   0.783
  275SOL     OW 1129   0.445   1.617   0.706
  275SOL    HW2 1130   0.491   1.700   0.695
  275SOL    HW3 1131   0.413   1.595   0.619
  275SOL    MW4 1132   0.447   1.625   0.693
  276SOL     OW 1133   0.636   1.824   0.726
  276SOL    HW2 1134   0.587   1.885   0.780
  276SOL    HW3 1135   0.611   1.845   0.636
  276SOL    MW4 1136   0.626   1.835   0.721
  277SOL     OW 1137   0.459   2.010   0.864
  277SOL    HW2 1138   0.455   1.964   0.948
  277SOL    HW3 1139   0.367   2.022   0.838
  277SOL    MW4 1140   0.446   2.006   0.871
  278SOL     OW 1141   0.644   2.239   0.805
  278SOL    HW2 1142   0.662   2.253   0.898
  278SOL    HW3 1143   0.582   2.166   0.803
  278SOL    MW4 1144   0.638   2.232   0.817
  279SOL     OW 1145   0.435   2.450   0.777
  279SOL    HW2 1146   0.509   2.394   0.801
  279SOL    HW3 1147   0.440   2.456   0.682
  279SOL    MW4 1148   0.446   2.444   0.768
  280SOL     OW 1149   0.455   2.720   0.859
  280SOL    HW2 1150   0.462   2.625   0.853
  280SOL    HW3 1151   0.370   2.741   0.820
  280SOL    MW4 1152   0.445   2.710   0.853
  281SOL     OW 1153   0.655   2.832   0.725
  281SOL    HW2 1154   0.733   2.792   0.763
  281SOL    HW3 1155   0.582   2.793   0.772
  281SOL    MW4 1156   0.656   2.822   0.736
  282SOL     OW 1157   0.693   3.084   0.858
  282SOL    HW2 1158   0.633   3.151   0.825
  282SOL    HW3 1159   0.674   3.007   0.804
  282SOL    MW4 1160   0.683   3.083   0.846
  283SOL     OW 1161   0.500   3.218   0.719
  283SOL    HW2 1162   0.470   3.305   0.741
  283SOL    HW3 1163   0.423   3.162   0.727
  283SOL    MW4 1164   0.486   3.222   0.723
  284SOL     OW 1165   0.475   3.487   0.824
  284SOL    HW2 1166   0.478   3.464   0.917
  284SOL    HW3 1167   0.397   3.542   0.815
  284SOL    MW4 1168   0.465   3.491   0.836
  285SOL     OW 1169   0.740   3.589   0.748
  285SOL    HW2 1170   0.651   3.562   0.767
  285SOL    HW3 1171   0.744   3.681   0.776
  285SOL    MW4 1172   0.729   3.598   0.754
  286SOL     OW 1173   0.731   3.853   0.826
  286SOL    HW2 1174   0.801   3.900   0.781
  286SOL    HW3 1175   0.653   3.907   0.813
  286SOL    MW4 1176   0.730   3.866   0.819
  287SOL     OW 1177   0.522   4.011   0.759
  287SOL    HW2 1178   0.520   4.105   0.775
  287SOL    HW3 1179   0.439   3.979   0.794
  287SOL    MW4 1180   0.511   4.019   0.765
  288SOL     OW 1181   0.472   4.310   0.784
  288SOL    HW2 1182   0.471   4.307   0.880
  288SOL    HW3 1183   0.380   4.319   0.760
  288SOL    MW4 1184   0.460   4.311   0.794
  289SOL     OW 1185   0.706   4.414   0.664
  289SOL    HW2 1186   0.625   4.382   0.706
  289SOL    HW3 1187   0.725   4.496   0.710
  289SOL    MW4 1188   0.698   4.420   0.676
  290SOL     OW 1189   1.154   4.653   0.800
  290SOL    HW2 1190   1.229   4.703   0.768
  290SOL    HW3 1191   1.078   4.696   0.763
  290SOL    MW4 1192   1.154   4.665   0.791
  291SOL     OW 1193   0.945   0.129   0.683
  291SOL    HW2 1194   0.908   0.215   0.704
  291SOL    HW3 1195   0.874   0.067   0.700
  291SOL    MW4 1196   0.931   0.132   0.688
  292SOL     OW 1197   0.889   0.363   0.837
  292SOL    HW2 1198   0.908   0.350   0.930
  292SOL    HW3 1199   0.963   0.415   0.805
  292SOL    MW4 1200   0.901   0.368   0.845
  293SOL     OW 1201   1.112   0.501   0.759
  293SOL    HW2 1202   1.192   0.462   0.795
  293SOL    HW3 1203   1.118   0.484   0.665
  293SOL    MW4 1204   1.124   0.494   0.751
  294SOL     OW 1205   1.186   0.776   0.827
  294SOL    HW2 1206   1.169   0.775   0.921
  294SOL    HW3 1207   1.156   0.690   0.796
  294SOL    MW4 1208   1.180   0.765   0.835
  295SOL     OW 1209   0.961   0.928   0.743
  295SOL    HW2 1210   1.031   0.880   0.786
  295SOL    HW3 1211   0.885   0.871   0.749
  295SOL    MW4 1212   0.960   0.914   0.750
  296SOL     OW 1213   0.917   1.167   0.859
  296SOL    HW2 1214   0.921   1.081   0.817
  296SOL    HW3 1215   0.831   1.202   0.835
  296SOL    MW4 1216   0.906   1.161   0.851
  297SOL     OW 1217   1.150   1.273   0.771
  297SOL    HW2 1218   1.069   1.236   0.807
  297SOL    HW3 1219   1.149   1.247   0.679
  297SOL    MW4 1220   1.139   1.265   0.764
  298SOL     OW 1221   1.187   1.530   0.876
  298SOL    HW2 1222   1.116   1.569   0.825
  298SOL    HW3 1223   1.184   1.437   0.854
  298SOL    MW4 1224   1.177   1.523   0.867
  299SOL     OW 1225   0.982   1.661   0.737
  299SOL    HW2 1226   0.953   1.741   0.780
  299SOL    HW3 1227   0.902   1.618   0.708
  299SOL    MW4 1228   0.968   1.666   0.739
  300SOL     OW 1229   0.883   1.890   0.832
  300SOL    HW2 1230   0.875   1.894   0.927
  300SOL    HW3 1231   0.795   1.870   0.801
  300SOL    MW4 1232   0.871   1.888   0.840
  301SOL     OW 1233   1.101   2.053   0.835
  301SOL    HW2 1234   1.078   2.140   0.867
  301SOL    HW3 1235   1.019   2.004   0.838
  301SOL    MW4 1236   1.087   2.058   0.840
  302SOL     OW 1237   1.090   2.340   0.853
  302SOL    HW2 1238   1.114   2.345   0.946
  302SOL    HW3 1239   1.173   2.350   0.806
  302SOL    MW4 1240   1.104   2.342   0.859
  303SOL     OW 1241   0.852   2.423   0.719
  303SOL    HW2 1242   0.939   2.407   0.757
  303SOL    HW3 1243   0.797   2.354   0.756
  303SOL    MW4 1244   0.856   2.412   0.729
  304SOL     OW 1245   0.888   2.704   0.796
  304SOL    HW2 1246   0.885   2.688   0.890
  304SOL    HW3 1247   0.857   2.623   0.757
  304SOL    MW4 1248   0.883   2.691   0.803
  305SOL     OW 1249   1.142   2.814   0.651
  305SOL    HW2 1250   1.136   2.909   0.659
  305SOL    HW3 1251   1.061   2.782   0.690
  305SOL    MW4 1252   1.130   2.823   0.657
  306SOL     OW 1253   0.961   3.140   0.894
  306SOL    HW2 1254   0.876   3.102   0.874
  306SOL    HW3 1255   0.950   3.234   0.878
  306SOL    MW4 1256   0.949   3.147   0.889
  307SOL     OW 1257   0.891   3.521   0.518
  307SOL    HW2 1258   0.910   3.607   0.480
  307SOL    HW3 1259   0.835   3.540   0.593
  307SOL    MW4 1260   0.886   3.535   0.523
  308SOL     OW 1261   0.949   3.425   0.871
  308SOL    HW2 1262   1.025   3.457   0.823
  308SOL    HW3 1263   0.875   3.468   0.830
  308SOL    MW4 1264   0.949   3.435   0.859
  309SOL     OW 1265   1.183   3.540   0.777
  309SOL    HW2 1266   1.273   3.526   0.808
  309SOL    HW3 1267   1.190   3.536   0.682
  309SOL    MW4 1268   1.196   3.538   0.769
  310SOL     OW 1269   1.204   3.831   0.791
  310SOL    HW2 1270   1.238   3.845   0.879
  310SOL    HW3 1271   1.209   3.736   0.778
  310SOL    MW4 1272   1.209   3.820   0.801
  311SOL     OW 1273   0.940   3.958   0.683
  311SOL    HW2 1274   0.924   4.048   0.710
  311SOL    HW3 1275   1.020   3.933   0.730
  311SOL    MW4 1276   0.948   3.967   0.693
  312SOL     OW 1277   0.902   4.221   0.753
  312SOL    HW2 1278   0.978   4.268   0.718
  312SOL    HW3 1279   0.828   4.280   0.737
  312SOL    MW4 1280   0.902   4.235   0.746
  313SOL     OW 1281   1.131   4.388   0.719
  313SOL    HW2 1282   1.220   4.356   0.733
  313SOL    HW3 1283   1.134   4.479   0.747
  313SOL    MW4 1284   1.143   4.396   0.725
  314SOL     OW 1285   1.568   4.622   0.778
  314SOL    HW2 1286   1.594   4.640   0.869
  314SOL    HW3 1287   1.493   4.680   0.763
  314SOL    MW4 1288   1.561   4.632   0.788
  315SOL     OW 1289   1.364   0.134   0.706
  315SOL    HW2 1290   1.345   0.219   0.744
  315SOL    HW3 1291   1.325   0.137   0.619
  315SOL    MW4 1292   1.356   0.145   0.700
  316SOL     OW 1293   1.341   0.391   0.863
  316SOL    HW2 1294   1.352   0.391   0.958
  316SOL    HW3 1295   1.420   0.433   0.830
  316SOL    MW4 1296   1.352   0.397   0.871
  317SOL     OW 1297   1.562   0.549   0.760
  317SOL    HW2 1298   1.580   0.635   0.797
  317SOL    HW3 1299   1.639   0.496   0.781
  317SOL    MW4 1300   1.574   0.553   0.768
  318SOL     OW 1301   1.605   0.800   0.863
  318SOL    HW2 1302   1.693   0.826   0.836
  318SOL    HW3 1303   1.547   0.858   0.814
  318SOL    MW4 1304   1.609   0.811   0.853
  319SOL     OW 1305   1.387   0.961   0.722
  319SOL    HW2 1306   1.390   1.037   0.780
  319SOL    HW3 1307   1.299   0.926   0.733
  319SOL    MW4 1308   1.376   0.967   0.731
  320SOL     OW 1309   1.379   1.178   0.895
  320SOL    HW2 1310   1.454   1.202   0.841
  320SOL    HW3 1311   1.304   1.218   0.852
  320SOL    MW4 1312   1.379   1.186   0.882
  321SOL     OW 1313   1.578   1.234   0.730
  321SOL    HW2 1314   1.548   1.322   0.708
  321SOL    HW3 1315   1.585   1.189   0.646
  321SOL    MW4 1316   1.575   1.240   0.716
  322SOL     OW 1317   1.713   1.607   0.859
  322SOL    HW2 1318   1.680   1.590   0.947
  322SOL    HW3 1319   1.806   1.584   0.863
  322SOL    MW4 1320   1.721   1.602   0.871
  323SOL     OW 1321   1.324   1.679   0.695
  323SOL    HW2 1322   1.327   1.763   0.740
  323SOL    HW3 1323   1.270   1.623   0.751
  323SOL    MW4 1324   1.317   1.682   0.709
  324SOL     OW 1325   1.336   1.917   0.865
  324SOL    HW2 1326   1.350   1.898   0.957
  324SOL    HW3 1327   1.260   1.975   0.863
  324SOL    MW4 1328   1.328   1.922   0.877
  325SOL     OW 1329   1.554   2.051   0.776
  325SOL    HW2 1330   1.553   2.037   0.681
  325SOL    HW3 1331   1.475   2.008   0.808
  325SOL    MW4 1332   1.544   2.044   0.768
  326SOL     OW 1333   1.603   2.302   0.826
  326SOL    HW2 1334   1.517   2.343   0.813
  326SOL    HW3 1335   1.587   2.208   0.813
  326SOL    MW4 1336   1.589   2.295   0.823
  327SOL     OW 1337   1.332   2.403   0.741
  327SOL    HW2 1338   1.336   2.499   0.746
  327SOL    HW3 1339   1.331   2.384   0.647
  327SOL    MW4 1340   1.333   2.413   0.729
  328SOL     OW 1341   1.334   2.682   0.802
  328SOL    HW2 1342   1.338   2.721   0.890
  328SOL    HW3 1343   1.267   2.733   0.756
  328SOL    MW4 1344   1.326   2.694   0.808
  329SOL     OW 1345   1.545   2.833   0.679
  329SOL    HW2 1346   1.560   2.915   0.726
  329SOL    HW3 1347   1.466   2.796   0.720
  329SOL    MW4 1348   1.537   2.839   0.691
  330SOL     OW 1349   1.589   3.088   0.810
  330SOL    HW2 1350   1.587   3.106   0.904
  330SOL    HW3 1351   1.507   3.125   0.777
  330SOL    MW4 1352   1.578   3.095   0.818
  331SOL     OW 1353   1.388   3.217   0.663
  331SOL    HW2 1354   1.296   3.189   0.666
  331SOL    HW3 1355   1.418   3.191   0.576
  331SOL    MW4 1356   1.379   3.210   0.652
  332SOL     OW 1357   1.440   3.449   0.817
  332SOL    HW2 1358   1.507   3.493   0.764
  332SOL    HW3 1359   1.426   3.365   0.772
  332SOL    MW4 1360   1.447   3.444   0.804
  333SOL     OW 1361   1.635   3.605   0.685
  333SOL    HW2 1362   1.707   3.571   0.737
  333SOL    HW3 1363   1.661   3.588   0.594
  333SOL    MW4 1364   1.648   3.598   0.680
  334SOL     OW 1365   1.656   3.865   0.758
  334SOL    HW2 1366   1.569   3.904   0.744
  334SOL    HW3 1367   1.648   3.777   0.721
  334SOL    MW4 1368   1.643   3.859   0.751
  335SOL     OW 1369   1.414   4.010   0.741
  335SOL    HW2 1370   1.332   3.960   0.746
  335SOL    HW3 1371   1.421   4.035   0.649
  335SOL    MW4 1372   1.404   4.007   0.729
  336SOL     OW 1373   1.374   4.281   0.757
  336SOL    HW2 1374   1.446   4.312   0.701
  336SOL    HW3 1375   1.379   4.186   0.753
  336SOL    MW4 1376   1.384   4.273   0.749
  337SOL     OW 1377   1.616   4.380   0.653
  337SOL    HW2 1378   1.698   4.342   0.683
  337SOL    HW3 1379   1.614   4.468   0.691
  337SOL    MW4 1380   1.627   4.386   0.662
  338SOL     OW 1381   1.772   0.159   0.773
  338SOL    HW2 1382   1.845   0.105   0.803
  338SOL    HW3 1383   1.706   0.096   0.743
  338SOL    MW4 1384   1.773   0.144   0.773
  339SOL     OW 1385   1.795   0.287   0.535
  339SOL    HW2 1386   1.710   0.281   0.492
  339SOL    HW3 1387   1.781   0.249   0.621
  339SOL    MW4 1388   1.782   0.281   0.540
  340SOL     OW 1389   1.800   0.428   0.842
  340SOL    HW2 1390   1.802   0.335   0.819
  340SOL    HW3 1391   1.883   0.463   0.809
  340SOL    MW4 1392   1.811   0.420   0.835
  341SOL     OW 1393   2.027   0.548   0.737
  341SOL    HW2 1394   2.001   0.531   0.646
  341SOL    HW3 1395   2.094   0.482   0.755
  341SOL    MW4 1396   2.032   0.537   0.727
  342SOL     OW 1397   2.030   0.784   0.868
  342SOL    HW2 1398   2.111   0.831   0.849
  342SOL    HW3 1399   2.036   0.703   0.817
  342SOL    MW4 1400   2.042   0.779   0.859
  343SOL     OW 1401   1.873   0.899   0.694
  343SOL    HW2 1402   1.853   0.983   0.737
  343SOL    HW3 1403   1.934   0.856   0.754
  343SOL    MW4 1404   1.878   0.904   0.708
  344SOL     OW 1405   1.817   1.132   0.819
  344SOL    HW2 1406   1.892   1.186   0.793
  344SOL    HW3 1407   1.740   1.181   0.790
  344SOL    MW4 1408   1.817   1.146   0.812
  345SOL     OW 1409   2.046   1.294   0.761
  345SOL    HW2 1410   2.133   1.273   0.793
  345SOL    HW3 1411   2.047   1.270   0.668
  345SOL    MW4 1412   2.057   1.288   0.753
  346SOL     OW 1413   1.989   1.557   0.791
  346SOL    HW2 1414   2.071   1.601   0.767
  346SOL    HW3 1415   2.003   1.466   0.767
  346SOL    MW4 1416   2.002   1.551   0.785
  347SOL     OW 1417   1.798   1.370   0.364
  347SOL    HW2 1418   1.866   1.355   0.298
  347SOL    HW3 1419   1.747   1.443   0.330
  347SOL    MW4 1420   1.800   1.377   0.351
  348SOL     OW 1421   1.752   1.886   0.864
  348SOL    HW2 1422   1.727   1.793   0.864
  348SOL    HW3 1423   1.674   1.931   0.831
  348SOL    MW4 1424   1.738   1.879   0.859
  349SOL     OW 1425   2.004   2.027   0.783
  349SOL    HW2 1426   2.002   2.119   0.809
  349SOL    HW3 1427   1.914   1.997   0.793
  349SOL    MW4 1428   1.992   2.035   0.788
  350SOL     OW 1429   1.987   2.295   0.860
  350SOL    HW2 1430   1.967   2.310   0.953
  350SOL    HW3 1431   1.932   2.357   0.813
  350SOL    MW4 1432   1.977   2.305   0.866
  351SOL     OW 1433   1.809   2.448   0.727
  351SOL    HW2 1434   1.741   2.388   0.757
  351SOL    HW3 1435   1.832   2.417   0.640
  351SOL    MW4 1436   1.803   2.436   0.719
  352SOL     OW 1437   1.794   2.720   0.744
  352SOL    HW2 1438   1.793   2.624   0.740
  352SOL    HW3 1439   1.704   2.745   0.725
  352SOL    MW4 1440   1.782   2.710   0.741
  353SOL     OW 1441   2.037   2.861   0.727
  353SOL    HW2 1442   2.104   2.796   0.749
  353SOL    HW3 1443   1.954   2.817   0.747
  353SOL    MW4 1444   2.035   2.847   0.732
  354SOL     OW 1445   2.038   3.106   0.829
  354SOL    HW2 1446   1.952   3.143   0.806
  354SOL    HW3 1447   2.031   3.014   0.803
  354SOL    MW4 1448   2.026   3.099   0.822
  355SOL     OW 1449   1.808   3.261   0.729
  355SOL    HW2 1450   1.725   3.229   0.765
  355SOL    HW3 1451   1.808   3.229   0.639
  355SOL    MW4 1452   1.797   3.253   0.722
  356SOL     OW 1453   1.860   3.515   0.822
  356SOL    HW2 1454   1.861   3.505   0.917
  356SOL    HW3 1455   1.851   3.426   0.788
  356SOL    MW4 1456   1.859   3.502   0.830
  357SOL     OW 1457   2.070   3.617   0.703
  357SOL    HW2 1458   2.080   3.700   0.749
  357SOL    HW3 1459   2.002   3.570   0.752
  357SOL    MW4 1460   2.062   3.622   0.715
  358SOL     OW 1461   2.106   3.868   0.821
  358SOL    HW2 1462   2.079   3.880   0.912
  358SOL    HW3 1463   2.027   3.885   0.770
  358SOL    MW4 1464   2.092   3.872   0.826
  359SOL     OW 1465   1.885   3.996   0.678
  359SOL    HW2 1466   1.798   3.963   0.701
  359SOL    HW3 1467   1.891   3.985   0.584
  359SOL    MW4 1468   1.874   3.990   0.669
  360SOL     OW 1469   1.859   4.266   0.747
  360SOL    HW2 1470   1.844   4.272   0.841
  360SOL    HW3 1471   1.876   4.173   0.732
  360SOL    MW4 1472   1.859   4.254   0.757
  361SOL     OW 1473   2.081   4.420   0.675
  361SOL    HW2 1474   2.002   4.366   0.680
  361SOL    HW3 1475   2.103   4.421   0.582
  361SOL    MW4 1476   2.073   4.413   0.663
  362SOL     OW 1477   2.725   0.117   0.754
  362SOL    HW2 1478   2.734   0.118   0.659
  362SOL    HW3 1479   2.723   0.210   0.779
  362SOL    MW4 1480   2.726   0.129   0.745
  363SOL     OW 1481   2.496   0.010   0.848
  363SOL    HW2 1482   2.578   0.054   0.825
  363SOL    HW3 1483   2.493   0.013   0.944
  363SOL    MW4 1484   2.506   0.016   0.858
  364SOL     OW 1485   2.246   0.395   0.778
  364SOL    HW2 1486   2.309   0.447   0.728
  364SOL    HW3 1487   2.257   0.306   0.746
  364SOL    MW4 1488   2.256   0.390   0.767
  365SOL     OW 1489   2.489   0.517   0.652
  365SOL    HW2 1490   2.511   0.502   0.560
  365SOL    HW3 1491   2.561   0.477   0.700
  365SOL    MW4 1492   2.502   0.510   0.646
  366SOL     OW 1493   2.291   0.899   0.380
  366SOL    HW2 1494   2.382   0.877   0.363
  366SOL    HW3 1495   2.266   0.845   0.455
  366SOL    MW4 1496   2.299   0.889   0.387
  367SOL     OW 1497   2.260   0.895   0.809
  367SOL    HW2 1498   2.336   0.862   0.857
  367SOL    HW3 1499   2.265   0.852   0.724
  367SOL    MW4 1500   2.271   0.885   0.804
  368SOL     OW 1501   2.279   1.200   0.860
  368SOL    HW2 1502   2.278   1.198   0.956
  368SOL    HW3 1503   2.251   1.112   0.834
  368SOL    MW4 1504   2.275   1.188   0.869
  369SOL     OW 1505   2.544   1.306   0.826
  369SOL    HW2 1506   2.456   1.269   0.813
  369SOL    HW3 1507   2.572   1.333   0.739
  369SOL    MW4 1508   2.536   1.304   0.813
  370SOL     OW 1509   2.471   1.560   0.929
  370SOL    HW2 1510   2.534   1.609   0.877
  370SOL    HW3 1511   2.480   1.469   0.899
  370SOL    MW4 1512   2.481   1.554   0.918
  371SOL     OW 1513   2.260   1.642   0.741
  371SOL    HW2 1514   2.324   1.612   0.805
  371SOL    HW3 1515   2.307   1.642   0.657
  371SOL    MW4 1516   2.275   1.638   0.738
  372SOL     OW 1517   2.254   1.916   0.807
  372SOL    HW2 1518   2.262   1.822   0.792
  372SOL    HW3 1519   2.166   1.938   0.776
  372SOL    MW4 1520   2.243   1.907   0.801
  373SOL     OW 1521   2.490   2.024   0.715
  373SOL    HW2 1522   2.404   1.984   0.729
  373SOL    HW3 1523   2.513   2.001   0.625
  373SOL    MW4 1524   2.482   2.016   0.705
  374SOL     OW 1525   2.504   2.281   0.824
  374SOL    HW2 1526   2.574   2.320   0.772
  374SOL    HW3 1527   2.495   2.192   0.790
  374SOL    MW4 1528   2.512   2.274   0.813
  375SOL     OW 1529   2.237   2.409   0.774
  375SOL    HW2 1530   2.309   2.353   0.800
  375SOL    HW3 1531   2.159   2.366   0.808
  375SOL    MW4 1532   2.236   2.396   0.782
  376SOL     OW 1533   2.244   2.704   0.806
  376SOL    HW2 1534   2.239   2.706   0.902
  376SOL    HW3 1535   2.242   2.611   0.784
  376SOL    MW4 1536   2.243   2.692   0.816
  377SOL     OW 1537   2.472   2.821   0.704
  377SOL    HW2 1538   2.546   2.787   0.754
  377SOL    HW3 1539   2.395   2.780   0.743
  377SOL    MW4 1540   2.471   2.811   0.716
  378SOL     OW 1541   2.466   3.078   0.814
  378SOL    HW2 1542   2.471   3.076   0.909
  378SOL    HW3 1543   2.452   2.987   0.788
  378SOL    MW4 1544   2.465   3.066   0.823
  379SOL     OW 1545   2.263   3.227   0.736
  379SOL    HW2 1546   2.185   3.187   0.775
  379SOL    HW3 1547   2.336   3.173   0.766
  379SOL    MW4 1548   2.262   3.214   0.745
  380SOL     OW 1549   2.294   3.474   0.838
  380SOL    HW2 1550   2.286   3.385   0.804
  380SOL    HW3 1551   2.211   3.516   0.815
  380SOL    MW4 1552   2.282   3.468   0.830
  381SOL     OW 1553   2.464   3.611   0.678
  381SOL    HW2 1554   2.542   3.582   0.725
  381SOL    HW3 1555   2.391   3.568   0.723
  381SOL    MW4 1556   2.464   3.602   0.690
  382SOL     OW 1557   2.484   3.863   0.806
  382SOL    HW2 1558   2.422   3.917   0.757
  382SOL    HW3 1559   2.488   3.781   0.758
  382SOL    MW4 1560   2.476   3.859   0.793
  383SOL     OW 1561   2.290   4.032   0.711
  383SOL    HW2 1562   2.222   3.974   0.746
  383SOL    HW3 1563   2.258   4.056   0.624
  383SOL    MW4 1564   2.277   4.028   0.705
  384SOL     OW 1565   2.310   4.299   0.761
  384SOL    HW2 1566   2.311   4.204   0.746
  384SOL    HW3 1567   2.221   4.326   0.738
  384SOL    MW4 1568   2.298   4.290   0.756
  385SOL     OW 1569   2.570   4.410   0.812
  385SOL    HW2 1570   2.480   4.378   0.809
  385SOL    HW3 1571   2.562   4.502   0.835
  385SOL    MW4 1572   2.557   4.418   0.815
  386SOL     OW 1573   2.963   4.657   0.795
  386SOL    HW2 1574   2.949   4.562   0.797
  386SOL    HW3 1575   2.880   4.692   0.763
  386SOL    MW4 1576   2.950   4.649   0.791
  387SOL     OW 1577   2.720   4.475   0.495
  387SOL    HW2 1578   2.811   4.481   0.465
  387SOL    HW3 1579   2.685   4.563   0.483
  387SOL    MW4 1580   2.728   4.487   0.490
  388SOL     OW 1581   2.722   0.400   0.801
  388SOL    HW2 1582   2.709   0.414   0.895
  388SOL    HW3 1583   2.810   0.433   0.783
  388SOL    MW4 1584   2.732   0.406   0.811
  389SOL     OW 1585   2.955   0.517   0.727
  389SOL    HW2 1586   3.042   0.478   0.737
  389SOL    HW3 1587   2.943   0.526   0.633
  389SOL    MW4 1588   2.965   0.513   0.716
  390SOL     OW 1589   2.855   0.751   0.861
  390SOL    HW2 1590   2.897   0.764   0.946
  390SOL    HW3 1591   2.897   0.674   0.824
  390SOL    MW4 1592   2.866   0.743   0.867
  391SOL     OW 1593   2.596   0.759   0.798
  391SOL    HW2 1594   2.690   0.755   0.816
  391SOL    HW3 1595   2.574   0.671   0.767
  391SOL    MW4 1596   2.605   0.747   0.796
  392SOL     OW 1597   2.621   1.021   0.657
  392SOL    HW2 1598   2.593   0.943   0.704
  392SOL    HW3 1599   2.540   1.057   0.620
  392SOL    MW4 1600   2.606   1.016   0.658
  393SOL     OW 1601   2.830   1.215   0.755
  393SOL    HW2 1602   2.917   1.195   0.791
  393SOL    HW3 1603   2.784   1.131   0.755
  393SOL    MW4 1604   2.835   1.201   0.759
  394SOL     OW 1605   2.819   1.491   0.804
  394SOL    HW2 1606   2.902   1.511   0.760
  394SOL    HW3 1607   2.808   1.397   0.792
  394SOL    MW4 1608   2.829   1.481   0.797
  395SOL     OW 1609   2.636   1.709   0.756
  395SOL    HW2 1610   2.674   1.787   0.796
  395SOL    HW3 1611   2.706   1.644   0.759
  395SOL    MW4 1612   2.650   1.711   0.762
  396SOL     OW 1613   2.719   1.943   0.857
  396SOL    HW2 1614   2.711   1.951   0.952
  396SOL    HW3 1615   2.632   1.963   0.823
  396SOL    MW4 1616   2.706   1.946   0.865
  397SOL     OW 1617   2.912   2.078   0.703
  397SOL    HW2 1618   2.933   2.163   0.740
  397SOL    HW3 1619   2.854   2.037   0.767
  397SOL    MW4 1620   2.907   2.084   0.716
  398SOL     OW 1621   2.938   2.337   0.832
  398SOL    HW2 1622   2.938   2.332   0.927
  398SOL    HW3 1623   2.849   2.366   0.810
  398SOL    MW4 1624   2.926   2.340   0.841
  399SOL     OW 1625   2.710   2.416   0.691
  399SOL    HW2 1626   2.678   2.429   0.602
  399SOL    HW3 1627   2.700   2.502   0.733
  399SOL    MW4 1628   2.705   2.429   0.685
  400SOL     OW 1629   2.680   2.685   0.822
  400SOL    HW2 1630   2.685   2.703   0.916
  400SOL    HW3 1631   2.760   2.722   0.786
  400SOL    MW4 1632   2.691   2.692   0.830
  401SOL     OW 1633   2.913   2.777   0.445
  401SOL    HW2 1634   2.960   2.695   0.436
  401SOL    HW3 1635   2.820   2.753   0.441
  401SOL    MW4 1636   2.907   2.763   0.443
  402SOL     OW 1637   2.951   3.071   0.792
  402SOL    HW2 1638   2.871   3.109   0.756
  402SOL    HW3 1639   2.948   2.979   0.765
  402SOL    MW4 1640   2.940   3.064   0.784
  403SOL     OW 1641   2.703   3.188   0.698
  403SOL    HW2 1642   2.710   3.280   0.722
  403SOL    HW3 1643   2.616   3.161   0.728
  403SOL    MW4 1644   2.692   3.196   0.705
  404SOL     OW 1645   2.695   3.456   0.784
  404SOL    HW2 1646   2.683   3.465   0.878
  404SOL    HW3 1647   2.769   3.514   0.764
  404SOL    MW4 1648   2.703   3.465   0.794
  405SOL     OW 1649   2.910   3.617   0.685
  405SOL    HW2 1650   2.914   3.708   0.715
  405SOL    HW3 1651   2.899   3.623   0.591
  405SOL    MW4 1652   2.909   3.629   0.677
  406SOL     OW 1653   2.921   3.898   0.788
  406SOL    HW2 1654   2.922   3.868   0.879
  406SOL    HW3 1655   2.841   3.951   0.782
  406SOL    MW4 1656   2.911   3.901   0.799
  407SOL     OW 1657   2.685   4.111   0.795
  407SOL    HW2 1658   2.667   4.130   0.887
  407SOL    HW3 1659   2.631   4.035   0.775
  407SOL    MW4 1660   2.676   4.104   0.805
  408SOL     OW 1661   2.884   4.368   0.813
  408SOL    HW2 1662   2.823   4.327   0.874
  408SOL    HW3 1663   2.965   4.318   0.823
  408SOL    MW4 1664   2.887   4.356   0.823
  409SOL     OW 1665   3.122   4.287   0.506
  409SOL    HW2 1666   3.218   4.288   0.513
  409SOL    HW3 1667   3.091   4.280   0.596
  409SOL    MW4 1668   3.131   4.286   0.518
  410SOL     OW 1669   3.462   0.053   0.783
  410SOL    HW2 1670   3.447   0.038   0.876
  410SOL    HW3 1671   3.377   0.080   0.748
  410SOL    MW4 1672   3.449   0.055   0.791
  411SOL     OW 1673   3.189   0.116   0.719
  411SOL    HW2 1674   3.172   0.202   0.758
  411SOL    HW3 1675   3.116   0.061   0.748
  411SOL    MW4 1676   3.177   0.120   0.728
  412SOL     OW 1677   3.197   0.377   0.779
  412SOL    HW2 1678   3.203   0.391   0.874
  412SOL    HW3 1679   3.285   0.395   0.746
  412SOL    MW4 1680   3.209   0.381   0.787
  413SOL     OW 1681   3.462   0.465   0.715
  413SOL    HW2 1682   3.533   0.420   0.760
  413SOL    HW3 1683   3.490   0.470   0.623
  413SOL    MW4 1684   3.475   0.460   0.709
  414SOL     OW 1685   3.423   0.724   0.812
  414SOL    HW2 1686   3.360   0.735   0.741
  414SOL    HW3 1687   3.461   0.637   0.798
  414SOL    MW4 1688   3.420   0.714   0.801
  415SOL     OW 1689   3.037   0.888   0.700
  415SOL    HW2 1690   3.056   0.964   0.754
  415SOL    HW3 1691   2.971   0.839   0.749
  415SOL    MW4 1692   3.030   0.892   0.714
  416SOL     OW 1693   3.091   1.138   0.838
  416SOL    HW2 1694   3.117   1.138   0.930
  416SOL    HW3 1695   3.158   1.190   0.794
  416SOL    MW4 1696   3.103   1.145   0.844
  417SOL     OW 1697   3.347   1.228   0.718
  417SOL    HW2 1698   3.420   1.185   0.762
  417SOL    HW3 1699   3.359   1.321   0.739
  417SOL    MW4 1700   3.358   1.235   0.727
  418SOL     OW 1701   3.365   1.499   0.778
  418SOL    HW2 1702   3.390   1.507   0.870
  418SOL    HW3 1703   3.444   1.521   0.729
  418SOL    MW4 1704   3.379   1.503   0.783
  419SOL     OW 1705   3.096   1.566   0.716
  419SOL    HW2 1706   3.178   1.520   0.737
  419SOL    HW3 1707   3.111   1.602   0.628
  419SOL    MW4 1708   3.109   1.565   0.707
  420SOL     OW 1709   3.214   1.852   0.816
  420SOL    HW2 1710   3.197   1.874   0.908
  420SOL    HW3 1711   3.183   1.762   0.807
  420SOL    MW4 1712   3.208   1.843   0.827
  421SOL     OW 1713   3.499   1.938   0.829
  421SOL    HW2 1714   3.458   2.024   0.819
  421SOL    HW3 1715   3.432   1.876   0.797
  421SOL    MW4 1716   3.485   1.941   0.823
  422SOL     OW 1717   3.437   2.224   0.831
  422SOL    HW2 1718   3.393   2.255   0.911
  422SOL    HW3 1719   3.527   2.254   0.841
  422SOL    MW4 1720   3.443   2.232   0.843
  423SOL     OW 1721   3.143   2.475   0.700
  423SOL    HW2 1722   3.210   2.422   0.656
  423SOL    HW3 1723   3.081   2.410   0.735
  423SOL    MW4 1724   3.143   2.459   0.698
  424SOL     OW 1725   3.147   2.725   0.824
  424SOL    HW2 1726   3.146   2.634   0.795
  424SOL    HW3 1727   3.212   2.767   0.767
  424SOL    MW4 1728   3.156   2.719   0.812
  425SOL     OW 1729   3.327   2.853   0.665
  425SOL    HW2 1730   3.276   2.886   0.591
  425SOL    HW3 1731   3.393   2.797   0.626
  425SOL    MW4 1732   3.329   2.850   0.650
  426SOL     OW 1733   3.433   3.102   0.785
  426SOL    HW2 1734   3.390   3.107   0.871
  426SOL    HW3 1735   3.400   3.021   0.746
  426SOL    MW4 1736   3.423   3.092   0.791
  427SOL     OW 1737   3.187   3.210   0.705
  427SOL    HW2 1738   3.257   3.156   0.741
  427SOL    HW3 1739   3.107   3.160   0.720
  427SOL    MW4 1740   3.186   3.197   0.712
  428SOL     OW 1741   3.183   3.503   0.746
  428SOL    HW2 1742   3.172   3.411   0.720
  428SOL    HW3 1743   3.099   3.544   0.723
  428SOL    MW4 1744   3.170   3.496   0.739
  429SOL     OW 1745   3.413   4.277   0.475
  429SOL    HW2 1746   3.419   4.190   0.434
  429SOL    HW3 1747   3.451   4.337   0.411
  429SOL    MW4 1748   3.419   4.273   0.461
  430SOL     OW 1749   3.471   3.924   0.786
  430SOL    HW2 1750   3.490   4.017   0.793
  430SOL    HW3 1751   3.418   3.904   0.863
  430SOL    MW4 1752   3.466   3.933   0.797
  431SOL     OW 1753   3.159   4.033   0.733
  431SOL    HW2 1754   3.209   3.975   0.790
  431SOL    HW3 1755   3.068   4.005   0.743
  431SOL    MW4 1756   3.154   4.022   0.741
  432SOL     OW 1757   3.151   4.287   0.795
  432SOL    HW2 1758   3.237   4.325   0.773
  432SOL    HW3 1759   3.160   4.194   0.774
  432SOL    MW4 1760   3.164   4.280   0.790
  433SOL     OW 1761   3.397   4.416   0.722
  433SOL    HW2 1762   3.411   4.510   0.726
  433SOL    HW3 1763   3.433   4.390   0.637
  433SOL    MW4 1764   3.403   4.425   0.711
  434SOL     OW 1765   3.903   4.662   0.877
  434SOL    HW2 1766   3.916   4.756   0.866
  434SOL    HW3 1767   3.843   4.637   0.808
  434SOL    MW4 1768   3.897   4.671   0.867
  435SOL     OW 1769   3.695   4.654   0.636
  435SOL    HW2 1770   3.616   4.684   0.680
  435SOL    HW3 1771   3.699   4.706   0.556
  435SOL    MW4 1772   3.685   4.665   0.631
  436SOL     OW 1773   3.636   0.297   0.857
  436SOL    HW2 1774   3.609   0.300   0.949
  436SOL    HW3 1775   3.596   0.217   0.823
  436SOL    MW4 1776   3.627   0.287   0.865
  437SOL     OW 1777   3.862   0.432   0.431
  437SOL    HW2 1778   3.902   0.438   0.518
  437SOL    HW3 1779   3.769   0.419   0.448
  437SOL    MW4 1780   3.855   0.431   0.445
  438SOL     OW 1781   3.880   0.722   0.790
  438SOL    HW2 1782   3.878   0.715   0.885
  438SOL    HW3 1783   3.958   0.773   0.770
  438SOL    MW4 1784   3.890   0.728   0.800
  439SOL     OW 1785   3.640   0.856   0.710
  439SOL    HW2 1786   3.715   0.802   0.737
  439SOL    HW3 1787   3.564   0.814   0.751
  439SOL    MW4 1788   3.640   0.843   0.719
  440SOL     OW 1789   3.581   1.111   0.814
  440SOL    HW2 1790   3.607   1.093   0.904
  440SOL    HW3 1791   3.594   1.028   0.768
  440SOL    MW4 1792   3.586   1.098   0.820
  441SOL     OW 1793   3.818   1.253   0.739
  441SOL    HW2 1794   3.737   1.216   0.774
  441SOL    HW3 1795   3.802   1.262   0.646
  441SOL    MW4 1796   3.805   1.249   0.732
  442SOL     OW 1797   3.807   1.513   0.810
  442SOL    HW2 1798   3.889   1.547   0.774
  442SOL    HW3 1799   3.805   1.421   0.782
  442SOL    MW4 1800   3.818   1.505   0.802
  443SOL     OW 1801   3.608   1.588   0.630
  443SOL    HW2 1802   3.594   1.683   0.633
  443SOL    HW3 1803   3.670   1.571   0.701
  443SOL    MW4 1804   3.614   1.598   0.640
  444SOL     OW 1805   3.904   1.963   0.613
  444SOL    HW2 1806   3.942   1.942   0.698
  444SOL    HW3 1807   3.815   1.926   0.616
  444SOL    MW4 1808   3.897   1.955   0.624
  445SOL     OW 1809   3.803   2.238   0.578
  445SOL    HW2 1810   3.766   2.262   0.664
  445SOL    HW3 1811   3.821   2.144   0.586
  445SOL    MW4 1812   3.800   2.228   0.591
  446SOL     OW 1813   4.057   1.665   0.447
  446SOL    HW2 1814   3.972   1.633   0.417
  446SOL    HW3 1815   4.064   1.753   0.410
  446SOL    MW4 1816   4.047   1.673   0.438
  447SOL     OW 1817   3.704   2.342   0.814
  447SOL    HW2 1818   3.698   2.437   0.803
  447SOL    HW3 1819   3.739   2.331   0.903
  447SOL    MW4 1820   3.708   2.353   0.825
  448SOL     OW 1821   3.637   2.628   0.797
  448SOL    HW2 1822   3.597   2.649   0.881
  448SOL    HW3 1823   3.696   2.701   0.779
  448SOL    MW4 1824   3.639   2.640   0.806
  449SOL     OW 1825   3.829   2.825   0.736
  449SOL    HW2 1826   3.784   2.901   0.774
  449SOL    HW3 1827   3.858   2.855   0.650
  449SOL    MW4 1828   3.827   2.839   0.730
  450SOL     OW 1829   3.714   3.072   0.809
  450SOL    HW2 1830   3.744   3.160   0.789
  450SOL    HW3 1831   3.619   3.076   0.802
  450SOL    MW4 1832   3.705   3.084   0.805
  451SOL     OW 1833   3.463   3.499   0.629
  451SOL    HW2 1834   3.465   3.414   0.584
  451SOL    HW3 1835   3.381   3.497   0.679
  451SOL    MW4 1836   3.452   3.487   0.630
  452SOL     OW 1837   3.675   3.536   0.817
  452SOL    HW2 1838   3.743   3.476   0.787
  452SOL    HW3 1839   3.599   3.516   0.762
  452SOL    MW4 1840   3.674   3.525   0.805
  453SOL     OW 1841   3.918   3.748   0.648
  453SOL    HW2 1842   3.849   3.767   0.712
  453SOL    HW3 1843   3.960   3.669   0.681
  453SOL    MW4 1844   3.914   3.740   0.661
  454SOL     OW 1845   3.722   3.810   0.853
  454SOL    HW2 1846   3.642   3.861   0.842
  454SOL    HW3 1847   3.694   3.719   0.843
  454SOL    MW4 1848   3.708   3.805   0.850
  455SOL     OW 1849   2.656   4.141   0.223
  455SOL    HW2 1850   2.614   4.227   0.233
  455SOL    HW3 1851   2.714   4.134   0.299
  455SOL    MW4 1852   2.658   4.152   0.234
  456SOL     OW 1853   3.523   4.181   0.838
  456SOL    HW2 1854   3.607   4.173   0.793
  456SOL    HW3 1855   3.482   4.259   0.800
  456SOL    MW4 1856   3.528   4.190   0.827
  457SOL     OW 1857   4.009   4.159   0.848
  457SOL    HW2 1858   3.923   4.168   0.807
  457SOL    HW3 1859   4.056   4.238   0.823
  457SOL    MW4 1860   4.004   4.170   0.839
  458SOL     OW 1861   4.185   4.639   0.844
  458SOL    HW2 1862   4.206   4.635   0.937
  458SOL    HW3 1863   4.089   4.645   0.841
  458SOL    MW4 1864   4.175   4.639   0.856
  459SOL     OW 1865   3.923   0.292   0.870
  459SOL    HW2 1866   3.955   0.335   0.791
  459SOL    HW3 1867   3.831   0.319   0.876
  459SOL    MW4 1868   3.915   0.301   0.860
  460SOL     OW 1869   3.986   0.485   0.681
  460SOL    HW2 1870   4.080   0.493   0.695
  460SOL    HW3 1871   3.948   0.563   0.722
  460SOL    MW4 1872   3.993   0.497   0.688
  461SOL     OW 1873   4.255   0.513   0.683
  461SOL    HW2 1874   4.279   0.498   0.591
  461SOL    HW3 1875   4.324   0.470   0.733
  461SOL    MW4 1876   4.268   0.506   0.677
  462SOL     OW 1877   4.311   0.736   0.812
  462SOL    HW2 1878   4.243   0.801   0.794
  462SOL    HW3 1879   4.281   0.657   0.769
  462SOL    MW4 1880   4.298   0.734   0.804
  463SOL     OW 1881   4.089   0.872   0.733
  463SOL    HW2 1882   4.073   0.960   0.766
  463SOL    HW3 1883   4.114   0.883   0.642
  463SOL    MW4 1884   4.091   0.885   0.726
  464SOL     OW 1885   4.067   1.136   0.820
  464SOL    HW2 1886   4.055   1.127   0.915
  464SOL    HW3 1887   3.991   1.185   0.791
  464SOL    MW4 1888   4.056   1.141   0.829
  465SOL     OW 1889   4.286   1.204   0.680
  465SOL    HW2 1890   4.208   1.190   0.733
  465SOL    HW3 1891   4.359   1.182   0.738
  465SOL    MW4 1892   4.285   1.199   0.694
  466SOL     OW 1893   4.297   1.489   0.764
  466SOL    HW2 1894   4.281   1.485   0.859
  466SOL    HW3 1895   4.301   1.397   0.737
  466SOL    MW4 1896   4.295   1.476   0.773
  467SOL     OW 1897   4.043   1.610   0.727
  467SOL    HW2 1898   4.135   1.584   0.728
  467SOL    HW3 1899   4.028   1.639   0.637
  467SOL    MW4 1900   4.053   1.611   0.715
  468SOL     OW 1901   4.028   1.885   0.849
  468SOL    HW2 1902   4.045   1.796   0.818
  468SOL    HW3 1903   4.108   1.934   0.830
  468SOL    MW4 1904   4.041   1.880   0.842
  469SOL     OW 1905   4.262   2.007   0.761
  469SOL    HW2 1906   4.325   1.941   0.789
  469SOL    HW3 1907   4.264   2.004   0.666
  469SOL    MW4 1908   4.271   1.998   0.752
  470SOL     OW 1909   4.234   2.283   0.820
  470SOL    HW2 1910   4.191   2.328   0.748
  470SOL    HW3 1911   4.232   2.190   0.796
  470SOL    MW4 1912   4.228   2.277   0.807
  471SOL     OW 1913   4.034   2.624   0.607
  471SOL    HW2 1914   4.047   2.647   0.699
  471SOL    HW3 1915   3.951   2.666   0.584
  471SOL    MW4 1916   4.025   2.633   0.616
  472SOL     OW 1917   4.062   2.716   0.870
  472SOL    HW2 1918   4.123   2.786   0.849
  472SOL    HW3 1919   3.977   2.749   0.842
  472SOL    MW4 1920   4.059   2.730   0.863
  473SOL     OW 1921   4.258   2.889   0.752
  473SOL    HW2 1922   4.335   2.832   0.751
  473SOL    HW3 1923   4.233   2.896   0.660
  473SOL    MW4 1924   4.265   2.883   0.739
  474SOL     OW 1925   4.314   3.163   0.786
  474SOL    HW2 1926   4.296   3.070   0.770
  474SOL    HW3 1927   4.401   3.177   0.749
  474SOL    MW4 1928   4.323   3.152   0.779
  475SOL     OW 1929   4.093   3.291   0.692
  475SOL    HW2 1930   4.101   3.382   0.722
  475SOL    HW3 1931   4.176   3.251   0.718
  475SOL    MW4 1932   4.105   3.298   0.699
  476SOL     OW 1933   4.070   3.551   0.765
  476SOL    HW2 1934   4.058   3.533   0.859
  476SOL    HW3 1935   4.163   3.570   0.756
  476SOL    MW4 1936   4.081   3.551   0.776
  477SOL     OW 1937   4.347   3.604   0.748
  477SOL    HW2 1938   4.353   3.697   0.771
  477SOL    HW3 1939   4.340   3.603   0.653
  477SOL    MW4 1940   4.347   3.616   0.738
  478SOL     OW 1941   4.326   3.866   0.817
  478SOL    HW2 1942   4.286   3.871   0.904
  478SOL    HW3 1943   4.265   3.912   0.760
  478SOL    MW4 1944   4.313   3.873   0.821
  479SOL     OW 1945   3.752   3.958   0.520
  479SOL    HW2 1946   3.809   3.887   0.550
  479SOL    HW3 1947   3.664   3.921   0.522
  479SOL    MW4 1948   3.748   3.944   0.525
  480SOL     OW 1949   4.121   3.981   0.674
  480SOL    HW2 1950   4.076   4.031   0.742
  480SOL    HW3 1951   4.066   3.903   0.662
  480SOL    MW4 1952   4.108   3.977   0.681
  481SOL     OW 1953   4.198   4.380   0.751
  481SOL    HW2 1954   4.193   4.462   0.800
  481SOL    HW3 1955   4.281   4.341   0.777
  481SOL    MW4 1956   4.208   4.385   0.761
  482SOL     OW 1957   0.228   0.021   1.088
  482SOL    HW2 1958   0.315   0.053   1.112
  482SOL    HW3 1959   0.229   0.018   0.992
  482SOL    MW4 1960   0.240   0.025   1.079
  483SOL     OW 1961   4.474   0.095   1.210
  483SOL    HW2 1962   4.394   0.061   1.170
  483SOL    HW3 1963   4.545   0.047   1.166
  483SOL    MW4 1964   4.473   0.084   1.199
  484SOL     OW 1965   0.053   0.357   1.114
  484SOL    HW2 1966  -0.020   0.406   1.152
  484SOL    HW3 1967   0.042   0.268   1.145
  484SOL    MW4 1968   0.042   0.352   1.123
  485SOL     OW 1969   0.290   0.466   1.200
  485SOL    HW2 1970   0.285   0.556   1.169
  485SOL    HW3 1971   0.205   0.429   1.180
  485SOL    MW4 1972   0.278   0.473   1.193
  486SOL     OW 1973   0.243   0.717   1.086
  486SOL    HW2 1974   0.316   0.775   1.110
  486SOL    HW3 1975   0.167   0.755   1.131
  486SOL    MW4 1976   0.243   0.730   1.095
  487SOL     OW 1977   0.014   0.846   1.230
  487SOL    HW2 1978   0.004   0.827   1.323
  487SOL    HW3 1979  -0.051   0.790   1.187
  487SOL    MW4 1980   0.005   0.836   1.237
  488SOL     OW 1981   0.011   1.108   1.124
  488SOL    HW2 1982  -0.075   1.138   1.154
  488SOL    HW3 1983   0.026   1.027   1.173
  488SOL    MW4 1984   0.001   1.101   1.134
  489SOL     OW 1985   0.207   1.242   1.256
  489SOL    HW2 1986   0.282   1.205   1.209
  489SOL    HW3 1987   0.131   1.197   1.218
  489SOL    MW4 1988   0.207   1.231   1.245
  490SOL     OW 1989   0.196   1.496   1.142
  490SOL    HW2 1990   0.195   1.404   1.168
  490SOL    HW3 1991   0.225   1.495   1.051
  490SOL    MW4 1992   0.200   1.484   1.134
  491SOL     OW 1993   4.460   1.645   1.208
  491SOL    HW2 1994   4.470   1.729   1.163
  491SOL    HW3 1995   4.542   1.598   1.189
  491SOL    MW4 1996   4.472   1.650   1.200
  492SOL     OW 1997   0.004   1.905   1.112
  492SOL    HW2 1998  -0.082   1.943   1.132
  492SOL    HW3 1999   0.009   1.904   1.016
  492SOL    MW4 2000  -0.007   1.910   1.102
  493SOL     OW 2001   0.217   2.052   1.222
  493SOL    HW2 2002   0.213   2.142   1.190
  493SOL    HW3 2003   0.135   2.012   1.192
  493SOL    MW4 2004   0.206   2.058   1.214
  494SOL     OW 2005   0.189   2.308   1.136
  494SOL    HW2 2006   0.265   2.347   1.180
  494SOL    HW3 2007   0.114   2.360   1.166
  494SOL    MW4 2008   0.189   2.320   1.146
  495SOL     OW 2009   4.470   2.471   1.226
  495SOL    HW2 2010   4.476   2.450   1.319
  495SOL    HW3 2011   4.402   2.412   1.192
  495SOL    MW4 2012   4.462   2.461   1.233
  496SOL     OW 2013   4.456   2.706   1.090
  496SOL    HW2 2014   4.407   2.774   1.136
  496SOL    HW3 2015   4.451   2.630   1.148
  496SOL    MW4 2016   4.449   2.705   1.103
  497SOL     OW 2017   0.199   2.825   1.193
  497SOL    HW2 2018   0.182   2.828   1.288
  497SOL    HW3 2019   0.143   2.754   1.161
  497SOL    MW4 2020   0.189   2.816   1.202
  498SOL     OW 2021   0.252   3.064   1.056
  498SOL    HW2 2022   0.320   3.116   1.100
  498SOL    HW3 2023   0.257   2.978   1.097
  498SOL    MW4 2024   0.262   3.060   1.067
  499SOL     OW 2025   0.034   3.176   1.210
  499SOL    HW2 2026  -0.046   3.134   1.176
  499SOL    HW3 2027   0.105   3.125   1.172
  499SOL    MW4 2028   0.033   3.164   1.200
  500SOL     OW 2029   0.010   3.448   1.127
  500SOL    HW2 2030   0.006   3.358   1.161
  500SOL    HW3 2031   0.005   3.438   1.032
  500SOL    MW4 2032   0.009   3.435   1.119
  501SOL     OW 2033   0.231   3.612   1.205
  501SOL    HW2 2034   0.238   3.571   1.292
  501SOL    HW3 2035   0.164   3.561   1.160
  501SOL    MW4 2036   0.223   3.600   1.211
  502SOL     OW 2037   0.227   3.933   1.120
  502SOL    HW2 2038   0.137   3.948   1.148
  502SOL    HW3 2039   0.242   3.840   1.134
  502SOL    MW4 2040   0.217   3.923   1.125
  503SOL     OW 2041   4.451   3.969   1.175
  503SOL    HW2 2042   4.447   3.965   1.270
  503SOL    HW3 2043   4.362   3.946   1.146
  503SOL    MW4 2044   4.439   3.966   1.184
  504SOL     OW 2045   4.484   4.247   1.111
  504SOL    HW2 2046   4.568   4.289   1.134
  504SOL    HW3 2047   4.488   4.162   1.155
  504SOL    MW4 2048   4.496   4.241   1.120
  505SOL     OW 2049   0.240   4.410   1.156
  505SOL    HW2 2050   0.224   4.396   1.249
  505SOL    HW3 2051   0.226   4.503   1.142
  505SOL    MW4 2052   0.236   4.420   1.166
  506SOL     OW 2053   0.738   4.633   1.069
  506SOL    HW2 2054   0.793   4.689   1.124
  506SOL    HW3 2055   0.724   4.554   1.121
  506SOL    MW4 2056   0.743   4.630   1.083
  507SOL     OW 2057   0.495   0.099   1.153
  507SOL    HW2 2058   0.489   0.180   1.102
  507SOL    HW3 2059   0.571   0.053   1.116
  507SOL    MW4 2060   0.504   0.103   1.141
  508SOL     OW 2061   0.473   0.347   1.050
  508SOL    HW2 2062   0.402   0.381   1.105
  508SOL    HW3 2063   0.440   0.354   0.961
  508SOL    MW4 2064   0.460   0.353   1.046
  509SOL     OW 2065   0.665   0.479   1.204
  509SOL    HW2 2066   0.677   0.571   1.180
  509SOL    HW3 2067   0.606   0.445   1.137
  509SOL    MW4 2068   0.659   0.487   1.192
  510SOL     OW 2069   0.678   0.738   1.103
  510SOL    HW2 2070   0.597   0.778   1.135
  510SOL    HW3 2071   0.675   0.750   1.008
  510SOL    MW4 2072   0.667   0.745   1.095
  511SOL     OW 2073   0.444   0.872   1.210
  511SOL    HW2 2074   0.431   0.866   1.305
  511SOL    HW3 2075   0.423   0.963   1.189
  511SOL    MW4 2076   0.439   0.883   1.220
  512SOL     OW 2077   0.416   1.130   1.123
  512SOL    HW2 2078   0.504   1.162   1.142
  512SOL    HW3 2079   0.414   1.120   1.028
  512SOL    MW4 2080   0.427   1.133   1.113
  513SOL     OW 2081   0.656   1.244   1.165
  513SOL    HW2 2082   0.745   1.210   1.165
  513SOL    HW3 2083   0.664   1.331   1.126
  513SOL    MW4 2084   0.668   1.251   1.160
  514SOL     OW 2085   0.649   1.494   1.072
  514SOL    HW2 2086   0.737   1.522   1.097
  514SOL    HW3 2087   0.590   1.555   1.116
  514SOL    MW4 2088   0.653   1.505   1.081
  515SOL     OW 2089   0.443   1.625   1.202
  515SOL    HW2 2090   0.451   1.621   1.297
  515SOL    HW3 2091   0.361   1.580   1.183
  515SOL    MW4 2092   0.433   1.619   1.212
  516SOL     OW 2093   0.449   1.903   1.117
  516SOL    HW2 2094   0.444   1.813   1.149
  516SOL    HW3 2095   0.365   1.941   1.139
  516SOL    MW4 2096   0.437   1.896   1.124
  517SOL     OW 2097   0.649   2.035   1.229
  517SOL    HW2 2098   0.654   2.014   1.322
  517SOL    HW3 2099   0.571   1.989   1.198
  517SOL    MW4 2100   0.639   2.027   1.237
  518SOL     OW 2101   0.631   2.286   1.090
  518SOL    HW2 2102   0.562   2.333   1.137
  518SOL    HW3 2103   0.657   2.216   1.150
  518SOL    MW4 2104   0.625   2.283   1.104
  519SOL     OW 2105   0.425   2.422   1.236
  519SOL    HW2 2106   0.435   2.429   1.331
  519SOL    HW3 2107   0.439   2.511   1.204
  519SOL    MW4 2108   0.428   2.435   1.244
  520SOL     OW 2109   0.435   2.710   1.147
  520SOL    HW2 2110   0.352   2.751   1.173
  520SOL    HW3 2111   0.444   2.730   1.054
  520SOL    MW4 2112   0.425   2.718   1.138
  521SOL     OW 2113   0.672   2.814   1.256
  521SOL    HW2 2114   0.681   2.909   1.247
  521SOL    HW3 2115   0.584   2.795   1.223
  521SOL    MW4 2116   0.662   2.824   1.250
  522SOL     OW 2117   0.676   3.075   1.133
  522SOL    HW2 2118   0.758   3.121   1.155
  522SOL    HW3 2119   0.683   3.057   1.039
  522SOL    MW4 2120   0.688   3.079   1.123
  523SOL     OW 2121   0.455   3.216   1.212
  523SOL    HW2 2122   0.463   3.300   1.168
  523SOL    HW3 2123   0.526   3.163   1.176
  523SOL    MW4 2124   0.465   3.220   1.201
  524SOL     OW 2125   0.439   3.463   1.099
  524SOL    HW2 2126   0.516   3.507   1.134
  524SOL    HW3 2127   0.365   3.516   1.130
  524SOL    MW4 2128   0.439   3.476   1.107
  525SOL     OW 2129   0.675   3.609   1.195
  525SOL    HW2 2130   0.663   3.605   1.289
  525SOL    HW3 2131   0.696   3.701   1.178
  525SOL    MW4 2132   0.676   3.621   1.205
  526SOL     OW 2133   0.717   3.876   1.114
  526SOL    HW2 2134   0.638   3.918   1.150
  526SOL    HW3 2135   0.702   3.873   1.020
  526SOL    MW4 2136   0.704   3.881   1.106
  527SOL     OW 2137   0.470   4.040   1.206
  527SOL    HW2 2138   0.474   4.121   1.155
  527SOL    HW3 2139   0.382   4.005   1.189
  527SOL    MW4 2140   0.459   4.046   1.197
  528SOL     OW 2141   0.458   4.291   1.052
  528SOL    HW2 2142   0.533   4.345   1.078
  528SOL    HW3 2143   0.382   4.333   1.092
  528SOL    MW4 2144   0.458   4.304   1.060
  529SOL     OW 2145   0.709   4.361   1.153
  529SOL    HW2 2146   0.715   4.364   1.248
  529SOL    HW3 2147   0.782   4.306   1.126
  529SOL    MW4 2148   0.719   4.354   1.162
  530SOL     OW 2149   1.128   4.642   1.075
  530SOL    HW2 2150   1.148   4.555   1.110
  530SOL    HW3 2151   1.146   4.634   0.981
  530SOL    MW4 2152   1.133   4.629   1.067
  531SOL     OW 2153   0.937   0.131   1.200
  531SOL    HW2 2154   0.943   0.123   1.295
  531SOL    HW3 2155   1.001   0.068   1.166
  531SOL    MW4 2156   0.946   0.121   1.208
  532SOL     OW 2157   0.945   0.387   1.135
  532SOL    HW2 2158   0.940   0.294   1.157
  532SOL    HW3 2159   0.858   0.422   1.155
  532SOL    MW4 2160   0.933   0.380   1.141
  533SOL     OW 2161   1.164   0.504   1.238
  533SOL    HW2 2162   1.149   0.497   1.332
  533SOL    HW3 2163   1.088   0.463   1.198
  533SOL    MW4 2164   1.152   0.498   1.245
  534SOL     OW 2165   1.129   0.751   1.107
  534SOL    HW2 2166   1.066   0.800   1.160
  534SOL    HW3 2167   1.133   0.664   1.147
  534SOL    MW4 2168   1.121   0.746   1.119
  535SOL     OW 2169   0.889   0.883   1.234
  535SOL    HW2 2170   0.899   0.967   1.188
  535SOL    HW3 2171   0.818   0.839   1.188
  535SOL    MW4 2172   0.881   0.888   1.222
  536SOL     OW 2173   0.916   1.151   1.144
  536SOL    HW2 2174   0.986   1.199   1.189
  536SOL    HW3 2175   0.927   1.174   1.052
  536SOL    MW4 2176   0.927   1.160   1.138
  537SOL     OW 2177   1.131   1.301   1.232
  537SOL    HW2 2178   1.118   1.312   1.327
  537SOL    HW3 2179   1.217   1.260   1.225
  537SOL    MW4 2180   1.141   1.297   1.244
  538SOL     OW 2181   1.165   1.579   1.152
  538SOL    HW2 2182   1.142   1.497   1.195
  538SOL    HW3 2183   1.165   1.558   1.058
  538SOL    MW4 2184   1.162   1.566   1.145
  539SOL     OW 2185   0.877   1.603   1.123
  539SOL    HW2 2186   0.864   1.698   1.129
  539SOL    HW3 2187   0.972   1.592   1.124
  539SOL    MW4 2188   0.888   1.614   1.124
  540SOL     OW 2189   0.864   1.894   1.127
  540SOL    HW2 2190   0.937   1.935   1.172
  540SOL    HW3 2191   0.786   1.936   1.164
  540SOL    MW4 2192   0.863   1.905   1.138
  541SOL     OW 2193   1.093   2.032   1.227
  541SOL    HW2 2194   1.093   2.036   1.323
  541SOL    HW3 2195   1.071   2.121   1.199
  541SOL    MW4 2196   1.090   2.044   1.236
  542SOL     OW 2197   1.085   2.329   1.123
  542SOL    HW2 2198   1.154   2.387   1.153
  542SOL    HW3 2199   1.004   2.374   1.145
  542SOL    MW4 2200   1.083   2.342   1.130
  543SOL     OW 2201   0.849   2.446   1.195
  543SOL    HW2 2202   0.841   2.448   1.291
  543SOL    HW3 2203   0.767   2.408   1.165
  543SOL    MW4 2204   0.837   2.442   1.204
  544SOL     OW 2205   0.837   2.696   1.068
  544SOL    HW2 2206   0.831   2.613   1.115
  544SOL    HW3 2207   0.777   2.754   1.115
  544SOL    MW4 2208   0.828   2.693   1.080
  545SOL     OW 2209   1.048   2.842   1.170
  545SOL    HW2 2210   1.044   2.841   1.266
  545SOL    HW3 2211   0.981   2.778   1.144
  545SOL    MW4 2212   1.038   2.833   1.180
  546SOL     OW 2213   1.172   3.076   1.078
  546SOL    HW2 2214   1.143   3.000   1.129
  546SOL    HW3 2215   1.110   3.081   1.006
  546SOL    MW4 2216   1.160   3.067   1.076
  547SOL     OW 2217   0.943   3.194   1.225
  547SOL    HW2 2218   0.931   3.281   1.187
  547SOL    HW3 2219   1.017   3.157   1.177
  547SOL    MW4 2220   0.951   3.200   1.214
  548SOL     OW 2221   0.900   3.453   1.156
  548SOL    HW2 2222   0.827   3.513   1.172
  548SOL    HW3 2223   0.917   3.460   1.062
  548SOL    MW4 2224   0.893   3.461   1.146
  549SOL     OW 2225   1.136   3.608   1.189
  549SOL    HW2 2226   1.210   3.561   1.149
  549SOL    HW3 2227   1.063   3.547   1.183
  549SOL    MW4 2228   1.136   3.593   1.183
  550SOL     OW 2229   1.163   3.876   1.068
  550SOL    HW2 2230   1.089   3.917   1.113
  550SOL    HW3 2231   1.158   3.784   1.095
  550SOL    MW4 2232   1.153   3.869   1.078
  551SOL     OW 2233   0.943   4.006   1.171
  551SOL    HW2 2234   0.947   4.008   1.266
  551SOL    HW3 2235   0.864   3.956   1.150
  551SOL    MW4 2236   0.933   4.000   1.180
  552SOL     OW 2237   0.960   4.253   1.035
  552SOL    HW2 2238   0.962   4.166   1.075
  552SOL    HW3 2239   0.948   4.237   0.941
  552SOL    MW4 2240   0.959   4.240   1.028
  553SOL     OW 2241   1.177   4.376   1.168
  553SOL    HW2 2242   1.166   4.373   1.263
  553SOL    HW3 2243   1.104   4.324   1.135
  553SOL    MW4 2244   1.166   4.369   1.176
  554SOL     OW 2245   1.596   0.011   1.065
  554SOL    HW2 2246   1.661   0.056   1.120
  554SOL    HW3 2247   1.603  -0.080   1.091
  554SOL    MW4 2248   1.606   0.005   1.076
  555SOL     OW 2249   1.365   0.090   1.195
  555SOL    HW2 2250   1.441   0.052   1.151
  555SOL    HW3 2251   1.290   0.041   1.160
  555SOL    MW4 2252   1.365   0.078   1.185
  556SOL     OW 2253   1.372   0.357   1.143
  556SOL    HW2 2254   1.351   0.264   1.147
  556SOL    HW3 2255   1.290   0.401   1.163
  556SOL    MW4 2256   1.359   0.350   1.146
  557SOL     OW 2257   1.582   0.515   1.206
  557SOL    HW2 2258   1.558   0.603   1.177
  557SOL    HW3 2259   1.510   0.459   1.176
  557SOL    MW4 2260   1.569   0.519   1.198
  558SOL     OW 2261   1.571   0.783   1.147
  558SOL    HW2 2262   1.654   0.823   1.169
  558SOL    HW3 2263   1.566   0.790   1.051
  558SOL    MW4 2264   1.581   0.789   1.137
  559SOL     OW 2265   1.321   0.887   1.226
  559SOL    HW2 2266   1.404   0.840   1.212
  559SOL    HW3 2267   1.259   0.843   1.168
  559SOL    MW4 2268   1.324   0.875   1.216
  560SOL     OW 2269   1.368   1.154   1.160
  560SOL    HW2 2270   1.354   1.060   1.170
  560SOL    HW3 2271   1.372   1.168   1.065
  560SOL    MW4 2272   1.367   1.143   1.149
  561SOL     OW 2273   1.617   1.292   1.225
  561SOL    HW2 2274   1.698   1.244   1.210
  561SOL    HW3 2275   1.548   1.226   1.217
  561SOL    MW4 2276   1.619   1.277   1.222
  562SOL     OW 2277   1.610   1.565   1.121
  562SOL    HW2 2278   1.691   1.593   1.163
  562SOL    HW3 2279   1.614   1.469   1.125
  562SOL    MW4 2280   1.621   1.556   1.127
  563SOL     OW 2281   1.398   1.674   1.275
  563SOL    HW2 2282   1.463   1.635   1.217
  563SOL    HW3 2283   1.314   1.652   1.236
  563SOL    MW4 2284   1.395   1.666   1.262
  564SOL     OW 2285   1.352   1.924   1.153
  564SOL    HW2 2286   1.376   1.846   1.202
  564SOL    HW3 2287   1.262   1.943   1.182
  564SOL    MW4 2288   1.343   1.916   1.164
  565SOL     OW 2289   1.559   2.079   1.247
  565SOL    HW2 2290   1.558   2.166   1.205
  565SOL    HW3 2291   1.472   2.043   1.229
  565SOL    MW4 2292   1.547   2.086   1.239
  566SOL     OW 2293   1.563   2.336   1.103
  566SOL    HW2 2294   1.483   2.388   1.097
  566SOL    HW3 2295   1.580   2.307   1.013
  566SOL    MW4 2296   1.555   2.339   1.090
  567SOL     OW 2297   1.317   2.486   1.183
  567SOL    HW2 2298   1.309   2.505   1.276
  567SOL    HW3 2299   1.310   2.572   1.141
  567SOL    MW4 2300   1.315   2.500   1.190
  568SOL     OW 2301   1.290   2.740   1.086
  568SOL    HW2 2302   1.370   2.783   1.113
  568SOL    HW3 2303   1.219   2.791   1.125
  568SOL    MW4 2304   1.291   2.752   1.094
  569SOL     OW 2305   1.530   2.878   1.223
  569SOL    HW2 2306   1.604   2.831   1.184
  569SOL    HW3 2307   1.532   2.965   1.183
  569SOL    MW4 2308   1.540   2.883   1.212
  570SOL     OW 2309   1.571   3.113   1.094
  570SOL    HW2 2310   1.649   3.156   1.127
  570SOL    HW3 2311   1.498   3.167   1.126
  570SOL    MW4 2312   1.571   3.126   1.103
  571SOL     OW 2313   1.348   3.253   1.207
  571SOL    HW2 2314   1.334   3.238   1.300
  571SOL    HW3 2315   1.293   3.187   1.164
  571SOL    MW4 2316   1.339   3.242   1.213
  572SOL     OW 2317   1.360   3.500   1.084
  572SOL    HW2 2318   1.353   3.418   1.133
  572SOL    HW3 2319   1.400   3.475   1.001
  572SOL    MW4 2320   1.364   3.486   1.079
  573SOL     OW 2321   1.589   3.616   1.194
  573SOL    HW2 2322   1.583   3.700   1.148
  573SOL    HW3 2323   1.512   3.568   1.165
  573SOL    MW4 2324   1.578   3.621   1.184
  574SOL     OW 2325   1.618   3.842   1.024
  574SOL    HW2 2326   1.541   3.896   1.042
  574SOL    HW3 2327   1.629   3.848   0.929
  574SOL    MW4 2328   1.609   3.850   1.014
  575SOL     OW 2329   1.409   3.977   1.128
  575SOL    HW2 2330   1.403   4.066   1.093
  575SOL    HW3 2331   1.322   3.940   1.115
  575SOL    MW4 2332   1.397   3.984   1.121
  576SOL     OW 2333   1.388   4.244   1.035
  576SOL    HW2 2334   1.316   4.290   1.079
  576SOL    HW3 2335   1.379   4.269   0.943
  576SOL    MW4 2336   1.377   4.253   1.029
  577SOL     OW 2337   1.604   4.406   1.155
  577SOL    HW2 2338   1.585   4.414   1.249
  577SOL    HW3 2339   1.525   4.368   1.118
  577SOL    MW4 2340   1.591   4.402   1.163
  578SOL     OW 2341   2.026   0.043   1.038
  578SOL    HW2 2342   2.030  -0.045   1.074
  578SOL    HW3 2343   2.033   0.030   0.943
  578SOL    MW4 2344   2.028   0.030   1.030
  579SOL     OW 2345   1.814   0.145   1.199
  579SOL    HW2 2346   1.804   0.235   1.167
  579SOL    HW3 2347   1.886   0.109   1.147
  579SOL    MW4 2348   1.822   0.152   1.188
  580SOL     OW 2349   1.817   0.415   1.128
  580SOL    HW2 2350   1.733   0.447   1.162
  580SOL    HW3 2351   1.812   0.431   1.034
  580SOL    MW4 2352   1.805   0.421   1.120
  581SOL     OW 2353   2.071   0.463   1.220
  581SOL    HW2 2354   2.064   0.477   1.315
  581SOL    HW3 2355   1.982   0.443   1.192
  581SOL    MW4 2356   2.059   0.462   1.229
  582SOL     OW 2357   2.081   0.755   1.148
  582SOL    HW2 2358   2.097   0.664   1.175
  582SOL    HW3 2359   2.070   0.751   1.053
  582SOL    MW4 2360   2.082   0.742   1.139
  583SOL     OW 2361   1.820   0.901   1.214
  583SOL    HW2 2362   1.819   0.880   1.308
  583SOL    HW3 2363   1.890   0.847   1.178
  583SOL    MW4 2364   1.829   0.891   1.222
  584SOL     OW 2365   1.833   1.164   1.095
  584SOL    HW2 2366   1.824   1.081   1.142
  584SOL    HW3 2367   1.826   1.140   1.003
  584SOL    MW4 2368   1.831   1.149   1.089
  585SOL     OW 2369   2.031   1.327   1.207
  585SOL    HW2 2370   2.113   1.287   1.177
  585SOL    HW3 2371   1.962   1.275   1.166
  585SOL    MW4 2372   2.033   1.315   1.197
  586SOL     OW 2373   2.034   1.574   1.082
  586SOL    HW2 2374   2.022   1.487   1.121
  586SOL    HW3 2375   2.024   1.559   0.988
  586SOL    MW4 2376   2.031   1.561   1.075
  587SOL     OW 2377   1.834   1.697   1.233
  587SOL    HW2 2378   1.826   1.791   1.219
  587SOL    HW3 2379   1.911   1.671   1.182
  587SOL    MW4 2380   1.843   1.706   1.224
  588SOL     OW 2381   1.799   1.955   1.139
  588SOL    HW2 2382   1.715   1.990   1.169
  588SOL    HW3 2383   1.784   1.931   1.047
  588SOL    MW4 2384   1.786   1.957   1.131
  589SOL     OW 2385   2.031   2.080   1.203
  589SOL    HW2 2386   2.014   2.069   1.296
  589SOL    HW3 2387   1.959   2.033   1.160
  589SOL    MW4 2388   2.019   2.073   1.209
  590SOL     OW 2389   1.980   2.361   1.151
  590SOL    HW2 2390   2.062   2.411   1.156
  590SOL    HW3 2391   2.005   2.271   1.171
  590SOL    MW4 2392   1.994   2.356   1.155
  591SOL     OW 2393   1.751   2.512   1.205
  591SOL    HW2 2394   1.832   2.464   1.190
  591SOL    HW3 2395   1.683   2.456   1.168
  591SOL    MW4 2396   1.753   2.498   1.198
  592SOL     OW 2397   1.763   2.763   1.063
  592SOL    HW2 2398   1.757   2.671   1.090
  592SOL    HW3 2399   1.788   2.758   0.970
  592SOL    MW4 2400   1.766   2.750   1.054
  593SOL     OW 2401   2.002   2.823   1.198
  593SOL    HW2 2402   1.999   2.918   1.189
  593SOL    HW3 2403   1.920   2.792   1.158
  593SOL    MW4 2404   1.991   2.831   1.191
  594SOL     OW 2405   2.013   3.099   1.113
  594SOL    HW2 2406   1.939   3.159   1.124
  594SOL    HW3 2407   2.024   3.091   1.019
  594SOL    MW4 2408   2.005   3.106   1.102
  595SOL     OW 2409   1.792   3.249   1.159
  595SOL    HW2 2410   1.790   3.239   1.254
  595SOL    HW3 2411   1.814   3.341   1.145
  595SOL    MW4 2412   1.795   3.260   1.169
  596SOL     OW 2413   1.838   3.503   1.099
  596SOL    HW2 2414   1.903   3.548   1.153
  596SOL    HW3 2415   1.755   3.548   1.118
  596SOL    MW4 2416   1.836   3.515   1.109
  597SOL     OW 2417   2.048   3.639   1.215
  597SOL    HW2 2418   2.034   3.626   1.309
  597SOL    HW3 2419   2.131   3.594   1.197
  597SOL    MW4 2420   2.057   3.631   1.225
  598SOL     OW 2421   2.051   3.891   1.092
  598SOL    HW2 2422   1.962   3.921   1.111
  598SOL    HW3 2423   2.054   3.802   1.128
  598SOL    MW4 2424   2.039   3.883   1.099
  599SOL     OW 2425   1.811   4.036   1.136
  599SOL    HW2 2426   1.812   4.028   1.231
  599SOL    HW3 2427   1.739   3.979   1.108
  599SOL    MW4 2428   1.802   4.027   1.144
  600SOL     OW 2429   1.827   4.285   1.020
  600SOL    HW2 2430   1.829   4.196   1.054
  600SOL    HW3 2431   1.747   4.323   1.057
  600SOL    MW4 2432   1.817   4.279   1.029
  601SOL     OW 2433   2.048   4.430   1.123
  601SOL    HW2 2434   2.060   4.415   1.217
  601SOL    HW3 2435   1.969   4.382   1.101
  601SOL    MW4 2436   2.039   4.422   1.133
  602SOL     OW 2437   2.494   0.014   1.135
  602SOL    HW2 2438   2.569   0.072   1.151
  602SOL    HW3 2439   2.418   0.067   1.157
  602SOL    MW4 2440   2.494   0.029   1.140
  603SOL     OW 2441   2.262   0.140   1.181
  603SOL    HW2 2442   2.273   0.225   1.140
  603SOL    HW3 2443   2.184   0.103   1.139
  603SOL    MW4 2444   2.253   0.146   1.170
  604SOL     OW 2445   2.284   0.389   1.057
  604SOL    HW2 2446   2.207   0.427   1.098
  604SOL    HW3 2447   2.270   0.401   0.963
  604SOL    MW4 2448   2.272   0.395   1.050
  605SOL     OW 2449   2.477   0.558   1.153
  605SOL    HW2 2450   2.466   0.551   1.248
  605SOL    HW3 2451   2.416   0.495   1.116
  605SOL    MW4 2452   2.468   0.549   1.161
  606SOL     OW 2453   2.489   0.806   1.045
  606SOL    HW2 2454   2.495   0.721   1.089
  606SOL    HW3 2455   2.522   0.789   0.957
  606SOL    MW4 2456   2.494   0.792   1.039
  607SOL     OW 2457   2.288   0.936   1.192
  607SOL    HW2 2458   2.354   0.886   1.145
  607SOL    HW3 2459   2.208   0.884   1.184
  607SOL    MW4 2460   2.286   0.922   1.185
  608SOL     OW 2461   2.262   1.201   1.134
  608SOL    HW2 2462   2.338   1.242   1.176
  608SOL    HW3 2463   2.264   1.110   1.165
  608SOL    MW4 2464   2.272   1.195   1.144
  609SOL     OW 2465   2.493   1.285   1.254
  609SOL    HW2 2466   2.564   1.249   1.201
  609SOL    HW3 2467   2.496   1.379   1.238
  609SOL    MW4 2468   2.503   1.292   1.245
  610SOL     OW 2469   2.488   1.557   1.217
  610SOL    HW2 2470   2.416   1.612   1.246
  610SOL    HW3 2471   2.482   1.557   1.122
  610SOL    MW4 2472   2.478   1.564   1.208
  611SOL     OW 2473   2.254   1.704   1.264
  611SOL    HW2 2474   2.251   1.786   1.214
  611SOL    HW3 2475   2.183   1.651   1.227
  611SOL    MW4 2476   2.244   1.708   1.253
  612SOL     OW 2477   2.257   1.946   1.103
  612SOL    HW2 2478   2.180   1.991   1.139
  612SOL    HW3 2479   2.245   1.953   1.008
  612SOL    MW4 2480   2.245   1.953   1.095
  613SOL     OW 2481   2.451   2.105   1.230
  613SOL    HW2 2482   2.534   2.064   1.208
  613SOL    HW3 2483   2.385   2.054   1.182
  613SOL    MW4 2484   2.453   2.093   1.221
  614SOL     OW 2485   2.476   2.349   1.082
  614SOL    HW2 2486   2.481   2.269   1.135
  614SOL    HW3 2487   2.492   2.319   0.993
  614SOL    MW4 2488   2.479   2.334   1.078
  615SOL     OW 2489   2.231   2.466   1.202
  615SOL    HW2 2490   2.238   2.461   1.298
  615SOL    HW3 2491   2.311   2.425   1.170
  615SOL    MW4 2492   2.243   2.460   1.211
  616SOL     OW 2493   2.220   2.713   1.090
  616SOL    HW2 2494   2.212   2.623   1.121
  616SOL    HW3 2495   2.135   2.753   1.110
  616SOL    MW4 2496   2.208   2.706   1.097
  617SOL     OW 2497   2.438   2.808   1.228
  617SOL    HW2 2498   2.436   2.803   1.324
  617SOL    HW3 2499   2.358   2.765   1.200
  617SOL    MW4 2500   2.427   2.801   1.237
  618SOL     OW 2501   2.483   3.050   1.098
  618SOL    HW2 2502   2.417   3.111   1.131
  618SOL    HW3 2503   2.462   2.967   1.141
  618SOL    MW4 2504   2.471   3.047   1.108
  619SOL     OW 2505   2.268   3.211   1.193
  619SOL    HW2 2506   2.253   3.301   1.163
  619SOL    HW3 2507   2.184   3.167   1.177
  619SOL    MW4 2508   2.255   3.217   1.187
  620SOL     OW 2509   2.268   3.488   1.118
  620SOL    HW2 2510   2.354   3.523   1.141
  620SOL    HW3 2511   2.269   3.481   1.023
  620SOL    MW4 2512   2.280   3.492   1.108
  621SOL     OW 2513   2.502   3.613   1.189
  621SOL    HW2 2514   2.488   3.614   1.283
  621SOL    HW3 2515   2.495   3.705   1.163
  621SOL    MW4 2516   2.499   3.625   1.198
  622SOL     OW 2517   2.470   3.887   1.066
  622SOL    HW2 2518   2.399   3.946   1.093
  622SOL    HW3 2519   2.464   3.884   0.971
  622SOL    MW4 2520   2.460   3.894   1.057
  623SOL     OW 2521   2.257   4.047   1.172
  623SOL    HW2 2522   2.260   4.140   1.150
  623SOL    HW3 2523   2.171   4.018   1.142
  623SOL    MW4 2524   2.246   4.055   1.165
  624SOL     OW 2525   2.279   4.316   1.066
  624SOL    HW2 2526   2.203   4.373   1.076
  624SOL    HW3 2527   2.297   4.317   0.972
  624SOL    MW4 2528   2.271   4.323   1.055
  625SOL     OW 2529   2.519   4.408   1.211
  625SOL    HW2 2530   2.438   4.387   1.164
  625SOL    HW3 2531   2.534   4.501   1.194
  625SOL    MW4 2532   2.511   4.418   1.202
  626SOL     OW 2533   2.927   0.030   1.088
  626SOL    HW2 2534   2.930  -0.056   1.129
  626SOL    HW3 2535   2.919   0.012   0.994
  626SOL    MW4 2536   2.926   0.017   1.081
  627SOL     OW 2537   2.705   0.188   1.175
  627SOL    HW2 2538   2.697   0.178   1.270
  627SOL    HW3 2539   2.785   0.140   1.153
  627SOL    MW4 2540   2.715   0.181   1.185
  628SOL     OW 2541   2.703   0.446   1.083
  628SOL    HW2 2542   2.702   0.361   1.127
  628SOL    HW3 2543   2.623   0.489   1.112
  628SOL    MW4 2544   2.692   0.440   1.093
  629SOL     OW 2545   2.972   0.493   1.167
  629SOL    HW2 2546   2.976   0.586   1.146
  629SOL    HW3 2547   2.888   0.464   1.131
  629SOL    MW4 2548   2.961   0.501   1.159
  630SOL     OW 2549   2.961   0.780   1.121
  630SOL    HW2 2550   3.042   0.826   1.141
  630SOL    HW3 2551   2.892   0.839   1.153
  630SOL    MW4 2552   2.962   0.794   1.128
  631SOL     OW 2553   2.723   0.926   1.171
  631SOL    HW2 2554   2.701   1.019   1.183
  631SOL    HW3 2555   2.645   0.888   1.132
  631SOL    MW4 2556   2.710   0.934   1.168
  632SOL     OW 2557   2.669   1.198   1.076
  632SOL    HW2 2558   2.754   1.234   1.100
  632SOL    HW3 2559   2.648   1.239   0.992
  632SOL    MW4 2560   2.677   1.208   1.068
  633SOL     OW 2561   2.910   1.289   1.196
  633SOL    HW2 2562   2.915   1.297   1.291
  633SOL    HW3 2563   2.909   1.380   1.165
  633SOL    MW4 2564   2.910   1.302   1.204
  634SOL     OW 2565   2.882   1.553   1.082
  634SOL    HW2 2566   2.975   1.572   1.091
  634SOL    HW3 2567   2.864   1.562   0.989
  634SOL    MW4 2568   2.892   1.556   1.071
  635SOL     OW 2569   2.703   1.738   1.238
  635SOL    HW2 2570   2.775   1.683   1.207
  635SOL    HW3 2571   2.630   1.677   1.252
  635SOL    MW4 2572   2.703   1.723   1.236
  636SOL     OW 2573   2.688   1.992   1.127
  636SOL    HW2 2574   2.778   2.019   1.140
  636SOL    HW3 2575   2.683   1.904   1.164
  636SOL    MW4 2576   2.699   1.984   1.134
  637SOL     OW 2577   2.950   2.041   1.204
  637SOL    HW2 2578   2.925   2.030   1.296
  637SOL    HW3 2579   2.949   2.136   1.190
  637SOL    MW4 2580   2.947   2.052   1.215
  638SOL     OW 2581   2.942   2.306   1.122
  638SOL    HW2 2582   3.008   2.373   1.139
  638SOL    HW3 2583   2.858   2.352   1.133
  638SOL    MW4 2584   2.940   2.321   1.126
  639SOL     OW 2585   2.711   2.455   1.179
  639SOL    HW2 2586   2.699   2.458   1.274
  639SOL    HW3 2587   2.623   2.439   1.144
  639SOL    MW4 2588   2.697   2.453   1.187
  640SOL     OW 2589   2.667   2.727   1.092
  640SOL    HW2 2590   2.684   2.634   1.110
  640SOL    HW3 2591   2.594   2.749   1.150
  640SOL    MW4 2592   2.660   2.717   1.102
  641SOL     OW 2593   2.915   2.836   1.167
  641SOL    HW2 2594   2.916   2.852   1.261
  641SOL    HW3 2595   2.833   2.788   1.151
  641SOL    MW4 2596   2.904   2.832   1.177
  642SOL     OW 2597   2.941   3.105   1.071
  642SOL    HW2 2598   2.927   3.014   1.098
  642SOL    HW3 2599   2.923   3.106   0.977
  642SOL    MW4 2600   2.937   3.093   1.062
  643SOL     OW 2601   2.697   3.196   1.171
  643SOL    HW2 2602   2.774   3.149   1.139
  643SOL    HW3 2603   2.624   3.137   1.151
  643SOL    MW4 2604   2.698   3.182   1.164
  644SOL     OW 2605   2.709   3.463   1.063
  644SOL    HW2 2606   2.691   3.373   1.088
  644SOL    HW3 2607   2.645   3.515   1.112
  644SOL    MW4 2608   2.698   3.458   1.073
  645SOL     OW 2609   2.926   3.598   1.177
  645SOL    HW2 2610   2.993   3.543   1.137
  645SOL    HW3 2611   2.843   3.562   1.146
  645SOL    MW4 2612   2.924   3.586   1.168
  646SOL     OW 2613   2.916   3.855   1.058
  646SOL    HW2 2614   2.982   3.904   1.107
  646SOL    HW3 2615   2.917   3.768   1.097
  646SOL    MW4 2616   2.925   3.850   1.070
  647SOL     OW 2617   2.700   4.014   1.149
  647SOL    HW2 2618   2.768   3.951   1.124
  647SOL    HW3 2619   2.619   3.976   1.117
  647SOL    MW4 2620   2.698   4.001   1.142
  648SOL     OW 2621   2.728   4.274   1.040
  648SOL    HW2 2622   2.730   4.197   1.097
  648SOL    HW3 2623   2.638   4.307   1.047
  648SOL    MW4 2624   2.717   4.268   1.048
  649SOL     OW 2625   2.910   4.436   1.169
  649SOL    HW2 2626   2.986   4.386   1.141
  649SOL    HW3 2627   2.835   4.391   1.129
  649SOL    MW4 2628   2.910   4.424   1.160
  650SOL     OW 2629   3.399   0.007   1.056
  650SOL    HW2 2630   3.478   0.041   1.098
  650SOL    HW3 2631   3.327   0.056   1.096
  650SOL    MW4 2632   3.400   0.018   1.067
  651SOL     OW 2633   3.175   0.115   1.186
  651SOL    HW2 2634   3.164   0.120   1.281
  651SOL    HW3 2635   3.088   0.095   1.153
  651SOL    MW4 2636   3.162   0.113   1.194
  652SOL     OW 2637   3.204   0.366   1.050
  652SOL    HW2 2638   3.188   0.278   1.083
  652SOL    HW3 2639   3.130   0.417   1.081
  652SOL    MW4 2640   3.192   0.361   1.058
  653SOL     OW 2641   3.385   0.467   1.237
  653SOL    HW2 2642   3.368   0.557   1.211
  653SOL    HW3 2643   3.330   0.414   1.178
  653SOL    MW4 2644   3.375   0.472   1.225
  654SOL     OW 2645   3.394   0.703   1.100
  654SOL    HW2 2646   3.330   0.772   1.119
  654SOL    HW3 2647   3.394   0.696   1.004
  654SOL    MW4 2648   3.385   0.711   1.090
  655SOL     OW 2649   3.212   0.892   1.170
  655SOL    HW2 2650   3.227   0.889   1.265
  655SOL    HW3 2651   3.201   0.985   1.151
  655SOL    MW4 2652   3.213   0.904   1.180
  656SOL     OW 2653   3.141   1.148   1.100
  656SOL    HW2 2654   3.221   1.186   1.135
  656SOL    HW3 2655   3.070   1.198   1.141
  656SOL    MW4 2656   3.142   1.159   1.110
  657SOL     OW 2657   3.381   1.238   1.191
  657SOL    HW2 2658   3.376   1.264   1.283
  657SOL    HW3 2659   3.375   1.320   1.142
  657SOL    MW4 2660   3.379   1.252   1.197
  658SOL     OW 2661   3.371   1.492   1.053
  658SOL    HW2 2662   3.443   1.545   1.089
  658SOL    HW3 2663   3.291   1.536   1.084
  658SOL    MW4 2664   3.370   1.505   1.062
  659SOL     OW 2665   3.153   1.625   1.137
  659SOL    HW2 2666   3.150   1.622   1.233
  659SOL    HW3 2667   3.171   1.717   1.117
  659SOL    MW4 2668   3.155   1.637   1.147
  660SOL     OW 2669   3.174   1.898   1.083
  660SOL    HW2 2670   3.241   1.947   1.131
  660SOL    HW3 2671   3.091   1.930   1.118
  660SOL    MW4 2672   3.172   1.909   1.094
  661SOL     OW 2673   3.384   2.034   1.190
  661SOL    HW2 2674   3.461   1.982   1.166
  661SOL    HW3 2675   3.393   2.114   1.138
  661SOL    MW4 2676   3.396   2.037   1.180
  662SOL     OW 2677   3.350   2.331   1.072
  662SOL    HW2 2678   3.427   2.358   1.122
  662SOL    HW3 2679   3.277   2.379   1.112
  662SOL    MW4 2680   3.351   2.341   1.084
  663SOL     OW 2681   3.157   2.476   1.211
  663SOL    HW2 2682   3.152   2.470   1.306
  663SOL    HW3 2683   3.162   2.570   1.193
  663SOL    MW4 2684   3.157   2.488   1.221
  664SOL     OW 2685   3.169   2.736   1.101
  664SOL    HW2 2686   3.083   2.776   1.117
  664SOL    HW3 2687   3.173   2.726   1.006
  664SOL    MW4 2688   3.158   2.740   1.090
  665SOL     OW 2689   3.404   2.845   1.182
  665SOL    HW2 2690   3.415   2.929   1.137
  665SOL    HW3 2691   3.329   2.804   1.140
  665SOL    MW4 2692   3.396   2.851   1.171
  666SOL     OW 2693   3.366   3.110   1.064
  666SOL    HW2 2694   3.436   3.164   1.098
  666SOL    HW3 2695   3.286   3.151   1.096
  666SOL    MW4 2696   3.364   3.122   1.073
  667SOL     OW 2697   3.158   3.250   1.162
  667SOL    HW2 2698   3.152   3.331   1.111
  667SOL    HW3 2699   3.079   3.201   1.138
  667SOL    MW4 2700   3.147   3.254   1.152
  668SOL     OW 2701   3.168   3.502   1.042
  668SOL    HW2 2702   3.248   3.542   1.075
  668SOL    HW3 2703   3.177   3.505   0.947
  668SOL    MW4 2704   3.179   3.508   1.034
  669SOL     OW 2705   3.414   3.601   1.151
  669SOL    HW2 2706   3.402   3.606   1.246
  669SOL    HW3 2707   3.498   3.556   1.140
  669SOL    MW4 2708   3.423   3.595   1.162
  670SOL     OW 2709   3.341   3.891   1.028
  670SOL    HW2 2710   3.279   3.930   1.090
  670SOL    HW3 2711   3.350   3.800   1.057
  670SOL    MW4 2712   3.334   3.884   1.040
  671SOL     OW 2713   3.121   4.007   1.175
  671SOL    HW2 2714   3.123   3.994   1.270
  671SOL    HW3 2715   3.147   4.098   1.163
  671SOL    MW4 2716   3.125   4.017   1.186
  672SOL     OW 2717   3.122   4.288   1.083
  672SOL    HW2 2718   3.193   4.338   1.122
  672SOL    HW3 2719   3.138   4.294   0.989
  672SOL    MW4 2720   3.134   4.295   1.076
  673SOL     OW 2721   3.332   4.423   1.186
  673SOL    HW2 2722   3.400   4.359   1.163
  673SOL    HW3 2723   3.362   4.505   1.147
  673SOL    MW4 2724   3.345   4.425   1.178
  674SOL     OW 2725   3.794   4.610   1.138
  674SOL    HW2 2726   3.800   4.519   1.166
  674SOL    HW3 2727   3.834   4.612   1.051
  674SOL    MW4 2728   3.800   4.598   1.130
  675SOL     OW 2729   3.589   0.096   1.228
  675SOL    HW2 2730   3.616   0.186   1.208
  675SOL    HW3 2731   3.665   0.043   1.206
  675SOL    MW4 2732   3.602   0.101   1.223
  676SOL     OW 2733   3.624   0.366   1.135
  676SOL    HW2 2734   3.704   0.411   1.164
  676SOL    HW3 2735   3.554   0.406   1.185
  676SOL    MW4 2736   3.626   0.377   1.145
  677SOL     OW 2737   3.846   0.490   1.250
  677SOL    HW2 2738   3.916   0.441   1.208
  677SOL    HW3 2739   3.835   0.569   1.196
  677SOL    MW4 2740   3.854   0.494   1.237
  678SOL     OW 2741   3.861   0.722   1.071
  678SOL    HW2 2742   3.938   0.743   1.124
  678SOL    HW3 2743   3.787   0.759   1.120
  678SOL    MW4 2744   3.861   0.730   1.085
  679SOL     OW 2745   3.616   0.799   1.212
  679SOL    HW2 2746   3.606   0.888   1.177
  679SOL    HW3 2747   3.553   0.747   1.164
  679SOL    MW4 2748   3.607   0.804   1.201
  680SOL     OW 2749   3.602   1.046   1.098
  680SOL    HW2 2750   3.675   1.097   1.133
  680SOL    HW3 2751   3.524   1.097   1.119
  680SOL    MW4 2752   3.601   1.059   1.105
  681SOL     OW 2753   3.799   1.227   1.208
  681SOL    HW2 2754   3.811   1.244   1.301
  681SOL    HW3 2755   3.808   1.313   1.166
  681SOL    MW4 2756   3.802   1.241   1.215
  682SOL     OW 2757   3.814   1.479   1.074
  682SOL    HW2 2758   3.894   1.519   1.107
  682SOL    HW3 2759   3.819   1.488   0.979
  682SOL    MW4 2760   3.825   1.485   1.066
  683SOL     OW 2761   3.585   1.625   1.144
  683SOL    HW2 2762   3.606   1.714   1.114
  683SOL    HW3 2763   3.660   1.572   1.117
  683SOL    MW4 2764   3.598   1.630   1.136
  684SOL     OW 2765   3.599   1.893   1.099
  684SOL    HW2 2766   3.678   1.932   1.137
  684SOL    HW3 2767   3.596   1.928   1.010
  684SOL    MW4 2768   3.609   1.903   1.092
  685SOL     OW 2769   3.812   2.057   1.200
  685SOL    HW2 2770   3.805   2.066   1.295
  685SOL    HW3 2771   3.893   2.007   1.187
  685SOL    MW4 2772   3.822   2.052   1.210
  686SOL     OW 2773   3.803   2.328   1.096
  686SOL    HW2 2774   3.889   2.361   1.123
  686SOL    HW3 2775   3.801   2.238   1.127
  686SOL    MW4 2776   3.814   2.321   1.104
  687SOL     OW 2777   3.571   2.427   1.210
  687SOL    HW2 2778   3.574   2.419   1.306
  687SOL    HW3 2779   3.654   2.389   1.181
  687SOL    MW4 2780   3.583   2.421   1.219
  688SOL     OW 2781   3.572   2.686   1.058
  688SOL    HW2 2782   3.557   2.605   1.107
  688SOL    HW3 2783   3.508   2.748   1.094
  688SOL    MW4 2784   3.562   2.684   1.069
  689SOL     OW 2785   3.783   2.838   1.169
  689SOL    HW2 2786   3.786   2.834   1.264
  689SOL    HW3 2787   3.715   2.775   1.144
  689SOL    MW4 2788   3.775   2.829   1.178
  690SOL     OW 2789   3.825   3.094   1.075
  690SOL    HW2 2790   3.814   3.006   1.111
  690SOL    HW3 2791   3.797   3.085   0.984
  690SOL    MW4 2792   3.820   3.081   1.068
  691SOL     OW 2793   3.596   3.221   1.164
  691SOL    HW2 2794   3.612   3.307   1.127
  691SOL    HW3 2795   3.679   3.175   1.155
  691SOL    MW4 2796   3.609   3.226   1.158
  692SOL     OW 2797   3.644   3.484   1.090
  692SOL    HW2 2798   3.710   3.541   1.129
  692SOL    HW3 2799   3.647   3.504   0.997
  692SOL    MW4 2800   3.653   3.494   1.083
  693SOL     OW 2801   3.861   3.639   1.189
  693SOL    HW2 2802   3.843   3.629   1.283
  693SOL    HW3 2803   3.847   3.733   1.172
  693SOL    MW4 2804   3.857   3.650   1.199
  694SOL     OW 2805   3.790   3.900   1.110
  694SOL    HW2 2806   3.704   3.924   1.145
  694SOL    HW3 2807   3.771   3.866   1.023
  694SOL    MW4 2808   3.776   3.899   1.103
  695SOL     OW 2809   3.534   3.966   1.213
  695SOL    HW2 2810   3.521   3.948   1.306
  695SOL    HW3 2811   3.476   3.906   1.167
  695SOL    MW4 2812   3.525   3.956   1.219
  696SOL     OW 2813   3.536   4.225   1.112
  696SOL    HW2 2814   3.543   4.138   1.151
  696SOL    HW3 2815   3.509   4.208   1.021
  696SOL    MW4 2816   3.534   4.211   1.105
  697SOL     OW 2817   3.803   4.327   1.175
  697SOL    HW2 2818   3.792   4.321   1.269
  697SOL    HW3 2819   3.725   4.285   1.139
  697SOL    MW4 2820   3.791   4.321   1.182
  698SOL     OW 2821   4.247   4.631   1.100
  698SOL    HW2 2822   4.273   4.548   1.139
  698SOL    HW3 2823   4.174   4.662   1.154
  698SOL    MW4 2824   4.240   4.624   1.112
  699SOL     OW 2825   4.029   0.099   1.224
  699SOL    HW2 2826   4.037   0.085   1.319
  699SOL    HW3 2827   3.946   0.058   1.200
  699SOL    MW4 2828   4.019   0.092   1.233
  700SOL     OW 2829   4.032   0.345   1.126
  700SOL    HW2 2830   4.055   0.262   1.166
  700SOL    HW3 2831   4.004   0.322   1.037
  700SOL    MW4 2832   4.031   0.331   1.119
  701SOL     OW 2833   4.292   0.451   1.206
  701SOL    HW2 2834   4.287   0.440   1.301
  701SOL    HW3 2835   4.212   0.412   1.173
  701SOL    MW4 2836   4.281   0.445   1.214
  702SOL     OW 2837   4.304   0.723   1.093
  702SOL    HW2 2838   4.309   0.633   1.126
  702SOL    HW3 2839   4.303   0.714   0.998
  702SOL    MW4 2840   4.305   0.710   1.085
  703SOL     OW 2841   4.076   0.829   1.207
  703SOL    HW2 2842   4.093   0.835   1.301
  703SOL    HW3 2843   4.161   0.805   1.169
  703SOL    MW4 2844   4.090   0.827   1.215
  704SOL     OW 2845   4.042   1.089   1.112
  704SOL    HW2 2846   4.045   1.006   1.159
  704SOL    HW3 2847   3.970   1.137   1.153
  704SOL    MW4 2848   4.033   1.084   1.124
  705SOL     OW 2849   4.260   1.240   1.196
  705SOL    HW2 2850   4.259   1.222   1.290
  705SOL    HW3 2851   4.190   1.184   1.161
  705SOL    MW4 2852   4.250   1.230   1.204
  706SOL     OW 2853   4.264   1.500   1.056
  706SOL    HW2 2854   4.276   1.410   1.086
  706SOL    HW3 2855   4.336   1.548   1.097
  706SOL    MW4 2856   4.275   1.495   1.066
  707SOL     OW 2857   4.039   1.612   1.177
  707SOL    HW2 2858   4.038   1.579   1.267
  707SOL    HW3 2859   4.122   1.581   1.141
  707SOL    MW4 2860   4.050   1.604   1.185
  708SOL     OW 2861   4.040   1.909   1.123
  708SOL    HW2 2862   4.035   1.820   1.157
  708SOL    HW3 2863   4.026   1.900   1.029
  708SOL    MW4 2864   4.037   1.896   1.115
  709SOL     OW 2865   4.249   2.052   1.230
  709SOL    HW2 2866   4.254   2.122   1.164
  709SOL    HW3 2867   4.173   1.999   1.203
  709SOL    MW4 2868   4.239   2.054   1.217
  710SOL     OW 2869   4.272   2.310   1.098
  710SOL    HW2 2870   4.190   2.352   1.125
  710SOL    HW3 2871   4.272   2.317   1.002
  710SOL    MW4 2872   4.261   2.317   1.089
  711SOL     OW 2873   4.039   2.422   1.202
  711SOL    HW2 2874   4.029   2.407   1.296
  711SOL    HW3 2875   4.038   2.517   1.193
  711SOL    MW4 2876   4.038   2.433   1.214
  712SOL     OW 2877   4.065   2.716   1.133
  712SOL    HW2 2878   3.977   2.751   1.151
  712SOL    HW3 2879   4.069   2.709   1.038
  712SOL    MW4 2880   4.054   2.719   1.123
  713SOL     OW 2881   4.273   2.859   1.211
  713SOL    HW2 2882   4.265   2.944   1.167
  713SOL    HW3 2883   4.195   2.811   1.184
  713SOL    MW4 2884   4.262   2.864   1.202
  714SOL     OW 2885   4.277   3.104   1.077
  714SOL    HW2 2886   4.201   3.148   1.116
  714SOL    HW3 2887   4.275   3.129   0.985
  714SOL    MW4 2888   4.266   3.113   1.070
  715SOL     OW 2889   4.040   3.227   1.161
  715SOL    HW2 2890   4.034   3.204   1.253
  715SOL    HW3 2891   3.967   3.180   1.119
  715SOL    MW4 2892   4.029   3.218   1.167
  716SOL     OW 2893   4.030   3.464   1.036
  716SOL    HW2 2894   4.036   3.375   1.071
  716SOL    HW3 2895   3.960   3.505   1.087
  716SOL    MW4 2896   4.021   3.458   1.047
  717SOL     OW 2897   4.243   3.592   1.162
  717SOL    HW2 2898   4.178   3.536   1.120
  717SOL    HW3 2899   4.327   3.559   1.130
  717SOL    MW4 2900   4.246   3.581   1.152
  718SOL     OW 2901   4.216   3.870   1.079
  718SOL    HW2 2902   4.144   3.912   1.126
  718SOL    HW3 2903   4.220   3.782   1.116
  718SOL    MW4 2904   4.207   3.864   1.090
  719SOL     OW 2905   4.018   4.002   1.209
  719SOL    HW2 2906   4.027   4.093   1.182
  719SOL    HW3 2907   3.935   3.973   1.172
  719SOL    MW4 2908   4.008   4.010   1.201
  720SOL     OW 2909   4.057   4.266   1.098
  720SOL    HW2 2910   3.969   4.294   1.122
  720SOL    HW3 2911   4.046   4.218   1.016
  720SOL    MW4 2912   4.044   4.263   1.091
  721SOL     OW 2913   4.277   4.373   1.238
  721SOL    HW2 2914   4.204   4.335   1.187
  721SOL    HW3 2915   4.355   4.331   1.202
  721SOL    MW4 2916   4.278   4.362   1.226
  722SOL     OW 2917   0.267   4.616   1.541
  722SOL    HW2 2918   0.336   4.650   1.484
  722SOL    HW3 2919   0.188   4.660   1.512
  722SOL    MW4 2920   0.266   4.626   1.529
  723SOL     OW 2921   4.485   0.056   1.495
  723SOL    HW2 2922   4.421  -0.014   1.506
  723SOL    HW3 2923   4.477   0.081   1.403
  723SOL    MW4 2924   4.476   0.050   1.485
  724SOL     OW 2925   0.061   0.327   1.567
  724SOL    HW2 2926   0.044   0.328   1.661
  724SOL    HW3 2927   0.032   0.241   1.538
  724SOL    MW4 2928   0.055   0.316   1.575
  725SOL     OW 2929   0.278   0.470   1.488
  725SOL    HW2 2930   0.200   0.427   1.522
  725SOL    HW3 2931   0.275   0.454   1.394
  725SOL    MW4 2932   0.267   0.462   1.480
  726SOL     OW 2933   0.228   0.700   1.608
  726SOL    HW2 2934   0.280   0.765   1.561
  726SOL    HW3 2935   0.256   0.616   1.572
  726SOL    MW4 2936   0.239   0.697   1.597
  727SOL     OW 2937   0.001   0.825   1.506
  727SOL    HW2 2938   0.011   0.914   1.541
  727SOL    HW3 2939   0.074   0.777   1.544
  727SOL    MW4 2940   0.012   0.831   1.515
  728SOL     OW 2941   4.481   1.106   1.628
  728SOL    HW2 2942   4.466   1.113   1.722
  728SOL    HW3 2943   4.549   1.171   1.609
  728SOL    MW4 2944   4.488   1.116   1.638
  729SOL     OW 2945   0.191   1.260   1.534
  729SOL    HW2 2946   0.178   1.353   1.548
  729SOL    HW3 2947   0.203   1.252   1.439
  729SOL    MW4 2948   0.191   1.271   1.523
  730SOL     OW 2949   0.209   1.547   1.588
  730SOL    HW2 2950   0.209   1.534   1.683
  730SOL    HW3 2951   0.118   1.564   1.565
  730SOL    MW4 2952   0.197   1.548   1.597
  731SOL     OW 2953   4.450   1.606   1.489
  731SOL    HW2 2954   4.446   1.697   1.519
  731SOL    HW3 2955   4.451   1.613   1.394
  731SOL    MW4 2956   4.449   1.619   1.480
  732SOL     OW 2957   4.468   1.860   1.594
  732SOL    HW2 2958   4.475   1.876   1.688
  732SOL    HW3 2959   4.399   1.920   1.565
  732SOL    MW4 2960   4.460   1.870   1.602
  733SOL     OW 2961   0.188   2.037   1.510
  733SOL    HW2 2962   0.114   1.980   1.528
  733SOL    HW3 2963   0.200   2.031   1.415
  733SOL    MW4 2964   0.180   2.029   1.500
  734SOL     OW 2965   0.235   2.295   1.602
  734SOL    HW2 2966   0.238   2.294   1.698
  734SOL    HW3 2967   0.237   2.203   1.577
  734SOL    MW4 2968   0.236   2.283   1.612
  735SOL     OW 2969   0.017   2.441   1.497
  735SOL    HW2 2970  -0.065   2.397   1.522
  735SOL    HW3 2971   0.086   2.385   1.532
  735SOL    MW4 2972   0.015   2.428   1.505
  736SOL     OW 2973   4.447   2.694   1.624
  736SOL    HW2 2974   4.378   2.737   1.574
  736SOL    HW3 2975   4.464   2.612   1.578
  736SOL    MW4 2976   4.440   2.689   1.612
  737SOL     OW 2977   0.178   2.775   1.476
  737SOL    HW2 2978   0.263   2.740   1.499
  737SOL    HW3 2979   0.118   2.743   1.544
  737SOL    MW4 2980   0.181   2.766   1.488
  738SOL     OW 2981   0.253   3.013   1.578
  738SOL    HW2 2982   0.191   3.080   1.548
  738SOL    HW3 2983   0.216   2.931   1.547
  738SOL    MW4 2984   0.240   3.011   1.570
  739SOL     OW 2985   0.061   3.175   1.493
  739SOL    HW2 2986   0.051   3.260   1.536
  739SOL    HW3 2987   0.035   3.191   1.402
  739SOL    MW4 2988   0.056   3.188   1.487
  740SOL     OW 2989   0.017   3.425   1.596
  740SOL    HW2 2990   0.009   3.461   1.684
  740SOL    HW3 2991  -0.053   3.469   1.546
  740SOL    MW4 2992   0.007   3.436   1.601
  741SOL     OW 2993   0.219   3.534   1.469
  741SOL    HW2 2994   0.217   3.623   1.504
  741SOL    HW3 2995   0.151   3.488   1.518
  741SOL    MW4 2996   0.210   3.540   1.480
  742SOL     OW 2997   0.216   3.811   1.530
  742SOL    HW2 2998   0.197   3.837   1.620
  742SOL    HW3 2999   0.291   3.864   1.505
  742SOL    MW4 3000   0.223   3.821   1.538
  743SOL     OW 3001   4.482   3.967   1.445
  743SOL    HW2 3002   4.513   4.051   1.479
  743SOL    HW3 3003   4.549   3.904   1.473
  743SOL    MW4 3004   4.495   3.970   1.454
  744SOL     OW 3005   0.020   4.223   1.557
  744SOL    HW2 3006   0.018   4.214   1.652
  744SOL    HW3 3007  -0.071   4.241   1.533
  744SOL    MW4 3008   0.008   4.224   1.566
  745SOL     OW 3009   0.251   4.364   1.415
  745SOL    HW2 3010   0.186   4.308   1.457
  745SOL    HW3 3011   0.261   4.438   1.475
  745SOL    MW4 3012   0.243   4.367   1.428
  746SOL     OW 3013   0.701   4.616   1.553
  746SOL    HW2 3014   0.784   4.655   1.524
  746SOL    HW3 3015   0.634   4.666   1.507
  746SOL    MW4 3016   0.703   4.628   1.543
  747SOL     OW 3017   0.493   0.064   1.418
  747SOL    HW2 3018   0.493   0.151   1.459
  747SOL    HW3 3019   0.497   0.082   1.324
  747SOL    MW4 3020   0.494   0.078   1.411
  748SOL     OW 3021   0.492   0.306   1.555
  748SOL    HW2 3022   0.558   0.369   1.527
  748SOL    HW3 3023   0.408   0.350   1.536
  748SOL    MW4 3024   0.489   0.320   1.549
  749SOL     OW 3025   0.670   0.488   1.477
  749SOL    HW2 3026   0.651   0.576   1.508
  749SOL    HW3 3027   0.662   0.494   1.382
  749SOL    MW4 3028   0.667   0.500   1.469
  750SOL     OW 3029   0.619   0.751   1.565
  750SOL    HW2 3030   0.623   0.734   1.659
  750SOL    HW3 3031   0.693   0.808   1.548
  750SOL    MW4 3032   0.629   0.756   1.575
  751SOL     OW 3033   0.399   0.895   1.498
  751SOL    HW2 3034   0.411   0.982   1.536
  751SOL    HW3 3035   0.479   0.848   1.521
  751SOL    MW4 3036   0.411   0.901   1.506
  752SOL     OW 3037   0.435   1.145   1.600
  752SOL    HW2 3038   0.510   1.181   1.553
  752SOL    HW3 3039   0.361   1.197   1.570
  752SOL    MW4 3040   0.436   1.157   1.590
  753SOL     OW 3041   0.675   1.235   1.469
  753SOL    HW2 3042   0.647   1.322   1.496
  753SOL    HW3 3043   0.671   1.237   1.373
  753SOL    MW4 3044   0.671   1.247   1.460
  754SOL     OW 3045   0.613   1.491   1.576
  754SOL    HW2 3046   0.691   1.535   1.544
  754SOL    HW3 3047   0.540   1.546   1.546
  754SOL    MW4 3048   0.614   1.504   1.568
  755SOL     OW 3049   0.430   1.664   1.481
  755SOL    HW2 3050   0.426   1.757   1.501
  755SOL    HW3 3051   0.348   1.628   1.515
  755SOL    MW4 3052   0.419   1.671   1.489
  756SOL     OW 3053   0.421   1.928   1.590
  756SOL    HW2 3054   0.403   1.903   1.681
  756SOL    HW3 3055   0.338   1.964   1.558
  756SOL    MW4 3056   0.408   1.929   1.598
  757SOL     OW 3057   0.659   2.058   1.517
  757SOL    HW2 3058   0.719   1.990   1.547
  757SOL    HW3 3059   0.572   2.024   1.539
  757SOL    MW4 3060   0.656   2.044   1.524
  758SOL     OW 3061   0.703   2.312   1.621
  758SOL    HW2 3062   0.621   2.358   1.605
  758SOL    HW3 3063   0.685   2.221   1.597
  758SOL    MW4 3064   0.690   2.306   1.616
  759SOL     OW 3065   0.469   2.420   1.530
  759SOL    HW2 3066   0.459   2.514   1.544
  759SOL    HW3 3067   0.385   2.383   1.556
  759SOL    MW4 3068   0.457   2.428   1.535
  760SOL     OW 3069   0.430   2.695   1.568
  760SOL    HW2 3070   0.407   2.716   1.659
  760SOL    HW3 3071   0.523   2.715   1.561
  760SOL    MW4 3072   0.439   2.700   1.579
  761SOL     OW 3073   0.688   2.787   1.524
  761SOL    HW2 3074   0.682   2.877   1.555
  761SOL    HW3 3075   0.698   2.794   1.429
  761SOL    MW4 3076   0.688   2.800   1.516
  762SOL     OW 3077   0.720   3.071   1.585
  762SOL    HW2 3078   0.790   3.121   1.544
  762SOL    HW3 3079   0.640   3.117   1.558
  762SOL    MW4 3080   0.718   3.084   1.576
  763SOL     OW 3081   0.470   3.177   1.512
  763SOL    HW2 3082   0.407   3.114   1.545
  763SOL    HW3 3083   0.448   3.187   1.419
  763SOL    MW4 3084   0.459   3.170   1.504
  764SOL     OW 3085   0.446   3.437   1.592
  764SOL    HW2 3086   0.439   3.345   1.568
  764SOL    HW3 3087   0.386   3.482   1.533
  764SOL    MW4 3088   0.437   3.431   1.581
  765SOL     OW 3089   0.677   3.574   1.466
  765SOL    HW2 3090   0.763   3.548   1.501
  765SOL    HW3 3091   0.616   3.511   1.503
  765SOL    MW4 3092   0.681   3.562   1.475
  766SOL     OW 3093   0.690   3.857   1.558
  766SOL    HW2 3094   0.780   3.882   1.537
  766SOL    HW3 3095   0.682   3.766   1.526
  766SOL    MW4 3096   0.701   3.848   1.551
  767SOL     OW 3097   0.443   3.980   1.475
  767SOL    HW2 3098   0.524   3.952   1.518
  767SOL    HW3 3099   0.470   4.003   1.386
  767SOL    MW4 3100   0.457   3.980   1.469
  768SOL     OW 3101   0.469   4.242   1.537
  768SOL    HW2 3102   0.458   4.150   1.514
  768SOL    HW3 3103   0.407   4.289   1.481
  768SOL    MW4 3104   0.459   4.236   1.527
  769SOL     OW 3105   0.705   4.377   1.430
  769SOL    HW2 3106   0.643   4.323   1.479
  769SOL    HW3 3107   0.701   4.463   1.472
  769SOL    MW4 3108   0.696   4.381   1.442
  770SOL     OW 3109   1.167   4.631   1.553
  770SOL    HW2 3110   1.153   4.647   1.646
  770SOL    HW3 3111   1.246   4.681   1.532
  770SOL    MW4 3112   1.175   4.640   1.562
  771SOL     OW 3113   0.932   0.094   1.472
  771SOL    HW2 3114   0.903   0.177   1.510
  771SOL    HW3 3115   1.016   0.076   1.514
  771SOL    MW4 3116   0.939   0.103   1.482
  772SOL     OW 3117   0.898   0.361   1.551
  772SOL    HW2 3118   0.900   0.362   1.647
  772SOL    HW3 3119   0.829   0.423   1.528
  772SOL    MW4 3120   0.889   0.369   1.561
  773SOL     OW 3121   1.135   0.496   1.508
  773SOL    HW2 3122   1.123   0.584   1.542
  773SOL    HW3 3123   1.052   0.452   1.526
  773SOL    MW4 3124   1.123   0.502   1.515
  774SOL     OW 3125   1.105   0.754   1.627
  774SOL    HW2 3126   1.122   0.752   1.721
  774SOL    HW3 3127   1.179   0.801   1.589
  774SOL    MW4 3128   1.117   0.760   1.635
  775SOL     OW 3129   0.868   0.852   1.523
  775SOL    HW2 3130   0.944   0.810   1.564
  775SOL    HW3 3131   0.884   0.842   1.429
  775SOL    MW4 3132   0.880   0.845   1.516
  776SOL     OW 3133   0.906   1.105   1.601
  776SOL    HW2 3134   0.898   1.015   1.567
  776SOL    HW3 3135   0.821   1.145   1.583
  776SOL    MW4 3136   0.894   1.098   1.594
  777SOL     OW 3137   1.151   1.270   1.524
  777SOL    HW2 3138   1.241   1.243   1.542
  777SOL    HW3 3139   1.098   1.196   1.554
  777SOL    MW4 3140   1.156   1.257   1.530
  778SOL     OW 3141   1.076   1.535   1.602
  778SOL    HW2 3142   1.152   1.590   1.579
  778SOL    HW3 3143   1.108   1.445   1.592
  778SOL    MW4 3144   1.090   1.531   1.597
  779SOL     OW 3145   0.825   1.617   1.471
  779SOL    HW2 3146   0.902   1.582   1.515
  779SOL    HW3 3147   0.835   1.588   1.380
  779SOL    MW4 3148   0.836   1.608   1.464
  780SOL     OW 3149   0.858   1.869   1.605
  780SOL    HW2 3150   0.932   1.920   1.572
  780SOL    HW3 3151   0.857   1.790   1.550
  780SOL    MW4 3152   0.867   1.865   1.593
  781SOL     OW 3153   1.066   2.016   1.495
  781SOL    HW2 3154   1.148   1.980   1.527
  781SOL    HW3 3155   1.065   2.107   1.527
  781SOL    MW4 3156   1.076   2.023   1.503
  782SOL     OW 3157   1.095   2.274   1.569
  782SOL    HW2 3158   1.172   2.318   1.531
  782SOL    HW3 3159   1.021   2.327   1.540
  782SOL    MW4 3160   1.096   2.287   1.560
  783SOL     OW 3161   0.881   2.449   1.466
  783SOL    HW2 3162   0.896   2.529   1.517
  783SOL    HW3 3163   0.812   2.403   1.513
  783SOL    MW4 3164   0.874   2.454   1.479
  784SOL     OW 3165   0.916   2.691   1.620
  784SOL    HW2 3166   0.929   2.682   1.714
  784SOL    HW3 3167   0.828   2.727   1.611
  784SOL    MW4 3168   0.906   2.695   1.631
  785SOL     OW 3169   1.069   2.866   1.465
  785SOL    HW2 3170   1.085   2.945   1.517
  785SOL    HW3 3171   1.017   2.809   1.523
  785SOL    MW4 3172   1.064   2.869   1.480
  786SOL     OW 3173   1.124   3.082   1.607
  786SOL    HW2 3174   1.132   3.090   1.702
  786SOL    HW3 3175   1.196   3.135   1.573
  786SOL    MW4 3176   1.134   3.090   1.615
  787SOL     OW 3177   0.920   3.251   1.498
  787SOL    HW2 3178   0.997   3.208   1.534
  787SOL    HW3 3179   0.929   3.240   1.403
  787SOL    MW4 3180   0.932   3.244   1.490
  788SOL     OW 3181   0.925   3.503   1.607
  788SOL    HW2 3182   1.002   3.541   1.564
  788SOL    HW3 3183   0.929   3.410   1.585
  788SOL    MW4 3184   0.936   3.496   1.598
  789SOL     OW 3185   1.174   3.619   1.466
  789SOL    HW2 3186   1.259   3.578   1.483
  789SOL    HW3 3187   1.173   3.634   1.371
  789SOL    MW4 3188   1.185   3.616   1.456
  790SOL     OW 3189   1.196   3.876   1.565
  790SOL    HW2 3190   1.285   3.896   1.534
  790SOL    HW3 3191   1.176   3.791   1.526
  790SOL    MW4 3192   1.205   3.867   1.555
  791SOL     OW 3193   0.925   3.963   1.460
  791SOL    HW2 3194   0.918   4.057   1.476
  791SOL    HW3 3195   1.017   3.942   1.478
  791SOL    MW4 3196   0.936   3.973   1.465
  792SOL     OW 3197   0.920   4.243   1.540
  792SOL    HW2 3198   0.911   4.257   1.634
  792SOL    HW3 3199   0.847   4.291   1.502
  792SOL    MW4 3200   0.909   4.251   1.548
  793SOL     OW 3201   1.141   4.378   1.436
  793SOL    HW2 3202   1.059   4.341   1.470
  793SOL    HW3 3203   1.149   4.463   1.479
  793SOL    MW4 3204   1.131   4.384   1.446
  794SOL     OW 3205   1.636   4.636   1.591
  794SOL    HW2 3206   1.627   4.638   1.686
  794SOL    HW3 3207   1.561   4.685   1.558
  794SOL    MW4 3208   1.625   4.643   1.599
  795SOL     OW 3209   1.407   0.090   1.481
  795SOL    HW2 3210   1.420   0.178   1.515
  795SOL    HW3 3211   1.393   0.102   1.387
  795SOL    MW4 3212   1.407   0.103   1.473
  796SOL     OW 3213   1.396   0.347   1.567
  796SOL    HW2 3214   1.466   0.406   1.539
  796SOL    HW3 3215   1.315   0.393   1.544
  796SOL    MW4 3216   1.395   0.361   1.560
  797SOL     OW 3217   1.584   0.535   1.478
  797SOL    HW2 3218   1.659   0.484   1.509
  797SOL    HW3 3219   1.603   0.551   1.385
  797SOL    MW4 3220   1.596   0.530   1.470
  798SOL     OW 3221   1.545   0.785   1.573
  798SOL    HW2 3222   1.542   0.776   1.668
  798SOL    HW3 3223   1.548   0.695   1.541
  798SOL    MW4 3224   1.545   0.772   1.581
  799SOL     OW 3225   1.300   0.924   1.500
  799SOL    HW2 3226   1.382   0.880   1.523
  799SOL    HW3 3227   1.291   0.911   1.405
  799SOL    MW4 3228   1.309   0.917   1.490
  800SOL     OW 3229   1.392   1.171   1.582
  800SOL    HW2 3230   1.379   1.171   1.677
  800SOL    HW3 3231   1.353   1.089   1.551
  800SOL    MW4 3232   1.385   1.161   1.590
  801SOL     OW 3233   1.609   1.323   1.505
  801SOL    HW2 3234   1.536   1.266   1.528
  801SOL    HW3 3235   1.611   1.324   1.410
  801SOL    MW4 3236   1.600   1.316   1.496
  802SOL     OW 3237   1.558   1.570   1.635
  802SOL    HW2 3238   1.551   1.552   1.729
  802SOL    HW3 3239   1.578   1.485   1.596
  802SOL    MW4 3240   1.560   1.557   1.643
  803SOL     OW 3241   1.322   1.672   1.556
  803SOL    HW2 3242   1.401   1.658   1.609
  803SOL    HW3 3243   1.351   1.660   1.465
  803SOL    MW4 3244   1.336   1.668   1.551
  804SOL     OW 3245   1.308   1.945   1.591
  804SOL    HW2 3246   1.299   1.959   1.685
  804SOL    HW3 3247   1.310   1.850   1.581
  804SOL    MW4 3248   1.307   1.934   1.602
  805SOL     OW 3249   1.548   2.085   1.526
  805SOL    HW2 3250   1.474   2.038   1.564
  805SOL    HW3 3251   1.530   2.085   1.432
  805SOL    MW4 3252   1.536   2.078   1.518
  806SOL     OW 3253   1.519   2.361   1.590
  806SOL    HW2 3254   1.599   2.394   1.551
  806SOL    HW3 3255   1.520   2.267   1.572
  806SOL    MW4 3256   1.529   2.353   1.582
  807SOL     OW 3257   1.290   2.436   1.464
  807SOL    HW2 3258   1.268   2.523   1.497
  807SOL    HW3 3259   1.379   2.420   1.498
  807SOL    MW4 3260   1.299   2.445   1.473
  808SOL     OW 3261   1.288   2.713   1.557
  808SOL    HW2 3262   1.367   2.759   1.527
  808SOL    HW3 3263   1.215   2.767   1.525
  808SOL    MW4 3264   1.289   2.727   1.549
  809SOL     OW 3265   1.536   2.835   1.489
  809SOL    HW2 3266   1.617   2.794   1.518
  809SOL    HW3 3267   1.549   2.851   1.395
  809SOL    MW4 3268   1.548   2.832   1.480
  810SOL     OW 3269   1.588   3.084   1.572
  810SOL    HW2 3270   1.668   3.111   1.526
  810SOL    HW3 3271   1.574   2.993   1.544
  810SOL    MW4 3272   1.597   3.076   1.562
  811SOL     OW 3273   1.338   3.232   1.500
  811SOL    HW2 3274   1.380   3.318   1.503
  811SOL    HW3 3275   1.407   3.170   1.522
  811SOL    MW4 3276   1.353   3.235   1.503
  812SOL     OW 3277   1.406   3.509   1.526
  812SOL    HW2 3278   1.403   3.519   1.621
  812SOL    HW3 3279   1.491   3.545   1.500
  812SOL    MW4 3280   1.417   3.515   1.535
  813SOL     OW 3281   1.643   3.606   1.472
  813SOL    HW2 3282   1.652   3.700   1.491
  813SOL    HW3 3283   1.623   3.603   1.379
  813SOL    MW4 3284   1.642   3.618   1.463
  814SOL     OW 3285   1.624   3.862   1.558
  814SOL    HW2 3286   1.615   3.873   1.653
  814SOL    HW3 3287   1.548   3.905   1.521
  814SOL    MW4 3288   1.613   3.869   1.565
  815SOL     OW 3289   1.416   3.983   1.418
  815SOL    HW2 3290   1.399   4.068   1.458
  815SOL    HW3 3291   1.426   4.002   1.324
  815SOL    MW4 3292   1.415   3.996   1.411
  816SOL     OW 3293   1.385   4.238   1.522
  816SOL    HW2 3294   1.457   4.300   1.506
  816SOL    HW3 3295   1.307   4.283   1.490
  816SOL    MW4 3296   1.384   4.252   1.516
  817SOL     OW 3297   1.592   4.400   1.444
  817SOL    HW2 3298   1.670   4.346   1.458
  817SOL    HW3 3299   1.608   4.479   1.495
  817SOL    MW4 3300   1.605   4.403   1.453
  818SOL     OW 3301   2.046   4.643   1.570
  818SOL    HW2 3302   2.033   4.629   1.663
  818SOL    HW3 3303   1.975   4.702   1.544
  818SOL    MW4 3304   2.035   4.649   1.579
  819SOL     OW 3305   1.841   0.144   1.473
  819SOL    HW2 3306   1.771   0.087   1.503
  819SOL    HW3 3307   1.828   0.150   1.378
  819SOL    MW4 3308   1.830   0.137   1.464
  820SOL     OW 3309   1.787   0.387   1.585
  820SOL    HW2 3310   1.878   0.413   1.571
  820SOL    HW3 3311   1.784   0.296   1.553
  820SOL    MW4 3312   1.799   0.378   1.579
  821SOL     OW 3313   2.022   0.505   1.485
  821SOL    HW2 3314   2.104   0.471   1.522
  821SOL    HW3 3315   2.021   0.597   1.510
  821SOL    MW4 3316   2.033   0.512   1.493
  822SOL     OW 3317   2.026   0.789   1.576
  822SOL    HW2 3318   2.092   0.841   1.531
  822SOL    HW3 3319   1.943   0.817   1.538
  822SOL    MW4 3320   2.024   0.799   1.565
  823SOL     OW 3321   1.791   0.886   1.489
  823SOL    HW2 3322   1.791   0.976   1.523
  823SOL    HW3 3323   1.710   0.848   1.522
  823SOL    MW4 3324   1.781   0.893   1.498
  824SOL     OW 3325   1.821   1.150   1.591
  824SOL    HW2 3326   1.903   1.187   1.559
  824SOL    HW3 3327   1.756   1.218   1.577
  824SOL    MW4 3328   1.824   1.164   1.585
  825SOL     OW 3329   2.043   1.282   1.489
  825SOL    HW2 3330   2.041   1.372   1.522
  825SOL    HW3 3331   2.037   1.291   1.394
  825SOL    MW4 3332   2.042   1.295   1.481
  826SOL     OW 3333   2.008   1.528   1.608
  826SOL    HW2 3334   2.082   1.588   1.595
  826SOL    HW3 3335   1.933   1.575   1.572
  826SOL    MW4 3336   2.008   1.542   1.602
  827SOL     OW 3337   1.790   1.662   1.503
  827SOL    HW2 3338   1.699   1.639   1.524
  827SOL    HW3 3339   1.793   1.663   1.408
  827SOL    MW4 3340   1.778   1.659   1.493
  828SOL     OW 3341   1.777   1.959   1.620
  828SOL    HW2 3342   1.764   1.865   1.608
  828SOL    HW3 3343   1.692   1.998   1.601
  828SOL    MW4 3344   1.764   1.952   1.616
  829SOL     OW 3345   2.006   2.042   1.476
  829SOL    HW2 3346   2.069   2.018   1.544
  829SOL    HW3 3347   1.921   2.031   1.518
  829SOL    MW4 3348   2.003   2.038   1.491
  830SOL     OW 3349   2.012   2.308   1.583
  830SOL    HW2 3350   2.004   2.314   1.678
  830SOL    HW3 3351   2.006   2.215   1.564
  830SOL    MW4 3352   2.010   2.297   1.593
  831SOL     OW 3353   1.772   2.446   1.493
  831SOL    HW2 3354   1.853   2.401   1.516
  831SOL    HW3 3355   1.771   2.448   1.397
  831SOL    MW4 3356   1.782   2.440   1.484
  832SOL     OW 3357   1.777   2.701   1.565
  832SOL    HW2 3358   1.862   2.741   1.544
  832SOL    HW3 3359   1.789   2.609   1.543
  832SOL    MW4 3360   1.790   2.694   1.559
  833SOL     OW 3361   2.009   2.838   1.494
  833SOL    HW2 3362   2.011   2.926   1.531
  833SOL    HW3 3363   2.010   2.852   1.400
  833SOL    MW4 3364   2.009   2.851   1.487
  834SOL     OW 3365   1.988   3.102   1.573
  834SOL    HW2 3366   1.994   3.108   1.668
  834SOL    HW3 3367   2.070   3.140   1.541
  834SOL    MW4 3368   1.999   3.108   1.581
  835SOL     OW 3369   1.783   3.212   1.427
  835SOL    HW2 3370   1.775   3.298   1.469
  835SOL    HW3 3371   1.851   3.167   1.478
  835SOL    MW4 3372   1.791   3.218   1.439
  836SOL     OW 3373   1.843   3.453   1.560
  836SOL    HW2 3374   1.847   3.469   1.654
  836SOL    HW3 3375   1.778   3.516   1.528
  836SOL    MW4 3376   1.835   3.464   1.568
  837SOL     OW 3377   2.059   3.612   1.496
  837SOL    HW2 3378   2.135   3.562   1.528
  837SOL    HW3 3379   1.983   3.559   1.520
  837SOL    MW4 3380   2.059   3.599   1.504
  838SOL     OW 3381   2.044   3.895   1.545
  838SOL    HW2 3382   2.120   3.941   1.510
  838SOL    HW3 3383   2.059   3.803   1.523
  838SOL    MW4 3384   2.056   3.889   1.537
  839SOL     OW 3385   1.829   3.995   1.402
  839SOL    HW2 3386   1.907   3.955   1.441
  839SOL    HW3 3387   1.756   3.963   1.456
  839SOL    MW4 3388   1.829   3.986   1.414
  840SOL     OW 3389   1.816   4.247   1.492
  840SOL    HW2 3390   1.904   4.284   1.500
  840SOL    HW3 3391   1.829   4.163   1.449
  840SOL    MW4 3392   1.829   4.241   1.487
  841SOL     OW 3393   2.038   4.403   1.429
  841SOL    HW2 3394   2.114   4.370   1.477
  841SOL    HW3 3395   2.030   4.495   1.456
  841SOL    MW4 3396   2.047   4.411   1.439
  842SOL     OW 3397   2.489   0.020   1.559
  842SOL    HW2 3398   2.475   0.022   1.653
  842SOL    HW3 3399   2.413   0.063   1.522
  842SOL    MW4 3400   2.477   0.026   1.566
  843SOL     OW 3401   2.256   0.117   1.468
  843SOL    HW2 3402   2.192   0.058   1.508
  843SOL    HW3 3403   2.240   0.111   1.374
  843SOL    MW4 3404   2.246   0.109   1.461
  844SOL     OW 3405   2.260   0.395   1.572
  844SOL    HW2 3406   2.251   0.383   1.666
  844SOL    HW3 3407   2.259   0.307   1.536
  844SOL    MW4 3408   2.258   0.382   1.579
  845SOL     OW 3409   2.474   0.566   1.433
  845SOL    HW2 3410   2.552   0.521   1.464
  845SOL    HW3 3411   2.401   0.520   1.475
  845SOL    MW4 3412   2.474   0.554   1.443
  846SOL     OW 3413   2.477   0.795   1.571
  846SOL    HW2 3414   2.402   0.851   1.551
  846SOL    HW3 3415   2.465   0.717   1.516
  846SOL    MW4 3416   2.466   0.792   1.561
  847SOL     OW 3417   2.264   0.935   1.474
  847SOL    HW2 3418   2.270   1.020   1.518
  847SOL    HW3 3419   2.261   0.956   1.381
  847SOL    MW4 3420   2.264   0.949   1.468
  848SOL     OW 3421   2.273   1.172   1.603
  848SOL    HW2 3422   2.258   1.165   1.697
  848SOL    HW3 3423   2.199   1.223   1.570
  848SOL    MW4 3424   2.261   1.178   1.611
  849SOL     OW 3425   2.512   1.300   1.525
  849SOL    HW2 3426   2.449   1.241   1.568
  849SOL    HW3 3427   2.494   1.289   1.432
  849SOL    MW4 3428   2.501   1.291   1.519
  850SOL     OW 3429   2.448   1.548   1.596
  850SOL    HW2 3430   2.524   1.600   1.572
  850SOL    HW3 3431   2.477   1.457   1.586
  850SOL    MW4 3432   2.462   1.543   1.591
  851SOL     OW 3433   2.220   1.700   1.546
  851SOL    HW2 3434   2.290   1.647   1.585
  851SOL    HW3 3435   2.239   1.701   1.452
  851SOL    MW4 3436   2.232   1.693   1.539
  852SOL     OW 3437   2.228   1.968   1.614
  852SOL    HW2 3438   2.206   1.964   1.708
  852SOL    HW3 3439   2.227   1.876   1.586
  852SOL    MW4 3440   2.225   1.955   1.623
  853SOL     OW 3441   2.460   2.061   1.496
  853SOL    HW2 3442   2.375   2.034   1.528
  853SOL    HW3 3443   2.447   2.078   1.403
  853SOL    MW4 3444   2.447   2.060   1.488
  854SOL     OW 3445   2.450   2.336   1.564
  854SOL    HW2 3446   2.437   2.341   1.658
  854SOL    HW3 3447   2.464   2.243   1.546
  854SOL    MW4 3448   2.450   2.325   1.574
  855SOL     OW 3449   2.221   2.451   1.481
  855SOL    HW2 3450   2.301   2.404   1.508
  855SOL    HW3 3451   2.150   2.397   1.515
  855SOL    MW4 3452   2.222   2.438   1.489
  856SOL     OW 3453   2.227   2.688   1.595
  856SOL    HW2 3454   2.218   2.598   1.565
  856SOL    HW3 3455   2.146   2.731   1.569
  856SOL    MW4 3456   2.215   2.682   1.588
  857SOL     OW 3457   2.480   2.810   1.509
  857SOL    HW2 3458   2.475   2.905   1.523
  857SOL    HW3 3459   2.399   2.776   1.548
  857SOL    MW4 3460   2.468   2.818   1.516
  858SOL     OW 3461   2.486   3.101   1.574
  858SOL    HW2 3462   2.557   3.148   1.529
  858SOL    HW3 3463   2.407   3.127   1.528
  858SOL    MW4 3464   2.485   3.110   1.562
  859SOL     OW 3465   2.241   3.200   1.490
  859SOL    HW2 3466   2.233   3.288   1.527
  859SOL    HW3 3467   2.258   3.216   1.397
  859SOL    MW4 3468   2.242   3.214   1.482
  860SOL     OW 3469   2.285   3.467   1.581
  860SOL    HW2 3470   2.292   3.491   1.674
  860SOL    HW3 3471   2.360   3.508   1.540
  860SOL    MW4 3472   2.296   3.475   1.588
  861SOL     OW 3473   2.487   3.610   1.459
  861SOL    HW2 3474   2.569   3.574   1.494
  861SOL    HW3 3475   2.481   3.698   1.497
  861SOL    MW4 3476   2.497   3.617   1.469
  862SOL     OW 3477   2.472   3.872   1.541
  862SOL    HW2 3478   2.470   3.869   1.637
  862SOL    HW3 3479   2.545   3.929   1.520
  862SOL    MW4 3480   2.481   3.879   1.551
  863SOL     OW 3481   2.257   4.045   1.443
  863SOL    HW2 3482   2.336   3.993   1.457
  863SOL    HW3 3483   2.247   4.047   1.348
  863SOL    MW4 3484   2.266   4.038   1.432
  864SOL     OW 3485   2.259   4.302   1.561
  864SOL    HW2 3486   2.348   4.327   1.538
  864SOL    HW3 3487   2.247   4.215   1.523
  864SOL    MW4 3488   2.269   4.294   1.553
  865SOL     OW 3489   2.511   4.418   1.488
  865SOL    HW2 3490   2.497   4.511   1.505
  865SOL    HW3 3491   2.510   4.410   1.393
  865SOL    MW4 3492   2.509   4.429   1.478
  866SOL     OW 3493   2.921   4.654   1.560
  866SOL    HW2 3494   2.921   4.647   1.655
  866SOL    HW3 3495   2.855   4.721   1.541
  866SOL    MW4 3496   2.912   4.662   1.570
  867SOL     OW 3497   2.723   0.148   1.461
  867SOL    HW2 3498   2.716   0.230   1.510
  867SOL    HW3 3499   2.648   0.096   1.491
  867SOL    MW4 3500   2.713   0.152   1.472
  868SOL     OW 3501   2.684   0.417   1.542
  868SOL    HW2 3502   2.684   0.428   1.638
  868SOL    HW3 3503   2.765   0.460   1.513
  868SOL    MW4 3504   2.695   0.424   1.551
  869SOL     OW 3505   2.927   0.537   1.454
  869SOL    HW2 3506   2.932   0.629   1.482
  869SOL    HW3 3507   2.937   0.539   1.359
  869SOL    MW4 3508   2.929   0.549   1.446
  870SOL     OW 3509   2.967   0.795   1.562
  870SOL    HW2 3510   2.931   0.782   1.650
  870SOL    HW3 3511   2.899   0.844   1.515
  870SOL    MW4 3512   2.953   0.800   1.567
  871SOL     OW 3513   2.726   0.880   1.448
  871SOL    HW2 3514   2.642   0.848   1.481
  871SOL    HW3 3515   2.712   0.890   1.354
  871SOL    MW4 3516   2.713   0.877   1.440
  872SOL     OW 3517   2.743   1.139   1.587
  872SOL    HW2 3518   2.724   1.052   1.553
  872SOL    HW3 3519   2.666   1.191   1.565
  872SOL    MW4 3520   2.730   1.135   1.580
  873SOL     OW 3521   2.957   1.293   1.480
  873SOL    HW2 3522   3.037   1.243   1.494
  873SOL    HW3 3523   2.893   1.251   1.538
  873SOL    MW4 3524   2.959   1.281   1.490
  874SOL     OW 3525   2.931   1.550   1.566
  874SOL    HW2 3526   2.841   1.580   1.558
  874SOL    HW3 3527   2.929   1.460   1.534
  874SOL    MW4 3528   2.919   1.542   1.561
  875SOL     OW 3529   2.690   1.682   1.515
  875SOL    HW2 3530   2.704   1.762   1.565
  875SOL    HW3 3531   2.713   1.706   1.425
  875SOL    MW4 3532   2.695   1.696   1.510
  876SOL     OW 3533   2.682   1.937   1.629
  876SOL    HW2 3534   2.663   1.943   1.723
  876SOL    HW3 3535   2.602   1.969   1.586
  876SOL    MW4 3536   2.669   1.942   1.636
  877SOL     OW 3537   2.915   2.064   1.507
  877SOL    HW2 3538   2.911   2.157   1.531
  877SOL    HW3 3539   2.841   2.024   1.553
  877SOL    MW4 3540   2.905   2.071   1.516
  878SOL     OW 3541   2.905   2.342   1.592
  878SOL    HW2 3542   2.899   2.341   1.688
  878SOL    HW3 3543   2.822   2.378   1.563
  878SOL    MW4 3544   2.893   2.347   1.601
  879SOL     OW 3545   2.683   2.434   1.464
  879SOL    HW2 3546   2.689   2.507   1.525
  879SOL    HW3 3547   2.600   2.391   1.486
  879SOL    MW4 3548   2.673   2.438   1.475
  880SOL     OW 3549   2.713   2.677   1.591
  880SOL    HW2 3550   2.783   2.733   1.558
  880SOL    HW3 3551   2.633   2.720   1.562
  880SOL    MW4 3552   2.712   2.690   1.583
  881SOL     OW 3553   2.915   2.849   1.452
  881SOL    HW2 3554   2.996   2.805   1.479
  881SOL    HW3 3555   2.926   2.939   1.482
  881SOL    MW4 3556   2.927   2.855   1.460
  882SOL     OW 3557   2.916   3.105   1.545
  882SOL    HW2 3558   2.924   3.092   1.639
  882SOL    HW3 3559   2.992   3.158   1.521
  882SOL    MW4 3560   2.927   3.110   1.554
  883SOL     OW 3561   2.707   3.235   1.440
  883SOL    HW2 3562   2.782   3.181   1.466
  883SOL    HW3 3563   2.707   3.232   1.345
  883SOL    MW4 3564   2.717   3.228   1.431
  884SOL     OW 3565   2.763   3.487   1.549
  884SOL    HW2 3566   2.750   3.468   1.642
  884SOL    HW3 3567   2.741   3.405   1.504
  884SOL    MW4 3568   2.758   3.474   1.555
  885SOL     OW 3569   2.961   3.639   1.447
  885SOL    HW2 3570   2.895   3.580   1.486
  885SOL    HW3 3571   2.956   3.621   1.353
  885SOL    MW4 3572   2.951   3.629   1.440
  886SOL     OW 3573   2.904   3.888   1.564
  886SOL    HW2 3574   2.844   3.932   1.504
  886SOL    HW3 3575   2.889   3.795   1.549
  886SOL    MW4 3576   2.894   3.881   1.554
  887SOL     OW 3577   2.697   4.037   1.450
  887SOL    HW2 3578   2.714   4.123   1.490
  887SOL    HW3 3579   2.674   4.057   1.359
  887SOL    MW4 3580   2.697   4.051   1.443
  888SOL     OW 3581   2.746   4.283   1.578
  888SOL    HW2 3582   2.824   4.321   1.537
  888SOL    HW3 3583   2.678   4.349   1.565
  888SOL    MW4 3584   2.747   4.297   1.571
  889SOL     OW 3585   2.964   4.400   1.442
  889SOL    HW2 3586   2.947   4.486   1.480
  889SOL    HW3 3587   2.942   4.410   1.349
  889SOL    MW4 3588   2.959   4.412   1.434
  890SOL     OW 3589   3.335   4.637   1.534
  890SOL    HW2 3590   3.422   4.663   1.505
  890SOL    HW3 3591   3.330   4.544   1.513
  890SOL    MW4 3592   3.346   4.628   1.528
  891SOL     OW 3593   3.132   0.141   1.454
  891SOL    HW2 3594   3.205   0.090   1.488
  891SOL    HW3 3595   3.054   0.101   1.494
  891SOL    MW4 3596   3.131   0.129   1.464
  892SOL     OW 3597   3.132   0.391   1.576
  892SOL    HW2 3598   3.136   0.308   1.529
  892SOL    HW3 3599   3.049   0.429   1.550
  892SOL    MW4 3600   3.122   0.385   1.566
  893SOL     OW 3601   3.402   0.466   1.523
  893SOL    HW2 3602   3.317   0.427   1.543
  893SOL    HW3 3603   3.402   0.478   1.428
  893SOL    MW4 3604   3.391   0.463   1.513
  894SOL     OW 3605   3.392   0.746   1.567
  894SOL    HW2 3606   3.362   0.764   1.656
  894SOL    HW3 3607   3.387   0.650   1.560
  894SOL    MW4 3608   3.387   0.736   1.578
  895SOL     OW 3609   3.199   0.895   1.435
  895SOL    HW2 3610   3.273   0.859   1.484
  895SOL    HW3 3611   3.122   0.854   1.474
  895SOL    MW4 3612   3.199   0.885   1.447
  896SOL     OW 3613   3.169   1.151   1.556
  896SOL    HW2 3614   3.174   1.143   1.651
  896SOL    HW3 3615   3.182   1.062   1.523
  896SOL    MW4 3616   3.171   1.139   1.564
  897SOL     OW 3617   3.386   1.307   1.481
  897SOL    HW2 3618   3.468   1.262   1.501
  897SOL    HW3 3619   3.318   1.252   1.519
  897SOL    MW4 3620   3.388   1.294   1.488
  898SOL     OW 3621   3.389   1.581   1.569
  898SOL    HW2 3622   3.387   1.581   1.665
  898SOL    HW3 3623   3.402   1.489   1.545
  898SOL    MW4 3624   3.391   1.568   1.579
  899SOL     OW 3625   3.140   1.638   1.403
  899SOL    HW2 3626   3.223   1.611   1.443
  899SOL    HW3 3627   3.073   1.602   1.462
  899SOL    MW4 3628   3.142   1.629   1.416
  900SOL     OW 3629   3.147   1.901   1.571
  900SOL    HW2 3630   3.134   1.826   1.513
  900SOL    HW3 3631   3.079   1.964   1.546
  900SOL    MW4 3632   3.137   1.900   1.560
  901SOL     OW 3633   3.379   2.060   1.499
  901SOL    HW2 3634   3.298   2.010   1.512
  901SOL    HW3 3635   3.398   2.052   1.406
  901SOL    MW4 3636   3.371   2.053   1.489
  902SOL     OW 3637   3.348   2.304   1.617
  902SOL    HW2 3638   3.427   2.342   1.578
  902SOL    HW3 3639   3.342   2.217   1.577
  902SOL    MW4 3640   3.358   2.297   1.607
  903SOL     OW 3641   3.134   2.458   1.498
  903SOL    HW2 3642   3.205   2.404   1.533
  903SOL    HW3 3643   3.054   2.418   1.534
  903SOL    MW4 3644   3.133   2.446   1.507
  904SOL     OW 3645   3.135   2.730   1.552
  904SOL    HW2 3646   3.211   2.775   1.517
  904SOL    HW3 3647   3.145   2.639   1.522
  904SOL    MW4 3648   3.146   2.724   1.543
  905SOL     OW 3649   3.372   2.852   1.457
  905SOL    HW2 3650   3.372   2.944   1.484
  905SOL    HW3 3651   3.408   2.852   1.368
  905SOL    MW4 3652   3.377   2.864   1.449
  906SOL     OW 3653   3.349   3.107   1.565
  906SOL    HW2 3654   3.364   3.102   1.659
  906SOL    HW3 3655   3.422   3.159   1.531
  906SOL    MW4 3656   3.361   3.113   1.573
  907SOL     OW 3657   3.128   3.249   1.447
  907SOL    HW2 3658   3.198   3.207   1.497
  907SOL    HW3 3659   3.153   3.235   1.356
  907SOL    MW4 3660   3.141   3.241   1.441
  908SOL     OW 3661   3.182   3.493   1.546
  908SOL    HW2 3662   3.139   3.408   1.534
  908SOL    HW3 3663   3.119   3.557   1.512
  908SOL    MW4 3664   3.168   3.490   1.540
  909SOL     OW 3665   3.402   3.612   1.437
  909SOL    HW2 3666   3.480   3.587   1.487
  909SOL    HW3 3667   3.332   3.559   1.475
  909SOL    MW4 3668   3.403   3.601   1.449
  910SOL     OW 3669   3.333   3.831   1.606
  910SOL    HW2 3670   3.271   3.891   1.564
  910SOL    HW3 3671   3.335   3.754   1.550
  910SOL    MW4 3672   3.325   3.829   1.593
  911SOL     OW 3673   3.157   3.956   1.447
  911SOL    HW2 3674   3.170   4.046   1.478
  911SOL    HW3 3675   3.073   3.931   1.484
  911SOL    MW4 3676   3.148   3.965   1.456
  912SOL     OW 3677   3.159   4.222   1.554
  912SOL    HW2 3678   3.151   4.239   1.648
  912SOL    HW3 3679   3.092   4.278   1.514
  912SOL    MW4 3680   3.149   4.232   1.561
  913SOL     OW 3681   3.362   4.373   1.469
  913SOL    HW2 3682   3.291   4.338   1.521
  913SOL    HW3 3683   3.332   4.366   1.379
  913SOL    MW4 3684   3.349   4.368   1.464
  914SOL     OW 3685   3.819   4.575   1.583
  914SOL    HW2 3686   3.804   4.591   1.676
  914SOL    HW3 3687   3.897   4.626   1.561
  914SOL    MW4 3688   3.827   4.584   1.592
  915SOL     OW 3689   3.588   0.069   1.492
  915SOL    HW2 3690   3.654   0.006   1.522
  915SOL    HW3 3691   3.588   0.060   1.397
  915SOL    MW4 3692   3.597   0.059   1.484
  916SOL     OW 3693   3.648   0.333   1.584
  916SOL    HW2 3694   3.638   0.246   1.546
  916SOL    HW3 3695   3.566   0.378   1.561
  916SOL    MW4 3696   3.636   0.327   1.576
  917SOL     OW 3697   3.874   0.490   1.527
  917SOL    HW2 3698   3.794   0.440   1.545
  917SOL    HW3 3699   3.872   0.505   1.433
  917SOL    MW4 3700   3.863   0.485   1.517
  918SOL     OW 3701   3.854   0.774   1.620
  918SOL    HW2 3702   3.769   0.801   1.585
  918SOL    HW3 3703   3.863   0.682   1.593
  918SOL    MW4 3704   3.844   0.765   1.612
  919SOL     OW 3705   3.630   0.843   1.478
  919SOL    HW2 3706   3.551   0.802   1.513
  919SOL    HW3 3707   3.626   0.826   1.384
  919SOL    MW4 3708   3.619   0.835   1.470
  920SOL     OW 3709   3.598   1.143   1.565
  920SOL    HW2 3710   3.678   1.174   1.522
  920SOL    HW3 3711   3.596   1.049   1.547
  920SOL    MW4 3712   3.608   1.135   1.557
  921SOL     OW 3713   3.839   1.264   1.476
  921SOL    HW2 3714   3.889   1.213   1.540
  921SOL    HW3 3715   3.834   1.352   1.515
  921SOL    MW4 3716   3.845   1.269   1.489
  922SOL     OW 3717   3.801   1.521   1.572
  922SOL    HW2 3718   3.787   1.506   1.666
  922SOL    HW3 3719   3.726   1.574   1.544
  922SOL    MW4 3720   3.789   1.526   1.581
  923SOL     OW 3721   3.586   1.684   1.416
  923SOL    HW2 3722   3.507   1.658   1.464
  923SOL    HW3 3723   3.575   1.644   1.330
  923SOL    MW4 3724   3.574   1.675   1.411
  924SOL     OW 3725   3.569   1.898   1.598
  924SOL    HW2 3726   3.561   1.828   1.533
  924SOL    HW3 3727   3.498   1.958   1.577
  924SOL    MW4 3728   3.559   1.896   1.587
  925SOL     OW 3729   3.778   2.037   1.483
  925SOL    HW2 3730   3.779   2.112   1.543
  925SOL    HW3 3731   3.706   1.982   1.514
  925SOL    MW4 3732   3.768   2.040   1.495
  926SOL     OW 3733   3.789   2.277   1.608
  926SOL    HW2 3734   3.801   2.295   1.701
  926SOL    HW3 3735   3.869   2.311   1.567
  926SOL    MW4 3736   3.801   2.284   1.615
  927SOL     OW 3737   3.580   2.413   1.483
  927SOL    HW2 3738   3.587   2.501   1.518
  927SOL    HW3 3739   3.647   2.363   1.529
  927SOL    MW4 3740   3.590   2.418   1.494
  928SOL     OW 3741   3.560   2.682   1.539
  928SOL    HW2 3742   3.557   2.676   1.635
  928SOL    HW3 3743   3.495   2.749   1.518
  928SOL    MW4 3744   3.551   2.690   1.549
  929SOL     OW 3745   3.785   2.854   1.439
  929SOL    HW2 3746   3.862   2.805   1.468
  929SOL    HW3 3747   3.711   2.810   1.481
  929SOL    MW4 3748   3.785   2.842   1.449
  930SOL     OW 3749   3.815   3.106   1.558
  930SOL    HW2 3750   3.894   3.142   1.516
  930SOL    HW3 3751   3.808   3.017   1.524
  930SOL    MW4 3752   3.824   3.099   1.548
  931SOL     OW 3753   3.583   3.242   1.481
  931SOL    HW2 3754   3.663   3.196   1.505
  931SOL    HW3 3755   3.581   3.237   1.385
  931SOL    MW4 3756   3.594   3.235   1.471
  932SOL     OW 3757   3.598   3.489   1.584
  932SOL    HW2 3758   3.672   3.514   1.529
  932SOL    HW3 3759   3.575   3.400   1.556
  932SOL    MW4 3760   3.604   3.480   1.573
  933SOL     OW 3761   3.821   3.575   1.448
  933SOL    HW2 3762   3.902   3.528   1.468
  933SOL    HW3 3763   3.828   3.656   1.497
  933SOL    MW4 3764   3.833   3.579   1.457
  934SOL     OW 3765   3.801   3.821   1.571
  934SOL    HW2 3766   3.869   3.888   1.558
  934SOL    HW3 3767   3.721   3.862   1.538
  934SOL    MW4 3768   3.800   3.835   1.565
  935SOL     OW 3769   3.546   3.931   1.496
  935SOL    HW2 3770   3.538   4.023   1.520
  935SOL    HW3 3771   3.470   3.889   1.536
  935SOL    MW4 3772   3.535   3.938   1.504
  936SOL     OW 3773   3.573   4.208   1.542
  936SOL    HW2 3774   3.577   4.209   1.638
  936SOL    HW3 3775   3.496   4.262   1.521
  936SOL    MW4 3776   3.563   4.215   1.552
  937SOL     OW 3777   3.793   4.339   1.445
  937SOL    HW2 3778   3.719   4.289   1.481
  937SOL    HW3 3779   3.793   4.421   1.494
  937SOL    MW4 3780   3.783   4.343   1.456
  938SOL     OW 3781   4.239   4.563   1.600
  938SOL    HW2 3782   4.249   4.574   1.695
  938SOL    HW3 3783   4.249   4.469   1.586
  938SOL    MW4 3784   4.242   4.552   1.611
  939SOL     OW 3785   4.034   0.062   1.501
  939SOL    HW2 3786   4.030   0.151   1.534
  939SOL    HW3 3787   4.116   0.027   1.537
  939SOL    MW4 3788   4.044   0.069   1.510
  940SOL     OW 3789   4.071   0.317   1.608
  940SOL    HW2 3790   4.074   0.303   1.702
  940SOL    HW3 3791   3.994   0.372   1.594
  940SOL    MW4 3792   4.062   0.323   1.618
  941SOL     OW 3793   4.288   0.429   1.478
  941SOL    HW2 3794   4.210   0.383   1.510
  941SOL    HW3 3795   4.360   0.392   1.528
  941SOL    MW4 3796   4.287   0.418   1.488
  942SOL     OW 3797   4.272   0.697   1.593
  942SOL    HW2 3798   4.261   0.614   1.547
  942SOL    HW3 3799   4.358   0.729   1.566
  942SOL    MW4 3800   4.282   0.691   1.584
  943SOL     OW 3801   4.079   0.858   1.488
  943SOL    HW2 3802   4.153   0.827   1.540
  943SOL    HW3 3803   4.002   0.819   1.530
  943SOL    MW4 3804   4.079   0.849   1.500
  944SOL     OW 3805   4.040   1.108   1.603
  944SOL    HW2 3806   4.040   1.083   1.695
  944SOL    HW3 3807   4.059   1.027   1.555
  944SOL    MW4 3808   4.043   1.094   1.608
  945SOL     OW 3809   4.245   1.216   1.485
  945SOL    HW2 3810   4.170   1.175   1.527
  945SOL    HW3 3811   4.320   1.192   1.540
  945SOL    MW4 3812   4.245   1.208   1.498
  946SOL     OW 3813   4.225   1.463   1.590
  946SOL    HW2 3814   4.230   1.376   1.549
  946SOL    HW3 3815   4.305   1.507   1.561
  946SOL    MW4 3816   4.236   1.457   1.581
  947SOL     OW 3817   4.028   1.618   1.449
  947SOL    HW2 3818   4.089   1.572   1.507
  947SOL    HW3 3819   3.941   1.590   1.478
  947SOL    MW4 3820   4.025   1.608   1.461
  948SOL     OW 3821   4.024   1.876   1.583
  948SOL    HW2 3822   4.027   1.799   1.527
  948SOL    HW3 3823   3.941   1.919   1.560
  948SOL    MW4 3824   4.013   1.872   1.573
  949SOL     OW 3825   4.266   2.029   1.503
  949SOL    HW2 3826   4.188   1.982   1.532
  949SOL    HW3 3827   4.255   2.037   1.408
  949SOL    MW4 3828   4.255   2.024   1.494
  950SOL     OW 3829   4.246   2.319   1.545
  950SOL    HW2 3830   4.241   2.313   1.640
  950SOL    HW3 3831   4.253   2.228   1.515
  950SOL    MW4 3832   4.247   2.306   1.554
  951SOL     OW 3833   4.007   2.401   1.470
  951SOL    HW2 3834   4.005   2.496   1.480
  951SOL    HW3 3835   4.098   2.377   1.486
  951SOL    MW4 3836   4.019   2.410   1.474
  952SOL     OW 3837   4.015   2.683   1.529
  952SOL    HW2 3838   4.005   2.669   1.624
  952SOL    HW3 3839   4.091   2.741   1.521
  952SOL    MW4 3840   4.024   2.689   1.541
  953SOL     OW 3841   4.252   2.815   1.478
  953SOL    HW2 3842   4.264   2.902   1.516
  953SOL    HW3 3843   4.280   2.824   1.387
  953SOL    MW4 3844   4.257   2.828   1.471
  954SOL     OW 3845   4.275   3.080   1.555
  954SOL    HW2 3846   4.282   3.087   1.651
  954SOL    HW3 3847   4.365   3.087   1.523
  954SOL    MW4 3848   4.287   3.082   1.564
  955SOL     OW 3849   4.045   3.161   1.424
  955SOL    HW2 3850   4.053   3.253   1.448
  955SOL    HW3 3851   4.125   3.120   1.457
  955SOL    MW4 3852   4.057   3.168   1.431
  956SOL     OW 3853   4.049   3.428   1.541
  956SOL    HW2 3854   4.044   3.443   1.635
  956SOL    HW3 3855   4.132   3.467   1.514
  956SOL    MW4 3856   4.059   3.435   1.550
  957SOL     OW 3857   4.302   3.565   1.431
  957SOL    HW2 3858   4.291   3.644   1.484
  957SOL    HW3 3859   4.274   3.591   1.343
  957SOL    MW4 3860   4.297   3.579   1.427
  958SOL     OW 3861   4.252   3.814   1.551
  958SOL    HW2 3862   4.162   3.847   1.543
  958SOL    HW3 3863   4.306   3.882   1.511
  958SOL    MW4 3864   4.247   3.827   1.544
  959SOL     OW 3865   4.007   3.971   1.489
  959SOL    HW2 3866   3.997   4.063   1.516
  959SOL    HW3 3867   4.001   3.973   1.394
  959SOL    MW4 3868   4.005   3.984   1.480
  960SOL     OW 3869   3.992   4.224   1.592
  960SOL    HW2 3870   4.000   4.249   1.684
  960SOL    HW3 3871   3.903   4.252   1.568
  960SOL    MW4 3872   3.981   4.231   1.601
  961SOL     OW 3873   4.255   4.316   1.504
  961SOL    HW2 3874   4.172   4.270   1.518
  961SOL    HW3 3875   4.255   4.338   1.411
  961SOL    MW4 3876   4.244   4.313   1.493
  962SOL     OW 3877   0.222   4.633   1.829
  962SOL    HW2 3878   0.291   4.694   1.853
  962SOL    HW3 3879   0.229   4.624   1.734
  962SOL    MW4 3880   0.232   4.640   1.820
  963SOL     OW 3881   0.019   0.091   1.970
  963SOL    HW2 3882  -0.008   0.169   1.921
  963SOL    HW3 3883   0.083   0.048   1.912
  963SOL    MW4 3884   0.024   0.096   1.956
  964SOL     OW 3885   0.001   0.343   1.837
  964SOL    HW2 3886  -0.080   0.384   1.869
  964SOL    HW3 3887   0.070   0.403   1.862
  964SOL    MW4 3888  -0.001   0.356   1.845
  965SOL     OW 3889   0.228   0.477   1.957
  965SOL    HW2 3890   0.302   0.429   1.921
  965SOL    HW3 3891   0.232   0.563   1.916
  965SOL    MW4 3892   0.238   0.482   1.946
  966SOL     OW 3893   0.224   0.741   1.869
  966SOL    HW2 3894   0.293   0.806   1.884
  966SOL    HW3 3895   0.241   0.709   1.780
  966SOL    MW4 3896   0.236   0.746   1.859
  967SOL     OW 3897   4.471   0.834   1.973
  967SOL    HW2 3898   4.398   0.793   1.928
  967SOL    HW3 3899   4.549   0.810   1.922
  967SOL    MW4 3900   4.472   0.826   1.960
  968SOL     OW 3901   0.007   1.102   1.890
  968SOL    HW2 3902  -0.065   1.137   1.944
  968SOL    HW3 3903   0.003   1.008   1.904
  968SOL    MW4 3904  -0.004   1.094   1.899
  969SOL     OW 3905   0.187   1.273   2.009
  969SOL    HW2 3906   0.185   1.349   1.951
  969SOL    HW3 3907   0.124   1.212   1.970
  969SOL    MW4 3908   0.178   1.275   1.996
  970SOL     OW 3909   0.166   1.496   1.866
  970SOL    HW2 3910   0.245   1.531   1.909
  970SOL    HW3 3911   0.096   1.553   1.897
  970SOL    MW4 3912   0.167   1.508   1.876
  971SOL     OW 3913   4.447   1.669   1.957
  971SOL    HW2 3914   4.462   1.660   2.051
  971SOL    HW3 3915   4.379   1.604   1.937
  971SOL    MW4 3916   4.440   1.659   1.967
  972SOL     OW 3917   4.465   1.923   1.851
  972SOL    HW2 3918   4.381   1.968   1.862
  972SOL    HW3 3919   4.447   1.833   1.877
  972SOL    MW4 3920   4.451   1.917   1.856
  973SOL     OW 3921   0.196   2.025   1.981
  973SOL    HW2 3922   0.203   2.119   1.965
  973SOL    HW3 3923   0.111   2.000   1.943
  973SOL    MW4 3924   0.186   2.034   1.974
  974SOL     OW 3925   0.186   2.301   1.899
  974SOL    HW2 3926   0.246   2.358   1.947
  974SOL    HW3 3927   0.103   2.348   1.899
  974SOL    MW4 3928   0.183   2.315   1.906
  975SOL     OW 3929   4.442   2.445   1.929
  975SOL    HW2 3930   4.436   2.440   2.024
  975SOL    HW3 3931   4.436   2.538   1.909
  975SOL    MW4 3932   4.440   2.457   1.939
  976SOL     OW 3933   4.438   2.710   1.907
  976SOL    HW2 3934   4.357   2.756   1.931
  976SOL    HW3 3935   4.441   2.716   1.811
  976SOL    MW4 3936   4.428   2.717   1.898
  977SOL     OW 3937   0.175   2.845   1.983
  977SOL    HW2 3938   0.177   2.935   1.951
  977SOL    HW3 3939   0.094   2.808   1.946
  977SOL    MW4 3940   0.165   2.852   1.974
  978SOL     OW 3941   0.200   3.091   1.848
  978SOL    HW2 3942   0.278   3.128   1.888
  978SOL    HW3 3943   0.224   3.075   1.757
  978SOL    MW4 3944   0.213   3.094   1.842
  979SOL     OW 3945   4.469   3.214   1.940
  979SOL    HW2 3946   4.395   3.160   1.912
  979SOL    HW3 3947   4.546   3.174   1.898
  979SOL    MW4 3948   4.470   3.201   1.931
  980SOL     OW 3949   4.453   3.487   1.887
  980SOL    HW2 3950   4.545   3.514   1.888
  980SOL    HW3 3951   4.455   3.395   1.912
  980SOL    MW4 3952   4.466   3.479   1.891
  981SOL     OW 3953   0.211   3.601   1.921
  981SOL    HW2 3954   0.208   3.597   2.017
  981SOL    HW3 3955   0.280   3.539   1.897
  981SOL    MW4 3956   0.220   3.592   1.930
  982SOL     OW 3957   0.213   3.853   1.802
  982SOL    HW2 3958   0.280   3.900   1.852
  982SOL    HW3 3959   0.214   3.765   1.838
  982SOL    MW4 3960   0.222   3.848   1.813
  983SOL     OW 3961   0.004   3.964   1.944
  983SOL    HW2 3962   0.018   4.054   1.914
  983SOL    HW3 3963   0.069   3.912   1.897
  983SOL    MW4 3964   0.015   3.969   1.934
  984SOL     OW 3965   4.480   4.226   1.847
  984SOL    HW2 3966   4.400   4.260   1.888
  984SOL    HW3 3967   4.549   4.286   1.876
  984SOL    MW4 3968   4.478   4.238   1.857
  985SOL     OW 3969   0.227   4.368   1.932
  985SOL    HW2 3970   0.251   4.363   2.024
  985SOL    HW3 3971   0.220   4.461   1.914
  985SOL    MW4 3972   0.229   4.379   1.942
  986SOL     OW 3973   0.686   4.646   1.828
  986SOL    HW2 3974   0.673   4.559   1.867
  986SOL    HW3 3975   0.677   4.632   1.734
  986SOL    MW4 3976   0.683   4.633   1.821
  987SOL     OW 3977   0.456   0.098   1.946
  987SOL    HW2 3978   0.462   0.186   1.908
  987SOL    HW3 3979   0.526   0.049   1.904
  987SOL    MW4 3980   0.466   0.103   1.936
  988SOL     OW 3981   0.448   0.350   1.837
  988SOL    HW2 3982   0.520   0.406   1.867
  988SOL    HW3 3983   0.469   0.330   1.746
  988SOL    MW4 3984   0.460   0.355   1.829
  989SOL     OW 3985   0.662   0.527   1.925
  989SOL    HW2 3986   0.664   0.540   2.019
  989SOL    HW3 3987   0.742   0.477   1.906
  989SOL    MW4 3988   0.673   0.522   1.935
  990SOL     OW 3989   0.671   0.777   1.840
  990SOL    HW2 3990   0.737   0.822   1.892
  990SOL    HW3 3991   0.676   0.686   1.868
  990SOL    MW4 3992   0.680   0.771   1.850
  991SOL     OW 3993   0.444   0.892   1.962
  991SOL    HW2 3994   0.434   0.983   1.935
  991SOL    HW3 3995   0.521   0.861   1.915
  991SOL    MW4 3996   0.452   0.900   1.952
  992SOL     OW 3997   0.434   1.174   1.884
  992SOL    HW2 3998   0.351   1.214   1.910
  992SOL    HW3 3999   0.429   1.167   1.789
  992SOL    MW4 4000   0.423   1.178   1.875
  993SOL     OW 4001   0.675   1.277   1.965
  993SOL    HW2 4002   0.675   1.293   2.059
  993SOL    HW3 4003   0.593   1.231   1.948
  993SOL    MW4 4004   0.664   1.273   1.975
  994SOL     OW 4005   0.637   1.532   1.842
  994SOL    HW2 4006   0.665   1.444   1.868
  994SOL    HW3 4007   0.619   1.524   1.748
  994SOL    MW4 4008   0.638   1.519   1.833
  995SOL     OW 4009   0.388   1.604   1.937
  995SOL    HW2 4010   0.397   1.623   2.030
  995SOL    HW3 4011   0.471   1.564   1.912
  995SOL    MW4 4012   0.400   1.602   1.946
  996SOL     OW 4013   0.415   1.870   1.871
  996SOL    HW2 4014   0.395   1.777   1.884
  996SOL    HW3 4015   0.338   1.916   1.904
  996SOL    MW4 4016   0.402   1.864   1.877
  997SOL     OW 4017   0.627   2.050   1.966
  997SOL    HW2 4018   0.615   2.050   2.061
  997SOL    HW3 4019   0.571   1.980   1.934
  997SOL    MW4 4020   0.618   2.041   1.974
  998SOL     OW 4021   0.642   2.320   1.912
  998SOL    HW2 4022   0.619   2.228   1.929
  998SOL    HW3 4023   0.645   2.327   1.817
  998SOL    MW4 4024   0.639   2.309   1.902
  999SOL     OW 4025   0.417   2.461   1.973
  999SOL    HW2 4026   0.427   2.472   2.068
  999SOL    HW3 4027   0.495   2.413   1.946
  999SOL    MW4 4028   0.428   2.456   1.982
 1000SOL     OW 4029   0.382   2.710   1.858
 1000SOL    HW2 4030   0.380   2.619   1.889
 1000SOL    HW3 4031   0.309   2.753   1.902
 1000SOL    MW4 4032   0.372   2.704   1.868
 1001SOL     OW 4033   0.643   2.788   1.924
 1001SOL    HW2 4034   0.634   2.808   2.017
 1001SOL    HW3 4035   0.554   2.766   1.895
 1001SOL    MW4 4036   0.630   2.787   1.933
 1002SOL     OW 4037   0.649   3.059   1.853
 1002SOL    HW2 4038   0.650   2.968   1.885
 1002SOL    HW3 4039   0.680   3.053   1.763
 1002SOL    MW4 4040   0.653   3.046   1.845
 1003SOL     OW 4041   0.420   3.208   1.943
 1003SOL    HW2 4042   0.440   3.298   1.917
 1003SOL    HW3 4043   0.492   3.156   1.907
 1003SOL    MW4 4044   0.432   3.213   1.935
 1004SOL     OW 4045   0.455   3.465   1.870
 1004SOL    HW2 4046   0.519   3.535   1.883
 1004SOL    HW3 4047   0.451   3.453   1.775
 1004SOL    MW4 4048   0.463   3.472   1.859
 1005SOL     OW 4049   0.662   3.630   1.918
 1005SOL    HW2 4050   0.729   3.568   1.889
 1005SOL    HW3 4051   0.698   3.716   1.899
 1005SOL    MW4 4052   0.675   3.633   1.912
 1006SOL     OW 4053   0.681   3.909   1.829
 1006SOL    HW2 4054   0.762   3.954   1.855
 1006SOL    HW3 4055   0.688   3.900   1.734
 1006SOL    MW4 4056   0.692   3.913   1.820
 1007SOL     OW 4057   0.413   3.997   1.934
 1007SOL    HW2 4058   0.442   4.087   1.920
 1007SOL    HW3 4059   0.485   3.944   1.901
 1007SOL    MW4 4060   0.426   4.002   1.928
 1008SOL     OW 4061   0.469   4.268   1.824
 1008SOL    HW2 4062   0.383   4.303   1.845
 1008SOL    HW3 4063   0.475   4.273   1.729
 1008SOL    MW4 4064   0.459   4.273   1.815
 1009SOL     OW 4065   0.671   4.383   1.957
 1009SOL    HW2 4066   0.749   4.361   1.905
 1009SOL    HW3 4067   0.601   4.332   1.917
 1009SOL    MW4 4068   0.672   4.373   1.945
 1010SOL     OW 4069   1.108   0.004   1.811
 1010SOL    HW2 4070   1.182   0.057   1.842
 1010SOL    HW3 4071   1.116  -0.079   1.856
 1010SOL    MW4 4072   1.119   0.000   1.821
 1011SOL     OW 4073   0.909   0.130   1.934
 1011SOL    HW2 4074   0.978   0.092   1.881
 1011SOL    HW3 4075   0.829   0.087   1.903
 1011SOL    MW4 4076   0.907   0.119   1.923
 1012SOL     OW 4077   0.901   0.383   1.837
 1012SOL    HW2 4078   0.959   0.442   1.883
 1012SOL    HW3 4079   0.900   0.303   1.890
 1012SOL    MW4 4080   0.908   0.380   1.850
 1013SOL     OW 4081   1.120   0.506   1.987
 1013SOL    HW2 4082   1.195   0.474   1.938
 1013SOL    HW3 4083   1.110   0.597   1.959
 1013SOL    MW4 4084   1.129   0.514   1.977
 1014SOL     OW 4085   1.122   0.763   1.915
 1014SOL    HW2 4086   1.186   0.833   1.930
 1014SOL    HW3 4087   1.041   0.796   1.956
 1014SOL    MW4 4088   1.120   0.777   1.923
 1015SOL     OW 4089   0.882   0.885   1.987
 1015SOL    HW2 4090   0.876   0.886   2.082
 1015SOL    HW3 4091   0.896   0.976   1.963
 1015SOL    MW4 4092   0.883   0.897   1.996
 1016SOL     OW 4093   0.928   1.149   1.898
 1016SOL    HW2 4094   0.845   1.194   1.912
 1016SOL    HW3 4095   0.933   1.137   1.803
 1016SOL    MW4 4096   0.918   1.153   1.887
 1017SOL     OW 4097   1.128   1.328   2.007
 1017SOL    HW2 4098   1.116   1.413   1.966
 1017SOL    HW3 4099   1.055   1.275   1.974
 1017SOL    MW4 4100   1.117   1.332   1.998
 1018SOL     OW 4101   1.134   1.578   1.889
 1018SOL    HW2 4102   1.050   1.618   1.907
 1018SOL    HW3 4103   1.130   1.553   1.797
 1018SOL    MW4 4104   1.123   1.580   1.879
 1019SOL     OW 4105   0.872   1.677   1.962
 1019SOL    HW2 4106   0.867   1.770   1.937
 1019SOL    HW3 4107   0.792   1.638   1.929
 1019SOL    MW4 4108   0.861   1.684   1.955
 1020SOL     OW 4109   0.872   1.949   1.880
 1020SOL    HW2 4110   0.795   1.995   1.914
 1020SOL    HW3 4111   0.853   1.937   1.787
 1020SOL    MW4 4112   0.859   1.954   1.872
 1021SOL     OW 4113   1.104   2.064   1.984
 1021SOL    HW2 4114   1.095   2.150   1.944
 1021SOL    HW3 4115   1.032   2.013   1.946
 1021SOL    MW4 4116   1.094   2.068   1.973
 1022SOL     OW 4117   1.115   2.306   1.863
 1022SOL    HW2 4118   1.195   2.341   1.902
 1022SOL    HW3 4119   1.125   2.321   1.769
 1022SOL    MW4 4120   1.127   2.312   1.856
 1023SOL     OW 4121   0.899   2.408   1.998
 1023SOL    HW2 4122   0.971   2.376   1.944
 1023SOL    HW3 4123   0.820   2.388   1.947
 1023SOL    MW4 4124   0.898   2.401   1.984
 1024SOL     OW 4125   0.900   2.668   1.891
 1024SOL    HW2 4126   0.915   2.603   1.960
 1024SOL    HW3 4127   0.813   2.703   1.909
 1024SOL    MW4 4128   0.891   2.664   1.903
 1025SOL     OW 4129   1.104   2.841   1.963
 1025SOL    HW2 4130   1.094   2.850   2.058
 1025SOL    HW3 4131   1.032   2.783   1.937
 1025SOL    MW4 4132   1.093   2.834   1.972
 1026SOL     OW 4133   1.119   3.107   1.882
 1026SOL    HW2 4134   1.030   3.143   1.889
 1026SOL    HW3 4135   1.111   3.017   1.915
 1026SOL    MW4 4136   1.106   3.099   1.887
 1027SOL     OW 4137   0.880   3.208   1.938
 1027SOL    HW2 4138   0.885   3.215   2.034
 1027SOL    HW3 4139   0.803   3.154   1.922
 1027SOL    MW4 4140   0.871   3.202   1.949
 1028SOL     OW 4141   0.902   3.478   1.883
 1028SOL    HW2 4142   0.897   3.383   1.894
 1028SOL    HW3 4143   0.918   3.490   1.789
 1028SOL    MW4 4144   0.903   3.467   1.872
 1029SOL     OW 4145   1.135   3.610   1.950
 1029SOL    HW2 4146   1.141   3.598   2.045
 1029SOL    HW3 4147   1.051   3.571   1.926
 1029SOL    MW4 4148   1.125   3.603   1.959
 1030SOL     OW 4149   1.156   3.887   1.844
 1030SOL    HW2 4150   1.141   3.805   1.891
 1030SOL    HW3 4151   1.165   3.862   1.752
 1030SOL    MW4 4152   1.155   3.873   1.838
 1031SOL     OW 4153   0.920   4.049   1.888
 1031SOL    HW2 4154   0.914   4.031   1.982
 1031SOL    HW3 4155   0.994   3.996   1.858
 1031SOL    MW4 4156   0.929   4.040   1.896
 1032SOL     OW 4157   0.890   4.314   1.817
 1032SOL    HW2 4158   0.966   4.362   1.851
 1032SOL    HW3 4159   0.900   4.225   1.851
 1032SOL    MW4 4160   0.901   4.309   1.826
 1033SOL     OW 4161   1.116   4.409   1.930
 1033SOL    HW2 4162   1.131   4.388   2.022
 1033SOL    HW3 4163   1.177   4.353   1.882
 1033SOL    MW4 4164   1.126   4.399   1.936
 1034SOL     OW 4165   1.572   4.658   1.865
 1034SOL    HW2 4166   1.651   4.701   1.898
 1034SOL    HW3 4167   1.590   4.565   1.876
 1034SOL    MW4 4168   1.585   4.651   1.871
 1035SOL     OW 4169   1.337   0.114   1.923
 1035SOL    HW2 4170   1.337   0.099   2.018
 1035SOL    HW3 4171   1.418   0.075   1.892
 1035SOL    MW4 4172   1.347   0.107   1.931
 1036SOL     OW 4173   1.342   0.385   1.847
 1036SOL    HW2 4174   1.359   0.299   1.885
 1036SOL    HW3 4175   1.355   0.373   1.753
 1036SOL    MW4 4176   1.346   0.372   1.840
 1037SOL     OW 4177   1.564   0.504   1.985
 1037SOL    HW2 4178   1.639   0.460   1.944
 1037SOL    HW3 4179   1.488   0.462   1.945
 1037SOL    MW4 4180   1.564   0.492   1.974
 1038SOL     OW 4181   1.565   0.745   1.850
 1038SOL    HW2 4182   1.647   0.787   1.874
 1038SOL    HW3 4183   1.562   0.665   1.903
 1038SOL    MW4 4184   1.575   0.740   1.860
 1039SOL     OW 4185   1.354   0.906   1.933
 1039SOL    HW2 4186   1.351   0.901   2.028
 1039SOL    HW3 4187   1.431   0.855   1.908
 1039SOL    MW4 4188   1.363   0.899   1.942
 1040SOL     OW 4189   1.346   1.166   1.839
 1040SOL    HW2 4190   1.353   1.076   1.870
 1040SOL    HW3 4191   1.280   1.206   1.896
 1040SOL    MW4 4192   1.338   1.159   1.850
 1041SOL     OW 4193   1.580   1.236   1.961
 1041SOL    HW2 4194   1.569   1.331   1.953
 1041SOL    HW3 4195   1.502   1.199   1.921
 1041SOL    MW4 4196   1.569   1.244   1.955
 1042SOL     OW 4197   1.529   1.513   1.918
 1042SOL    HW2 4198   1.609   1.558   1.945
 1042SOL    HW3 4199   1.459   1.575   1.940
 1042SOL    MW4 4200   1.530   1.527   1.925
 1043SOL     OW 4201   1.365   1.715   1.999
 1043SOL    HW2 4202   1.365   1.716   2.094
 1043SOL    HW3 4203   1.281   1.674   1.975
 1043SOL    MW4 4204   1.354   1.710   2.008
 1044SOL     OW 4205   1.333   1.963   1.870
 1044SOL    HW2 4206   1.346   1.876   1.907
 1044SOL    HW3 4207   1.258   1.999   1.917
 1044SOL    MW4 4208   1.325   1.956   1.881
 1045SOL     OW 4209   1.536   2.089   1.998
 1045SOL    HW2 4210   1.534   2.173   1.953
 1045SOL    HW3 4211   1.478   2.032   1.948
 1045SOL    MW4 4212   1.528   2.092   1.986
 1046SOL     OW 4213   1.555   2.318   1.857
 1046SOL    HW2 4214   1.631   2.365   1.891
 1046SOL    HW3 4215   1.549   2.345   1.766
 1046SOL    MW4 4216   1.565   2.328   1.850
 1047SOL     OW 4217   1.337   2.467   1.963
 1047SOL    HW2 4218   1.333   2.544   1.906
 1047SOL    HW3 4219   1.415   2.419   1.933
 1047SOL    MW4 4220   1.347   2.471   1.951
 1048SOL     OW 4221   1.313   2.699   1.825
 1048SOL    HW2 4222   1.233   2.737   1.863
 1048SOL    HW3 4223   1.305   2.715   1.731
 1048SOL    MW4 4224   1.302   2.706   1.818
 1049SOL     OW 4225   1.522   2.871   1.908
 1049SOL    HW2 4226   1.603   2.824   1.887
 1049SOL    HW3 4227   1.452   2.813   1.877
 1049SOL    MW4 4228   1.523   2.857   1.901
 1050SOL     OW 4229   1.564   3.141   1.852
 1050SOL    HW2 4230   1.535   3.050   1.867
 1050SOL    HW3 4231   1.580   3.145   1.757
 1050SOL    MW4 4232   1.562   3.129   1.841
 1051SOL     OW 4233   1.328   3.283   1.974
 1051SOL    HW2 4234   1.402   3.232   1.940
 1051SOL    HW3 4235   1.251   3.230   1.954
 1051SOL    MW4 4236   1.328   3.269   1.967
 1052SOL     OW 4237   1.337   3.512   1.788
 1052SOL    HW2 4238   1.345   3.426   1.830
 1052SOL    HW3 4239   1.264   3.554   1.833
 1052SOL    MW4 4240   1.329   3.506   1.800
 1053SOL     OW 4241   1.568   3.634   1.905
 1053SOL    HW2 4242   1.569   3.619   1.999
 1053SOL    HW3 4243   1.486   3.595   1.875
 1053SOL    MW4 4244   1.558   3.627   1.913
 1054SOL     OW 4245   1.581   3.899   1.833
 1054SOL    HW2 4246   1.661   3.932   1.875
 1054SOL    HW3 4247   1.572   3.810   1.865
 1054SOL    MW4 4248   1.591   3.892   1.843
 1055SOL     OW 4249   1.372   4.035   1.958
 1055SOL    HW2 4250   1.447   3.993   1.915
 1055SOL    HW3 4251   1.296   3.986   1.926
 1055SOL    MW4 4252   1.372   4.023   1.948
 1056SOL     OW 4253   1.332   4.260   1.809
 1056SOL    HW2 4254   1.336   4.170   1.842
 1056SOL    HW3 4255   1.346   4.251   1.714
 1056SOL    MW4 4256   1.335   4.247   1.801
 1057SOL     OW 4257   1.599   4.387   1.886
 1057SOL    HW2 4258   1.593   4.384   1.982
 1057SOL    HW3 4259   1.518   4.347   1.855
 1057SOL    MW4 4260   1.588   4.381   1.895
 1058SOL     OW 4261   2.005   4.621   1.835
 1058SOL    HW2 4262   2.080   4.660   1.880
 1058SOL    HW3 4263   2.003   4.530   1.864
 1058SOL    MW4 4264   2.014   4.614   1.845
 1059SOL     OW 4265   1.800   0.085   1.959
 1059SOL    HW2 4266   1.805   0.083   2.054
 1059SOL    HW3 4267   1.878   0.039   1.929
 1059SOL    MW4 4268   1.811   0.079   1.967
 1060SOL     OW 4269   1.807   0.362   1.869
 1060SOL    HW2 4270   1.803   0.273   1.904
 1060SOL    HW3 4271   1.783   0.352   1.777
 1060SOL    MW4 4272   1.803   0.349   1.861
 1061SOL     OW 4273   2.025   0.521   1.986
 1061SOL    HW2 4274   2.015   0.602   1.936
 1061SOL    HW3 4275   1.961   0.460   1.948
 1061SOL    MW4 4276   2.015   0.524   1.975
 1062SOL     OW 4277   2.026   0.767   1.851
 1062SOL    HW2 4278   2.094   0.822   1.889
 1062SOL    HW3 4279   2.027   0.788   1.758
 1062SOL    MW4 4280   2.035   0.777   1.844
 1063SOL     OW 4281   1.790   0.866   1.932
 1063SOL    HW2 4282   1.794   0.955   1.896
 1063SOL    HW3 4283   1.876   0.828   1.914
 1063SOL    MW4 4284   1.802   0.872   1.925
 1064SOL     OW 4285   1.814   1.139   1.864
 1064SOL    HW2 4286   1.735   1.176   1.902
 1064SOL    HW3 4287   1.804   1.153   1.770
 1064SOL    MW4 4288   1.802   1.146   1.857
 1065SOL     OW 4289   2.030   1.293   1.995
 1065SOL    HW2 4290   2.114   1.268   1.958
 1065SOL    HW3 4291   1.967   1.236   1.952
 1065SOL    MW4 4292   2.033   1.282   1.984
 1066SOL     OW 4293   2.018   1.551   1.882
 1066SOL    HW2 4294   2.025   1.465   1.925
 1066SOL    HW3 4295   1.997   1.530   1.791
 1066SOL    MW4 4296   2.016   1.537   1.876
 1067SOL     OW 4297   1.783   1.669   1.967
 1067SOL    HW2 4298   1.779   1.754   1.923
 1067SOL    HW3 4299   1.871   1.637   1.948
 1067SOL    MW4 4300   1.794   1.676   1.959
 1068SOL     OW 4301   1.774   1.946   1.917
 1068SOL    HW2 4302   1.696   1.994   1.947
 1068SOL    HW3 4303   1.778   1.964   1.823
 1068SOL    MW4 4304   1.764   1.955   1.908
 1069SOL     OW 4305   1.994   2.111   2.010
 1069SOL    HW2 4306   2.077   2.080   1.972
 1069SOL    HW3 4307   1.932   2.041   1.990
 1069SOL    MW4 4308   1.997   2.098   2.002
 1070SOL     OW 4309   2.014   2.328   1.856
 1070SOL    HW2 4310   2.096   2.370   1.883
 1070SOL    HW3 4311   2.005   2.254   1.916
 1070SOL    MW4 4312   2.024   2.324   1.868
 1071SOL     OW 4313   1.786   2.446   1.957
 1071SOL    HW2 4314   1.775   2.429   2.051
 1071SOL    HW3 4315   1.870   2.406   1.936
 1071SOL    MW4 4316   1.796   2.439   1.967
 1072SOL     OW 4317   1.741   2.700   1.840
 1072SOL    HW2 4318   1.741   2.611   1.875
 1072SOL    HW3 4319   1.744   2.689   1.745
 1072SOL    MW4 4320   1.742   2.687   1.832
 1073SOL     OW 4321   1.996   2.824   1.924
 1073SOL    HW2 4322   1.981   2.807   2.017
 1073SOL    HW3 4323   1.921   2.783   1.881
 1073SOL    MW4 4324   1.984   2.816   1.931
 1074SOL     OW 4325   2.008   3.117   1.862
 1074SOL    HW2 4326   1.940   3.172   1.901
 1074SOL    HW3 4327   2.000   3.033   1.908
 1074SOL    MW4 4328   1.998   3.113   1.873
 1075SOL     OW 4329   1.792   3.261   1.964
 1075SOL    HW2 4330   1.795   3.248   2.059
 1075SOL    HW3 4331   1.715   3.211   1.936
 1075SOL    MW4 4332   1.782   3.253   1.973
 1076SOL     OW 4333   1.811   3.513   1.843
 1076SOL    HW2 4334   1.793   3.422   1.868
 1076SOL    HW3 4335   1.730   3.560   1.864
 1076SOL    MW4 4336   1.798   3.507   1.849
 1077SOL     OW 4337   2.032   3.619   1.964
 1077SOL    HW2 4338   2.019   3.705   1.925
 1077SOL    HW3 4339   1.949   3.574   1.950
 1077SOL    MW4 4340   2.020   3.624   1.957
 1078SOL     OW 4341   2.030   3.860   1.829
 1078SOL    HW2 4342   2.107   3.897   1.872
 1078SOL    HW3 4343   2.040   3.882   1.736
 1078SOL    MW4 4344   2.041   3.868   1.822
 1079SOL     OW 4345   1.822   3.994   1.946
 1079SOL    HW2 4346   1.820   4.073   1.892
 1079SOL    HW3 4347   1.878   3.933   1.898
 1079SOL    MW4 4348   1.829   3.997   1.933
 1080SOL     OW 4349   1.785   4.217   1.778
 1080SOL    HW2 4350   1.707   4.262   1.811
 1080SOL    HW3 4351   1.784   4.233   1.684
 1080SOL    MW4 4352   1.774   4.225   1.770
 1081SOL     OW 4353   1.997   4.352   1.908
 1081SOL    HW2 4354   2.078   4.309   1.880
 1081SOL    HW3 4355   1.931   4.319   1.848
 1081SOL    MW4 4356   1.999   4.342   1.896
 1082SOL     OW 4357   2.476   0.006   1.823
 1082SOL    HW2 4358   2.558   0.041   1.857
 1082SOL    HW3 4359   2.467  -0.080   1.864
 1082SOL    MW4 4360   2.485  -0.001   1.833
 1083SOL     OW 4361   2.208   0.088   1.961
 1083SOL    HW2 4362   2.205   0.094   2.056
 1083SOL    HW3 4363   2.296   0.054   1.941
 1083SOL    MW4 4364   2.219   0.084   1.971
 1084SOL     OW 4365   2.226   0.382   1.839
 1084SOL    HW2 4366   2.209   0.300   1.887
 1084SOL    HW3 4367   2.166   0.445   1.878
 1084SOL    MW4 4368   2.216   0.379   1.851
 1085SOL     OW 4369   2.455   0.521   1.942
 1085SOL    HW2 4370   2.529   0.476   1.901
 1085SOL    HW3 4371   2.378   0.488   1.894
 1085SOL    MW4 4372   2.455   0.511   1.930
 1086SOL     OW 4373   2.444   0.772   1.854
 1086SOL    HW2 4374   2.429   0.683   1.886
 1086SOL    HW3 4375   2.467   0.761   1.762
 1086SOL    MW4 4376   2.445   0.759   1.846
 1087SOL     OW 4377   2.247   0.921   1.968
 1087SOL    HW2 4378   2.245   0.923   2.063
 1087SOL    HW3 4379   2.334   0.889   1.946
 1087SOL    MW4 4380   2.258   0.917   1.978
 1088SOL     OW 4381   2.268   1.188   1.887
 1088SOL    HW2 4382   2.357   1.215   1.910
 1088SOL    HW3 4383   2.264   1.096   1.912
 1088SOL    MW4 4384   2.279   1.179   1.894
 1089SOL     OW 4385   2.524   1.306   1.945
 1089SOL    HW2 4386   2.502   1.290   2.037
 1089SOL    HW3 4387   2.501   1.398   1.931
 1089SOL    MW4 4388   2.518   1.316   1.955
 1090SOL     OW 4389   2.474   1.574   1.878
 1090SOL    HW2 4390   2.400   1.632   1.895
 1090SOL    HW3 4391   2.475   1.564   1.783
 1090SOL    MW4 4392   2.464   1.580   1.868
 1091SOL     OW 4393   2.246   1.708   1.944
 1091SOL    HW2 4394   2.248   1.699   2.039
 1091SOL    HW3 4395   2.181   1.644   1.915
 1091SOL    MW4 4396   2.237   1.699   1.952
 1092SOL     OW 4397   2.205   1.975   1.892
 1092SOL    HW2 4398   2.285   2.025   1.909
 1092SOL    HW3 4399   2.230   1.884   1.906
 1092SOL    MW4 4400   2.219   1.970   1.896
 1093SOL     OW 4401   2.426   2.083   1.974
 1093SOL    HW2 4402   2.506   2.039   1.945
 1093SOL    HW3 4403   2.433   2.172   1.938
 1093SOL    MW4 4404   2.438   2.089   1.966
 1094SOL     OW 4405   2.428   2.344   1.837
 1094SOL    HW2 4406   2.513   2.371   1.871
 1094SOL    HW3 4407   2.364   2.390   1.892
 1094SOL    MW4 4408   2.431   2.353   1.849
 1095SOL     OW 4409   2.235   2.479   1.956
 1095SOL    HW2 4410   2.244   2.487   2.051
 1095SOL    HW3 4411   2.230   2.570   1.925
 1095SOL    MW4 4412   2.235   2.492   1.965
 1096SOL     OW 4413   2.244   2.749   1.866
 1096SOL    HW2 4414   2.158   2.779   1.894
 1096SOL    HW3 4415   2.236   2.733   1.773
 1096SOL    MW4 4416   2.232   2.751   1.858
 1097SOL     OW 4417   2.466   2.896   1.966
 1097SOL    HW2 4418   2.460   2.982   1.924
 1097SOL    HW3 4419   2.385   2.851   1.941
 1097SOL    MW4 4420   2.454   2.901   1.957
 1098SOL     OW 4421   2.481   3.138   1.846
 1098SOL    HW2 4422   2.401   3.181   1.874
 1098SOL    HW3 4423   2.468   3.121   1.753
 1098SOL    MW4 4424   2.469   3.141   1.837
 1099SOL     OW 4425   2.229   3.228   1.950
 1099SOL    HW2 4426   2.223   3.221   2.046
 1099SOL    HW3 4427   2.142   3.203   1.919
 1099SOL    MW4 4428   2.217   3.224   1.959
 1100SOL     OW 4429   2.272   3.507   1.873
 1100SOL    HW2 4430   2.254   3.421   1.911
 1100SOL    HW3 4431   2.199   3.562   1.901
 1100SOL    MW4 4432   2.260   3.503   1.881
 1101SOL     OW 4433   2.509   3.617   1.975
 1101SOL    HW2 4434   2.487   3.636   2.066
 1101SOL    HW3 4435   2.442   3.556   1.946
 1101SOL    MW4 4436   2.497   3.612   1.983
 1102SOL     OW 4437   2.480   3.855   1.846
 1102SOL    HW2 4438   2.394   3.888   1.873
 1102SOL    HW3 4439   2.489   3.772   1.894
 1102SOL    MW4 4440   2.470   3.848   1.856
 1103SOL     OW 4441   2.253   3.983   1.942
 1103SOL    HW2 4442   2.236   3.995   2.036
 1103SOL    HW3 4443   2.286   4.069   1.913
 1103SOL    MW4 4444   2.255   3.996   1.951
 1104SOL     OW 4445   2.252   4.268   1.848
 1104SOL    HW2 4446   2.331   4.315   1.874
 1104SOL    HW3 4447   2.248   4.278   1.753
 1104SOL    MW4 4448   2.262   4.276   1.839
 1105SOL     OW 4449   2.464   4.415   1.926
 1105SOL    HW2 4450   2.451   4.418   2.021
 1105SOL    HW3 4451   2.548   4.371   1.914
 1105SOL    MW4 4452   2.473   4.409   1.937
 1106SOL     OW 4453   2.886   4.630   1.834
 1106SOL    HW2 4454   2.965   4.674   1.863
 1106SOL    HW3 4455   2.887   4.546   1.880
 1106SOL    MW4 4456   2.896   4.625   1.844
 1107SOL     OW 4457   2.695   0.135   1.920
 1107SOL    HW2 4458   2.692   0.143   2.016
 1107SOL    HW3 4459   2.776   0.088   1.903
 1107SOL    MW4 4460   2.705   0.130   1.930
 1108SOL     OW 4461   2.673   0.400   1.820
 1108SOL    HW2 4462   2.747   0.448   1.856
 1108SOL    HW3 4463   2.684   0.310   1.852
 1108SOL    MW4 4464   2.684   0.394   1.829
 1109SOL     OW 4465   2.905   0.508   1.964
 1109SOL    HW2 4466   2.983   0.463   1.930
 1109SOL    HW3 4467   2.909   0.595   1.925
 1109SOL    MW4 4468   2.916   0.513   1.954
 1110SOL     OW 4469   2.911   0.756   1.830
 1110SOL    HW2 4470   2.984   0.804   1.871
 1110SOL    HW3 4471   2.832   0.793   1.870
 1110SOL    MW4 4472   2.910   0.767   1.841
 1111SOL     OW 4473   2.676   0.862   1.964
 1111SOL    HW2 4474   2.681   0.950   1.928
 1111SOL    HW3 4475   2.592   0.827   1.933
 1111SOL    MW4 4476   2.665   0.869   1.955
 1112SOL     OW 4477   2.732   1.143   1.869
 1112SOL    HW2 4478   2.666   1.204   1.902
 1112SOL    HW3 4479   2.716   1.137   1.775
 1112SOL    MW4 4480   2.721   1.150   1.861
 1113SOL     OW 4481   2.950   1.284   1.975
 1113SOL    HW2 4482   2.951   1.363   1.921
 1113SOL    HW3 4483   2.882   1.229   1.935
 1113SOL    MW4 4484   2.941   1.287   1.963
 1114SOL     OW 4485   2.953   1.521   1.833
 1114SOL    HW2 4486   3.014   1.580   1.877
 1114SOL    HW3 4487   2.951   1.551   1.742
 1114SOL    MW4 4488   2.960   1.532   1.827
 1115SOL     OW 4489   2.731   1.641   1.979
 1115SOL    HW2 4490   2.807   1.607   1.931
 1115SOL    HW3 4491   2.656   1.618   1.925
 1115SOL    MW4 4492   2.731   1.633   1.966
 1116SOL     OW 4493   2.662   1.934   1.903
 1116SOL    HW2 4494   2.734   1.983   1.942
 1116SOL    HW3 4495   2.665   1.848   1.945
 1116SOL    MW4 4496   2.672   1.929   1.914
 1117SOL     OW 4497   2.907   2.093   1.993
 1117SOL    HW2 4498   2.917   2.058   2.081
 1117SOL    HW3 4499   2.977   2.050   1.943
 1117SOL    MW4 4500   2.918   2.082   1.998
 1118SOL     OW 4501   2.897   2.349   1.865
 1118SOL    HW2 4502   2.977   2.383   1.907
 1118SOL    HW3 4503   2.883   2.264   1.906
 1118SOL    MW4 4504   2.906   2.343   1.876
 1119SOL     OW 4505   2.666   2.468   1.951
 1119SOL    HW2 4506   2.680   2.563   1.942
 1119SOL    HW3 4507   2.752   2.430   1.936
 1119SOL    MW4 4508   2.679   2.476   1.948
 1120SOL     OW 4509   2.695   2.750   1.874
 1120SOL    HW2 4510   2.607   2.786   1.890
 1120SOL    HW3 4511   2.699   2.738   1.780
 1120SOL    MW4 4512   2.684   2.753   1.864
 1121SOL     OW 4513   2.940   2.876   1.993
 1121SOL    HW2 4514   2.932   2.958   1.944
 1121SOL    HW3 4515   2.867   2.822   1.962
 1121SOL    MW4 4516   2.929   2.880   1.982
 1122SOL     OW 4517   2.925   3.114   1.831
 1122SOL    HW2 4518   2.997   3.169   1.863
 1122SOL    HW3 4519   2.846   3.154   1.867
 1122SOL    MW4 4520   2.924   3.127   1.840
 1123SOL     OW 4521   2.715   3.243   1.953
 1123SOL    HW2 4522   2.722   3.325   1.904
 1123SOL    HW3 4523   2.635   3.202   1.920
 1123SOL    MW4 4524   2.706   3.248   1.942
 1124SOL     OW 4525   2.723   3.494   1.832
 1124SOL    HW2 4526   2.806   3.533   1.859
 1124SOL    HW3 4527   2.658   3.533   1.890
 1124SOL    MW4 4528   2.726   3.504   1.843
 1125SOL     OW 4529   2.950   3.645   1.885
 1125SOL    HW2 4530   2.949   3.645   1.981
 1125SOL    HW3 4531   3.020   3.583   1.862
 1125SOL    MW4 4532   2.959   3.636   1.895
 1126SOL     OW 4533   2.914   3.924   1.846
 1126SOL    HW2 4534   2.913   3.831   1.867
 1126SOL    HW3 4535   2.902   3.927   1.751
 1126SOL    MW4 4536   2.912   3.912   1.836
 1127SOL     OW 4537   2.683   4.023   1.945
 1127SOL    HW2 4538   2.771   4.011   1.908
 1127SOL    HW3 4539   2.630   3.957   1.899
 1127SOL    MW4 4540   2.688   4.012   1.934
 1128SOL     OW 4541   2.687   4.278   1.852
 1128SOL    HW2 4542   2.660   4.189   1.874
 1128SOL    HW3 4543   2.695   4.278   1.757
 1128SOL    MW4 4544   2.685   4.266   1.843
 1129SOL     OW 4545   2.924   4.395   1.964
 1129SOL    HW2 4546   2.913   4.400   2.059
 1129SOL    HW3 4547   2.865   4.324   1.937
 1129SOL    MW4 4548   2.915   4.386   1.973
 1130SOL     OW 4549   3.367   4.658   1.833
 1130SOL    HW2 4550   3.387   4.570   1.865
 1130SOL    HW3 4551   3.363   4.648   1.738
 1130SOL    MW4 4552   3.369   4.645   1.824
 1131SOL     OW 4553   3.124   0.106   1.904
 1131SOL    HW2 4554   3.118   0.086   1.997
 1131SOL    HW3 4555   3.213   0.078   1.879
 1131SOL    MW4 4556   3.135   0.100   1.913
 1132SOL     OW 4557   3.124   0.365   1.854
 1132SOL    HW2 4558   3.127   0.272   1.879
 1132SOL    HW3 4559   3.131   0.363   1.758
 1132SOL    MW4 4560   3.125   0.352   1.844
 1133SOL     OW 4561   3.352   0.493   1.944
 1133SOL    HW2 4562   3.430   0.447   1.912
 1133SOL    HW3 4563   3.281   0.431   1.927
 1133SOL    MW4 4564   3.353   0.479   1.937
 1134SOL     OW 4565   3.341   0.762   1.848
 1134SOL    HW2 4566   3.270   0.813   1.889
 1134SOL    HW3 4567   3.327   0.673   1.879
 1134SOL    MW4 4568   3.329   0.757   1.857
 1135SOL     OW 4569   3.122   0.907   1.937
 1135SOL    HW2 4570   3.114   0.932   2.029
 1135SOL    HW3 4571   3.130   0.990   1.890
 1135SOL    MW4 4572   3.122   0.921   1.943
 1136SOL     OW 4573   3.166   1.169   1.843
 1136SOL    HW2 4574   3.244   1.215   1.875
 1136SOL    HW3 4575   3.093   1.216   1.883
 1136SOL    MW4 4576   3.167   1.182   1.853
 1137SOL     OW 4577   3.399   1.286   1.936
 1137SOL    HW2 4578   3.391   1.278   2.031
 1137SOL    HW3 4579   3.384   1.379   1.918
 1137SOL    MW4 4580   3.396   1.298   1.946
 1138SOL     OW 4581   3.360   1.572   1.855
 1138SOL    HW2 4582   3.443   1.602   1.892
 1138SOL    HW3 4583   3.293   1.610   1.911
 1138SOL    MW4 4584   3.362   1.581   1.867
 1139SOL     OW 4585   3.133   1.681   1.973
 1139SOL    HW2 4586   3.138   1.671   2.068
 1139SOL    HW3 4587   3.118   1.775   1.960
 1139SOL    MW4 4588   3.131   1.692   1.984
 1140SOL     OW 4589   3.103   1.940   1.864
 1140SOL    HW2 4590   3.178   1.973   1.915
 1140SOL    HW3 4591   3.140   1.916   1.780
 1140SOL    MW4 4592   3.118   1.941   1.860
 1141SOL     OW 4593   3.346   2.041   1.976
 1141SOL    HW2 4594   3.433   2.014   1.949
 1141SOL    HW3 4595   3.337   2.130   1.941
 1141SOL    MW4 4596   3.356   2.049   1.968
 1142SOL     OW 4597   3.345   2.303   1.877
 1142SOL    HW2 4598   3.272   2.356   1.910
 1142SOL    HW3 4599   3.332   2.300   1.782
 1142SOL    MW4 4600   3.334   2.310   1.869
 1143SOL     OW 4601   3.139   2.440   1.980
 1143SOL    HW2 4602   3.136   2.416   2.073
 1143SOL    HW3 4603   3.149   2.535   1.979
 1143SOL    MW4 4604   3.140   2.449   1.992
 1144SOL     OW 4605   3.118   2.702   1.845
 1144SOL    HW2 4606   3.044   2.755   1.877
 1144SOL    HW3 4607   3.111   2.707   1.750
 1144SOL    MW4 4608   3.107   2.710   1.837
 1145SOL     OW 4609   3.329   2.842   1.932
 1145SOL    HW2 4610   3.328   2.809   2.021
 1145SOL    HW3 4611   3.255   2.799   1.889
 1145SOL    MW4 4612   3.319   2.832   1.938
 1146SOL     OW 4613   3.368   3.095   1.842
 1146SOL    HW2 4614   3.454   3.121   1.875
 1146SOL    HW3 4615   3.351   3.010   1.883
 1146SOL    MW4 4616   3.377   3.087   1.852
 1147SOL     OW 4617   3.136   3.223   1.934
 1147SOL    HW2 4618   3.137   3.317   1.919
 1147SOL    HW3 4619   3.220   3.192   1.902
 1147SOL    MW4 4620   3.147   3.231   1.928
 1148SOL     OW 4621   3.159   3.475   1.834
 1148SOL    HW2 4622   3.236   3.516   1.872
 1148SOL    HW3 4623   3.180   3.467   1.741
 1148SOL    MW4 4624   3.172   3.480   1.827
 1149SOL     OW 4625   3.385   3.556   1.967
 1149SOL    HW2 4626   3.470   3.514   1.953
 1149SOL    HW3 4627   3.398   3.646   1.938
 1149SOL    MW4 4628   3.398   3.562   1.961
 1150SOL     OW 4629   3.374   3.840   1.890
 1150SOL    HW2 4630   3.313   3.913   1.899
 1150SOL    HW3 4631   3.360   3.808   1.800
 1150SOL    MW4 4632   3.364   3.846   1.879
 1151SOL     OW 4633   3.167   4.042   1.943
 1151SOL    HW2 4634   3.164   4.017   2.035
 1151SOL    HW3 4635   3.093   3.995   1.903
 1151SOL    MW4 4636   3.157   4.032   1.950
 1152SOL     OW 4637   3.150   4.306   1.823
 1152SOL    HW2 4638   3.167   4.221   1.864
 1152SOL    HW3 4639   3.072   4.339   1.867
 1152SOL    MW4 4640   3.142   4.299   1.834
 1153SOL     OW 4641   3.374   4.407   1.947
 1153SOL    HW2 4642   3.446   4.366   1.899
 1153SOL    HW3 4643   3.295   4.371   1.906
 1153SOL    MW4 4644   3.373   4.397   1.935
 1154SOL     OW 4645   3.816   4.615   1.863
 1154SOL    HW2 4646   3.810   4.527   1.900
 1154SOL    HW3 4647   3.741   4.662   1.900
 1154SOL    MW4 4648   3.806   4.610   1.873
 1155SOL     OW 4649   3.601   0.108   1.952
 1155SOL    HW2 4650   3.601   0.104   2.048
 1155SOL    HW3 4651   3.518   0.067   1.927
 1155SOL    MW4 4652   3.590   0.102   1.961
 1156SOL     OW 4653   3.606   0.378   1.848
 1156SOL    HW2 4654   3.620   0.294   1.891
 1156SOL    HW3 4655   3.608   0.358   1.754
 1156SOL    MW4 4656   3.609   0.365   1.841
 1157SOL     OW 4657   3.815   0.476   1.974
 1157SOL    HW2 4658   3.815   0.569   1.950
 1157SOL    HW3 4659   3.739   0.440   1.929
 1157SOL    MW4 4660   3.805   0.484   1.965
 1158SOL     OW 4661   3.805   0.737   1.893
 1158SOL    HW2 4662   3.719   0.776   1.912
 1158SOL    HW3 4663   3.818   0.751   1.800
 1158SOL    MW4 4664   3.795   0.744   1.883
 1159SOL     OW 4665   3.571   0.885   1.962
 1159SOL    HW2 4666   3.572   0.967   1.912
 1159SOL    HW3 4667   3.492   0.840   1.933
 1159SOL    MW4 4668   3.561   0.890   1.952
 1160SOL     OW 4669   3.629   1.137   1.838
 1160SOL    HW2 4670   3.550   1.185   1.861
 1160SOL    HW3 4671   3.632   1.139   1.742
 1160SOL    MW4 4672   3.619   1.144   1.828
 1161SOL     OW 4673   3.854   1.248   1.967
 1161SOL    HW2 4674   3.836   1.251   2.060
 1161SOL    HW3 4675   3.777   1.206   1.929
 1161SOL    MW4 4676   3.841   1.243   1.974
 1162SOL     OW 4677   3.781   1.498   1.863
 1162SOL    HW2 4678   3.849   1.556   1.896
 1162SOL    HW3 4679   3.803   1.412   1.901
 1162SOL    MW4 4680   3.793   1.494   1.872
 1163SOL     OW 4681   3.589   1.638   1.989
 1163SOL    HW2 4682   3.584   1.720   1.940
 1163SOL    HW3 4683   3.647   1.583   1.936
 1163SOL    MW4 4684   3.596   1.642   1.975
 1164SOL     OW 4685   3.552   1.902   1.873
 1164SOL    HW2 4686   3.634   1.948   1.888
 1164SOL    HW3 4687   3.548   1.890   1.778
 1164SOL    MW4 4688   3.562   1.907   1.862
 1165SOL     OW 4689   3.785   2.031   1.938
 1165SOL    HW2 4690   3.866   1.985   1.912
 1165SOL    HW3 4691   3.801   2.122   1.916
 1165SOL    MW4 4692   3.798   2.037   1.932
 1166SOL     OW 4693   3.827   2.298   1.876
 1166SOL    HW2 4694   3.897   2.358   1.902
 1166SOL    HW3 4695   3.751   2.326   1.927
 1166SOL    MW4 4696   3.826   2.310   1.886
 1167SOL     OW 4697   3.564   2.430   1.981
 1167SOL    HW2 4698   3.565   2.519   1.944
 1167SOL    HW3 4699   3.490   2.387   1.938
 1167SOL    MW4 4700   3.554   2.436   1.970
 1168SOL     OW 4701   3.548   2.680   1.825
 1168SOL    HW2 4702   3.623   2.714   1.873
 1168SOL    HW3 4703   3.472   2.718   1.868
 1168SOL    MW4 4704   3.548   2.690   1.837
 1169SOL     OW 4705   3.768   2.826   1.910
 1169SOL    HW2 4706   3.767   2.839   2.005
 1169SOL    HW3 4707   3.799   2.909   1.874
 1169SOL    MW4 4708   3.772   2.838   1.918
 1170SOL     OW 4709   3.854   3.079   1.840
 1170SOL    HW2 4710   3.773   3.125   1.861
 1170SOL    HW3 4711   3.862   3.087   1.745
 1170SOL    MW4 4712   3.845   3.086   1.831
 1171SOL     OW 4713   3.619   3.168   1.943
 1171SOL    HW2 4714   3.584   3.171   2.032
 1171SOL    HW3 4715   3.640   3.259   1.923
 1171SOL    MW4 4716   3.617   3.180   1.952
 1172SOL     OW 4717   3.624   3.425   1.872
 1172SOL    HW2 4718   3.697   3.486   1.883
 1172SOL    HW3 4719   3.603   3.430   1.779
 1172SOL    MW4 4720   3.631   3.434   1.861
 1173SOL     OW 4721   3.847   3.603   1.958
 1173SOL    HW2 4722   3.920   3.557   1.918
 1173SOL    HW3 4723   3.855   3.693   1.929
 1173SOL    MW4 4724   3.857   3.609   1.949
 1174SOL     OW 4725   3.810   3.856   1.857
 1174SOL    HW2 4726   3.729   3.907   1.863
 1174SOL    HW3 4727   3.815   3.831   1.764
 1174SOL    MW4 4728   3.800   3.859   1.845
 1175SOL     OW 4729   3.586   4.008   1.935
 1175SOL    HW2 4730   3.599   4.005   2.029
 1175SOL    HW3 4731   3.519   3.942   1.918
 1175SOL    MW4 4732   3.579   3.999   1.945
 1176SOL     OW 4733   3.576   4.268   1.807
 1176SOL    HW2 4734   3.649   4.316   1.845
 1176SOL    HW3 4735   3.564   4.192   1.864
 1176SOL    MW4 4736   3.584   4.265   1.819
 1177SOL     OW 4737   3.803   4.350   1.962
 1177SOL    HW2 4738   3.804   4.341   2.058
 1177SOL    HW3 4739   3.882   4.304   1.934
 1177SOL    MW4 4740   3.814   4.343   1.971
 1178SOL     OW 4741   4.288   4.622   1.871
 1178SOL    HW2 4742   4.209   4.672   1.893
 1178SOL    HW3 4743   4.360   4.675   1.904
 1178SOL    MW4 4744   4.287   4.635   1.878
 1179SOL     OW 4745   4.052   0.054   1.984
 1179SOL    HW2 4746   4.033   0.057   2.078
 1179SOL    HW3 4747   3.979   0.005   1.946
 1179SOL    MW4 4748   4.040   0.048   1.992
 1180SOL     OW 4749   4.031   0.312   1.892
 1180SOL    HW2 4750   4.026   0.225   1.933
 1180SOL    HW3 4751   3.959   0.361   1.931
 1180SOL    MW4 4752   4.021   0.307   1.903
 1181SOL     OW 4753   4.251   0.466   1.954
 1181SOL    HW2 4754   4.257   0.452   2.048
 1181SOL    HW3 4755   4.180   0.407   1.926
 1181SOL    MW4 4756   4.242   0.456   1.963
 1182SOL     OW 4757   4.232   0.729   1.879
 1182SOL    HW2 4758   4.225   0.639   1.910
 1182SOL    HW3 4759   4.261   0.722   1.789
 1182SOL    MW4 4760   4.235   0.716   1.871
 1183SOL     OW 4761   4.035   0.869   2.015
 1183SOL    HW2 4762   4.110   0.828   1.971
 1183SOL    HW3 4763   3.958   0.829   1.973
 1183SOL    MW4 4764   4.035   0.858   2.003
 1184SOL     OW 4765   4.066   1.094   1.868
 1184SOL    HW2 4766   4.048   1.013   1.915
 1184SOL    HW3 4767   3.995   1.153   1.893
 1184SOL    MW4 4768   4.054   1.091   1.877
 1185SOL     OW 4769   4.269   1.229   1.975
 1185SOL    HW2 4770   4.246   1.248   2.066
 1185SOL    HW3 4771   4.197   1.175   1.943
 1185SOL    MW4 4772   4.256   1.225   1.982
 1186SOL     OW 4773   4.243   1.508   1.875
 1186SOL    HW2 4774   4.265   1.417   1.892
 1186SOL    HW3 4775   4.218   1.510   1.783
 1186SOL    MW4 4776   4.242   1.496   1.865
 1187SOL     OW 4777   4.003   1.633   1.974
 1187SOL    HW2 4778   4.005   1.627   2.069
 1187SOL    HW3 4779   4.081   1.584   1.945
 1187SOL    MW4 4780   4.014   1.626   1.982
 1188SOL     OW 4781   4.006   1.892   1.872
 1188SOL    HW2 4782   4.001   1.801   1.903
 1188SOL    HW3 4783   4.032   1.884   1.780
 1188SOL    MW4 4784   4.009   1.879   1.864
 1189SOL     OW 4785   4.220   2.047   1.951
 1189SOL    HW2 4786   4.226   2.043   2.046
 1189SOL    HW3 4787   4.144   1.993   1.929
 1189SOL    MW4 4788   4.211   2.039   1.961
 1190SOL     OW 4789   4.232   2.298   1.834
 1190SOL    HW2 4790   4.235   2.211   1.873
 1190SOL    HW3 4791   4.318   2.336   1.853
 1190SOL    MW4 4792   4.244   2.292   1.841
 1191SOL     OW 4793   4.038   2.474   1.938
 1191SOL    HW2 4794   4.044   2.471   2.034
 1191SOL    HW3 4795   4.104   2.411   1.908
 1191SOL    MW4 4796   4.048   2.466   1.947
 1192SOL     OW 4797   4.002   2.712   1.801
 1192SOL    HW2 4798   4.024   2.630   1.845
 1192SOL    HW3 4799   3.917   2.738   1.837
 1192SOL    MW4 4800   3.994   2.705   1.811
 1193SOL     OW 4801   4.202   2.836   1.947
 1193SOL    HW2 4802   4.177   2.835   2.039
 1193SOL    HW3 4803   4.126   2.801   1.901
 1193SOL    MW4 4804   4.189   2.831   1.953
 1194SOL     OW 4805   4.235   3.101   1.862
 1194SOL    HW2 4806   4.164   3.151   1.901
 1194SOL    HW3 4807   4.228   3.014   1.902
 1194SOL    MW4 4808   4.225   3.096   1.872
 1195SOL     OW 4809   4.034   3.255   1.974
 1195SOL    HW2 4810   4.028   3.248   2.069
 1195SOL    HW3 4811   3.960   3.203   1.941
 1195SOL    MW4 4812   4.023   3.248   1.982
 1196SOL     OW 4813   4.032   3.471   1.806
 1196SOL    HW2 4814   4.100   3.527   1.845
 1196SOL    HW3 4815   4.037   3.389   1.855
 1196SOL    MW4 4816   4.042   3.468   1.818
 1197SOL     OW 4817   4.222   3.625   1.955
 1197SOL    HW2 4818   4.244   3.705   1.907
 1197SOL    HW3 4819   4.300   3.570   1.945
 1197SOL    MW4 4820   4.235   3.629   1.947
 1198SOL     OW 4821   4.265   3.872   1.833
 1198SOL    HW2 4822   4.351   3.904   1.861
 1198SOL    HW3 4823   4.272   3.863   1.738
 1198SOL    MW4 4824   4.277   3.875   1.824
 1199SOL     OW 4825   4.022   3.985   1.942
 1199SOL    HW2 4826   4.098   3.939   1.908
 1199SOL    HW3 4827   3.947   3.935   1.909
 1199SOL    MW4 4828   4.022   3.973   1.933
 1200SOL     OW 4829   4.045   4.245   1.860
 1200SOL    HW2 4830   4.123   4.291   1.890
 1200SOL    HW3 4831   4.060   4.154   1.884
 1200SOL    MW4 4832   4.057   4.239   1.867
 1201SOL     OW 4833   4.267   4.356   1.971
 1201SOL    HW2 4834   4.245   4.370   2.063
 1201SOL    HW3 4835   4.286   4.444   1.937
 1201SOL    MW4 4836   4.267   4.369   1.979
 1202SOL     OW 4837   0.216   4.619   2.352
 1202SOL    HW2 4838   0.230   4.619   2.447
 1202SOL    HW3 4839   0.288   4.672   2.317
 1202SOL    MW4 4840   0.228   4.626   2.360
 1203SOL     OW 4841   4.452   0.067   2.266
 1203SOL    HW2 4842   4.534   0.021   2.280
 1203SOL    HW3 4843   4.440   0.068   2.171
 1203SOL    MW4 4844   4.461   0.061   2.255
 1204SOL     OW 4845   4.487   0.343   2.367
 1204SOL    HW2 4846   4.561   0.381   2.318
 1204SOL    HW3 4847   4.493   0.249   2.348
 1204SOL    MW4 4848   4.498   0.335   2.358
 1205SOL     OW 4849   0.233   0.468   2.241
 1205SOL    HW2 4850   0.316   0.433   2.272
 1205SOL    HW3 4851   0.244   0.476   2.146
 1205SOL    MW4 4852   0.245   0.464   2.233
 1206SOL     OW 4853   0.222   0.726   2.341
 1206SOL    HW2 4854   0.219   0.726   2.437
 1206SOL    HW3 4855   0.211   0.634   2.317
 1206SOL    MW4 4856   0.220   0.714   2.350
 1207SOL     OW 4857   4.476   0.876   2.249
 1207SOL    HW2 4858   4.557   0.830   2.273
 1207SOL    HW3 4859   4.464   0.857   2.156
 1207SOL    MW4 4860   4.485   0.867   2.240
 1208SOL     OW 4861   4.455   1.130   2.350
 1208SOL    HW2 4862   4.462   1.133   2.446
 1208SOL    HW3 4863   4.455   1.036   2.329
 1208SOL    MW4 4864   4.456   1.118   2.360
 1209SOL     OW 4865   0.218   1.236   2.288
 1209SOL    HW2 4866   0.133   1.198   2.308
 1209SOL    HW3 4867   0.218   1.248   2.193
 1209SOL    MW4 4868   0.207   1.233   2.278
 1210SOL     OW 4869   0.211   1.508   2.332
 1210SOL    HW2 4870   0.230   1.531   2.423
 1210SOL    HW3 4871   0.212   1.412   2.331
 1210SOL    MW4 4872   0.214   1.498   2.344
 1211SOL     OW 4873   4.469   1.617   2.247
 1211SOL    HW2 4874   4.467   1.704   2.287
 1211SOL    HW3 4875   4.548   1.575   2.284
 1211SOL    MW4 4876   4.479   1.623   2.257
 1212SOL     OW 4877   4.435   1.870   2.351
 1212SOL    HW2 4878   4.365   1.920   2.309
 1212SOL    HW3 4879   4.516   1.913   2.322
 1212SOL    MW4 4880   4.437   1.882   2.341
 1213SOL     OW 4881   0.178   1.983   2.263
 1213SOL    HW2 4882   0.265   1.978   2.302
 1213SOL    HW3 4883   0.194   1.987   2.168
 1213SOL    MW4 4884   0.192   1.983   2.255
 1214SOL     OW 4885   0.178   2.272   2.338
 1214SOL    HW2 4886   0.171   2.269   2.434
 1214SOL    HW3 4887   0.172   2.181   2.310
 1214SOL    MW4 4888   0.177   2.260   2.347
 1215SOL     OW 4889   4.475   2.440   2.218
 1215SOL    HW2 4890   4.480   2.526   2.260
 1215SOL    HW3 4891   4.550   2.392   2.254
 1215SOL    MW4 4892   4.486   2.445   2.229
 1216SOL     OW 4893   4.482   2.703   2.318
 1216SOL    HW2 4894   4.476   2.699   2.413
 1216SOL    HW3 4895   4.540   2.778   2.301
 1216SOL    MW4 4896   4.489   2.712   2.328
 1217SOL     OW 4897   0.205   2.888   2.267
 1217SOL    HW2 4898   0.278   2.831   2.290
 1217SOL    HW3 4899   0.202   2.884   2.171
 1217SOL    MW4 4900   0.214   2.880   2.257
 1218SOL     OW 4901   0.222   3.152   2.351
 1218SOL    HW2 4902   0.132   3.166   2.322
 1218SOL    HW3 4903   0.239   3.059   2.333
 1218SOL    MW4 4904   0.212   3.142   2.345
 1219SOL     OW 4905   4.445   3.206   2.217
 1219SOL    HW2 4906   4.435   3.297   2.246
 1219SOL    HW3 4907   4.452   3.212   2.122
 1219SOL    MW4 4908   4.445   3.219   2.209
 1220SOL     OW 4909   4.471   3.457   2.329
 1220SOL    HW2 4910   4.469   3.462   2.425
 1220SOL    HW3 4911   4.400   3.515   2.301
 1220SOL    MW4 4912   4.461   3.466   2.338
 1221SOL     OW 4913   0.183   3.598   2.194
 1221SOL    HW2 4914   0.259   3.579   2.250
 1221SOL    HW3 4915   0.119   3.531   2.218
 1221SOL    MW4 4916   0.185   3.586   2.204
 1222SOL     OW 4917   0.193   3.843   2.297
 1222SOL    HW2 4918   0.119   3.891   2.260
 1222SOL    HW3 4919   0.181   3.753   2.265
 1222SOL    MW4 4920   0.182   3.837   2.288
 1223SOL     OW 4921   4.457   3.990   2.222
 1223SOL    HW2 4922   4.471   4.075   2.264
 1223SOL    HW3 4923   4.455   4.009   2.129
 1223SOL    MW4 4924   4.459   4.004   2.216
 1224SOL     OW 4925   4.489   4.272   2.285
 1224SOL    HW2 4926   4.502   4.256   2.379
 1224SOL    HW3 4927   4.570   4.316   2.257
 1224SOL    MW4 4928   4.502   4.276   2.294
 1225SOL     OW 4929   0.252   4.388   2.209
 1225SOL    HW2 4930   0.320   4.343   2.259
 1225SOL    HW3 4931   0.237   4.469   2.258
 1225SOL    MW4 4932   0.259   4.393   2.222
 1226SOL     OW 4933   0.665   4.604   2.299
 1226SOL    HW2 4934   0.667   4.647   2.384
 1226SOL    HW3 4935   0.750   4.624   2.260
 1226SOL    MW4 4936   0.676   4.612   2.305
 1227SOL     OW 4937   0.440   0.080   2.248
 1227SOL    HW2 4938   0.511   0.021   2.273
 1227SOL    HW3 4939   0.445   0.083   2.152
 1227SOL    MW4 4940   0.450   0.072   2.239
 1228SOL     OW 4941   0.473   0.342   2.315
 1228SOL    HW2 4942   0.481   0.342   2.411
 1228SOL    HW3 4943   0.448   0.253   2.293
 1228SOL    MW4 4944   0.471   0.331   2.325
 1229SOL     OW 4945   0.690   0.523   2.208
 1229SOL    HW2 4946   0.676   0.606   2.252
 1229SOL    HW3 4947   0.611   0.472   2.226
 1229SOL    MW4 4948   0.678   0.527   2.216
 1230SOL     OW 4949   0.651   0.754   2.337
 1230SOL    HW2 4950   0.646   0.756   2.432
 1230SOL    HW3 4951   0.573   0.801   2.307
 1230SOL    MW4 4952   0.640   0.761   2.345
 1231SOL     OW 4953   0.426   0.891   2.254
 1231SOL    HW2 4954   0.341   0.851   2.275
 1231SOL    HW3 4955   0.451   0.853   2.170
 1231SOL    MW4 4956   0.418   0.881   2.246
 1232SOL     OW 4957   0.458   1.135   2.387
 1232SOL    HW2 4958   0.456   1.049   2.345
 1232SOL    HW3 4959   0.376   1.176   2.361
 1232SOL    MW4 4960   0.447   1.129   2.378
 1233SOL     OW 4961   0.649   1.298   2.246
 1233SOL    HW2 4962   0.637   1.384   2.287
 1233SOL    HW3 4963   0.582   1.243   2.287
 1233SOL    MW4 4964   0.638   1.302   2.257
 1234SOL     OW 4965   0.644   1.565   2.332
 1234SOL    HW2 4966   0.650   1.542   2.425
 1234SOL    HW3 4967   0.732   1.593   2.308
 1234SOL    MW4 4968   0.656   1.565   2.341
 1235SOL     OW 4969   0.409   1.669   2.218
 1235SOL    HW2 4970   0.489   1.634   2.257
 1235SOL    HW3 4971   0.339   1.620   2.261
 1235SOL    MW4 4972   0.410   1.658   2.229
 1236SOL     OW 4973   0.420   1.905   2.375
 1236SOL    HW2 4974   0.484   1.953   2.322
 1236SOL    HW3 4975   0.408   1.822   2.330
 1236SOL    MW4 4976   0.427   1.900   2.362
 1237SOL     OW 4977   0.619   2.049   2.242
 1237SOL    HW2 4978   0.704   2.016   2.273
 1237SOL    HW3 4979   0.614   2.138   2.277
 1237SOL    MW4 4980   0.630   2.056   2.251
 1238SOL     OW 4981   0.651   2.309   2.321
 1238SOL    HW2 4982   0.646   2.306   2.417
 1238SOL    HW3 4983   0.733   2.354   2.303
 1238SOL    MW4 4984   0.661   2.314   2.331
 1239SOL     OW 4985   0.425   2.458   2.245
 1239SOL    HW2 4986   0.508   2.419   2.273
 1239SOL    HW3 4987   0.358   2.400   2.280
 1239SOL    MW4 4988   0.427   2.445   2.253
 1240SOL     OW 4989   0.422   2.736   2.335
 1240SOL    HW2 4990   0.428   2.724   2.429
 1240SOL    HW3 4991   0.415   2.647   2.300
 1240SOL    MW4 4992   0.422   2.723   2.343
 1241SOL     OW 4993   0.630   2.850   2.201
 1241SOL    HW2 4994   0.705   2.813   2.247
 1241SOL    HW3 4995   0.553   2.811   2.243
 1241SOL    MW4 4996   0.630   2.840   2.213
 1242SOL     OW 4997   0.665   3.097   2.345
 1242SOL    HW2 4998   0.602   3.157   2.304
 1242SOL    HW3 4999   0.647   3.012   2.303
 1242SOL    MW4 5000   0.654   3.093   2.334
 1243SOL     OW 5001   0.447   3.266   2.232
 1243SOL    HW2 5002   0.364   3.227   2.262
 1243SOL    HW3 5003   0.450   3.245   2.138
 1243SOL    MW4 5004   0.436   3.258   2.224
 1244SOL     OW 5005   0.406   3.526   2.337
 1244SOL    HW2 5006   0.469   3.582   2.292
 1244SOL    HW3 5007   0.419   3.440   2.296
 1244SOL    MW4 5008   0.416   3.522   2.326
 1245SOL     OW 5009   0.647   3.646   2.226
 1245SOL    HW2 5010   0.651   3.742   2.230
 1245SOL    HW3 5011   0.653   3.626   2.132
 1245SOL    MW4 5012   0.648   3.656   2.214
 1246SOL     OW 5013   0.657   3.919   2.279
 1246SOL    HW2 5014   0.662   3.898   2.372
 1246SOL    HW3 5015   0.574   3.966   2.270
 1246SOL    MW4 5016   0.647   3.922   2.290
 1247SOL     OW 5017   0.403   3.992   2.222
 1247SOL    HW2 5018   0.343   3.929   2.262
 1247SOL    HW3 5019   0.389   3.983   2.128
 1247SOL    MW4 5020   0.393   3.982   2.215
 1248SOL     OW 5021   0.437   4.264   2.346
 1248SOL    HW2 5022   0.517   4.277   2.294
 1248SOL    HW3 5023   0.407   4.177   2.321
 1248SOL    MW4 5024   0.444   4.254   2.336
 1249SOL     OW 5025   0.663   4.337   2.220
 1249SOL    HW2 5026   0.654   4.426   2.253
 1249SOL    HW3 5027   0.662   4.346   2.124
 1249SOL    MW4 5028   0.662   4.350   2.211
 1250SOL     OW 5029   1.156   4.595   2.324
 1250SOL    HW2 5030   1.141   4.597   2.419
 1250SOL    HW3 5031   1.080   4.641   2.288
 1250SOL    MW4 5032   1.144   4.601   2.332
 1251SOL     OW 5033   0.925   0.075   2.210
 1251SOL    HW2 5034   0.892   0.157   2.247
 1251SOL    HW3 5035   0.910   0.083   2.116
 1251SOL    MW4 5036   0.919   0.087   2.203
 1252SOL     OW 5037   0.864   0.330   2.330
 1252SOL    HW2 5038   0.950   0.357   2.299
 1252SOL    HW3 5039   0.803   0.389   2.287
 1252SOL    MW4 5040   0.867   0.341   2.320
 1253SOL     OW 5041   1.095   0.459   2.261
 1253SOL    HW2 5042   1.178   0.417   2.285
 1253SOL    HW3 5043   1.105   0.479   2.168
 1253SOL    MW4 5044   1.107   0.456   2.252
 1254SOL     OW 5045   1.123   0.740   2.337
 1254SOL    HW2 5046   1.052   0.798   2.308
 1254SOL    HW3 5047   1.094   0.653   2.312
 1254SOL    MW4 5048   1.110   0.737   2.330
 1255SOL     OW 5049   0.886   0.871   2.263
 1255SOL    HW2 5050   0.875   0.963   2.288
 1255SOL    HW3 5051   0.804   0.829   2.290
 1255SOL    MW4 5052   0.874   0.878   2.270
 1256SOL     OW 5053   0.865   1.139   2.320
 1256SOL    HW2 5054   0.947   1.188   2.313
 1256SOL    HW3 5055   0.797   1.205   2.302
 1256SOL    MW4 5056   0.867   1.154   2.316
 1257SOL     OW 5057   1.114   1.262   2.286
 1257SOL    HW2 5058   1.192   1.212   2.312
 1257SOL    HW3 5059   1.129   1.281   2.193
 1257SOL    MW4 5060   1.126   1.258   2.277
 1258SOL     OW 5061   1.117   1.553   2.318
 1258SOL    HW2 5062   1.045   1.593   2.270
 1258SOL    HW3 5063   1.113   1.460   2.296
 1258SOL    MW4 5064   1.107   1.546   2.309
 1259SOL     OW 5065   0.884   1.679   2.239
 1259SOL    HW2 5066   0.869   1.768   2.270
 1259SOL    HW3 5067   0.880   1.685   2.143
 1259SOL    MW4 5068   0.881   1.691   2.230
 1260SOL     OW 5069   0.863   1.942   2.343
 1260SOL    HW2 5070   0.870   1.921   2.436
 1260SOL    HW3 5071   0.942   1.991   2.324
 1260SOL    MW4 5072   0.874   1.945   2.353
 1261SOL     OW 5073   1.105   2.104   2.250
 1261SOL    HW2 5074   1.179   2.055   2.285
 1261SOL    HW3 5075   1.111   2.094   2.155
 1261SOL    MW4 5076   1.115   2.096   2.242
 1262SOL     OW 5077   1.085   2.339   2.382
 1262SOL    HW2 5078   1.152   2.398   2.346
 1262SOL    HW3 5079   1.100   2.256   2.336
 1262SOL    MW4 5080   1.096   2.336   2.371
 1263SOL     OW 5081   0.869   2.453   2.264
 1263SOL    HW2 5082   0.938   2.410   2.314
 1263SOL    HW3 5083   0.885   2.427   2.174
 1263SOL    MW4 5084   0.880   2.444   2.259
 1264SOL     OW 5085   0.836   2.735   2.332
 1264SOL    HW2 5086   0.828   2.744   2.427
 1264SOL    HW3 5087   0.842   2.641   2.316
 1264SOL    MW4 5088   0.836   2.724   2.342
 1265SOL     OW 5089   1.074   2.862   2.245
 1265SOL    HW2 5090   1.146   2.813   2.283
 1265SOL    HW3 5091   0.995   2.828   2.288
 1265SOL    MW4 5092   1.073   2.851   2.255
 1266SOL     OW 5093   1.127   3.099   2.358
 1266SOL    HW2 5094   1.060   3.162   2.329
 1266SOL    HW3 5095   1.099   3.015   2.322
 1266SOL    MW4 5096   1.114   3.096   2.350
 1267SOL     OW 5097   0.864   3.231   2.219
 1267SOL    HW2 5098   0.865   3.322   2.248
 1267SOL    HW3 5099   0.808   3.186   2.281
 1267SOL    MW4 5100   0.857   3.237   2.231
 1268SOL     OW 5101   0.867   3.485   2.307
 1268SOL    HW2 5102   0.878   3.493   2.402
 1268SOL    HW3 5103   0.800   3.550   2.286
 1268SOL    MW4 5104   0.860   3.495   2.317
 1269SOL     OW 5105   1.140   3.578   2.216
 1269SOL    HW2 5106   1.207   3.536   2.270
 1269SOL    HW3 5107   1.059   3.535   2.241
 1269SOL    MW4 5108   1.138   3.567   2.226
 1270SOL     OW 5109   1.114   3.838   2.276
 1270SOL    HW2 5110   1.196   3.880   2.249
 1270SOL    HW3 5111   1.126   3.746   2.252
 1270SOL    MW4 5112   1.127   3.832   2.269
 1271SOL     OW 5113   0.902   3.996   2.176
 1271SOL    HW2 5114   0.959   3.934   2.221
 1271SOL    HW3 5115   0.813   3.969   2.201
 1271SOL    MW4 5116   0.898   3.984   2.185
 1272SOL     OW 5117   0.891   4.244   2.315
 1272SOL    HW2 5118   0.891   4.151   2.297
 1272SOL    HW3 5119   0.810   4.276   2.276
 1272SOL    MW4 5120   0.880   4.236   2.308
 1273SOL     OW 5121   1.126   4.359   2.189
 1273SOL    HW2 5122   1.046   4.320   2.224
 1273SOL    HW3 5123   1.138   4.439   2.241
 1273SOL    MW4 5124   1.117   4.364   2.201
 1274SOL     OW 5125   1.555   4.585   2.323
 1274SOL    HW2 5126   1.638   4.614   2.284
 1274SOL    HW3 5127   1.489   4.636   2.277
 1274SOL    MW4 5128   1.557   4.596   2.312
 1275SOL     OW 5129   1.352   0.064   2.208
 1275SOL    HW2 5130   1.362   0.150   2.250
 1275SOL    HW3 5131   1.271   0.029   2.246
 1275SOL    MW4 5132   1.342   0.071   2.219
 1276SOL     OW 5133   1.352   0.349   2.337
 1276SOL    HW2 5134   1.358   0.342   2.433
 1276SOL    HW3 5135   1.423   0.408   2.312
 1276SOL    MW4 5136   1.362   0.356   2.347
 1277SOL     OW 5137   1.582   0.510   2.264
 1277SOL    HW2 5138   1.640   0.437   2.288
 1277SOL    HW3 5139   1.581   0.508   2.168
 1277SOL    MW4 5140   1.590   0.500   2.254
 1278SOL     OW 5141   1.565   0.772   2.356
 1278SOL    HW2 5142   1.644   0.814   2.321
 1278SOL    HW3 5143   1.572   0.681   2.327
 1278SOL    MW4 5144   1.576   0.766   2.347
 1279SOL     OW 5145   1.357   0.881   2.205
 1279SOL    HW2 5146   1.425   0.835   2.255
 1279SOL    HW3 5147   1.276   0.836   2.230
 1279SOL    MW4 5148   1.355   0.869   2.215
 1280SOL     OW 5149   1.369   1.117   2.355
 1280SOL    HW2 5150   1.351   1.102   2.448
 1280SOL    HW3 5151   1.352   1.033   2.313
 1280SOL    MW4 5152   1.365   1.104   2.362
 1281SOL     OW 5153   1.548   1.302   2.261
 1281SOL    HW2 5154   1.485   1.234   2.287
 1281SOL    HW3 5155   1.556   1.291   2.166
 1281SOL    MW4 5156   1.540   1.292   2.252
 1282SOL     OW 5157   1.566   1.546   2.393
 1282SOL    HW2 5158   1.648   1.589   2.369
 1282SOL    HW3 5159   1.567   1.465   2.342
 1282SOL    MW4 5160   1.577   1.541   2.383
 1283SOL     OW 5161   1.356   1.680   2.270
 1283SOL    HW2 5162   1.418   1.620   2.311
 1283SOL    HW3 5163   1.271   1.640   2.283
 1283SOL    MW4 5164   1.353   1.667   2.277
 1284SOL     OW 5165   1.317   1.963   2.360
 1284SOL    HW2 5166   1.395   2.014   2.341
 1284SOL    HW3 5167   1.341   1.873   2.335
 1284SOL    MW4 5168   1.330   1.958   2.354
 1285SOL     OW 5169   1.543   2.120   2.267
 1285SOL    HW2 5170   1.633   2.097   2.290
 1285SOL    HW3 5171   1.533   2.090   2.177
 1285SOL    MW4 5172   1.554   2.113   2.258
 1286SOL     OW 5173   1.512   2.396   2.343
 1286SOL    HW2 5174   1.515   2.403   2.439
 1286SOL    HW3 5175   1.502   2.303   2.326
 1286SOL    MW4 5176   1.511   2.385   2.354
 1287SOL     OW 5177   1.280   2.489   2.241
 1287SOL    HW2 5178   1.355   2.441   2.278
 1287SOL    HW3 5179   1.291   2.481   2.146
 1287SOL    MW4 5180   1.291   2.481   2.234
 1288SOL     OW 5181   1.324   2.742   2.332
 1288SOL    HW2 5182   1.393   2.781   2.279
 1288SOL    HW3 5183   1.313   2.654   2.296
 1288SOL    MW4 5184   1.332   2.736   2.320
 1289SOL     OW 5185   1.525   2.852   2.191
 1289SOL    HW2 5186   1.540   2.941   2.222
 1289SOL    HW3 5187   1.511   2.861   2.097
 1289SOL    MW4 5188   1.525   2.865   2.183
 1290SOL     OW 5189   1.600   3.075   2.305
 1290SOL    HW2 5190   1.606   3.072   2.401
 1290SOL    HW3 5191   1.530   3.137   2.288
 1290SOL    MW4 5192   1.592   3.083   2.316
 1291SOL     OW 5193   1.344   3.200   2.241
 1291SOL    HW2 5194   1.267   3.147   2.260
 1291SOL    HW3 5195   1.334   3.226   2.149
 1291SOL    MW4 5196   1.333   3.197   2.231
 1292SOL     OW 5197   1.380   3.464   2.337
 1292SOL    HW2 5198   1.370   3.471   2.432
 1292SOL    HW3 5199   1.363   3.372   2.318
 1292SOL    MW4 5200   1.376   3.453   2.347
 1293SOL     OW 5201   1.578   3.598   2.162
 1293SOL    HW2 5202   1.578   3.686   2.199
 1293SOL    HW3 5203   1.513   3.550   2.215
 1293SOL    MW4 5204   1.569   3.603   2.174
 1294SOL     OW 5205   1.595   3.835   2.302
 1294SOL    HW2 5206   1.606   3.837   2.397
 1294SOL    HW3 5207   1.680   3.861   2.267
 1294SOL    MW4 5208   1.607   3.838   2.310
 1295SOL     OW 5209   1.366   3.976   2.237
 1295SOL    HW2 5210   1.446   3.928   2.257
 1295SOL    HW3 5211   1.374   3.999   2.144
 1295SOL    MW4 5212   1.377   3.973   2.227
 1296SOL     OW 5213   1.371   4.239   2.300
 1296SOL    HW2 5214   1.366   4.147   2.277
 1296SOL    HW3 5215   1.286   4.275   2.273
 1296SOL    MW4 5216   1.359   4.232   2.293
 1297SOL     OW 5217   1.561   4.378   2.149
 1297SOL    HW2 5218   1.486   4.324   2.173
 1297SOL    HW3 5219   1.549   4.459   2.198
 1297SOL    MW4 5220   1.550   4.381   2.159
 1298SOL     OW 5221   1.996   4.601   2.319
 1298SOL    HW2 5222   2.075   4.644   2.288
 1298SOL    HW3 5223   1.990   4.521   2.266
 1298SOL    MW4 5224   2.005   4.596   2.308
 1299SOL     OW 5225   1.768   0.067   2.239
 1299SOL    HW2 5226   1.768   0.155   2.278
 1299SOL    HW3 5227   1.842   0.023   2.281
 1299SOL    MW4 5228   1.778   0.073   2.250
 1300SOL     OW 5229   1.783   0.325   2.339
 1300SOL    HW2 5230   1.773   0.332   2.434
 1300SOL    HW3 5231   1.851   0.389   2.318
 1300SOL    MW4 5232   1.791   0.334   2.349
 1301SOL     OW 5233   1.978   0.498   2.250
 1301SOL    HW2 5234   1.988   0.590   2.274
 1301SOL    HW3 5235   1.979   0.498   2.154
 1301SOL    MW4 5236   1.980   0.510   2.240
 1302SOL     OW 5237   2.013   0.765   2.361
 1302SOL    HW2 5238   2.083   0.827   2.344
 1302SOL    HW3 5239   1.936   0.803   2.319
 1302SOL    MW4 5240   2.012   0.778   2.354
 1303SOL     OW 5241   1.777   0.880   2.208
 1303SOL    HW2 5242   1.763   0.971   2.233
 1303SOL    HW3 5243   1.766   0.879   2.113
 1303SOL    MW4 5244   1.773   0.892   2.199
 1304SOL     OW 5245   1.783   1.150   2.342
 1304SOL    HW2 5246   1.860   1.199   2.314
 1304SOL    HW3 5247   1.709   1.207   2.321
 1304SOL    MW4 5248   1.784   1.164   2.336
 1305SOL     OW 5249   2.018   1.266   2.265
 1305SOL    HW2 5250   2.034   1.357   2.292
 1305SOL    HW3 5251   2.031   1.267   2.171
 1305SOL    MW4 5252   2.022   1.278   2.256
 1306SOL     OW 5253   2.018   1.548   2.340
 1306SOL    HW2 5254   2.023   1.565   2.434
 1306SOL    HW3 5255   1.937   1.590   2.313
 1306SOL    MW4 5256   2.008   1.556   2.349
 1307SOL     OW 5257   1.794   1.672   2.270
 1307SOL    HW2 5258   1.782   1.761   2.304
 1307SOL    HW3 5259   1.768   1.678   2.178
 1307SOL    MW4 5260   1.789   1.685   2.262
 1308SOL     OW 5261   1.783   1.945   2.343
 1308SOL    HW2 5262   1.782   1.946   2.439
 1308SOL    HW3 5263   1.870   1.980   2.320
 1308SOL    MW4 5264   1.795   1.950   2.352
 1309SOL     OW 5265   2.009   2.100   2.278
 1309SOL    HW2 5266   2.087   2.047   2.293
 1309SOL    HW3 5267   2.005   2.111   2.183
 1309SOL    MW4 5268   2.019   2.094   2.268
 1310SOL     OW 5269   2.000   2.370   2.353
 1310SOL    HW2 5270   2.067   2.408   2.296
 1310SOL    HW3 5271   2.011   2.276   2.343
 1310SOL    MW4 5272   2.010   2.363   2.344
 1311SOL     OW 5273   1.763   2.416   2.233
 1311SOL    HW2 5274   1.827   2.387   2.297
 1311SOL    HW3 5275   1.678   2.391   2.270
 1311SOL    MW4 5276   1.760   2.409   2.246
 1312SOL     OW 5277   1.744   2.698   2.325
 1312SOL    HW2 5278   1.723   2.612   2.287
 1312SOL    HW3 5279   1.674   2.755   2.294
 1312SOL    MW4 5280   1.732   2.694   2.316
 1313SOL     OW 5281   1.963   2.836   2.205
 1313SOL    HW2 5282   2.045   2.809   2.246
 1313SOL    HW3 5283   1.895   2.798   2.260
 1313SOL    MW4 5284   1.965   2.828   2.218
 1314SOL     OW 5285   2.008   3.074   2.327
 1314SOL    HW2 5286   2.084   3.100   2.275
 1314SOL    HW3 5287   1.988   2.985   2.298
 1314SOL    MW4 5288   2.016   3.066   2.316
 1315SOL     OW 5289   1.815   3.233   2.237
 1315SOL    HW2 5290   1.890   3.187   2.275
 1315SOL    HW3 5291   1.739   3.181   2.264
 1315SOL    MW4 5292   1.815   3.220   2.245
 1316SOL     OW 5293   1.795   3.509   2.307
 1316SOL    HW2 5294   1.815   3.422   2.272
 1316SOL    HW3 5295   1.719   3.538   2.256
 1316SOL    MW4 5296   1.787   3.501   2.296
 1317SOL     OW 5297   2.034   3.636   2.240
 1317SOL    HW2 5298   1.957   3.587   2.270
 1317SOL    HW3 5299   2.027   3.635   2.145
 1317SOL    MW4 5300   2.023   3.630   2.232
 1318SOL     OW 5301   2.049   3.892   2.349
 1318SOL    HW2 5302   2.040   3.884   2.444
 1318SOL    HW3 5303   2.038   3.802   2.317
 1318SOL    MW4 5304   2.047   3.879   2.357
 1319SOL     OW 5305   1.837   4.010   2.232
 1319SOL    HW2 5306   1.915   3.977   2.276
 1319SOL    HW3 5307   1.861   4.016   2.140
 1319SOL    MW4 5308   1.850   4.006   2.226
 1320SOL     OW 5309   1.777   4.264   2.336
 1320SOL    HW2 5310   1.789   4.171   2.314
 1320SOL    HW3 5311   1.702   4.292   2.284
 1320SOL    MW4 5312   1.769   4.255   2.327
 1321SOL     OW 5313   1.997   4.357   2.191
 1321SOL    HW2 5314   1.926   4.308   2.232
 1321SOL    HW3 5315   1.988   4.338   2.098
 1321SOL    MW4 5316   1.987   4.348   2.184
 1322SOL     OW 5317   2.449   4.652   2.303
 1322SOL    HW2 5318   2.527   4.702   2.278
 1322SOL    HW3 5319   2.465   4.564   2.268
 1322SOL    MW4 5320   2.461   4.647   2.295
 1323SOL     OW 5321   2.204   0.105   2.244
 1323SOL    HW2 5322   2.201   0.196   2.273
 1323SOL    HW3 5323   2.288   0.072   2.277
 1323SOL    MW4 5324   2.215   0.113   2.252
 1324SOL     OW 5325   2.205   0.356   2.326
 1324SOL    HW2 5326   2.282   0.406   2.298
 1324SOL    HW3 5327   2.131   0.411   2.302
 1324SOL    MW4 5328   2.206   0.370   2.319
 1325SOL     OW 5329   2.436   0.481   2.232
 1325SOL    HW2 5330   2.514   0.439   2.267
 1325SOL    HW3 5331   2.441   0.467   2.137
 1325SOL    MW4 5332   2.447   0.474   2.224
 1326SOL     OW 5333   2.399   0.743   2.349
 1326SOL    HW2 5334   2.472   0.790   2.308
 1326SOL    HW3 5335   2.400   0.656   2.308
 1326SOL    MW4 5336   2.409   0.738   2.338
 1327SOL     OW 5337   2.221   0.922   2.257
 1327SOL    HW2 5338   2.240   1.005   2.301
 1327SOL    HW3 5339   2.288   0.862   2.288
 1327SOL    MW4 5340   2.232   0.925   2.267
 1328SOL     OW 5341   2.259   1.165   2.372
 1328SOL    HW2 5342   2.326   1.211   2.321
 1328SOL    HW3 5343   2.176   1.189   2.331
 1328SOL    MW4 5344   2.257   1.174   2.360
 1329SOL     OW 5345   2.466   1.283   2.217
 1329SOL    HW2 5346   2.537   1.231   2.255
 1329SOL    HW3 5347   2.471   1.367   2.261
 1329SOL    MW4 5348   2.476   1.287   2.227
 1330SOL     OW 5349   2.479   1.526   2.341
 1330SOL    HW2 5350   2.462   1.546   2.433
 1330SOL    HW3 5351   2.565   1.564   2.323
 1330SOL    MW4 5352   2.488   1.533   2.351
 1331SOL     OW 5353   2.259   1.639   2.203
 1331SOL    HW2 5354   2.330   1.594   2.249
 1331SOL    HW3 5355   2.179   1.608   2.246
 1331SOL    MW4 5356   2.257   1.629   2.215
 1332SOL     OW 5357   2.237   1.899   2.306
 1332SOL    HW2 5358   2.305   1.954   2.267
 1332SOL    HW3 5359   2.256   1.811   2.274
 1332SOL    MW4 5360   2.249   1.895   2.297
 1333SOL     OW 5361   2.461   2.044   2.239
 1333SOL    HW2 5362   2.545   2.014   2.275
 1333SOL    HW3 5363   2.474   2.044   2.144
 1333SOL    MW4 5364   2.474   2.040   2.231
 1334SOL     OW 5365   2.428   2.315   2.305
 1334SOL    HW2 5366   2.514   2.354   2.288
 1334SOL    HW3 5367   2.438   2.223   2.280
 1334SOL    MW4 5368   2.441   2.308   2.299
 1335SOL     OW 5369   2.216   2.493   2.222
 1335SOL    HW2 5370   2.228   2.571   2.277
 1335SOL    HW3 5371   2.280   2.430   2.255
 1335SOL    MW4 5372   2.226   2.495   2.233
 1336SOL     OW 5373   2.195   2.755   2.337
 1336SOL    HW2 5374   2.203   2.757   2.432
 1336SOL    HW3 5375   2.282   2.778   2.305
 1336SOL    MW4 5376   2.208   2.758   2.345
 1337SOL     OW 5377   2.434   2.854   2.231
 1337SOL    HW2 5378   2.504   2.802   2.270
 1337SOL    HW3 5379   2.465   2.874   2.143
 1337SOL    MW4 5380   2.447   2.850   2.225
 1338SOL     OW 5381   2.439   3.091   2.380
 1338SOL    HW2 5382   2.514   3.129   2.334
 1338SOL    HW3 5383   2.422   3.009   2.334
 1338SOL    MW4 5384   2.447   3.085   2.368
 1339SOL     OW 5385   2.233   3.200   2.216
 1339SOL    HW2 5386   2.211   3.283   2.258
 1339SOL    HW3 5387   2.294   3.158   2.276
 1339SOL    MW4 5388   2.238   3.206   2.229
 1340SOL     OW 5389   2.218   3.466   2.335
 1340SOL    HW2 5390   2.238   3.489   2.425
 1340SOL    HW3 5391   2.154   3.531   2.306
 1340SOL    MW4 5392   2.212   3.477   2.343
 1341SOL     OW 5393   2.458   3.615   2.254
 1341SOL    HW2 5394   2.444   3.707   2.277
 1341SOL    HW3 5395   2.376   3.572   2.279
 1341SOL    MW4 5396   2.445   3.622   2.260
 1342SOL     OW 5397   2.416   3.895   2.286
 1342SOL    HW2 5398   2.420   3.902   2.381
 1342SOL    HW3 5399   2.364   3.971   2.259
 1342SOL    MW4 5400   2.410   3.906   2.295
 1343SOL     OW 5401   2.210   4.056   2.213
 1343SOL    HW2 5402   2.209   4.147   2.243
 1343SOL    HW3 5403   2.150   4.010   2.272
 1343SOL    MW4 5404   2.202   4.062   2.224
 1344SOL     OW 5405   2.244   4.319   2.353
 1344SOL    HW2 5406   2.254   4.315   2.448
 1344SOL    HW3 5407   2.153   4.346   2.339
 1344SOL    MW4 5408   2.233   4.322   2.363
 1345SOL     OW 5409   2.478   4.398   2.227
 1345SOL    HW2 5410   2.546   4.350   2.273
 1345SOL    HW3 5411   2.396   4.353   2.249
 1345SOL    MW4 5412   2.476   4.386   2.236
 1346SOL     OW 5413   2.898   0.024   2.305
 1346SOL    HW2 5414   2.977   0.062   2.268
 1346SOL    HW3 5415   2.901  -0.069   2.280
 1346SOL    MW4 5416   2.909   0.017   2.297
 1347SOL     OW 5417   2.670   0.121   2.196
 1347SOL    HW2 5418   2.661   0.207   2.236
 1347SOL    HW3 5419   2.744   0.081   2.240
 1347SOL    MW4 5420   2.678   0.127   2.207
 1348SOL     OW 5421   2.679   0.383   2.318
 1348SOL    HW2 5422   2.671   0.384   2.413
 1348SOL    HW3 5423   2.759   0.432   2.300
 1348SOL    MW4 5424   2.689   0.390   2.328
 1349SOL     OW 5425   2.941   0.483   2.242
 1349SOL    HW2 5426   2.924   0.571   2.276
 1349SOL    HW3 5427   2.929   0.490   2.148
 1349SOL    MW4 5428   2.938   0.496   2.234
 1350SOL     OW 5429   2.888   0.746   2.305
 1350SOL    HW2 5430   2.888   0.739   2.400
 1350SOL    HW3 5431   2.800   0.776   2.283
 1350SOL    MW4 5432   2.877   0.749   2.315
 1351SOL     OW 5433   2.636   0.867   2.249
 1351SOL    HW2 5434   2.648   0.953   2.290
 1351SOL    HW3 5435   2.671   0.879   2.160
 1351SOL    MW4 5436   2.642   0.880   2.243
 1352SOL     OW 5437   2.685   1.144   2.318
 1352SOL    HW2 5438   2.693   1.142   2.413
 1352SOL    HW3 5439   2.764   1.189   2.288
 1352SOL    MW4 5440   2.696   1.149   2.327
 1353SOL     OW 5441   2.920   1.283   2.255
 1353SOL    HW2 5442   2.994   1.243   2.300
 1353SOL    HW3 5443   2.946   1.284   2.163
 1353SOL    MW4 5444   2.933   1.278   2.249
 1354SOL     OW 5445   2.906   1.553   2.357
 1354SOL    HW2 5446   2.903   1.548   2.453
 1354SOL    HW3 5447   2.909   1.462   2.329
 1354SOL    MW4 5448   2.906   1.540   2.366
 1355SOL     OW 5449   2.694   1.695   2.273
 1355SOL    HW2 5450   2.773   1.657   2.310
 1355SOL    HW3 5451   2.698   1.674   2.179
 1355SOL    MW4 5452   2.705   1.687   2.265
 1356SOL     OW 5453   2.703   1.960   2.366
 1356SOL    HW2 5454   2.681   1.968   2.459
 1356SOL    HW3 5455   2.677   1.871   2.343
 1356SOL    MW4 5456   2.696   1.949   2.375
 1357SOL     OW 5457   2.937   2.026   2.255
 1357SOL    HW2 5458   3.009   1.982   2.299
 1357SOL    HW3 5459   2.859   1.977   2.281
 1357SOL    MW4 5460   2.936   2.014   2.264
 1358SOL     OW 5461   2.871   2.300   2.322
 1358SOL    HW2 5462   2.880   2.287   2.416
 1358SOL    HW3 5463   2.874   2.212   2.285
 1358SOL    MW4 5464   2.873   2.287   2.329
 1359SOL     OW 5465   2.659   2.448   2.231
 1359SOL    HW2 5466   2.739   2.398   2.248
 1359SOL    HW3 5467   2.648   2.445   2.135
 1359SOL    MW4 5468   2.668   2.441   2.220
 1360SOL     OW 5469   2.645   2.712   2.344
 1360SOL    HW2 5470   2.731   2.751   2.330
 1360SOL    HW3 5471   2.651   2.627   2.300
 1360SOL    MW4 5472   2.657   2.706   2.336
 1361SOL     OW 5473   2.878   2.810   2.265
 1361SOL    HW2 5474   2.888   2.900   2.296
 1361SOL    HW3 5475   2.896   2.815   2.171
 1361SOL    MW4 5476   2.881   2.823   2.257
 1362SOL     OW 5477   2.907   3.071   2.356
 1362SOL    HW2 5478   2.987   3.082   2.305
 1362SOL    HW3 5479   2.841   3.121   2.309
 1362SOL    MW4 5480   2.909   3.079   2.343
 1363SOL     OW 5481   2.688   3.213   2.255
 1363SOL    HW2 5482   2.679   3.301   2.291
 1363SOL    HW3 5483   2.692   3.226   2.160
 1363SOL    MW4 5484   2.688   3.227   2.247
 1364SOL     OW 5485   2.696   3.492   2.313
 1364SOL    HW2 5486   2.762   3.539   2.263
 1364SOL    HW3 5487   2.613   3.532   2.286
 1364SOL    MW4 5488   2.693   3.504   2.303
 1365SOL     OW 5489   2.923   3.608   2.166
 1365SOL    HW2 5490   2.989   3.559   2.215
 1365SOL    HW3 5491   2.919   3.693   2.209
 1365SOL    MW4 5492   2.932   3.612   2.178
 1366SOL     OW 5493   2.903   3.838   2.315
 1366SOL    HW2 5494   2.909   3.843   2.410
 1366SOL    HW3 5495   2.827   3.891   2.292
 1366SOL    MW4 5496   2.894   3.845   2.324
 1367SOL     OW 5497   2.681   3.999   2.232
 1367SOL    HW2 5498   2.593   3.968   2.251
 1367SOL    HW3 5499   2.683   4.009   2.137
 1367SOL    MW4 5500   2.670   3.996   2.222
 1368SOL     OW 5501   2.671   4.249   2.332
 1368SOL    HW2 5502   2.667   4.232   2.426
 1368SOL    HW3 5503   2.673   4.162   2.292
 1368SOL    MW4 5504   2.670   4.235   2.339
 1369SOL     OW 5505   2.903   4.415   2.243
 1369SOL    HW2 5506   2.977   4.362   2.273
 1369SOL    HW3 5507   2.825   4.364   2.267
 1369SOL    MW4 5508   2.902   4.401   2.250
 1370SOL     OW 5509   3.378   4.663   2.303
 1370SOL    HW2 5510   3.373   4.668   2.399
 1370SOL    HW3 5511   3.456   4.713   2.281
 1370SOL    MW4 5512   3.387   4.670   2.313
 1371SOL     OW 5513   3.154   0.108   2.195
 1371SOL    HW2 5514   3.145   0.187   2.248
 1371SOL    HW3 5515   3.238   0.070   2.222
 1371SOL    MW4 5516   3.164   0.114   2.205
 1372SOL     OW 5517   3.173   0.349   2.323
 1372SOL    HW2 5518   3.240   0.411   2.293
 1372SOL    HW3 5519   3.090   0.395   2.309
 1372SOL    MW4 5520   3.171   0.363   2.317
 1373SOL     OW 5521   3.358   0.525   2.236
 1373SOL    HW2 5522   3.438   0.482   2.267
 1373SOL    HW3 5523   3.357   0.509   2.142
 1373SOL    MW4 5524   3.369   0.517   2.228
 1374SOL     OW 5525   3.350   0.774   2.333
 1374SOL    HW2 5526   3.430   0.813   2.300
 1374SOL    HW3 5527   3.347   0.687   2.293
 1374SOL    MW4 5528   3.360   0.768   2.324
 1375SOL     OW 5529   3.104   0.901   2.220
 1375SOL    HW2 5530   3.176   0.848   2.253
 1375SOL    HW3 5531   3.025   0.860   2.257
 1375SOL    MW4 5532   3.103   0.889   2.229
 1376SOL     OW 5533   3.136   1.142   2.354
 1376SOL    HW2 5534   3.203   1.198   2.316
 1376SOL    HW3 5535   3.136   1.064   2.298
 1376SOL    MW4 5536   3.145   1.139   2.342
 1377SOL     OW 5537   3.368   1.269   2.231
 1377SOL    HW2 5538   3.442   1.220   2.267
 1377SOL    HW3 5539   3.357   1.342   2.291
 1377SOL    MW4 5540   3.376   1.272   2.244
 1378SOL     OW 5541   3.340   1.497   2.381
 1378SOL    HW2 5542   3.345   1.529   2.471
 1378SOL    HW3 5543   3.280   1.557   2.337
 1378SOL    MW4 5544   3.333   1.509   2.387
 1379SOL     OW 5545   3.151   1.652   2.245
 1379SOL    HW2 5546   3.163   1.738   2.285
 1379SOL    HW3 5547   3.062   1.626   2.267
 1379SOL    MW4 5548   3.141   1.660   2.253
 1380SOL     OW 5549   3.164   1.905   2.367
 1380SOL    HW2 5550   3.165   1.901   2.462
 1380SOL    HW3 5551   3.242   1.957   2.345
 1380SOL    MW4 5552   3.175   1.911   2.377
 1381SOL     OW 5553   3.370   2.077   2.259
 1381SOL    HW2 5554   3.451   2.030   2.278
 1381SOL    HW3 5555   3.358   2.065   2.164
 1381SOL    MW4 5556   3.380   2.069   2.249
 1382SOL     OW 5557   3.367   2.330   2.363
 1382SOL    HW2 5558   3.284   2.353   2.321
 1382SOL    HW3 5559   3.378   2.236   2.344
 1382SOL    MW4 5560   3.358   2.320   2.355
 1383SOL     OW 5561   3.146   2.413   2.252
 1383SOL    HW2 5562   3.147   2.499   2.294
 1383SOL    HW3 5563   3.065   2.372   2.282
 1383SOL    MW4 5564   3.136   2.419   2.261
 1384SOL     OW 5565   3.109   2.687   2.364
 1384SOL    HW2 5566   3.099   2.666   2.457
 1384SOL    HW3 5567   3.037   2.748   2.345
 1384SOL    MW4 5568   3.098   2.692   2.373
 1385SOL     OW 5569   3.339   2.784   2.233
 1385SOL    HW2 5570   3.347   2.869   2.275
 1385SOL    HW3 5571   3.260   2.746   2.272
 1385SOL    MW4 5572   3.330   2.790   2.243
 1386SOL     OW 5573   3.375   3.027   2.326
 1386SOL    HW2 5574   3.445   3.076   2.280
 1386SOL    HW3 5575   3.294   3.059   2.286
 1386SOL    MW4 5576   3.374   3.038   2.314
 1387SOL     OW 5577   3.156   3.174   2.214
 1387SOL    HW2 5578   3.154   3.260   2.258
 1387SOL    HW3 5579   3.133   3.194   2.123
 1387SOL    MW4 5580   3.153   3.188   2.208
 1388SOL     OW 5581   3.152   3.440   2.316
 1388SOL    HW2 5582   3.164   3.438   2.411
 1388SOL    HW3 5583   3.219   3.500   2.285
 1388SOL    MW4 5584   3.162   3.447   2.324
 1389SOL     OW 5585   3.363   3.595   2.261
 1389SOL    HW2 5586   3.441   3.560   2.305
 1389SOL    HW3 5587   3.368   3.561   2.172
 1389SOL    MW4 5588   3.374   3.586   2.255
 1390SOL     OW 5589   3.336   3.868   2.333
 1390SOL    HW2 5590   3.402   3.916   2.284
 1390SOL    HW3 5591   3.344   3.777   2.304
 1390SOL    MW4 5592   3.345   3.862   2.323
 1391SOL     OW 5593   3.122   3.990   2.213
 1391SOL    HW2 5594   3.198   3.948   2.253
 1391SOL    HW3 5595   3.047   3.939   2.243
 1391SOL    MW4 5596   3.122   3.978   2.222
 1392SOL     OW 5597   3.111   4.260   2.363
 1392SOL    HW2 5598   3.188   4.297   2.319
 1392SOL    HW3 5599   3.095   4.178   2.317
 1392SOL    MW4 5600   3.119   4.254   2.351
 1393SOL     OW 5601   3.345   4.392   2.227
 1393SOL    HW2 5602   3.359   4.486   2.237
 1393SOL    HW3 5603   3.334   4.379   2.133
 1393SOL    MW4 5604   3.345   4.403   2.216
 1394SOL     OW 5605   3.795   4.626   2.348
 1394SOL    HW2 5606   3.807   4.624   2.443
 1394SOL    HW3 5607   3.870   4.677   2.316
 1394SOL    MW4 5608   3.806   4.633   2.357
 1395SOL     OW 5609   3.602   0.130   2.237
 1395SOL    HW2 5610   3.605   0.212   2.287
 1395SOL    HW3 5611   3.655   0.069   2.289
 1395SOL    MW4 5612   3.610   0.133   2.251
 1396SOL     OW 5613   3.568   0.368   2.350
 1396SOL    HW2 5614   3.566   0.375   2.445
 1396SOL    HW3 5615   3.658   0.392   2.326
 1396SOL    MW4 5616   3.580   0.372   2.359
 1397SOL     OW 5617   3.822   0.458   2.252
 1397SOL    HW2 5618   3.822   0.547   2.287
 1397SOL    HW3 5619   3.800   0.468   2.160
 1397SOL    MW4 5620   3.819   0.471   2.245
 1398SOL     OW 5621   3.808   0.726   2.334
 1398SOL    HW2 5622   3.802   0.725   2.429
 1398SOL    HW3 5623   3.893   0.767   2.316
 1398SOL    MW4 5624   3.818   0.731   2.344
 1399SOL     OW 5625   3.573   0.876   2.248
 1399SOL    HW2 5626   3.653   0.832   2.275
 1399SOL    HW3 5627   3.570   0.865   2.153
 1399SOL    MW4 5628   3.583   0.869   2.239
 1400SOL     OW 5629   3.580   1.130   2.352
 1400SOL    HW2 5630   3.605   1.128   2.445
 1400SOL    HW3 5631   3.587   1.039   2.323
 1400SOL    MW4 5632   3.584   1.118   2.361
 1401SOL     OW 5633   3.804   1.271   2.251
 1401SOL    HW2 5634   3.803   1.348   2.308
 1401SOL    HW3 5635   3.722   1.226   2.270
 1401SOL    MW4 5636   3.793   1.275   2.261
 1402SOL     OW 5637   3.817   1.527   2.387
 1402SOL    HW2 5638   3.810   1.542   2.481
 1402SOL    HW3 5639   3.733   1.556   2.352
 1402SOL    MW4 5640   3.805   1.533   2.394
 1403SOL     OW 5641   3.572   1.631   2.286
 1403SOL    HW2 5642   3.501   1.572   2.313
 1403SOL    HW3 5643   3.590   1.606   2.195
 1403SOL    MW4 5644   3.565   1.620   2.277
 1404SOL     OW 5645   3.607   1.924   2.351
 1404SOL    HW2 5646   3.691   1.952   2.314
 1404SOL    HW3 5647   3.593   1.837   2.315
 1404SOL    MW4 5648   3.616   1.916   2.341
 1405SOL     OW 5649   3.832   2.025   2.243
 1405SOL    HW2 5650   3.924   2.000   2.246
 1405SOL    HW3 5651   3.806   2.009   2.152
 1405SOL    MW4 5652   3.840   2.020   2.231
 1406SOL     OW 5653   3.849   2.282   2.334
 1406SOL    HW2 5654   3.766   2.320   2.305
 1406SOL    HW3 5655   3.850   2.195   2.293
 1406SOL    MW4 5656   3.838   2.276   2.325
 1407SOL     OW 5657   3.614   2.425   2.259
 1407SOL    HW2 5658   3.536   2.381   2.294
 1407SOL    HW3 5659   3.599   2.429   2.165
 1407SOL    MW4 5660   3.602   2.420   2.251
 1408SOL     OW 5661   3.579   2.691   2.335
 1408SOL    HW2 5662   3.581   2.597   2.315
 1408SOL    HW3 5663   3.494   2.720   2.304
 1408SOL    MW4 5664   3.568   2.682   2.329
 1409SOL     OW 5665   3.771   2.824   2.185
 1409SOL    HW2 5666   3.774   2.910   2.225
 1409SOL    HW3 5667   3.701   2.777   2.231
 1409SOL    MW4 5668   3.762   2.829   2.196
 1410SOL     OW 5669   3.814   3.073   2.311
 1410SOL    HW2 5670   3.797   3.096   2.403
 1410SOL    HW3 5671   3.884   3.132   2.284
 1410SOL    MW4 5672   3.821   3.084   2.320
 1411SOL     OW 5673   3.573   3.190   2.216
 1411SOL    HW2 5674   3.553   3.272   2.261
 1411SOL    HW3 5675   3.664   3.171   2.240
 1411SOL    MW4 5676   3.583   3.198   2.225
 1412SOL     OW 5677   3.582   3.448   2.351
 1412SOL    HW2 5678   3.598   3.460   2.445
 1412SOL    HW3 5679   3.661   3.481   2.309
 1412SOL    MW4 5680   3.595   3.454   2.358
 1413SOL     OW 5681   3.829   3.598   2.262
 1413SOL    HW2 5682   3.792   3.681   2.294
 1413SOL    HW3 5683   3.862   3.620   2.174
 1413SOL    MW4 5684   3.829   3.612   2.254
 1414SOL     OW 5685   3.764   3.857   2.337
 1414SOL    HW2 5686   3.766   3.851   2.433
 1414SOL    HW3 5687   3.850   3.891   2.314
 1414SOL    MW4 5688   3.776   3.861   2.347
 1415SOL     OW 5689   3.554   3.996   2.232
 1415SOL    HW2 5690   3.556   4.083   2.274
 1415SOL    HW3 5691   3.628   3.949   2.271
 1415SOL    MW4 5692   3.564   4.001   2.243
 1416SOL     OW 5693   3.548   4.250   2.337
 1416SOL    HW2 5694   3.631   4.299   2.338
 1416SOL    HW3 5695   3.486   4.309   2.294
 1416SOL    MW4 5696   3.551   4.264   2.331
 1417SOL     OW 5697   3.796   4.380   2.242
 1417SOL    HW2 5698   3.867   4.333   2.286
 1417SOL    HW3 5699   3.797   4.467   2.282
 1417SOL    MW4 5700   3.805   4.386   2.253
 1418SOL     OW 5701   4.228   4.626   2.373
 1418SOL    HW2 5702   4.246   4.604   2.465
 1418SOL    HW3 5703   4.312   4.659   2.340
 1418SOL    MW4 5704   4.242   4.627   2.381
 1419SOL     OW 5705   4.022   0.091   2.275
 1419SOL    HW2 5706   4.039   0.183   2.290
 1419SOL    HW3 5707   4.091   0.045   2.324
 1419SOL    MW4 5708   4.033   0.097   2.283
 1420SOL     OW 5709   4.057   0.353   2.341
 1420SOL    HW2 5710   4.131   0.404   2.307
 1420SOL    HW3 5711   3.980   0.396   2.304
 1420SOL    MW4 5712   4.056   0.366   2.332
 1421SOL     OW 5713   4.273   0.485   2.247
 1421SOL    HW2 5714   4.283   0.573   2.284
 1421SOL    HW3 5715   4.345   0.435   2.285
 1421SOL    MW4 5716   4.284   0.490   2.257
 1422SOL     OW 5717   4.275   0.734   2.379
 1422SOL    HW2 5718   4.186   0.766   2.366
 1422SOL    HW3 5719   4.331   0.799   2.338
 1422SOL    MW4 5720   4.270   0.747   2.372
 1423SOL     OW 5721   4.051   0.860   2.286
 1423SOL    HW2 5722   4.029   0.948   2.315
 1423SOL    HW3 5723   4.046   0.864   2.190
 1423SOL    MW4 5724   4.047   0.872   2.277
 1424SOL     OW 5725   4.036   1.119   2.361
 1424SOL    HW2 5726   4.051   1.119   2.455
 1424SOL    HW3 5727   3.954   1.168   2.350
 1424SOL    MW4 5728   4.027   1.125   2.372
 1425SOL     OW 5729   4.233   1.268   2.245
 1425SOL    HW2 5730   4.154   1.227   2.279
 1425SOL    HW3 5731   4.305   1.224   2.290
 1425SOL    MW4 5732   4.232   1.257   2.255
 1426SOL     OW 5733   4.240   1.514   2.362
 1426SOL    HW2 5734   4.240   1.424   2.328
 1426SOL    HW3 5735   4.320   1.553   2.326
 1426SOL    MW4 5736   4.251   1.507   2.353
 1427SOL     OW 5737   4.027   1.664   2.261
 1427SOL    HW2 5738   4.107   1.616   2.284
 1427SOL    HW3 5739   3.956   1.607   2.289
 1427SOL    MW4 5740   4.028   1.650   2.268
 1428SOL     OW 5741   4.064   1.920   2.340
 1428SOL    HW2 5742   4.059   1.928   2.435
 1428SOL    HW3 5743   4.056   1.826   2.323
 1428SOL    MW4 5744   4.062   1.909   2.350
 1429SOL     OW 5745   4.266   2.068   2.213
 1429SOL    HW2 5746   4.271   2.153   2.256
 1429SOL    HW3 5747   4.198   2.020   2.261
 1429SOL    MW4 5748   4.258   2.073   2.225
 1430SOL     OW 5749   4.252   2.328   2.348
 1430SOL    HW2 5750   4.171   2.377   2.333
 1430SOL    HW3 5751   4.321   2.382   2.310
 1430SOL    MW4 5752   4.250   2.342   2.341
 1431SOL     OW 5753   4.020   2.467   2.218
 1431SOL    HW2 5754   4.031   2.548   2.268
 1431SOL    HW3 5755   3.959   2.414   2.270
 1431SOL    MW4 5756   4.013   2.471   2.232
 1432SOL     OW 5757   4.000   2.717   2.360
 1432SOL    HW2 5758   3.998   2.745   2.451
 1432SOL    HW3 5759   3.915   2.743   2.325
 1432SOL    MW4 5760   3.988   2.724   2.367
 1433SOL     OW 5761   4.227   2.811   2.220
 1433SOL    HW2 5762   4.163   2.781   2.285
 1433SOL    HW3 5763   4.308   2.766   2.245
 1433SOL    MW4 5764   4.230   2.801   2.232
 1434SOL     OW 5765   4.244   3.052   2.341
 1434SOL    HW2 5766   4.260   2.966   2.302
 1434SOL    HW3 5767   4.312   3.108   2.304
 1434SOL    MW4 5768   4.255   3.048   2.331
 1435SOL     OW 5769   4.041   3.197   2.238
 1435SOL    HW2 5770   4.045   3.280   2.285
 1435SOL    HW3 5771   4.113   3.145   2.275
 1435SOL    MW4 5772   4.051   3.201   2.249
 1436SOL     OW 5773   4.030   3.449   2.353
 1436SOL    HW2 5774   4.104   3.500   2.321
 1436SOL    HW3 5775   3.955   3.508   2.346
 1436SOL    MW4 5776   4.030   3.463   2.348
 1437SOL     OW 5777   4.240   3.604   2.254
 1437SOL    HW2 5778   4.244   3.696   2.282
 1437SOL    HW3 5779   4.228   3.609   2.159
 1437SOL    MW4 5780   4.239   3.617   2.245
 1438SOL     OW 5781   4.237   3.880   2.324
 1438SOL    HW2 5782   4.239   3.879   2.419
 1438SOL    HW3 5783   4.319   3.923   2.298
 1438SOL    MW4 5784   4.248   3.885   2.333
 1439SOL     OW 5785   3.993   3.966   2.228
 1439SOL    HW2 5786   4.071   3.925   2.266
 1439SOL    HW3 5787   4.009   3.966   2.134
 1439SOL    MW4 5788   4.005   3.961   2.221
 1440SOL     OW 5789   4.012   4.228   2.338
 1440SOL    HW2 5790   4.096   4.264   2.308
 1440SOL    HW3 5791   4.008   4.141   2.298
 1440SOL    MW4 5792   4.023   4.222   2.328
 1441SOL     OW 5793   4.235   4.382   2.236
 1441SOL    HW2 5794   4.236   4.461   2.290
 1441SOL    HW3 5795   4.319   4.339   2.255
 1441SOL    MW4 5796   4.247   4.387   2.246
 1442SOL     OW 5797   0.244   4.638   2.620
 1442SOL    HW2 5798   0.241   4.547   2.650
 1442SOL    HW3 5799   0.158   4.673   2.643
 1442SOL    MW4 5800   0.232   4.630   2.627
 1443SOL     OW 5801   0.003   0.068   2.683
 1443SOL    HW2 5802   0.016   0.065   2.778
 1443SOL    HW3 5803   0.013   0.161   2.661
 1443SOL    MW4 5804   0.006   0.080   2.692
 1444SOL     OW 5805   0.003   0.349   2.644
 1444SOL    HW2 5806   0.088   0.386   2.667
 1444SOL    HW3 5807  -0.004   0.359   2.549
 1444SOL    MW4 5808   0.013   0.355   2.635
 1445SOL     OW 5809   0.220   0.466   2.720
 1445SOL    HW2 5810   0.231   0.474   2.815
 1445SOL    HW3 5811   0.304   0.433   2.689
 1445SOL    MW4 5812   0.233   0.463   2.729
 1446SOL     OW 5813   0.208   0.728   2.609
 1446SOL    HW2 5814   0.272   0.786   2.652
 1446SOL    HW3 5815   0.231   0.640   2.641
 1446SOL    MW4 5816   0.220   0.724   2.619
 1447SOL     OW 5817   4.482   0.841   2.725
 1447SOL    HW2 5818   4.403   0.799   2.690
 1447SOL    HW3 5819   4.554   0.800   2.677
 1447SOL    MW4 5820   4.481   0.830   2.714
 1448SOL     OW 5821   4.459   1.103   2.626
 1448SOL    HW2 5822   4.535   1.157   2.650
 1448SOL    HW3 5823   4.479   1.017   2.663
 1448SOL    MW4 5824   4.472   1.099   2.634
 1449SOL     OW 5825   0.183   1.267   2.688
 1449SOL    HW2 5826   0.265   1.219   2.672
 1449SOL    HW3 5827   0.191   1.346   2.634
 1449SOL    MW4 5828   0.195   1.271   2.679
 1450SOL     OW 5829   0.256   1.537   2.625
 1450SOL    HW2 5830   0.339   1.558   2.666
 1450SOL    HW3 5831   0.192   1.591   2.670
 1450SOL    MW4 5832   0.258   1.547   2.636
 1451SOL     OW 5833   0.017   1.669   2.736
 1451SOL    HW2 5834   0.018   1.682   2.831
 1451SOL    HW3 5835  -0.015   1.753   2.701
 1451SOL    MW4 5836   0.013   1.682   2.744
 1452SOL     OW 5837   4.445   1.929   2.618
 1452SOL    HW2 5838   4.523   1.979   2.642
 1452SOL    HW3 5839   4.451   1.920   2.523
 1452SOL    MW4 5840   4.456   1.935   2.608
 1453SOL     OW 5841   0.182   2.048   2.743
 1453SOL    HW2 5842   0.264   2.003   2.721
 1453SOL    HW3 5843   0.196   2.138   2.716
 1453SOL    MW4 5844   0.195   2.054   2.737
 1454SOL     OW 5845   0.211   2.301   2.615
 1454SOL    HW2 5846   0.288   2.350   2.643
 1454SOL    HW3 5847   0.137   2.355   2.643
 1454SOL    MW4 5848   0.211   2.315   2.622
 1455SOL     OW 5849   4.458   2.458   2.718
 1455SOL    HW2 5850   4.454   2.446   2.813
 1455SOL    HW3 5851   4.373   2.426   2.687
 1455SOL    MW4 5852   4.446   2.452   2.727
 1456SOL     OW 5853   4.478   2.714   2.604
 1456SOL    HW2 5854   4.404   2.757   2.648
 1456SOL    HW3 5855   4.483   2.627   2.644
 1456SOL    MW4 5856   4.469   2.708   2.615
 1457SOL     OW 5857   0.220   2.870   2.722
 1457SOL    HW2 5858   0.226   2.959   2.688
 1457SOL    HW3 5859   0.132   2.841   2.698
 1457SOL    MW4 5860   0.209   2.878   2.714
 1458SOL     OW 5861   0.221   3.139   2.623
 1458SOL    HW2 5862   0.289   3.200   2.650
 1458SOL    HW3 5863   0.230   3.132   2.528
 1458SOL    MW4 5864   0.231   3.146   2.614
 1459SOL     OW 5865   4.483   3.221   2.736
 1459SOL    HW2 5866   4.417   3.178   2.682
 1459SOL    HW3 5867   4.566   3.181   2.708
 1459SOL    MW4 5868   4.485   3.210   2.725
 1460SOL     OW 5869   4.447   3.452   2.600
 1460SOL    HW2 5870   4.520   3.513   2.613
 1460SOL    HW3 5871   4.472   3.374   2.649
 1460SOL    MW4 5872   4.460   3.450   2.608
 1461SOL     OW 5873   0.168   3.627   2.737
 1461SOL    HW2 5874   0.176   3.628   2.833
 1461SOL    HW3 5875   0.246   3.580   2.707
 1461SOL    MW4 5876   0.180   3.621   2.746
 1462SOL     OW 5877   0.214   3.868   2.583
 1462SOL    HW2 5878   0.192   3.784   2.622
 1462SOL    HW3 5879   0.218   3.851   2.489
 1462SOL    MW4 5880   0.212   3.855   2.576
 1463SOL     OW 5881   0.014   4.020   2.719
 1463SOL    HW2 5882   0.012   4.097   2.663
 1463SOL    HW3 5883   0.087   3.968   2.685
 1463SOL    MW4 5884   0.023   4.023   2.707
 1464SOL     OW 5885   0.010   4.241   2.557
 1464SOL    HW2 5886  -0.073   4.264   2.599
 1464SOL    HW3 5887   0.077   4.286   2.609
 1464SOL    MW4 5888   0.008   4.250   2.569
 1465SOL     OW 5889   0.240   4.360   2.695
 1465SOL    HW2 5890   0.233   4.359   2.791
 1465SOL    HW3 5891   0.331   4.335   2.678
 1465SOL    MW4 5892   0.251   4.356   2.705
 1466SOL     OW 5893   0.691   0.028   2.549
 1466SOL    HW2 5894   0.769   0.061   2.593
 1466SOL    HW3 5895   0.618   0.060   2.602
 1466SOL    MW4 5896   0.692   0.037   2.562
 1467SOL     OW 5897   0.473   0.125   2.680
 1467SOL    HW2 5898   0.476   0.127   2.776
 1467SOL    HW3 5899   0.392   0.078   2.660
 1467SOL    MW4 5900   0.463   0.119   2.690
 1468SOL     OW 5901   0.468   0.380   2.599
 1468SOL    HW2 5902   0.541   0.421   2.646
 1468SOL    HW3 5903   0.478   0.286   2.618
 1468SOL    MW4 5904   0.479   0.373   2.608
 1469SOL     OW 5905   0.659   0.495   2.741
 1469SOL    HW2 5906   0.652   0.486   2.836
 1469SOL    HW3 5907   0.736   0.444   2.718
 1469SOL    MW4 5908   0.668   0.487   2.751
 1470SOL     OW 5909   0.641   0.760   2.647
 1470SOL    HW2 5910   0.726   0.796   2.673
 1470SOL    HW3 5911   0.643   0.669   2.678
 1470SOL    MW4 5912   0.653   0.752   2.654
 1471SOL     OW 5913   0.391   0.882   2.748
 1471SOL    HW2 5914   0.406   0.976   2.737
 1471SOL    HW3 5915   0.474   0.842   2.723
 1471SOL    MW4 5916   0.404   0.889   2.743
 1472SOL     OW 5917   0.416   1.140   2.660
 1472SOL    HW2 5918   0.496   1.169   2.702
 1472SOL    HW3 5919   0.437   1.135   2.567
 1472SOL    MW4 5920   0.429   1.143   2.654
 1473SOL     OW 5921   0.661   1.244   2.729
 1473SOL    HW2 5922   0.676   1.245   2.823
 1473SOL    HW3 5923   0.745   1.219   2.691
 1473SOL    MW4 5924   0.674   1.241   2.736
 1474SOL     OW 5925   0.675   1.469   2.581
 1474SOL    HW2 5926   0.623   1.532   2.632
 1474SOL    HW3 5927   0.662   1.385   2.626
 1474SOL    MW4 5928   0.667   1.466   2.594
 1475SOL     OW 5929   0.505   1.628   2.709
 1475SOL    HW2 5930   0.487   1.617   2.802
 1475SOL    HW3 5931   0.511   1.723   2.696
 1475SOL    MW4 5932   0.503   1.639   2.719
 1476SOL     OW 5933   0.423   1.913   2.658
 1476SOL    HW2 5934   0.500   1.964   2.685
 1476SOL    HW3 5935   0.421   1.921   2.563
 1476SOL    MW4 5936   0.433   1.921   2.649
 1477SOL     OW 5937   0.643   2.050   2.728
 1477SOL    HW2 5938   0.637   2.045   2.823
 1477SOL    HW3 5939   0.713   1.989   2.705
 1477SOL    MW4 5940   0.652   2.042   2.737
 1478SOL     OW 5941   0.619   2.320   2.599
 1478SOL    HW2 5942   0.690   2.371   2.637
 1478SOL    HW3 5943   0.634   2.230   2.630
 1478SOL    MW4 5944   0.630   2.315   2.608
 1479SOL     OW 5945   0.414   2.456   2.724
 1479SOL    HW2 5946   0.419   2.542   2.682
 1479SOL    HW3 5947   0.479   2.402   2.678
 1479SOL    MW4 5948   0.423   2.460   2.713
 1480SOL     OW 5949   0.416   2.714   2.601
 1480SOL    HW2 5950   0.480   2.771   2.645
 1480SOL    HW3 5951   0.331   2.752   2.624
 1480SOL    MW4 5952   0.413   2.727   2.610
 1481SOL     OW 5953   0.603   2.871   2.722
 1481SOL    HW2 5954   0.593   2.878   2.817
 1481SOL    HW3 5955   0.623   2.960   2.693
 1481SOL    MW4 5956   0.604   2.884   2.731
 1482SOL     OW 5957   0.657   3.119   2.632
 1482SOL    HW2 5958   0.747   3.117   2.663
 1482SOL    HW3 5959   0.663   3.112   2.537
 1482SOL    MW4 5960   0.670   3.118   2.624
 1483SOL     OW 5961   0.445   3.284   2.719
 1483SOL    HW2 5962   0.441   3.259   2.811
 1483SOL    HW3 5963   0.521   3.236   2.684
 1483SOL    MW4 5964   0.455   3.274   2.726
 1484SOL     OW 5965   0.411   3.542   2.625
 1484SOL    HW2 5966   0.445   3.462   2.664
 1484SOL    HW3 5967   0.410   3.524   2.531
 1484SOL    MW4 5968   0.415   3.529   2.617
 1485SOL     OW 5969   0.664   3.631   2.690
 1485SOL    HW2 5970   0.681   3.616   2.783
 1485SOL    HW3 5971   0.571   3.610   2.678
 1485SOL    MW4 5972   0.654   3.626   2.700
 1486SOL     OW 5973   0.686   3.879   2.557
 1486SOL    HW2 5974   0.616   3.917   2.608
 1486SOL    HW3 5975   0.689   3.787   2.584
 1486SOL    MW4 5976   0.677   3.872   2.567
 1487SOL     OW 5977   0.461   3.987   2.695
 1487SOL    HW2 5978   0.462   4.076   2.657
 1487SOL    HW3 5979   0.376   3.952   2.670
 1487SOL    MW4 5980   0.450   3.994   2.686
 1488SOL     OW 5981   0.511   4.260   2.625
 1488SOL    HW2 5982   0.572   4.334   2.623
 1488SOL    HW3 5983   0.480   4.252   2.535
 1488SOL    MW4 5984   0.515   4.269   2.613
 1489SOL     OW 5985   0.689   4.456   2.697
 1489SOL    HW2 5986   0.761   4.404   2.661
 1489SOL    HW3 5987   0.695   4.540   2.652
 1489SOL    MW4 5988   0.699   4.460   2.686
 1490SOL     OW 5989   1.124   4.601   2.599
 1490SOL    HW2 5990   1.192   4.662   2.629
 1490SOL    HW3 5991   1.144   4.519   2.645
 1490SOL    MW4 5992   1.136   4.598   2.609
 1491SOL     OW 5993   0.905   0.083   2.704
 1491SOL    HW2 5994   0.920   0.101   2.797
 1491SOL    HW3 5995   0.984   0.036   2.676
 1491SOL    MW4 5996   0.917   0.079   2.713
 1492SOL     OW 5997   0.872   0.340   2.609
 1492SOL    HW2 5998   0.890   0.253   2.645
 1492SOL    HW3 5999   0.871   0.328   2.514
 1492SOL    MW4 6000   0.874   0.327   2.601
 1493SOL     OW 6001   1.085   0.487   2.698
 1493SOL    HW2 6002   1.071   0.571   2.655
 1493SOL    HW3 6003   1.011   0.433   2.672
 1493SOL    MW4 6004   1.073   0.491   2.689
 1494SOL     OW 6005   1.114   0.744   2.612
 1494SOL    HW2 6006   1.202   0.766   2.644
 1494SOL    HW3 6007   1.118   0.760   2.517
 1494SOL    MW4 6008   1.126   0.749   2.603
 1495SOL     OW 6009   0.889   0.892   2.686
 1495SOL    HW2 6010   0.884   0.900   2.781
 1495SOL    HW3 6011   0.973   0.848   2.670
 1495SOL    MW4 6012   0.900   0.887   2.696
 1496SOL     OW 6013   0.892   1.146   2.590
 1496SOL    HW2 6014   0.891   1.054   2.615
 1496SOL    HW3 6015   0.878   1.146   2.495
 1496SOL    MW4 6016   0.890   1.134   2.580
 1497SOL     OW 6017   1.127   1.298   2.703
 1497SOL    HW2 6018   1.119   1.386   2.666
 1497SOL    HW3 6019   1.050   1.252   2.672
 1497SOL    MW4 6020   1.116   1.304   2.694
 1498SOL     OW 6021   1.107   1.546   2.594
 1498SOL    HW2 6022   1.033   1.588   2.639
 1498SOL    HW3 6023   1.082   1.548   2.501
 1498SOL    MW4 6024   1.094   1.552   2.588
 1499SOL     OW 6025   0.880   1.652   2.709
 1499SOL    HW2 6026   0.881   1.646   2.804
 1499SOL    HW3 6027   0.808   1.595   2.682
 1499SOL    MW4 6028   0.871   1.644   2.718
 1500SOL     OW 6029   0.886   1.925   2.623
 1500SOL    HW2 6030   0.935   1.990   2.672
 1500SOL    HW3 6031   0.910   1.841   2.663
 1500SOL    MW4 6032   0.896   1.922   2.635
 1501SOL     OW 6033   1.063   2.094   2.737
 1501SOL    HW2 6034   1.141   2.045   2.709
 1501SOL    HW3 6035   1.075   2.180   2.698
 1501SOL    MW4 6036   1.075   2.099   2.728
 1502SOL     OW 6037   1.063   2.344   2.653
 1502SOL    HW2 6038   1.147   2.381   2.681
 1502SOL    HW3 6039   1.069   2.342   2.558
 1502SOL    MW4 6040   1.075   2.349   2.644
 1503SOL     OW 6041   0.818   2.473   2.717
 1503SOL    HW2 6042   0.836   2.560   2.680
 1503SOL    HW3 6043   0.901   2.426   2.708
 1503SOL    MW4 6044   0.832   2.479   2.711
 1504SOL     OW 6045   0.839   2.736   2.624
 1504SOL    HW2 6046   0.921   2.775   2.656
 1504SOL    HW3 6047   0.770   2.793   2.658
 1504SOL    MW4 6048   0.841   2.748   2.633
 1505SOL     OW 6049   1.083   2.832   2.703
 1505SOL    HW2 6050   1.106   2.825   2.796
 1505SOL    HW3 6051   1.159   2.795   2.657
 1505SOL    MW4 6052   1.096   2.826   2.709
 1506SOL     OW 6053   1.148   3.096   2.641
 1506SOL    HW2 6054   1.122   3.007   2.664
 1506SOL    HW3 6055   1.136   3.101   2.546
 1506SOL    MW4 6056   1.143   3.085   2.632
 1507SOL     OW 6057   0.919   3.208   2.739
 1507SOL    HW2 6058   0.903   3.286   2.686
 1507SOL    HW3 6059   1.006   3.179   2.711
 1507SOL    MW4 6060   0.928   3.215   2.728
 1508SOL     OW 6061   0.887   3.462   2.597
 1508SOL    HW2 6062   0.961   3.508   2.638
 1508SOL    HW3 6063   0.810   3.512   2.625
 1508SOL    MW4 6064   0.887   3.475   2.606
 1509SOL     OW 6065   1.102   3.599   2.687
 1509SOL    HW2 6066   1.101   3.626   2.778
 1509SOL    HW3 6067   1.100   3.681   2.637
 1509SOL    MW4 6068   1.102   3.613   2.692
 1510SOL     OW 6069   1.098   3.851   2.572
 1510SOL    HW2 6070   1.178   3.889   2.609
 1510SOL    HW3 6071   1.110   3.859   2.477
 1510SOL    MW4 6072   1.110   3.857   2.564
 1511SOL     OW 6073   0.893   4.008   2.692
 1511SOL    HW2 6074   0.958   3.963   2.637
 1511SOL    HW3 6075   0.809   3.970   2.665
 1511SOL    MW4 6076   0.890   3.997   2.681
 1512SOL     OW 6077   0.888   4.266   2.623
 1512SOL    HW2 6078   0.892   4.174   2.648
 1512SOL    HW3 6079   0.884   4.265   2.528
 1512SOL    MW4 6080   0.888   4.254   2.614
 1513SOL     OW 6081   1.144   4.351   2.709
 1513SOL    HW2 6082   1.137   4.378   2.800
 1513SOL    HW3 6083   1.055   4.327   2.684
 1513SOL    MW4 6084   1.131   4.351   2.717
 1514SOL     OW 6085   1.543   4.638   2.607
 1514SOL    HW2 6086   1.547   4.545   2.632
 1514SOL    HW3 6087   1.551   4.637   2.512
 1514SOL    MW4 6088   1.544   4.625   2.598
 1515SOL     OW 6089   1.310   0.086   2.717
 1515SOL    HW2 6090   1.298   0.173   2.680
 1515SOL    HW3 6091   1.389   0.052   2.676
 1515SOL    MW4 6092   1.319   0.093   2.707
 1516SOL     OW 6093   1.326   0.350   2.618
 1516SOL    HW2 6094   1.396   0.403   2.654
 1516SOL    HW3 6095   1.246   0.397   2.641
 1516SOL    MW4 6096   1.324   0.363   2.626
 1517SOL     OW 6097   1.552   0.495   2.700
 1517SOL    HW2 6098   1.632   0.451   2.669
 1517SOL    HW3 6099   1.562   0.586   2.673
 1517SOL    MW4 6100   1.564   0.501   2.693
 1518SOL     OW 6101   1.601   0.757   2.630
 1518SOL    HW2 6102   1.518   0.788   2.665
 1518SOL    HW3 6103   1.596   0.773   2.536
 1518SOL    MW4 6104   1.590   0.763   2.622
 1519SOL     OW 6105   1.350   0.872   2.695
 1519SOL    HW2 6106   1.362   0.880   2.790
 1519SOL    HW3 6107   1.341   0.962   2.664
 1519SOL    MW4 6108   1.350   0.885   2.704
 1520SOL     OW 6109   1.326   1.131   2.628
 1520SOL    HW2 6110   1.404   1.160   2.675
 1520SOL    HW3 6111   1.255   1.184   2.665
 1520SOL    MW4 6112   1.327   1.142   2.639
 1521SOL     OW 6113   1.551   1.271   2.730
 1521SOL    HW2 6114   1.565   1.312   2.816
 1521SOL    HW3 6115   1.632   1.225   2.712
 1521SOL    MW4 6116   1.563   1.271   2.739
 1522SOL     OW 6117   1.529   1.549   2.664
 1522SOL    HW2 6118   1.521   1.460   2.697
 1522SOL    HW3 6119   1.541   1.539   2.569
 1522SOL    MW4 6120   1.530   1.536   2.655
 1523SOL     OW 6121   1.295   1.698   2.724
 1523SOL    HW2 6122   1.385   1.667   2.710
 1523SOL    HW3 6123   1.240   1.633   2.679
 1523SOL    MW4 6124   1.300   1.685   2.716
 1524SOL     OW 6125   1.305   1.971   2.640
 1524SOL    HW2 6126   1.292   1.878   2.656
 1524SOL    HW3 6127   1.303   1.980   2.545
 1524SOL    MW4 6128   1.303   1.960   2.630
 1525SOL     OW 6129   1.547   2.084   2.703
 1525SOL    HW2 6130   1.614   2.024   2.670
 1525SOL    HW3 6131   1.464   2.038   2.687
 1525SOL    MW4 6132   1.545   2.070   2.696
 1526SOL     OW 6133   1.545   2.347   2.628
 1526SOL    HW2 6134   1.611   2.398   2.674
 1526SOL    HW3 6135   1.558   2.257   2.660
 1526SOL    MW4 6136   1.555   2.342   2.638
 1527SOL     OW 6137   1.294   2.477   2.698
 1527SOL    HW2 6138   1.317   2.568   2.681
 1527SOL    HW3 6139   1.377   2.430   2.694
 1527SOL    MW4 6140   1.308   2.483   2.695
 1528SOL     OW 6141   1.333   2.733   2.614
 1528SOL    HW2 6142   1.398   2.794   2.651
 1528SOL    HW3 6143   1.352   2.730   2.521
 1528SOL    MW4 6144   1.344   2.741   2.607
 1529SOL     OW 6145   1.551   2.868   2.755
 1529SOL    HW2 6146   1.556   2.853   2.849
 1529SOL    HW3 6147   1.634   2.834   2.721
 1529SOL    MW4 6148   1.563   2.862   2.763
 1530SOL     OW 6149   1.583   3.091   2.568
 1530SOL    HW2 6150   1.647   3.155   2.602
 1530SOL    HW3 6151   1.568   3.032   2.642
 1530SOL    MW4 6152   1.590   3.092   2.583
 1531SOL     OW 6153   1.366   3.237   2.713
 1531SOL    HW2 6154   1.428   3.182   2.665
 1531SOL    HW3 6155   1.280   3.200   2.691
 1531SOL    MW4 6156   1.363   3.225   2.704
 1532SOL     OW 6157   1.367   3.507   2.620
 1532SOL    HW2 6158   1.366   3.417   2.654
 1532SOL    HW3 6159   1.282   3.543   2.643
 1532SOL    MW4 6160   1.356   3.500   2.627
 1533SOL     OW 6161   1.576   3.611   2.763
 1533SOL    HW2 6162   1.646   3.566   2.715
 1533SOL    HW3 6163   1.496   3.569   2.733
 1533SOL    MW4 6164   1.575   3.600   2.752
 1534SOL     OW 6165   1.580   3.823   2.569
 1534SOL    HW2 6166   1.507   3.844   2.627
 1534SOL    HW3 6167   1.595   3.730   2.583
 1534SOL    MW4 6168   1.572   3.814   2.579
 1535SOL     OW 6169   1.353   3.928   2.683
 1535SOL    HW2 6170   1.362   3.922   2.778
 1535SOL    HW3 6171   1.360   4.022   2.664
 1535SOL    MW4 6172   1.355   3.940   2.693
 1536SOL     OW 6173   1.339   4.193   2.598
 1536SOL    HW2 6174   1.265   4.251   2.616
 1536SOL    HW3 6175   1.358   4.207   2.505
 1536SOL    MW4 6176   1.332   4.203   2.588
 1537SOL     OW 6177   1.547   4.369   2.695
 1537SOL    HW2 6178   1.541   4.375   2.791
 1537SOL    HW3 6179   1.472   4.316   2.669
 1537SOL    MW4 6180   1.537   4.363   2.705
 1538SOL     OW 6181   1.981   4.644   2.613
 1538SOL    HW2 6182   2.060   4.685   2.648
 1538SOL    HW3 6183   2.000   4.628   2.521
 1538SOL    MW4 6184   1.994   4.647   2.606
 1539SOL     OW 6185   1.764   0.101   2.738
 1539SOL    HW2 6186   1.841   0.062   2.697
 1539SOL    HW3 6187   1.690   0.051   2.702
 1539SOL    MW4 6188   1.764   0.089   2.728
 1540SOL     OW 6189   1.774   0.358   2.618
 1540SOL    HW2 6190   1.856   0.394   2.652
 1540SOL    HW3 6191   1.759   0.280   2.672
 1540SOL    MW4 6192   1.783   0.352   2.630
 1541SOL     OW 6193   1.991   0.477   2.733
 1541SOL    HW2 6194   2.066   0.435   2.690
 1541SOL    HW3 6195   2.005   0.571   2.720
 1541SOL    MW4 6196   2.003   0.484   2.726
 1542SOL     OW 6197   2.051   0.745   2.640
 1542SOL    HW2 6198   1.977   0.802   2.661
 1542SOL    HW3 6199   2.035   0.718   2.549
 1542SOL    MW4 6200   2.039   0.749   2.631
 1543SOL     OW 6201   1.823   0.903   2.720
 1543SOL    HW2 6202   1.803   0.991   2.690
 1543SOL    HW3 6203   1.746   0.851   2.698
 1543SOL    MW4 6204   1.810   0.908   2.713
 1544SOL     OW 6205   1.791   1.179   2.628
 1544SOL    HW2 6206   1.874   1.226   2.622
 1544SOL    HW3 6207   1.768   1.160   2.537
 1544SOL    MW4 6208   1.799   1.183   2.615
 1545SOL     OW 6209   2.028   1.311   2.687
 1545SOL    HW2 6210   2.030   1.300   2.783
 1545SOL    HW3 6211   2.116   1.287   2.659
 1545SOL    MW4 6212   2.039   1.306   2.696
 1546SOL     OW 6213   2.004   1.575   2.627
 1546SOL    HW2 6214   1.914   1.603   2.646
 1546SOL    HW3 6215   2.004   1.481   2.641
 1546SOL    MW4 6216   1.992   1.566   2.631
 1547SOL     OW 6217   1.763   1.691   2.744
 1547SOL    HW2 6218   1.767   1.682   2.840
 1547SOL    HW3 6219   1.686   1.642   2.718
 1547SOL    MW4 6220   1.754   1.683   2.754
 1548SOL     OW 6221   1.765   1.941   2.629
 1548SOL    HW2 6222   1.855   1.967   2.647
 1548SOL    HW3 6223   1.754   1.857   2.673
 1548SOL    MW4 6224   1.775   1.933   2.637
 1549SOL     OW 6225   2.011   2.068   2.665
 1549SOL    HW2 6226   2.021   2.063   2.760
 1549SOL    HW3 6227   1.969   2.152   2.650
 1549SOL    MW4 6228   2.007   2.079   2.676
 1550SOL     OW 6229   1.983   2.338   2.621
 1550SOL    HW2 6230   2.064   2.367   2.662
 1550SOL    HW3 6231   1.992   2.362   2.529
 1550SOL    MW4 6232   1.995   2.345   2.614
 1551SOL     OW 6233   1.765   2.475   2.736
 1551SOL    HW2 6234   1.758   2.466   2.831
 1551SOL    HW3 6235   1.851   2.439   2.715
 1551SOL    MW4 6236   1.775   2.469   2.746
 1552SOL     OW 6237   1.747   2.717   2.610
 1552SOL    HW2 6238   1.769   2.631   2.646
 1552SOL    HW3 6239   1.734   2.701   2.516
 1552SOL    MW4 6240   1.748   2.703   2.602
 1553SOL     OW 6241   1.959   2.855   2.718
 1553SOL    HW2 6242   2.023   2.799   2.674
 1553SOL    HW3 6243   1.874   2.820   2.692
 1553SOL    MW4 6244   1.956   2.843   2.709
 1554SOL     OW 6245   1.970   3.122   2.584
 1554SOL    HW2 6246   1.987   3.043   2.635
 1554SOL    HW3 6247   1.991   3.097   2.494
 1554SOL    MW4 6248   1.975   3.108   2.579
 1555SOL     OW 6249   1.749   3.256   2.716
 1555SOL    HW2 6250   1.744   3.340   2.670
 1555SOL    HW3 6251   1.813   3.205   2.666
 1555SOL    MW4 6252   1.757   3.260   2.703
 1556SOL     OW 6253   1.749   3.505   2.602
 1556SOL    HW2 6254   1.827   3.536   2.646
 1556SOL    HW3 6255   1.772   3.504   2.509
 1556SOL    MW4 6256   1.762   3.509   2.595
 1557SOL     OW 6257   1.984   3.584   2.713
 1557SOL    HW2 6258   1.999   3.579   2.807
 1557SOL    HW3 6259   2.063   3.544   2.675
 1557SOL    MW4 6260   1.996   3.578   2.720
 1558SOL     OW 6261   2.004   3.856   2.640
 1558SOL    HW2 6262   1.934   3.910   2.675
 1558SOL    HW3 6263   1.982   3.767   2.666
 1558SOL    MW4 6264   1.992   3.852   2.648
 1559SOL     OW 6265   1.774   3.986   2.700
 1559SOL    HW2 6266   1.753   4.072   2.662
 1559SOL    HW3 6267   1.714   3.926   2.656
 1559SOL    MW4 6268   1.763   3.989   2.689
 1560SOL     OW 6269   1.776   4.247   2.623
 1560SOL    HW2 6270   1.703   4.300   2.654
 1560SOL    HW3 6271   1.772   4.255   2.528
 1560SOL    MW4 6272   1.766   4.255   2.615
 1561SOL     OW 6273   2.017   4.371   2.715
 1561SOL    HW2 6274   1.938   4.336   2.674
 1561SOL    HW3 6275   2.013   4.465   2.697
 1561SOL    MW4 6276   2.006   4.379   2.707
 1562SOL     OW 6277   2.418   4.644   2.602
 1562SOL    HW2 6278   2.511   4.661   2.614
 1562SOL    HW3 6279   2.407   4.633   2.508
 1562SOL    MW4 6280   2.429   4.645   2.591
 1563SOL     OW 6281   2.196   0.111   2.707
 1563SOL    HW2 6282   2.205   0.125   2.801
 1563SOL    HW3 6283   2.277   0.066   2.681
 1563SOL    MW4 6284   2.208   0.107   2.716
 1564SOL     OW 6285   2.209   0.373   2.622
 1564SOL    HW2 6286   2.200   0.281   2.647
 1564SOL    HW3 6287   2.214   0.372   2.526
 1564SOL    MW4 6288   2.209   0.361   2.612
 1565SOL     OW 6289   2.434   0.510   2.725
 1565SOL    HW2 6290   2.425   0.598   2.689
 1565SOL    HW3 6291   2.352   0.466   2.702
 1565SOL    MW4 6292   2.422   0.516   2.717
 1566SOL     OW 6293   2.450   0.755   2.609
 1566SOL    HW2 6294   2.381   0.815   2.638
 1566SOL    HW3 6295   2.438   0.748   2.515
 1566SOL    MW4 6296   2.439   0.762   2.601
 1567SOL     OW 6297   2.260   0.933   2.707
 1567SOL    HW2 6298   2.258   0.920   2.801
 1567SOL    HW3 6299   2.187   0.881   2.673
 1567SOL    MW4 6300   2.250   0.925   2.715
 1568SOL     OW 6301   2.274   1.213   2.639
 1568SOL    HW2 6302   2.273   1.130   2.686
 1568SOL    HW3 6303   2.285   1.189   2.547
 1568SOL    MW4 6304   2.276   1.199   2.633
 1569SOL     OW 6305   2.516   1.295   2.754
 1569SOL    HW2 6306   2.581   1.247   2.703
 1569SOL    HW3 6307   2.434   1.282   2.706
 1569SOL    MW4 6308   2.513   1.287   2.741
 1570SOL     OW 6309   2.488   1.555   2.639
 1570SOL    HW2 6310   2.404   1.587   2.673
 1570SOL    HW3 6311   2.508   1.479   2.694
 1570SOL    MW4 6312   2.479   1.549   2.651
 1571SOL     OW 6313   2.243   1.683   2.712
 1571SOL    HW2 6314   2.233   1.773   2.682
 1571SOL    HW3 6315   2.164   1.639   2.680
 1571SOL    MW4 6316   2.231   1.689   2.704
 1572SOL     OW 6317   2.234   1.935   2.586
 1572SOL    HW2 6318   2.167   2.002   2.599
 1572SOL    HW3 6319   2.232   1.918   2.492
 1572SOL    MW4 6320   2.225   1.941   2.575
 1573SOL     OW 6321   2.441   2.078   2.717
 1573SOL    HW2 6322   2.446   2.167   2.682
 1573SOL    HW3 6323   2.365   2.039   2.672
 1573SOL    MW4 6324   2.431   2.084   2.706
 1574SOL     OW 6325   2.449   2.335   2.608
 1574SOL    HW2 6326   2.526   2.375   2.648
 1574SOL    HW3 6327   2.468   2.335   2.514
 1574SOL    MW4 6328   2.462   2.340   2.601
 1575SOL     OW 6329   2.221   2.443   2.729
 1575SOL    HW2 6330   2.233   2.440   2.824
 1575SOL    HW3 6331   2.296   2.397   2.694
 1575SOL    MW4 6332   2.232   2.437   2.737
 1576SOL     OW 6333   2.184   2.719   2.624
 1576SOL    HW2 6334   2.262   2.757   2.665
 1576SOL    HW3 6335   2.187   2.627   2.648
 1576SOL    MW4 6336   2.195   2.712   2.633
 1577SOL     OW 6337   2.414   2.820   2.739
 1577SOL    HW2 6338   2.482   2.771   2.692
 1577SOL    HW3 6339   2.442   2.911   2.732
 1577SOL    MW4 6340   2.427   2.826   2.732
 1578SOL     OW 6341   2.483   3.081   2.668
 1578SOL    HW2 6342   2.405   3.132   2.691
 1578SOL    HW3 6343   2.471   3.060   2.575
 1578SOL    MW4 6344   2.471   3.085   2.659
 1579SOL     OW 6345   2.228   3.208   2.701
 1579SOL    HW2 6346   2.234   3.225   2.795
 1579SOL    HW3 6347   2.136   3.183   2.687
 1579SOL    MW4 6348   2.216   3.207   2.711
 1580SOL     OW 6349   2.231   3.482   2.614
 1580SOL    HW2 6350   2.314   3.518   2.646
 1580SOL    HW3 6351   2.231   3.392   2.645
 1580SOL    MW4 6352   2.242   3.475   2.622
 1581SOL     OW 6353   2.463   3.612   2.713
 1581SOL    HW2 6354   2.474   3.628   2.807
 1581SOL    HW3 6355   2.470   3.698   2.672
 1581SOL    MW4 6356   2.465   3.626   2.720
 1582SOL     OW 6357   2.448   3.841   2.566
 1582SOL    HW2 6358   2.525   3.869   2.615
 1582SOL    HW3 6359   2.375   3.885   2.610
 1582SOL    MW4 6360   2.448   3.851   2.578
 1583SOL     OW 6361   2.252   3.982   2.703
 1583SOL    HW2 6362   2.257   3.995   2.798
 1583SOL    HW3 6363   2.168   3.939   2.689
 1583SOL    MW4 6364   2.242   3.978   2.714
 1584SOL     OW 6365   2.259   4.238   2.643
 1584SOL    HW2 6366   2.266   4.143   2.655
 1584SOL    HW3 6367   2.167   4.258   2.659
 1584SOL    MW4 6368   2.248   4.228   2.647
 1585SOL     OW 6369   2.493   4.390   2.697
 1585SOL    HW2 6370   2.414   4.337   2.685
 1585SOL    HW3 6371   2.470   4.475   2.660
 1585SOL    MW4 6372   2.480   4.394   2.690
 1586SOL     OW 6373   2.915   4.640   2.563
 1586SOL    HW2 6374   2.998   4.671   2.598
 1586SOL    HW3 6375   2.919   4.660   2.469
 1586SOL    MW4 6376   2.926   4.647   2.555
 1587SOL     OW 6377   2.665   0.080   2.672
 1587SOL    HW2 6378   2.666   0.083   2.767
 1587SOL    HW3 6379   2.753   0.050   2.648
 1587SOL    MW4 6380   2.677   0.077   2.681
 1588SOL     OW 6381   2.653   0.374   2.597
 1588SOL    HW2 6382   2.644   0.283   2.624
 1588SOL    HW3 6383   2.577   0.418   2.634
 1588SOL    MW4 6384   2.642   0.368   2.605
 1589SOL     OW 6385   2.915   0.468   2.675
 1589SOL    HW2 6386   2.906   0.556   2.637
 1589SOL    HW3 6387   2.829   0.428   2.662
 1589SOL    MW4 6388   2.902   0.475   2.668
 1590SOL     OW 6389   2.904   0.728   2.590
 1590SOL    HW2 6390   2.986   0.766   2.622
 1590SOL    HW3 6391   2.836   0.784   2.627
 1590SOL    MW4 6392   2.906   0.741   2.599
 1591SOL     OW 6393   2.704   0.870   2.697
 1591SOL    HW2 6394   2.685   0.897   2.786
 1591SOL    HW3 6395   2.620   0.837   2.664
 1591SOL    MW4 6396   2.690   0.869   2.704
 1592SOL     OW 6397   2.711   1.145   2.597
 1592SOL    HW2 6398   2.786   1.175   2.647
 1592SOL    HW3 6399   2.711   1.050   2.608
 1592SOL    MW4 6400   2.721   1.136   2.605
 1593SOL     OW 6401   2.922   1.292   2.728
 1593SOL    HW2 6402   2.900   1.270   2.819
 1593SOL    HW3 6403   3.001   1.241   2.710
 1593SOL    MW4 6404   2.930   1.283   2.738
 1594SOL     OW 6405   2.918   1.553   2.638
 1594SOL    HW2 6406   2.838   1.590   2.676
 1594SOL    HW3 6407   2.931   1.471   2.685
 1594SOL    MW4 6408   2.909   1.547   2.649
 1595SOL     OW 6409   2.700   1.696   2.711
 1595SOL    HW2 6410   2.705   1.703   2.806
 1595SOL    HW3 6411   2.616   1.653   2.695
 1595SOL    MW4 6412   2.690   1.691   2.721
 1596SOL     OW 6413   2.684   1.954   2.628
 1596SOL    HW2 6414   2.689   1.863   2.658
 1596SOL    HW3 6415   2.598   1.984   2.658
 1596SOL    MW4 6416   2.673   1.946   2.636
 1597SOL     OW 6417   2.917   2.062   2.764
 1597SOL    HW2 6418   2.903   2.154   2.739
 1597SOL    HW3 6419   2.849   2.014   2.718
 1597SOL    MW4 6420   2.906   2.068   2.755
 1598SOL     OW 6421   2.896   2.302   2.593
 1598SOL    HW2 6422   2.976   2.339   2.629
 1598SOL    HW3 6423   2.825   2.345   2.640
 1598SOL    MW4 6424   2.897   2.312   2.604
 1599SOL     OW 6425   2.685   2.420   2.730
 1599SOL    HW2 6426   2.675   2.436   2.824
 1599SOL    HW3 6427   2.673   2.505   2.689
 1599SOL    MW4 6428   2.682   2.433   2.737
 1600SOL     OW 6429   2.628   2.676   2.616
 1600SOL    HW2 6430   2.710   2.719   2.638
 1600SOL    HW3 6431   2.613   2.697   2.524
 1600SOL    MW4 6432   2.637   2.684   2.607
 1601SOL     OW 6433   2.862   2.814   2.733
 1601SOL    HW2 6434   2.878   2.834   2.825
 1601SOL    HW3 6435   2.892   2.891   2.685
 1601SOL    MW4 6436   2.868   2.827   2.739
 1602SOL     OW 6437   2.935   3.072   2.621
 1602SOL    HW2 6438   2.867   3.133   2.651
 1602SOL    HW3 6439   2.928   3.075   2.525
 1602SOL    MW4 6440   2.925   3.081   2.612
 1603SOL     OW 6441   2.713   3.242   2.733
 1603SOL    HW2 6442   2.693   3.322   2.686
 1603SOL    HW3 6443   2.636   3.187   2.721
 1603SOL    MW4 6444   2.700   3.245   2.725
 1604SOL     OW 6445   2.690   3.504   2.614
 1604SOL    HW2 6446   2.608   3.544   2.643
 1604SOL    HW3 6447   2.680   3.493   2.520
 1604SOL    MW4 6448   2.678   3.507   2.606
 1605SOL     OW 6449   2.921   3.618   2.690
 1605SOL    HW2 6450   2.917   3.610   2.785
 1605SOL    HW3 6451   2.843   3.573   2.659
 1605SOL    MW4 6452   2.910   3.611   2.699
 1606SOL     OW 6453   2.926   3.863   2.608
 1606SOL    HW2 6454   2.990   3.915   2.657
 1606SOL    HW3 6455   2.942   3.773   2.636
 1606SOL    MW4 6456   2.936   3.858   2.618
 1607SOL     OW 6457   2.661   3.947   2.689
 1607SOL    HW2 6458   2.665   4.037   2.658
 1607SOL    HW3 6459   2.751   3.916   2.684
 1607SOL    MW4 6460   2.673   3.955   2.684
 1608SOL     OW 6461   2.707   4.222   2.626
 1608SOL    HW2 6462   2.777   4.287   2.632
 1608SOL    HW3 6463   2.630   4.265   2.661
 1608SOL    MW4 6464   2.706   4.236   2.631
 1609SOL     OW 6465   2.910   4.384   2.701
 1609SOL    HW2 6466   2.903   4.398   2.795
 1609SOL    HW3 6467   2.900   4.471   2.663
 1609SOL    MW4 6468   2.908   4.397   2.708
 1610SOL     OW 6469   3.374   4.663   2.592
 1610SOL    HW2 6470   3.376   4.575   2.630
 1610SOL    HW3 6471   3.291   4.701   2.622
 1610SOL    MW4 6472   3.363   4.657   2.601
 1611SOL     OW 6473   3.129   0.101   2.688
 1611SOL    HW2 6474   3.142   0.100   2.783
 1611SOL    HW3 6475   3.141   0.193   2.663
 1611SOL    MW4 6476   3.132   0.113   2.697
 1612SOL     OW 6477   3.165   0.356   2.600
 1612SOL    HW2 6478   3.089   0.410   2.618
 1612SOL    HW3 6479   3.165   0.345   2.505
 1612SOL    MW4 6480   3.155   0.362   2.590
 1613SOL     OW 6481   3.346   0.506   2.750
 1613SOL    HW2 6482   3.342   0.592   2.708
 1613SOL    HW3 6483   3.281   0.454   2.703
 1613SOL    MW4 6484   3.337   0.511   2.738
 1614SOL     OW 6485   3.375   0.751   2.618
 1614SOL    HW2 6486   3.435   0.819   2.649
 1614SOL    HW3 6487   3.372   0.764   2.523
 1614SOL    MW4 6488   3.383   0.762   2.609
 1615SOL     OW 6489   3.118   0.868   2.682
 1615SOL    HW2 6490   3.128   0.881   2.776
 1615SOL    HW3 6491   3.200   0.828   2.654
 1615SOL    MW4 6492   3.130   0.864   2.690
 1616SOL     OW 6493   3.124   1.153   2.614
 1616SOL    HW2 6494   3.153   1.070   2.652
 1616SOL    HW3 6495   3.134   1.141   2.520
 1616SOL    MW4 6496   3.129   1.140   2.607
 1617SOL     OW 6497   3.361   1.307   2.709
 1617SOL    HW2 6498   3.374   1.292   2.803
 1617SOL    HW3 6499   3.287   1.251   2.686
 1617SOL    MW4 6500   3.353   1.298   2.718
 1618SOL     OW 6501   3.360   1.573   2.652
 1618SOL    HW2 6502   3.280   1.617   2.679
 1618SOL    HW3 6503   3.347   1.482   2.679
 1618SOL    MW4 6504   3.348   1.567   2.659
 1619SOL     OW 6505   3.136   1.687   2.757
 1619SOL    HW2 6506   3.133   1.779   2.730
 1619SOL    HW3 6507   3.056   1.649   2.721
 1619SOL    MW4 6508   3.125   1.695   2.749
 1620SOL     OW 6509   3.129   1.935   2.641
 1620SOL    HW2 6510   3.205   1.983   2.674
 1620SOL    HW3 6511   3.055   1.975   2.687
 1620SOL    MW4 6512   3.129   1.947   2.651
 1621SOL     OW 6513   3.365   2.059   2.715
 1621SOL    HW2 6514   3.365   2.058   2.811
 1621SOL    HW3 6515   3.376   2.152   2.693
 1621SOL    MW4 6516   3.366   2.071   2.725
 1622SOL     OW 6517   3.380   2.331   2.646
 1622SOL    HW2 6518   3.462   2.376   2.665
 1622SOL    HW3 6519   3.361   2.353   2.555
 1622SOL    MW4 6520   3.389   2.340   2.636
 1623SOL     OW 6521   3.128   2.398   2.735
 1623SOL    HW2 6522   3.128   2.490   2.708
 1623SOL    HW3 6523   3.216   2.366   2.714
 1623SOL    MW4 6524   3.140   2.406   2.729
 1624SOL     OW 6525   3.084   2.659   2.639
 1624SOL    HW2 6526   3.155   2.712   2.676
 1624SOL    HW3 6527   3.004   2.700   2.671
 1624SOL    MW4 6528   3.083   2.672   2.648
 1625SOL     OW 6529   3.313   2.806   2.685
 1625SOL    HW2 6530   3.319   2.816   2.780
 1625SOL    HW3 6531   3.402   2.780   2.658
 1625SOL    MW4 6532   3.326   2.804   2.694
 1626SOL     OW 6533   3.371   3.090   2.599
 1626SOL    HW2 6534   3.346   3.003   2.631
 1626SOL    HW3 6535   3.371   3.081   2.504
 1626SOL    MW4 6536   3.368   3.077   2.591
 1627SOL     OW 6537   3.148   3.200   2.739
 1627SOL    HW2 6538   3.225   3.184   2.684
 1627SOL    HW3 6539   3.079   3.149   2.698
 1627SOL    MW4 6540   3.149   3.191   2.726
 1628SOL     OW 6541   3.118   3.459   2.608
 1628SOL    HW2 6542   3.100   3.387   2.668
 1628SOL    HW3 6543   3.054   3.527   2.631
 1628SOL    MW4 6544   3.107   3.459   2.619
 1629SOL     OW 6545   3.350   3.614   2.706
 1629SOL    HW2 6546   3.349   3.606   2.802
 1629SOL    HW3 6547   3.270   3.569   2.678
 1629SOL    MW4 6548   3.339   3.607   2.715
 1630SOL     OW 6549   3.330   3.914   2.598
 1630SOL    HW2 6550   3.337   3.825   2.632
 1630SOL    HW3 6551   3.328   3.904   2.503
 1630SOL    MW4 6552   3.331   3.901   2.590
 1631SOL     OW 6553   3.116   4.006   2.724
 1631SOL    HW2 6554   3.120   4.099   2.705
 1631SOL    HW3 6555   3.185   3.967   2.671
 1631SOL    MW4 6556   3.125   4.013   2.715
 1632SOL     OW 6557   3.139   4.255   2.633
 1632SOL    HW2 6558   3.060   4.305   2.654
 1632SOL    HW3 6559   3.137   4.247   2.537
 1632SOL    MW4 6560   3.128   4.261   2.623
 1633SOL     OW 6561   3.358   4.412   2.701
 1633SOL    HW2 6562   3.364   4.408   2.797
 1633SOL    HW3 6563   3.281   4.359   2.680
 1633SOL    MW4 6564   3.349   4.405   2.711
 1634SOL     OW 6565   3.814   4.599   2.619
 1634SOL    HW2 6566   3.788   4.516   2.658
 1634SOL    HW3 6567   3.737   4.656   2.631
 1634SOL    MW4 6568   3.800   4.596   2.626
 1635SOL     OW 6569   3.615   0.109   2.681
 1635SOL    HW2 6570   3.621   0.202   2.656
 1635SOL    HW3 6571   3.527   0.083   2.653
 1635SOL    MW4 6572   3.604   0.118   2.674
 1636SOL     OW 6573   3.600   0.383   2.639
 1636SOL    HW2 6574   3.676   0.417   2.686
 1636SOL    HW3 6575   3.525   0.424   2.682
 1636SOL    MW4 6576   3.600   0.393   2.651
 1637SOL     OW 6577   3.830   0.513   2.730
 1637SOL    HW2 6578   3.816   0.487   2.821
 1637SOL    HW3 6579   3.897   0.453   2.698
 1637SOL    MW4 6580   3.837   0.502   2.738
 1638SOL     OW 6581   3.808   0.763   2.614
 1638SOL    HW2 6582   3.739   0.817   2.651
 1638SOL    HW3 6583   3.806   0.683   2.667
 1638SOL    MW4 6584   3.799   0.759   2.626
 1639SOL     OW 6585   3.593   0.919   2.730
 1639SOL    HW2 6586   3.579   0.911   2.824
 1639SOL    HW3 6587   3.591   1.014   2.713
 1639SOL    MW4 6588   3.591   0.931   2.740
 1640SOL     OW 6589   3.580   1.173   2.621
 1640SOL    HW2 6590   3.658   1.214   2.658
 1640SOL    HW3 6591   3.508   1.232   2.645
 1640SOL    MW4 6592   3.580   1.186   2.629
 1641SOL     OW 6593   3.796   1.303   2.752
 1641SOL    HW2 6594   3.884   1.273   2.730
 1641SOL    HW3 6595   3.796   1.396   2.731
 1641SOL    MW4 6596   3.807   1.311   2.747
 1642SOL     OW 6597   3.799   1.570   2.658
 1642SOL    HW2 6598   3.874   1.628   2.670
 1642SOL    HW3 6599   3.726   1.618   2.697
 1642SOL    MW4 6600   3.799   1.584   2.665
 1643SOL     OW 6601   3.575   1.700   2.754
 1643SOL    HW2 6602   3.578   1.783   2.707
 1643SOL    HW3 6603   3.501   1.653   2.716
 1643SOL    MW4 6604   3.565   1.705   2.743
 1644SOL     OW 6605   3.593   1.946   2.625
 1644SOL    HW2 6606   3.519   2.002   2.648
 1644SOL    HW3 6607   3.606   1.960   2.531
 1644SOL    MW4 6608   3.585   1.955   2.616
 1645SOL     OW 6609   3.818   2.038   2.752
 1645SOL    HW2 6610   3.886   2.011   2.690
 1645SOL    HW3 6611   3.736   2.009   2.711
 1645SOL    MW4 6612   3.816   2.031   2.738
 1646SOL     OW 6613   3.778   2.281   2.601
 1646SOL    HW2 6614   3.768   2.188   2.621
 1646SOL    HW3 6615   3.820   2.283   2.514
 1646SOL    MW4 6616   3.782   2.269   2.592
 1647SOL     OW 6617   3.626   2.483   2.698
 1647SOL    HW2 6618   3.621   2.454   2.789
 1647SOL    HW3 6619   3.688   2.423   2.656
 1647SOL    MW4 6620   3.633   2.471   2.704
 1648SOL     OW 6621   3.559   2.731   2.604
 1648SOL    HW2 6622   3.592   2.651   2.643
 1648SOL    HW3 6623   3.564   2.716   2.510
 1648SOL    MW4 6624   3.564   2.719   2.597
 1649SOL     OW 6625   3.782   2.888   2.707
 1649SOL    HW2 6626   3.863   2.844   2.681
 1649SOL    HW3 6627   3.712   2.837   2.667
 1649SOL    MW4 6628   3.784   2.876   2.698
 1650SOL     OW 6629   3.769   3.123   2.583
 1650SOL    HW2 6630   3.696   3.173   2.621
 1650SOL    HW3 6631   3.758   3.034   2.618
 1650SOL    MW4 6632   3.758   3.118   2.592
 1651SOL     OW 6633   3.574   3.223   2.744
 1651SOL    HW2 6634   3.574   3.314   2.715
 1651SOL    HW3 6635   3.514   3.179   2.683
 1651SOL    MW4 6636   3.566   3.229   2.732
 1652SOL     OW 6637   3.598   3.473   2.630
 1652SOL    HW2 6638   3.674   3.522   2.662
 1652SOL    HW3 6639   3.523   3.520   2.665
 1652SOL    MW4 6640   3.598   3.486   2.639
 1653SOL     OW 6641   3.819   3.614   2.772
 1653SOL    HW2 6642   3.887   3.563   2.728
 1653SOL    HW3 6643   3.818   3.698   2.725
 1653SOL    MW4 6644   3.828   3.618   2.760
 1654SOL     OW 6645   3.798   3.847   2.614
 1654SOL    HW2 6646   3.879   3.892   2.639
 1654SOL    HW3 6647   3.729   3.905   2.645
 1654SOL    MW4 6648   3.800   3.861   2.621
 1655SOL     OW 6649   3.583   3.973   2.719
 1655SOL    HW2 6650   3.586   4.067   2.698
 1655SOL    HW3 6651   3.506   3.941   2.673
 1655SOL    MW4 6652   3.573   3.981   2.710
 1656SOL     OW 6653   3.558   4.226   2.608
 1656SOL    HW2 6654   3.481   4.266   2.648
 1656SOL    HW3 6655   3.542   4.232   2.514
 1656SOL    MW4 6656   3.546   4.232   2.601
 1657SOL     OW 6657   3.779   4.359   2.730
 1657SOL    HW2 6658   3.855   4.326   2.682
 1657SOL    HW3 6659   3.704   4.314   2.691
 1657SOL    MW4 6660   3.779   4.349   2.719
 1658SOL     OW 6661   4.245   4.599   2.646
 1658SOL    HW2 6662   4.165   4.650   2.657
 1658SOL    HW3 6663   4.316   4.661   2.665
 1658SOL    MW4 6664   4.244   4.614   2.650
 1659SOL     OW 6665   4.022   0.090   2.710
 1659SOL    HW2 6666   4.038   0.081   2.804
 1659SOL    HW3 6667   3.961   0.019   2.689
 1659SOL    MW4 6668   4.016   0.080   2.719
 1660SOL     OW 6669   4.053   0.366   2.618
 1660SOL    HW2 6670   4.034   0.279   2.651
 1660SOL    HW3 6671   4.060   0.355   2.523
 1660SOL    MW4 6672   4.052   0.353   2.610
 1661SOL     OW 6673   4.259   0.487   2.742
 1661SOL    HW2 6674   4.183   0.439   2.710
 1661SOL    HW3 6675   4.334   0.445   2.699
 1661SOL    MW4 6676   4.259   0.475   2.732
 1662SOL     OW 6677   4.245   0.736   2.660
 1662SOL    HW2 6678   4.260   0.647   2.692
 1662SOL    HW3 6679   4.256   0.730   2.565
 1662SOL    MW4 6680   4.249   0.724   2.652
 1663SOL     OW 6681   4.030   0.905   2.670
 1663SOL    HW2 6682   4.106   0.846   2.663
 1663SOL    HW3 6683   3.954   0.848   2.656
 1663SOL    MW4 6684   4.030   0.889   2.667
 1664SOL     OW 6685   4.051   1.190   2.650
 1664SOL    HW2 6686   4.137   1.214   2.684
 1664SOL    HW3 6687   4.047   1.095   2.662
 1664SOL    MW4 6688   4.062   1.180   2.656
 1665SOL     OW 6689   4.278   1.252   2.752
 1665SOL    HW2 6690   4.273   1.336   2.706
 1665SOL    HW3 6691   4.351   1.206   2.709
 1665SOL    MW4 6692   4.287   1.257   2.740
 1666SOL     OW 6693   4.261   1.498   2.624
 1666SOL    HW2 6694   4.331   1.552   2.661
 1666SOL    HW3 6695   4.272   1.505   2.529
 1666SOL    MW4 6696   4.272   1.506   2.616
 1667SOL     OW 6697   4.059   1.662   2.712
 1667SOL    HW2 6698   4.061   1.634   2.803
 1667SOL    HW3 6699   4.113   1.598   2.666
 1667SOL    MW4 6700   4.066   1.650   2.718
 1668SOL     OW 6701   4.020   1.919   2.609
 1668SOL    HW2 6702   4.093   1.971   2.642
 1668SOL    HW3 6703   4.034   1.832   2.648
 1668SOL    MW4 6704   4.032   1.914   2.619
 1669SOL     OW 6705   4.214   2.071   2.731
 1669SOL    HW2 6706   4.211   2.160   2.696
 1669SOL    HW3 6707   4.290   2.032   2.690
 1669SOL    MW4 6708   4.223   2.078   2.721
 1670SOL     OW 6709   4.230   2.326   2.637
 1670SOL    HW2 6710   4.150   2.376   2.655
 1670SOL    HW3 6711   4.232   2.319   2.542
 1670SOL    MW4 6712   4.219   2.332   2.627
 1671SOL     OW 6713   3.982   2.467   2.693
 1671SOL    HW2 6714   3.990   2.457   2.788
 1671SOL    HW3 6715   3.911   2.409   2.669
 1671SOL    MW4 6716   3.974   2.458   2.703
 1672SOL     OW 6717   3.997   2.737   2.639
 1672SOL    HW2 6718   4.082   2.776   2.657
 1672SOL    HW3 6719   4.004   2.647   2.670
 1672SOL    MW4 6720   4.009   2.730   2.645
 1673SOL     OW 6721   4.253   2.840   2.737
 1673SOL    HW2 6722   4.253   2.846   2.832
 1673SOL    HW3 6723   4.230   2.928   2.707
 1673SOL    MW4 6724   4.250   2.852   2.745
 1674SOL     OW 6725   4.260   3.078   2.621
 1674SOL    HW2 6726   4.171   3.109   2.638
 1674SOL    HW3 6727   4.268   3.078   2.526
 1674SOL    MW4 6728   4.249   3.082   2.611
 1675SOL     OW 6729   4.017   3.186   2.712
 1675SOL    HW2 6730   4.032   3.271   2.669
 1675SOL    HW3 6731   3.936   3.154   2.673
 1675SOL    MW4 6732   4.009   3.193   2.701
 1676SOL     OW 6733   4.036   3.461   2.635
 1676SOL    HW2 6734   4.107   3.514   2.670
 1676SOL    HW3 6735   4.044   3.469   2.540
 1676SOL    MW4 6736   4.046   3.469   2.627
 1677SOL     OW 6737   4.246   3.617   2.720
 1677SOL    HW2 6738   4.250   3.602   2.815
 1677SOL    HW3 6739   4.314   3.560   2.684
 1677SOL    MW4 6740   4.255   3.607   2.728
 1678SOL     OW 6741   4.260   3.882   2.604
 1678SOL    HW2 6742   4.251   3.802   2.655
 1678SOL    HW3 6743   4.339   3.923   2.639
 1678SOL    MW4 6744   4.270   3.877   2.615
 1679SOL     OW 6745   4.027   3.982   2.679
 1679SOL    HW2 6746   4.032   3.985   2.775
 1679SOL    HW3 6747   4.116   3.958   2.651
 1679SOL    MW4 6748   4.040   3.979   2.688
 1680SOL     OW 6749   4.013   4.246   2.609
 1680SOL    HW2 6750   4.012   4.159   2.649
 1680SOL    HW3 6751   4.012   4.229   2.515
 1680SOL    MW4 6752   4.012   4.233   2.602
 1681SOL     OW 6753   4.261   4.330   2.703
 1681SOL    HW2 6754   4.170   4.309   2.682
 1681SOL    HW3 6755   4.267   4.425   2.692
 1681SOL    MW4 6756   4.250   4.340   2.699
 1682SOL     OW 6757   0.226   4.661   3.082
 1682SOL    HW2 6758   0.229   4.677   3.176
 1682SOL    HW3 6759   0.144   4.701   3.053
 1682SOL    MW4 6760   0.216   4.669   3.090
 1683SOL     OW 6761   4.491   0.093   2.959
 1683SOL    HW2 6762   4.423   0.039   3.000
 1683SOL    HW3 6763   4.484   0.177   3.003
 1683SOL    MW4 6764   4.481   0.097   2.970
 1684SOL     OW 6765   0.014   0.348   3.104
 1684SOL    HW2 6766   0.003   0.329   3.197
 1684SOL    HW3 6767  -0.070   0.387   3.077
 1684SOL    MW4 6768   0.002   0.351   3.112
 1685SOL     OW 6769   0.223   0.506   2.996
 1685SOL    HW2 6770   0.301   0.461   3.028
 1685SOL    HW3 6771   0.150   0.450   3.026
 1685SOL    MW4 6772   0.224   0.492   3.005
 1686SOL     OW 6773   0.201   0.747   3.112
 1686SOL    HW2 6774   0.197   0.744   3.208
 1686SOL    HW3 6775   0.203   0.655   3.085
 1686SOL    MW4 6776   0.201   0.734   3.121
 1687SOL     OW 6777   4.456   0.838   3.017
 1687SOL    HW2 6778   4.539   0.797   3.045
 1687SOL    HW3 6779   4.468   0.852   2.923
 1687SOL    MW4 6780   4.469   0.834   3.008
 1688SOL     OW 6781   0.021   1.102   3.100
 1688SOL    HW2 6782  -0.055   1.155   3.076
 1688SOL    HW3 6783  -0.001   1.014   3.069
 1688SOL    MW4 6784   0.009   1.098   3.093
 1689SOL     OW 6785   0.208   1.276   2.973
 1689SOL    HW2 6786   0.139   1.219   3.008
 1689SOL    HW3 6787   0.196   1.273   2.878
 1689SOL    MW4 6788   0.197   1.268   2.965
 1690SOL     OW 6789   0.216   1.525   3.107
 1690SOL    HW2 6790   0.138   1.567   3.072
 1690SOL    HW3 6791   0.217   1.438   3.066
 1690SOL    MW4 6792   0.206   1.519   3.097
 1691SOL     OW 6793   0.017   1.649   3.011
 1691SOL    HW2 6794  -0.048   1.596   3.058
 1691SOL    HW3 6795   0.012   1.735   3.052
 1691SOL    MW4 6796   0.008   1.653   3.023
 1692SOL     OW 6797   4.441   1.895   3.125
 1692SOL    HW2 6798   4.363   1.929   3.081
 1692SOL    HW3 6799   4.511   1.955   3.102
 1692SOL    MW4 6800   4.440   1.907   3.116
 1693SOL     OW 6801   0.158   2.076   3.004
 1693SOL    HW2 6802   0.187   2.167   3.017
 1693SOL    HW3 6803   0.157   2.065   2.909
 1693SOL    MW4 6804   0.162   2.087   2.993
 1694SOL     OW 6805   0.193   2.335   3.129
 1694SOL    HW2 6806   0.207   2.348   3.223
 1694SOL    HW3 6807   0.278   2.354   3.089
 1694SOL    MW4 6808   0.206   2.339   3.136
 1695SOL     OW 6809   4.469   2.437   2.992
 1695SOL    HW2 6810   4.458   2.525   3.029
 1695SOL    HW3 6811   4.546   2.401   3.037
 1695SOL    MW4 6812   4.478   2.444   3.003
 1696SOL     OW 6813   4.481   2.704   3.092
 1696SOL    HW2 6814   4.488   2.698   3.188
 1696SOL    HW3 6815   4.561   2.751   3.065
 1696SOL    MW4 6816   4.493   2.710   3.101
 1697SOL     OW 6817   0.213   2.849   2.999
 1697SOL    HW2 6818   0.275   2.785   3.034
 1697SOL    HW3 6819   0.222   2.842   2.904
 1697SOL    MW4 6820   0.222   2.839   2.991
 1698SOL     OW 6821   0.249   3.091   3.117
 1698SOL    HW2 6822   0.175   3.143   3.085
 1698SOL    HW3 6823   0.229   3.001   3.091
 1698SOL    MW4 6824   0.237   3.086   3.109
 1699SOL     OW 6825   0.021   3.224   3.026
 1699SOL    HW2 6826  -0.062   3.181   3.048
 1699SOL    HW3 6827   0.022   3.227   2.930
 1699SOL    MW4 6828   0.010   3.218   3.016
 1700SOL     OW 6829   4.483   3.489   3.111
 1700SOL    HW2 6830   4.396   3.509   3.077
 1700SOL    HW3 6831   4.494   3.395   3.097
 1700SOL    MW4 6832   4.473   3.479   3.105
 1701SOL     OW 6833   0.200   3.627   3.008
 1701SOL    HW2 6834   0.189   3.718   3.035
 1701SOL    HW3 6835   0.126   3.581   3.046
 1701SOL    MW4 6836   0.189   3.633   3.016
 1702SOL     OW 6837   0.236   3.895   3.088
 1702SOL    HW2 6838   0.241   3.886   3.183
 1702SOL    HW3 6839   0.311   3.950   3.065
 1702SOL    MW4 6840   0.246   3.901   3.098
 1703SOL     OW 6841   0.003   3.971   2.990
 1703SOL    HW2 6842   0.093   3.951   3.016
 1703SOL    HW3 6843   0.008   3.987   2.895
 1703SOL    MW4 6844   0.015   3.971   2.980
 1704SOL     OW 6845   0.048   4.222   3.098
 1704SOL    HW2 6846   0.010   4.237   3.185
 1704SOL    HW3 6847   0.033   4.129   3.081
 1704SOL    MW4 6848   0.041   4.212   3.107
 1705SOL     OW 6849   0.260   4.363   2.992
 1705SOL    HW2 6850   0.196   4.310   3.040
 1705SOL    HW3 6851   0.240   4.454   3.017
 1705SOL    MW4 6852   0.249   4.368   3.002
 1706SOL     OW 6853   0.706   0.003   3.082
 1706SOL    HW2 6854   0.713  -0.091   3.063
 1706SOL    HW3 6855   0.622   0.029   3.045
 1706SOL    MW4 6856   0.696  -0.006   3.075
 1707SOL     OW 6857   0.459   0.120   2.966
 1707SOL    HW2 6858   0.455   0.211   2.994
 1707SOL    HW3 6859   0.374   0.083   2.994
 1707SOL    MW4 6860   0.447   0.127   2.974
 1708SOL     OW 6861   0.442   0.361   3.081
 1708SOL    HW2 6862   0.425   0.358   3.176
 1708SOL    HW3 6863   0.517   0.418   3.072
 1708SOL    MW4 6864   0.449   0.368   3.093
 1709SOL     OW 6865   0.655   0.510   3.023
 1709SOL    HW2 6866   0.745   0.482   3.040
 1709SOL    HW3 6867   0.651   0.601   3.052
 1709SOL    MW4 6868   0.666   0.518   3.029
 1710SOL     OW 6869   0.659   0.769   3.121
 1710SOL    HW2 6870   0.673   0.761   3.215
 1710SOL    HW3 6871   0.572   0.808   3.114
 1710SOL    MW4 6872   0.649   0.773   3.132
 1711SOL     OW 6873   0.424   0.885   3.047
 1711SOL    HW2 6874   0.345   0.841   3.080
 1711SOL    HW3 6875   0.420   0.872   2.952
 1711SOL    MW4 6876   0.413   0.878   3.039
 1712SOL     OW 6877   0.441   1.155   3.095
 1712SOL    HW2 6878   0.431   1.060   3.083
 1712SOL    HW3 6879   0.361   1.192   3.061
 1712SOL    MW4 6880   0.429   1.147   3.089
 1713SOL     OW 6881   0.677   1.247   3.003
 1713SOL    HW2 6882   0.740   1.188   3.046
 1713SOL    HW3 6883   0.593   1.224   3.043
 1713SOL    MW4 6884   0.674   1.236   3.014
 1714SOL     OW 6885   0.636   1.516   3.104
 1714SOL    HW2 6886   0.662   1.540   3.193
 1714SOL    HW3 6887   0.663   1.425   3.094
 1714SOL    MW4 6888   0.643   1.507   3.114
 1715SOL     OW 6889   0.435   1.647   2.974
 1715SOL    HW2 6890   0.506   1.600   3.018
 1715SOL    HW3 6891   0.355   1.605   3.008
 1715SOL    MW4 6892   0.434   1.635   2.985
 1716SOL     OW 6893   0.390   1.943   3.054
 1716SOL    HW2 6894   0.372   1.850   3.049
 1716SOL    HW3 6895   0.307   1.986   3.034
 1716SOL    MW4 6896   0.377   1.937   3.051
 1717SOL     OW 6897   0.619   2.085   2.992
 1717SOL    HW2 6898   0.682   2.016   3.013
 1717SOL    HW3 6899   0.534   2.050   3.018
 1717SOL    MW4 6900   0.616   2.071   2.998
 1718SOL     OW 6901   0.659   2.344   3.094
 1718SOL    HW2 6902   0.660   2.337   3.189
 1718SOL    HW3 6903   0.648   2.254   3.064
 1718SOL    MW4 6904   0.658   2.331   3.103
 1719SOL     OW 6905   0.419   2.416   3.000
 1719SOL    HW2 6906   0.504   2.379   3.023
 1719SOL    HW3 6907   0.421   2.424   2.904
 1719SOL    MW4 6908   0.430   2.412   2.990
 1720SOL     OW 6909   0.397   2.666   3.108
 1720SOL    HW2 6910   0.468   2.713   3.063
 1720SOL    HW3 6911   0.400   2.577   3.071
 1720SOL    MW4 6912   0.407   2.660   3.097
 1721SOL     OW 6913   0.614   2.860   3.019
 1721SOL    HW2 6914   0.698   2.831   3.056
 1721SOL    HW3 6915   0.610   2.953   3.040
 1721SOL    MW4 6916   0.624   2.868   3.027
 1722SOL     OW 6917   0.681   3.121   3.075
 1722SOL    HW2 6918   0.656   3.104   3.166
 1722SOL    HW3 6919   0.610   3.175   3.040
 1722SOL    MW4 6920   0.668   3.126   3.082
 1723SOL     OW 6921   0.439   3.227   2.971
 1723SOL    HW2 6922   0.434   3.317   3.001
 1723SOL    HW3 6923   0.363   3.184   3.012
 1723SOL    MW4 6924   0.428   3.233   2.980
 1724SOL     OW 6925   0.427   3.486   3.060
 1724SOL    HW2 6926   0.426   3.500   3.155
 1724SOL    HW3 6927   0.353   3.539   3.028
 1724SOL    MW4 6928   0.417   3.495   3.069
 1725SOL     OW 6929   0.680   3.575   2.973
 1725SOL    HW2 6930   0.748   3.526   3.019
 1725SOL    HW3 6931   0.598   3.534   3.002
 1725SOL    MW4 6932   0.678   3.563   2.983
 1726SOL     OW 6933   0.690   3.856   3.035
 1726SOL    HW2 6934   0.687   3.855   3.131
 1726SOL    HW3 6935   0.701   3.764   3.010
 1726SOL    MW4 6936   0.691   3.844   3.044
 1727SOL     OW 6937   0.462   4.009   2.990
 1727SOL    HW2 6938   0.540   3.955   3.000
 1727SOL    HW3 6939   0.459   4.029   2.897
 1727SOL    MW4 6940   0.472   4.004   2.979
 1728SOL     OW 6941   0.491   4.259   3.073
 1728SOL    HW2 6942   0.484   4.167   3.050
 1728SOL    HW3 6943   0.408   4.298   3.044
 1728SOL    MW4 6944   0.479   4.252   3.066
 1729SOL     OW 6945   0.694   4.421   2.971
 1729SOL    HW2 6946   0.612   4.375   2.988
 1729SOL    HW3 6947   0.700   4.425   2.875
 1729SOL    MW4 6948   0.684   4.416   2.961
 1730SOL     OW 6949   1.112   0.008   3.054
 1730SOL    HW2 6950   1.191   0.053   3.024
 1730SOL    HW3 6951   1.041   0.070   3.035
 1730SOL    MW4 6952   1.113   0.022   3.047
 1731SOL     OW 6953   0.905   0.170   2.982
 1731SOL    HW2 6954   0.899   0.252   3.030
 1731SOL    HW3 6955   0.831   0.118   3.014
 1731SOL    MW4 6956   0.894   0.174   2.992
 1732SOL     OW 6957   0.898   0.418   3.089
 1732SOL    HW2 6958   0.905   0.414   3.185
 1732SOL    HW3 6959   0.972   0.473   3.062
 1732SOL    MW4 6960   0.909   0.425   3.098
 1733SOL     OW 6961   1.127   0.540   2.960
 1733SOL    HW2 6962   1.196   0.478   2.983
 1733SOL    HW3 6963   1.112   0.526   2.867
 1733SOL    MW4 6964   1.134   0.530   2.951
 1734SOL     OW 6965   1.136   0.809   3.079
 1734SOL    HW2 6966   1.152   0.797   3.172
 1734SOL    HW3 6967   1.142   0.721   3.042
 1734SOL    MW4 6968   1.139   0.796   3.086
 1735SOL     OW 6969   0.884   0.855   2.974
 1735SOL    HW2 6970   0.965   0.832   3.018
 1735SOL    HW3 6971   0.816   0.810   3.023
 1735SOL    MW4 6972   0.886   0.846   2.986
 1736SOL     OW 6973   0.892   1.106   3.106
 1736SOL    HW2 6974   0.965   1.161   3.080
 1736SOL    HW3 6975   0.898   1.029   3.049
 1736SOL    MW4 6976   0.903   1.103   3.095
 1737SOL     OW 6977   1.106   1.258   3.001
 1737SOL    HW2 6978   1.196   1.234   3.022
 1737SOL    HW3 6979   1.107   1.272   2.906
 1737SOL    MW4 6980   1.118   1.257   2.991
 1738SOL     OW 6981   1.119   1.536   3.072
 1738SOL    HW2 6982   1.196   1.584   3.041
 1738SOL    HW3 6983   1.136   1.445   3.048
 1738SOL    MW4 6984   1.132   1.530   3.065
 1739SOL     OW 6985   0.853   1.629   2.978
 1739SOL    HW2 6986   0.925   1.584   3.022
 1739SOL    HW3 6987   0.777   1.571   2.989
 1739SOL    MW4 6988   0.852   1.615   2.985
 1740SOL     OW 6989   0.826   1.899   3.037
 1740SOL    HW2 6990   0.835   1.908   3.132
 1740SOL    HW3 6991   0.831   1.804   3.022
 1740SOL    MW4 6992   0.828   1.887   3.048
 1741SOL     OW 6993   1.070   2.028   3.001
 1741SOL    HW2 6994   0.989   1.979   3.013
 1741SOL    HW3 6995   1.074   2.046   2.907
 1741SOL    MW4 6996   1.060   2.024   2.990
 1742SOL     OW 6997   1.092   2.302   3.094
 1742SOL    HW2 6998   1.015   2.350   3.063
 1742SOL    HW3 6999   1.080   2.213   3.062
 1742SOL    MW4 7000   1.080   2.297   3.086
 1743SOL     OW 7001   0.869   2.478   2.979
 1743SOL    HW2 7002   0.794   2.437   3.022
 1743SOL    HW3 7003   0.843   2.485   2.887
 1743SOL    MW4 7004   0.856   2.474   2.972
 1744SOL     OW 7005   0.888   2.751   3.049
 1744SOL    HW2 7006   0.891   2.759   3.144
 1744SOL    HW3 7007   0.879   2.657   3.033
 1744SOL    MW4 7008   0.887   2.740   3.060
 1745SOL     OW 7009   1.141   2.832   2.968
 1745SOL    HW2 7010   1.163   2.914   3.014
 1745SOL    HW3 7011   1.053   2.811   2.999
 1745SOL    MW4 7012   1.132   2.840   2.978
 1746SOL     OW 7013   1.161   3.075   3.091
 1746SOL    HW2 7014   1.238   3.121   3.058
 1746SOL    HW3 7015   1.088   3.132   3.068
 1746SOL    MW4 7016   1.162   3.089   3.083
 1747SOL     OW 7017   0.940   3.209   3.015
 1747SOL    HW2 7018   0.858   3.170   3.045
 1747SOL    HW3 7019   0.934   3.206   2.919
 1747SOL    MW4 7020   0.928   3.204   3.006
 1748SOL     OW 7021   0.890   3.463   3.122
 1748SOL    HW2 7022   0.959   3.519   3.086
 1748SOL    HW3 7023   0.913   3.375   3.092
 1748SOL    MW4 7024   0.902   3.459   3.113
 1749SOL     OW 7025   1.083   3.620   2.980
 1749SOL    HW2 7026   1.144   3.555   3.016
 1749SOL    HW3 7027   1.093   3.696   3.037
 1749SOL    MW4 7028   1.092   3.622   2.993
 1750SOL     OW 7029   1.137   3.860   3.101
 1750SOL    HW2 7030   1.128   3.865   3.196
 1750SOL    HW3 7031   1.064   3.912   3.067
 1750SOL    MW4 7032   1.126   3.867   3.109
 1751SOL     OW 7033   0.922   4.002   2.967
 1751SOL    HW2 7034   0.835   3.965   2.978
 1751SOL    HW3 7035   0.941   3.991   2.873
 1751SOL    MW4 7036   0.913   3.995   2.956
 1752SOL     OW 7037   0.888   4.251   3.115
 1752SOL    HW2 7038   0.898   4.172   3.061
 1752SOL    HW3 7039   0.818   4.301   3.073
 1752SOL    MW4 7040   0.880   4.247   3.102
 1753SOL     OW 7041   1.107   4.407   2.978
 1753SOL    HW2 7042   1.026   4.378   3.020
 1753SOL    HW3 7043   1.108   4.502   2.988
 1753SOL    MW4 7044   1.097   4.416   2.985
 1754SOL     OW 7045   1.571   4.622   3.104
 1754SOL    HW2 7046   1.557   4.629   3.199
 1754SOL    HW3 7047   1.499   4.671   3.065
 1754SOL    MW4 7048   1.560   4.629   3.112
 1755SOL     OW 7049   1.366   0.099   2.987
 1755SOL    HW2 7050   1.344   0.190   3.008
 1755SOL    HW3 7051   1.365   0.096   2.891
 1755SOL    MW4 7052   1.363   0.111   2.977
 1756SOL     OW 7053   1.320   0.365   3.056
 1756SOL    HW2 7054   1.300   0.373   3.149
 1756SOL    HW3 7055   1.404   0.410   3.046
 1756SOL    MW4 7056   1.328   0.372   3.067
 1757SOL     OW 7057   1.550   0.488   2.976
 1757SOL    HW2 7058   1.574   0.574   3.012
 1757SOL    HW3 7059   1.557   0.500   2.881
 1757SOL    MW4 7060   1.554   0.501   2.968
 1758SOL     OW 7061   1.609   0.736   3.069
 1758SOL    HW2 7062   1.629   0.724   3.162
 1758SOL    HW3 7063   1.529   0.787   3.068
 1758SOL    MW4 7064   1.601   0.741   3.081
 1759SOL     OW 7065   1.358   0.926   2.977
 1759SOL    HW2 7066   1.366   1.019   2.998
 1759SOL    HW3 7067   1.277   0.899   3.020
 1759SOL    MW4 7068   1.348   0.935   2.986
 1760SOL     OW 7069   1.363   1.190   3.079
 1760SOL    HW2 7070   1.370   1.179   3.173
 1760SOL    HW3 7071   1.430   1.255   3.057
 1760SOL    MW4 7072   1.372   1.197   3.088
 1761SOL     OW 7073   1.589   1.339   2.988
 1761SOL    HW2 7074   1.653   1.289   3.038
 1761SOL    HW3 7075   1.583   1.423   3.033
 1761SOL    MW4 7076   1.597   1.344   3.000
 1762SOL     OW 7077   1.593   1.549   3.140
 1762SOL    HW2 7078   1.671   1.597   3.112
 1762SOL    HW3 7079   1.521   1.610   3.125
 1762SOL    MW4 7080   1.594   1.563   3.134
 1763SOL     OW 7081   1.343   1.644   2.992
 1763SOL    HW2 7082   1.341   1.726   3.041
 1763SOL    HW3 7083   1.340   1.671   2.900
 1763SOL    MW4 7084   1.343   1.658   2.986
 1764SOL     OW 7085   1.320   1.922   3.090
 1764SOL    HW2 7086   1.320   1.950   3.182
 1764SOL    HW3 7087   1.242   1.964   3.053
 1764SOL    MW4 7088   1.310   1.931   3.097
 1765SOL     OW 7089   1.566   2.046   3.002
 1765SOL    HW2 7090   1.486   2.001   3.028
 1765SOL    HW3 7091   1.554   2.064   2.909
 1765SOL    MW4 7092   1.554   2.042   2.993
 1766SOL     OW 7093   1.534   2.303   3.100
 1766SOL    HW2 7094   1.456   2.341   3.060
 1766SOL    HW3 7095   1.539   2.215   3.063
 1766SOL    MW4 7096   1.524   2.296   3.090
 1767SOL     OW 7097   1.314   2.408   2.989
 1767SOL    HW2 7098   1.232   2.375   3.025
 1767SOL    HW3 7099   1.299   2.413   2.895
 1767SOL    MW4 7100   1.301   2.404   2.981
 1768SOL     OW 7101   1.342   2.673   3.093
 1768SOL    HW2 7102   1.333   2.581   3.067
 1768SOL    HW3 7103   1.273   2.718   3.044
 1768SOL    MW4 7104   1.332   2.667   3.083
 1769SOL     OW 7105   1.569   2.819   3.035
 1769SOL    HW2 7106   1.645   2.765   3.056
 1769SOL    HW3 7107   1.494   2.762   3.050
 1769SOL    MW4 7108   1.569   2.805   3.040
 1770SOL     OW 7109   1.613   3.142   3.120
 1770SOL    HW2 7110   1.633   3.143   3.213
 1770SOL    HW3 7111   1.604   3.049   3.099
 1770SOL    MW4 7112   1.614   3.130   3.129
 1771SOL     OW 7113   1.374   3.234   3.007
 1771SOL    HW2 7114   1.451   3.215   3.060
 1771SOL    HW3 7115   1.398   3.209   2.918
 1771SOL    MW4 7116   1.387   3.228   3.002
 1772SOL     OW 7117   1.286   3.484   3.116
 1772SOL    HW2 7118   1.317   3.490   3.206
 1772SOL    HW3 7119   1.302   3.393   3.092
 1772SOL    MW4 7120   1.292   3.473   3.125
 1773SOL     OW 7121   1.543   3.571   3.042
 1773SOL    HW2 7122   1.449   3.559   3.054
 1773SOL    HW3 7123   1.555   3.567   2.947
 1773SOL    MW4 7124   1.532   3.569   3.031
 1774SOL     OW 7125   1.569   3.866   3.075
 1774SOL    HW2 7126   1.654   3.893   3.040
 1774SOL    HW3 7127   1.562   3.773   3.054
 1774SOL    MW4 7128   1.580   3.857   3.068
 1775SOL     OW 7129   1.344   3.962   2.963
 1775SOL    HW2 7130   1.427   3.946   3.007
 1775SOL    HW3 7131   1.278   3.938   3.027
 1775SOL    MW4 7132   1.346   3.957   2.977
 1776SOL     OW 7133   1.307   4.245   3.046
 1776SOL    HW2 7134   1.298   4.162   2.998
 1776SOL    HW3 7135   1.232   4.298   3.018
 1776SOL    MW4 7136   1.296   4.241   3.036
 1777SOL     OW 7137   1.558   4.365   2.968
 1777SOL    HW2 7138   1.478   4.321   2.996
 1777SOL    HW3 7139   1.554   4.451   3.011
 1777SOL    MW4 7140   1.547   4.371   2.977
 1778SOL     OW 7141   2.030   0.002   3.064
 1778SOL    HW2 7142   2.034  -0.011   3.158
 1778SOL    HW3 7143   1.941   0.035   3.048
 1778SOL    MW4 7144   2.019   0.005   3.074
 1779SOL     OW 7145   1.785   0.114   3.013
 1779SOL    HW2 7146   1.712   0.061   3.046
 1779SOL    HW3 7147   1.777   0.109   2.918
 1779SOL    MW4 7148   1.775   0.106   3.005
 1780SOL     OW 7149   1.781   0.380   3.086
 1780SOL    HW2 7150   1.787   0.287   3.066
 1780SOL    HW3 7151   1.697   0.407   3.049
 1780SOL    MW4 7152   1.770   0.371   3.079
 1781SOL     OW 7153   2.013   0.524   3.020
 1781SOL    HW2 7154   1.935   0.487   3.062
 1781SOL    HW3 7155   2.003   0.501   2.928
 1781SOL    MW4 7156   2.002   0.516   3.013
 1782SOL     OW 7157   2.032   0.794   3.098
 1782SOL    HW2 7158   1.957   0.842   3.063
 1782SOL    HW3 7159   2.019   0.704   3.067
 1782SOL    MW4 7160   2.020   0.788   3.090
 1783SOL     OW 7161   1.805   0.932   3.006
 1783SOL    HW2 7162   1.730   0.874   3.019
 1783SOL    HW3 7163   1.814   0.938   2.911
 1783SOL    MW4 7164   1.796   0.926   2.995
 1784SOL     OW 7165   1.800   1.185   3.113
 1784SOL    HW2 7166   1.785   1.183   3.207
 1784SOL    HW3 7167   1.785   1.094   3.085
 1784SOL    MW4 7168   1.796   1.173   3.122
 1785SOL     OW 7169   2.016   1.288   2.965
 1785SOL    HW2 7170   2.101   1.256   2.996
 1785SOL    HW3 7171   1.952   1.236   3.013
 1785SOL    MW4 7172   2.019   1.277   2.975
 1786SOL     OW 7173   2.048   1.550   3.081
 1786SOL    HW2 7174   2.035   1.533   3.175
 1786SOL    HW3 7175   2.046   1.463   3.041
 1786SOL    MW4 7176   2.046   1.536   3.088
 1787SOL     OW 7177   1.806   1.682   3.011
 1787SOL    HW2 7178   1.819   1.774   3.033
 1787SOL    HW3 7179   1.892   1.642   3.022
 1787SOL    MW4 7180   1.819   1.689   3.015
 1788SOL     OW 7181   1.825   1.948   3.090
 1788SOL    HW2 7182   1.891   1.976   3.026
 1788SOL    HW3 7183   1.746   1.996   3.067
 1788SOL    MW4 7184   1.824   1.958   3.079
 1789SOL     OW 7185   2.029   2.036   2.931
 1789SOL    HW2 7186   2.091   1.989   2.986
 1789SOL    HW3 7187   2.023   2.123   2.970
 1789SOL    MW4 7188   2.036   2.042   2.943
 1790SOL     OW 7189   1.993   2.295   3.077
 1790SOL    HW2 7190   2.063   2.354   3.047
 1790SOL    HW3 7191   1.913   2.345   3.062
 1790SOL    MW4 7192   1.992   2.310   3.071
 1791SOL     OW 7193   1.762   2.435   3.012
 1791SOL    HW2 7194   1.785   2.514   3.061
 1791SOL    HW3 7195   1.675   2.411   3.046
 1791SOL    MW4 7196   1.753   2.442   3.023
 1792SOL     OW 7197   1.795   2.693   3.124
 1792SOL    HW2 7198   1.793   2.718   3.217
 1792SOL    HW3 7199   1.863   2.748   3.086
 1792SOL    MW4 7200   1.803   2.704   3.131
 1793SOL     OW 7201   1.989   2.818   2.991
 1793SOL    HW2 7202   2.009   2.906   3.024
 1793SOL    HW3 7203   1.974   2.830   2.898
 1793SOL    MW4 7204   1.989   2.831   2.983
 1794SOL     OW 7205   2.029   3.086   3.100
 1794SOL    HW2 7206   2.016   3.108   3.192
 1794SOL    HW3 7207   1.966   3.140   3.053
 1794SOL    MW4 7208   2.019   3.096   3.106
 1795SOL     OW 7209   1.828   3.233   2.979
 1795SOL    HW2 7210   1.746   3.198   3.014
 1795SOL    HW3 7211   1.811   3.246   2.886
 1795SOL    MW4 7212   1.815   3.230   2.971
 1796SOL     OW 7213   1.797   3.482   3.088
 1796SOL    HW2 7214   1.805   3.394   3.051
 1796SOL    HW3 7215   1.709   3.511   3.065
 1796SOL    MW4 7216   1.787   3.474   3.080
 1797SOL     OW 7217   2.015   3.598   3.007
 1797SOL    HW2 7218   2.022   3.683   3.050
 1797SOL    HW3 7219   1.943   3.554   3.052
 1797SOL    MW4 7220   2.007   3.604   3.018
 1798SOL     OW 7221   2.032   3.850   3.099
 1798SOL    HW2 7222   2.013   3.866   3.192
 1798SOL    HW3 7223   1.960   3.893   3.052
 1798SOL    MW4 7224   2.020   3.858   3.105
 1799SOL     OW 7225   1.807   3.961   2.973
 1799SOL    HW2 7226   1.814   4.052   3.002
 1799SOL    HW3 7227   1.783   3.967   2.880
 1799SOL    MW4 7228   1.805   3.974   2.965
 1800SOL     OW 7229   1.775   4.229   3.059
 1800SOL    HW2 7230   1.852   4.282   3.042
 1800SOL    HW3 7231   1.701   4.287   3.041
 1800SOL    MW4 7232   1.775   4.244   3.055
 1801SOL     OW 7233   2.012   4.374   2.993
 1801SOL    HW2 7234   2.006   4.467   3.015
 1801SOL    HW3 7235   2.021   4.373   2.898
 1801SOL    MW4 7236   2.012   4.386   2.983
 1802SOL     OW 7237   2.476   0.016   3.065
 1802SOL    HW2 7238   2.481  -0.073   3.028
 1802SOL    HW3 7239   2.400   0.055   3.023
 1802SOL    MW4 7240   2.467   0.009   3.054
 1803SOL     OW 7241   2.270   0.143   2.977
 1803SOL    HW2 7242   2.273   0.219   3.035
 1803SOL    HW3 7243   2.200   0.088   3.013
 1803SOL    MW4 7244   2.261   0.146   2.990
 1804SOL     OW 7245   2.252   0.392   3.115
 1804SOL    HW2 7246   2.251   0.398   3.211
 1804SOL    HW3 7247   2.168   0.427   3.088
 1804SOL    MW4 7248   2.241   0.398   3.124
 1805SOL     OW 7249   2.459   0.543   3.006
 1805SOL    HW2 7250   2.388   0.494   3.047
 1805SOL    HW3 7251   2.440   0.539   2.912
 1805SOL    MW4 7252   2.447   0.536   2.999
 1806SOL     OW 7253   2.488   0.793   3.101
 1806SOL    HW2 7254   2.558   0.833   3.050
 1806SOL    HW3 7255   2.476   0.707   3.062
 1806SOL    MW4 7256   2.496   0.787   3.089
 1807SOL     OW 7257   2.261   0.922   2.997
 1807SOL    HW2 7258   2.342   0.890   3.037
 1807SOL    HW3 7259   2.192   0.875   3.043
 1807SOL    MW4 7260   2.262   0.912   3.008
 1808SOL     OW 7261   2.243   1.182   3.092
 1808SOL    HW2 7262   2.248   1.193   3.186
 1808SOL    HW3 7263   2.255   1.088   3.078
 1808SOL    MW4 7264   2.245   1.171   3.102
 1809SOL     OW 7265   2.498   1.250   3.026
 1809SOL    HW2 7266   2.408   1.228   3.049
 1809SOL    HW3 7267   2.498   1.254   2.930
 1809SOL    MW4 7268   2.486   1.247   3.016
 1810SOL     OW 7269   2.501   1.517   3.096
 1810SOL    HW2 7270   2.427   1.551   3.046
 1810SOL    HW3 7271   2.497   1.422   3.085
 1810SOL    MW4 7272   2.491   1.509   3.088
 1811SOL     OW 7273   2.280   1.663   2.980
 1811SOL    HW2 7274   2.196   1.631   3.013
 1811SOL    HW3 7275   2.264   1.681   2.887
 1811SOL    MW4 7276   2.267   1.661   2.972
 1812SOL     OW 7277   2.209   1.903   3.100
 1812SOL    HW2 7278   2.280   1.961   3.072
 1812SOL    HW3 7279   2.236   1.816   3.069
 1812SOL    MW4 7280   2.222   1.899   3.092
 1813SOL     OW 7281   2.431   2.083   3.012
 1813SOL    HW2 7282   2.494   2.016   3.040
 1813SOL    HW3 7283   2.422   2.070   2.918
 1813SOL    MW4 7284   2.438   2.073   3.003
 1814SOL     OW 7285   2.456   2.331   3.122
 1814SOL    HW2 7286   2.459   2.329   3.218
 1814SOL    HW3 7287   2.450   2.240   3.096
 1814SOL    MW4 7288   2.456   2.319   3.131
 1815SOL     OW 7289   2.217   2.419   3.008
 1815SOL    HW2 7290   2.195   2.502   3.049
 1815SOL    HW3 7291   2.296   2.390   3.055
 1815SOL    MW4 7292   2.225   2.426   3.020
 1816SOL     OW 7293   2.191   2.669   3.123
 1816SOL    HW2 7294   2.266   2.717   3.088
 1816SOL    HW3 7295   2.115   2.717   3.091
 1816SOL    MW4 7296   2.191   2.682   3.115
 1817SOL     OW 7297   2.423   2.796   3.032
 1817SOL    HW2 7298   2.422   2.889   3.054
 1817SOL    HW3 7299   2.418   2.794   2.936
 1817SOL    MW4 7300   2.422   2.808   3.022
 1818SOL     OW 7301   2.432   3.063   3.094
 1818SOL    HW2 7302   2.512   3.106   3.062
 1818SOL    HW3 7303   2.361   3.115   3.058
 1818SOL    MW4 7304   2.434   3.075   3.085
 1819SOL     OW 7305   2.242   3.224   2.976
 1819SOL    HW2 7306   2.256   3.304   3.027
 1819SOL    HW3 7307   2.175   3.176   3.025
 1819SOL    MW4 7308   2.235   3.228   2.989
 1820SOL     OW 7309   2.257   3.472   3.107
 1820SOL    HW2 7310   2.330   3.521   3.068
 1820SOL    HW3 7311   2.179   3.508   3.065
 1820SOL    MW4 7312   2.256   3.483   3.096
 1821SOL     OW 7313   2.463   3.620   2.981
 1821SOL    HW2 7314   2.550   3.588   3.003
 1821SOL    HW3 7315   2.448   3.693   3.041
 1821SOL    MW4 7316   2.472   3.626   2.992
 1822SOL     OW 7317   2.464   3.854   3.133
 1822SOL    HW2 7318   2.455   3.882   3.225
 1822SOL    HW3 7319   2.538   3.904   3.100
 1822SOL    MW4 7320   2.472   3.864   3.141
 1823SOL     OW 7321   2.257   3.966   2.983
 1823SOL    HW2 7322   2.326   3.931   3.039
 1823SOL    HW3 7323   2.176   3.927   3.017
 1823SOL    MW4 7324   2.255   3.956   2.995
 1824SOL     OW 7325   2.251   4.254   3.048
 1824SOL    HW2 7326   2.252   4.159   3.037
 1824SOL    HW3 7327   2.159   4.279   3.038
 1824SOL    MW4 7328   2.239   4.245   3.046
 1825SOL     OW 7329   2.456   4.407   2.980
 1825SOL    HW2 7330   2.378   4.353   2.993
 1825SOL    HW3 7331   2.475   4.399   2.887
 1825SOL    MW4 7332   2.448   4.399   2.970
 1826SOL     OW 7333   2.889   4.653   3.085
 1826SOL    HW2 7334   2.964   4.694   3.042
 1826SOL    HW3 7335   2.886   4.565   3.049
 1826SOL    MW4 7336   2.899   4.647   3.075
 1827SOL     OW 7337   2.693   0.128   2.952
 1827SOL    HW2 7338   2.764   0.076   2.989
 1827SOL    HW3 7339   2.615   0.103   3.002
 1827SOL    MW4 7340   2.692   0.118   2.963
 1828SOL     OW 7341   2.709   0.380   3.084
 1828SOL    HW2 7342   2.694   0.289   3.059
 1828SOL    HW3 7343   2.641   0.429   3.039
 1828SOL    MW4 7344   2.698   0.375   3.074
 1829SOL     OW 7345   2.943   0.493   2.961
 1829SOL    HW2 7346   2.858   0.452   2.978
 1829SOL    HW3 7347   2.956   0.482   2.867
 1829SOL    MW4 7348   2.933   0.486   2.951
 1830SOL     OW 7349   2.916   0.745   3.045
 1830SOL    HW2 7350   2.911   0.735   3.140
 1830SOL    HW3 7351   2.928   0.656   3.012
 1830SOL    MW4 7352   2.917   0.732   3.053
 1831SOL     OW 7353   2.694   0.907   2.965
 1831SOL    HW2 7354   2.706   0.980   3.025
 1831SOL    HW3 7355   2.767   0.848   2.984
 1831SOL    MW4 7356   2.705   0.909   2.975
 1832SOL     OW 7357   2.724   1.113   3.140
 1832SOL    HW2 7358   2.795   1.161   3.099
 1832SOL    HW3 7359   2.645   1.159   3.112
 1832SOL    MW4 7360   2.723   1.125   3.131
 1833SOL     OW 7361   2.918   1.267   3.015
 1833SOL    HW2 7362   2.996   1.213   3.028
 1833SOL    HW3 7363   2.942   1.353   3.050
 1833SOL    MW4 7364   2.931   1.271   3.021
 1834SOL     OW 7365   2.946   1.536   3.099
 1834SOL    HW2 7366   2.955   1.532   3.194
 1834SOL    HW3 7367   3.020   1.591   3.071
 1834SOL    MW4 7368   2.957   1.543   3.108
 1835SOL     OW 7369   2.716   1.659   2.986
 1835SOL    HW2 7370   2.787   1.608   3.024
 1835SOL    HW3 7371   2.636   1.611   3.010
 1835SOL    MW4 7372   2.715   1.646   2.994
 1836SOL     OW 7373   2.641   1.911   3.104
 1836SOL    HW2 7374   2.724   1.958   3.095
 1836SOL    HW3 7375   2.663   1.820   3.082
 1836SOL    MW4 7376   2.655   1.905   3.100
 1837SOL     OW 7377   2.880   2.044   3.052
 1837SOL    HW2 7378   2.876   2.135   3.083
 1837SOL    HW3 7379   2.899   2.051   2.958
 1837SOL    MW4 7380   2.882   2.057   3.044
 1838SOL     OW 7381   2.896   2.340   3.087
 1838SOL    HW2 7382   2.976   2.382   3.055
 1838SOL    HW3 7383   2.825   2.394   3.053
 1838SOL    MW4 7384   2.897   2.353   3.078
 1839SOL     OW 7385   2.662   2.474   2.996
 1839SOL    HW2 7386   2.656   2.559   3.040
 1839SOL    HW3 7387   2.589   2.424   3.032
 1839SOL    MW4 7388   2.651   2.479   3.007
 1840SOL     OW 7389   2.661   2.705   3.148
 1840SOL    HW2 7390   2.659   2.743   3.236
 1840SOL    HW3 7391   2.584   2.740   3.104
 1840SOL    MW4 7392   2.651   2.715   3.154
 1841SOL     OW 7393   2.871   2.830   3.041
 1841SOL    HW2 7394   2.946   2.774   3.062
 1841SOL    HW3 7395   2.795   2.785   3.079
 1841SOL    MW4 7396   2.871   2.816   3.049
 1842SOL     OW 7397   2.901   3.090   3.076
 1842SOL    HW2 7398   2.818   3.135   3.061
 1842SOL    HW3 7399   2.879   2.997   3.065
 1842SOL    MW4 7400   2.887   3.083   3.072
 1843SOL     OW 7401   2.658   3.221   3.009
 1843SOL    HW2 7402   2.663   3.308   3.050
 1843SOL    HW3 7403   2.687   3.236   2.919
 1843SOL    MW4 7404   2.663   3.235   3.003
 1844SOL     OW 7405   2.678   3.495   3.091
 1844SOL    HW2 7406   2.675   3.503   3.187
 1844SOL    HW3 7407   2.766   3.521   3.067
 1844SOL    MW4 7408   2.689   3.499   3.101
 1845SOL     OW 7409   2.907   3.618   2.985
 1845SOL    HW2 7410   2.993   3.594   3.020
 1845SOL    HW3 7411   2.888   3.703   3.025
 1845SOL    MW4 7412   2.916   3.626   2.995
 1846SOL     OW 7413   2.881   3.869   3.109
 1846SOL    HW2 7414   2.892   3.873   3.204
 1846SOL    HW3 7415   2.795   3.907   3.093
 1846SOL    MW4 7416   2.871   3.874   3.119
 1847SOL     OW 7417   2.645   3.994   2.999
 1847SOL    HW2 7418   2.654   4.087   3.020
 1847SOL    HW3 7419   2.648   3.991   2.904
 1847SOL    MW4 7420   2.646   4.006   2.989
 1848SOL     OW 7421   2.657   4.260   3.073
 1848SOL    HW2 7422   2.666   4.279   3.166
 1848SOL    HW3 7423   2.581   4.309   3.045
 1848SOL    MW4 7424   2.648   4.269   3.082
 1849SOL     OW 7425   2.884   4.392   2.975
 1849SOL    HW2 7426   2.946   4.327   3.010
 1849SOL    HW3 7427   2.799   4.349   2.982
 1849SOL    MW4 7428   2.881   4.377   2.981
 1850SOL     OW 7429   3.375   4.622   3.079
 1850SOL    HW2 7430   3.468   4.638   3.063
 1850SOL    HW3 7431   3.359   4.534   3.043
 1850SOL    MW4 7432   3.385   4.612   3.072
 1851SOL     OW 7433   3.153   0.108   2.978
 1851SOL    HW2 7434   3.138   0.189   3.027
 1851SOL    HW3 7435   3.226   0.066   3.022
 1851SOL    MW4 7436   3.160   0.113   2.990
 1852SOL     OW 7437   3.136   0.348   3.098
 1852SOL    HW2 7438   3.209   0.397   3.061
 1852SOL    HW3 7439   3.058   0.388   3.059
 1852SOL    MW4 7440   3.135   0.360   3.088
 1853SOL     OW 7441   3.356   0.482   3.012
 1853SOL    HW2 7442   3.434   0.432   3.035
 1853SOL    HW3 7443   3.358   0.486   2.916
 1853SOL    MW4 7444   3.367   0.476   3.002
 1854SOL     OW 7445   3.332   0.740   3.063
 1854SOL    HW2 7446   3.350   0.741   3.157
 1854SOL    HW3 7447   3.324   0.647   3.041
 1854SOL    MW4 7448   3.333   0.728   3.073
 1855SOL     OW 7449   3.123   0.902   2.953
 1855SOL    HW2 7450   3.189   0.860   3.008
 1855SOL    HW3 7451   3.040   0.868   2.985
 1855SOL    MW4 7452   3.121   0.892   2.964
 1856SOL     OW 7453   3.165   1.124   3.086
 1856SOL    HW2 7454   3.223   1.183   3.038
 1856SOL    HW3 7455   3.159   1.046   3.031
 1856SOL    MW4 7456   3.172   1.122   3.072
 1857SOL     OW 7457   3.357   1.289   2.985
 1857SOL    HW2 7458   3.426   1.228   3.013
 1857SOL    HW3 7459   3.373   1.369   3.034
 1857SOL    MW4 7460   3.368   1.291   2.995
 1858SOL     OW 7461   3.379   1.559   3.117
 1858SOL    HW2 7462   3.390   1.558   3.212
 1858SOL    HW3 7463   3.464   1.588   3.084
 1858SOL    MW4 7464   3.392   1.563   3.125
 1859SOL     OW 7465   3.153   1.697   3.028
 1859SOL    HW2 7466   3.233   1.660   3.065
 1859SOL    HW3 7467   3.168   1.697   2.934
 1859SOL    MW4 7468   3.166   1.692   3.021
 1860SOL     OW 7469   3.124   1.945   3.116
 1860SOL    HW2 7470   3.142   1.853   3.097
 1860SOL    HW3 7471   3.032   1.958   3.093
 1860SOL    MW4 7472   3.115   1.935   3.110
 1861SOL     OW 7473   3.354   2.065   3.012
 1861SOL    HW2 7474   3.422   2.011   3.053
 1861SOL    HW3 7475   3.272   2.031   3.047
 1861SOL    MW4 7476   3.352   2.053   3.022
 1862SOL     OW 7477   3.359   2.329   3.089
 1862SOL    HW2 7478   3.352   2.329   3.185
 1862SOL    HW3 7479   3.361   2.236   3.066
 1862SOL    MW4 7480   3.358   2.317   3.099
 1863SOL     OW 7481   3.116   2.450   3.008
 1863SOL    HW2 7482   3.202   2.418   3.034
 1863SOL    HW3 7483   3.106   2.421   2.917
 1863SOL    MW4 7484   3.126   2.442   2.999
 1864SOL     OW 7485   3.115   2.718   3.073
 1864SOL    HW2 7486   3.113   2.717   3.169
 1864SOL    HW3 7487   3.123   2.626   3.048
 1864SOL    MW4 7488   3.116   2.706   3.083
 1865SOL     OW 7489   3.352   2.837   2.972
 1865SOL    HW2 7490   3.356   2.922   3.017
 1865SOL    HW3 7491   3.283   2.789   3.017
 1865SOL    MW4 7492   3.344   2.842   2.984
 1866SOL     OW 7493   3.361   3.069   3.105
 1866SOL    HW2 7494   3.333   3.077   3.196
 1866SOL    HW3 7495   3.291   3.111   3.054
 1866SOL    MW4 7496   3.348   3.076   3.110
 1867SOL     OW 7497   3.138   3.221   3.017
 1867SOL    HW2 7498   3.061   3.167   3.036
 1867SOL    HW3 7499   3.138   3.229   2.921
 1867SOL    MW4 7500   3.128   3.215   3.006
 1868SOL     OW 7501   3.134   3.483   3.104
 1868SOL    HW2 7502   3.208   3.527   3.062
 1868SOL    HW3 7503   3.153   3.390   3.095
 1868SOL    MW4 7504   3.146   3.477   3.097
 1869SOL     OW 7505   3.353   3.617   2.990
 1869SOL    HW2 7506   3.422   3.567   3.032
 1869SOL    HW3 7507   3.368   3.707   3.019
 1869SOL    MW4 7508   3.364   3.622   2.999
 1870SOL     OW 7509   3.364   3.866   3.100
 1870SOL    HW2 7510   3.346   3.860   3.194
 1870SOL    HW3 7511   3.291   3.916   3.064
 1870SOL    MW4 7512   3.352   3.872   3.108
 1871SOL     OW 7513   3.113   3.979   3.017
 1871SOL    HW2 7514   3.034   3.939   3.054
 1871SOL    HW3 7515   3.105   3.966   2.923
 1871SOL    MW4 7516   3.102   3.972   3.010
 1872SOL     OW 7517   3.113   4.256   3.085
 1872SOL    HW2 7518   3.112   4.287   3.176
 1872SOL    HW3 7519   3.114   4.160   3.093
 1872SOL    MW4 7520   3.113   4.247   3.098
 1873SOL     OW 7521   3.353   4.362   2.967
 1873SOL    HW2 7522   3.431   4.317   2.998
 1873SOL    HW3 7523   3.281   4.322   3.016
 1873SOL    MW4 7524   3.353   4.351   2.978
 1874SOL     OW 7525   3.834   4.634   3.119
 1874SOL    HW2 7526   3.837   4.552   3.070
 1874SOL    HW3 7527   3.769   4.687   3.072
 1874SOL    MW4 7528   3.826   4.630   3.106
 1875SOL     OW 7529   3.615   0.070   2.971
 1875SOL    HW2 7530   3.592   0.155   3.010
 1875SOL    HW3 7531   3.613   0.086   2.877
 1875SOL    MW4 7532   3.612   0.084   2.964
 1876SOL     OW 7533   3.590   0.320   3.069
 1876SOL    HW2 7534   3.580   0.319   3.164
 1876SOL    HW3 7535   3.675   0.360   3.054
 1876SOL    MW4 7536   3.600   0.325   3.080
 1877SOL     OW 7537   3.796   0.471   3.008
 1877SOL    HW2 7538   3.870   0.428   3.052
 1877SOL    HW3 7539   3.791   0.557   3.050
 1877SOL    MW4 7540   3.805   0.477   3.020
 1878SOL     OW 7541   3.784   0.733   3.117
 1878SOL    HW2 7542   3.776   0.738   3.213
 1878SOL    HW3 7543   3.874   0.759   3.099
 1878SOL    MW4 7544   3.795   0.737   3.127
 1879SOL     OW 7545   3.565   0.870   2.990
 1879SOL    HW2 7546   3.631   0.812   3.028
 1879SOL    HW3 7547   3.485   0.817   2.989
 1879SOL    MW4 7548   3.563   0.855   2.995
 1880SOL     OW 7549   3.539   1.120   3.108
 1880SOL    HW2 7550   3.624   1.162   3.095
 1880SOL    HW3 7551   3.547   1.036   3.063
 1880SOL    MW4 7552   3.552   1.115   3.100
 1881SOL     OW 7553   3.797   1.246   3.020
 1881SOL    HW2 7554   3.808   1.331   3.063
 1881SOL    HW3 7555   3.790   1.267   2.927
 1881SOL    MW4 7556   3.798   1.260   3.013
 1882SOL     OW 7557   3.832   1.515   3.106
 1882SOL    HW2 7558   3.823   1.506   3.201
 1882SOL    HW3 7559   3.757   1.569   3.081
 1882SOL    MW4 7560   3.821   1.521   3.116
 1883SOL     OW 7561   3.617   1.657   3.010
 1883SOL    HW2 7562   3.612   1.740   3.057
 1883SOL    HW3 7563   3.595   1.679   2.919
 1883SOL    MW4 7564   3.614   1.671   3.004
 1884SOL     OW 7565   3.570   1.921   3.134
 1884SOL    HW2 7566   3.588   1.918   3.228
 1884SOL    HW3 7567   3.646   1.967   3.097
 1884SOL    MW4 7568   3.583   1.927   3.142
 1885SOL     OW 7569   3.789   2.043   3.032
 1885SOL    HW2 7570   3.783   2.136   3.051
 1885SOL    HW3 7571   3.803   2.038   2.937
 1885SOL    MW4 7572   3.790   2.054   3.022
 1886SOL     OW 7573   3.826   2.320   3.094
 1886SOL    HW2 7574   3.793   2.328   3.183
 1886SOL    HW3 7575   3.762   2.367   3.040
 1886SOL    MW4 7576   3.813   2.327   3.098
 1887SOL     OW 7577   3.595   2.442   2.975
 1887SOL    HW2 7578   3.596   2.530   3.012
 1887SOL    HW3 7579   3.515   2.402   3.010
 1887SOL    MW4 7580   3.584   2.449   2.984
 1888SOL     OW 7581   3.602   2.699   3.070
 1888SOL    HW2 7582   3.687   2.733   3.043
 1888SOL    HW3 7583   3.539   2.761   3.032
 1888SOL    MW4 7584   3.605   2.712   3.062
 1889SOL     OW 7585   3.833   2.840   2.996
 1889SOL    HW2 7586   3.827   2.927   3.035
 1889SOL    HW3 7587   3.805   2.851   2.906
 1889SOL    MW4 7588   3.829   2.853   2.989
 1890SOL     OW 7589   3.797   3.090   3.120
 1890SOL    HW2 7590   3.862   3.134   3.065
 1890SOL    HW3 7591   3.714   3.129   3.094
 1890SOL    MW4 7592   3.795   3.101   3.109
 1891SOL     OW 7593   3.559   3.240   3.039
 1891SOL    HW2 7594   3.496   3.183   3.083
 1891SOL    HW3 7595   3.556   3.212   2.948
 1891SOL    MW4 7596   3.550   3.229   3.033
 1892SOL     OW 7597   3.547   3.501   3.133
 1892SOL    HW2 7598   3.617   3.548   3.089
 1892SOL    HW3 7599   3.559   3.410   3.108
 1892SOL    MW4 7600   3.558   3.495   3.124
 1893SOL     OW 7601   3.789   3.599   3.053
 1893SOL    HW2 7602   3.802   3.688   3.087
 1893SOL    HW3 7603   3.813   3.606   2.960
 1893SOL    MW4 7604   3.794   3.612   3.045
 1894SOL     OW 7605   3.844   3.866   3.098
 1894SOL    HW2 7606   3.860   3.880   3.192
 1894SOL    HW3 7607   3.757   3.903   3.083
 1894SOL    MW4 7608   3.834   3.873   3.109
 1895SOL     OW 7609   3.600   3.959   2.996
 1895SOL    HW2 7610   3.523   3.917   3.034
 1895SOL    HW3 7611   3.587   3.953   2.902
 1895SOL    MW4 7612   3.588   3.953   2.989
 1896SOL     OW 7613   3.590   4.248   3.063
 1896SOL    HW2 7614   3.673   4.293   3.046
 1896SOL    HW3 7615   3.604   4.158   3.033
 1896SOL    MW4 7616   3.603   4.242   3.057
 1897SOL     OW 7617   3.822   4.388   3.009
 1897SOL    HW2 7618   3.905   4.343   3.022
 1897SOL    HW3 7619   3.804   4.379   2.916
 1897SOL    MW4 7620   3.831   4.381   2.999
 1898SOL     OW 7621   4.260   4.589   3.069
 1898SOL    HW2 7622   4.256   4.595   3.165
 1898SOL    HW3 7623   4.269   4.495   3.052
 1898SOL    MW4 7624   4.261   4.577   3.079
 1899SOL     OW 7625   4.048   0.080   2.994
 1899SOL    HW2 7626   4.126   0.025   3.003
 1899SOL    HW3 7627   3.988   0.048   3.061
 1899SOL    MW4 7628   4.050   0.068   3.004
 1900SOL     OW 7629   4.018   0.323   3.116
 1900SOL    HW2 7630   4.101   0.364   3.095
 1900SOL    HW3 7631   4.020   0.237   3.073
 1900SOL    MW4 7632   4.029   0.317   3.108
 1901SOL     OW 7633   4.253   0.463   3.041
 1901SOL    HW2 7634   4.245   0.551   3.080
 1901SOL    HW3 7635   4.231   0.476   2.949
 1901SOL    MW4 7636   4.249   0.477   3.034
 1902SOL     OW 7637   4.233   0.722   3.115
 1902SOL    HW2 7638   4.158   0.771   3.081
 1902SOL    HW3 7639   4.310   0.765   3.078
 1902SOL    MW4 7640   4.233   0.734   3.106
 1903SOL     OW 7641   4.031   0.858   3.005
 1903SOL    HW2 7642   4.030   0.946   3.044
 1903SOL    HW3 7643   4.063   0.872   2.916
 1903SOL    MW4 7644   4.035   0.872   2.999
 1904SOL     OW 7645   4.036   1.162   3.120
 1904SOL    HW2 7646   4.031   1.152   3.215
 1904SOL    HW3 7647   3.952   1.202   3.096
 1904SOL    MW4 7648   4.024   1.166   3.129
 1905SOL     OW 7649   4.286   1.244   3.042
 1905SOL    HW2 7650   4.194   1.223   3.061
 1905SOL    HW3 7651   4.292   1.241   2.947
 1905SOL    MW4 7652   4.275   1.241   3.032
 1906SOL     OW 7653   4.293   1.509   3.126
 1906SOL    HW2 7654   4.213   1.546   3.090
 1906SOL    HW3 7655   4.286   1.415   3.109
 1906SOL    MW4 7656   4.282   1.501   3.119
 1907SOL     OW 7657   4.062   1.640   3.038
 1907SOL    HW2 7658   4.041   1.732   3.055
 1907SOL    HW3 7659   3.983   1.592   3.061
 1907SOL    MW4 7660   4.049   1.646   3.043
 1908SOL     OW 7661   4.006   1.908   3.120
 1908SOL    HW2 7662   4.074   1.953   3.071
 1908SOL    HW3 7663   3.925   1.949   3.093
 1908SOL    MW4 7664   4.005   1.919   3.110
 1909SOL     OW 7665   4.226   2.032   3.000
 1909SOL    HW2 7666   4.253   2.117   3.036
 1909SOL    HW3 7667   4.234   2.043   2.905
 1909SOL    MW4 7668   4.231   2.045   2.992
 1910SOL     OW 7669   4.260   2.281   3.092
 1910SOL    HW2 7670   4.186   2.323   3.048
 1910SOL    HW3 7671   4.337   2.327   3.058
 1910SOL    MW4 7672   4.261   2.292   3.082
 1911SOL     OW 7673   4.041   2.423   2.956
 1911SOL    HW2 7674   4.046   2.512   2.989
 1911SOL    HW3 7675   3.968   2.383   3.003
 1911SOL    MW4 7676   4.032   2.429   2.967
 1912SOL     OW 7677   4.045   2.693   3.077
 1912SOL    HW2 7678   4.043   2.705   3.172
 1912SOL    HW3 7679   3.973   2.747   3.044
 1912SOL    MW4 7680   4.035   2.702   3.085
 1913SOL     OW 7681   4.268   2.847   3.020
 1913SOL    HW2 7682   4.190   2.793   3.033
 1913SOL    HW3 7683   4.340   2.794   3.055
 1913SOL    MW4 7684   4.268   2.833   3.027
 1914SOL     OW 7685   4.255   3.112   3.071
 1914SOL    HW2 7686   4.176   3.144   3.027
 1914SOL    HW3 7687   4.258   3.019   3.050
 1914SOL    MW4 7688   4.245   3.104   3.062
 1915SOL     OW 7689   4.014   3.217   2.994
 1915SOL    HW2 7690   4.041   3.304   3.025
 1915SOL    HW3 7691   4.000   3.228   2.900
 1915SOL    MW4 7692   4.015   3.230   2.986
 1916SOL     OW 7693   4.035   3.461   3.119
 1916SOL    HW2 7694   4.041   3.470   3.214
 1916SOL    HW3 7695   3.947   3.492   3.097
 1916SOL    MW4 7696   4.024   3.466   3.129
 1917SOL     OW 7697   4.235   3.594   2.999
 1917SOL    HW2 7698   4.213   3.681   3.031
 1917SOL    HW3 7699   4.165   3.538   3.033
 1917SOL    MW4 7700   4.223   3.598   3.008
 1918SOL     OW 7701   4.257   3.861   3.083
 1918SOL    HW2 7702   4.190   3.905   3.031
 1918SOL    HW3 7703   4.340   3.888   3.043
 1918SOL    MW4 7704   4.259   3.870   3.071
 1919SOL     OW 7705   4.029   3.989   2.950
 1919SOL    HW2 7706   4.032   4.074   2.993
 1919SOL    HW3 7707   3.966   3.938   3.001
 1919SOL    MW4 7708   4.021   3.993   2.962
 1920SOL     OW 7709   4.040   4.225   3.089
 1920SOL    HW2 7710   4.017   4.253   3.178
 1920SOL    HW3 7711   4.127   4.263   3.074
 1920SOL    MW4 7712   4.048   4.234   3.099
 1921SOL     OW 7713   4.289   4.328   3.003
 1921SOL    HW2 7714   4.379   4.308   3.027
 1921SOL    HW3 7715   4.289   4.332   2.908
 1921SOL    MW4 7716   4.301   4.326   2.994
 1922SOL     OW 7717   0.222   0.009   3.356
 1922SOL    HW2 7718   0.293   0.046   3.409
 1922SOL    HW3 7719   0.220  -0.084   3.381
 1922SOL    MW4 7720   0.231   0.001   3.367
 1923SOL     OW 7721   4.487   0.103   3.501
 1923SOL    HW2 7722   4.483   0.195   3.476
 1923SOL    HW3 7723   4.573   0.074   3.471
 1923SOL    MW4 7724   4.498   0.111   3.494
 1924SOL     OW 7725   4.461   0.375   3.380
 1924SOL    HW2 7726   4.380   0.424   3.393
 1924SOL    HW3 7727   4.529   0.430   3.419
 1924SOL    MW4 7728   4.459   0.389   3.387
 1925SOL     OW 7729   0.182   0.507   3.488
 1925SOL    HW2 7730   0.251   0.455   3.447
 1925SOL    HW3 7731   0.194   0.595   3.452
 1925SOL    MW4 7732   0.192   0.512   3.478
 1926SOL     OW 7733   0.201   0.773   3.380
 1926SOL    HW2 7734   0.282   0.814   3.411
 1926SOL    HW3 7735   0.131   0.830   3.414
 1926SOL    MW4 7736   0.202   0.786   3.389
 1927SOL     OW 7737   4.479   0.912   3.481
 1927SOL    HW2 7738   4.469   0.912   3.576
 1927SOL    HW3 7739   4.485   1.004   3.457
 1927SOL    MW4 7740   4.479   0.924   3.490
 1928SOL     OW 7741   4.476   1.173   3.373
 1928SOL    HW2 7742   4.544   1.226   3.415
 1928SOL    HW3 7743   4.508   1.158   3.284
 1928SOL    MW4 7744   4.489   1.178   3.367
 1929SOL     OW 7745   0.210   1.320   3.472
 1929SOL    HW2 7746   0.290   1.284   3.431
 1929SOL    HW3 7747   0.215   1.414   3.455
 1929SOL    MW4 7748   0.221   1.328   3.464
 1930SOL     OW 7749   0.226   1.600   3.407
 1930SOL    HW2 7750   0.314   1.636   3.423
 1930SOL    HW3 7751   0.225   1.579   3.314
 1930SOL    MW4 7752   0.238   1.602   3.397
 1931SOL     OW 7753   4.483   1.671   3.511
 1931SOL    HW2 7754   4.420   1.614   3.470
 1931SOL    HW3 7755   4.568   1.641   3.478
 1931SOL    MW4 7756   4.486   1.660   3.502
 1932SOL     OW 7757   4.457   1.921   3.417
 1932SOL    HW2 7758   4.460   1.834   3.455
 1932SOL    HW3 7759   4.447   1.906   3.323
 1932SOL    MW4 7760   4.456   1.908   3.410
 1933SOL     OW 7761   0.202   2.060   3.481
 1933SOL    HW2 7762   0.189   2.076   3.575
 1933SOL    HW3 7763   0.121   2.017   3.453
 1933SOL    MW4 7764   0.190   2.056   3.490
 1934SOL     OW 7765   0.232   2.331   3.395
 1934SOL    HW2 7766   0.146   2.370   3.413
 1934SOL    HW3 7767   0.222   2.239   3.417
 1934SOL    MW4 7768   0.219   2.324   3.400
 1935SOL     OW 7769   4.480   2.451   3.431
 1935SOL    HW2 7770   4.489   2.429   3.524
 1935SOL    HW3 7771   4.394   2.418   3.407
 1935SOL    MW4 7772   4.470   2.444   3.440
 1936SOL     OW 7773   4.474   2.716   3.366
 1936SOL    HW2 7774   4.557   2.750   3.400
 1936SOL    HW3 7775   4.471   2.626   3.397
 1936SOL    MW4 7776   4.485   2.709   3.374
 1937SOL     OW 7777   0.219   2.862   3.483
 1937SOL    HW2 7778   0.296   2.810   3.463
 1937SOL    HW3 7779   0.238   2.949   3.448
 1937SOL    MW4 7780   0.232   2.866   3.476
 1938SOL     OW 7781   0.255   3.105   3.395
 1938SOL    HW2 7782   0.175   3.155   3.410
 1938SOL    HW3 7783   0.259   3.094   3.300
 1938SOL    MW4 7784   0.245   3.110   3.385
 1939SOL     OW 7785   0.035   3.259   3.472
 1939SOL    HW2 7786  -0.041   3.218   3.432
 1939SOL    HW3 7787   0.037   3.348   3.436
 1939SOL    MW4 7788   0.026   3.266   3.462
 1940SOL     OW 7789   0.033   3.515   3.373
 1940SOL    HW2 7790  -0.053   3.552   3.393
 1940SOL    HW3 7791   0.036   3.511   3.277
 1940SOL    MW4 7792   0.022   3.520   3.363
 1941SOL     OW 7793   0.234   3.661   3.493
 1941SOL    HW2 7794   0.227   3.646   3.587
 1941SOL    HW3 7795   0.160   3.614   3.456
 1941SOL    MW4 7796   0.223   3.653   3.501
 1942SOL     OW 7797   0.265   3.894   3.361
 1942SOL    HW2 7798   0.183   3.936   3.390
 1942SOL    HW3 7799   0.262   3.807   3.400
 1942SOL    MW4 7800   0.253   3.888   3.370
 1943SOL     OW 7801   0.018   3.990   3.440
 1943SOL    HW2 7802   0.015   3.997   3.536
 1943SOL    HW3 7803   0.000   4.078   3.409
 1943SOL    MW4 7804   0.016   4.002   3.449
 1944SOL     OW 7805   4.463   4.270   3.355
 1944SOL    HW2 7806   4.384   4.313   3.388
 1944SOL    HW3 7807   4.535   4.321   3.392
 1944SOL    MW4 7808   4.462   4.282   3.364
 1945SOL     OW 7809   0.187   4.403   3.424
 1945SOL    HW2 7810   0.192   4.389   3.519
 1945SOL    HW3 7811   0.269   4.368   3.390
 1945SOL    MW4 7812   0.198   4.397   3.432
 1946SOL     OW 7813   0.642   0.009   3.362
 1946SOL    HW2 7814   0.718   0.057   3.396
 1946SOL    HW3 7815   0.647   0.021   3.267
 1946SOL    MW4 7816   0.653   0.017   3.353
 1947SOL     OW 7817   0.448   0.135   3.490
 1947SOL    HW2 7818   0.442   0.112   3.583
 1947SOL    HW3 7819   0.508   0.069   3.453
 1947SOL    MW4 7820   0.455   0.123   3.497
 1948SOL     OW 7821   0.424   0.391   3.388
 1948SOL    HW2 7822   0.502   0.436   3.419
 1948SOL    HW3 7823   0.436   0.300   3.417
 1948SOL    MW4 7824   0.436   0.385   3.396
 1949SOL     OW 7825   0.668   0.491   3.464
 1949SOL    HW2 7826   0.674   0.468   3.557
 1949SOL    HW3 7827   0.744   0.448   3.424
 1949SOL    MW4 7828   0.679   0.482   3.471
 1950SOL     OW 7829   0.684   0.772   3.409
 1950SOL    HW2 7830   0.601   0.815   3.431
 1950SOL    HW3 7831   0.678   0.686   3.451
 1950SOL    MW4 7832   0.672   0.766   3.417
 1951SOL     OW 7833   0.439   0.888   3.456
 1951SOL    HW2 7834   0.434   0.898   3.551
 1951SOL    HW3 7835   0.443   0.977   3.422
 1951SOL    MW4 7836   0.439   0.901   3.464
 1952SOL     OW 7837   0.432   1.153   3.385
 1952SOL    HW2 7838   0.510   1.200   3.414
 1952SOL    HW3 7839   0.438   1.153   3.290
 1952SOL    MW4 7840   0.443   1.159   3.376
 1953SOL     OW 7841   0.657   1.278   3.473
 1953SOL    HW2 7842   0.727   1.231   3.428
 1953SOL    HW3 7843   0.673   1.370   3.451
 1953SOL    MW4 7844   0.668   1.284   3.464
 1954SOL     OW 7845   0.702   1.542   3.367
 1954SOL    HW2 7846   0.783   1.581   3.398
 1954SOL    HW3 7847   0.633   1.585   3.418
 1954SOL    MW4 7848   0.703   1.553   3.378
 1955SOL     OW 7849   0.505   1.697   3.498
 1955SOL    HW2 7850   0.490   1.696   3.592
 1955SOL    HW3 7851   0.485   1.786   3.470
 1955SOL    MW4 7852   0.500   1.708   3.506
 1956SOL     OW 7853   0.411   1.936   3.342
 1956SOL    HW2 7854   0.347   1.991   3.385
 1956SOL    HW3 7855   0.406   1.959   3.249
 1956SOL    MW4 7856   0.402   1.946   3.335
 1957SOL     OW 7857   0.633   2.027   3.471
 1957SOL    HW2 7858   0.614   2.010   3.563
 1957SOL    HW3 7859   0.557   1.991   3.424
 1957SOL    MW4 7860   0.620   2.020   3.477
 1958SOL     OW 7861   0.657   2.303   3.386
 1958SOL    HW2 7862   0.735   2.342   3.426
 1958SOL    HW3 7863   0.650   2.216   3.426
 1958SOL    MW4 7864   0.666   2.296   3.397
 1959SOL     OW 7865   0.443   2.466   3.520
 1959SOL    HW2 7866   0.514   2.420   3.476
 1959SOL    HW3 7867   0.364   2.421   3.490
 1959SOL    MW4 7868   0.442   2.454   3.510
 1960SOL     OW 7869   0.434   2.721   3.385
 1960SOL    HW2 7870   0.432   2.635   3.427
 1960SOL    HW3 7871   0.416   2.702   3.293
 1960SOL    MW4 7872   0.431   2.707   3.378
 1961SOL     OW 7873   0.685   2.837   3.487
 1961SOL    HW2 7874   0.757   2.821   3.426
 1961SOL    HW3 7875   0.608   2.802   3.443
 1961SOL    MW4 7876   0.684   2.830   3.473
 1962SOL     OW 7877   0.674   3.077   3.356
 1962SOL    HW2 7878   0.608   3.129   3.402
 1962SOL    HW3 7879   0.681   2.997   3.408
 1962SOL    MW4 7880   0.666   3.073   3.369
 1963SOL     OW 7881   0.484   3.225   3.491
 1963SOL    HW2 7882   0.494   3.218   3.586
 1963SOL    HW3 7883   0.396   3.190   3.474
 1963SOL    MW4 7884   0.474   3.219   3.502
 1964SOL     OW 7885   0.448   3.493   3.366
 1964SOL    HW2 7886   0.452   3.403   3.400
 1964SOL    HW3 7887   0.372   3.532   3.410
 1964SOL    MW4 7888   0.438   3.486   3.377
 1965SOL     OW 7889   0.680   3.649   3.464
 1965SOL    HW2 7890   0.757   3.594   3.446
 1965SOL    HW3 7891   0.605   3.593   3.442
 1965SOL    MW4 7892   0.681   3.634   3.459
 1966SOL     OW 7893   0.661   3.867   3.308
 1966SOL    HW2 7894   0.593   3.915   3.357
 1966SOL    HW3 7895   0.665   3.782   3.351
 1966SOL    MW4 7896   0.652   3.862   3.320
 1967SOL     OW 7897   0.488   4.013   3.463
 1967SOL    HW2 7898   0.496   4.105   3.437
 1967SOL    HW3 7899   0.409   3.983   3.420
 1967SOL    MW4 7900   0.479   4.022   3.454
 1968SOL     OW 7901   0.443   4.270   3.351
 1968SOL    HW2 7902   0.509   4.320   3.397
 1968SOL    HW3 7903   0.478   4.259   3.263
 1968SOL    MW4 7904   0.456   4.275   3.345
 1969SOL     OW 7905   0.657   4.415   3.460
 1969SOL    HW2 7906   0.735   4.371   3.426
 1969SOL    HW3 7907   0.659   4.502   3.421
 1969SOL    MW4 7908   0.668   4.421   3.450
 1970SOL     OW 7909   1.074   4.656   3.339
 1970SOL    HW2 7910   1.145   4.709   3.375
 1970SOL    HW3 7911   1.085   4.662   3.244
 1970SOL    MW4 7912   1.085   4.664   3.331
 1971SOL     OW 7913   0.891   0.159   3.474
 1971SOL    HW2 7914   0.898   0.152   3.569
 1971SOL    HW3 7915   0.950   0.091   3.441
 1971SOL    MW4 7916   0.900   0.149   3.482
 1972SOL     OW 7917   0.894   0.402   3.357
 1972SOL    HW2 7918   0.954   0.458   3.406
 1972SOL    HW3 7919   0.908   0.315   3.394
 1972SOL    MW4 7920   0.904   0.398   3.368
 1973SOL     OW 7921   1.084   0.533   3.487
 1973SOL    HW2 7922   1.115   0.526   3.577
 1973SOL    HW3 7923   1.109   0.621   3.459
 1973SOL    MW4 7924   1.091   0.543   3.495
 1974SOL     OW 7925   1.150   0.775   3.359
 1974SOL    HW2 7926   1.232   0.810   3.394
 1974SOL    HW3 7927   1.082   0.830   3.398
 1974SOL    MW4 7928   1.152   0.787   3.368
 1975SOL     OW 7929   0.921   0.905   3.473
 1975SOL    HW2 7930   0.907   0.995   3.443
 1975SOL    HW3 7931   0.838   0.861   3.456
 1975SOL    MW4 7932   0.908   0.911   3.467
 1976SOL     OW 7933   0.899   1.152   3.375
 1976SOL    HW2 7934   0.969   1.215   3.392
 1976SOL    HW3 7935   0.907   1.132   3.282
 1976SOL    MW4 7936   0.910   1.158   3.365
 1977SOL     OW 7937   1.142   1.270   3.465
 1977SOL    HW2 7938   1.145   1.268   3.560
 1977SOL    HW3 7939   1.150   1.363   3.442
 1977SOL    MW4 7940   1.144   1.282   3.474
 1978SOL     OW 7941   1.114   1.531   3.354
 1978SOL    HW2 7942   1.186   1.587   3.382
 1978SOL    HW3 7943   1.121   1.527   3.258
 1978SOL    MW4 7944   1.124   1.538   3.345
 1979SOL     OW 7945   0.918   1.715   3.461
 1979SOL    HW2 7946   0.899   1.786   3.401
 1979SOL    HW3 7947   0.993   1.670   3.421
 1979SOL    MW4 7948   0.926   1.718   3.448
 1980SOL     OW 7949   0.842   1.946   3.309
 1980SOL    HW2 7950   0.918   1.986   3.352
 1980SOL    HW3 7951   0.770   1.957   3.371
 1980SOL    MW4 7952   0.843   1.953   3.323
 1981SOL     OW 7953   1.069   2.067   3.433
 1981SOL    HW2 7954   1.156   2.029   3.418
 1981SOL    HW3 7955   1.074   2.154   3.394
 1981SOL    MW4 7956   1.081   2.073   3.426
 1982SOL     OW 7957   1.078   2.336   3.367
 1982SOL    HW2 7958   1.161   2.383   3.385
 1982SOL    HW3 7959   1.067   2.343   3.273
 1982SOL    MW4 7960   1.088   2.343   3.357
 1983SOL     OW 7961   0.855   2.474   3.489
 1983SOL    HW2 7962   0.852   2.457   3.583
 1983SOL    HW3 7963   0.937   2.434   3.460
 1983SOL    MW4 7964   0.865   2.466   3.497
 1984SOL     OW 7965   0.889   2.735   3.326
 1984SOL    HW2 7966   0.970   2.757   3.373
 1984SOL    HW3 7967   0.861   2.652   3.365
 1984SOL    MW4 7968   0.896   2.727   3.338
 1985SOL     OW 7969   1.090   2.856   3.481
 1985SOL    HW2 7970   1.060   2.841   3.571
 1985SOL    HW3 7971   1.176   2.814   3.477
 1985SOL    MW4 7972   1.097   2.849   3.493
 1986SOL     OW 7973   1.125   3.128   3.371
 1986SOL    HW2 7974   1.117   3.040   3.408
 1986SOL    HW3 7975   1.149   3.113   3.279
 1986SOL    MW4 7976   1.127   3.114   3.364
 1987SOL     OW 7977   0.868   3.207   3.488
 1987SOL    HW2 7978   0.946   3.167   3.447
 1987SOL    HW3 7979   0.794   3.165   3.444
 1987SOL    MW4 7980   0.869   3.196   3.477
 1988SOL     OW 7981   0.890   3.467   3.411
 1988SOL    HW2 7982   0.884   3.378   3.447
 1988SOL    HW3 7983   0.880   3.456   3.317
 1988SOL    MW4 7984   0.888   3.454   3.404
 1989SOL     OW 7985   1.117   3.615   3.470
 1989SOL    HW2 7986   1.122   3.615   3.565
 1989SOL    HW3 7987   1.033   3.574   3.451
 1989SOL    MW4 7988   1.106   3.610   3.480
 1990SOL     OW 7989   1.117   3.884   3.361
 1990SOL    HW2 7990   1.198   3.908   3.406
 1990SOL    HW3 7991   1.097   3.796   3.395
 1990SOL    MW4 7992   1.125   3.875   3.371
 1991SOL     OW 7993   0.866   3.992   3.459
 1991SOL    HW2 7994   0.944   3.951   3.422
 1991SOL    HW3 7995   0.793   3.955   3.409
 1991SOL    MW4 7996   0.866   3.982   3.448
 1992SOL     OW 7997   0.880   4.259   3.396
 1992SOL    HW2 7998   0.880   4.169   3.427
 1992SOL    HW3 7999   0.887   4.252   3.301
 1992SOL    MW4 8000   0.881   4.246   3.387
 1993SOL     OW 8001   1.102   4.393   3.457
 1993SOL    HW2 8002   1.022   4.346   3.433
 1993SOL    HW3 8003   1.087   4.482   3.425
 1993SOL    MW4 8004   1.089   4.399   3.449
 1994SOL     OW 8005   1.522   4.656   3.387
 1994SOL    HW2 8006   1.511   4.573   3.433
 1994SOL    HW3 8007   1.442   4.706   3.409
 1994SOL    MW4 8008   1.510   4.652   3.396
 1995SOL     OW 8009   1.269   0.154   3.455
 1995SOL    HW2 8010   1.277   0.164   3.550
 1995SOL    HW3 8011   1.273   0.243   3.421
 1995SOL    MW4 8012   1.270   0.167   3.463
 1996SOL     OW 8013   1.295   0.395   3.334
 1996SOL    HW2 8014   1.382   0.419   3.366
 1996SOL    HW3 8015   1.236   0.457   3.377
 1996SOL    MW4 8016   1.298   0.407   3.344
 1997SOL     OW 8017   1.516   0.509   3.437
 1997SOL    HW2 8018   1.525   0.523   3.531
 1997SOL    HW3 8019   1.591   0.454   3.414
 1997SOL    MW4 8020   1.527   0.503   3.446
 1998SOL     OW 8021   1.590   0.762   3.346
 1998SOL    HW2 8022   1.519   0.825   3.358
 1998SOL    HW3 8023   1.553   0.679   3.375
 1998SOL    MW4 8024   1.576   0.759   3.351
 1999SOL     OW 8025   1.379   0.909   3.452
 1999SOL    HW2 8026   1.361   0.915   3.546
 1999SOL    HW3 8027   1.362   0.998   3.419
 1999SOL    MW4 8028   1.374   0.922   3.460
 2000SOL     OW 8029   1.350   1.144   3.346
 2000SOL    HW2 8030   1.415   1.191   3.398
 2000SOL    HW3 8031   1.266   1.181   3.373
 2000SOL    MW4 8032   1.347   1.155   3.356
 2001SOL     OW 8033   1.562   1.287   3.487
 2001SOL    HW2 8034   1.565   1.290   3.583
 2001SOL    HW3 8035   1.649   1.255   3.462
 2001SOL    MW4 8036   1.574   1.283   3.496
 2002SOL     OW 8037   1.557   1.560   3.421
 2002SOL    HW2 8038   1.569   1.469   3.448
 2002SOL    HW3 8039   1.554   1.555   3.325
 2002SOL    MW4 8040   1.558   1.547   3.412
 2003SOL     OW 8041   1.322   1.685   3.450
 2003SOL    HW2 8042   1.333   1.686   3.545
 2003SOL    HW3 8043   1.403   1.647   3.417
 2003SOL    MW4 8044   1.334   1.680   3.458
 2004SOL     OW 8045   1.329   1.941   3.367
 2004SOL    HW2 8046   1.407   1.983   3.403
 2004SOL    HW3 8047   1.333   1.851   3.398
 2004SOL    MW4 8048   1.340   1.935   3.376
 2005SOL     OW 8049   1.568   2.079   3.448
 2005SOL    HW2 8050   1.640   2.030   3.408
 2005SOL    HW3 8051   1.583   2.170   3.422
 2005SOL    MW4 8052   1.580   2.085   3.440
 2006SOL     OW 8053   1.580   2.333   3.356
 2006SOL    HW2 8054   1.496   2.366   3.385
 2006SOL    HW3 8055   1.568   2.315   3.262
 2006SOL    MW4 8056   1.568   2.335   3.347
 2007SOL     OW 8057   1.331   2.470   3.423
 2007SOL    HW2 8058   1.315   2.443   3.513
 2007SOL    HW3 8059   1.341   2.565   3.427
 2007SOL    MW4 8060   1.330   2.479   3.435
 2008SOL     OW 8061   1.344   2.747   3.387
 2008SOL    HW2 8062   1.423   2.793   3.414
 2008SOL    HW3 8063   1.352   2.739   3.292
 2008SOL    MW4 8064   1.355   2.752   3.378
 2009SOL     OW 8065   1.558   2.886   3.460
 2009SOL    HW2 8066   1.642   2.848   3.437
 2009SOL    HW3 8067   1.567   2.979   3.438
 2009SOL    MW4 8068   1.570   2.893   3.454
 2010SOL     OW 8069   1.626   3.132   3.384
 2010SOL    HW2 8070   1.690   3.187   3.430
 2010SOL    HW3 8071   1.542   3.158   3.421
 2010SOL    MW4 8072   1.623   3.143   3.395
 2011SOL     OW 8073   1.377   3.200   3.465
 2011SOL    HW2 8074   1.365   3.216   3.559
 2011SOL    HW3 8075   1.290   3.172   3.435
 2011SOL    MW4 8076   1.364   3.198   3.474
 2012SOL     OW 8077   1.344   3.455   3.381
 2012SOL    HW2 8078   1.349   3.371   3.426
 2012SOL    HW3 8079   1.263   3.495   3.415
 2012SOL    MW4 8080   1.334   3.449   3.391
 2013SOL     OW 8081   1.564   3.606   3.489
 2013SOL    HW2 8082   1.568   3.600   3.584
 2013SOL    HW3 8083   1.492   3.548   3.465
 2013SOL    MW4 8084   1.555   3.598   3.498
 2014SOL     OW 8085   1.526   3.868   3.371
 2014SOL    HW2 8086   1.539   3.784   3.416
 2014SOL    HW3 8087   1.526   3.846   3.278
 2014SOL    MW4 8088   1.527   3.854   3.364
 2015SOL     OW 8089   1.333   3.990   3.521
 2015SOL    HW2 8090   1.328   4.073   3.473
 2015SOL    HW3 8091   1.404   3.942   3.479
 2015SOL    MW4 8092   1.342   3.995   3.510
 2016SOL     OW 8093   1.317   4.253   3.345
 2016SOL    HW2 8094   1.243   4.307   3.372
 2016SOL    HW3 8095   1.311   4.250   3.249
 2016SOL    MW4 8096   1.307   4.259   3.336
 2017SOL     OW 8097   1.525   4.374   3.487
 2017SOL    HW2 8098   1.609   4.343   3.452
 2017SOL    HW3 8099   1.459   4.325   3.438
 2017SOL    MW4 8100   1.527   4.364   3.476
 2018SOL     OW 8101   1.989   0.006   3.328
 2018SOL    HW2 8102   2.061   0.033   3.384
 2018SOL    HW3 8103   1.913   0.055   3.362
 2018SOL    MW4 8104   1.988   0.016   3.340
 2019SOL     OW 8105   1.766   0.104   3.469
 2019SOL    HW2 8106   1.757   0.115   3.563
 2019SOL    HW3 8107   1.684   0.064   3.441
 2019SOL    MW4 8108   1.754   0.100   3.478
 2020SOL     OW 8109   1.724   0.366   3.364
 2020SOL    HW2 8110   1.742   0.280   3.403
 2020SOL    HW3 8111   1.753   0.357   3.273
 2020SOL    MW4 8112   1.730   0.353   3.357
 2021SOL     OW 8113   1.970   0.486   3.421
 2021SOL    HW2 8114   1.958   0.576   3.390
 2021SOL    HW3 8115   1.884   0.445   3.407
 2021SOL    MW4 8116   1.957   0.492   3.415
 2022SOL     OW 8117   2.007   0.762   3.375
 2022SOL    HW2 8118   2.090   0.802   3.402
 2022SOL    HW3 8119   2.005   0.773   3.280
 2022SOL    MW4 8120   2.018   0.769   3.366
 2023SOL     OW 8121   1.789   0.894   3.489
 2023SOL    HW2 8122   1.867   0.854   3.451
 2023SOL    HW3 8123   1.716   0.844   3.453
 2023SOL    MW4 8124   1.789   0.882   3.479
 2024SOL     OW 8125   1.793   1.171   3.412
 2024SOL    HW2 8126   1.880   1.201   3.438
 2024SOL    HW3 8127   1.790   1.079   3.438
 2024SOL    MW4 8128   1.804   1.163   3.419
 2025SOL     OW 8129   2.054   1.290   3.483
 2025SOL    HW2 8130   2.056   1.291   3.579
 2025SOL    HW3 8131   2.054   1.382   3.458
 2025SOL    MW4 8132   2.054   1.302   3.492
 2026SOL     OW 8133   2.046   1.547   3.365
 2026SOL    HW2 8134   2.124   1.598   3.387
 2026SOL    HW3 8135   1.973   1.600   3.396
 2026SOL    MW4 8136   2.047   1.561   3.372
 2027SOL     OW 8137   1.816   1.679   3.474
 2027SOL    HW2 8138   1.812   1.769   3.442
 2027SOL    HW3 8139   1.730   1.643   3.451
 2027SOL    MW4 8140   1.804   1.686   3.467
 2028SOL     OW 8141   1.799   1.955   3.376
 2028SOL    HW2 8142   1.878   1.986   3.421
 2028SOL    HW3 8143   1.820   1.964   3.283
 2028SOL    MW4 8144   1.812   1.960   3.370
 2029SOL     OW 8145   2.013   2.057   3.502
 2029SOL    HW2 8146   2.096   2.013   3.484
 2029SOL    HW3 8147   2.016   2.137   3.450
 2029SOL    MW4 8148   2.024   2.062   3.493
 2030SOL     OW 8149   2.021   2.296   3.343
 2030SOL    HW2 8150   2.095   2.353   3.361
 2030SOL    HW3 8151   2.007   2.303   3.248
 2030SOL    MW4 8152   2.029   2.304   3.333
 2031SOL     OW 8153   1.816   2.471   3.434
 2031SOL    HW2 8154   1.868   2.397   3.405
 2031SOL    HW3 8155   1.725   2.444   3.421
 2031SOL    MW4 8156   1.811   2.458   3.429
 2032SOL     OW 8157   1.780   2.739   3.382
 2032SOL    HW2 8158   1.861   2.780   3.411
 2032SOL    HW3 8159   1.796   2.645   3.393
 2032SOL    MW4 8160   1.793   2.732   3.388
 2033SOL     OW 8161   1.996   2.893   3.435
 2033SOL    HW2 8162   1.989   2.897   3.531
 2033SOL    HW3 8163   2.026   2.981   3.411
 2033SOL    MW4 8164   1.999   2.905   3.445
 2034SOL     OW 8165   2.066   3.149   3.357
 2034SOL    HW2 8166   2.146   3.179   3.400
 2034SOL    HW3 8167   1.996   3.191   3.406
 2034SOL    MW4 8168   2.067   3.159   3.369
 2035SOL     OW 8169   1.835   3.259   3.477
 2035SOL    HW2 8170   1.815   3.252   3.571
 2035SOL    HW3 8171   1.826   3.352   3.458
 2035SOL    MW4 8172   1.831   3.271   3.487
 2036SOL     OW 8173   1.802   3.510   3.384
 2036SOL    HW2 8174   1.724   3.554   3.418
 2036SOL    HW3 8175   1.784   3.498   3.291
 2036SOL    MW4 8176   1.789   3.515   3.376
 2037SOL     OW 8177   2.015   3.636   3.509
 2037SOL    HW2 8178   2.082   3.576   3.474
 2037SOL    HW3 8179   1.935   3.613   3.462
 2037SOL    MW4 8180   2.014   3.625   3.499
 2038SOL     OW 8181   2.033   3.906   3.359
 2038SOL    HW2 8182   1.946   3.944   3.372
 2038SOL    HW3 8183   2.029   3.822   3.403
 2038SOL    MW4 8184   2.021   3.900   3.367
 2039SOL     OW 8185   1.786   3.994   3.445
 2039SOL    HW2 8186   1.778   3.995   3.540
 2039SOL    HW3 8187   1.698   3.968   3.415
 2039SOL    MW4 8188   1.773   3.990   3.454
 2040SOL     OW 8189   1.757   4.286   3.352
 2040SOL    HW2 8190   1.784   4.198   3.379
 2040SOL    HW3 8191   1.750   4.281   3.257
 2040SOL    MW4 8192   1.760   4.274   3.343
 2041SOL     OW 8193   2.003   4.414   3.387
 2041SOL    HW2 8194   1.910   4.391   3.385
 2041SOL    HW3 8195   2.005   4.508   3.374
 2041SOL    MW4 8196   1.991   4.423   3.385
 2042SOL     OW 8197   2.459   0.017   3.377
 2042SOL    HW2 8198   2.457  -0.073   3.408
 2042SOL    HW3 8199   2.465   0.010   3.282
 2042SOL    MW4 8200   2.459   0.004   3.368
 2043SOL     OW 8201   2.214   0.112   3.455
 2043SOL    HW2 8202   2.222   0.200   3.420
 2043SOL    HW3 8203   2.292   0.067   3.424
 2043SOL    MW4 8204   2.225   0.117   3.446
 2044SOL     OW 8205   2.252   0.362   3.396
 2044SOL    HW2 8206   2.325   0.415   3.427
 2044SOL    HW3 8207   2.175   0.417   3.411
 2044SOL    MW4 8208   2.252   0.376   3.402
 2045SOL     OW 8209   2.459   0.544   3.469
 2045SOL    HW2 8210   2.529   0.500   3.422
 2045SOL    HW3 8211   2.463   0.635   3.440
 2045SOL    MW4 8212   2.468   0.550   3.459
 2046SOL     OW 8213   2.469   0.802   3.389
 2046SOL    HW2 8214   2.547   0.833   3.436
 2046SOL    HW3 8215   2.491   0.812   3.297
 2046SOL    MW4 8216   2.482   0.807   3.383
 2047SOL     OW 8217   2.239   0.909   3.466
 2047SOL    HW2 8218   2.253   1.001   3.440
 2047SOL    HW3 8219   2.312   0.862   3.426
 2047SOL    MW4 8220   2.251   0.915   3.457
 2048SOL     OW 8221   2.272   1.177   3.374
 2048SOL    HW2 8222   2.348   1.214   3.419
 2048SOL    HW3 8223   2.197   1.216   3.418
 2048SOL    MW4 8224   2.272   1.187   3.385
 2049SOL     OW 8225   2.492   1.271   3.509
 2049SOL    HW2 8226   2.500   1.262   3.604
 2049SOL    HW3 8227   2.565   1.220   3.474
 2049SOL    MW4 8228   2.503   1.263   3.517
 2050SOL     OW 8229   2.475   1.523   3.391
 2050SOL    HW2 8230   2.457   1.433   3.415
 2050SOL    HW3 8231   2.447   1.530   3.300
 2050SOL    MW4 8232   2.469   1.512   3.382
 2051SOL     OW 8233   2.259   1.692   3.481
 2051SOL    HW2 8234   2.248   1.685   3.576
 2051SOL    HW3 8235   2.337   1.640   3.461
 2051SOL    MW4 8236   2.268   1.684   3.491
 2052SOL     OW 8237   2.254   1.950   3.377
 2052SOL    HW2 8238   2.264   1.863   3.415
 2052SOL    HW3 8239   2.223   1.934   3.288
 2052SOL    MW4 8240   2.251   1.937   3.370
 2053SOL     OW 8241   2.476   2.084   3.492
 2053SOL    HW2 8242   2.466   2.069   3.587
 2053SOL    HW3 8243   2.400   2.040   3.453
 2053SOL    MW4 8244   2.465   2.076   3.500
 2054SOL     OW 8245   2.455   2.348   3.400
 2054SOL    HW2 8246   2.520   2.405   3.440
 2054SOL    HW3 8247   2.472   2.262   3.437
 2054SOL    MW4 8248   2.466   2.344   3.410
 2055SOL     OW 8249   2.210   2.442   3.468
 2055SOL    HW2 8250   2.218   2.536   3.453
 2055SOL    HW3 8251   2.298   2.407   3.452
 2055SOL    MW4 8252   2.222   2.450   3.464
 2056SOL     OW 8253   2.224   2.709   3.400
 2056SOL    HW2 8254   2.151   2.759   3.435
 2056SOL    HW3 8255   2.216   2.718   3.305
 2056SOL    MW4 8256   2.214   2.716   3.392
 2057SOL     OW 8257   2.423   2.858   3.518
 2057SOL    HW2 8258   2.444   2.937   3.470
 2057SOL    HW3 8259   2.355   2.815   3.466
 2057SOL    MW4 8260   2.417   2.863   3.505
 2058SOL     OW 8261   2.496   3.075   3.376
 2058SOL    HW2 8262   2.585   3.110   3.389
 2058SOL    HW3 8263   2.476   3.096   3.285
 2058SOL    MW4 8264   2.505   3.082   3.366
 2059SOL     OW 8265   2.295   3.221   3.487
 2059SOL    HW2 8266   2.290   3.219   3.583
 2059SOL    HW3 8267   2.373   3.169   3.466
 2059SOL    MW4 8268   2.305   3.214   3.497
 2060SOL     OW 8269   2.188   3.470   3.384
 2060SOL    HW2 8270   2.230   3.390   3.414
 2060SOL    HW3 8271   2.215   3.479   3.292
 2060SOL    MW4 8272   2.197   3.461   3.376
 2061SOL     OW 8273   2.414   3.622   3.483
 2061SOL    HW2 8274   2.412   3.716   3.468
 2061SOL    HW3 8275   2.332   3.590   3.446
 2061SOL    MW4 8276   2.403   3.630   3.476
 2062SOL     OW 8277   2.431   3.889   3.405
 2062SOL    HW2 8278   2.519   3.927   3.407
 2062SOL    HW3 8279   2.374   3.958   3.438
 2062SOL    MW4 8280   2.435   3.903   3.410
 2063SOL     OW 8281   2.222   4.062   3.483
 2063SOL    HW2 8282   2.245   4.140   3.434
 2063SOL    HW3 8283   2.160   4.015   3.427
 2063SOL    MW4 8284   2.217   4.066   3.469
 2064SOL     OW 8285   2.246   4.302   3.334
 2064SOL    HW2 8286   2.153   4.322   3.350
 2064SOL    HW3 8287   2.255   4.310   3.239
 2064SOL    MW4 8288   2.235   4.306   3.323
 2065SOL     OW 8289   2.446   4.410   3.476
 2065SOL    HW2 8290   2.421   4.423   3.567
 2065SOL    HW3 8291   2.365   4.381   3.433
 2065SOL    MW4 8292   2.432   4.408   3.482
 2066SOL     OW 8293   2.920   4.613   3.380
 2066SOL    HW2 8294   2.850   4.669   3.412
 2066SOL    HW3 8295   2.923   4.628   3.286
 2066SOL    MW4 8296   2.912   4.622   3.372
 2067SOL     OW 8297   2.717   0.120   3.439
 2067SOL    HW2 8298   2.710   0.211   3.413
 2067SOL    HW3 8299   2.634   0.081   3.412
 2067SOL    MW4 8300   2.705   0.126   3.432
 2068SOL     OW 8301   2.678   0.392   3.356
 2068SOL    HW2 8302   2.767   0.411   3.386
 2068SOL    HW3 8303   2.684   0.394   3.261
 2068SOL    MW4 8304   2.691   0.395   3.347
 2069SOL     OW 8305   2.941   0.454   3.445
 2069SOL    HW2 8306   2.938   0.472   3.538
 2069SOL    HW3 8307   2.948   0.540   3.404
 2069SOL    MW4 8308   2.942   0.468   3.452
 2070SOL     OW 8309   2.901   0.709   3.325
 2070SOL    HW2 8310   2.976   0.761   3.353
 2070SOL    HW3 8311   2.829   0.739   3.379
 2070SOL    MW4 8312   2.902   0.720   3.336
 2071SOL     OW 8313   2.725   0.850   3.474
 2071SOL    HW2 8314   2.727   0.836   3.569
 2071SOL    HW3 8315   2.720   0.945   3.464
 2071SOL    MW4 8316   2.724   0.861   3.485
 2072SOL     OW 8317   2.700   1.125   3.408
 2072SOL    HW2 8318   2.781   1.168   3.436
 2072SOL    HW3 8319   2.700   1.134   3.312
 2072SOL    MW4 8320   2.711   1.132   3.399
 2073SOL     OW 8321   2.931   1.262   3.447
 2073SOL    HW2 8322   2.933   1.280   3.541
 2073SOL    HW3 8323   3.013   1.218   3.429
 2073SOL    MW4 8324   2.942   1.259   3.457
 2074SOL     OW 8325   2.942   1.531   3.373
 2074SOL    HW2 8326   2.858   1.562   3.407
 2074SOL    HW3 8327   2.948   1.440   3.403
 2074SOL    MW4 8328   2.932   1.523   3.382
 2075SOL     OW 8329   2.720   1.661   3.491
 2075SOL    HW2 8330   2.716   1.751   3.459
 2075SOL    HW3 8331   2.651   1.616   3.443
 2075SOL    MW4 8332   2.710   1.667   3.481
 2076SOL     OW 8333   2.681   1.932   3.381
 2076SOL    HW2 8334   2.616   1.980   3.432
 2076SOL    HW3 8335   2.644   1.928   3.293
 2076SOL    MW4 8336   2.668   1.938   3.376
 2077SOL     OW 8337   2.928   2.060   3.459
 2077SOL    HW2 8338   2.907   2.049   3.552
 2077SOL    HW3 8339   2.878   1.991   3.415
 2077SOL    MW4 8340   2.919   2.049   3.466
 2078SOL     OW 8341   2.888   2.328   3.384
 2078SOL    HW2 8342   2.892   2.235   3.404
 2078SOL    HW3 8343   2.882   2.332   3.289
 2078SOL    MW4 8344   2.888   2.316   3.374
 2079SOL     OW 8345   2.691   2.480   3.513
 2079SOL    HW2 8346   2.689   2.454   3.605
 2079SOL    HW3 8347   2.768   2.437   3.477
 2079SOL    MW4 8348   2.701   2.471   3.521
 2080SOL     OW 8349   2.678   2.748   3.445
 2080SOL    HW2 8350   2.679   2.652   3.449
 2080SOL    HW3 8351   2.591   2.771   3.477
 2080SOL    MW4 8352   2.666   2.738   3.450
 2081SOL     OW 8353   2.905   2.892   3.473
 2081SOL    HW2 8354   2.905   2.885   3.569
 2081SOL    HW3 8355   2.820   2.858   3.447
 2081SOL    MW4 8356   2.894   2.886   3.482
 2082SOL     OW 8357   2.931   3.145   3.350
 2082SOL    HW2 8358   2.921   3.057   3.388
 2082SOL    HW3 8359   2.930   3.129   3.255
 2082SOL    MW4 8360   2.929   3.131   3.343
 2083SOL     OW 8361   2.702   3.238   3.468
 2083SOL    HW2 8362   2.709   3.214   3.561
 2083SOL    HW3 8363   2.786   3.213   3.431
 2083SOL    MW4 8364   2.714   3.232   3.476
 2084SOL     OW 8365   2.661   3.498   3.395
 2084SOL    HW2 8366   2.656   3.407   3.422
 2084SOL    HW3 8367   2.579   3.537   3.424
 2084SOL    MW4 8368   2.650   3.491   3.402
 2085SOL     OW 8369   2.878   3.619   3.485
 2085SOL    HW2 8370   2.883   3.706   3.445
 2085SOL    HW3 8371   2.799   3.581   3.448
 2085SOL    MW4 8372   2.868   3.625   3.475
 2086SOL     OW 8373   2.899   3.872   3.375
 2086SOL    HW2 8374   2.973   3.916   3.416
 2086SOL    HW3 8375   2.822   3.920   3.406
 2086SOL    MW4 8376   2.898   3.884   3.385
 2087SOL     OW 8377   2.680   4.023   3.434
 2087SOL    HW2 8378   2.680   4.026   3.529
 2087SOL    HW3 8379   2.683   4.115   3.407
 2087SOL    MW4 8380   2.681   4.036   3.443
 2088SOL     OW 8381   2.668   4.290   3.346
 2088SOL    HW2 8382   2.744   4.326   3.392
 2088SOL    HW3 8383   2.592   4.325   3.393
 2088SOL    MW4 8384   2.668   4.299   3.358
 2089SOL     OW 8385   2.920   4.372   3.490
 2089SOL    HW2 8386   2.908   4.391   3.584
 2089SOL    HW3 8387   2.928   4.459   3.450
 2089SOL    MW4 8388   2.919   4.386   3.497
 2090SOL     OW 8389   3.384   4.643   3.354
 2090SOL    HW2 8390   3.304   4.671   3.397
 2090SOL    HW3 8391   3.365   4.649   3.261
 2090SOL    MW4 8392   3.371   4.647   3.348
 2091SOL     OW 8393   3.147   0.036   3.482
 2091SOL    HW2 8394   3.152   0.128   3.454
 2091SOL    HW3 8395   3.060   0.007   3.457
 2091SOL    MW4 8396   3.136   0.044   3.475
 2092SOL     OW 8397   3.144   0.287   3.381
 2092SOL    HW2 8398   3.070   0.333   3.420
 2092SOL    HW3 8399   3.132   0.298   3.287
 2092SOL    MW4 8400   3.133   0.295   3.374
 2093SOL     OW 8401   3.318   0.495   3.448
 2093SOL    HW2 8402   3.321   0.499   3.543
 2093SOL    HW3 8403   3.240   0.443   3.429
 2093SOL    MW4 8404   3.308   0.488   3.458
 2094SOL     OW 8405   3.349   0.753   3.341
 2094SOL    HW2 8406   3.420   0.793   3.391
 2094SOL    HW3 8407   3.343   0.664   3.375
 2094SOL    MW4 8408   3.358   0.746   3.352
 2095SOL     OW 8409   3.105   0.859   3.449
 2095SOL    HW2 8410   3.113   0.948   3.415
 2095SOL    HW3 8411   3.181   0.813   3.411
 2095SOL    MW4 8412   3.116   0.865   3.439
 2096SOL     OW 8413   3.153   1.113   3.358
 2096SOL    HW2 8414   3.232   1.161   3.384
 2096SOL    HW3 8415   3.155   1.114   3.263
 2096SOL    MW4 8416   3.164   1.120   3.349
 2097SOL     OW 8417   3.349   1.265   3.495
 2097SOL    HW2 8418   3.434   1.229   3.467
 2097SOL    HW3 8419   3.351   1.356   3.465
 2097SOL    MW4 8420   3.361   1.273   3.487
 2098SOL     OW 8421   3.371   1.540   3.383
 2098SOL    HW2 8422   3.446   1.570   3.435
 2098SOL    HW3 8423   3.296   1.583   3.422
 2098SOL    MW4 8424   3.371   1.550   3.395
 2099SOL     OW 8425   3.158   1.673   3.510
 2099SOL    HW2 8426   3.150   1.762   3.474
 2099SOL    HW3 8427   3.077   1.630   3.483
 2099SOL    MW4 8428   3.146   1.679   3.501
 2100SOL     OW 8429   3.149   1.904   3.381
 2100SOL    HW2 8430   3.084   1.969   3.410
 2100SOL    HW3 8431   3.155   1.917   3.287
 2100SOL    MW4 8432   3.141   1.915   3.373
 2101SOL     OW 8433   3.376   2.039   3.492
 2101SOL    HW2 8434   3.371   2.129   3.459
 2101SOL    HW3 8435   3.297   1.997   3.459
 2101SOL    MW4 8436   3.365   2.046   3.483
 2102SOL     OW 8437   3.346   2.301   3.391
 2102SOL    HW2 8438   3.419   2.352   3.424
 2102SOL    HW3 8439   3.268   2.348   3.421
 2102SOL    MW4 8440   3.345   2.313   3.399
 2103SOL     OW 8441   3.114   2.433   3.471
 2103SOL    HW2 8442   3.093   2.523   3.446
 2103SOL    HW3 8443   3.042   2.381   3.435
 2103SOL    MW4 8444   3.101   2.438   3.463
 2104SOL     OW 8445   3.090   2.712   3.355
 2104SOL    HW2 8446   3.167   2.743   3.402
 2104SOL    HW3 8447   3.019   2.767   3.388
 2104SOL    MW4 8448   3.091   2.724   3.365
 2105SOL     OW 8449   3.316   2.825   3.449
 2105SOL    HW2 8450   3.402   2.787   3.427
 2105SOL    HW3 8451   3.325   2.918   3.428
 2105SOL    MW4 8452   3.329   2.832   3.443
 2106SOL     OW 8453   3.325   3.111   3.372
 2106SOL    HW2 8454   3.407   3.146   3.406
 2106SOL    HW3 8455   3.257   3.161   3.418
 2106SOL    MW4 8456   3.327   3.122   3.383
 2107SOL     OW 8457   3.135   3.280   3.488
 2107SOL    HW2 8458   3.148   3.363   3.441
 2107SOL    HW3 8459   3.068   3.234   3.438
 2107SOL    MW4 8460   3.128   3.285   3.475
 2108SOL     OW 8461   3.141   3.535   3.376
 2108SOL    HW2 8462   3.049   3.540   3.401
 2108SOL    HW3 8463   3.140   3.523   3.281
 2108SOL    MW4 8464   3.129   3.534   3.367
 2109SOL     OW 8465   3.365   3.607   3.513
 2109SOL    HW2 8466   3.366   3.699   3.488
 2109SOL    HW3 8467   3.283   3.574   3.478
 2109SOL    MW4 8468   3.355   3.615   3.505
 2110SOL     OW 8469   3.353   3.847   3.375
 2110SOL    HW2 8470   3.423   3.905   3.402
 2110SOL    HW3 8471   3.273   3.892   3.400
 2110SOL    MW4 8472   3.351   3.860   3.382
 2111SOL     OW 8473   3.152   4.010   3.477
 2111SOL    HW2 8474   3.139   4.020   3.572
 2111SOL    HW3 8475   3.150   4.099   3.442
 2111SOL    MW4 8476   3.150   4.023   3.485
 2112SOL     OW 8477   3.129   4.265   3.358
 2112SOL    HW2 8478   3.200   4.310   3.404
 2112SOL    HW3 8479   3.049   4.304   3.393
 2112SOL    MW4 8480   3.128   4.276   3.368
 2113SOL     OW 8481   3.365   4.384   3.470
 2113SOL    HW2 8482   3.366   4.395   3.565
 2113SOL    HW3 8483   3.366   4.473   3.435
 2113SOL    MW4 8484   3.365   4.397   3.478
 2114SOL     OW 8485   3.826   4.658   3.414
 2114SOL    HW2 8486   3.748   4.711   3.433
 2114SOL    HW3 8487   3.836   4.662   3.319
 2114SOL    MW4 8488   3.817   4.665   3.404
 2115SOL     OW 8489   3.594   0.112   3.477
 2115SOL    HW2 8490   3.577   0.202   3.447
 2115SOL    HW3 8491   3.529   0.059   3.432
 2115SOL    MW4 8492   3.583   0.117   3.467
 2116SOL     OW 8493   3.567   0.382   3.325
 2116SOL    HW2 8494   3.641   0.422   3.371
 2116SOL    HW3 8495   3.490   0.412   3.375
 2116SOL    MW4 8496   3.567   0.391   3.338
 2117SOL     OW 8497   3.767   0.463   3.476
 2117SOL    HW2 8498   3.759   0.471   3.571
 2117SOL    HW3 8499   3.857   0.433   3.462
 2117SOL    MW4 8500   3.778   0.460   3.487
 2118SOL     OW 8501   3.803   0.715   3.380
 2118SOL    HW2 8502   3.874   0.744   3.438
 2118SOL    HW3 8503   3.780   0.628   3.413
 2118SOL    MW4 8504   3.809   0.708   3.392
 2119SOL     OW 8505   3.565   0.869   3.467
 2119SOL    HW2 8506   3.572   0.880   3.561
 2119SOL    HW3 8507   3.653   0.843   3.438
 2119SOL    MW4 8508   3.577   0.867   3.475
 2120SOL     OW 8509   3.562   1.124   3.387
 2120SOL    HW2 8510   3.561   1.029   3.401
 2120SOL    HW3 8511   3.539   1.135   3.295
 2120SOL    MW4 8512   3.559   1.113   3.377
 2121SOL     OW 8513   3.786   1.254   3.505
 2121SOL    HW2 8514   3.779   1.240   3.600
 2121SOL    HW3 8515   3.710   1.210   3.469
 2121SOL    MW4 8516   3.775   1.247   3.513
 2122SOL     OW 8517   3.823   1.521   3.390
 2122SOL    HW2 8518   3.902   1.560   3.426
 2122SOL    HW3 8519   3.807   1.443   3.444
 2122SOL    MW4 8520   3.831   1.516   3.402
 2123SOL     OW 8521   3.593   1.628   3.528
 2123SOL    HW2 8522   3.578   1.720   3.505
 2123SOL    HW3 8523   3.673   1.604   3.481
 2123SOL    MW4 8524   3.601   1.637   3.519
 2124SOL     OW 8525   3.602   1.888   3.421
 2124SOL    HW2 8526   3.674   1.952   3.423
 2124SOL    HW3 8527   3.526   1.938   3.450
 2124SOL    MW4 8528   3.602   1.903   3.425
 2125SOL     OW 8529   3.811   2.081   3.462
 2125SOL    HW2 8530   3.787   2.088   3.554
 2125SOL    HW3 8531   3.882   2.016   3.461
 2125SOL    MW4 8532   3.817   2.073   3.474
 2126SOL     OW 8533   3.797   2.341   3.366
 2126SOL    HW2 8534   3.883   2.378   3.388
 2126SOL    HW3 8535   3.806   2.248   3.385
 2126SOL    MW4 8536   3.810   2.334   3.371
 2127SOL     OW 8537   3.587   2.478   3.479
 2127SOL    HW2 8538   3.597   2.566   3.441
 2127SOL    HW3 8539   3.658   2.427   3.440
 2127SOL    MW4 8540   3.598   2.483   3.469
 2128SOL     OW 8541   3.556   2.718   3.360
 2128SOL    HW2 8542   3.628   2.778   3.381
 2128SOL    HW3 8543   3.557   2.712   3.265
 2128SOL    MW4 8544   3.566   2.725   3.350
 2129SOL     OW 8545   3.773   2.851   3.451
 2129SOL    HW2 8546   3.771   2.835   3.546
 2129SOL    HW3 8547   3.813   2.938   3.443
 2129SOL    MW4 8548   3.778   2.860   3.463
 2130SOL     OW 8549   3.818   3.119   3.401
 2130SOL    HW2 8550   3.905   3.155   3.420
 2130SOL    HW3 8551   3.815   3.114   3.306
 2130SOL    MW4 8552   3.829   3.123   3.391
 2131SOL     OW 8553   3.560   3.207   3.445
 2131SOL    HW2 8554   3.568   3.298   3.416
 2131SOL    HW3 8555   3.647   3.170   3.433
 2131SOL    MW4 8556   3.572   3.214   3.439
 2132SOL     OW 8557   3.597   3.486   3.411
 2132SOL    HW2 8558   3.519   3.522   3.453
 2132SOL    HW3 8559   3.588   3.509   3.318
 2132SOL    MW4 8560   3.586   3.494   3.404
 2133SOL     OW 8561   3.820   3.639   3.512
 2133SOL    HW2 8562   3.822   3.619   3.606
 2133SOL    HW3 8563   3.749   3.585   3.477
 2133SOL    MW4 8564   3.811   3.629   3.520
 2134SOL     OW 8565   3.814   3.904   3.383
 2134SOL    HW2 8566   3.735   3.955   3.403
 2134SOL    HW3 8567   3.803   3.823   3.432
 2134SOL    MW4 8568   3.802   3.900   3.392
 2135SOL     OW 8569   3.561   4.032   3.467
 2135SOL    HW2 8570   3.548   4.048   3.560
 2135SOL    HW3 8571   3.596   4.114   3.433
 2135SOL    MW4 8572   3.564   4.045   3.474
 2136SOL     OW 8573   3.602   4.277   3.358
 2136SOL    HW2 8574   3.524   4.325   3.387
 2136SOL    HW3 8575   3.585   4.256   3.266
 2136SOL    MW4 8576   3.590   4.281   3.350
 2137SOL     OW 8577   3.805   4.388   3.487
 2137SOL    HW2 8578   3.730   4.353   3.440
 2137SOL    HW3 8579   3.802   4.482   3.472
 2137SOL    MW4 8580   3.795   4.396   3.479
 2138SOL     OW 8581   4.270   4.639   3.356
 2138SOL    HW2 8582   4.254   4.552   3.391
 2138SOL    HW3 8583   4.344   4.672   3.408
 2138SOL    MW4 8584   4.278   4.632   3.367
 2139SOL     OW 8585   4.054   0.105   3.489
 2139SOL    HW2 8586   4.116   0.065   3.429
 2139SOL    HW3 8587   3.970   0.066   3.466
 2139SOL    MW4 8588   4.051   0.095   3.478
 2140SOL     OW 8589   4.005   0.356   3.385
 2140SOL    HW2 8590   4.027   0.273   3.428
 2140SOL    HW3 8591   3.994   0.333   3.293
 2140SOL    MW4 8592   4.007   0.342   3.379
 2141SOL     OW 8593   4.231   0.495   3.483
 2141SOL    HW2 8594   4.239   0.584   3.447
 2141SOL    HW3 8595   4.143   0.467   3.458
 2141SOL    MW4 8596   4.221   0.503   3.475
 2142SOL     OW 8597   4.254   0.757   3.392
 2142SOL    HW2 8598   4.340   0.798   3.403
 2142SOL    HW3 8599   4.248   0.740   3.298
 2142SOL    MW4 8600   4.265   0.760   3.381
 2143SOL     OW 8601   4.016   0.857   3.517
 2143SOL    HW2 8602   4.000   0.943   3.478
 2143SOL    HW3 8603   4.099   0.828   3.478
 2143SOL    MW4 8604   4.025   0.865   3.507
 2144SOL     OW 8605   3.994   1.108   3.387
 2144SOL    HW2 8606   4.062   1.157   3.434
 2144SOL    HW3 8607   3.912   1.149   3.414
 2144SOL    MW4 8608   3.992   1.120   3.397
 2145SOL     OW 8609   4.222   1.247   3.492
 2145SOL    HW2 8610   4.225   1.336   3.457
 2145SOL    HW3 8611   4.305   1.208   3.465
 2145SOL    MW4 8612   4.234   1.254   3.483
 2146SOL     OW 8613   4.262   1.537   3.404
 2146SOL    HW2 8614   4.186   1.592   3.419
 2146SOL    HW3 8615   4.277   1.541   3.309
 2146SOL    MW4 8616   4.254   1.544   3.393
 2147SOL     OW 8617   4.030   1.669   3.476
 2147SOL    HW2 8618   4.005   1.670   3.568
 2147SOL    HW3 8619   4.013   1.758   3.445
 2147SOL    MW4 8620   4.025   1.681   3.484
 2148SOL     OW 8621   4.018   1.925   3.407
 2148SOL    HW2 8622   4.094   1.979   3.428
 2148SOL    HW3 8623   4.033   1.896   3.317
 2148SOL    MW4 8624   4.030   1.929   3.398
 2149SOL     OW 8625   4.237   2.073   3.457
 2149SOL    HW2 8626   4.260   2.163   3.432
 2149SOL    HW3 8627   4.319   2.025   3.449
 2149SOL    MW4 8628   4.251   2.079   3.453
 2150SOL     OW 8629   4.223   2.337   3.368
 2150SOL    HW2 8630   4.135   2.371   3.383
 2150SOL    HW3 8631   4.221   2.308   3.277
 2150SOL    MW4 8632   4.211   2.337   3.358
 2151SOL     OW 8633   4.020   2.475   3.466
 2151SOL    HW2 8634   4.025   2.481   3.561
 2151SOL    HW3 8635   4.016   2.566   3.436
 2151SOL    MW4 8636   4.020   2.488   3.474
 2152SOL     OW 8637   4.034   2.740   3.339
 2152SOL    HW2 8638   4.105   2.797   3.369
 2152SOL    HW3 8639   3.956   2.775   3.383
 2152SOL    MW4 8640   4.033   2.752   3.349
 2153SOL     OW 8641   4.250   2.875   3.459
 2153SOL    HW2 8642   4.255   2.868   3.554
 2153SOL    HW3 8643   4.326   2.826   3.427
 2153SOL    MW4 8644   4.260   2.867   3.467
 2154SOL     OW 8645   4.296   3.121   3.369
 2154SOL    HW2 8646   4.275   3.034   3.400
 2154SOL    HW3 8647   4.275   3.120   3.276
 2154SOL    MW4 8648   4.291   3.110   3.361
 2155SOL     OW 8649   4.051   3.225   3.481
 2155SOL    HW2 8650   4.055   3.321   3.474
 2155SOL    HW3 8651   4.132   3.195   3.440
 2155SOL    MW4 8652   4.062   3.234   3.475
 2156SOL     OW 8653   4.054   3.501   3.387
 2156SOL    HW2 8654   4.134   3.544   3.414
 2156SOL    HW3 8655   3.987   3.534   3.446
 2156SOL    MW4 8656   4.055   3.511   3.398
 2157SOL     OW 8657   4.286   3.624   3.439
 2157SOL    HW2 8658   4.290   3.623   3.535
 2157SOL    HW3 8659   4.265   3.715   3.417
 2157SOL    MW4 8660   4.284   3.636   3.449
 2158SOL     OW 8661   4.258   3.887   3.365
 2158SOL    HW2 8662   4.345   3.920   3.385
 2158SOL    HW3 8663   4.257   3.877   3.269
 2158SOL    MW4 8664   4.269   3.890   3.355
 2159SOL     OW 8665   4.042   4.032   3.508
 2159SOL    HW2 8666   4.111   3.970   3.481
 2159SOL    HW3 8667   3.960   3.989   3.481
 2159SOL    MW4 8668   4.040   4.018   3.501
 2160SOL     OW 8669   4.030   4.262   3.369
 2160SOL    HW2 8670   4.047   4.172   3.398
 2160SOL    HW3 8671   3.961   4.294   3.426
 2160SOL    MW4 8672   4.023   4.254   3.380
 2161SOL     OW 8673   4.244   4.391   3.479
 2161SOL    HW2 8674   4.229   4.377   3.573
 2161SOL    HW3 8675   4.167   4.353   3.437
 2161SOL    MW4 8676   4.232   4.384   3.486
 2162SOL     OW 8677   0.191   4.648   3.844
 2162SOL    HW2 8678   0.195   4.638   3.939
 2162SOL    HW3 8679   0.109   4.694   3.828
 2162SOL    MW4 8680   0.181   4.653   3.854
 2163SOL     OW 8681   4.475   0.130   3.782
 2163SOL    HW2 8682   4.495   0.219   3.810
 2163SOL    HW3 8683   4.508   0.125   3.692
 2163SOL    MW4 8684   4.482   0.141   3.774
 2164SOL     OW 8685   0.040   0.391   3.866
 2164SOL    HW2 8686  -0.039   0.429   3.826
 2164SOL    HW3 8687   0.113   0.434   3.822
 2164SOL    MW4 8688   0.039   0.402   3.855
 2165SOL     OW 8689   0.259   0.514   3.763
 2165SOL    HW2 8690   0.247   0.607   3.778
 2165SOL    HW3 8691   0.237   0.501   3.671
 2165SOL    MW4 8692   0.254   0.524   3.753
 2166SOL     OW 8693   0.206   0.791   3.820
 2166SOL    HW2 8694   0.206   0.793   3.916
 2166SOL    HW3 8695   0.121   0.828   3.796
 2166SOL    MW4 8696   0.195   0.796   3.829
 2167SOL     OW 8697   4.468   0.907   3.763
 2167SOL    HW2 8698   4.392   0.865   3.801
 2167SOL    HW3 8699   4.464   0.997   3.795
 2167SOL    MW4 8700   4.457   0.913   3.772
 2168SOL     OW 8701   4.466   1.161   3.863
 2168SOL    HW2 8702   4.396   1.200   3.811
 2168SOL    HW3 8703   4.545   1.207   3.835
 2168SOL    MW4 8704   4.467   1.172   3.853
 2169SOL     OW 8705   0.224   1.281   3.755
 2169SOL    HW2 8706   0.218   1.373   3.783
 2169SOL    HW3 8707   0.221   1.285   3.660
 2169SOL    MW4 8708   0.223   1.294   3.746
 2170SOL     OW 8709   0.202   1.549   3.819
 2170SOL    HW2 8710   0.210   1.556   3.914
 2170SOL    HW3 8711   0.116   1.587   3.799
 2170SOL    MW4 8712   0.192   1.555   3.829
 2171SOL     OW 8713   4.439   1.688   3.790
 2171SOL    HW2 8714   4.450   1.775   3.828
 2171SOL    HW3 8715   4.442   1.703   3.695
 2171SOL    MW4 8716   4.441   1.702   3.782
 2172SOL     OW 8717   4.433   1.970   3.846
 2172SOL    HW2 8718   4.421   1.973   3.941
 2172SOL    HW3 8719   4.346   1.988   3.811
 2172SOL    MW4 8720   4.420   1.973   3.854
 2173SOL     OW 8721   0.184   2.075   3.748
 2173SOL    HW2 8722   0.198   2.153   3.801
 2173SOL    HW3 8723   0.106   2.034   3.785
 2173SOL    MW4 8724   0.175   2.080   3.760
 2174SOL     OW 8725   0.209   2.307   3.890
 2174SOL    HW2 8726   0.191   2.321   3.983
 2174SOL    HW3 8727   0.131   2.342   3.846
 2174SOL    MW4 8728   0.196   2.314   3.897
 2175SOL     OW 8729   0.007   2.432   3.729
 2175SOL    HW2 8730  -0.078   2.390   3.743
 2175SOL    HW3 8731  -0.008   2.524   3.753
 2175SOL    MW4 8732  -0.007   2.439   3.734
 2176SOL     OW 8733   4.446   2.700   3.837
 2176SOL    HW2 8734   4.429   2.711   3.931
 2176SOL    HW3 8735   4.517   2.762   3.818
 2176SOL    MW4 8736   4.453   2.710   3.847
 2177SOL     OW 8737   0.163   2.874   3.758
 2177SOL    HW2 8738   0.239   2.820   3.782
 2177SOL    HW3 8739   0.155   2.863   3.663
 2177SOL    MW4 8740   0.172   2.865   3.749
 2178SOL     OW 8741   0.218   3.119   3.829
 2178SOL    HW2 8742   0.216   3.122   3.925
 2178SOL    HW3 8743   0.196   3.029   3.807
 2178SOL    MW4 8744   0.215   3.108   3.839
 2179SOL     OW 8745   4.480   3.229   3.737
 2179SOL    HW2 8746   4.566   3.203   3.769
 2179SOL    HW3 8747   4.493   3.246   3.644
 2179SOL    MW4 8748   4.493   3.228   3.729
 2180SOL     OW 8749   4.484   3.486   3.863
 2180SOL    HW2 8750   4.559   3.528   3.821
 2180SOL    HW3 8751   4.474   3.403   3.815
 2180SOL    MW4 8752   4.493   3.481   3.851
 2181SOL     OW 8753   0.208   3.631   3.767
 2181SOL    HW2 8754   0.292   3.594   3.795
 2181SOL    HW3 8755   0.207   3.718   3.807
 2181SOL    MW4 8756   0.219   3.638   3.776
 2182SOL     OW 8757   0.211   3.878   3.901
 2182SOL    HW2 8758   0.221   3.889   3.996
 2182SOL    HW3 8759   0.297   3.899   3.865
 2182SOL    MW4 8760   0.224   3.882   3.909
 2183SOL     OW 8761   0.016   3.995   3.713
 2183SOL    HW2 8762  -0.068   3.959   3.743
 2183SOL    HW3 8763   0.081   3.947   3.763
 2183SOL    MW4 8764   0.013   3.984   3.724
 2184SOL     OW 8765   4.483   4.258   3.823
 2184SOL    HW2 8766   4.558   4.306   3.786
 2184SOL    HW3 8767   4.484   4.174   3.776
 2184SOL    MW4 8768   4.494   4.253   3.812
 2185SOL     OW 8769   0.208   4.415   3.690
 2185SOL    HW2 8770   0.285   4.373   3.730
 2185SOL    HW3 8771   0.207   4.503   3.727
 2185SOL    MW4 8772   0.218   4.421   3.700
 2186SOL     OW 8773   0.676   4.661   3.848
 2186SOL    HW2 8774   0.679   4.567   3.827
 2186SOL    HW3 8775   0.592   4.690   3.811
 2186SOL    MW4 8776   0.665   4.652   3.840
 2187SOL     OW 8777   0.427   0.087   3.764
 2187SOL    HW2 8778   0.430   0.175   3.803
 2187SOL    HW3 8779   0.342   0.052   3.791
 2187SOL    MW4 8780   0.416   0.094   3.772
 2188SOL     OW 8781   0.441   0.344   3.866
 2188SOL    HW2 8782   0.516   0.373   3.814
 2188SOL    HW3 8783   0.368   0.394   3.831
 2188SOL    MW4 8784   0.442   0.355   3.854
 2189SOL     OW 8785   0.663   0.451   3.736
 2189SOL    HW2 8786   0.750   0.441   3.773
 2189SOL    HW3 8787   0.643   0.544   3.746
 2189SOL    MW4 8788   0.672   0.462   3.742
 2190SOL     OW 8789   0.630   0.724   3.790
 2190SOL    HW2 8790   0.715   0.768   3.784
 2190SOL    HW3 8791   0.566   0.793   3.777
 2190SOL    MW4 8792   0.633   0.739   3.788
 2191SOL     OW 8793   0.428   0.911   3.742
 2191SOL    HW2 8794   0.440   0.991   3.793
 2191SOL    HW3 8795   0.358   0.863   3.786
 2191SOL    MW4 8796   0.421   0.915   3.754
 2192SOL     OW 8797   0.441   1.159   3.868
 2192SOL    HW2 8798   0.511   1.207   3.824
 2192SOL    HW3 8799   0.360   1.191   3.828
 2192SOL    MW4 8800   0.440   1.169   3.857
 2193SOL     OW 8801   0.666   1.295   3.750
 2193SOL    HW2 8802   0.744   1.251   3.783
 2193SOL    HW3 8803   0.666   1.278   3.656
 2193SOL    MW4 8804   0.676   1.287   3.742
 2194SOL     OW 8805   0.643   1.546   3.880
 2194SOL    HW2 8806   0.714   1.596   3.841
 2194SOL    HW3 8807   0.641   1.464   3.831
 2194SOL    MW4 8808   0.652   1.541   3.869
 2195SOL     OW 8809   0.425   1.695   3.774
 2195SOL    HW2 8810   0.494   1.654   3.825
 2195SOL    HW3 8811   0.346   1.644   3.795
 2195SOL    MW4 8812   0.423   1.683   3.783
 2196SOL     OW 8813   0.369   1.927   3.896
 2196SOL    HW2 8814   0.368   1.845   3.847
 2196SOL    HW3 8815   0.293   1.975   3.864
 2196SOL    MW4 8816   0.359   1.923   3.885
 2197SOL     OW 8817   0.586   2.017   3.746
 2197SOL    HW2 8818   0.581   2.113   3.750
 2197SOL    HW3 8819   0.510   1.987   3.796
 2197SOL    MW4 8820   0.575   2.026   3.753
 2198SOL     OW 8821   0.598   2.276   3.830
 2198SOL    HW2 8822   0.686   2.312   3.816
 2198SOL    HW3 8823   0.539   2.350   3.815
 2198SOL    MW4 8824   0.602   2.291   3.826
 2199SOL     OW 8825   0.420   2.482   3.793
 2199SOL    HW2 8826   0.342   2.430   3.813
 2199SOL    HW3 8827   0.428   2.479   3.698
 2199SOL    MW4 8828   0.411   2.475   3.783
 2200SOL     OW 8829   0.395   2.755   3.827
 2200SOL    HW2 8830   0.477   2.793   3.795
 2200SOL    HW3 8831   0.413   2.661   3.832
 2200SOL    MW4 8832   0.408   2.748   3.823
 2201SOL     OW 8833   0.648   2.828   3.764
 2201SOL    HW2 8834   0.698   2.763   3.812
 2201SOL    HW3 8835   0.675   2.819   3.673
 2201SOL    MW4 8836   0.658   2.818   3.759
 2202SOL     OW 8837   0.672   3.089   3.879
 2202SOL    HW2 8838   0.668   3.111   3.972
 2202SOL    HW3 8839   0.669   2.994   3.877
 2202SOL    MW4 8840   0.671   3.080   3.891
 2203SOL     OW 8841   0.460   3.231   3.770
 2203SOL    HW2 8842   0.529   3.174   3.804
 2203SOL    HW3 8843   0.379   3.187   3.795
 2203SOL    MW4 8844   0.458   3.217   3.778
 2204SOL     OW 8845   0.433   3.508   3.856
 2204SOL    HW2 8846   0.513   3.540   3.813
 2204SOL    HW3 8847   0.442   3.412   3.854
 2204SOL    MW4 8848   0.445   3.499   3.850
 2205SOL     OW 8849   0.657   3.583   3.737
 2205SOL    HW2 8850   0.659   3.667   3.781
 2205SOL    HW3 8851   0.658   3.604   3.643
 2205SOL    MW4 8852   0.658   3.597   3.730
 2206SOL     OW 8853   0.625   3.829   3.856
 2206SOL    HW2 8854   0.638   3.807   3.948
 2206SOL    HW3 8855   0.707   3.868   3.828
 2206SOL    MW4 8856   0.637   3.831   3.865
 2207SOL     OW 8857   0.428   4.004   3.753
 2207SOL    HW2 8858   0.502   3.955   3.788
 2207SOL    HW3 8859   0.435   3.994   3.658
 2207SOL    MW4 8860   0.438   3.996   3.745
 2208SOL     OW 8861   0.427   4.280   3.813
 2208SOL    HW2 8862   0.518   4.298   3.792
 2208SOL    HW3 8863   0.415   4.187   3.794
 2208SOL    MW4 8864   0.437   4.270   3.807
 2209SOL     OW 8865   0.681   4.408   3.748
 2209SOL    HW2 8866   0.737   4.333   3.765
 2209SOL    HW3 8867   0.684   4.421   3.654
 2209SOL    MW4 8868   0.689   4.400   3.738
 2210SOL     OW 8869   1.110   0.027   3.870
 2210SOL    HW2 8870   1.190   0.054   3.825
 2210SOL    HW3 8871   1.091  -0.060   3.836
 2210SOL    MW4 8872   1.118   0.019   3.859
 2211SOL     OW 8873   0.889   0.164   3.748
 2211SOL    HW2 8874   0.956   0.116   3.796
 2211SOL    HW3 8875   0.806   0.123   3.776
 2211SOL    MW4 8876   0.887   0.152   3.758
 2212SOL     OW 8877   0.911   0.408   3.839
 2212SOL    HW2 8878   0.911   0.389   3.933
 2212SOL    HW3 8879   0.900   0.323   3.798
 2212SOL    MW4 8880   0.910   0.394   3.846
 2213SOL     OW 8881   1.169   0.521   3.762
 2213SOL    HW2 8882   1.243   0.465   3.785
 2213SOL    HW3 8883   1.093   0.480   3.804
 2213SOL    MW4 8884   1.169   0.508   3.771
 2214SOL     OW 8885   1.132   0.784   3.818
 2214SOL    HW2 8886   1.127   0.779   3.914
 2214SOL    HW3 8887   1.152   0.694   3.791
 2214SOL    MW4 8888   1.134   0.771   3.827
 2215SOL     OW 8889   0.855   0.875   3.747
 2215SOL    HW2 8890   0.934   0.828   3.774
 2215SOL    HW3 8891   0.870   0.894   3.654
 2215SOL    MW4 8892   0.867   0.871   3.738
 2216SOL     OW 8893   0.883   1.130   3.829
 2216SOL    HW2 8894   0.874   1.122   3.924
 2216SOL    HW3 8895   0.851   1.047   3.794
 2216SOL    MW4 8896   0.878   1.118   3.837
 2217SOL     OW 8897   1.114   1.280   3.748
 2217SOL    HW2 8898   1.089   1.367   3.780
 2217SOL    HW3 8899   1.040   1.224   3.772
 2217SOL    MW4 8900   1.101   1.284   3.755
 2218SOL     OW 8901   1.095   1.563   3.826
 2218SOL    HW2 8902   1.112   1.552   3.919
 2218SOL    HW3 8903   1.172   1.608   3.792
 2218SOL    MW4 8904   1.107   1.567   3.833
 2219SOL     OW 8905   0.850   1.653   3.731
 2219SOL    HW2 8906   0.937   1.630   3.763
 2219SOL    HW3 8907   0.866   1.687   3.642
 2219SOL    MW4 8908   0.864   1.655   3.723
 2220SOL     OW 8909   0.833   1.912   3.855
 2220SOL    HW2 8910   0.843   1.831   3.805
 2220SOL    HW3 8911   0.751   1.950   3.823
 2220SOL    MW4 8912   0.823   1.906   3.845
 2221SOL     OW 8913   1.059   2.046   3.734
 2221SOL    HW2 8914   0.980   2.003   3.767
 2221SOL    HW3 8915   1.041   2.059   3.641
 2221SOL    MW4 8916   1.046   2.042   3.726
 2222SOL     OW 8917   1.109   2.286   3.844
 2222SOL    HW2 8918   1.102   2.274   3.939
 2222SOL    HW3 8919   1.092   2.199   3.808
 2222SOL    MW4 8920   1.106   2.273   3.852
 2223SOL     OW 8921   0.861   2.411   3.769
 2223SOL    HW2 8922   0.852   2.491   3.821
 2223SOL    HW3 8923   0.941   2.369   3.802
 2223SOL    MW4 8924   0.870   2.416   3.780
 2224SOL     OW 8925   0.845   2.668   3.861
 2224SOL    HW2 8926   0.870   2.686   3.952
 2224SOL    HW3 8927   0.914   2.710   3.809
 2224SOL    MW4 8928   0.858   2.676   3.866
 2225SOL     OW 8929   1.028   2.806   3.745
 2225SOL    HW2 8930   1.107   2.754   3.761
 2225SOL    HW3 8931   1.044   2.889   3.790
 2225SOL    MW4 8932   1.041   2.810   3.753
 2226SOL     OW 8933   1.095   3.070   3.833
 2226SOL    HW2 8934   1.167   3.116   3.789
 2226SOL    HW3 8935   1.017   3.122   3.813
 2226SOL    MW4 8936   1.095   3.083   3.825
 2227SOL     OW 8937   0.876   3.198   3.751
 2227SOL    HW2 8938   0.797   3.170   3.797
 2227SOL    HW3 8939   0.859   3.181   3.659
 2227SOL    MW4 8940   0.864   3.192   3.745
 2228SOL     OW 8941   0.888   3.447   3.864
 2228SOL    HW2 8942   0.891   3.358   3.830
 2228SOL    HW3 8943   0.813   3.488   3.819
 2228SOL    MW4 8944   0.878   3.441   3.853
 2229SOL     OW 8945   1.111   3.602   3.740
 2229SOL    HW2 8946   1.117   3.687   3.784
 2229SOL    HW3 8947   1.039   3.557   3.785
 2229SOL    MW4 8948   1.102   3.607   3.752
 2230SOL     OW 8949   1.114   3.862   3.841
 2230SOL    HW2 8950   1.126   3.839   3.933
 2230SOL    HW3 8951   1.175   3.934   3.826
 2230SOL    MW4 8952   1.124   3.868   3.851
 2231SOL     OW 8953   0.861   3.955   3.745
 2231SOL    HW2 8954   0.949   3.928   3.770
 2231SOL    HW3 8955   0.866   3.966   3.650
 2231SOL    MW4 8956   0.873   3.953   3.736
 2232SOL     OW 8957   0.876   4.234   3.810
 2232SOL    HW2 8958   0.859   4.233   3.904
 2232SOL    HW3 8959   0.888   4.142   3.787
 2232SOL    MW4 8960   0.875   4.222   3.820
 2233SOL     OW 8961   1.075   4.450   3.737
 2233SOL    HW2 8962   1.004   4.392   3.765
 2233SOL    HW3 8963   1.095   4.421   3.648
 2233SOL    MW4 8964   1.069   4.438   3.729
 2234SOL     OW 8965   1.536   0.020   3.873
 2234SOL    HW2 8966   1.543   0.020   3.968
 2234SOL    HW3 8967   1.547  -0.072   3.848
 2234SOL    MW4 8968   1.538   0.008   3.882
 2235SOL     OW 8969   1.330   0.140   3.738
 2235SOL    HW2 8970   1.352   0.221   3.783
 2235SOL    HW3 8971   1.388   0.074   3.776
 2235SOL    MW4 8972   1.340   0.142   3.749
 2236SOL     OW 8973   1.382   0.384   3.859
 2236SOL    HW2 8974   1.392   0.393   3.953
 2236SOL    HW3 8975   1.452   0.437   3.821
 2236SOL    MW4 8976   1.393   0.392   3.866
 2237SOL     OW 8977   1.551   0.538   3.708
 2237SOL    HW2 8978   1.630   0.503   3.749
 2237SOL    HW3 8979   1.545   0.628   3.740
 2237SOL    MW4 8980   1.560   0.545   3.718
 2238SOL     OW 8981   1.525   0.780   3.827
 2238SOL    HW2 8982   1.603   0.827   3.796
 2238SOL    HW3 8983   1.451   0.830   3.791
 2238SOL    MW4 8984   1.526   0.793   3.818
 2239SOL     OW 8985   1.335   0.928   3.714
 2239SOL    HW2 8986   1.362   1.005   3.764
 2239SOL    HW3 8987   1.250   0.904   3.750
 2239SOL    MW4 8988   1.328   0.935   3.725
 2240SOL     OW 8989   1.359   1.170   3.876
 2240SOL    HW2 8990   1.432   1.218   3.835
 2240SOL    HW3 8991   1.280   1.212   3.843
 2240SOL    MW4 8992   1.359   1.182   3.866
 2241SOL     OW 8993   1.577   1.320   3.754
 2241SOL    HW2 8994   1.661   1.283   3.784
 2241SOL    HW3 8995   1.570   1.404   3.799
 2241SOL    MW4 8996   1.588   1.326   3.764
 2242SOL     OW 8997   1.547   1.584   3.853
 2242SOL    HW2 8998   1.560   1.565   3.946
 2242SOL    HW3 8999   1.635   1.601   3.819
 2242SOL    MW4 9000   1.560   1.584   3.861
 2243SOL     OW 9001   1.339   1.692   3.719
 2243SOL    HW2 9002   1.335   1.785   3.741
 2243SOL    HW3 9003   1.420   1.662   3.761
 2243SOL    MW4 9004   1.349   1.701   3.728
 2244SOL     OW 9005   1.326   1.966   3.808
 2244SOL    HW2 9006   1.327   1.948   3.902
 2244SOL    HW3 9007   1.236   1.990   3.788
 2244SOL    MW4 9008   1.314   1.967   3.818
 2245SOL     OW 9009   1.574   2.093   3.737
 2245SOL    HW2 9010   1.487   2.060   3.761
 2245SOL    HW3 9011   1.579   2.080   3.642
 2245SOL    MW4 9012   1.563   2.087   3.727
 2246SOL     OW 9013   1.586   2.350   3.791
 2246SOL    HW2 9014   1.670   2.381   3.759
 2246SOL    HW3 9015   1.586   2.256   3.775
 2246SOL    MW4 9016   1.597   2.342   3.785
 2247SOL     OW 9017   1.322   2.432   3.710
 2247SOL    HW2 9018   1.413   2.412   3.731
 2247SOL    HW3 9019   1.271   2.372   3.764
 2247SOL    MW4 9020   1.327   2.421   3.720
 2248SOL     OW 9021   1.300   2.704   3.766
 2248SOL    HW2 9022   1.276   2.690   3.857
 2248SOL    HW3 9023   1.311   2.616   3.730
 2248SOL    MW4 9024   1.298   2.691   3.773
 2249SOL     OW 9025   1.533   2.840   3.733
 2249SOL    HW2 9026   1.458   2.782   3.748
 2249SOL    HW3 9027   1.525   2.867   3.642
 2249SOL    MW4 9028   1.522   2.836   3.723
 2250SOL     OW 9029   1.574   3.107   3.824
 2250SOL    HW2 9030   1.538   3.123   3.911
 2250SOL    HW3 9031   1.566   3.012   3.811
 2250SOL    MW4 9032   1.568   3.097   3.834
 2251SOL     OW 9033   1.324   3.209   3.758
 2251SOL    HW2 9034   1.325   3.300   3.788
 2251SOL    HW3 9035   1.410   3.176   3.782
 2251SOL    MW4 9036   1.335   3.217   3.765
 2252SOL     OW 9037   1.344   3.476   3.845
 2252SOL    HW2 9038   1.416   3.525   3.804
 2252SOL    HW3 9039   1.265   3.522   3.818
 2252SOL    MW4 9040   1.343   3.489   3.836
 2253SOL     OW 9041   1.573   3.605   3.761
 2253SOL    HW2 9042   1.658   3.573   3.792
 2253SOL    HW3 9043   1.559   3.687   3.809
 2253SOL    MW4 9044   1.583   3.612   3.771
 2254SOL     OW 9045   1.535   3.866   3.860
 2254SOL    HW2 9046   1.543   3.870   3.955
 2254SOL    HW3 9047   1.447   3.899   3.842
 2254SOL    MW4 9048   1.524   3.871   3.870
 2255SOL     OW 9049   1.325   4.037   3.804
 2255SOL    HW2 9050   1.323   4.129   3.829
 2255SOL    HW3 9051   1.345   4.039   3.710
 2255SOL    MW4 9052   1.328   4.050   3.795
 2256SOL     OW 9053   1.282   4.313   3.871
 2256SOL    HW2 9054   1.356   4.361   3.833
 2256SOL    HW3 9055   1.205   4.356   3.834
 2256SOL    MW4 9056   1.282   4.325   3.861
 2257SOL     OW 9057   1.542   4.411   3.779
 2257SOL    HW2 9058   1.609   4.349   3.809
 2257SOL    HW3 9059   1.540   4.398   3.684
 2257SOL    MW4 9060   1.551   4.401   3.770
 2258SOL     OW 9061   1.930   4.660   3.801
 2258SOL    HW2 9062   2.015   4.696   3.777
 2258SOL    HW3 9063   1.929   4.572   3.763
 2258SOL    MW4 9064   1.941   4.653   3.793
 2259SOL     OW 9065   1.743   0.191   3.759
 2259SOL    HW2 9066   1.815   0.129   3.769
 2259SOL    HW3 9067   1.672   0.154   3.811
 2259SOL    MW4 9068   1.743   0.178   3.767
 2260SOL     OW 9069   1.755   0.441   3.862
 2260SOL    HW2 9070   1.734   0.440   3.955
 2260SOL    HW3 9071   1.768   0.349   3.839
 2260SOL    MW4 9072   1.754   0.429   3.871
 2261SOL     OW 9073   1.981   0.523   3.727
 2261SOL    HW2 9074   1.906   0.483   3.771
 2261SOL    HW3 9075   1.961   0.514   3.634
 2261SOL    MW4 9076   1.968   0.517   3.720
 2262SOL     OW 9077   1.985   0.799   3.843
 2262SOL    HW2 9078   1.987   0.792   3.939
 2262SOL    HW3 9079   1.988   0.709   3.812
 2262SOL    MW4 9080   1.985   0.787   3.852
 2263SOL     OW 9081   1.760   0.911   3.763
 2263SOL    HW2 9082   1.840   0.870   3.797
 2263SOL    HW3 9083   1.778   0.923   3.669
 2263SOL    MW4 9084   1.773   0.907   3.755
 2264SOL     OW 9085   1.786   1.163   3.876
 2264SOL    HW2 9086   1.796   1.149   3.970
 2264SOL    HW3 9087   1.771   1.076   3.840
 2264SOL    MW4 9088   1.785   1.150   3.883
 2265SOL     OW 9089   2.033   1.282   3.764
 2265SOL    HW2 9090   2.106   1.259   3.823
 2265SOL    HW3 9091   1.959   1.233   3.798
 2265SOL    MW4 9092   2.033   1.272   3.776
 2266SOL     OW 9093   2.027   1.550   3.857
 2266SOL    HW2 9094   1.945   1.591   3.827
 2266SOL    HW3 9095   2.023   1.462   3.820
 2266SOL    MW4 9096   2.015   1.544   3.848
 2267SOL     OW 9097   1.804   1.659   3.743
 2267SOL    HW2 9098   1.792   1.746   3.780
 2267SOL    HW3 9099   1.805   1.673   3.648
 2267SOL    MW4 9100   1.803   1.672   3.736
 2268SOL     OW 9101   1.765   1.935   3.866
 2268SOL    HW2 9102   1.784   1.958   3.957
 2268SOL    HW3 9103   1.686   1.986   3.845
 2268SOL    MW4 9104   1.757   1.945   3.875
 2269SOL     OW 9105   2.023   2.047   3.782
 2269SOL    HW2 9106   1.932   2.034   3.809
 2269SOL    HW3 9107   2.019   2.064   3.688
 2269SOL    MW4 9108   2.011   2.048   3.773
 2270SOL     OW 9109   2.030   2.317   3.865
 2270SOL    HW2 9110   1.951   2.359   3.833
 2270SOL    HW3 9111   2.029   2.229   3.825
 2270SOL    MW4 9112   2.020   2.311   3.855
 2271SOL     OW 9113   1.831   2.458   3.720
 2271SOL    HW2 9114   1.829   2.552   3.737
 2271SOL    HW3 9115   1.836   2.451   3.625
 2271SOL    MW4 9116   1.832   2.469   3.710
 2272SOL     OW 9117   1.786   2.718   3.805
 2272SOL    HW2 9118   1.779   2.748   3.895
 2272SOL    HW3 9119   1.701   2.739   3.766
 2272SOL    MW4 9120   1.774   2.724   3.812
 2273SOL     OW 9121   2.012   2.852   3.706
 2273SOL    HW2 9122   2.084   2.810   3.754
 2273SOL    HW3 9123   1.933   2.808   3.739
 2273SOL    MW4 9124   2.011   2.840   3.717
 2274SOL     OW 9125   2.009   3.092   3.847
 2274SOL    HW2 9126   2.004   3.014   3.791
 2274SOL    HW3 9127   2.098   3.124   3.835
 2274SOL    MW4 9128   2.020   3.086   3.838
 2275SOL     OW 9129   1.791   3.266   3.735
 2275SOL    HW2 9130   1.862   3.211   3.769
 2275SOL    HW3 9131   1.711   3.220   3.758
 2275SOL    MW4 9132   1.790   3.253   3.743
 2276SOL     OW 9133   1.805   3.494   3.864
 2276SOL    HW2 9134   1.896   3.523   3.857
 2276SOL    HW3 9135   1.805   3.405   3.829
 2276SOL    MW4 9136   1.817   3.486   3.858
 2277SOL     OW 9137   2.053   3.608   3.784
 2277SOL    HW2 9138   2.135   3.568   3.813
 2277SOL    HW3 9139   2.062   3.616   3.689
 2277SOL    MW4 9140   2.065   3.604   3.776
 2278SOL     OW 9141   2.004   3.867   3.880
 2278SOL    HW2 9142   2.077   3.917   3.843
 2278SOL    HW3 9143   2.003   3.786   3.830
 2278SOL    MW4 9144   2.013   3.863   3.869
 2279SOL     OW 9145   1.771   3.975   3.721
 2279SOL    HW2 9146   1.845   3.943   3.773
 2279SOL    HW3 9147   1.694   3.944   3.768
 2279SOL    MW4 9148   1.771   3.967   3.734
 2280SOL     OW 9149   1.793   4.238   3.811
 2280SOL    HW2 9150   1.853   4.280   3.750
 2280SOL    HW3 9151   1.796   4.145   3.788
 2280SOL    MW4 9152   1.801   4.231   3.800
 2281SOL     OW 9153   1.971   4.400   3.694
 2281SOL    HW2 9154   2.042   4.358   3.741
 2281SOL    HW3 9155   1.996   4.396   3.602
 2281SOL    MW4 9156   1.983   4.394   3.688
 2282SOL     OW 9157   2.454   0.032   3.845
 2282SOL    HW2 9158   2.460   0.035   3.941
 2282SOL    HW3 9159   2.524   0.090   3.815
 2282SOL    MW4 9160   2.464   0.040   3.854
 2283SOL     OW 9161   2.203   0.080   3.723
 2283SOL    HW2 9162   2.291   0.080   3.762
 2283SOL    HW3 9163   2.219   0.076   3.628
 2283SOL    MW4 9164   2.217   0.079   3.715
 2284SOL     OW 9165   2.196   0.353   3.790
 2284SOL    HW2 9166   2.198   0.263   3.756
 2284SOL    HW3 9167   2.126   0.395   3.740
 2284SOL    MW4 9168   2.187   0.346   3.779
 2285SOL     OW 9169   2.414   0.508   3.760
 2285SOL    HW2 9170   2.339   0.449   3.769
 2285SOL    HW3 9171   2.408   0.542   3.671
 2285SOL    MW4 9172   2.403   0.505   3.749
 2286SOL     OW 9173   2.437   0.781   3.873
 2286SOL    HW2 9174   2.360   0.823   3.833
 2286SOL    HW3 9175   2.421   0.687   3.864
 2286SOL    MW4 9176   2.425   0.774   3.866
 2287SOL     OW 9177   2.231   0.913   3.753
 2287SOL    HW2 9178   2.139   0.895   3.769
 2287SOL    HW3 9179   2.242   0.904   3.659
 2287SOL    MW4 9180   2.220   0.909   3.743
 2288SOL     OW 9181   2.264   1.154   3.893
 2288SOL    HW2 9182   2.251   1.136   3.987
 2288SOL    HW3 9183   2.251   1.070   3.851
 2288SOL    MW4 9184   2.261   1.141   3.900
 2289SOL     OW 9185   2.496   1.294   3.785
 2289SOL    HW2 9186   2.493   1.382   3.823
 2289SOL    HW3 9187   2.417   1.250   3.819
 2289SOL    MW4 9188   2.485   1.300   3.795
 2290SOL     OW 9189   2.446   1.554   3.865
 2290SOL    HW2 9190   2.527   1.601   3.842
 2290SOL    HW3 9191   2.377   1.601   3.819
 2290SOL    MW4 9192   2.448   1.567   3.856
 2291SOL     OW 9193   2.232   1.702   3.756
 2291SOL    HW2 9194   2.228   1.786   3.801
 2291SOL    HW3 9195   2.154   1.655   3.788
 2291SOL    MW4 9196   2.221   1.707   3.766
 2292SOL     OW 9197   2.237   1.929   3.917
 2292SOL    HW2 9198   2.225   1.912   4.011
 2292SOL    HW3 9199   2.156   1.972   3.890
 2292SOL    MW4 9200   2.225   1.933   3.926
 2293SOL     OW 9201   2.433   2.051   3.763
 2293SOL    HW2 9202   2.448   2.140   3.794
 2293SOL    HW3 9203   2.371   2.014   3.825
 2293SOL    MW4 9204   2.426   2.058   3.775
 2294SOL     OW 9205   2.451   2.301   3.878
 2294SOL    HW2 9206   2.533   2.334   3.842
 2294SOL    HW3 9207   2.384   2.359   3.843
 2294SOL    MW4 9208   2.453   2.313   3.869
 2295SOL     OW 9209   2.236   2.461   3.754
 2295SOL    HW2 9210   2.166   2.406   3.789
 2295SOL    HW3 9211   2.221   2.462   3.659
 2295SOL    MW4 9212   2.225   2.454   3.746
 2296SOL     OW 9213   2.210   2.716   3.851
 2296SOL    HW2 9214   2.231   2.713   3.945
 2296SOL    HW3 9215   2.226   2.626   3.821
 2296SOL    MW4 9216   2.215   2.703   3.860
 2297SOL     OW 9217   2.468   2.814   3.799
 2297SOL    HW2 9218   2.380   2.781   3.816
 2297SOL    HW3 9219   2.471   2.827   3.704
 2297SOL    MW4 9220   2.457   2.811   3.789
 2298SOL     OW 9221   2.492   3.091   3.907
 2298SOL    HW2 9222   2.493   3.098   4.003
 2298SOL    HW3 9223   2.485   2.997   3.891
 2298SOL    MW4 9224   2.491   3.079   3.918
 2299SOL     OW 9225   2.258   3.204   3.772
 2299SOL    HW2 9226   2.265   3.292   3.807
 2299SOL    HW3 9227   2.318   3.152   3.826
 2299SOL    MW4 9228   2.267   3.209   3.784
 2300SOL     OW 9229   2.304   3.487   3.865
 2300SOL    HW2 9230   2.295   3.486   3.961
 2300SOL    HW3 9231   2.378   3.546   3.849
 2300SOL    MW4 9232   2.313   3.495   3.876
 2301SOL     OW 9233   2.505   3.647   3.760
 2301SOL    HW2 9234   2.574   3.588   3.792
 2301SOL    HW3 9235   2.490   3.620   3.670
 2301SOL    MW4 9236   2.512   3.636   3.752
 2302SOL     OW 9237   2.499   3.907   3.850
 2302SOL    HW2 9238   2.569   3.946   3.797
 2302SOL    HW3 9239   2.503   3.814   3.831
 2302SOL    MW4 9240   2.509   3.900   3.840
 2303SOL     OW 9241   2.204   4.013   3.756
 2303SOL    HW2 9242   2.294   3.988   3.778
 2303SOL    HW3 9243   2.201   4.013   3.661
 2303SOL    MW4 9244   2.215   4.010   3.747
 2304SOL     OW 9245   2.200   4.280   3.831
 2304SOL    HW2 9246   2.186   4.293   3.925
 2304SOL    HW3 9247   2.198   4.185   3.820
 2304SOL    MW4 9248   2.198   4.269   3.842
 2305SOL     OW 9249   2.443   4.419   3.772
 2305SOL    HW2 9250   2.360   4.387   3.807
 2305SOL    HW3 9251   2.445   4.512   3.795
 2305SOL    MW4 9252   2.432   4.427   3.779
 2306SOL     OW 9253   2.896   0.043   3.875
 2306SOL    HW2 9254   2.914   0.024   3.968
 2306SOL    HW3 9255   2.980   0.070   3.839
 2306SOL    MW4 9256   2.909   0.044   3.883
 2307SOL     OW 9257   2.661   0.170   3.739
 2307SOL    HW2 9258   2.733   0.129   3.787
 2307SOL    HW3 9259   2.680   0.153   3.647
 2307SOL    MW4 9260   2.673   0.163   3.733
 2308SOL     OW 9261   2.684   0.448   3.804
 2308SOL    HW2 9262   2.685   0.357   3.775
 2308SOL    HW3 9263   2.595   0.478   3.785
 2308SOL    MW4 9264   2.672   0.440   3.798
 2309SOL     OW 9265   2.944   0.506   3.739
 2309SOL    HW2 9266   2.994   0.450   3.798
 2309SOL    HW3 9267   2.852   0.490   3.762
 2309SOL    MW4 9268   2.938   0.497   3.750
 2310SOL     OW 9269   2.909   0.748   3.876
 2310SOL    HW2 9270   2.977   0.795   3.828
 2310SOL    HW3 9271   2.910   0.660   3.840
 2310SOL    MW4 9272   2.918   0.743   3.865
 2311SOL     OW 9273   2.674   0.871   3.772
 2311SOL    HW2 9274   2.741   0.817   3.815
 2311SOL    HW3 9275   2.591   0.840   3.809
 2311SOL    MW4 9276   2.672   0.860   3.783
 2312SOL     OW 9277   2.698   1.138   3.871
 2312SOL    HW2 9278   2.676   1.047   3.851
 2312SOL    HW3 9279   2.622   1.189   3.843
 2312SOL    MW4 9280   2.685   1.133   3.864
 2313SOL     OW 9281   2.894   1.283   3.735
 2313SOL    HW2 9282   2.888   1.366   3.784
 2313SOL    HW3 9283   2.823   1.230   3.770
 2313SOL    MW4 9284   2.884   1.287   3.746
 2314SOL     OW 9285   2.893   1.550   3.853
 2314SOL    HW2 9286   2.899   1.542   3.948
 2314SOL    HW3 9287   2.980   1.578   3.825
 2314SOL    MW4 9288   2.905   1.553   3.861
 2315SOL     OW 9289   2.678   1.693   3.759
 2315SOL    HW2 9290   2.751   1.649   3.802
 2315SOL    HW3 9291   2.693   1.677   3.665
 2315SOL    MW4 9292   2.690   1.685   3.752
 2316SOL     OW 9293   2.671   1.942   3.871
 2316SOL    HW2 9294   2.675   1.850   3.843
 2316SOL    HW3 9295   2.583   1.971   3.847
 2316SOL    MW4 9296   2.660   1.934   3.864
 2317SOL     OW 9297   2.881   2.059   3.736
 2317SOL    HW2 9298   2.905   2.144   3.772
 2317SOL    HW3 9299   2.801   2.034   3.782
 2317SOL    MW4 9300   2.874   2.067   3.747
 2318SOL     OW 9301   2.945   2.305   3.870
 2318SOL    HW2 9302   2.928   2.321   3.963
 2318SOL    HW3 9303   3.023   2.357   3.851
 2318SOL    MW4 9304   2.953   2.314   3.880
 2319SOL     OW 9305   2.692   2.418   3.793
 2319SOL    HW2 9306   2.688   2.507   3.829
 2319SOL    HW3 9307   2.779   2.386   3.817
 2319SOL    MW4 9308   2.703   2.425   3.801
 2320SOL     OW 9309   2.687   2.681   3.894
 2320SOL    HW2 9310   2.668   2.686   3.988
 2320SOL    HW3 9311   2.609   2.717   3.852
 2320SOL    MW4 9312   2.674   2.686   3.901
 2321SOL     OW 9313   2.898   2.845   3.748
 2321SOL    HW2 9314   2.912   2.931   3.787
 2321SOL    HW3 9315   2.836   2.802   3.807
 2321SOL    MW4 9316   2.892   2.850   3.761
 2322SOL     OW 9317   2.890   3.094   3.885
 2322SOL    HW2 9318   2.967   3.140   3.852
 2322SOL    HW3 9319   2.816   3.138   3.842
 2322SOL    MW4 9320   2.890   3.106   3.875
 2323SOL     OW 9321   2.688   3.212   3.751
 2323SOL    HW2 9322   2.678   3.301   3.784
 2323SOL    HW3 9323   2.623   3.161   3.798
 2323SOL    MW4 9324   2.678   3.217   3.761
 2324SOL     OW 9325   2.695   3.465   3.865
 2324SOL    HW2 9326   2.709   3.466   3.960
 2324SOL    HW3 9327   2.770   3.512   3.829
 2324SOL    MW4 9328   2.706   3.472   3.873
 2325SOL     OW 9329   2.899   3.634   3.771
 2325SOL    HW2 9330   2.981   3.584   3.779
 2325SOL    HW3 9331   2.889   3.647   3.677
 2325SOL    MW4 9332   2.909   3.629   3.759
 2326SOL     OW 9333   2.900   3.909   3.852
 2326SOL    HW2 9334   2.895   3.899   3.947
 2326SOL    HW3 9335   2.917   3.821   3.820
 2326SOL    MW4 9336   2.902   3.896   3.861
 2327SOL     OW 9337   2.692   4.055   3.709
 2327SOL    HW2 9338   2.688   4.146   3.740
 2327SOL    HW3 9339   2.762   4.015   3.761
 2327SOL    MW4 9340   2.701   4.062   3.720
 2328SOL     OW 9341   2.669   4.297   3.844
 2328SOL    HW2 9342   2.732   4.362   3.813
 2328SOL    HW3 9343   2.583   4.336   3.827
 2328SOL    MW4 9344   2.666   4.311   3.838
 2329SOL     OW 9345   2.880   4.472   3.762
 2329SOL    HW2 9346   2.965   4.435   3.786
 2329SOL    HW3 9347   2.879   4.558   3.803
 2329SOL    MW4 9348   2.891   4.478   3.770
 2330SOL     OW 9349   3.362   4.638   3.884
 2330SOL    HW2 9350   3.367   4.626   3.979
 2330SOL    HW3 9351   3.443   4.684   3.861
 2330SOL    MW4 9352   3.374   4.642   3.893
 2331SOL     OW 9353   3.135   0.071   3.763
 2331SOL    HW2 9354   3.216   0.034   3.797
 2331SOL    HW3 9355   3.139   0.055   3.669
 2331SOL    MW4 9356   3.146   0.064   3.755
 2332SOL     OW 9357   3.104   0.337   3.872
 2332SOL    HW2 9358   3.097   0.332   3.967
 2332SOL    HW3 9359   3.106   0.246   3.843
 2332SOL    MW4 9360   3.103   0.325   3.881
 2333SOL     OW 9361   3.315   0.479   3.728
 2333SOL    HW2 9362   3.393   0.425   3.745
 2333SOL    HW3 9363   3.248   0.442   3.785
 2333SOL    MW4 9364   3.317   0.467   3.738
 2334SOL     OW 9365   3.342   0.743   3.813
 2334SOL    HW2 9366   3.343   0.743   3.908
 2334SOL    HW3 9367   3.342   0.650   3.788
 2334SOL    MW4 9368   3.342   0.731   3.822
 2335SOL     OW 9369   3.103   0.891   3.735
 2335SOL    HW2 9370   3.193   0.867   3.758
 2335SOL    HW3 9371   3.095   0.867   3.643
 2335SOL    MW4 9372   3.114   0.884   3.726
 2336SOL     OW 9373   3.091   1.144   3.850
 2336SOL    HW2 9374   3.086   1.061   3.803
 2336SOL    HW3 9375   3.020   1.197   3.813
 2336SOL    MW4 9376   3.081   1.140   3.839
 2337SOL     OW 9377   3.311   1.312   3.779
 2337SOL    HW2 9378   3.234   1.260   3.802
 2337SOL    HW3 9379   3.336   1.280   3.692
 2337SOL    MW4 9380   3.304   1.301   3.771
 2338SOL     OW 9381   3.365   1.545   3.896
 2338SOL    HW2 9382   3.294   1.603   3.867
 2338SOL    HW3 9383   3.351   1.464   3.847
 2338SOL    MW4 9384   3.354   1.542   3.885
 2339SOL     OW 9385   3.144   1.680   3.782
 2339SOL    HW2 9386   3.138   1.774   3.798
 2339SOL    HW3 9387   3.165   1.673   3.689
 2339SOL    MW4 9388   3.146   1.692   3.772
 2340SOL     OW 9389   3.113   1.939   3.829
 2340SOL    HW2 9390   3.080   1.926   3.918
 2340SOL    HW3 9391   3.042   1.984   3.783
 2340SOL    MW4 9392   3.099   1.943   3.835
 2341SOL     OW 9393   3.355   2.070   3.773
 2341SOL    HW2 9394   3.277   2.021   3.801
 2341SOL    HW3 9395   3.349   2.074   3.678
 2341SOL    MW4 9396   3.344   2.064   3.764
 2342SOL     OW 9397   3.366   2.329   3.862
 2342SOL    HW2 9398   3.299   2.370   3.807
 2342SOL    HW3 9399   3.353   2.235   3.851
 2342SOL    MW4 9400   3.355   2.322   3.854
 2343SOL     OW 9401   3.144   2.469   3.742
 2343SOL    HW2 9402   3.125   2.561   3.760
 2343SOL    HW3 9403   3.130   2.459   3.648
 2343SOL    MW4 9404   3.139   2.480   3.732
 2344SOL     OW 9405   3.125   2.719   3.848
 2344SOL    HW2 9406   3.134   2.720   3.944
 2344SOL    HW3 9407   3.038   2.755   3.832
 2344SOL    MW4 9408   3.114   2.724   3.859
 2345SOL     OW 9409   3.365   2.817   3.720
 2345SOL    HW2 9410   3.277   2.803   3.756
 2345SOL    HW3 9411   3.353   2.820   3.626
 2345SOL    MW4 9412   3.352   2.816   3.713
 2346SOL     OW 9413   3.368   3.093   3.776
 2346SOL    HW2 9414   3.456   3.127   3.762
 2346SOL    HW3 9415   3.376   2.999   3.759
 2346SOL    MW4 9416   3.381   3.085   3.772
 2347SOL     OW 9417   3.114   3.214   3.748
 2347SOL    HW2 9418   3.202   3.178   3.752
 2347SOL    HW3 9419   3.100   3.236   3.656
 2347SOL    MW4 9420   3.124   3.212   3.736
 2348SOL     OW 9421   3.121   3.499   3.856
 2348SOL    HW2 9422   3.206   3.541   3.841
 2348SOL    HW3 9423   3.134   3.408   3.828
 2348SOL    MW4 9424   3.134   3.492   3.850
 2349SOL     OW 9425   3.377   3.626   3.817
 2349SOL    HW2 9426   3.364   3.713   3.854
 2349SOL    HW3 9427   3.378   3.639   3.723
 2349SOL    MW4 9428   3.375   3.639   3.810
 2350SOL     OW 9429   3.349   3.893   3.883
 2350SOL    HW2 9430   3.433   3.930   3.858
 2350SOL    HW3 9431   3.284   3.958   3.853
 2350SOL    MW4 9432   3.351   3.907   3.876
 2351SOL     OW 9433   3.140   4.055   3.770
 2351SOL    HW2 9434   3.118   4.148   3.782
 2351SOL    HW3 9435   3.069   4.007   3.811
 2351SOL    MW4 9436   3.128   4.061   3.777
 2352SOL     OW 9437   3.114   4.320   3.822
 2352SOL    HW2 9438   3.120   4.300   3.915
 2352SOL    HW3 9439   3.195   4.367   3.802
 2352SOL    MW4 9440   3.125   4.324   3.832
 2353SOL     OW 9441   3.378   4.400   3.745
 2353SOL    HW2 9442   3.448   4.345   3.782
 2353SOL    HW3 9443   3.382   4.481   3.798
 2353SOL    MW4 9444   3.388   4.404   3.757
 2354SOL     OW 9445   3.823   4.632   3.862
 2354SOL    HW2 9446   3.909   4.664   3.834
 2354SOL    HW3 9447   3.823   4.539   3.840
 2354SOL    MW4 9448   3.834   4.624   3.856
 2355SOL     OW 9449   3.600   0.082   3.763
 2355SOL    HW2 9450   3.678   0.053   3.809
 2355SOL    HW3 9451   3.621   0.069   3.670
 2355SOL    MW4 9452   3.613   0.077   3.756
 2356SOL     OW 9453   3.543   0.361   3.811
 2356SOL    HW2 9454   3.624   0.407   3.791
 2356SOL    HW3 9455   3.563   0.269   3.793
 2356SOL    MW4 9456   3.556   0.355   3.806
 2357SOL     OW 9457   3.790   0.480   3.747
 2357SOL    HW2 9458   3.882   0.462   3.766
 2357SOL    HW3 9459   3.768   0.555   3.802
 2357SOL    MW4 9460   3.799   0.487   3.757
 2358SOL     OW 9461   3.776   0.726   3.876
 2358SOL    HW2 9462   3.858   0.774   3.863
 2358SOL    HW3 9463   3.709   0.783   3.839
 2358SOL    MW4 9464   3.778   0.740   3.869
 2359SOL     OW 9465   3.570   0.878   3.749
 2359SOL    HW2 9466   3.543   0.968   3.770
 2359SOL    HW3 9467   3.493   0.825   3.769
 2359SOL    MW4 9468   3.556   0.883   3.755
 2360SOL     OW 9469   3.498   1.125   3.863
 2360SOL    HW2 9470   3.581   1.172   3.861
 2360SOL    HW3 9471   3.434   1.188   3.828
 2360SOL    MW4 9472   3.501   1.140   3.858
 2361SOL     OW 9473   3.756   1.223   3.763
 2361SOL    HW2 9474   3.834   1.178   3.795
 2361SOL    HW3 9475   3.764   1.312   3.796
 2361SOL    MW4 9476   3.767   1.229   3.771
 2362SOL     OW 9477   3.791   1.481   3.871
 2362SOL    HW2 9478   3.804   1.484   3.966
 2362SOL    HW3 9479   3.710   1.529   3.856
 2362SOL    MW4 9480   3.782   1.488   3.882
 2363SOL     OW 9481   3.600   1.685   3.795
 2363SOL    HW2 9482   3.519   1.642   3.821
 2363SOL    HW3 9483   3.611   1.662   3.703
 2363SOL    MW4 9484   3.591   1.676   3.787
 2364SOL     OW 9485   3.563   1.933   3.885
 2364SOL    HW2 9486   3.571   1.843   3.856
 2364SOL    HW3 9487   3.484   1.966   3.841
 2364SOL    MW4 9488   3.554   1.926   3.875
 2365SOL     OW 9489   3.772   2.042   3.730
 2365SOL    HW2 9490   3.843   1.996   3.776
 2365SOL    HW3 9491   3.693   2.018   3.777
 2365SOL    MW4 9492   3.771   2.033   3.742
 2366SOL     OW 9493   3.809   2.309   3.830
 2366SOL    HW2 9494   3.734   2.355   3.792
 2366SOL    HW3 9495   3.797   2.218   3.805
 2366SOL    MW4 9496   3.797   2.303   3.822
 2367SOL     OW 9497   3.589   2.461   3.755
 2367SOL    HW2 9498   3.519   2.398   3.771
 2367SOL    HW3 9499   3.581   2.483   3.662
 2367SOL    MW4 9500   3.579   2.455   3.745
 2368SOL     OW 9501   3.552   2.711   3.900
 2368SOL    HW2 9502   3.571   2.621   3.876
 2368SOL    HW3 9503   3.494   2.743   3.830
 2368SOL    MW4 9504   3.547   2.704   3.887
 2369SOL     OW 9505   3.765   2.801   3.738
 2369SOL    HW2 9506   3.854   2.781   3.767
 2369SOL    HW3 9507   3.709   2.748   3.794
 2369SOL    MW4 9508   3.769   2.791   3.749
 2370SOL     OW 9509   3.833   3.059   3.858
 2370SOL    HW2 9510   3.758   3.098   3.813
 2370SOL    HW3 9511   3.832   2.967   3.831
 2370SOL    MW4 9512   3.823   3.052   3.849
 2371SOL     OW 9513   3.615   3.201   3.720
 2371SOL    HW2 9514   3.593   3.293   3.735
 2371SOL    HW3 9515   3.587   3.184   3.630
 2371SOL    MW4 9516   3.608   3.211   3.710
 2372SOL     OW 9517   3.586   3.457   3.831
 2372SOL    HW2 9518   3.593   3.450   3.926
 2372SOL    HW3 9519   3.519   3.525   3.817
 2372SOL    MW4 9520   3.578   3.465   3.841
 2373SOL     OW 9521   3.805   3.619   3.790
 2373SOL    HW2 9522   3.799   3.705   3.832
 2373SOL    HW3 9523   3.725   3.573   3.816
 2373SOL    MW4 9524   3.793   3.624   3.799
 2374SOL     OW 9525   3.786   3.884   3.878
 2374SOL    HW2 9526   3.789   3.916   3.968
 2374SOL    HW3 9527   3.874   3.902   3.844
 2374SOL    MW4 9528   3.798   3.890   3.886
 2375SOL     OW 9529   3.562   3.996   3.755
 2375SOL    HW2 9530   3.573   4.085   3.789
 2375SOL    HW3 9531   3.634   3.946   3.793
 2375SOL    MW4 9532   3.573   4.001   3.764
 2376SOL     OW 9533   3.576   4.240   3.865
 2376SOL    HW2 9534   3.588   4.240   3.960
 2376SOL    HW3 9535   3.648   4.293   3.832
 2376SOL    MW4 9536   3.587   4.247   3.874
 2377SOL     OW 9537   3.781   4.376   3.757
 2377SOL    HW2 9538   3.859   4.329   3.784
 2377SOL    HW3 9539   3.788   4.383   3.662
 2377SOL    MW4 9540   3.792   4.371   3.748
 2378SOL     OW 9541   4.272   4.638   3.850
 2378SOL    HW2 9542   4.268   4.638   3.946
 2378SOL    HW3 9543   4.344   4.698   3.829
 2378SOL    MW4 9544   4.281   4.646   3.860
 2379SOL     OW 9545   4.053   0.131   3.767
 2379SOL    HW2 9546   4.125   0.072   3.790
 2379SOL    HW3 9547   4.044   0.123   3.672
 2379SOL    MW4 9548   4.061   0.122   3.758
 2380SOL     OW 9549   4.037   0.397   3.841
 2380SOL    HW2 9550   4.040   0.388   3.936
 2380SOL    HW3 9551   4.042   0.307   3.808
 2380SOL    MW4 9552   4.038   0.384   3.849
 2381SOL     OW 9553   4.291   0.515   3.760
 2381SOL    HW2 9554   4.211   0.486   3.803
 2381SOL    HW3 9555   4.271   0.510   3.666
 2381SOL    MW4 9556   4.278   0.511   3.753
 2382SOL     OW 9557   4.249   0.775   3.890
 2382SOL    HW2 9558   4.162   0.803   3.862
 2382SOL    HW3 9559   4.260   0.688   3.851
 2382SOL    MW4 9560   4.239   0.767   3.881
 2383SOL     OW 9561   4.006   0.861   3.805
 2383SOL    HW2 9562   4.012   0.955   3.818
 2383SOL    HW3 9563   3.997   0.850   3.710
 2383SOL    MW4 9564   4.005   0.872   3.794
 2384SOL     OW 9565   3.994   1.138   3.865
 2384SOL    HW2 9566   4.008   1.146   3.959
 2384SOL    HW3 9567   4.074   1.173   3.826
 2384SOL    MW4 9568   4.007   1.144   3.872
 2385SOL     OW 9569   4.222   1.253   3.761
 2385SOL    HW2 9570   4.215   1.347   3.776
 2385SOL    HW3 9571   4.200   1.241   3.669
 2385SOL    MW4 9572   4.218   1.264   3.751
 2386SOL     OW 9573   4.210   1.519   3.852
 2386SOL    HW2 9574   4.133   1.567   3.820
 2386SOL    HW3 9575   4.285   1.571   3.823
 2386SOL    MW4 9576   4.210   1.532   3.844
 2387SOL     OW 9577   3.979   1.648   3.762
 2387SOL    HW2 9578   3.981   1.728   3.814
 2387SOL    HW3 9579   3.915   1.593   3.807
 2387SOL    MW4 9580   3.971   1.651   3.775
 2388SOL     OW 9581   3.995   1.925   3.864
 2388SOL    HW2 9582   4.003   1.937   3.958
 2388SOL    HW3 9583   4.057   1.988   3.827
 2388SOL    MW4 9584   4.004   1.935   3.871
 2389SOL     OW 9585   4.192   2.079   3.733
 2389SOL    HW2 9586   4.222   2.164   3.765
 2389SOL    HW3 9587   4.208   2.083   3.639
 2389SOL    MW4 9588   4.198   2.091   3.725
 2390SOL     OW 9589   4.237   2.333   3.800
 2390SOL    HW2 9590   4.230   2.323   3.894
 2390SOL    HW3 9591   4.158   2.381   3.775
 2390SOL    MW4 9592   4.226   2.338   3.809
 2391SOL     OW 9593   4.011   2.480   3.735
 2391SOL    HW2 9594   4.014   2.561   3.786
 2391SOL    HW3 9595   3.939   2.430   3.773
 2391SOL    MW4 9596   4.002   2.484   3.746
 2392SOL     OW 9597   4.008   2.736   3.841
 2392SOL    HW2 9598   4.002   2.745   3.937
 2392SOL    HW3 9599   4.092   2.775   3.819
 2392SOL    MW4 9600   4.018   2.742   3.851
 2393SOL     OW 9601   4.232   2.866   3.741
 2393SOL    HW2 9602   4.246   2.950   3.783
 2393SOL    HW3 9603   4.306   2.812   3.769
 2393SOL    MW4 9604   4.243   2.870   3.750
 2394SOL     OW 9605   4.270   3.113   3.864
 2394SOL    HW2 9606   4.206   3.171   3.822
 2394SOL    HW3 9607   4.355   3.146   3.836
 2394SOL    MW4 9608   4.272   3.125   3.855
 2395SOL     OW 9609   4.045   3.247   3.759
 2395SOL    HW2 9610   3.978   3.185   3.788
 2395SOL    HW3 9611   4.043   3.242   3.664
 2395SOL    MW4 9612   4.036   3.239   3.751
 2396SOL     OW 9613   4.051   3.509   3.839
 2396SOL    HW2 9614   4.031   3.417   3.826
 2396SOL    HW3 9615   3.966   3.553   3.832
 2396SOL    MW4 9616   4.037   3.503   3.836
 2397SOL     OW 9617   4.279   3.624   3.737
 2397SOL    HW2 9618   4.197   3.593   3.775
 2397SOL    HW3 9619   4.347   3.572   3.779
 2397SOL    MW4 9620   4.278   3.613   3.748
 2398SOL     OW 9621   4.275   3.891   3.805
 2398SOL    HW2 9622   4.182   3.915   3.806
 2398SOL    HW3 9623   4.276   3.797   3.789
 2398SOL    MW4 9624   4.263   3.882   3.803
 2399SOL     OW 9625   4.008   3.984   3.796
 2399SOL    HW2 9626   3.998   4.072   3.833
 2399SOL    HW3 9627   4.003   3.997   3.701
 2399SOL    MW4 9628   4.006   3.998   3.789
 2400SOL     OW 9629   4.009   4.271   3.858
 2400SOL    HW2 9630   4.012   4.290   3.952
 2400SOL    HW3 9631   4.098   4.288   3.828
 2400SOL    MW4 9632   4.021   4.276   3.867
 2401SOL     OW 9633   4.246   4.375   3.756
 2401SOL    HW2 9634   4.255   4.471   3.761
 2401SOL    HW3 9635   4.335   4.343   3.769
 2401SOL    MW4 9636   4.259   4.384   3.758
 2402SOL     OW 9637   0.193   4.625   4.116
 2402SOL    HW2 9638   0.267   4.673   4.153
 2402SOL    HW3 9639   0.186   4.547   4.171
 2402SOL    MW4 9640   0.202   4.621   4.129
 2403SOL     OW 9641   0.005   0.136   4.213
 2403SOL    HW2 9642   0.033   0.136   4.305
 2403SOL    HW3 9643   0.066   0.078   4.169
 2403SOL    MW4 9644   0.017   0.129   4.219
 2404SOL     OW 9645   4.478   0.408   4.145
 2404SOL    HW2 9646   4.502   0.320   4.174
 2404SOL    HW3 9647   4.499   0.409   4.051
 2404SOL    MW4 9648   4.484   0.396   4.136
 2405SOL     OW 9649   0.190   0.559   4.282
 2405SOL    HW2 9650   0.271   0.507   4.286
 2405SOL    HW3 9651   0.130   0.507   4.230
 2405SOL    MW4 9652   0.193   0.545   4.276
 2406SOL     OW 9653   0.209   0.770   4.107
 2406SOL    HW2 9654   0.129   0.804   4.147
 2406SOL    HW3 9655   0.218   0.681   4.141
 2406SOL    MW4 9656   0.200   0.762   4.117
 2407SOL     OW 9657   4.480   0.888   4.215
 2407SOL    HW2 9658   4.395   0.851   4.195
 2407SOL    HW3 9659   4.469   0.983   4.201
 2407SOL    MW4 9660   4.468   0.896   4.210
 2408SOL     OW 9661   4.467   1.156   4.136
 2408SOL    HW2 9662   4.553   1.198   4.149
 2408SOL    HW3 9663   4.460   1.145   4.041
 2408SOL    MW4 9664   4.478   1.160   4.125
 2409SOL     OW 9665   0.229   1.287   4.195
 2409SOL    HW2 9666   0.209   1.277   4.287
 2409SOL    HW3 9667   0.314   1.242   4.184
 2409SOL    MW4 9668   0.238   1.280   4.205
 2410SOL     OW 9669   0.068   1.408   4.720
 2410SOL    HW2 9670   0.046   1.315   4.719
 2410SOL    HW3 9671  -0.017   1.453   4.715
 2410SOL    MW4 9672   0.054   1.402   4.719
 2411SOL     OW 9673   4.447   1.664   4.208
 2411SOL    HW2 9674   4.369   1.617   4.178
 2411SOL    HW3 9675   4.439   1.751   4.169
 2411SOL    MW4 9676   4.435   1.669   4.199
 2412SOL     OW 9677   0.167   1.900   4.298
 2412SOL    HW2 9678   0.145   1.986   4.331
 2412SOL    HW3 9679   0.257   1.909   4.266
 2412SOL    MW4 9680   0.176   1.912   4.298
 2413SOL     OW 9681   0.309   1.444   4.583
 2413SOL    HW2 9682   0.311   1.534   4.550
 2413SOL    HW3 9683   0.237   1.444   4.646
 2413SOL    MW4 9684   0.300   1.456   4.587
 2414SOL     OW 9685   0.153   2.304   4.159
 2414SOL    HW2 9686   0.235   2.347   4.178
 2414SOL    HW3 9687   0.136   2.248   4.235
 2414SOL    MW4 9688   0.161   2.302   4.171
 2415SOL     OW 9689   4.425   2.465   4.205
 2415SOL    HW2 9690   4.366   2.416   4.148
 2415SOL    HW3 9691   4.510   2.422   4.194
 2415SOL    MW4 9692   4.428   2.453   4.196
 2416SOL     OW 9693   4.398   2.728   4.098
 2416SOL    HW2 9694   4.481   2.772   4.117
 2416SOL    HW3 9695   4.402   2.646   4.148
 2416SOL    MW4 9696   4.409   2.723   4.107
 2417SOL     OW 9697   0.156   2.870   4.154
 2417SOL    HW2 9698   0.240   2.825   4.145
 2417SOL    HW3 9699   0.179   2.963   4.154
 2417SOL    MW4 9700   0.170   2.876   4.153
 2418SOL     OW 9701   0.223   3.153   4.097
 2418SOL    HW2 9702   0.298   3.206   4.124
 2418SOL    HW3 9703   0.149   3.192   4.143
 2418SOL    MW4 9704   0.223   3.165   4.106
 2419SOL     OW 9705   4.470   3.265   4.208
 2419SOL    HW2 9706   4.385   3.239   4.173
 2419SOL    HW3 9707   4.485   3.353   4.173
 2419SOL    MW4 9708   4.461   3.273   4.199
 2420SOL     OW 9709   0.054   3.537   4.133
 2420SOL    HW2 9710  -0.024   3.573   4.176
 2420SOL    HW3 9711   0.030   3.534   4.040
 2420SOL    MW4 9712   0.041   3.542   4.127
 2421SOL     OW 9713   0.266   3.631   4.300
 2421SOL    HW2 9714   0.341   3.604   4.247
 2421SOL    HW3 9715   0.194   3.574   4.271
 2421SOL    MW4 9716   0.266   3.620   4.289
 2422SOL     OW 9717   4.469   4.021   4.275
 2422SOL    HW2 9718   4.423   3.962   4.216
 2422SOL    HW3 9719   4.440   3.994   4.363
 2422SOL    MW4 9720   4.459   4.009   4.279
 2423SOL     OW 9721   4.257   3.663   4.502
 2423SOL    HW2 9722   4.248   3.570   4.522
 2423SOL    HW3 9723   4.284   3.666   4.410
 2423SOL    MW4 9724   4.260   3.651   4.492
 2424SOL     OW 9725   0.022   4.277   4.105
 2424SOL    HW2 9726   0.007   4.192   4.146
 2424SOL    HW3 9727   0.025   4.259   4.011
 2424SOL    MW4 9728   0.020   4.264   4.098
 2425SOL     OW 9729   0.245   4.375   4.238
 2425SOL    HW2 9730   0.228   4.376   4.332
 2425SOL    HW3 9731   0.169   4.332   4.200
 2425SOL    MW4 9732   0.233   4.370   4.245
 2426SOL     OW 9733   0.674   4.652   4.121
 2426SOL    HW2 9734   0.591   4.696   4.133
 2426SOL    HW3 9735   0.686   4.648   4.026
 2426SOL    MW4 9736   0.665   4.657   4.110
 2427SOL     OW 9737   0.422   0.118   4.207
 2427SOL    HW2 9738   0.445   0.108   4.299
 2427SOL    HW3 9739   0.411   0.212   4.195
 2427SOL    MW4 9740   0.424   0.129   4.217
 2428SOL     OW 9741   0.414   0.400   4.139
 2428SOL    HW2 9742   0.501   0.435   4.160
 2428SOL    HW3 9743   0.415   0.390   4.043
 2428SOL    MW4 9744   0.426   0.403   4.129
 2429SOL     OW 9745   0.665   0.503   4.184
 2429SOL    HW2 9746   0.749   0.464   4.158
 2429SOL    HW3 9747   0.670   0.593   4.151
 2429SOL    MW4 9748   0.677   0.510   4.176
 2430SOL     OW 9749   0.666   0.761   4.086
 2430SOL    HW2 9750   0.597   0.797   4.141
 2430SOL    HW3 9751   0.624   0.744   4.002
 2430SOL    MW4 9752   0.651   0.763   4.082
 2431SOL     OW 9753   0.430   0.871   4.231
 2431SOL    HW2 9754   0.429   0.961   4.197
 2431SOL    HW3 9755   0.361   0.826   4.182
 2431SOL    MW4 9756   0.421   0.877   4.220
 2432SOL     OW 9757   0.449   1.133   4.146
 2432SOL    HW2 9758   0.527   1.171   4.187
 2432SOL    HW3 9759   0.458   1.155   4.053
 2432SOL    MW4 9760   0.461   1.141   4.139
 2433SOL     OW 9761   0.653   1.269   4.272
 2433SOL    HW2 9762   0.686   1.258   4.362
 2433SOL    HW3 9763   0.674   1.359   4.250
 2433SOL    MW4 9764   0.660   1.279   4.281
 2434SOL     OW 9765   0.665   1.514   4.157
 2434SOL    HW2 9766   0.737   1.574   4.177
 2434SOL    HW3 9767   0.645   1.530   4.065
 2434SOL    MW4 9768   0.672   1.524   4.147
 2435SOL     OW 9769   0.191   1.548   4.091
 2435SOL    HW2 9770   0.195   1.463   4.135
 2435SOL    HW3 9771   0.106   1.585   4.118
 2435SOL    MW4 9772   0.180   1.542   4.100
 2436SOL     OW 9773   0.414   1.934   4.176
 2436SOL    HW2 9774   0.432   1.846   4.209
 2436SOL    HW3 9775   0.400   1.922   4.082
 2436SOL    MW4 9776   0.415   1.921   4.168
 2437SOL     OW 9777   0.643   2.079   4.243
 2437SOL    HW2 9778   0.605   2.100   4.328
 2437SOL    HW3 9779   0.576   2.025   4.200
 2437SOL    MW4 9780   0.629   2.074   4.249
 2438SOL     OW 9781   0.644   2.325   4.117
 2438SOL    HW2 9782   0.640   2.238   4.158
 2438SOL    HW3 9783   0.649   2.307   4.023
 2438SOL    MW4 9784   0.644   2.311   4.110
 2439SOL     OW 9785   0.405   2.442   4.214
 2439SOL    HW2 9786   0.401   2.533   4.184
 2439SOL    HW3 9787   0.492   2.412   4.187
 2439SOL    MW4 9788   0.416   2.450   4.206
 2440SOL     OW 9789   0.388   2.710   4.116
 2440SOL    HW2 9790   0.472   2.747   4.142
 2440SOL    HW3 9791   0.388   2.715   4.021
 2440SOL    MW4 9792   0.399   2.715   4.107
 2441SOL     OW 9793   0.623   2.850   4.217
 2441SOL    HW2 9794   0.607   2.841   4.311
 2441SOL    HW3 9795   0.629   2.944   4.203
 2441SOL    MW4 9796   0.622   2.861   4.227
 2442SOL     OW 9797   0.658   3.121   4.153
 2442SOL    HW2 9798   0.728   3.148   4.212
 2442SOL    HW3 9799   0.592   3.190   4.162
 2442SOL    MW4 9800   0.658   3.134   4.162
 2443SOL     OW 9801   0.452   3.296   4.176
 2443SOL    HW2 9802   0.445   3.274   4.269
 2443SOL    HW3 9803   0.467   3.390   4.174
 2443SOL    MW4 9804   0.453   3.305   4.188
 2444SOL     OW 9805   0.467   3.567   4.133
 2444SOL    HW2 9806   0.553   3.609   4.123
 2444SOL    HW3 9807   0.438   3.549   4.044
 2444SOL    MW4 9808   0.475   3.570   4.120
 2445SOL     OW 9809   0.907   3.512   4.422
 2445SOL    HW2 9810   0.844   3.454   4.463
 2445SOL    HW3 9811   0.907   3.487   4.330
 2445SOL    MW4 9812   0.899   3.501   4.416
 2446SOL     OW 9813   0.702   3.718   4.096
 2446SOL    HW2 9814   0.724   3.801   4.139
 2446SOL    HW3 9815   0.763   3.654   4.133
 2446SOL    MW4 9816   0.713   3.720   4.107
 2447SOL     OW 9817   0.449   4.060   4.263
 2447SOL    HW2 9818   0.450   4.136   4.204
 2447SOL    HW3 9819   0.359   4.028   4.258
 2447SOL    MW4 9820   0.437   4.066   4.255
 2448SOL     OW 9821   0.456   4.279   4.082
 2448SOL    HW2 9822   0.379   4.322   4.118
 2448SOL    HW3 9823   0.442   4.279   3.987
 2448SOL    MW4 9824   0.444   4.284   4.074
 2449SOL     OW 9825   0.679   4.394   4.195
 2449SOL    HW2 9826   0.598   4.357   4.157
 2449SOL    HW3 9827   0.678   4.485   4.168
 2449SOL    MW4 9828   0.668   4.401   4.186
 2450SOL     OW 9829   1.141   0.041   4.162
 2450SOL    HW2 9830   1.153  -0.047   4.196
 2450SOL    HW3 9831   1.137   0.030   4.067
 2450SOL    MW4 9832   1.142   0.028   4.154
 2451SOL     OW 9833   0.874   0.126   4.230
 2451SOL    HW2 9834   0.951   0.080   4.197
 2451SOL    HW3 9835   0.799   0.081   4.190
 2451SOL    MW4 9836   0.874   0.114   4.221
 2452SOL     OW 9837   0.903   0.371   4.131
 2452SOL    HW2 9838   0.990   0.409   4.144
 2452SOL    HW3 9839   0.903   0.292   4.184
 2452SOL    MW4 9840   0.915   0.366   4.139
 2453SOL     OW 9841   1.129   0.515   4.188
 2453SOL    HW2 9842   1.125   0.521   4.284
 2453SOL    HW3 9843   1.217   0.482   4.170
 2453SOL    MW4 9844   1.140   0.511   4.199
 2454SOL     OW 9845   1.119   0.778   4.109
 2454SOL    HW2 9846   1.202   0.814   4.140
 2454SOL    HW3 9847   1.116   0.690   4.147
 2454SOL    MW4 9848   1.130   0.771   4.118
 2455SOL     OW 9849   0.895   0.871   4.202
 2455SOL    HW2 9850   0.980   0.838   4.173
 2455SOL    HW3 9851   0.831   0.819   4.153
 2455SOL    MW4 9852   0.898   0.860   4.192
 2456SOL     OW 9853   0.843   1.139   4.109
 2456SOL    HW2 9854   0.861   1.056   4.153
 2456SOL    HW3 9855   0.786   1.187   4.169
 2456SOL    MW4 9856   0.838   1.134   4.123
 2457SOL     OW 9857   1.082   1.270   4.226
 2457SOL    HW2 9858   1.054   1.253   4.316
 2457SOL    HW3 9859   1.018   1.224   4.172
 2457SOL    MW4 9860   1.070   1.262   4.231
 2458SOL     OW 9861   1.134   1.545   4.131
 2458SOL    HW2 9862   1.047   1.584   4.128
 2458SOL    HW3 9863   1.119   1.455   4.163
 2458SOL    MW4 9864   1.120   1.538   4.135
 2459SOL     OW 9865   0.888   1.666   4.208
 2459SOL    HW2 9866   0.914   1.658   4.300
 2459SOL    HW3 9867   0.886   1.760   4.192
 2459SOL    MW4 9868   0.891   1.677   4.218
 2460SOL     OW 9869   0.877   1.942   4.135
 2460SOL    HW2 9870   0.808   1.989   4.180
 2460SOL    HW3 9871   0.842   1.926   4.047
 2460SOL    MW4 9872   0.864   1.946   4.129
 2461SOL     OW 9873   1.145   2.014   4.189
 2461SOL    HW2 9874   1.144   2.006   4.285
 2461SOL    HW3 9875   1.056   1.989   4.162
 2461SOL    MW4 9876   1.133   2.010   4.198
 2462SOL     OW 9877   1.070   2.268   4.109
 2462SOL    HW2 9878   1.129   2.338   4.136
 2462SOL    HW3 9879   1.120   2.187   4.123
 2462SOL    MW4 9880   1.084   2.266   4.115
 2463SOL     OW 9881   0.879   2.303   4.306
 2463SOL    HW2 9882   0.948   2.286   4.242
 2463SOL    HW3 9883   0.801   2.320   4.253
 2463SOL    MW4 9884   0.878   2.303   4.291
 2464SOL     OW 9885   0.854   2.718   4.143
 2464SOL    HW2 9886   0.885   2.671   4.220
 2464SOL    HW3 9887   0.772   2.759   4.171
 2464SOL    MW4 9888   0.847   2.717   4.157
 2465SOL     OW 9889   1.077   2.852   4.190
 2465SOL    HW2 9890   1.087   2.938   4.148
 2465SOL    HW3 9891   0.984   2.832   4.180
 2465SOL    MW4 9892   1.066   2.861   4.183
 2466SOL     OW 9893   1.124   3.111   4.113
 2466SOL    HW2 9894   1.201   3.158   4.146
 2466SOL    HW3 9895   1.134   3.113   4.018
 2466SOL    MW4 9896   1.136   3.117   4.105
 2467SOL     OW 9897   0.903   3.222   4.253
 2467SOL    HW2 9898   0.923   3.200   4.343
 2467SOL    HW3 9899   0.971   3.178   4.201
 2467SOL    MW4 9900   0.915   3.213   4.258
 2468SOL     OW 9901   0.884   3.491   4.141
 2468SOL    HW2 9902   0.882   3.405   4.183
 2468SOL    HW3 9903   0.885   3.472   4.047
 2468SOL    MW4 9904   0.884   3.477   4.134
 2469SOL     OW 9905   1.008   3.768   4.347
 2469SOL    HW2 9906   0.956   3.690   4.365
 2469SOL    HW3 9907   1.092   3.752   4.390
 2469SOL    MW4 9908   1.012   3.756   4.355
 2470SOL     OW 9909   1.157   3.795   4.111
 2470SOL    HW2 9910   1.206   3.873   4.139
 2470SOL    HW3 9911   1.092   3.782   4.180
 2470SOL    MW4 9912   1.155   3.803   4.124
 2471SOL     OW 9913   0.719   3.975   4.178
 2471SOL    HW2 9914   0.764   4.045   4.131
 2471SOL    HW3 9915   0.633   4.010   4.198
 2471SOL    MW4 9916   0.714   3.989   4.175
 2472SOL     OW 9917   1.156   4.434   4.235
 2472SOL    HW2 9918   1.235   4.386   4.211
 2472SOL    HW3 9919   1.165   4.450   4.329
 2472SOL    MW4 9920   1.167   4.429   4.245
 2473SOL     OW 9921   0.886   4.496   4.556
 2473SOL    HW2 9922   0.875   4.402   4.542
 2473SOL    HW3 9923   0.978   4.513   4.536
 2473SOL    MW4 9924   0.897   4.486   4.551
 2474SOL     OW 9925   1.558   4.651   4.143
 2474SOL    HW2 9926   1.638   4.698   4.168
 2474SOL    HW3 9927   1.487   4.708   4.172
 2474SOL    MW4 9928   1.559   4.665   4.150
 2475SOL     OW 9929   1.370   0.138   4.265
 2475SOL    HW2 9930   1.378   0.121   4.359
 2475SOL    HW3 9931   1.283   0.104   4.242
 2475SOL    MW4 9932   1.359   0.131   4.274
 2476SOL     OW 9933   1.373   0.389   4.132
 2476SOL    HW2 9934   1.430   0.446   4.184
 2476SOL    HW3 9935   1.377   0.305   4.178
 2476SOL    MW4 9936   1.381   0.385   4.145
 2477SOL     OW 9937   1.528   0.550   4.261
 2477SOL    HW2 9938   1.477   0.565   4.340
 2477SOL    HW3 9939   1.510   0.626   4.206
 2477SOL    MW4 9940   1.519   0.562   4.264
 2478SOL     OW 9941   1.547   0.777   4.108
 2478SOL    HW2 9942   1.638   0.781   4.136
 2478SOL    HW3 9943   1.550   0.788   4.013
 2478SOL    MW4 9944   1.559   0.779   4.099
 2479SOL     OW 9945   1.339   0.915   4.220
 2479SOL    HW2 9946   1.328   0.994   4.167
 2479SOL    HW3 9947   1.416   0.871   4.183
 2479SOL    MW4 9948   1.348   0.920   4.208
 2480SOL     OW 9949   1.353   1.188   4.160
 2480SOL    HW2 9950   1.271   1.223   4.194
 2480SOL    HW3 9951   1.354   1.215   4.068
 2480SOL    MW4 9952   1.342   1.196   4.152
 2481SOL     OW 9953   1.592   1.267   4.240
 2481SOL    HW2 9954   1.582   1.268   4.335
 2481SOL    HW3 9955   1.507   1.238   4.206
 2481SOL    MW4 9956   1.580   1.263   4.248
 2482SOL     OW 9957   1.592   1.530   4.125
 2482SOL    HW2 9958   1.511   1.562   4.165
 2482SOL    HW3 9959   1.615   1.453   4.176
 2482SOL    MW4 9960   1.585   1.524   4.137
 2483SOL     OW 9961   1.364   1.667   4.236
 2483SOL    HW2 9962   1.356   1.754   4.197
 2483SOL    HW3 9963   1.288   1.619   4.203
 2483SOL    MW4 9964   1.353   1.672   4.227
 2484SOL     OW 9965   1.366   1.907   4.074
 2484SOL    HW2 9966   1.437   1.967   4.096
 2484SOL    HW3 9967   1.291   1.941   4.124
 2484SOL    MW4 9968   1.365   1.920   4.084
 2485SOL     OW 9969   1.562   2.078   4.168
 2485SOL    HW2 9970   1.657   2.065   4.166
 2485SOL    HW3 9971   1.551   2.169   4.140
 2485SOL    MW4 9972   1.573   2.088   4.164
 2486SOL     OW 9973   1.538   2.345   4.070
 2486SOL    HW2 9974   1.595   2.413   4.105
 2486SOL    HW3 9975   1.553   2.347   3.976
 2486SOL    MW4 9976   1.548   2.354   4.063
 2487SOL     OW 9977   1.469   2.878   4.107
 2487SOL    HW2 9978   1.468   2.876   4.203
 2487SOL    HW3 9979   1.557   2.848   4.084
 2487SOL    MW4 9980   1.480   2.874   4.116
 2488SOL     OW 9981   1.249   2.708   4.036
 2488SOL    HW2 9982   1.322   2.769   4.040
 2488SOL    HW3 9983   1.184   2.742   4.098
 2488SOL    MW4 9984   1.250   2.720   4.045
 2489SOL     OW 9985   1.520   2.277   4.733
 2489SOL    HW2 9986   1.604   2.298   4.693
 2489SOL    HW3 9987   1.476   2.361   4.743
 2489SOL    MW4 9988   1.526   2.291   4.729
 2490SOL     OW 9989   1.501   3.164   4.084
 2490SOL    HW2 9990   1.584   3.169   4.131
 2490SOL    HW3 9991   1.477   3.071   4.088
 2490SOL    MW4 9992   1.509   3.152   4.090
 2491SOL     OW 9993   1.309   3.310   4.206
 2491SOL    HW2 9994   1.386   3.271   4.166
 2491SOL    HW3 9995   1.307   3.400   4.173
 2491SOL    MW4 9996   1.319   3.317   4.197
 2492SOL     OW 9997   1.318   3.572   4.104
 2492SOL    HW2 9998   1.254   3.643   4.106
 2492SOL    HW3 9999   1.311   3.536   4.016
 2492SOL    MW410000   1.309   3.577   4.092
 2493SOL     OW10001   1.570   3.612   4.231
 2493SOL    HW210002   1.547   3.630   4.322
 2493SOL    HW310003   1.486   3.608   4.185
 2493SOL    MW410004   1.556   3.614   4.237
 2494SOL     OW10005   1.591   3.873   4.133
 2494SOL    HW210006   1.518   3.923   4.170
 2494SOL    HW310007   1.586   3.788   4.176
 2494SOL    MW410008   1.581   3.868   4.144
 2495SOL     OW10009   1.338   3.987   4.206
 2495SOL    HW210010   1.328   4.000   4.300
 2495SOL    HW310011   1.333   4.075   4.169
 2495SOL    MW410012   1.336   4.000   4.214
 2496SOL     OW10013   1.337   4.258   4.127
 2496SOL    HW210014   1.410   4.312   4.157
 2496SOL    HW310015   1.318   4.289   4.038
 2496SOL    MW410016   1.344   4.269   4.119
 2497SOL     OW10017   1.547   4.399   4.242
 2497SOL    HW210018   1.551   4.493   4.224
 2497SOL    HW310019   1.604   4.359   4.176
 2497SOL    MW410020   1.555   4.406   4.231
 2498SOL     OW10021   1.995   0.006   4.088
 2498SOL    HW210022   1.920   0.055   4.121
 2498SOL    HW310023   1.982   0.002   3.994
 2498SOL    MW410024   1.984   0.012   4.080
 2499SOL     OW10025   1.794   0.139   4.209
 2499SOL    HW210026   1.825   0.143   4.300
 2499SOL    HW310027   1.763   0.228   4.191
 2499SOL    MW410028   1.794   0.151   4.219
 2500SOL     OW10029   1.739   0.403   4.137
 2500SOL    HW210030   1.822   0.447   4.157
 2500SOL    HW310031   1.673   0.453   4.184
 2500SOL    MW410032   1.741   0.415   4.146
 2501SOL     OW10033   1.990   0.508   4.211
 2501SOL    HW210034   1.975   0.493   4.305
 2501SOL    HW310035   2.066   0.455   4.190
 2501SOL    MW410036   1.998   0.499   4.221
 2502SOL     OW10037   2.015   0.760   4.114
 2502SOL    HW210038   2.084   0.802   4.165
 2502SOL    HW310039   2.015   0.670   4.144
 2502SOL    MW410040   2.024   0.754   4.124
 2503SOL     OW10041   1.779   0.851   4.240
 2503SOL    HW210042   1.790   0.945   4.224
 2503SOL    HW310043   1.864   0.813   4.214
 2503SOL    MW410044   1.792   0.858   4.234
 2504SOL     OW10045   1.807   1.117   4.142
 2504SOL    HW210046   1.871   1.170   4.189
 2504SOL    HW310047   1.723   1.162   4.154
 2504SOL    MW410048   1.804   1.130   4.150
 2505SOL     OW10049   1.997   1.280   4.257
 2505SOL    HW210050   2.079   1.234   4.235
 2505SOL    HW310051   2.009   1.368   4.223
 2505SOL    MW410052   2.010   1.285   4.249
 2506SOL     OW10053   2.043   1.560   4.167
 2506SOL    HW210054   2.108   1.585   4.233
 2506SOL    HW310055   2.087   1.575   4.083
 2506SOL    MW410056   2.058   1.565   4.164
 2507SOL     OW10057   1.801   1.693   4.181
 2507SOL    HW210058   1.881   1.643   4.167
 2507SOL    HW310059   1.730   1.630   4.168
 2507SOL    MW410060   1.802   1.678   4.177
 2508SOL     OW10061   1.832   1.991   4.141
 2508SOL    HW210062   1.811   1.902   4.170
 2508SOL    HW310063   1.904   2.018   4.198
 2508SOL    MW410064   1.838   1.983   4.153
 2509SOL     OW10065   1.699   2.509   4.220
 2509SOL    HW210066   1.669   2.531   4.308
 2509SOL    HW310067   1.786   2.547   4.214
 2509SOL    MW410068   1.706   2.517   4.231
 2510SOL     OW10069   2.414   2.347   4.171
 2510SOL    HW210070   2.418   2.260   4.210
 2510SOL    HW310071   2.401   2.331   4.078
 2510SOL    MW410072   2.413   2.334   4.164
 2511SOL     OW10073   1.644   3.073   4.464
 2511SOL    HW210074   1.595   3.006   4.416
 2511SOL    HW310075   1.686   3.125   4.396
 2511SOL    MW410076   1.643   3.071   4.449
 2512SOL     OW10077   1.753   2.836   4.064
 2512SOL    HW210078   1.785   2.758   4.110
 2512SOL    HW310079   1.815   2.905   4.086
 2512SOL    MW410080   1.765   2.835   4.073
 2513SOL     OW10081   1.941   3.022   4.129
 2513SOL    HW210082   1.999   2.980   4.193
 2513SOL    HW310083   1.992   3.026   4.049
 2513SOL    MW410084   1.955   3.017   4.127
 2514SOL     OW10085   2.244   3.000   4.081
 2514SOL    HW210086   2.327   3.021   4.123
 2514SOL    HW310087   2.202   2.937   4.141
 2514SOL    MW410088   2.249   2.994   4.094
 2515SOL     OW10089   1.738   3.182   4.214
 2515SOL    HW210090   1.760   3.273   4.191
 2515SOL    HW310091   1.822   3.136   4.214
 2515SOL    MW410092   1.752   3.188   4.211
 2516SOL     OW10093   1.772   3.448   4.125
 2516SOL    HW210094   1.693   3.490   4.159
 2516SOL    HW310095   1.773   3.470   4.032
 2516SOL    MW410096   1.762   3.456   4.117
 2517SOL     OW10097   2.055   3.596   4.278
 2517SOL    HW210098   2.039   3.679   4.234
 2517SOL    HW310099   1.979   3.542   4.256
 2517SOL    MW410100   2.043   3.600   4.269
 2518SOL     OW10101   1.998   3.829   4.155
 2518SOL    HW210102   1.927   3.889   4.177
 2518SOL    HW310103   2.007   3.836   4.060
 2518SOL    MW410104   1.990   3.838   4.145
 2519SOL     OW10105   1.808   4.032   4.184
 2519SOL    HW210106   1.794   4.117   4.143
 2519SOL    HW310107   1.730   3.981   4.163
 2519SOL    MW410108   1.796   4.036   4.176
 2520SOL     OW10109   1.758   4.284   4.077
 2520SOL    HW210110   1.837   4.328   4.109
 2520SOL    HW310111   1.768   4.284   3.982
 2520SOL    MW410112   1.770   4.289   4.069
 2521SOL     OW10113   1.966   4.421   4.184
 2521SOL    HW210114   1.980   4.412   4.279
 2521SOL    HW310115   1.970   4.516   4.168
 2521SOL    MW410116   1.969   4.433   4.195
 2522SOL     OW10117   2.442   4.664   4.134
 2522SOL    HW210118   2.533   4.672   4.164
 2522SOL    HW310119   2.426   4.570   4.131
 2522SOL    MW410120   2.452   4.653   4.138
 2523SOL     OW10121   2.206   0.131   4.227
 2523SOL    HW210122   2.280   0.075   4.205
 2523SOL    HW310123   2.136   0.103   4.167
 2523SOL    MW410124   2.207   0.120   4.216
 2524SOL     OW10125   2.214   0.372   4.087
 2524SOL    HW210126   2.211   0.284   4.125
 2524SOL    HW310127   2.198   0.358   3.994
 2524SOL    MW410128   2.212   0.359   4.080
 2525SOL     OW10129   2.438   0.456   4.216
 2525SOL    HW210130   2.505   0.400   4.177
 2525SOL    HW310131   2.358   0.435   4.167
 2525SOL    MW410132   2.436   0.446   4.204
 2526SOL     OW10133   2.436   0.726   4.178
 2526SOL    HW210134   2.429   0.631   4.184
 2526SOL    HW310135   2.444   0.744   4.084
 2526SOL    MW410136   2.436   0.716   4.166
 2527SOL     OW10137   2.222   0.866   4.296
 2527SOL    HW210138   2.231   0.829   4.383
 2527SOL    HW310139   2.291   0.824   4.245
 2527SOL    MW410140   2.232   0.856   4.301
 2528SOL     OW10141   2.216   1.137   4.174
 2528SOL    HW210142   2.298   1.184   4.190
 2528SOL    HW310143   2.225   1.055   4.223
 2528SOL    MW410144   2.228   1.132   4.183
 2529SOL     OW10145   2.456   1.278   4.245
 2529SOL    HW210146   2.490   1.296   4.332
 2529SOL    HW310147   2.526   1.231   4.200
 2529SOL    MW410148   2.469   1.274   4.250
 2530SOL     OW10149   2.422   1.529   4.133
 2530SOL    HW210150   2.435   1.439   4.163
 2530SOL    HW310151   2.425   1.523   4.038
 2530SOL    MW410152   2.424   1.517   4.125
 2531SOL     OW10153   2.238   1.647   4.322
 2531SOL    HW210154   2.302   1.604   4.265
 2531SOL    HW310155   2.227   1.734   4.284
 2531SOL    MW410156   2.245   1.653   4.310
 2532SOL     OW10157   2.211   1.874   4.198
 2532SOL    HW210158   2.287   1.932   4.208
 2532SOL    HW310159   2.140   1.921   4.242
 2532SOL    MW410160   2.212   1.888   4.205
 2533SOL     OW10161   2.396   2.080   4.276
 2533SOL    HW210162   2.477   2.065   4.226
 2533SOL    HW310163   2.421   2.069   4.367
 2533SOL    MW410164   2.410   2.076   4.281
 2534SOL     OW10165   2.705   2.704   4.171
 2534SOL    HW210166   2.641   2.751   4.224
 2534SOL    HW310167   2.789   2.718   4.216
 2534SOL    MW410168   2.708   2.712   4.184
 2535SOL     OW10169   2.330   2.542   4.439
 2535SOL    HW210170   2.301   2.633   4.429
 2535SOL    HW310171   2.338   2.509   4.349
 2535SOL    MW410172   2.328   2.550   4.426
 2536SOL     OW10173   1.950   2.639   4.159
 2536SOL    HW210174   2.014   2.706   4.183
 2536SOL    HW310175   2.003   2.564   4.132
 2536SOL    MW410176   1.966   2.638   4.159
 2537SOL     OW10177   2.485   2.832   4.266
 2537SOL    HW210178   2.427   2.787   4.204
 2537SOL    HW310179   2.445   2.816   4.352
 2537SOL    MW410180   2.472   2.824   4.269
 2538SOL     OW10181   2.071   3.259   4.364
 2538SOL    HW210182   2.064   3.259   4.268
 2538SOL    HW310183   2.094   3.170   4.387
 2538SOL    MW410184   2.073   3.247   4.354
 2539SOL     OW10185   2.109   3.263   4.094
 2539SOL    HW210186   2.032   3.240   4.043
 2539SOL    HW310187   2.145   3.179   4.122
 2539SOL    MW410188   2.104   3.249   4.091
 2540SOL     OW10189   2.262   3.489   4.148
 2540SOL    HW210190   2.241   3.396   4.146
 2540SOL    HW310191   2.187   3.530   4.191
 2540SOL    MW410192   2.250   3.482   4.154
 2541SOL     OW10193   2.484   3.638   4.198
 2541SOL    HW210194   2.415   3.575   4.176
 2541SOL    HW310195   2.449   3.722   4.171
 2541SOL    MW410196   2.470   3.640   4.191
 2542SOL     OW10197   2.438   3.890   4.102
 2542SOL    HW210198   2.512   3.930   4.148
 2542SOL    HW310199   2.457   3.902   4.009
 2542SOL    MW410200   2.450   3.897   4.096
 2543SOL     OW10201   2.207   4.004   4.195
 2543SOL    HW210202   2.285   3.958   4.167
 2543SOL    HW310203   2.134   3.948   4.167
 2543SOL    MW410204   2.207   3.991   4.188
 2544SOL     OW10205   2.193   4.269   4.101
 2544SOL    HW210206   2.196   4.179   4.132
 2544SOL    HW310207   2.115   4.306   4.142
 2544SOL    MW410208   2.183   4.262   4.110
 2545SOL     OW10209   2.427   4.389   4.185
 2545SOL    HW210210   2.347   4.338   4.169
 2545SOL    HW310211   2.497   4.330   4.158
 2545SOL    MW410212   2.425   4.374   4.179
 2546SOL     OW10213   2.931   4.616   4.136
 2546SOL    HW210214   3.005   4.633   4.193
 2546SOL    HW310215   2.898   4.530   4.163
 2546SOL    MW410216   2.936   4.607   4.147
 2547SOL     OW10217   2.697   0.096   4.228
 2547SOL    HW210218   2.697   0.176   4.176
 2547SOL    HW310219   2.773   0.047   4.197
 2547SOL    MW410220   2.707   0.100   4.217
 2548SOL     OW10221   2.662   0.336   4.087
 2548SOL    HW210222   2.663   0.376   3.999
 2548SOL    HW310223   2.739   0.372   4.131
 2548SOL    MW410224   2.672   0.346   4.081
 2549SOL     OW10225   3.312   0.690   4.094
 2549SOL    HW210226   3.379   0.734   4.147
 2549SOL    HW310227   3.234   0.744   4.104
 2549SOL    MW410228   3.311   0.703   4.102
 2550SOL     OW10229   3.026   0.793   4.126
 2550SOL    HW210230   3.015   0.888   4.134
 2550SOL    HW310231   2.993   0.772   4.039
 2550SOL    MW410232   3.021   0.803   4.116
 2551SOL     OW10233   2.657   0.882   4.259
 2551SOL    HW210234   2.729   0.825   4.285
 2551SOL    HW310235   2.594   0.824   4.216
 2551SOL    MW410236   2.658   0.867   4.257
 2552SOL     OW10237   2.671   1.137   4.149
 2552SOL    HW210238   2.675   1.047   4.183
 2552SOL    HW310239   2.709   1.131   4.061
 2552SOL    MW410240   2.677   1.124   4.141
 2553SOL     OW10241   2.865   1.323   4.278
 2553SOL    HW210242   2.951   1.285   4.295
 2553SOL    HW310243   2.817   1.254   4.232
 2553SOL    MW410244   2.870   1.309   4.274
 2554SOL     OW10245   2.870   1.561   4.126
 2554SOL    HW210246   2.946   1.611   4.156
 2554SOL    HW310247   2.870   1.483   4.182
 2554SOL    MW410248   2.880   1.557   4.138
 2555SOL     OW10249   2.620   1.709   4.228
 2555SOL    HW210250   2.703   1.672   4.198
 2555SOL    HW310251   2.553   1.654   4.188
 2555SOL    MW410252   2.622   1.697   4.219
 2556SOL     OW10253   2.626   1.973   4.151
 2556SOL    HW210254   2.623   1.883   4.184
 2556SOL    HW310255   2.654   1.965   4.060
 2556SOL    MW410256   2.629   1.960   4.143
 2557SOL     OW10257   2.869   2.083   4.213
 2557SOL    HW210258   2.873   2.174   4.184
 2557SOL    HW310259   2.779   2.056   4.196
 2557SOL    MW410260   2.858   2.091   4.207
 2558SOL     OW10261   2.907   2.359   4.139
 2558SOL    HW210262   2.983   2.388   4.188
 2558SOL    HW310263   2.832   2.394   4.188
 2558SOL    MW410264   2.907   2.367   4.152
 2559SOL     OW10265   2.701   3.199   4.529
 2559SOL    HW210266   2.672   3.289   4.542
 2559SOL    HW310267   2.649   3.147   4.591
 2559SOL    MW410268   2.691   3.204   4.539
 2560SOL     OW10269   2.479   3.099   4.197
 2560SOL    HW210270   2.500   3.008   4.218
 2560SOL    HW310271   2.434   3.131   4.275
 2560SOL    MW410272   2.476   3.091   4.210
 2561SOL     OW10273   2.879   3.048   4.158
 2561SOL    HW210274   2.821   3.117   4.187
 2561SOL    HW310275   2.881   3.056   4.062
 2561SOL    MW410276   2.872   3.058   4.149
 2562SOL     OW10277   2.919   3.105   4.689
 2562SOL    HW210278   2.930   3.023   4.641
 2562SOL    HW310279   2.862   3.157   4.633
 2562SOL    MW410280   2.913   3.101   4.675
 2563SOL     OW10281   2.709   3.242   4.255
 2563SOL    HW210282   2.722   3.237   4.350
 2563SOL    HW310283   2.622   3.205   4.241
 2563SOL    MW410284   2.699   3.237   4.266
 2564SOL     OW10285   2.730   3.506   4.151
 2564SOL    HW210286   2.726   3.417   4.185
 2564SOL    HW310287   2.639   3.537   4.154
 2564SOL    MW410288   2.717   3.498   4.156
 2565SOL     OW10289   2.939   3.646   4.277
 2565SOL    HW210290   2.922   3.646   4.371
 2565SOL    HW310291   2.867   3.594   4.240
 2565SOL    MW410292   2.927   3.639   4.284
 2566SOL     OW10293   2.898   3.892   4.152
 2566SOL    HW210294   2.979   3.935   4.179
 2566SOL    HW310295   2.902   3.805   4.192
 2566SOL    MW410296   2.910   3.886   4.161
 2567SOL     OW10297   2.640   3.978   4.265
 2567SOL    HW210298   2.635   4.063   4.221
 2567SOL    HW310299   2.717   3.936   4.226
 2567SOL    MW410300   2.650   3.984   4.254
 2568SOL     OW10301   2.643   4.235   4.121
 2568SOL    HW210302   2.724   4.265   4.161
 2568SOL    HW310303   2.658   4.244   4.027
 2568SOL    MW410304   2.656   4.240   4.114
 2569SOL     OW10305   2.886   4.341   4.196
 2569SOL    HW210306   2.905   4.357   4.289
 2569SOL    HW310307   2.970   4.319   4.158
 2569SOL    MW410308   2.899   4.340   4.204
 2570SOL     OW10309   3.427   4.621   4.138
 2570SOL    HW210310   3.494   4.669   4.187
 2570SOL    HW310311   3.406   4.545   4.193
 2570SOL    MW410312   3.433   4.617   4.152
 2571SOL     OW10313   3.173   0.017   4.252
 2571SOL    HW210314   3.192   0.043   4.342
 2571SOL    HW310315   3.259  -0.004   4.215
 2571SOL    MW410316   3.187   0.018   4.259
 2572SOL     OW10317   3.089   0.275   4.150
 2572SOL    HW210318   3.177   0.308   4.169
 2572SOL    HW310319   3.098   0.180   4.156
 2572SOL    MW410320   3.102   0.267   4.154
 2573SOL     OW10321   3.320   0.425   4.188
 2573SOL    HW210322   3.401   0.387   4.154
 2573SOL    HW310323   3.322   0.516   4.158
 2573SOL    MW410324   3.331   0.432   4.180
 2574SOL     OW10325   3.530   0.815   4.261
 2574SOL    HW210326   3.501   0.896   4.219
 2574SOL    HW310327   3.492   0.819   4.348
 2574SOL    MW410328   3.521   0.827   4.267
 2575SOL     OW10329   3.114   1.059   4.586
 2575SOL    HW210330   3.123   1.112   4.665
 2575SOL    HW310331   3.056   0.987   4.612
 2575SOL    MW410332   3.108   1.056   4.600
 2576SOL     OW10333   3.020   1.061   4.124
 2576SOL    HW210334   3.072   1.101   4.194
 2576SOL    HW310335   3.057   1.098   4.043
 2576SOL    MW410336   3.032   1.071   4.122
 2577SOL     OW10337   3.579   1.140   4.288
 2577SOL    HW210338   3.597   1.076   4.357
 2577SOL    HW310339   3.510   1.195   4.323
 2577SOL    MW410340   3.573   1.139   4.302
 2578SOL     OW10341   3.370   1.319   4.318
 2578SOL    HW210342   3.365   1.391   4.255
 2578SOL    HW310343   3.387   1.362   4.402
 2578SOL    MW410344   3.371   1.334   4.321
 2579SOL     OW10345   3.092   1.678   4.230
 2579SOL    HW210346   3.077   1.678   4.325
 2579SOL    HW310347   3.088   1.771   4.206
 2579SOL    MW410348   3.090   1.690   4.239
 2580SOL     OW10349   3.060   1.936   4.094
 2580SOL    HW210350   3.135   1.985   4.126
 2580SOL    HW310351   2.985   1.993   4.112
 2580SOL    MW410352   3.060   1.950   4.100
 2581SOL     OW10353   3.297   2.055   4.248
 2581SOL    HW210354   3.376   2.010   4.217
 2581SOL    HW310355   3.308   2.145   4.218
 2581SOL    MW410356   3.309   2.061   4.240
 2582SOL     OW10357   3.343   2.309   4.153
 2582SOL    HW210358   3.426   2.339   4.190
 2582SOL    HW310359   3.355   2.317   4.058
 2582SOL    MW410360   3.355   2.314   4.145
 2583SOL     OW10361   3.139   2.469   4.276
 2583SOL    HW210362   3.152   2.556   4.239
 2583SOL    HW310363   3.195   2.412   4.223
 2583SOL    MW410364   3.148   2.473   4.264
 2584SOL     OW10365   3.185   2.714   4.123
 2584SOL    HW210366   3.277   2.738   4.131
 2584SOL    HW310367   3.137   2.789   4.159
 2584SOL    MW410368   3.191   2.727   4.129
 2585SOL     OW10369   3.458   2.775   4.582
 2585SOL    HW210370   3.369   2.788   4.614
 2585SOL    HW310371   3.462   2.828   4.502
 2585SOL    MW410372   3.447   2.783   4.576
 2586SOL     OW10373   3.364   3.178   4.080
 2586SOL    HW210374   3.277   3.194   4.115
 2586SOL    HW310375   3.350   3.153   3.989
 2586SOL    MW410376   3.351   3.177   4.073
 2587SOL     OW10377   3.126   3.221   4.197
 2587SOL    HW210378   3.101   3.314   4.196
 2587SOL    HW310379   3.043   3.175   4.210
 2587SOL    MW410380   3.112   3.227   4.198
 2588SOL     OW10381   3.142   3.508   4.146
 2588SOL    HW210382   3.067   3.547   4.192
 2588SOL    HW310383   3.117   3.511   4.053
 2588SOL    MW410384   3.129   3.514   4.140
 2589SOL     OW10385   3.388   3.613   4.255
 2589SOL    HW210386   3.391   3.575   4.342
 2589SOL    HW310387   3.308   3.578   4.215
 2589SOL    MW410388   3.377   3.603   4.261
 2590SOL     OW10389   3.403   3.897   4.169
 2590SOL    HW210390   3.403   3.812   4.214
 2590SOL    HW310391   3.381   3.876   4.078
 2590SOL    MW410392   3.400   3.883   4.163
 2591SOL     OW10393   3.142   4.023   4.217
 2591SOL    HW210394   3.134   4.038   4.312
 2591SOL    HW310395   3.231   3.988   4.206
 2591SOL    MW410396   3.153   4.020   4.228
 2592SOL     OW10397   3.150   4.289   4.109
 2592SOL    HW210398   3.229   4.331   4.143
 2592SOL    HW310399   3.150   4.202   4.148
 2592SOL    MW410400   3.161   4.283   4.119
 2593SOL     OW10401   3.384   4.373   4.254
 2593SOL    HW210402   3.419   4.409   4.336
 2593SOL    HW310403   3.455   4.317   4.220
 2593SOL    MW410404   3.398   4.370   4.260
 2594SOL     OW10405   3.830   4.665   4.136
 2594SOL    HW210406   3.909   4.717   4.153
 2594SOL    HW310407   3.830   4.652   4.041
 2594SOL    MW410408   3.841   4.670   4.126
 2595SOL     OW10409   3.605   0.126   4.250
 2595SOL    HW210410   3.594   0.211   4.209
 2595SOL    HW310411   3.687   0.092   4.214
 2595SOL    MW410412   3.614   0.132   4.240
 2596SOL     OW10413   3.555   0.349   4.084
 2596SOL    HW210414   3.631   0.399   4.113
 2596SOL    HW310415   3.556   0.357   3.988
 2596SOL    MW410416   3.565   0.356   4.075
 2597SOL     OW10417   3.768   0.475   4.210
 2597SOL    HW210418   3.749   0.482   4.303
 2597SOL    HW310419   3.787   0.565   4.182
 2597SOL    MW410420   3.768   0.488   4.218
 2598SOL     OW10421   3.779   0.739   4.146
 2598SOL    HW210422   3.692   0.751   4.185
 2598SOL    HW310423   3.763   0.740   4.052
 2598SOL    MW410424   3.765   0.740   4.139
 2599SOL     OW10425   3.519   0.726   4.564
 2599SOL    HW210426   3.513   0.635   4.594
 2599SOL    HW310427   3.430   0.748   4.536
 2599SOL    MW410428   3.507   0.717   4.564
 2600SOL     OW10429   3.424   0.991   4.086
 2600SOL    HW210430   3.470   1.064   4.127
 2600SOL    HW310431   3.436   1.006   3.992
 2600SOL    MW410432   3.432   1.003   4.079
 2601SOL     OW10433   3.812   1.293   4.301
 2601SOL    HW210434   3.731   1.243   4.308
 2601SOL    HW310435   3.863   1.267   4.377
 2601SOL    MW410436   3.808   1.283   4.312
 2602SOL     OW10437   3.818   1.535   4.142
 2602SOL    HW210438   3.825   1.472   4.214
 2602SOL    HW310439   3.885   1.600   4.160
 2602SOL    MW410440   3.828   1.535   4.154
 2603SOL     OW10441   3.535   1.952   4.171
 2603SOL    HW210442   3.532   1.946   4.076
 2603SOL    HW310443   3.537   1.862   4.202
 2603SOL    MW410444   3.535   1.939   4.163
 2604SOL     OW10445   3.338   1.543   4.168
 2604SOL    HW210446   3.334   1.548   4.073
 2604SOL    HW310447   3.258   1.587   4.198
 2604SOL    MW410448   3.327   1.549   4.160
 2605SOL     OW10449   3.775   2.097   4.237
 2605SOL    HW210450   3.766   2.092   4.332
 2605SOL    HW310451   3.697   2.052   4.204
 2605SOL    MW410452   3.763   2.090   4.245
 2606SOL     OW10453   3.736   2.349   4.121
 2606SOL    HW210454   3.734   2.263   4.163
 2606SOL    HW310455   3.740   2.330   4.027
 2606SOL    MW410456   3.736   2.336   4.114
 2607SOL     OW10457   3.539   2.512   4.287
 2607SOL    HW210458   3.552   2.502   4.381
 2607SOL    HW310459   3.626   2.498   4.249
 2607SOL    MW410460   3.552   2.509   4.294
 2608SOL     OW10461   3.467   2.764   4.168
 2608SOL    HW210462   3.494   2.680   4.205
 2608SOL    HW310463   3.487   2.758   4.075
 2608SOL    MW410464   3.473   2.752   4.160
 2609SOL     OW10465   3.763   2.826   4.207
 2609SOL    HW210466   3.766   2.827   4.302
 2609SOL    HW310467   3.676   2.794   4.185
 2609SOL    MW410468   3.752   2.822   4.216
 2610SOL     OW10469   3.798   3.095   4.134
 2610SOL    HW210470   3.799   3.000   4.146
 2610SOL    HW310471   3.810   3.107   4.040
 2610SOL    MW410472   3.800   3.084   4.123
 2611SOL     OW10473   3.575   3.220   4.244
 2611SOL    HW210474   3.648   3.170   4.208
 2611SOL    HW310475   3.500   3.197   4.189
 2611SOL    MW410476   3.575   3.210   4.232
 2612SOL     OW10477   3.623   3.487   4.115
 2612SOL    HW210478   3.626   3.403   4.160
 2612SOL    HW310479   3.547   3.532   4.150
 2612SOL    MW410480   3.614   3.482   4.125
 2613SOL     OW10481   3.845   3.661   4.195
 2613SOL    HW210482   3.923   3.615   4.165
 2613SOL    HW310483   3.772   3.619   4.148
 2613SOL    MW410484   3.846   3.650   4.185
 2614SOL     OW10485   3.824   3.935   4.139
 2614SOL    HW210486   3.756   3.967   4.198
 2614SOL    HW310487   3.822   3.840   4.149
 2614SOL    MW410488   3.815   3.927   4.148
 2615SOL     OW10489   3.618   4.030   4.303
 2615SOL    HW210490   3.620   4.012   4.397
 2615SOL    HW310491   3.543   3.980   4.271
 2615SOL    MW410492   3.608   4.021   4.311
 2616SOL     OW10493   3.607   4.250   4.132
 2616SOL    HW210494   3.669   4.311   4.171
 2616SOL    HW310495   3.613   4.171   4.186
 2616SOL    MW410496   3.616   4.248   4.144
 2617SOL     OW10497   3.808   4.410   4.245
 2617SOL    HW210498   3.881   4.365   4.205
 2617SOL    HW310499   3.817   4.501   4.218
 2617SOL    MW410500   3.819   4.416   4.236
 2618SOL     OW10501   4.261   4.661   4.115
 2618SOL    HW210502   4.263   4.581   4.168
 2618SOL    HW310503   4.347   4.702   4.131
 2618SOL    MW410504   4.273   4.656   4.124
 2619SOL     OW10505   4.052   0.129   4.240
 2619SOL    HW210506   4.039   0.213   4.195
 2619SOL    HW310507   4.126   0.089   4.194
 2619SOL    MW410508   4.060   0.135   4.228
 2620SOL     OW10509   4.013   0.376   4.122
 2620SOL    HW210510   4.080   0.436   4.155
 2620SOL    HW310511   3.932   0.405   4.166
 2620SOL    MW410512   4.011   0.388   4.132
 2621SOL     OW10513   4.227   0.505   4.229
 2621SOL    HW210514   4.230   0.601   4.222
 2621SOL    HW310515   4.311   0.476   4.193
 2621SOL    MW410516   4.239   0.514   4.224
 2622SOL     OW10517   4.243   0.783   4.188
 2622SOL    HW210518   4.152   0.799   4.213
 2622SOL    HW310519   4.246   0.802   4.095
 2622SOL    MW410520   4.231   0.788   4.179
 2623SOL     OW10521   4.008   0.848   4.279
 2623SOL    HW210522   4.005   0.936   4.241
 2623SOL    HW310523   3.932   0.803   4.242
 2623SOL    MW410524   3.998   0.854   4.269
 2624SOL     OW10525   3.983   1.130   4.145
 2624SOL    HW210526   4.063   1.173   4.175
 2624SOL    HW310527   3.913   1.171   4.195
 2624SOL    MW410528   3.984   1.141   4.156
 2625SOL     OW10529   4.218   1.259   4.237
 2625SOL    HW210530   4.230   1.266   4.332
 2625SOL    HW310531   4.301   1.226   4.204
 2625SOL    MW410532   4.230   1.255   4.245
 2626SOL     OW10533   4.211   1.524   4.119
 2626SOL    HW210534   4.205   1.433   4.150
 2626SOL    HW310535   4.204   1.516   4.024
 2626SOL    MW410536   4.210   1.511   4.110
 2627SOL     OW10537   4.016   1.620   4.658
 2627SOL    HW210538   3.954   1.547   4.649
 2627SOL    HW310539   4.097   1.579   4.688
 2627SOL    MW410540   4.018   1.605   4.661
 2628SOL     OW10541   4.014   1.960   4.136
 2628SOL    HW210542   4.011   1.868   4.161
 2628SOL    HW310543   3.935   1.998   4.175
 2628SOL    MW410544   4.003   1.953   4.144
 2629SOL     OW10545   4.447   1.927   4.115
 2629SOL    HW210546   4.530   1.917   4.162
 2629SOL    HW310547   4.393   1.981   4.174
 2629SOL    MW410548   4.451   1.933   4.129
 2630SOL     OW10549   4.237   2.317   4.079
 2630SOL    HW210550   4.143   2.326   4.095
 2630SOL    HW310551   4.258   2.228   4.105
 2630SOL    MW410552   4.228   2.307   4.084
 2631SOL     OW10553   3.981   2.475   4.135
 2631SOL    HW210554   3.994   2.477   4.230
 2631SOL    HW310555   3.892   2.444   4.124
 2631SOL    MW410556   3.971   2.471   4.146
 2632SOL     OW10557   3.996   2.743   4.105
 2632SOL    HW210558   4.002   2.648   4.116
 2632SOL    HW310559   3.907   2.765   4.133
 2632SOL    MW410560   3.985   2.733   4.110
 2633SOL     OW10561   4.211   2.900   4.227
 2633SOL    HW210562   4.127   2.855   4.220
 2633SOL    HW310563   4.270   2.851   4.169
 2633SOL    MW410564   4.208   2.888   4.218
 2634SOL     OW10565   4.218   3.165   4.127
 2634SOL    HW210566   4.202   3.083   4.174
 2634SOL    HW310567   4.257   3.138   4.044
 2634SOL    MW410568   4.221   3.151   4.122
 2635SOL     OW10569   3.977   3.297   4.206
 2635SOL    HW210570   4.066   3.261   4.211
 2635SOL    HW310571   3.922   3.222   4.183
 2635SOL    MW410572   3.982   3.282   4.204
 2636SOL     OW10573   4.074   3.531   4.109
 2636SOL    HW210574   4.034   3.451   4.143
 2636SOL    HW310575   4.082   3.516   4.015
 2636SOL    MW410576   4.070   3.519   4.101
 2637SOL     OW10577   4.300   3.643   4.218
 2637SOL    HW210578   4.298   3.717   4.157
 2637SOL    HW310579   4.226   3.588   4.192
 2637SOL    MW410580   4.290   3.646   4.207
 2638SOL     OW10581   4.291   3.903   4.088
 2638SOL    HW210582   4.209   3.943   4.118
 2638SOL    HW310583   4.300   3.931   3.997
 2638SOL    MW410584   4.282   3.912   4.080
 2639SOL     OW10585   4.075   4.045   4.192
 2639SOL    HW210586   4.085   4.019   4.283
 2639SOL    HW310587   3.993   4.003   4.164
 2639SOL    MW410588   4.065   4.036   4.200
 2640SOL     OW10589   4.013   4.302   4.125
 2640SOL    HW210590   4.094   4.347   4.149
 2640SOL    HW310591   4.026   4.212   4.154
 2640SOL    MW410592   4.025   4.296   4.132
 2641SOL     OW10593   4.478   4.210   4.635
 2641SOL    HW210594   4.544   4.193   4.703
 2641SOL    HW310595   4.439   4.124   4.618
 2641SOL    MW410596   4.481   4.196   4.642
 2642SOL     OW10597   4.009   4.288   4.587
 2642SOL    HW210598   3.976   4.240   4.663
 2642SOL    HW310599   3.949   4.362   4.577
 2642SOL    MW410600   3.997   4.291   4.596
 2643SOL     OW10601   4.210   4.639   4.546
 2643SOL    HW210602   4.179   4.622   4.635
 2643SOL    HW310603   4.240   4.554   4.515
 2643SOL    MW410604   4.210   4.625   4.554
 2644SOL     OW10605   3.679   0.242   4.701
 2644SOL    HW210606   3.677   0.263   4.795
 2644SOL    HW310607   3.612   0.298   4.662
 2644SOL    MW410608   3.670   0.252   4.708
 2645SOL     OW10609   3.791   1.438   4.613
 2645SOL    HW210610   3.728   1.499   4.573
 2645SOL    HW310611   3.736   1.366   4.646
 2645SOL    MW410612   3.775   1.436   4.612
 2646SOL     OW10613   0.488   0.110   4.471
 2646SOL    HW210614   0.449   0.030   4.506
 2646SOL    HW310615   0.582   0.091   4.466
 2646SOL    MW410616   0.495   0.097   4.475
 2647SOL     OW10617   0.214   0.712   4.507
 2647SOL    HW210618   0.186   0.642   4.566
 2647SOL    HW310619   0.221   0.670   4.421
 2647SOL    MW410620   0.211   0.698   4.503
 2648SOL     OW10621   4.333   0.628   4.644
 2648SOL    HW210622   4.331   0.563   4.574
 2648SOL    HW310623   4.363   0.709   4.602
 2648SOL    MW410624   4.337   0.630   4.629
 2649SOL     OW10625   0.601   1.441   4.605
 2649SOL    HW210626   0.629   1.532   4.613
 2649SOL    HW310627   0.505   1.446   4.610
 2649SOL    MW410628   0.592   1.454   4.607
 2650SOL     OW10629   1.091   1.953   4.479
 2650SOL    HW210630   1.163   1.953   4.542
 2650SOL    HW310631   1.024   2.008   4.519
 2650SOL    MW410632   1.092   1.961   4.492
 2651SOL     OW10633   3.965   1.172   4.542
 2651SOL    HW210634   3.942   1.082   4.566
 2651SOL    HW310635   3.892   1.225   4.575
 2651SOL    MW410636   3.952   1.167   4.550
 2652SOL     OW10637   4.419   1.739   4.463
 2652SOL    HW210638   4.427   1.692   4.380
 2652SOL    HW310639   4.491   1.802   4.462
 2652SOL    MW410640   4.430   1.741   4.452
 2653SOL     OW10641   0.426   1.660   4.208
 2653SOL    HW210642   0.357   1.610   4.164
 2653SOL    HW310643   0.505   1.607   4.197
 2653SOL    MW410644   0.427   1.646   4.201
 2654SOL     OW10645   4.147   1.802   4.464
 2654SOL    HW210646   4.107   1.749   4.533
 2654SOL    HW310647   4.241   1.787   4.474
 2654SOL    MW410648   4.154   1.793   4.475
 2655SOL     OW10649   4.159   2.249   4.447
 2655SOL    HW210650   4.121   2.190   4.512
 2655SOL    HW310651   4.095   2.320   4.438
 2655SOL    MW410652   4.146   2.250   4.454
 2656SOL     OW10653   0.729   3.014   4.651
 2656SOL    HW210654   0.788   2.948   4.688
 2656SOL    HW310655   0.708   3.072   4.725
 2656SOL    MW410656   0.734   3.013   4.666
 2657SOL     OW10657   0.552   2.863   4.503
 2657SOL    HW210658   0.465   2.887   4.535
 2657SOL    HW310659   0.612   2.912   4.559
 2657SOL    MW410660   0.548   2.873   4.515
 2658SOL     OW10661   0.147   2.535   4.430
 2658SOL    HW210662   0.077   2.484   4.471
 2658SOL    HW310663   0.225   2.482   4.442
 2658SOL    MW410664   0.148   2.521   4.437
 2659SOL     OW10665   3.541   3.644   4.547
 2659SOL    HW210666   3.634   3.630   4.536
 2659SOL    HW310667   3.502   3.557   4.541
 2659SOL    MW410668   3.548   3.631   4.544
 2660SOL     OW10669   0.430   3.233   4.443
 2660SOL    HW210670   0.444   3.146   4.481
 2660SOL    HW310671   0.368   3.275   4.501
 2660SOL    MW410672   0.424   3.227   4.455
 2661SOL     OW10673   4.101   4.010   4.465
 2661SOL    HW210674   4.064   3.937   4.516
 2661SOL    HW310675   4.059   4.088   4.501
 2661SOL    MW410676   4.091   4.010   4.476
 2662SOL     OW10677   0.019   0.032   4.497
 2662SOL    HW210678  -0.077   0.032   4.502
 2662SOL    HW310679   0.045   0.103   4.556
 2662SOL    MW410680   0.010   0.042   4.506
 2663SOL     OW10681   3.246   0.425   4.465
 2663SOL    HW210682   3.269   0.438   4.373
 2663SOL    HW310683   3.234   0.331   4.473
 2663SOL    MW410684   3.247   0.414   4.454
 2664SOL     OW10685   3.942   4.018   4.765
 2664SOL    HW210686   3.954   3.935   4.718
 2664SOL    HW310687   3.847   4.030   4.767
 2664SOL    MW410688   3.931   4.009   4.759
 2665SOL     OW10689   3.667   4.044   4.757
 2665SOL    HW210690   3.620   4.025   4.839
 2665SOL    HW310691   3.619   3.994   4.690
 2665SOL    MW410692   3.654   4.035   4.759
 2666SOL     OW10693   0.372   4.544   4.577
 2666SOL    HW210694   0.434   4.475   4.550
 2666SOL    HW310695   0.286   4.507   4.557
 2666SOL    MW410696   0.369   4.530   4.571
 2667SOL     OW10697   4.045   0.637   4.675
 2667SOL    HW210698   4.138   0.618   4.688
 2667SOL    HW310699   4.004   0.550   4.672
 2667SOL    MW410700   4.052   0.623   4.676
 2668SOL     OW10701   1.045   0.567   4.446
 2668SOL    HW210702   0.990   0.636   4.482
 2668SOL    HW310703   0.999   0.485   4.466
 2668SOL    MW410704   1.032   0.565   4.453
 2669SOL     OW10705   0.883   0.363   4.532
 2669SOL    HW210706   0.855   0.271   4.538
 2669SOL    HW310707   0.802   0.413   4.530
 2669SOL    MW410708   0.869   0.357   4.533
 2670SOL     OW10709   0.926   0.817   4.511
 2670SOL    HW210710   0.929   0.858   4.424
 2670SOL    HW310711   0.838   0.780   4.517
 2670SOL    MW410712   0.915   0.818   4.500
 2671SOL     OW10713   0.302   0.988   4.452
 2671SOL    HW210714   0.340   0.951   4.371
 2671SOL    HW310715   0.249   0.917   4.488
 2671SOL    MW410716   0.300   0.974   4.446
 2672SOL     OW10717   2.012   1.229   4.523
 2672SOL    HW210718   2.012   1.250   4.429
 2672SOL    HW310719   2.103   1.203   4.541
 2672SOL    MW410720   2.024   1.228   4.513
 2673SOL     OW10721   0.342   1.711   4.471
 2673SOL    HW210722   0.280   1.770   4.428
 2673SOL    HW310723   0.394   1.675   4.399
 2673SOL    MW410724   0.341   1.714   4.456
 2674SOL     OW10725   1.359   1.046   4.469
 2674SOL    HW210726   1.288   1.022   4.529
 2674SOL    HW310727   1.341   0.997   4.389
 2674SOL    MW410728   1.348   1.037   4.467
 2675SOL     OW10729   0.727   1.697   4.636
 2675SOL    HW210730   0.766   1.755   4.702
 2675SOL    HW310731   0.788   1.701   4.562
 2675SOL    MW410732   0.741   1.705   4.635
 2676SOL     OW10733   0.617   2.151   4.519
 2676SOL    HW210734   0.709   2.124   4.521
 2676SOL    HW310735   0.569   2.073   4.545
 2676SOL    MW410736   0.623   2.138   4.523
 2677SOL     OW10737   0.970   1.695   4.488
 2677SOL    HW210738   1.022   1.621   4.522
 2677SOL    HW310739   1.029   1.770   4.492
 2677SOL    MW410740   0.984   1.695   4.493
 2678SOL     OW10741   0.379   2.303   4.467
 2678SOL    HW210742   0.463   2.260   4.488
 2678SOL    HW310743   0.395   2.349   4.385
 2678SOL    MW410744   0.393   2.303   4.459
 2679SOL     OW10745   1.169   2.451   4.540
 2679SOL    HW210746   1.163   2.527   4.598
 2679SOL    HW310747   1.107   2.470   4.469
 2679SOL    MW410748   1.160   2.464   4.538
 2680SOL     OW10749   0.942   2.556   4.374
 2680SOL    HW210750   0.877   2.587   4.437
 2680SOL    HW310751   0.913   2.467   4.352
 2680SOL    MW410752   0.929   2.548   4.379
 2681SOL     OW10753   0.938   3.142   4.521
 2681SOL    HW210754   0.982   3.195   4.588
 2681SOL    HW310755   0.858   3.111   4.563
 2681SOL    MW410756   0.933   3.145   4.535
 2682SOL     OW10757   1.012   3.312   4.733
 2682SOL    HW210758   1.079   3.262   4.779
 2682SOL    HW310759   1.057   3.391   4.702
 2682SOL    MW410760   1.027   3.316   4.735
 2683SOL     OW10761   1.189   4.520   4.517
 2683SOL    HW210762   1.250   4.593   4.518
 2683SOL    HW310763   1.235   4.449   4.562
 2683SOL    MW410764   1.203   4.520   4.523
 2684SOL     OW10765   0.772   2.394   4.665
 2684SOL    HW210766   0.852   2.354   4.700
 2684SOL    HW310767   0.731   2.325   4.612
 2684SOL    MW410768   0.777   2.380   4.662
 2685SOL     OW10769   0.113   3.151   4.668
 2685SOL    HW210770   0.166   3.231   4.673
 2685SOL    HW310771   0.054   3.166   4.594
 2685SOL    MW410772   0.112   3.164   4.659
 2686SOL     OW10773   1.525   3.706   4.525
 2686SOL    HW210774   1.536   3.619   4.565
 2686SOL    HW310775   1.614   3.740   4.516
 2686SOL    MW410776   1.538   3.699   4.529
 2687SOL     OW10777   4.378   3.960   4.530
 2687SOL    HW210778   4.290   3.981   4.497
 2687SOL    HW310779   4.369   3.875   4.571
 2687SOL    MW410780   4.365   3.952   4.531
 2688SOL     OW10781   0.213   3.910   4.197
 2688SOL    HW210782   0.224   3.817   4.215
 2688SOL    HW310783   0.132   3.933   4.242
 2688SOL    MW410784   0.203   3.901   4.205
 2689SOL     OW10785   0.134   4.421   4.487
 2689SOL    HW210786   0.092   4.355   4.542
 2689SOL    HW310787   0.094   4.503   4.514
 2689SOL    MW410788   0.123   4.423   4.498
 2690SOL     OW10789   0.636   0.514   4.460
 2690SOL    HW210790   0.645   0.504   4.365
 2690SOL    HW310791   0.553   0.472   4.481
 2690SOL    MW410792   0.626   0.507   4.450
 2691SOL     OW10793   0.811   3.955   4.437
 2691SOL    HW210794   0.889   3.901   4.427
 2691SOL    HW310795   0.777   3.965   4.348
 2691SOL    MW410796   0.817   3.949   4.424
 2692SOL     OW10797   0.109   0.533   4.710
 2692SOL    HW210798   0.127   0.546   4.803
 2692SOL    HW310799   0.022   0.569   4.697
 2692SOL    MW410800   0.100   0.540   4.720
 2693SOL     OW10801   1.150   0.931   4.612
 2693SOL    HW210802   1.144   0.885   4.696
 2693SOL    HW310803   1.084   0.889   4.557
 2693SOL    MW410804   1.141   0.919   4.616
 2694SOL     OW10805   1.767   0.854   4.529
 2694SOL    HW210806   1.762   0.942   4.567
 2694SOL    HW310807   1.790   0.869   4.437
 2694SOL    MW410808   1.769   0.868   4.522
 2695SOL     OW10809   0.178   1.231   4.462
 2695SOL    HW210810   0.232   1.152   4.456
 2695SOL    HW310811   0.237   1.298   4.498
 2695SOL    MW410812   0.193   1.230   4.466
 2696SOL     OW10813   1.345   1.940   4.624
 2696SOL    HW210814   1.382   2.003   4.562
 2696SOL    HW310815   1.376   1.855   4.594
 2696SOL    MW410816   1.354   1.937   4.612
 2697SOL     OW10817   0.715   1.187   4.553
 2697SOL    HW210818   0.680   1.269   4.585
 2697SOL    HW310819   0.668   1.119   4.602
 2697SOL    MW410820   0.704   1.189   4.563
 2698SOL     OW10821   1.776   1.128   4.595
 2698SOL    HW210822   1.783   1.113   4.690
 2698SOL    HW310823   1.855   1.177   4.573
 2698SOL    MW410824   1.788   1.132   4.605
 2699SOL     OW10825   0.980   1.162   4.456
 2699SOL    HW210826   1.028   1.090   4.498
 2699SOL    HW310827   0.893   1.157   4.494
 2699SOL    MW410828   0.975   1.152   4.467
 2700SOL     OW10829   1.020   2.288   4.730
 2700SOL    HW210830   1.088   2.236   4.773
 2700SOL    HW310831   1.068   2.353   4.678
 2700SOL    MW410832   1.036   2.290   4.729
 2701SOL     OW10833   1.434   2.579   4.704
 2701SOL    HW210834   1.495   2.646   4.733
 2701SOL    HW310835   1.348   2.620   4.709
 2701SOL    MW410836   1.431   2.593   4.708
 2702SOL     OW10837   1.310   3.187   4.700
 2702SOL    HW210838   1.325   3.258   4.638
 2702SOL    HW310839   1.397   3.168   4.736
 2702SOL    MW410840   1.323   3.194   4.697
 2703SOL     OW10841   1.610   3.434   4.590
 2703SOL    HW210842   1.599   3.357   4.647
 2703SOL    HW310843   1.702   3.433   4.566
 2703SOL    MW410844   1.620   3.423   4.594
 2704SOL     OW10845   0.940   2.784   4.685
 2704SOL    HW210846   0.989   2.820   4.610
 2704SOL    HW310847   0.871   2.732   4.646
 2704SOL    MW410848   0.938   2.782   4.670
 2705SOL     OW10849   0.842   4.236   4.443
 2705SOL    HW210850   0.757   4.280   4.449
 2705SOL    HW310851   0.821   4.143   4.450
 2705SOL    MW410852   0.828   4.229   4.445
 2706SOL     OW10853   1.318   2.932   4.589
 2706SOL    HW210854   1.235   2.925   4.542
 2706SOL    HW310855   1.316   3.020   4.627
 2706SOL    MW410856   1.307   2.942   4.588
 2707SOL     OW10857   1.064   2.905   4.453
 2707SOL    HW210858   1.005   2.979   4.466
 2707SOL    HW310859   1.078   2.903   4.358
 2707SOL    MW410860   1.058   2.915   4.442
 2708SOL     OW10861   2.012   3.651   4.552
 2708SOL    HW210862   2.024   3.644   4.457
 2708SOL    HW310863   1.958   3.575   4.575
 2708SOL    MW410864   2.007   3.640   4.543
 2709SOL     OW10865   0.546   3.844   4.485
 2709SOL    HW210866   0.506   3.924   4.449
 2709SOL    HW310867   0.635   3.870   4.510
 2709SOL    MW410868   0.552   3.858   4.484
 2710SOL     OW10869   0.301   3.354   4.680
 2710SOL    HW210870   0.343   3.438   4.661
 2710SOL    HW310871   0.334   3.330   4.766
 2710SOL    MW410872   0.311   3.362   4.689
 2711SOL     OW10873   0.620   4.410   4.474
 2711SOL    HW210874   0.628   4.407   4.379
 2711SOL    HW310875   0.690   4.469   4.502
 2711SOL    MW410876   0.630   4.417   4.465
 2712SOL     OW10877   0.855   4.205   4.081
 2712SOL    HW210878   0.940   4.199   4.125
 2712SOL    HW310879   0.812   4.280   4.122
 2712SOL    MW410880   0.861   4.214   4.092
 2713SOL     OW10881   2.257   3.808   4.597
 2713SOL    HW210882   2.183   3.748   4.610
 2713SOL    HW310883   2.324   3.754   4.555
 2713SOL    MW410884   2.256   3.793   4.593
 2714SOL     OW10885   1.557   4.387   4.514
 2714SOL    HW210886   1.541   4.389   4.419
 2714SOL    HW310887   1.481   4.342   4.550
 2714SOL    MW410888   1.545   4.381   4.506
 2715SOL     OW10889   1.337   4.261   4.615
 2715SOL    HW210890   1.294   4.189   4.569
 2715SOL    HW310891   1.371   4.221   4.696
 2715SOL    MW410892   1.336   4.246   4.620
 2716SOL     OW10893   0.629   0.783   4.488
 2716SOL    HW210894   0.564   0.817   4.426
 2716SOL    HW310895   0.618   0.688   4.484
 2716SOL    MW410896   0.619   0.775   4.479
 2717SOL     OW10897   1.624   4.658   4.560
 2717SOL    HW210898   1.602   4.565   4.559
 2717SOL    HW310899   1.718   4.661   4.546
 2717SOL    MW410900   1.633   4.646   4.558
 2718SOL     OW10901   1.407   0.369   4.618
 2718SOL    HW210902   1.364   0.440   4.570
 2718SOL    HW310903   1.447   0.412   4.693
 2718SOL    MW410904   1.406   0.384   4.621
 2719SOL     OW10905   1.688   1.781   4.424
 2719SOL    HW210906   1.599   1.749   4.437
 2719SOL    HW310907   1.719   1.736   4.346
 2719SOL    MW410908   1.681   1.771   4.415
 2720SOL     OW10909   0.528   0.987   4.646
 2720SOL    HW210910   0.454   0.997   4.587
 2720SOL    HW310911   0.572   0.908   4.616
 2720SOL    MW410912   0.524   0.978   4.634
 2721SOL     OW10913   1.668   0.280   4.529
 2721SOL    HW210914   1.651   0.186   4.524
 2721SOL    HW310915   1.582   0.320   4.541
 2721SOL    MW410916   1.654   0.273   4.530
 2722SOL     OW10917   1.547   1.275   4.517
 2722SOL    HW210918   1.487   1.205   4.491
 2722SOL    HW310919   1.626   1.228   4.546
 2722SOL    MW410920   1.550   1.259   4.518
 2723SOL     OW10921   1.143   1.455   4.505
 2723SOL    HW210922   1.233   1.457   4.535
 2723SOL    HW310923   1.115   1.365   4.519
 2723SOL    MW410924   1.151   1.443   4.511
 2724SOL     OW10925   1.201   2.713   4.725
 2724SOL    HW210926   1.250   2.794   4.707
 2724SOL    HW310927   1.110   2.741   4.730
 2724SOL    MW410928   1.196   2.728   4.723
 2725SOL     OW10929   2.301   2.668   4.127
 2725SOL    HW210930   2.279   2.576   4.139
 2725SOL    HW310931   2.236   2.716   4.177
 2725SOL    MW410932   2.290   2.662   4.135
 2726SOL     OW10933   0.905   2.145   4.538
 2726SOL    HW210934   0.941   2.194   4.611
 2726SOL    HW310935   0.917   2.203   4.462
 2726SOL    MW410936   0.911   2.159   4.537
 2727SOL     OW10937   1.233   4.045   4.467
 2727SOL    HW210938   1.161   4.063   4.407
 2727SOL    HW310939   1.222   3.953   4.492
 2727SOL    MW410940   1.222   4.035   4.462
 2728SOL     OW10941   1.280   2.428   4.135
 2728SOL    HW210942   1.258   2.510   4.089
 2728SOL    HW310943   1.371   2.411   4.111
 2728SOL    MW410944   1.289   2.437   4.125
 2729SOL     OW10945   1.365   2.363   4.391
 2729SOL    HW210946   1.298   2.380   4.457
 2729SOL    HW310947   1.324   2.385   4.308
 2729SOL    MW410948   1.351   2.368   4.389
 2730SOL     OW10949   1.350   3.390   4.481
 2730SOL    HW210950   1.444   3.406   4.487
 2730SOL    HW310951   1.335   3.367   4.389
 2730SOL    MW410952   1.360   3.389   4.470
 2731SOL     OW10953   0.721   3.268   4.795
 2731SOL    HW210954   0.714   3.291   4.702
 2731SOL    HW310955   0.811   3.293   4.818
 2731SOL    MW410956   0.732   3.275   4.786
 2732SOL     OW10957   0.676   3.384   4.517
 2732SOL    HW210958   0.599   3.335   4.490
 2732SOL    HW310959   0.642   3.462   4.559
 2732SOL    MW410960   0.661   3.388   4.519
 2733SOL     OW10961   2.286   3.420   4.515
 2733SOL    HW210962   2.333   3.342   4.489
 2733SOL    HW310963   2.208   3.421   4.459
 2733SOL    MW410964   2.282   3.410   4.504
 2734SOL     OW10965   1.893   3.385   4.570
 2734SOL    HW210966   1.946   3.345   4.501
 2734SOL    HW310967   1.870   3.313   4.628
 2734SOL    MW410968   1.897   3.370   4.569
 2735SOL     OW10969   2.378   3.157   4.451
 2735SOL    HW210970   2.306   3.094   4.448
 2735SOL    HW310971   2.441   3.117   4.511
 2735SOL    MW410972   2.377   3.144   4.459
 2736SOL     OW10973   1.129   3.535   4.587
 2736SOL    HW210974   1.058   3.522   4.524
 2736SOL    HW310975   1.195   3.471   4.563
 2736SOL    MW410976   1.128   3.525   4.576
 2737SOL     OW10977   1.889   4.053   4.456
 2737SOL    HW210978   1.872   4.044   4.363
 2737SOL    HW310979   1.984   4.042   4.464
 2737SOL    MW410980   1.900   4.050   4.445
 2738SOL     OW10981   1.904   0.420   4.470
 2738SOL    HW210982   1.823   0.371   4.484
 2738SOL    HW310983   1.973   0.366   4.508
 2738SOL    MW410984   1.902   0.407   4.477
 2739SOL     OW10985   0.772   0.075   4.483
 2739SOL    HW210986   0.818   0.091   4.401
 2739SOL    HW310987   0.809  -0.008   4.515
 2739SOL    MW410988   0.783   0.066   4.477
 2740SOL     OW10989   1.368   0.076   4.550
 2740SOL    HW210990   1.459   0.056   4.570
 2740SOL    HW310991   1.354   0.163   4.589
 2740SOL    MW410992   1.378   0.085   4.558
 2741SOL     OW10993   2.252   4.304   4.546
 2741SOL    HW210994   2.242   4.213   4.516
 2741SOL    HW310995   2.283   4.296   4.636
 2741SOL    MW410996   2.255   4.291   4.554
 2742SOL     OW10997   1.987   0.690   4.541
 2742SOL    HW210998   1.959   0.599   4.531
 2742SOL    HW310999   1.906   0.739   4.554
 2742SOL    MW411000   1.973   0.685   4.542
 2743SOL     OW11001   1.335   0.585   4.455
 2743SOL    HW211002   1.242   0.596   4.473
 2743SOL    HW311003   1.376   0.666   4.484
 2743SOL    MW411004   1.328   0.597   4.461
 2744SOL     OW11005   2.347   1.631   4.564
 2744SOL    HW211006   2.275   1.589   4.611
 2744SOL    HW311007   2.310   1.652   4.478
 2744SOL    MW411008   2.333   1.628   4.559
 2745SOL     OW11009   0.527   1.899   4.560
 2745SOL    HW211010   0.595   1.833   4.577
 2745SOL    HW311011   0.453   1.850   4.525
 2745SOL    MW411012   0.526   1.884   4.558
 2746SOL     OW11013   1.433   1.718   4.501
 2746SOL    HW211014   1.372   1.705   4.428
 2746SOL    HW311015   1.423   1.640   4.555
 2746SOL    MW411016   1.424   1.706   4.498
 2747SOL     OW11017   1.505   2.588   4.441
 2747SOL    HW211018   1.479   2.593   4.534
 2747SOL    HW311019   1.460   2.511   4.408
 2747SOL    MW411020   1.495   2.579   4.449
 2748SOL     OW11021   1.427   2.097   4.406
 2748SOL    HW211022   1.479   2.093   4.326
 2748SOL    HW311023   1.398   2.189   4.410
 2748SOL    MW411024   1.430   2.109   4.396
 2749SOL     OW11025   2.126   2.431   4.113
 2749SOL    HW211026   2.090   2.376   4.044
 2749SOL    HW311027   2.121   2.377   4.192
 2749SOL    MW411028   2.121   2.417   4.115
 2750SOL     OW11029   1.250   2.129   4.796
 2750SOL    HW211030   1.286   2.051   4.755
 2750SOL    HW311031   1.326   2.186   4.810
 2750SOL    MW411032   1.265   2.126   4.792
 2751SOL     OW11033   2.698   3.204   4.853
 2751SOL    HW211034   2.790   3.181   4.844
 2751SOL    HW311035   2.651   3.139   4.801
 2751SOL    MW411036   2.704   3.193   4.845
 2752SOL     OW11037   1.585   3.176   4.721
 2752SOL    HW211038   1.590   3.147   4.629
 2752SOL    HW311039   1.674   3.163   4.755
 2752SOL    MW411040   1.598   3.171   4.713
 2753SOL     OW11041   1.786   3.793   4.492
 2753SOL    HW211042   1.808   3.885   4.507
 2753SOL    HW311043   1.865   3.745   4.517
 2753SOL    MW411044   1.799   3.799   4.497
 2754SOL     OW11045   2.283   3.247   4.743
 2754SOL    HW211046   2.272   3.319   4.680
 2754SOL    HW311047   2.218   3.182   4.717
 2754SOL    MW411048   2.273   3.248   4.731
 2755SOL     OW11049   2.317   2.560   4.723
 2755SOL    HW211050   2.298   2.547   4.630
 2755SOL    HW311051   2.258   2.500   4.768
 2755SOL    MW411052   2.307   2.550   4.717
 2756SOL     OW11053   2.912   3.879   4.617
 2756SOL    HW211054   2.933   3.929   4.696
 2756SOL    HW311055   2.835   3.923   4.581
 2756SOL    MW411056   2.905   3.892   4.623
 2757SOL     OW11057   2.688   4.020   4.544
 2757SOL    HW211058   2.660   4.014   4.453
 2757SOL    HW311059   2.608   4.004   4.594
 2757SOL    MW411060   2.674   4.017   4.539
 2758SOL     OW11061   2.434   3.647   4.469
 2758SOL    HW211062   2.388   3.566   4.490
 2758SOL    HW311063   2.441   3.647   4.374
 2758SOL    MW411064   2.429   3.637   4.459
 2759SOL     OW11065   2.453   3.968   4.712
 2759SOL    HW211066   2.452   3.924   4.797
 2759SOL    HW311067   2.390   3.919   4.659
 2759SOL    MW411068   2.445   3.956   4.717
 2760SOL     OW11069   1.829   4.327   4.550
 2760SOL    HW211070   1.845   4.235   4.531
 2760SOL    HW311071   1.735   4.339   4.535
 2760SOL    MW411072   1.819   4.316   4.546
 2761SOL     OW11073   1.247   3.766   4.496
 2761SOL    HW211074   1.341   3.746   4.489
 2761SOL    HW311075   1.210   3.690   4.540
 2761SOL    MW411076   1.255   3.753   4.501
 2762SOL     OW11077   2.066   0.244   4.609
 2762SOL    HW211078   2.062   0.216   4.701
 2762SOL    HW311079   2.152   0.215   4.579
 2762SOL    MW411080   2.077   0.237   4.617
 2763SOL     OW11081   1.906   0.070   4.472
 2763SOL    HW211082   1.967  -0.003   4.472
 2763SOL    HW311083   1.947   0.136   4.529
 2763SOL    MW411084   1.919   0.069   4.480
 2764SOL     OW11085   1.388   1.478   4.636
 2764SOL    HW211086   1.459   1.420   4.609
 2764SOL    HW311087   1.374   1.457   4.729
 2764SOL    MW411088   1.395   1.468   4.645
 2765SOL     OW11089   2.707   0.821   4.749
 2765SOL    HW211090   2.643   0.768   4.703
 2765SOL    HW311091   2.663   0.847   4.830
 2765SOL    MW411092   2.693   0.818   4.754
 2766SOL     OW11093   2.890   0.679   4.320
 2766SOL    HW211094   2.945   0.655   4.395
 2766SOL    HW311095   2.951   0.715   4.256
 2766SOL    MW411096   2.905   0.681   4.321
 2767SOL     OW11097   3.116   1.220   4.353
 2767SOL    HW211098   3.122   1.166   4.431
 2767SOL    HW311099   3.204   1.255   4.340
 2767SOL    MW411100   3.128   1.218   4.362
 2768SOL     OW11101   2.239   0.777   4.560
 2768SOL    HW211102   2.235   0.860   4.608
 2768SOL    HW311103   2.150   0.742   4.566
 2768SOL    MW411104   2.227   0.784   4.567
 2769SOL     OW11105   2.476   1.361   4.508
 2769SOL    HW211106   2.442   1.449   4.523
 2769SOL    HW311107   2.567   1.365   4.536
 2769SOL    MW411108   2.483   1.373   4.514
 2770SOL     OW11109   2.583   1.795   4.529
 2770SOL    HW211110   2.592   1.776   4.435
 2770SOL    HW311111   2.520   1.729   4.560
 2770SOL    MW411112   2.576   1.783   4.521
 2771SOL     OW11113   2.251   2.212   4.621
 2771SOL    HW211114   2.329   2.156   4.611
 2771SOL    HW311115   2.254   2.271   4.546
 2771SOL    MW411116   2.262   2.212   4.610
 2772SOL     OW11117   2.471   2.060   4.550
 2772SOL    HW211118   2.558   2.097   4.567
 2772SOL    HW311119   2.488   1.967   4.535
 2772SOL    MW411120   2.485   2.053   4.550
 2773SOL     OW11121   2.066   2.333   4.794
 2773SOL    HW211122   2.027   2.279   4.863
 2773SOL    HW311123   2.132   2.277   4.754
 2773SOL    MW411124   2.069   2.318   4.798
 2774SOL     OW11125   2.489   2.805   4.620
 2774SOL    HW211126   2.416   2.803   4.559
 2774SOL    HW311127   2.462   2.748   4.692
 2774SOL    MW411128   2.476   2.797   4.622
 2775SOL     OW11129   1.490   2.853   4.380
 2775SOL    HW211130   1.436   2.888   4.450
 2775SOL    HW311131   1.491   2.759   4.395
 2775SOL    MW411132   1.483   2.845   4.391
 2776SOL     OW11133   2.107   3.062   4.659
 2776SOL    HW211134   2.121   2.981   4.708
 2776SOL    HW311135   2.118   3.038   4.567
 2776SOL    MW411136   2.110   3.048   4.653
 2777SOL     OW11137   2.624   3.455   4.580
 2777SOL    HW211138   2.592   3.441   4.669
 2777SOL    HW311139   2.563   3.519   4.542
 2777SOL    MW411140   2.612   3.462   4.587
 2778SOL     OW11141   2.514   3.075   4.692
 2778SOL    HW211142   2.496   2.983   4.673
 2778SOL    HW311143   2.438   3.105   4.740
 2778SOL    MW411144   2.502   3.067   4.696
 2779SOL     OW11145   1.048   4.172   4.269
 2779SOL    HW211146   1.090   4.257   4.256
 2779SOL    HW311147   0.972   4.190   4.324
 2779SOL    MW411148   1.044   4.185   4.274
 2780SOL     OW11149   3.117   4.045   4.490
 2780SOL    HW211150   3.045   3.992   4.524
 2780SOL    HW311151   3.185   4.038   4.557
 2780SOL    MW411152   3.117   4.037   4.503
 2781SOL     OW11153   1.867   3.187   4.778
 2781SOL    HW211154   1.891   3.192   4.870
 2781SOL    HW311155   1.940   3.141   4.736
 2781SOL    MW411156   1.880   3.181   4.784
 2782SOL     OW11157   3.322   4.006   4.674
 2782SOL    HW211158   3.363   4.055   4.744
 2782SOL    HW311159   3.321   3.915   4.706
 2782SOL    MW411160   3.327   4.000   4.687
 2783SOL     OW11161   3.005   0.015   4.571
 2783SOL    HW211162   2.922   0.062   4.582
 2783SOL    HW311163   2.980  -0.073   4.543
 2783SOL    MW411164   2.991   0.010   4.569
 2784SOL     OW11165   2.167   4.038   4.453
 2784SOL    HW211166   2.188   3.959   4.502
 2784SOL    HW311167   2.203   4.021   4.365
 2784SOL    MW411168   2.175   4.025   4.448
 2785SOL     OW11169   2.488   4.444   4.479
 2785SOL    HW211170   2.401   4.406   4.494
 2785SOL    HW311171   2.494   4.452   4.384
 2785SOL    MW411172   2.477   4.440   4.468
 2786SOL     OW11173   2.872   0.414   4.258
 2786SOL    HW211174   2.868   0.508   4.273
 2786SOL    HW311175   2.964   0.398   4.235
 2786SOL    MW411176   2.884   0.424   4.257
 2787SOL     OW11177   2.922   4.407   4.464
 2787SOL    HW211178   3.002   4.370   4.501
 2787SOL    HW311179   2.853   4.385   4.527
 2787SOL    MW411180   2.923   4.399   4.477
 2788SOL     OW11181   2.711   4.298   4.620
 2788SOL    HW211182   2.638   4.345   4.579
 2788SOL    HW311183   2.708   4.210   4.583
 2788SOL    MW411184   2.701   4.293   4.610
 2789SOL     OW11185   2.779   1.074   4.521
 2789SOL    HW211186   2.835   0.998   4.536
 2789SOL    HW311187   2.691   1.043   4.543
 2789SOL    MW411188   2.774   1.059   4.526
 2790SOL     OW11189   2.756   0.123   4.511
 2790SOL    HW211190   2.672   0.093   4.547
 2790SOL    HW311191   2.743   0.119   4.416
 2790SOL    MW411192   2.743   0.118   4.503
 2791SOL     OW11193   1.499   0.781   4.551
 2791SOL    HW211194   1.467   0.869   4.533
 2791SOL    HW311195   1.594   0.787   4.539
 2791SOL    MW411196   1.507   0.793   4.547
 2792SOL     OW11197   2.520   0.949   4.494
 2792SOL    HW211198   2.516   0.860   4.531
 2792SOL    HW311199   2.571   0.939   4.414
 2792SOL    MW411200   2.526   0.936   4.488
 2793SOL     OW11201   3.058   1.400   4.575
 2793SOL    HW211202   2.962   1.405   4.574
 2793SOL    HW311203   3.081   1.358   4.492
 2793SOL    MW411204   3.048   1.395   4.564
 2794SOL     OW11205   3.106   1.669   4.514
 2794SOL    HW211206   3.028   1.698   4.562
 2794SOL    HW311207   3.106   1.574   4.525
 2794SOL    MW411208   3.095   1.660   4.522
 2795SOL     OW11209   2.872   1.797   4.592
 2795SOL    HW211210   2.901   1.883   4.562
 2795SOL    HW311211   2.777   1.800   4.582
 2795SOL    MW411212   2.863   1.809   4.587
 2796SOL     OW11213   2.650   2.454   4.253
 2796SOL    HW211214   2.665   2.543   4.222
 2796SOL    HW311215   2.564   2.430   4.219
 2796SOL    MW411216   2.641   2.462   4.244
 2797SOL     OW11217   2.578   2.413   4.511
 2797SOL    HW211218   2.609   2.417   4.420
 2797SOL    HW311219   2.493   2.457   4.510
 2797SOL    MW411220   2.571   2.420   4.499
 2798SOL     OW11221   2.932   2.058   4.504
 2798SOL    HW211222   2.908   2.054   4.412
 2798SOL    HW311223   2.861   2.106   4.546
 2798SOL    MW411224   2.919   2.064   4.498
 2799SOL     OW11225   2.187   2.808   4.728
 2799SOL    HW211226   2.235   2.725   4.729
 2799SOL    HW311227   2.168   2.823   4.636
 2799SOL    MW411228   2.191   2.799   4.716
 2800SOL     OW11229   3.457   4.062   4.956
 2800SOL    HW211230   3.404   4.141   4.968
 2800SOL    HW311231   3.399   3.990   4.983
 2800SOL    MW411232   3.442   4.063   4.961
 2801SOL     OW11233   2.950   2.823   4.281
 2801SOL    HW211234   2.907   2.899   4.241
 2801SOL    HW311235   2.944   2.838   4.375
 2801SOL    MW411236   2.944   2.835   4.288
 2802SOL     OW11237   2.519   3.413   4.828
 2802SOL    HW211238   2.434   3.370   4.822
 2802SOL    HW311239   2.578   3.346   4.863
 2802SOL    MW411240   2.516   3.399   4.832
 2803SOL     OW11241   2.923   2.839   4.562
 2803SOL    HW211242   2.998   2.780   4.560
 2803SOL    HW311243   2.847   2.782   4.557
 2803SOL    MW411244   2.923   2.824   4.561
 2804SOL     OW11245   2.318   0.182   4.486
 2804SOL    HW211246   2.369   0.263   4.487
 2804SOL    HW311247   2.294   0.170   4.395
 2804SOL    MW411248   2.321   0.191   4.474
 2805SOL     OW11249   3.338   4.290   4.821
 2805SOL    HW211250   3.280   4.305   4.747
 2805SOL    HW311251   3.424   4.319   4.791
 2805SOL    MW411252   3.342   4.296   4.807
 2806SOL     OW11253   3.818   3.625   4.469
 2806SOL    HW211254   3.822   3.651   4.377
 2806SOL    HW311255   3.864   3.542   4.472
 2806SOL    MW411256   3.824   3.618   4.457
 2807SOL     OW11257   2.883   3.608   4.567
 2807SOL    HW211258   2.795   3.576   4.586
 2807SOL    HW311259   2.883   3.699   4.597
 2807SOL    MW411260   2.871   3.616   4.573
 2808SOL     OW11261   3.211   4.309   4.566
 2808SOL    HW211262   3.184   4.230   4.519
 2808SOL    HW311263   3.275   4.350   4.510
 2808SOL    MW411264   3.216   4.304   4.553
 2809SOL     OW11265   2.755   0.405   4.527
 2809SOL    HW211266   2.751   0.312   4.550
 2809SOL    HW311267   2.794   0.407   4.440
 2809SOL    MW411268   2.760   0.393   4.519
 2810SOL     OW11269   2.948   0.852   4.647
 2810SOL    HW211270   2.982   0.763   4.634
 2810SOL    HW311271   2.870   0.840   4.702
 2810SOL    MW411272   2.942   0.838   4.653
 2811SOL     OW11273   2.499   0.690   4.584
 2811SOL    HW211274   2.405   0.711   4.580
 2811SOL    HW311275   2.504   0.597   4.560
 2811SOL    MW411276   2.487   0.681   4.580
 2812SOL     OW11277   2.321   1.121   4.591
 2812SOL    HW211278   2.383   1.061   4.549
 2812SOL    HW311279   2.356   1.208   4.573
 2812SOL    MW411280   2.334   1.125   4.583
 2813SOL     OW11281   2.437   4.227   4.762
 2813SOL    HW211282   2.433   4.135   4.739
 2813SOL    HW311283   2.524   4.255   4.733
 2813SOL    MW411284   2.448   4.219   4.755
 2814SOL     OW11285   2.509   0.034   4.602
 2814SOL    HW211286   2.510  -0.056   4.569
 2814SOL    HW311287   2.429   0.072   4.565
 2814SOL    MW411288   2.499   0.027   4.593
 2815SOL     OW11289   3.164   1.248   4.786
 2815SOL    HW211290   3.136   1.295   4.865
 2815SOL    HW311291   3.132   1.303   4.714
 2815SOL    MW411292   3.156   1.262   4.786
 2816SOL     OW11293   2.775   1.356   4.540
 2816SOL    HW211294   2.763   1.261   4.543
 2816SOL    HW311295   2.802   1.374   4.450
 2816SOL    MW411296   2.777   1.346   4.529
 2817SOL     OW11297   3.931   0.870   4.555
 2817SOL    HW211298   3.980   0.865   4.473
 2817SOL    HW311299   3.971   0.804   4.612
 2817SOL    MW411300   3.943   0.861   4.552
 2818SOL     OW11301   3.372   1.513   4.535
 2818SOL    HW211302   3.452   1.564   4.523
 2818SOL    HW311303   3.310   1.575   4.575
 2818SOL    MW411304   3.374   1.528   4.539
 2819SOL     OW11305   3.395   1.882   4.729
 2819SOL    HW211306   3.323   1.936   4.697
 2819SOL    HW311307   3.364   1.792   4.718
 2819SOL    MW411308   3.381   1.877   4.724
 2820SOL     OW11309   3.236   2.109   4.521
 2820SOL    HW211310   3.144   2.085   4.531
 2820SOL    HW311311   3.261   2.074   4.435
 2820SOL    MW411312   3.227   2.101   4.511
 2821SOL     OW11313   3.622   1.639   4.509
 2821SOL    HW211314   3.646   1.718   4.559
 2821SOL    HW311315   3.607   1.670   4.420
 2821SOL    MW411316   3.623   1.654   4.504
 2822SOL     OW11317   2.712   2.666   4.534
 2822SOL    HW211318   2.685   2.575   4.520
 2822SOL    HW311319   2.635   2.708   4.571
 2822SOL    MW411320   2.698   2.659   4.537
 2823SOL     OW11321   3.257   2.413   4.525
 2823SOL    HW211322   3.263   2.319   4.544
 2823SOL    HW311323   3.214   2.418   4.440
 2823SOL    MW411324   3.253   2.401   4.516
 2824SOL     OW11325   2.719   2.192   4.626
 2824SOL    HW211326   2.691   2.271   4.580
 2824SOL    HW311327   2.689   2.205   4.716
 2824SOL    MW411328   2.711   2.204   4.632
 2825SOL     OW11329   3.478   2.977   4.363
 2825SOL    HW211330   3.479   2.931   4.280
 2825SOL    HW311331   3.545   3.045   4.354
 2825SOL    MW411332   3.487   2.980   4.351
 2826SOL     OW11333   3.379   3.446   4.495
 2826SOL    HW211334   3.297   3.473   4.536
 2826SOL    HW311335   3.373   3.351   4.489
 2826SOL    MW411336   3.368   3.437   4.499
 2827SOL     OW11337   3.276   3.176   4.446
 2827SOL    HW211338   3.227   3.198   4.367
 2827SOL    HW311339   3.350   3.124   4.415
 2827SOL    MW411340   3.279   3.172   4.431
 2828SOL     OW11341   3.779   2.885   4.482
 2828SOL    HW211342   3.754   2.840   4.563
 2828SOL    HW311343   3.741   2.973   4.491
 2828SOL    MW411344   3.771   2.891   4.494
 2829SOL     OW11345   3.720   3.176   4.510
 2829SOL    HW211346   3.649   3.221   4.464
 2829SOL    HW311347   3.793   3.237   4.507
 2829SOL    MW411348   3.720   3.190   4.504
 2830SOL     OW11349   3.594   4.291   4.657
 2830SOL    HW211350   3.665   4.325   4.602
 2830SOL    HW311351   3.626   4.207   4.689
 2830SOL    MW411352   3.607   4.285   4.654
 2831SOL     OW11353   3.238   0.135   4.519
 2831SOL    HW211354   3.152   0.103   4.545
 2831SOL    HW311355   3.300   0.076   4.564
 2831SOL    MW411356   3.235   0.123   4.528
 2832SOL     OW11357   3.755   0.534   4.470
 2832SOL    HW211358   3.759   0.625   4.499
 2832SOL    HW311359   3.818   0.489   4.526
 2832SOL    MW411360   3.764   0.540   4.482
 2833SOL     OW11361   3.479   4.499   4.504
 2833SOL    HW211362   3.508   4.431   4.566
 2833SOL    HW311363   3.543   4.569   4.515
 2833SOL    MW411364   3.491   4.499   4.514
 2834SOL     OW11365   3.551   3.920   4.545
 2834SOL    HW211366   3.539   3.825   4.533
 2834SOL    HW311367   3.464   3.951   4.573
 2834SOL    MW411368   3.538   3.911   4.547
 2835SOL     OW11369   3.684   0.027   4.515
 2835SOL    HW211370   3.690   0.095   4.582
 2835SOL    HW311371   3.665   0.074   4.435
 2835SOL    MW411372   3.682   0.042   4.514
 2836SOL     OW11373   3.280   0.820   4.459
 2836SOL    HW211374   3.227   0.897   4.480
 2836SOL    HW311375   3.216   0.754   4.433
 2836SOL    MW411376   3.264   0.821   4.458
 2837SOL     OW11377   2.035   4.480   4.491
 2837SOL    HW211378   2.109   4.430   4.528
 2837SOL    HW311379   1.958   4.428   4.513
 2837SOL    MW411380   2.035   4.467   4.499
 2838SOL     OW11381   4.310   1.518   4.640
 2838SOL    HW211382   4.283   1.435   4.602
 2838SOL    HW311383   4.357   1.563   4.569
 2838SOL    MW411384   4.313   1.513   4.625
 2839SOL     OW11385   3.663   0.958   4.512
 2839SOL    HW211386   3.600   0.887   4.522
 2839SOL    HW311387   3.748   0.916   4.519
 2839SOL    MW411388   3.666   0.943   4.514
 2840SOL     OW11389   4.462   0.835   4.495
 2840SOL    HW211390   4.456   0.854   4.402
 2840SOL    HW311391   4.552   0.806   4.508
 2840SOL    MW411392   4.473   0.834   4.485
 2841SOL     OW11393   4.311   0.412   4.480
 2841SOL    HW211394   4.293   0.451   4.395
 2841SOL    HW311395   4.245   0.343   4.490
 2841SOL    MW411396   4.300   0.408   4.470
 2842SOL     OW11397   3.582   1.677   4.222
 2842SOL    HW211398   3.649   1.618   4.186
 2842SOL    HW311399   3.501   1.625   4.218
 2842SOL    MW411400   3.580   1.662   4.216
 2843SOL     OW11401   4.043   1.706   4.227
 2843SOL    HW211402   4.107   1.640   4.200
 2843SOL    HW311403   4.079   1.742   4.308
 2843SOL    MW411404   4.057   1.702   4.234
 2844SOL     OW11405   3.771   2.408   4.535
 2844SOL    HW211406   3.695   2.460   4.559
 2844SOL    HW311407   3.738   2.318   4.533
 2844SOL    MW411408   3.757   2.403   4.538
 2845SOL     OW11409   3.678   1.873   4.651
 2845SOL    HW211410   3.601   1.894   4.703
 2845SOL    HW311411   3.749   1.865   4.715
 2845SOL    MW411412   3.677   1.875   4.667
 2846SOL     OW11413   0.130   2.176   4.413
 2846SOL    HW211414   0.211   2.203   4.456
 2846SOL    HW311415   0.063   2.237   4.446
 2846SOL    MW411416   0.132   2.188   4.423
 2847SOL     OW11417   3.781   2.098   4.506
 2847SOL    HW211418   3.870   2.094   4.541
 2847SOL    HW311419   3.738   2.020   4.541
 2847SOL    MW411420   3.787   2.088   4.515
 2848SOL     OW11421   4.052   2.775   4.455
 2848SOL    HW211422   3.969   2.818   4.476
 2848SOL    HW311423   4.112   2.846   4.436
 2848SOL    MW411424   4.049   2.790   4.455
 2849SOL     OW11425   3.993   2.486   4.410
 2849SOL    HW211426   3.913   2.457   4.453
 2849SOL    HW311427   4.000   2.579   4.431
 2849SOL    MW411428   3.984   2.495   4.418
 2850SOL     OW11429   4.344   2.930   4.477
 2850SOL    HW211430   4.303   2.914   4.392
 2850SOL    HW311431   4.421   2.874   4.478
 2850SOL    MW411432   4.348   2.921   4.466
 2851SOL     OW11433   3.168   3.253   4.690
 2851SOL    HW211434   3.096   3.194   4.713
 2851SOL    HW311435   3.209   3.211   4.614
 2851SOL    MW411436   3.164   3.240   4.683
 2852SOL     OW11437   3.322   3.748   4.733
 2852SOL    HW211438   3.251   3.685   4.722
 2852SOL    HW311439   3.392   3.715   4.677
 2852SOL    MW411440   3.322   3.735   4.725
 2853SOL     OW11441   3.160   3.543   4.639
 2853SOL    HW211442   3.075   3.562   4.599
 2853SOL    HW311443   3.151   3.455   4.675
 2853SOL    MW411444   3.148   3.534   4.638
 2854SOL     OW11445   4.208   3.388   4.544
 2854SOL    HW211446   4.267   3.336   4.490
 2854SOL    HW311447   4.217   3.351   4.632
 2854SOL    MW411448   4.217   3.376   4.549
 2855SOL     OW11449   0.300   2.980   4.534
 2855SOL    HW211450   0.256   3.025   4.607
 2855SOL    HW311451   0.232   2.923   4.498
 2855SOL    MW411452   0.285   2.979   4.539
 2856SOL     OW11453   4.026   3.783   4.600
 2856SOL    HW211454   3.948   3.745   4.561
 2856SOL    HW311455   4.098   3.728   4.569
 2856SOL    MW411456   4.025   3.771   4.591
 2857SOL     OW11457   3.785   4.455   4.520
 2857SOL    HW211458   3.794   4.427   4.429
 2857SOL    HW311459   3.789   4.550   4.516
 2857SOL    MW411460   3.787   4.464   4.507
 2858SOL     OW11461   3.510   0.450   4.578
 2858SOL    HW211462   3.431   0.439   4.526
 2858SOL    HW311463   3.577   0.478   4.516
 2858SOL    MW411464   3.509   0.452   4.563
 2859SOL     OW11465   3.690   1.191   4.651
 2859SOL    HW211466   3.608   1.206   4.697
 2859SOL    HW311467   3.678   1.108   4.606
 2859SOL    MW411468   3.678   1.182   4.651
 2860SOL     OW11469   3.009   0.576   4.548
 2860SOL    HW211470   2.935   0.521   4.571
 2860SOL    HW311471   3.085   0.518   4.551
 2860SOL    MW411472   3.009   0.561   4.551
 2861SOL     OW11473   0.095   0.318   4.524
 2861SOL    HW211474   0.116   0.364   4.605
 2861SOL    HW311475   0.018   0.364   4.490
 2861SOL    MW411476   0.088   0.330   4.530
 2862SOL     OW11477   0.385   0.368   4.455
 2862SOL    HW211478   0.419   0.280   4.471
 2862SOL    HW311479   0.291   0.361   4.472
 2862SOL    MW411480   0.377   0.355   4.459
 2863SOL     OW11481   4.094   0.209   4.501
 2863SOL    HW211482   4.130   0.128   4.537
 2863SOL    HW311483   4.084   0.192   4.407
 2863SOL    MW411484   4.097   0.196   4.493
 2864SOL     OW11485   3.448   1.320   4.723
 2864SOL    HW211486   3.412   1.387   4.664
 2864SOL    HW311487   3.371   1.286   4.769
 2864SOL    MW411488   3.433   1.325   4.721
 2865SOL     OW11489   4.438   1.124   4.617
 2865SOL    HW211490   4.515   1.159   4.573
 2865SOL    HW311491   4.438   1.031   4.593
 2865SOL    MW411492   4.448   1.116   4.608
 2866SOL     OW11493   4.218   1.272   4.516
 2866SOL    HW211494   4.128   1.240   4.526
 2866SOL    HW311495   4.272   1.202   4.553
 2866SOL    MW411496   4.213   1.258   4.522
 2867SOL     OW11497   3.940   1.851   4.802
 2867SOL    HW211498   3.963   1.762   4.776
 2867SOL    HW311499   4.003   1.873   4.870
 2867SOL    MW411500   3.951   1.843   4.808
 2868SOL     OW11501   3.157   2.658   4.624
 2868SOL    HW211502   3.185   2.576   4.583
 2868SOL    HW311503   3.110   2.631   4.703
 2868SOL    MW411504   3.155   2.644   4.629
 2869SOL     OW11505   4.249   2.077   4.243
 2869SOL    HW211506   4.161   2.043   4.227
 2869SOL    HW311507   4.237   2.141   4.313
 2869SOL    MW411508   4.236   2.081   4.250
 2870SOL     OW11509   4.412   2.366   4.480
 2870SOL    HW211510   4.322   2.349   4.507
 2870SOL    HW311511   4.404   2.406   4.393
 2870SOL    MW411512   4.399   2.369   4.472
 2871SOL     OW11513   4.048   2.035   4.606
 2871SOL    HW211514   4.097   1.973   4.551
 2871SOL    HW311515   4.011   1.981   4.676
 2871SOL    MW411516   4.050   2.020   4.608
 2872SOL     OW11517   3.531   2.515   4.555
 2872SOL    HW211518   3.511   2.606   4.577
 2872SOL    HW311519   3.449   2.468   4.570
 2872SOL    MW411520   3.518   2.521   4.560
 2873SOL     OW11521   0.741   2.653   4.544
 2873SOL    HW211522   0.713   2.578   4.597
 2873SOL    HW311523   0.664   2.709   4.538
 2873SOL    MW411524   0.727   2.650   4.550
 2874SOL     OW11525   4.398   3.212   4.458
 2874SOL    HW211526   4.389   3.116   4.460
 2874SOL    HW311527   4.437   3.231   4.373
 2874SOL    MW411528   4.402   3.201   4.447
 2875SOL     OW11529   0.099   2.814   4.421
 2875SOL    HW211530   0.107   2.719   4.430
 2875SOL    HW311531   0.122   2.832   4.330
 2875SOL    MW411532   0.103   2.804   4.410
 2876SOL     OW11533   0.423   3.587   4.535
 2876SOL    HW211534   0.474   3.667   4.522
 2876SOL    HW311535   0.357   3.588   4.467
 2876SOL    MW411536   0.421   3.598   4.524
 2877SOL     OW11537   3.916   0.383   4.625
 2877SOL    HW211538   3.841   0.330   4.653
 2877SOL    HW311539   3.969   0.322   4.573
 2877SOL    MW411540   3.913   0.368   4.621
 2878SOL     OW11541   4.267   4.365   4.476
 2878SOL    HW211542   4.192   4.320   4.515
 2878SOL    HW311543   4.343   4.316   4.508
 2878SOL    MW411544   4.267   4.353   4.485
 2879SOL     OW11545   3.934   3.365   4.475
 2879SOL    HW211546   4.028   3.371   4.493
 2879SOL    HW311547   3.929   3.337   4.383
 2879SOL    MW411548   3.946   3.362   4.465
 2880SOL     OW11549   2.491   0.419   4.484
 2880SOL    HW211550   2.583   0.414   4.510
 2880SOL    HW311551   2.493   0.428   4.389
 2880SOL    MW411552   2.503   0.420   4.475
 2881SOL     OW11553   4.257   4.404   4.204
 2881SOL    HW211554   4.344   4.367   4.188
 2881SOL    HW311555   4.247   4.400   4.299
 2881SOL    MW411556   4.267   4.399   4.214
 2882NA      NA11557   2.674   4.297   0.644
 2883NA      NA11558   0.919   1.864   0.333
   4.49070   4.66690  10.00000
