Gromacs Runs On Most of All Computer Systems in water t= 120.00000 step= 120000
11558
    1RG35     P    1   2.090   2.808   4.559
    1RG35   O1P    2   2.132   2.722   4.449
    1RG35   O2P    3   1.952   2.865   4.548
    1RG35   O5'    4   2.078   2.708   4.684
    1RG35   C5'    5   2.045   2.753   4.813
    1RG35  H5'1    6   1.953   2.812   4.808
    1RG35  H5'2    7   2.126   2.813   4.854
    1RG35   C4'    8   2.020   2.634   4.900
    1RG35   H4'    9   1.992   2.672   4.999
    1RG35   O4'   10   1.922   2.536   4.861
    1RG35   C1'   11   1.985   2.404   4.846
    1RG35   H1'   12   1.960   2.344   4.933
    1RG35    N9   13   1.935   2.333   4.724
    1RG35    C8   14   1.920   2.389   4.605
    1RG35    H8   15   1.935   2.495   4.592
    1RG35    N7   16   1.868   2.311   4.518
    1RG35    C5   17   1.864   2.185   4.582
    1RG35    C6   18   1.830   2.053   4.536
    1RG35    O6   19   1.775   2.017   4.433
    1RG35    N1   20   1.855   1.955   4.629
    1RG35    H1   21   1.838   1.859   4.605
    1RG35    C2   22   1.911   1.978   4.755
    1RG35    N2   23   1.932   1.876   4.832
    1RG35   H21   24   1.954   1.789   4.786
    1RG35   H22   25   1.973   1.907   4.919
    1RG35    N3   26   1.942   2.101   4.804
    1RG35    C4   27   1.911   2.197   4.712
    1RG35   C3'   28   2.153   2.558   4.925
    1RG35   H3'   29   2.243   2.613   4.896
    1RG35   C2'   30   2.136   2.430   4.839
    1RG35  H2'1   31   2.165   2.451   4.737
    1RG35   O2'   32   2.204   2.315   4.887
    1RG35  HO'2   33   2.241   2.268   4.812
    1RG35   O3'   34   2.166   2.515   5.057
    1RG35   H3T   35   2.192   2.424   5.045
    1RG35   O3P   36   2.192   2.905   4.606
    2SOL     OW   37   0.497   0.079   0.490
    2SOL    HW2   38   0.583   0.117   0.470
    2SOL    HW3   39   0.436   0.130   0.437
    2SOL    MW4   40   0.501   0.090   0.480
    3SOL     OW   41   3.989   0.081   0.450
    3SOL    HW2   42   3.972   0.122   0.365
    3SOL    HW3   43   4.002  -0.012   0.431
    3SOL    MW4   44   3.988   0.074   0.437
    4SOL     OW   45   3.542   0.230   0.377
    4SOL    HW2   46   3.450   0.206   0.366
    4SOL    HW3   47   3.540   0.322   0.404
    4SOL    MW4   48   3.530   0.239   0.379
    5SOL     OW   49   0.078   1.622   0.486
    5SOL    HW2   50   0.040   1.638   0.573
    5SOL    HW3   51   0.057   1.531   0.467
    5SOL    MW4   52   0.070   1.612   0.495
    6SOL     OW   53   1.424   0.774   0.487
    6SOL    HW2   54   1.413   0.806   0.577
    6SOL    HW3   55   1.348   0.809   0.440
    6SOL    MW4   56   1.412   0.783   0.493
    7SOL     OW   57   0.257   0.525   0.527
    7SOL    HW2   58   0.308   0.491   0.600
    7SOL    HW3   59   0.279   0.467   0.454
    7SOL    MW4   60   0.267   0.513   0.527
    8SOL     OW   61   0.492   0.961   0.529
    8SOL    HW2   62   0.504   0.944   0.623
    8SOL    HW3   63   0.462   0.877   0.493
    8SOL    MW4   64   0.490   0.948   0.537
    9SOL     OW   65   0.967   0.888   0.478
    9SOL    HW2   66   0.944   0.879   0.571
    9SOL    HW3   67   0.894   0.935   0.439
    9SOL    MW4   68   0.955   0.893   0.485
   10SOL     OW   69   0.722   0.994   0.356
   10SOL    HW2   70   0.693   0.967   0.269
   10SOL    HW3   71   0.649   0.973   0.414
   10SOL    MW4   72   0.709   0.988   0.352
   11SOL     OW   73   0.587   1.592   0.213
   11SOL    HW2   74   0.550   1.531   0.276
   11SOL    HW3   75   0.560   1.558   0.127
   11SOL    MW4   76   0.579   1.580   0.210
   12SOL     OW   77   4.061   2.176   0.512
   12SOL    HW2   78   4.022   2.118   0.446
   12SOL    HW3   79   4.006   2.164   0.590
   12SOL    MW4   80   4.049   2.166   0.513
   13SOL     OW   81   0.145   1.822   0.286
   13SOL    HW2   82   0.055   1.843   0.264
   13SOL    HW3   83   0.138   1.765   0.363
   13SOL    MW4   84   0.132   1.817   0.294
   14SOL     OW   85   0.407   2.242   0.510
   14SOL    HW2   86   0.330   2.184   0.518
   14SOL    HW3   87   0.480   2.182   0.496
   14SOL    MW4   88   0.406   2.226   0.509
   15SOL     OW   89   0.178   2.920   0.490
   15SOL    HW2   90   0.265   2.951   0.464
   15SOL    HW3   91   0.123   2.998   0.485
   15SOL    MW4   92   0.183   2.935   0.486
   16SOL     OW   93   4.244   3.329   0.546
   16SOL    HW2   94   4.192   3.319   0.626
   16SOL    HW3   95   4.241   3.242   0.505
   16SOL    MW4   96   4.237   3.316   0.551
   17SOL     OW   97   4.288   3.091   0.413
   17SOL    HW2   98   4.234   3.107   0.336
   17SOL    HW3   99   4.260   3.004   0.444
   17SOL    MW4  100   4.277   3.081   0.407
   18SOL     OW  101   0.401   3.514   0.353
   18SOL    HW2  102   0.453   3.446   0.395
   18SOL    HW3  103   0.463   3.584   0.334
   18SOL    MW4  104   0.416   3.514   0.356
   19SOL     OW  105   0.579   3.722   0.334
   19SOL    HW2  106   0.638   3.734   0.259
   19SOL    HW3  107   0.585   3.804   0.382
   19SOL    MW4  108   0.588   3.734   0.330
   20SOL     OW  109   4.079   3.204   0.259
   20SOL    HW2  110   4.027   3.219   0.180
   20SOL    HW3  111   4.115   3.290   0.281
   20SOL    MW4  112   4.077   3.218   0.251
   21SOL     OW  113   4.448   3.788   0.392
   21SOL    HW2  114   4.429   3.711   0.446
   21SOL    HW3  115   4.534   3.818   0.423
   21SOL    MW4  116   4.457   3.782   0.403
   22SOL     OW  117   4.442   4.571   0.419
   22SOL    HW2  118   4.445   4.561   0.324
   22SOL    HW3  119   4.389   4.497   0.449
   22SOL    MW4  120   4.436   4.560   0.410
   23SOL     OW  121   4.272   4.362   0.499
   23SOL    HW2  122   4.263   4.365   0.594
   23SOL    HW3  123   4.307   4.274   0.482
   23SOL    MW4  124   4.276   4.350   0.509
   24SOL     OW  125   4.303   4.045   0.432
   24SOL    HW2  126   4.341   3.962   0.404
   24SOL    HW3  127   4.212   4.025   0.452
   24SOL    MW4  128   4.296   4.031   0.431
   25SOL     OW  129   0.551   3.302   0.498
   25SOL    HW2  130   0.532   3.282   0.590
   25SOL    HW3  131   0.621   3.367   0.502
   25SOL    MW4  132   0.558   3.308   0.511
   26SOL     OW  133   0.456   4.442   0.444
   26SOL    HW2  134   0.365   4.420   0.462
   26SOL    HW3  135   0.461   4.537   0.458
   26SOL    MW4  136   0.445   4.452   0.448
   27SOL     OW  137   0.258   0.272   0.365
   27SOL    HW2  138   0.171   0.249   0.398
   27SOL    HW3  139   0.243   0.302   0.275
   27SOL    MW4  140   0.245   0.273   0.358
   28SOL     OW  141   4.458   0.603   0.543
   28SOL    HW2  142   4.543   0.563   0.521
   28SOL    HW3  143   4.453   0.598   0.639
   28SOL    MW4  144   4.469   0.597   0.553
   29SOL     OW  145   0.952   4.360   0.429
   29SOL    HW2  146   1.008   4.365   0.507
   29SOL    HW3  147   0.867   4.332   0.462
   29SOL    MW4  148   0.949   4.357   0.444
   30SOL     OW  149   1.216   0.902   0.348
   30SOL    HW2  150   1.133   0.901   0.395
   30SOL    HW3  151   1.243   0.994   0.347
   30SOL    MW4  152   1.209   0.914   0.354
   31SOL     OW  153   0.712   0.515   0.513
   31SOL    HW2  154   0.797   0.558   0.496
   31SOL    HW3  155   0.726   0.424   0.487
   31SOL    MW4  156   0.725   0.509   0.508
   32SOL     OW  157   0.335   1.173   0.460
   32SOL    HW2  158   0.252   1.129   0.443
   32SOL    HW3  159   0.395   1.102   0.486
   32SOL    MW4  160   0.332   1.158   0.461
   33SOL     OW  161   0.512   1.826   0.357
   33SOL    HW2  162   0.547   1.771   0.288
   33SOL    HW3  163   0.479   1.765   0.423
   33SOL    MW4  164   0.512   1.811   0.357
   34SOL     OW  165   0.331   2.001   0.228
   34SOL    HW2  166   0.395   1.945   0.271
   34SOL    HW3  167   0.254   1.945   0.214
   34SOL    MW4  168   0.329   1.986   0.232
   35SOL     OW  169   0.487   2.424   0.271
   35SOL    HW2  170   0.438   2.374   0.336
   35SOL    HW3  171   0.504   2.361   0.201
   35SOL    MW4  172   0.483   2.409   0.270
   36SOL     OW  173   0.761   2.299   0.278
   36SOL    HW2  174   0.833   2.235   0.284
   36SOL    HW3  175   0.684   2.246   0.257
   36SOL    MW4  176   0.760   2.283   0.276
   37SOL     OW  177   3.943   2.402   0.332
   37SOL    HW2  178   3.966   2.335   0.396
   37SOL    HW3  179   3.996   2.478   0.357
   37SOL    MW4  180   3.953   2.403   0.344
   38SOL     OW  181   0.689   2.713   0.239
   38SOL    HW2  182   0.701   2.750   0.151
   38SOL    HW3  183   0.724   2.780   0.298
   38SOL    MW4  184   0.695   2.727   0.235
   39SOL     OW  185   0.581   2.554   0.568
   39SOL    HW2  186   0.543   2.498   0.636
   39SOL    HW3  187   0.585   2.641   0.607
   39SOL    MW4  188   0.576   2.558   0.582
   40SOL     OW  189   0.059   3.173   0.461
   40SOL    HW2  190   0.065   3.253   0.409
   40SOL    HW3  191  -0.028   3.137   0.439
   40SOL    MW4  192   0.048   3.179   0.451
   41SOL     OW  193   0.708   2.897   0.479
   41SOL    HW2  194   0.631   2.948   0.452
   41SOL    HW3  195   0.686   2.868   0.568
   41SOL    MW4  196   0.695   2.900   0.487
   42SOL     OW  197   0.912   0.385   0.266
   42SOL    HW2  198   0.902   0.422   0.178
   42SOL    HW3  199   0.959   0.453   0.315
   42SOL    MW4  200   0.917   0.399   0.261
   43SOL     OW  201   0.234   3.661   0.542
   43SOL    HW2  202   0.239   3.752   0.511
   43SOL    HW3  203   0.285   3.611   0.479
   43SOL    MW4  204   0.241   3.667   0.530
   44SOL     OW  205   0.711   3.511   0.486
   44SOL    HW2  206   0.682   3.589   0.439
   44SOL    HW3  207   0.721   3.539   0.577
   44SOL    MW4  208   0.708   3.525   0.492
   45SOL     OW  209   1.201   3.524   0.446
   45SOL    HW2  210   1.122   3.494   0.402
   45SOL    HW3  211   1.253   3.444   0.459
   45SOL    MW4  212   1.198   3.509   0.442
   46SOL     OW  213   0.195   4.426   0.524
   46SOL    HW2  214   0.138   4.493   0.486
   46SOL    HW3  215   0.181   4.348   0.471
   46SOL    MW4  216   0.186   4.425   0.512
   47SOL     OW  217   0.949   3.461   0.322
   47SOL    HW2  218   0.927   3.546   0.284
   47SOL    HW3  219   0.880   3.444   0.386
   47SOL    MW4  220   0.937   3.470   0.325
   48SOL     OW  221   0.682   4.283   0.513
   48SOL    HW2  222   0.614   4.341   0.481
   48SOL    HW3  223   0.686   4.301   0.607
   48SOL    MW4  224   0.674   4.293   0.521
   49SOL     OW  225   0.745   0.227   0.426
   49SOL    HW2  226   0.794   0.147   0.446
   49SOL    HW3  227   0.803   0.276   0.368
   49SOL    MW4  228   0.759   0.223   0.421
   50SOL     OW  229   0.954   0.626   0.435
   50SOL    HW2  230   0.973   0.720   0.442
   50SOL    HW3  231   1.029   0.583   0.477
   50SOL    MW4  232   0.967   0.633   0.441
   51SOL     OW  233   0.478   0.682   0.451
   51SOL    HW2  234   0.407   0.625   0.479
   51SOL    HW3  235   0.558   0.636   0.476
   51SOL    MW4  236   0.479   0.669   0.458
   52SOL     OW  237   1.443   0.498   0.523
   52SOL    HW2  238   1.439   0.593   0.512
   52SOL    HW3  239   1.471   0.485   0.614
   52SOL    MW4  240   1.446   0.509   0.533
   53SOL     OW  241   1.877   0.707   0.299
   53SOL    HW2  242   1.827   0.778   0.341
   53SOL    HW3  243   1.901   0.742   0.213
   53SOL    MW4  244   1.874   0.721   0.294
   54SOL     OW  245   1.692   0.876   0.452
   54SOL    HW2  246   1.603   0.841   0.451
   54SOL    HW3  247   1.716   0.875   0.545
   54SOL    MW4  248   1.683   0.871   0.464
   55SOL     OW  249   0.487   1.397   0.406
   55SOL    HW2  250   0.577   1.366   0.416
   55SOL    HW3  251   0.433   1.323   0.435
   55SOL    MW4  252   0.492   1.383   0.411
   56SOL     OW  253   0.755   1.261   0.437
   56SOL    HW2  254   0.728   1.182   0.390
   56SOL    HW3  255   0.850   1.264   0.426
   56SOL    MW4  256   0.764   1.251   0.429
   57SOL     OW  257   1.383   1.410   0.342
   57SOL    HW2  258   1.368   1.500   0.371
   57SOL    HW3  259   1.478   1.403   0.334
   57SOL    MW4  260   1.393   1.421   0.345
   58SOL     OW  261   1.022   1.324   0.396
   58SOL    HW2  262   1.061   1.323   0.308
   58SOL    HW3  263   1.008   1.417   0.415
   58SOL    MW4  264   1.025   1.336   0.387
   59SOL     OW  265   0.992   1.582   0.468
   59SOL    HW2  266   1.084   1.604   0.457
   59SOL    HW3  267   0.969   1.614   0.555
   59SOL    MW4  268   1.001   1.589   0.478
   60SOL     OW  269   0.143   2.108   0.502
   60SOL    HW2  270   0.049   2.118   0.511
   60SOL    HW3  271   0.156   2.086   0.409
   60SOL    MW4  272   0.132   2.106   0.491
   61SOL     OW  273   0.843   1.746   0.299
   61SOL    HW2  274   0.766   1.692   0.276
   61SOL    HW3  275   0.896   1.688   0.354
   61SOL    MW4  276   0.840   1.731   0.303
   62SOL     OW  277   0.910   2.523   0.494
   62SOL    HW2  278   0.977   2.460   0.468
   62SOL    HW3  279   0.887   2.498   0.583
   62SOL    MW4  280   0.916   2.512   0.502
   63SOL     OW  281   0.619   2.053   0.464
   63SOL    HW2  282   0.695   2.070   0.409
   63SOL    HW3  283   0.584   1.970   0.431
   63SOL    MW4  284   0.624   2.044   0.453
   64SOL     OW  285   0.989   2.810   0.492
   64SOL    HW2  286   0.969   2.717   0.491
   64SOL    HW3  287   0.904   2.853   0.502
   64SOL    MW4  288   0.975   2.803   0.493
   65SOL     OW  289   0.551   2.175   0.119
   65SOL    HW2  290   0.627   2.130   0.081
   65SOL    HW3  291   0.489   2.105   0.137
   65SOL    MW4  292   0.553   2.160   0.116
   66SOL     OW  293   0.487   3.050   0.372
   66SOL    HW2  294   0.485   3.131   0.424
   66SOL    HW3  295   0.548   3.070   0.301
   66SOL    MW4  296   0.495   3.063   0.370
   67SOL     OW  297   0.951   3.178   0.384
   67SOL    HW2  298   0.941   3.190   0.478
   67SOL    HW3  299   0.946   3.267   0.348
   67SOL    MW4  300   0.949   3.192   0.392
   68SOL     OW  301   2.045   3.611   0.287
   68SOL    HW2  302   2.043   3.543   0.353
   68SOL    HW3  303   2.068   3.566   0.206
   68SOL    MW4  304   2.048   3.596   0.285
   69SOL     OW  305   0.833   3.892   0.456
   69SOL    HW2  306   0.750   3.939   0.454
   69SOL    HW3  307   0.856   3.888   0.549
   69SOL    MW4  308   0.825   3.897   0.468
   70SOL     OW  309   0.561   3.988   0.452
   70SOL    HW2  310   0.512   3.977   0.534
   70SOL    HW3  311   0.573   4.083   0.444
   70SOL    MW4  312   0.556   3.999   0.462
   71SOL     OW  313   1.044   4.069   0.424
   71SOL    HW2  314   0.966   4.014   0.431
   71SOL    HW3  315   1.010   4.158   0.415
   71SOL    MW4  316   1.029   4.074   0.424
   72SOL     OW  317   1.179   0.418   0.496
   72SOL    HW2  318   1.169   0.324   0.479
   72SOL    HW3  319   1.273   0.429   0.512
   72SOL    MW4  320   1.190   0.407   0.496
   73SOL     OW  321   0.926   4.658   0.465
   73SOL    HW2  322   0.935   4.562   0.466
   73SOL    HW3  323   0.906   4.681   0.556
   73SOL    MW4  324   0.924   4.648   0.477
   74SOL     OW  325   1.321   0.145   0.477
   74SOL    HW2  326   1.265   0.139   0.400
   74SOL    HW3  327   1.408   0.165   0.442
   74SOL    MW4  328   1.325   0.147   0.462
   75SOL     OW  329   1.730   0.474   0.462
   75SOL    HW2  330   1.765   0.527   0.392
   75SOL    HW3  331   1.649   0.518   0.487
   75SOL    MW4  332   1.724   0.486   0.456
   76SOL     OW  333   1.121   0.152   0.307
   76SOL    HW2  334   1.049   0.097   0.339
   76SOL    HW3  335   1.079   0.235   0.285
   76SOL    MW4  336   1.106   0.155   0.308
   77SOL     OW  337   2.074   0.526   0.437
   77SOL    HW2  338   2.009   0.586   0.400
   77SOL    HW3  339   2.050   0.440   0.402
   77SOL    MW4  340   2.062   0.522   0.427
   78SOL     OW  341   2.698   0.831   0.513
   78SOL    HW2  342   2.777   0.782   0.491
   78SOL    HW3  343   2.713   0.918   0.477
   78SOL    MW4  344   2.710   0.836   0.505
   79SOL     OW  345   1.720   1.398   0.391
   79SOL    HW2  346   1.680   1.445   0.464
   79SOL    HW3  347   1.702   1.306   0.409
   79SOL    MW4  348   1.712   1.392   0.403
   80SOL     OW  349   1.597   1.147   0.480
   80SOL    HW2  350   1.639   1.061   0.475
   80SOL    HW3  351   1.506   1.131   0.454
   80SOL    MW4  352   1.591   1.133   0.476
   81SOL     OW  353   1.327   1.164   0.451
   81SOL    HW2  354   1.335   1.253   0.417
   81SOL    HW3  355   1.284   1.174   0.536
   81SOL    MW4  356   1.322   1.177   0.457
   82SOL     OW  357   1.270   1.649   0.447
   82SOL    HW2  358   1.309   1.654   0.534
   82SOL    HW3  359   1.297   1.731   0.405
   82SOL    MW4  360   1.279   1.661   0.453
   83SOL     OW  361   1.100   2.349   0.412
   83SOL    HW2  362   1.184   2.396   0.413
   83SOL    HW3  363   1.125   2.256   0.413
   83SOL    MW4  364   1.115   2.343   0.412
   84SOL     OW  365   1.460   2.682   0.392
   84SOL    HW2  366   1.485   2.675   0.300
   84SOL    HW3  367   1.409   2.763   0.398
   84SOL    MW4  368   1.457   2.692   0.381
   85SOL     OW  369   1.930   2.286   0.279
   85SOL    HW2  370   1.982   2.365   0.295
   85SOL    HW3  371   1.995   2.215   0.276
   85SOL    MW4  372   1.946   2.287   0.280
   86SOL     OW  373   1.562   1.991   0.447
   86SOL    HW2  374   1.557   2.087   0.438
   86SOL    HW3  375   1.654   1.970   0.433
   86SOL    MW4  376   1.574   2.001   0.444
   87SOL     OW  377   0.863   2.023   0.311
   87SOL    HW2  378   0.955   2.026   0.338
   87SOL    HW3  379   0.844   1.930   0.301
   87SOL    MW4  380   0.873   2.011   0.313
   88SOL     OW  381   0.703   3.105   0.216
   88SOL    HW2  382   0.746   3.103   0.130
   88SOL    HW3  383   0.774   3.122   0.278
   88SOL    MW4  384   0.718   3.107   0.213
   89SOL     OW  385   2.059   2.520   0.386
   89SOL    HW2  386   2.058   2.614   0.401
   89SOL    HW3  387   2.150   2.494   0.395
   89SOL    MW4  388   2.071   2.529   0.389
   90SOL     OW  389   1.749   0.113   0.247
   90SOL    HW2  390   1.686   0.132   0.316
   90SOL    HW3  391   1.695   0.094   0.170
   90SOL    MW4  392   1.733   0.113   0.246
   91SOL     OW  393   1.376   3.710   0.344
   91SOL    HW2  394   1.306   3.652   0.376
   91SOL    HW3  395   1.344   3.798   0.363
   91SOL    MW4  396   1.362   3.714   0.351
   92SOL     OW  397   1.738   2.765   0.497
   92SOL    HW2  398   1.690   2.787   0.577
   92SOL    HW3  399   1.671   2.763   0.429
   92SOL    MW4  400   1.723   2.767   0.499
   93SOL     OW  401   1.522   3.553   0.157
   93SOL    HW2  402   1.470   3.613   0.210
   93SOL    HW3  403   1.549   3.605   0.081
   93SOL    MW4  404   1.519   3.568   0.154
   94SOL     OW  405   1.208   3.124   0.299
   94SOL    HW2  406   1.208   3.185   0.225
   94SOL    HW3  407   1.119   3.126   0.332
   94SOL    MW4  408   1.197   3.133   0.294
   95SOL     OW  409   2.265   3.779   0.334
   95SOL    HW2  410   2.186   3.728   0.313
   95SOL    HW3  411   2.321   3.717   0.381
   95SOL    MW4  412   2.262   3.764   0.337
   96SOL     OW  413   0.891   3.726   0.253
   96SOL    HW2  414   0.874   3.782   0.328
   96SOL    HW3  415   0.960   3.771   0.204
   96SOL    MW4  416   0.898   3.739   0.256
   97SOL     OW  417   1.899   4.570   0.335
   97SOL    HW2  418   1.841   4.494   0.346
   97SOL    HW3  419   1.845   4.635   0.291
   97SOL    MW4  420   1.884   4.568   0.331
   98SOL     OW  421   1.953   4.610   0.603
   98SOL    HW2  422   1.956   4.518   0.630
   98SOL    HW3  423   1.917   4.608   0.514
   98SOL    MW4  424   1.948   4.597   0.595
   99SOL     OW  425   1.941   0.283   0.402
   99SOL    HW2  426   1.868   0.325   0.447
   99SOL    HW3  427   1.900   0.218   0.344
   99SOL    MW4  428   1.926   0.280   0.400
  100SOL     OW  429   1.305   3.970   0.439
  100SOL    HW2  430   1.232   4.025   0.409
  100SOL    HW3  431   1.373   4.032   0.465
  100SOL    MW4  432   1.304   3.985   0.439
  101SOL     OW  433   2.311   0.636   0.382
  101SOL    HW2  434   2.223   0.604   0.400
  101SOL    HW3  435   2.316   0.719   0.430
  101SOL    MW4  436   2.300   0.643   0.391
  102SOL     OW  437   2.127   2.080   0.277
  102SOL    HW2  438   2.208   2.080   0.226
  102SOL    HW3  439   2.147   2.029   0.356
  102SOL    MW4  440   2.140   2.074   0.281
  103SOL     OW  441   2.402   0.911   0.498
  103SOL    HW2  442   2.419   1.004   0.483
  103SOL    HW3  443   2.488   0.869   0.489
  103SOL    MW4  444   2.415   0.918   0.495
  104SOL     OW  445   2.474   1.183   0.487
  104SOL    HW2  446   2.563   1.157   0.464
  104SOL    HW3  447   2.458   1.263   0.436
  104SOL    MW4  448   2.483   1.190   0.477
  105SOL     OW  449   2.219   1.633   0.487
  105SOL    HW2  450   2.218   1.728   0.492
  105SOL    HW3  451   2.127   1.609   0.471
  105SOL    MW4  452   2.207   1.642   0.485
  106SOL     OW  453   1.856   1.932   0.430
  106SOL    HW2  454   1.931   1.946   0.373
  106SOL    HW3  455   1.881   1.974   0.513
  106SOL    MW4  456   1.869   1.940   0.433
  107SOL     OW  457   1.330   1.902   0.332
  107SOL    HW2  458   1.418   1.914   0.368
  107SOL    HW3  459   1.327   1.960   0.256
  107SOL    MW4  460   1.341   1.911   0.326
  108SOL     OW  461   2.347   2.418   0.505
  108SOL    HW2  462   2.422   2.477   0.493
  108SOL    HW3  463   2.319   2.432   0.595
  108SOL    MW4  464   2.353   2.428   0.515
  109SOL     OW  465   1.865   3.226   0.442
  109SOL    HW2  466   1.786   3.248   0.393
  109SOL    HW3  467   1.917   3.307   0.440
  109SOL    MW4  468   1.861   3.239   0.435
  110SOL     OW  469   1.247   2.870   0.401
  110SOL    HW2  470   1.243   2.954   0.355
  110SOL    HW3  471   1.155   2.846   0.415
  110SOL    MW4  472   1.234   2.878   0.397
  111SOL     OW  473   1.630   3.375   0.368
  111SOL    HW2  474   1.599   3.434   0.299
  111SOL    HW3  475   1.637   3.429   0.446
  111SOL    MW4  476   1.627   3.390   0.369
  112SOL     OW  477   1.121   2.042   0.415
  112SOL    HW2  478   1.101   2.028   0.507
  112SOL    HW3  479   1.184   1.973   0.393
  112SOL    MW4  480   1.127   2.031   0.424
  113SOL     OW  481   3.943   1.976   0.354
  113SOL    HW2  482   3.921   1.884   0.370
  113SOL    HW3  483   3.860   2.023   0.366
  113SOL    MW4  484   3.929   1.970   0.358
  114SOL     OW  485   1.788   2.489   0.527
  114SOL    HW2  486   1.868   2.476   0.476
  114SOL    HW3  487   1.771   2.583   0.521
  114SOL    MW4  488   1.796   2.500   0.520
  115SOL     OW  489   1.370   2.442   0.481
  115SOL    HW2  490   1.446   2.395   0.447
  115SOL    HW3  491   1.391   2.535   0.466
  115SOL    MW4  492   1.383   2.448   0.475
  116SOL     OW  493   1.346   3.296   0.459
  116SOL    HW2  494   1.424   3.328   0.413
  116SOL    HW3  495   1.310   3.230   0.400
  116SOL    MW4  496   1.352   3.292   0.445
  117SOL     OW  497   2.259   3.269   0.488
  117SOL    HW2  498   2.224   3.191   0.446
  117SOL    HW3  499   2.293   3.238   0.572
  117SOL    MW4  500   2.259   3.255   0.493
  118SOL     OW  501   1.773   4.029   0.490
  118SOL    HW2  502   1.801   3.938   0.489
  118SOL    HW3  503   1.836   4.074   0.434
  118SOL    MW4  504   1.785   4.023   0.483
  119SOL     OW  505   1.582   3.634   0.522
  119SOL    HW2  506   1.530   3.661   0.446
  119SOL    HW3  507   1.661   3.687   0.517
  119SOL    MW4  508   1.586   3.645   0.511
  120SOL     OW  509   1.512   4.173   0.505
  120SOL    HW2  510   1.523   4.245   0.568
  120SOL    HW3  511   1.593   4.123   0.512
  120SOL    MW4  512   1.524   4.176   0.514
  121SOL     OW  513   1.683   4.401   0.382
  121SOL    HW2  514   1.598   4.436   0.409
  121SOL    HW3  515   1.671   4.306   0.383
  121SOL    MW4  516   1.670   4.393   0.386
  122SOL     OW  517   2.204   4.589   0.521
  122SOL    HW2  518   2.254   4.559   0.597
  122SOL    HW3  519   2.114   4.594   0.552
  122SOL    MW4  520   2.199   4.585   0.535
  123SOL     OW  521   2.201   0.206   0.501
  123SOL    HW2  522   2.212   0.111   0.496
  123SOL    HW3  523   2.115   0.222   0.460
  123SOL    MW4  524   2.191   0.195   0.495
  124SOL     OW  525   2.898   1.478   0.386
  124SOL    HW2  526   2.822   1.503   0.438
  124SOL    HW3  527   2.934   1.402   0.431
  124SOL    MW4  528   2.893   1.471   0.399
  125SOL     OW  529   2.957   0.698   0.433
  125SOL    HW2  530   2.955   0.605   0.414
  125SOL    HW3  531   3.047   0.716   0.460
  125SOL    MW4  532   2.969   0.688   0.434
  126SOL     OW  533   2.751   1.082   0.387
  126SOL    HW2  534   2.846   1.094   0.389
  126SOL    HW3  535   2.727   1.092   0.295
  126SOL    MW4  536   2.760   1.085   0.375
  127SOL     OW  537   3.027   1.265   0.522
  127SOL    HW2  538   3.032   1.169   0.516
  127SOL    HW3  539   2.989   1.282   0.607
  127SOL    MW4  540   3.023   1.254   0.532
  128SOL     OW  541   2.654   1.598   0.473
  128SOL    HW2  542   2.683   1.684   0.442
  128SOL    HW3  543   2.663   1.603   0.569
  128SOL    MW4  544   2.659   1.610   0.482
  129SOL     OW  545   3.000   1.891   0.547
  129SOL    HW2  546   2.955   1.944   0.613
  129SOL    HW3  547   2.930   1.857   0.491
  129SOL    MW4  548   2.985   1.894   0.548
  130SOL     OW  549   2.954   4.426   0.551
  130SOL    HW2  550   3.000   4.509   0.543
  130SOL    HW3  551   2.938   4.416   0.645
  130SOL    MW4  552   2.958   4.435   0.562
  131SOL     OW  553   2.200   1.927   0.498
  131SOL    HW2  554   2.142   1.970   0.561
  131SOL    HW3  555   2.284   1.973   0.509
  131SOL    MW4  556   2.204   1.939   0.508
  132SOL     OW  557   1.599   1.517   0.646
  132SOL    HW2  558   1.654   1.556   0.713
  132SOL    HW3  559   1.522   1.574   0.641
  132SOL    MW4  560   1.596   1.530   0.654
  133SOL     OW  561   2.404   2.134   0.483
  133SOL    HW2  562   2.360   2.219   0.491
  133SOL    HW3  563   2.497   2.156   0.472
  133SOL    MW4  564   2.410   2.148   0.483
  134SOL     OW  565   2.692   2.173   0.505
  134SOL    HW2  566   2.732   2.255   0.477
  134SOL    HW3  567   2.751   2.139   0.573
  134SOL    MW4  568   2.705   2.179   0.510
  135SOL     OW  569   2.611   2.864   0.521
  135SOL    HW2  570   2.609   2.946   0.471
  135SOL    HW3  571   2.556   2.881   0.597
  135SOL    MW4  572   2.604   2.877   0.524
  136SOL     OW  573   1.613   2.300   0.416
  136SOL    HW2  574   1.671   2.280   0.342
  136SOL    HW3  575   1.659   2.369   0.464
  136SOL    MW4  576   1.627   2.307   0.413
  137SOL     OW  577   2.008   2.809   0.463
  137SOL    HW2  578   2.051   2.821   0.548
  137SOL    HW3  579   1.914   2.809   0.484
  137SOL    MW4  580   2.001   2.810   0.477
  138SOL     OW  581   2.226   4.021   0.472
  138SOL    HW2  582   2.308   4.068   0.456
  138SOL    HW3  583   2.238   3.936   0.431
  138SOL    MW4  584   2.238   4.016   0.464
  139SOL     OW  585   2.544   4.151   0.246
  139SOL    HW2  586   2.508   4.073   0.203
  139SOL    HW3  587   2.593   4.196   0.177
  139SOL    MW4  588   2.545   4.147   0.231
  140SOL     OW  589   1.867   3.752   0.501
  140SOL    HW2  590   1.932   3.727   0.566
  140SOL    HW3  591   1.907   3.729   0.417
  140SOL    MW4  592   1.881   3.745   0.499
  141SOL     OW  593   2.035   3.427   0.490
  141SOL    HW2  594   2.111   3.371   0.500
  141SOL    HW3  595   2.049   3.498   0.552
  141SOL    MW4  596   2.047   3.429   0.499
  142SOL     OW  597   2.182   4.388   0.337
  142SOL    HW2  598   2.182   4.472   0.383
  142SOL    HW3  599   2.126   4.402   0.261
  142SOL    MW4  600   2.174   4.401   0.333
  143SOL     OW  601   2.009   4.209   0.431
  143SOL    HW2  602   2.069   4.138   0.455
  143SOL    HW3  603   2.067   4.282   0.408
  143SOL    MW4  604   2.025   4.209   0.431
  144SOL     OW  605   3.072   0.002   0.537
  144SOL    HW2  606   3.136   0.052   0.486
  144SOL    HW3  607   3.080   0.037   0.626
  144SOL    MW4  608   3.082   0.013   0.542
  145SOL     OW  609   2.442   3.903   0.156
  145SOL    HW2  610   2.513   3.838   0.158
  145SOL    HW3  611   2.372   3.864   0.207
  145SOL    MW4  612   2.442   3.890   0.163
  146SOL     OW  613   2.420   4.261   0.459
  146SOL    HW2  614   2.341   4.294   0.416
  146SOL    HW3  615   2.478   4.236   0.387
  146SOL    MW4  616   2.417   4.262   0.444
  147SOL     OW  617   2.429   0.397   0.485
  147SOL    HW2  618   2.403   0.470   0.430
  147SOL    HW3  619   2.362   0.330   0.471
  147SOL    MW4  620   2.417   0.398   0.476
  148SOL     OW  621   1.595   0.220   0.432
  148SOL    HW2  622   1.611   0.314   0.432
  148SOL    HW3  623   1.642   0.188   0.510
  148SOL    MW4  624   1.603   0.228   0.443
  149SOL     OW  625   3.277   0.480   0.533
  149SOL    HW2  626   3.250   0.572   0.528
  149SOL    HW3  627   3.372   0.483   0.518
  149SOL    MW4  628   3.286   0.493   0.530
  150SOL     OW  629   2.423   1.443   0.418
  150SOL    HW2  630   2.347   1.502   0.416
  150SOL    HW3  631   2.498   1.502   0.422
  150SOL    MW4  632   2.423   1.459   0.419
  151SOL     OW  633   3.022   0.992   0.420
  151SOL    HW2  634   3.112   0.995   0.387
  151SOL    HW3  635   2.996   0.900   0.410
  151SOL    MW4  636   3.030   0.980   0.414
  152SOL     OW  637   3.101   1.619   0.498
  152SOL    HW2  638   3.044   1.569   0.439
  152SOL    HW3  639   3.067   1.709   0.494
  152SOL    MW4  640   3.089   1.625   0.490
  153SOL     OW  641   2.931   1.684   0.192
  153SOL    HW2  642   2.919   1.600   0.235
  153SOL    HW3  643   2.974   1.663   0.109
  153SOL    MW4  644   2.935   1.670   0.187
  154SOL     OW  645   3.716   1.452   0.490
  154SOL    HW2  646   3.659   1.414   0.423
  154SOL    HW3  647   3.658   1.475   0.562
  154SOL    MW4  648   3.701   1.450   0.490
  155SOL     OW  649   2.629   0.078   0.760
  155SOL    HW2  650   2.640   0.159   0.809
  155SOL    HW3  651   2.628   0.106   0.668
  155SOL    MW4  652   2.631   0.092   0.754
  156SOL     OW  653   3.263   2.004   0.609
  156SOL    HW2  654   3.181   1.985   0.562
  156SOL    HW3  655   3.250   1.964   0.695
  156SOL    MW4  656   3.250   1.996   0.614
  157SOL     OW  657   2.802   2.431   0.412
  157SOL    HW2  658   2.882   2.482   0.401
  157SOL    HW3  659   2.783   2.398   0.324
  157SOL    MW4  660   2.810   2.433   0.399
  158SOL     OW  661   2.770   1.826   0.383
  158SOL    HW2  662   2.786   1.798   0.293
  158SOL    HW3  663   2.746   1.919   0.375
  158SOL    MW4  664   2.769   1.835   0.370
  159SOL     OW  665   2.571   2.580   0.494
  159SOL    HW2  666   2.579   2.675   0.503
  159SOL    HW3  667   2.651   2.554   0.448
  159SOL    MW4  668   2.583   2.589   0.489
  160SOL     OW  669   2.685   3.168   0.459
  160SOL    HW2  670   2.768   3.192   0.418
  160SOL    HW3  671   2.697   3.190   0.551
  160SOL    MW4  672   2.698   3.174   0.466
  161SOL     OW  673   2.918   3.298   0.330
  161SOL    HW2  674   2.998   3.262   0.369
  161SOL    HW3  675   2.908   3.384   0.371
  161SOL    MW4  676   2.927   3.304   0.341
  162SOL     OW  677   3.152   3.224   0.478
  162SOL    HW2  678   3.177   3.133   0.461
  162SOL    HW3  679   3.151   3.231   0.573
  162SOL    MW4  680   3.155   3.213   0.488
  163SOL     OW  681   2.502   3.365   0.368
  163SOL    HW2  682   2.572   3.307   0.399
  163SOL    HW3  683   2.422   3.318   0.389
  163SOL    MW4  684   2.501   3.351   0.375
  164SOL     OW  685   2.611   3.655   0.076
  164SOL    HW2  686   2.618   3.561   0.094
  164SOL    HW3  687   2.590   3.660  -0.017
  164SOL    MW4  688   2.609   3.643   0.066
  165SOL     OW  689   3.366   3.598   0.204
  165SOL    HW2  690   3.409   3.560   0.127
  165SOL    HW3  691   3.352   3.524   0.262
  165SOL    MW4  692   3.370   3.583   0.201
  166SOL     OW  693   2.719   3.733   0.334
  166SOL    HW2  694   2.729   3.704   0.243
  166SOL    HW3  695   2.628   3.715   0.355
  166SOL    MW4  696   2.709   3.727   0.325
  167SOL     OW  697   2.489   3.625   0.432
  167SOL    HW2  698   2.514   3.625   0.525
  167SOL    HW3  699   2.482   3.533   0.409
  167SOL    MW4  700   2.492   3.613   0.441
  168SOL     OW  701   3.562   3.778   0.331
  168SOL    HW2  702   3.531   3.713   0.268
  168SOL    HW3  703   3.487   3.794   0.388
  168SOL    MW4  704   3.548   3.772   0.330
  169SOL     OW  705   3.153   4.287   0.428
  169SOL    HW2  706   3.133   4.194   0.420
  169SOL    HW3  707   3.081   4.323   0.478
  169SOL    MW4  708   3.141   4.280   0.433
  170SOL     OW  709   3.339   4.504   0.234
  170SOL    HW2  710   3.428   4.484   0.263
  170SOL    HW3  711   3.285   4.435   0.272
  170SOL    MW4  712   3.344   4.492   0.243
  171SOL     OW  713   3.427   4.283   0.543
  171SOL    HW2  714   3.339   4.281   0.505
  171SOL    HW3  715   3.471   4.356   0.498
  171SOL    MW4  716   3.421   4.292   0.532
  172SOL     OW  717   2.730   4.308   0.476
  172SOL    HW2  718   2.814   4.354   0.478
  172SOL    HW3  719   2.753   4.219   0.448
  172SOL    MW4  720   2.744   4.302   0.473
  173SOL     OW  721   2.611   0.183   0.490
  173SOL    HW2  722   2.554   0.257   0.471
  173SOL    HW3  723   2.692   0.203   0.444
  173SOL    MW4  724   2.614   0.195   0.482
  174SOL     OW  725   3.210   0.753   0.522
  174SOL    HW2  726   3.178   0.789   0.605
  174SOL    HW3  727   3.255   0.825   0.480
  174SOL    MW4  728   3.211   0.767   0.528
  175SOL     OW  729   3.004   0.432   0.505
  175SOL    HW2  730   2.980   0.341   0.487
  175SOL    HW3  731   3.099   0.430   0.515
  175SOL    MW4  732   3.014   0.420   0.504
  176SOL     OW  733   3.574   0.881   0.442
  176SOL    HW2  734   3.639   0.824   0.402
  176SOL    HW3  735   3.584   0.867   0.536
  176SOL    MW4  736   3.584   0.871   0.449
  177SOL     OW  737   2.905   0.200   0.395
  177SOL    HW2  738   2.930   0.194   0.303
  177SOL    HW3  739   2.935   0.117   0.434
  177SOL    MW4  740   2.912   0.188   0.388
  178SOL     OW  741   3.526   1.915   0.498
  178SOL    HW2  742   3.591   1.904   0.567
  178SOL    HW3  743   3.445   1.938   0.544
  178SOL    MW4  744   3.524   1.916   0.513
  179SOL     OW  745   3.399   1.618   0.442
  179SOL    HW2  746   3.414   1.711   0.426
  179SOL    HW3  747   3.304   1.611   0.454
  179SOL    MW4  748   3.388   1.629   0.442
  180SOL     OW  749   3.320   0.987   0.402
  180SOL    HW2  750   3.323   1.080   0.424
  180SOL    HW3  751   3.411   0.961   0.391
  180SOL    MW4  752   3.332   0.995   0.403
  181SOL     OW  753   3.830   1.714   0.426
  181SOL    HW2  754   3.796   1.625   0.421
  181SOL    HW3  755   3.801   1.746   0.511
  181SOL    MW4  756   3.822   1.707   0.436
  182SOL     OW  757   3.318   2.260   0.689
  182SOL    HW2  758   3.301   2.168   0.673
  182SOL    HW3  759   3.388   2.260   0.755
  182SOL    MW4  760   3.325   2.248   0.696
  183SOL     OW  761   3.482   2.720   0.608
  183SOL    HW2  762   3.536   2.711   0.687
  183SOL    HW3  763   3.455   2.631   0.587
  183SOL    MW4  764   3.486   2.707   0.616
  184SOL     OW  765   2.085   3.068   0.384
  184SOL    HW2  766   2.004   3.119   0.378
  184SOL    HW3  767   2.056   2.979   0.403
  184SOL    MW4  768   2.071   3.063   0.386
  185SOL     OW  769   3.273   2.659   0.368
  185SOL    HW2  770   3.297   2.628   0.281
  185SOL    HW3  771   3.313   2.596   0.428
  185SOL    MW4  772   3.281   2.647   0.365
  186SOL     OW  773   2.919   2.841   0.817
  186SOL    HW2  774   2.913   2.818   0.725
  186SOL    HW3  775   3.000   2.799   0.847
  186SOL    MW4  776   2.929   2.832   0.809
  187SOL     OW  777   3.276   0.112   0.331
  187SOL    HW2  778   3.311   0.023   0.323
  187SOL    HW3  779   3.276   0.146   0.242
  187SOL    MW4  780   3.281   0.105   0.318
  188SOL     OW  781   3.062   4.029   0.458
  188SOL    HW2  782   3.096   3.952   0.413
  188SOL    HW3  783   3.113   4.034   0.538
  188SOL    MW4  784   3.073   4.019   0.462
  189SOL     OW  785   3.368   3.537   0.652
  189SOL    HW2  786   3.354   3.485   0.573
  189SOL    HW3  787   3.292   3.516   0.708
  189SOL    MW4  788   3.356   3.527   0.649
  190SOL     OW  789   3.666   3.321   0.477
  190SOL    HW2  790   3.751   3.281   0.463
  190SOL    HW3  791   3.677   3.412   0.448
  190SOL    MW4  792   3.678   3.328   0.471
  191SOL     OW  793   3.364   3.381   0.413
  191SOL    HW2  794   3.293   3.316   0.419
  191SOL    HW3  795   3.444   3.330   0.429
  191SOL    MW4  796   3.365   3.365   0.416
  192SOL     OW  797   2.779   4.003   0.464
  192SOL    HW2  798   2.874   3.994   0.456
  192SOL    HW3  799   2.745   3.933   0.408
  192SOL    MW4  800   2.787   3.992   0.455
  193SOL     OW  801   2.645   3.384   0.117
  193SOL    HW2  802   2.584   3.372   0.190
  193SOL    HW3  803   2.725   3.338   0.144
  193SOL    MW4  804   2.647   3.376   0.130
  194SOL     OW  805   4.229   0.250   0.469
  194SOL    HW2  806   4.172   0.173   0.463
  194SOL    HW3  807   4.318   0.215   0.460
  194SOL    MW4  808   4.233   0.235   0.467
  195SOL     OW  809   3.688   0.025   0.515
  195SOL    HW2  810   3.652   0.102   0.472
  195SOL    HW3  811   3.783   0.032   0.501
  195SOL    MW4  812   3.696   0.036   0.507
  196SOL     OW  813   3.557   0.464   0.516
  196SOL    HW2  814   3.591   0.530   0.455
  196SOL    HW3  815   3.617   0.467   0.591
  196SOL    MW4  816   3.569   0.473   0.518
  197SOL     OW  817   3.707   0.642   0.344
  197SOL    HW2  818   3.785   0.634   0.400
  197SOL    HW3  819   3.742   0.663   0.257
  197SOL    MW4  820   3.722   0.644   0.340
  198SOL     OW  821   3.916   0.581   0.512
  198SOL    HW2  822   4.003   0.541   0.505
  198SOL    HW3  823   3.880   0.548   0.594
  198SOL    MW4  824   3.923   0.572   0.522
  199SOL     OW  825   4.355   0.884   0.507
  199SOL    HW2  826   4.261   0.871   0.511
  199SOL    HW3  827   4.391   0.798   0.485
  199SOL    MW4  828   4.348   0.871   0.505
  200SOL     OW  829   3.862   0.999   0.472
  200SOL    HW2  830   3.882   1.092   0.479
  200SOL    HW3  831   3.766   0.995   0.465
  200SOL    MW4  832   3.852   1.010   0.472
  201SOL     OW  833   4.077   1.598   0.493
  201SOL    HW2  834   3.996   1.636   0.457
  201SOL    HW3  835   4.147   1.649   0.453
  201SOL    MW4  836   4.075   1.610   0.483
  202SOL     OW  837   3.942   1.280   0.542
  202SOL    HW2  838   4.028   1.294   0.501
  202SOL    HW3  839   3.884   1.342   0.498
  202SOL    MW4  840   3.946   1.290   0.531
  203SOL     OW  841   3.309   1.258   0.515
  203SOL    HW2  842   3.332   1.247   0.607
  203SOL    HW3  843   3.217   1.285   0.516
  203SOL    MW4  844   3.300   1.260   0.527
  204SOL     OW  845   3.509   1.368   0.333
  204SOL    HW2  846   3.440   1.325   0.383
  204SOL    HW3  847   3.471   1.452   0.308
  204SOL    MW4  848   3.495   1.373   0.336
  205SOL     OW  849   3.641   2.376   0.356
  205SOL    HW2  850   3.732   2.396   0.335
  205SOL    HW3  851   3.642   2.284   0.382
  205SOL    MW4  852   3.653   2.367   0.356
  206SOL     OW  853   4.186   2.825   0.512
  206SOL    HW2  854   4.198   2.731   0.497
  206SOL    HW3  855   4.091   2.835   0.523
  206SOL    MW4  856   4.175   2.814   0.511
  207SOL     OW  857   3.007   2.614   0.471
  207SOL    HW2  858   3.040   2.573   0.551
  207SOL    HW3  859   3.084   2.627   0.417
  207SOL    MW4  860   3.021   2.610   0.474
  208SOL     OW  861   2.941   3.576   0.439
  208SOL    HW2  862   3.019   3.621   0.407
  208SOL    HW3  863   2.867   3.628   0.407
  208SOL    MW4  864   2.941   3.589   0.431
  209SOL     OW  865   3.155   2.924   0.456
  209SOL    HW2  866   3.190   2.845   0.414
  209SOL    HW3  867   3.063   2.905   0.471
  209SOL    MW4  868   3.148   2.911   0.452
  210SOL     OW  869   3.908   2.906   0.543
  210SOL    HW2  870   3.840   2.854   0.500
  210SOL    HW3  871   3.882   2.997   0.526
  210SOL    MW4  872   3.896   2.911   0.535
  211SOL     OW  873   3.705   2.749   0.431
  211SOL    HW2  874   3.692   2.680   0.366
  211SOL    HW3  875   3.622   2.753   0.479
  211SOL    MW4  876   3.693   2.740   0.429
  212SOL     OW  877   4.006   3.681   0.393
  212SOL    HW2  878   3.912   3.665   0.381
  212SOL    HW3  879   4.048   3.603   0.357
  212SOL    MW4  880   3.999   3.668   0.386
  213SOL     OW  881   3.423   2.453   0.524
  213SOL    HW2  882   3.395   2.372   0.566
  213SOL    HW3  883   3.493   2.427   0.464
  213SOL    MW4  884   3.429   2.439   0.521
  214SOL     OW  885   3.157   3.736   0.345
  214SOL    HW2  886   3.215   3.716   0.271
  214SOL    HW3  887   3.216   3.751   0.418
  214SOL    MW4  888   3.172   3.735   0.345
  215SOL     OW  889   4.441   3.547   0.545
  215SOL    HW2  890   4.402   3.459   0.551
  215SOL    HW3  891   4.529   3.531   0.510
  215SOL    MW4  892   4.447   3.533   0.541
  216SOL     OW  893   3.492   4.030   0.652
  216SOL    HW2  894   3.515   4.123   0.645
  216SOL    HW3  895   3.507   4.009   0.744
  216SOL    MW4  896   3.497   4.040   0.663
  217SOL     OW  897   3.755   4.265   0.467
  217SOL    HW2  898   3.743   4.173   0.444
  217SOL    HW3  899   3.792   4.263   0.555
  217SOL    MW4  900   3.758   4.253   0.475
  218SOL     OW  901   0.016   0.177   0.484
  218SOL    HW2  902   0.000   0.086   0.462
  218SOL    HW3  903   0.031   0.177   0.578
  218SOL    MW4  904   0.016   0.165   0.493
  219SOL     OW  905   4.074   0.841   0.506
  219SOL    HW2  906   3.999   0.896   0.482
  219SOL    HW3  907   4.038   0.753   0.515
  219SOL    MW4  908   4.060   0.837   0.504
  220SOL     OW  909   0.371   1.605   0.520
  220SOL    HW2  910   0.393   1.522   0.477
  220SOL    HW3  911   0.276   1.610   0.515
  220SOL    MW4  912   0.362   1.595   0.514
  221SOL     OW  913   4.197   0.515   0.460
  221SOL    HW2  914   4.197   0.419   0.464
  221SOL    HW3  915   4.288   0.538   0.439
  221SOL    MW4  916   4.209   0.505   0.458
  222SOL     OW  917   0.076   1.077   0.438
  222SOL    HW2  918   0.029   1.161   0.441
  222SOL    HW3  919   0.007   1.011   0.441
  222SOL    MW4  920   0.061   1.079   0.439
  223SOL     OW  921   3.584   4.458   0.386
  223SOL    HW2  922   3.651   4.391   0.401
  223SOL    HW3  923   3.622   4.538   0.421
  223SOL    MW4  924   3.598   4.460   0.393
  224SOL     OW  925   4.194   1.339   0.460
  224SOL    HW2  926   4.220   1.308   0.547
  224SOL    HW3  927   4.149   1.422   0.476
  224SOL    MW4  928   4.192   1.346   0.474
  225SOL     OW  929   4.463   1.346   0.477
  225SOL    HW2  930   4.374   1.340   0.444
  225SOL    HW3  931   4.456   1.321   0.569
  225SOL    MW4  932   4.450   1.342   0.485
  226SOL     OW  933   4.147   2.155   0.188
  226SOL    HW2  934   4.117   2.244   0.173
  226SOL    HW3  935   4.073   2.111   0.229
  226SOL    MW4  936   4.133   2.161   0.191
  227SOL     OW  937   4.303   1.727   0.391
  227SOL    HW2  938   4.303   1.813   0.350
  227SOL    HW3  939   4.396   1.708   0.406
  227SOL    MW4  940   4.315   1.736   0.388
  228SOL     OW  941   4.348   2.175   0.502
  228SOL    HW2  942   4.381   2.265   0.493
  228SOL    HW3  943   4.253   2.185   0.493
  228SOL    MW4  944   4.339   2.188   0.499
  229SOL     OW  945   4.350   1.971   0.289
  229SOL    HW2  946   4.291   2.021   0.233
  229SOL    HW3  947   4.359   2.023   0.369
  229SOL    MW4  948   4.343   1.984   0.292
  230SOL     OW  949   4.439   2.446   0.476
  230SOL    HW2  950   4.501   2.493   0.419
  230SOL    HW3  951   4.465   2.472   0.565
  230SOL    MW4  952   4.451   2.456   0.480
  231SOL     OW  953   4.186   3.445   0.316
  231SOL    HW2  954   4.268   3.478   0.278
  231SOL    HW3  955   4.214   3.398   0.394
  231SOL    MW4  956   4.200   3.443   0.321
  232SOL     OW  957   4.176   2.544   0.478
  232SOL    HW2  958   4.126   2.499   0.547
  232SOL    HW3  959   4.256   2.492   0.469
  232SOL    MW4  960   4.180   2.531   0.486
  233SOL     OW  961   0.207   3.927   0.434
  233SOL    HW2  962   0.152   4.006   0.431
  233SOL    HW3  963   0.273   3.941   0.367
  233SOL    MW4  964   0.208   3.939   0.425
  234SOL     OW  965   4.428   3.579   0.191
  234SOL    HW2  966   4.428   3.661   0.240
  234SOL    HW3  967   4.360   3.591   0.124
  234SOL    MW4  968   4.419   3.591   0.188
  235SOL     OW  969   0.129   3.431   0.334
  235SOL    HW2  970   0.084   3.486   0.269
  235SOL    HW3  971   0.222   3.448   0.320
  235SOL    MW4  972   0.135   3.440   0.324
  236SOL     OW  973   3.736   3.586   0.435
  236SOL    HW2  974   3.671   3.654   0.417
  236SOL    HW3  975   3.759   3.598   0.527
  236SOL    MW4  976   3.730   3.597   0.444
  237SOL     OW  977   3.909   3.181   0.475
  237SOL    HW2  978   3.971   3.199   0.545
  237SOL    HW3  979   3.962   3.180   0.395
  237SOL    MW4  980   3.924   3.183   0.474
  238SOL     OW  981   0.069   4.153   0.472
  238SOL    HW2  982   0.080   4.125   0.562
  238SOL    HW3  983  -0.017   4.118   0.446
  238SOL    MW4  984   0.059   4.145   0.480
  239SOL     OW  985   4.025   3.942   0.513
  239SOL    HW2  986   4.027   3.855   0.473
  239SOL    HW3  987   3.934   3.969   0.510
  239SOL    MW4  988   4.014   3.934   0.507
  240SOL     OW  989   3.712   3.982   0.469
  240SOL    HW2  990   3.650   3.991   0.542
  240SOL    HW3  991   3.671   3.919   0.411
  240SOL    MW4  992   3.698   3.975   0.471
  241SOL     OW  993   3.997   4.471   0.419
  241SOL    HW2  994   4.070   4.415   0.446
  241SOL    HW3  995   3.919   4.418   0.438
  241SOL    MW4  996   3.996   4.456   0.425
  242SOL     OW  997   0.226   0.019   0.836
  242SOL    HW2  998   0.225  -0.075   0.817
  242SOL    HW3  999   0.140   0.050   0.809
  242SOL    MW4 1000   0.215   0.011   0.830
  243SOL     OW 1001   4.477   0.134   0.758
  243SOL    HW2 1002   4.403   0.084   0.794
  243SOL    HW3 1003   4.474   0.217   0.805
  243SOL    MW4 1004   4.467   0.138   0.769
  244SOL     OW 1005   4.487   0.383   0.847
  244SOL    HW2 1006   4.468   0.398   0.940
  244SOL    HW3 1007   4.575   0.421   0.835
  244SOL    MW4 1008   4.497   0.390   0.858
  245SOL     OW 1009   0.244   0.483   0.803
  245SOL    HW2 1010   0.310   0.429   0.846
  245SOL    HW3 1011   0.267   0.573   0.828
  245SOL    MW4 1012   0.256   0.488   0.812
  246SOL     OW 1013   0.287   0.766   0.860
  246SOL    HW2 1014   0.257   0.753   0.949
  246SOL    HW3 1015   0.212   0.806   0.815
  246SOL    MW4 1016   0.273   0.770   0.866
  247SOL     OW 1017   0.021   0.851   0.766
  247SOL    HW2 1018  -0.038   0.804   0.824
  247SOL    HW3 1019  -0.032   0.870   0.688
  247SOL    MW4 1020   0.007   0.848   0.763
  248SOL     OW 1021   0.023   1.133   0.832
  248SOL    HW2 1022   0.035   1.135   0.927
  248SOL    HW3 1023   0.019   1.039   0.811
  248SOL    MW4 1024   0.024   1.121   0.842
  249SOL     OW 1025   0.255   1.277   0.718
  249SOL    HW2 1026   0.181   1.229   0.754
  249SOL    HW3 1027   0.273   1.236   0.634
  249SOL    MW4 1028   0.248   1.266   0.712
  250SOL     OW 1029   0.255   1.542   0.848
  250SOL    HW2 1030   0.337   1.581   0.817
  250SOL    HW3 1031   0.252   1.456   0.806
  250SOL    MW4 1032   0.265   1.536   0.838
  251SOL     OW 1033   0.013   1.654   0.748
  251SOL    HW2 1034  -0.064   1.615   0.791
  251SOL    HW3 1035   0.088   1.611   0.789
  251SOL    MW4 1036   0.013   1.643   0.759
  252SOL     OW 1037   4.457   1.906   0.863
  252SOL    HW2 1038   4.534   1.961   0.849
  252SOL    HW3 1039   4.484   1.819   0.833
  252SOL    MW4 1040   4.471   1.902   0.857
  253SOL     OW 1041   0.193   2.022   0.758
  253SOL    HW2 1042   0.186   2.115   0.783
  253SOL    HW3 1043   0.143   2.015   0.677
  253SOL    MW4 1044   0.185   2.034   0.751
  254SOL     OW 1045   0.212   2.273   0.838
  254SOL    HW2 1046   0.224   2.286   0.933
  254SOL    HW3 1047   0.286   2.319   0.799
  254SOL    MW4 1048   0.223   2.281   0.846
  255SOL     OW 1049   0.004   2.471   0.747
  255SOL    HW2 1050  -0.068   2.427   0.793
  255SOL    HW3 1051   0.079   2.413   0.758
  255SOL    MW4 1052   0.004   2.458   0.754
  256SOL     OW 1053   4.468   2.722   0.855
  256SOL    HW2 1054   4.493   2.722   0.947
  256SOL    HW3 1055   4.471   2.630   0.829
  256SOL    MW4 1056   4.471   2.710   0.864
  257SOL     OW 1057   0.218   2.832   0.751
  257SOL    HW2 1058   0.139   2.782   0.775
  257SOL    HW3 1059   0.201   2.862   0.662
  257SOL    MW4 1060   0.205   2.829   0.742
  258SOL     OW 1061   0.237   3.099   0.825
  258SOL    HW2 1062   0.232   3.093   0.921
  258SOL    HW3 1063   0.222   3.009   0.795
  258SOL    MW4 1064   0.234   3.086   0.834
  259SOL     OW 1065   4.486   3.229   0.764
  259SOL    HW2 1066   4.572   3.189   0.782
  259SOL    HW3 1067   4.476   3.221   0.669
  259SOL    MW4 1068   4.496   3.222   0.754
  260SOL     OW 1069   0.022   3.479   0.894
  260SOL    HW2 1070  -0.059   3.528   0.875
  260SOL    HW3 1071   0.015   3.400   0.840
  260SOL    MW4 1072   0.010   3.475   0.884
  261SOL     OW 1073   0.241   3.624   0.804
  261SOL    HW2 1074   0.171   3.569   0.839
  261SOL    HW3 1075   0.217   3.637   0.712
  261SOL    MW4 1076   0.229   3.619   0.796
  262SOL     OW 1077   0.250   3.895   0.888
  262SOL    HW2 1078   0.257   3.895   0.983
  262SOL    HW3 1079   0.243   3.802   0.864
  262SOL    MW4 1080   0.250   3.883   0.897
  263SOL     OW 1081   0.066   4.022   0.739
  263SOL    HW2 1082  -0.016   3.975   0.757
  263SOL    HW3 1083   0.129   3.984   0.800
  263SOL    MW4 1084   0.064   4.011   0.750
  264SOL     OW 1085   0.022   4.280   0.878
  264SOL    HW2 1086  -0.002   4.273   0.971
  264SOL    HW3 1087   0.023   4.190   0.847
  264SOL    MW4 1088   0.019   4.267   0.887
  265SOL     OW 1089   0.262   4.410   0.808
  265SOL    HW2 1090   0.180   4.372   0.840
  265SOL    HW3 1091   0.252   4.413   0.713
  265SOL    MW4 1092   0.250   4.405   0.800
  266SOL     OW 1093   0.653   4.628   0.869
  266SOL    HW2 1094   0.639   4.646   0.962
  266SOL    HW3 1095   0.577   4.665   0.826
  266SOL    MW4 1096   0.641   4.636   0.876
  267SOL     OW 1097   0.458   0.147   0.765
  267SOL    HW2 1098   0.380   0.093   0.780
  267SOL    HW3 1099   0.479   0.132   0.673
  267SOL    MW4 1100   0.450   0.138   0.755
  268SOL     OW 1101   0.470   0.390   0.904
  268SOL    HW2 1102   0.548   0.438   0.875
  268SOL    HW3 1103   0.468   0.311   0.850
  268SOL    MW4 1104   0.480   0.386   0.893
  269SOL     OW 1105   0.698   0.505   0.794
  269SOL    HW2 1106   0.768   0.443   0.816
  269SOL    HW3 1107   0.700   0.510   0.699
  269SOL    MW4 1108   0.707   0.497   0.785
  270SOL     OW 1109   0.739   0.778   0.901
  270SOL    HW2 1110   0.670   0.835   0.867
  270SOL    HW3 1111   0.721   0.692   0.862
  270SOL    MW4 1112   0.728   0.774   0.892
  271SOL     OW 1113   0.512   0.901   0.809
  271SOL    HW2 1114   0.496   0.992   0.834
  271SOL    HW3 1115   0.429   0.856   0.826
  271SOL    MW4 1116   0.499   0.907   0.815
  272SOL     OW 1117   0.492   1.175   0.857
  272SOL    HW2 1118   0.566   1.193   0.799
  272SOL    HW3 1119   0.418   1.222   0.817
  272SOL    MW4 1120   0.492   1.184   0.844
  273SOL     OW 1121   0.714   1.248   0.707
  273SOL    HW2 1122   0.728   1.333   0.751
  273SOL    HW3 1123   0.714   1.269   0.614
  273SOL    MW4 1124   0.716   1.262   0.701
  274SOL     OW 1125   0.724   1.499   0.825
  274SOL    HW2 1126   0.717   1.487   0.920
  274SOL    HW3 1127   0.644   1.544   0.801
  274SOL    MW4 1128   0.713   1.503   0.835
  275SOL     OW 1129   0.486   1.632   0.760
  275SOL    HW2 1130   0.484   1.723   0.787
  275SOL    HW3 1131   0.460   1.634   0.667
  275SOL    MW4 1132   0.482   1.644   0.751
  276SOL     OW 1133   0.450   1.893   0.854
  276SOL    HW2 1134   0.454   1.875   0.948
  276SOL    HW3 1135   0.376   1.953   0.843
  276SOL    MW4 1136   0.440   1.898   0.865
  277SOL     OW 1137   0.662   2.046   0.748
  277SOL    HW2 1138   0.591   1.993   0.784
  277SOL    HW3 1139   0.644   2.048   0.654
  277SOL    MW4 1140   0.650   2.039   0.740
  278SOL     OW 1141   0.650   2.316   0.852
  278SOL    HW2 1142   0.647   2.311   0.948
  278SOL    HW3 1143   0.653   2.225   0.823
  278SOL    MW4 1144   0.650   2.304   0.861
  279SOL     OW 1145   0.411   2.417   0.741
  279SOL    HW2 1146   0.487   2.378   0.784
  279SOL    HW3 1147   0.398   2.363   0.663
  279SOL    MW4 1148   0.420   2.405   0.736
  280SOL     OW 1149   0.432   2.673   0.860
  280SOL    HW2 1150   0.425   2.598   0.802
  280SOL    HW3 1151   0.360   2.730   0.835
  280SOL    MW4 1152   0.422   2.671   0.849
  281SOL     OW 1153   0.687   2.829   0.752
  281SOL    HW2 1154   0.771   2.791   0.780
  281SOL    HW3 1155   0.622   2.788   0.808
  281SOL    MW4 1156   0.690   2.819   0.763
  282SOL     OW 1157   0.717   3.096   0.826
  282SOL    HW2 1158   0.627   3.126   0.809
  282SOL    HW3 1159   0.723   3.011   0.784
  282SOL    MW4 1160   0.706   3.089   0.818
  283SOL     OW 1161   0.476   3.227   0.771
  283SOL    HW2 1162   0.469   3.314   0.810
  283SOL    HW3 1163   0.393   3.184   0.793
  283SOL    MW4 1164   0.464   3.233   0.779
  284SOL     OW 1165   0.480   3.487   0.863
  284SOL    HW2 1166   0.465   3.492   0.958
  284SOL    HW3 1167   0.403   3.529   0.825
  284SOL    MW4 1168   0.468   3.493   0.871
  285SOL     OW 1169   0.721   3.588   0.771
  285SOL    HW2 1170   0.646   3.539   0.806
  285SOL    HW3 1171   0.700   3.679   0.791
  285SOL    MW4 1172   0.708   3.594   0.778
  286SOL     OW 1173   0.687   3.848   0.829
  286SOL    HW2 1174   0.761   3.900   0.796
  286SOL    HW3 1175   0.610   3.885   0.786
  286SOL    MW4 1176   0.687   3.860   0.819
  287SOL     OW 1177   0.453   3.964   0.717
  287SOL    HW2 1178   0.452   4.056   0.744
  287SOL    HW3 1179   0.387   3.922   0.771
  287SOL    MW4 1180   0.444   3.971   0.727
  288SOL     OW 1181   0.443   4.210   0.857
  288SOL    HW2 1182   0.456   4.204   0.951
  288SOL    HW3 1183   0.381   4.282   0.846
  288SOL    MW4 1184   0.437   4.219   0.868
  289SOL     OW 1185   0.677   4.366   0.782
  289SOL    HW2 1186   0.592   4.326   0.804
  289SOL    HW3 1187   0.676   4.451   0.825
  289SOL    MW4 1188   0.665   4.372   0.790
  290SOL     OW 1189   1.058   4.634   0.846
  290SOL    HW2 1190   1.132   4.675   0.802
  290SOL    HW3 1191   0.981   4.675   0.808
  290SOL    MW4 1192   1.057   4.645   0.835
  291SOL     OW 1193   0.846   0.085   0.709
  291SOL    HW2 1194   0.861   0.175   0.737
  291SOL    HW3 1195   0.784   0.051   0.773
  291SOL    MW4 1196   0.840   0.092   0.721
  292SOL     OW 1197   0.884   0.329   0.862
  292SOL    HW2 1198   0.885   0.314   0.957
  292SOL    HW3 1199   0.967   0.372   0.844
  292SOL    MW4 1200   0.895   0.333   0.872
  293SOL     OW 1201   1.120   0.472   0.765
  293SOL    HW2 1202   1.192   0.431   0.813
  293SOL    HW3 1203   1.125   0.436   0.677
  293SOL    MW4 1204   1.130   0.462   0.760
  294SOL     OW 1205   1.182   0.727   0.829
  294SOL    HW2 1206   1.170   0.708   0.922
  294SOL    HW3 1207   1.177   0.641   0.786
  294SOL    MW4 1208   1.180   0.713   0.835
  295SOL     OW 1209   0.953   0.870   0.785
  295SOL    HW2 1210   1.035   0.824   0.805
  295SOL    HW3 1211   0.885   0.818   0.829
  295SOL    MW4 1212   0.955   0.857   0.793
  296SOL     OW 1213   0.962   1.156   0.818
  296SOL    HW2 1214   0.950   1.061   0.815
  296SOL    HW3 1215   0.881   1.191   0.782
  296SOL    MW4 1216   0.950   1.148   0.813
  297SOL     OW 1217   1.165   1.281   0.657
  297SOL    HW2 1218   1.089   1.246   0.704
  297SOL    HW3 1219   1.134   1.290   0.567
  297SOL    MW4 1220   1.151   1.277   0.651
  298SOL     OW 1221   1.163   1.508   0.831
  298SOL    HW2 1222   1.101   1.563   0.784
  298SOL    HW3 1223   1.166   1.427   0.779
  298SOL    MW4 1224   1.156   1.504   0.818
  299SOL     OW 1225   0.955   1.668   0.734
  299SOL    HW2 1226   0.944   1.751   0.780
  299SOL    HW3 1227   0.873   1.621   0.748
  299SOL    MW4 1228   0.943   1.673   0.742
  300SOL     OW 1229   0.888   1.919   0.839
  300SOL    HW2 1230   0.887   1.929   0.934
  300SOL    HW3 1231   0.815   1.972   0.808
  300SOL    MW4 1232   0.878   1.927   0.847
  301SOL     OW 1233   1.100   2.067   0.721
  301SOL    HW2 1234   1.097   2.159   0.747
  301SOL    HW3 1235   1.033   2.025   0.775
  301SOL    MW4 1236   1.091   2.074   0.732
  302SOL     OW 1237   1.086   2.327   0.841
  302SOL    HW2 1238   1.069   2.321   0.935
  302SOL    HW3 1239   1.176   2.358   0.835
  302SOL    MW4 1240   1.096   2.330   0.853
  303SOL     OW 1241   0.865   2.463   0.759
  303SOL    HW2 1242   0.946   2.423   0.790
  303SOL    HW3 1243   0.795   2.415   0.803
  303SOL    MW4 1244   0.866   2.452   0.769
  304SOL     OW 1245   0.920   2.689   0.875
  304SOL    HW2 1246   0.916   2.687   0.971
  304SOL    HW3 1247   0.901   2.599   0.848
  304SOL    MW4 1248   0.917   2.677   0.884
  305SOL     OW 1249   1.131   2.824   0.740
  305SOL    HW2 1250   1.063   2.779   0.790
  305SOL    HW3 1251   1.101   2.821   0.649
  305SOL    MW4 1252   1.118   2.818   0.734
  306SOL     OW 1253   1.124   3.084   0.824
  306SOL    HW2 1254   1.054   3.125   0.775
  306SOL    HW3 1255   1.137   2.998   0.783
  306SOL    MW4 1256   1.117   3.078   0.812
  307SOL     OW 1257   0.939   3.204   0.672
  307SOL    HW2 1258   0.959   3.293   0.703
  307SOL    HW3 1259   0.854   3.184   0.710
  307SOL    MW4 1260   0.931   3.213   0.681
  308SOL     OW 1261   0.957   3.459   0.805
  308SOL    HW2 1262   1.022   3.526   0.782
  308SOL    HW3 1263   0.873   3.503   0.798
  308SOL    MW4 1264   0.955   3.473   0.801
  309SOL     OW 1265   1.175   3.612   0.698
  309SOL    HW2 1266   1.237   3.570   0.757
  309SOL    HW3 1267   1.198   3.579   0.611
  309SOL    MW4 1268   1.186   3.602   0.694
  310SOL     OW 1269   1.106   3.846   0.825
  310SOL    HW2 1270   1.103   3.816   0.915
  310SOL    HW3 1271   1.134   3.770   0.775
  310SOL    MW4 1272   1.109   3.832   0.830
  311SOL     OW 1273   0.904   3.977   0.712
  311SOL    HW2 1274   0.903   4.066   0.748
  311SOL    HW3 1275   0.979   3.935   0.754
  311SOL    MW4 1276   0.914   3.983   0.722
  312SOL     OW 1277   0.905   4.243   0.839
  312SOL    HW2 1278   0.959   4.288   0.775
  312SOL    HW3 1279   0.820   4.286   0.833
  312SOL    MW4 1280   0.901   4.255   0.830
  313SOL     OW 1281   1.080   4.401   0.706
  313SOL    HW2 1282   1.152   4.359   0.753
  313SOL    HW3 1283   1.065   4.482   0.755
  313SOL    MW4 1284   1.088   4.406   0.719
  314SOL     OW 1285   1.501   4.611   0.796
  314SOL    HW2 1286   1.510   4.609   0.891
  314SOL    HW3 1287   1.422   4.663   0.781
  314SOL    MW4 1288   1.492   4.618   0.806
  315SOL     OW 1289   1.281   0.090   0.746
  315SOL    HW2 1290   1.308   0.169   0.793
  315SOL    HW3 1291   1.304   0.107   0.655
  315SOL    MW4 1292   1.287   0.102   0.740
  316SOL     OW 1293   1.335   0.335   0.875
  316SOL    HW2 1294   1.350   0.329   0.970
  316SOL    HW3 1295   1.421   0.356   0.839
  316SOL    MW4 1296   1.348   0.337   0.883
  317SOL     OW 1297   1.572   0.461   0.762
  317SOL    HW2 1298   1.588   0.543   0.810
  317SOL    HW3 1299   1.649   0.407   0.782
  317SOL    MW4 1300   1.584   0.464   0.771
  318SOL     OW 1301   1.609   0.727   0.846
  318SOL    HW2 1302   1.677   0.769   0.793
  318SOL    HW3 1303   1.528   0.771   0.820
  318SOL    MW4 1304   1.607   0.738   0.836
  319SOL     OW 1305   1.387   0.884   0.749
  319SOL    HW2 1306   1.368   0.976   0.768
  319SOL    HW3 1307   1.310   0.836   0.780
  319SOL    MW4 1308   1.374   0.890   0.755
  320SOL     OW 1309   1.358   1.142   0.824
  320SOL    HW2 1310   1.440   1.183   0.797
  320SOL    HW3 1311   1.289   1.198   0.789
  320SOL    MW4 1312   1.359   1.155   0.816
  321SOL     OW 1313   1.600   1.245   0.728
  321SOL    HW2 1314   1.601   1.338   0.705
  321SOL    HW3 1315   1.585   1.200   0.645
  321SOL    MW4 1316   1.598   1.251   0.714
  322SOL     OW 1317   1.736   1.642   0.837
  322SOL    HW2 1318   1.695   1.628   0.922
  322SOL    HW3 1319   1.823   1.601   0.846
  322SOL    MW4 1320   1.742   1.634   0.849
  323SOL     OW 1321   1.358   1.670   0.701
  323SOL    HW2 1322   1.340   1.748   0.754
  323SOL    HW3 1323   1.304   1.601   0.741
  323SOL    MW4 1324   1.349   1.671   0.714
  324SOL     OW 1325   1.322   1.901   0.836
  324SOL    HW2 1326   1.328   1.907   0.932
  324SOL    HW3 1327   1.241   1.946   0.814
  324SOL    MW4 1328   1.312   1.908   0.846
  325SOL     OW 1329   1.546   2.042   0.734
  325SOL    HW2 1330   1.481   1.982   0.771
  325SOL    HW3 1331   1.552   2.018   0.642
  325SOL    MW4 1332   1.538   2.031   0.727
  326SOL     OW 1333   1.549   2.297   0.834
  326SOL    HW2 1334   1.464   2.337   0.814
  326SOL    HW3 1335   1.545   2.210   0.793
  326SOL    MW4 1336   1.537   2.291   0.826
  327SOL     OW 1337   1.332   2.433   0.772
  327SOL    HW2 1338   1.333   2.526   0.796
  327SOL    HW3 1339   1.340   2.432   0.677
  327SOL    MW4 1340   1.333   2.445   0.763
  328SOL     OW 1341   1.360   2.694   0.835
  328SOL    HW2 1342   1.363   2.687   0.931
  328SOL    HW3 1343   1.282   2.746   0.817
  328SOL    MW4 1344   1.350   2.700   0.845
  329SOL     OW 1345   1.572   2.830   0.744
  329SOL    HW2 1346   1.564   2.922   0.768
  329SOL    HW3 1347   1.490   2.790   0.774
  329SOL    MW4 1348   1.560   2.837   0.751
  330SOL     OW 1349   1.574   3.093   0.802
  330SOL    HW2 1350   1.571   3.097   0.897
  330SOL    HW3 1351   1.493   3.136   0.774
  330SOL    MW4 1352   1.563   3.099   0.811
  331SOL     OW 1353   1.337   3.250   0.739
  331SOL    HW2 1354   1.266   3.188   0.758
  331SOL    HW3 1355   1.333   3.262   0.644
  331SOL    MW4 1356   1.327   3.243   0.729
  332SOL     OW 1357   1.351   3.466   0.898
  332SOL    HW2 1358   1.436   3.501   0.869
  332SOL    HW3 1359   1.347   3.379   0.858
  332SOL    MW4 1360   1.362   3.459   0.889
  333SOL     OW 1361   1.561   3.607   0.794
  333SOL    HW2 1362   1.656   3.594   0.798
  333SOL    HW3 1363   1.540   3.604   0.701
  333SOL    MW4 1364   1.571   3.605   0.782
  334SOL     OW 1365   1.588   3.897   0.859
  334SOL    HW2 1366   1.515   3.934   0.809
  334SOL    HW3 1367   1.574   3.803   0.858
  334SOL    MW4 1368   1.577   3.890   0.853
  335SOL     OW 1369   1.336   3.971   0.727
  335SOL    HW2 1370   1.258   3.923   0.756
  335SOL    HW3 1371   1.342   3.952   0.633
  335SOL    MW4 1372   1.326   3.962   0.718
  336SOL     OW 1373   1.272   4.232   0.799
  336SOL    HW2 1374   1.352   4.280   0.776
  336SOL    HW3 1375   1.287   4.144   0.765
  336SOL    MW4 1376   1.285   4.227   0.792
  337SOL     OW 1377   1.514   4.349   0.723
  337SOL    HW2 1378   1.592   4.323   0.773
  337SOL    HW3 1379   1.505   4.443   0.740
  337SOL    MW4 1380   1.523   4.358   0.732
  338SOL     OW 1381   1.903   0.109   0.889
  338SOL    HW2 1382   1.983   0.115   0.836
  338SOL    HW3 1383   1.834   0.087   0.827
  338SOL    MW4 1384   1.904   0.107   0.874
  339SOL     OW 1385   1.714   0.069   0.663
  339SOL    HW2 1386   1.789   0.010   0.654
  339SOL    HW3 1387   1.647   0.016   0.706
  339SOL    MW4 1388   1.715   0.054   0.667
  340SOL     OW 1389   1.821   0.379   0.872
  340SOL    HW2 1390   1.868   0.296   0.883
  340SOL    HW3 1391   1.876   0.430   0.813
  340SOL    MW4 1392   1.834   0.375   0.866
  341SOL     OW 1393   1.995   0.507   0.701
  341SOL    HW2 1394   2.009   0.522   0.607
  341SOL    HW3 1395   2.080   0.476   0.733
  341SOL    MW4 1396   2.008   0.505   0.693
  342SOL     OW 1397   2.028   0.757   0.821
  342SOL    HW2 1398   2.110   0.793   0.787
  342SOL    HW3 1399   2.016   0.676   0.772
  342SOL    MW4 1400   2.037   0.751   0.810
  343SOL     OW 1401   1.798   0.880   0.719
  343SOL    HW2 1402   1.794   0.963   0.767
  343SOL    HW3 1403   1.877   0.837   0.752
  343SOL    MW4 1404   1.808   0.886   0.730
  344SOL     OW 1405   1.824   1.133   0.847
  344SOL    HW2 1406   1.892   1.180   0.799
  344SOL    HW3 1407   1.742   1.171   0.815
  344SOL    MW4 1408   1.822   1.144   0.837
  345SOL     OW 1409   2.033   1.291   0.745
  345SOL    HW2 1410   2.118   1.253   0.767
  345SOL    HW3 1411   2.039   1.311   0.652
  345SOL    MW4 1412   2.045   1.288   0.736
  346SOL     OW 1413   1.991   1.544   0.833
  346SOL    HW2 1414   2.067   1.589   0.797
  346SOL    HW3 1415   2.004   1.452   0.810
  346SOL    MW4 1416   2.002   1.538   0.825
  347SOL     OW 1417   1.935   1.581   0.454
  347SOL    HW2 1418   1.894   1.666   0.437
  347SOL    HW3 1419   1.876   1.518   0.415
  347SOL    MW4 1420   1.922   1.584   0.447
  348SOL     OW 1421   1.781   1.917   0.820
  348SOL    HW2 1422   1.770   1.823   0.804
  348SOL    HW3 1423   1.695   1.954   0.801
  348SOL    MW4 1424   1.768   1.909   0.815
  349SOL     OW 1425   1.999   2.028   0.675
  349SOL    HW2 1426   2.016   2.116   0.708
  349SOL    HW3 1427   1.941   1.989   0.741
  349SOL    MW4 1428   1.993   2.034   0.688
  350SOL     OW 1429   2.039   2.275   0.785
  350SOL    HW2 1430   2.049   2.261   0.879
  350SOL    HW3 1431   1.957   2.325   0.778
  350SOL    MW4 1432   2.029   2.280   0.797
  351SOL     OW 1433   1.801   2.443   0.800
  351SOL    HW2 1434   1.723   2.388   0.799
  351SOL    HW3 1435   1.807   2.477   0.710
  351SOL    MW4 1436   1.791   2.440   0.788
  352SOL     OW 1437   1.798   2.714   0.849
  352SOL    HW2 1438   1.789   2.619   0.846
  352SOL    HW3 1439   1.712   2.747   0.820
  352SOL    MW4 1440   1.785   2.706   0.845
  353SOL     OW 1441   2.042   2.822   0.752
  353SOL    HW2 1442   2.123   2.782   0.784
  353SOL    HW3 1443   1.972   2.774   0.797
  353SOL    MW4 1444   2.043   2.810   0.762
  354SOL     OW 1445   1.988   3.082   0.831
  354SOL    HW2 1446   1.919   3.127   0.784
  354SOL    HW3 1447   1.991   2.994   0.792
  354SOL    MW4 1448   1.979   3.076   0.820
  355SOL     OW 1449   1.814   3.248   0.721
  355SOL    HW2 1450   1.736   3.194   0.727
  355SOL    HW3 1451   1.840   3.244   0.629
  355SOL    MW4 1452   1.807   3.241   0.710
  356SOL     OW 1453   1.823   3.509   0.826
  356SOL    HW2 1454   1.809   3.484   0.917
  356SOL    HW3 1455   1.826   3.426   0.778
  356SOL    MW4 1456   1.821   3.495   0.832
  357SOL     OW 1457   2.039   3.629   0.695
  357SOL    HW2 1458   2.068   3.706   0.744
  357SOL    HW3 1459   1.971   3.590   0.750
  357SOL    MW4 1460   2.034   3.634   0.709
  358SOL     OW 1461   2.066   3.848   0.831
  358SOL    HW2 1462   2.067   3.845   0.927
  358SOL    HW3 1463   1.998   3.912   0.810
  358SOL    MW4 1464   2.057   3.856   0.841
  359SOL     OW 1465   1.834   3.988   0.770
  359SOL    HW2 1466   1.753   3.942   0.791
  359SOL    HW3 1467   1.828   4.005   0.676
  359SOL    MW4 1468   1.822   3.984   0.760
  360SOL     OW 1469   1.736   4.240   0.829
  360SOL    HW2 1470   1.752   4.260   0.921
  360SOL    HW3 1471   1.763   4.149   0.819
  360SOL    MW4 1472   1.742   4.231   0.840
  361SOL     OW 1473   1.951   4.350   0.670
  361SOL    HW2 1474   1.882   4.303   0.717
  361SOL    HW3 1475   1.965   4.299   0.590
  361SOL    MW4 1476   1.944   4.337   0.666
  362SOL     OW 1477   2.357   0.016   0.837
  362SOL    HW2 1478   2.380   0.007   0.930
  362SOL    HW3 1479   2.431   0.061   0.798
  362SOL    MW4 1480   2.369   0.021   0.844
  363SOL     OW 1481   2.140   0.184   0.774
  363SOL    HW2 1482   2.201   0.116   0.803
  363SOL    HW3 1483   2.142   0.179   0.678
  363SOL    MW4 1484   2.148   0.174   0.765
  364SOL     OW 1485   2.265   0.430   0.837
  364SOL    HW2 1486   2.350   0.455   0.800
  364SOL    HW3 1487   2.253   0.339   0.813
  364SOL    MW4 1488   2.275   0.422   0.829
  365SOL     OW 1489   2.511   0.509   0.729
  365SOL    HW2 1490   2.482   0.486   0.641
  365SOL    HW3 1491   2.589   0.455   0.743
  365SOL    MW4 1492   2.518   0.498   0.719
  366SOL     OW 1493   2.462   0.742   0.879
  366SOL    HW2 1494   2.545   0.784   0.858
  366SOL    HW3 1495   2.466   0.658   0.834
  366SOL    MW4 1496   2.473   0.737   0.870
  367SOL     OW 1497   2.271   0.885   0.743
  367SOL    HW2 1498   2.327   0.830   0.797
  367SOL    HW3 1499   2.319   0.894   0.661
  367SOL    MW4 1500   2.285   0.879   0.739
  368SOL     OW 1501   2.250   1.149   0.828
  368SOL    HW2 1502   2.245   1.156   0.924
  368SOL    HW3 1503   2.261   1.056   0.811
  368SOL    MW4 1504   2.251   1.138   0.839
  369SOL     OW 1505   2.470   1.298   0.751
  369SOL    HW2 1506   2.400   1.246   0.789
  369SOL    HW3 1507   2.478   1.266   0.661
  369SOL    MW4 1508   2.462   1.287   0.744
  370SOL     OW 1509   2.461   1.554   0.878
  370SOL    HW2 1510   2.521   1.609   0.826
  370SOL    HW3 1511   2.470   1.467   0.840
  370SOL    MW4 1512   2.470   1.550   0.866
  371SOL     OW 1513   2.230   1.657   0.758
  371SOL    HW2 1514   2.301   1.606   0.797
  371SOL    HW3 1515   2.234   1.637   0.664
  371SOL    MW4 1516   2.240   1.648   0.751
  372SOL     OW 1517   2.200   1.918   0.832
  372SOL    HW2 1518   2.198   1.827   0.802
  372SOL    HW3 1519   2.127   1.960   0.785
  372SOL    MW4 1520   2.190   1.912   0.822
  373SOL     OW 1521   2.435   2.056   0.744
  373SOL    HW2 1522   2.354   2.011   0.766
  373SOL    HW3 1523   2.421   2.089   0.655
  373SOL    MW4 1524   2.422   2.055   0.735
  374SOL     OW 1525   2.457   2.299   0.880
  374SOL    HW2 1526   2.529   2.345   0.836
  374SOL    HW3 1527   2.454   2.214   0.836
  374SOL    MW4 1528   2.466   2.294   0.868
  375SOL     OW 1529   2.261   2.448   0.762
  375SOL    HW2 1530   2.334   2.412   0.813
  375SOL    HW3 1531   2.192   2.381   0.769
  375SOL    MW4 1532   2.262   2.434   0.770
  376SOL     OW 1533   2.281   2.703   0.878
  376SOL    HW2 1534   2.275   2.695   0.973
  376SOL    HW3 1535   2.268   2.613   0.845
  376SOL    MW4 1536   2.279   2.690   0.886
  377SOL     OW 1537   2.473   2.856   0.769
  377SOL    HW2 1538   2.548   2.823   0.819
  377SOL    HW3 1539   2.398   2.809   0.806
  377SOL    MW4 1540   2.473   2.845   0.780
  378SOL     OW 1541   2.523   3.123   0.852
  378SOL    HW2 1542   2.528   3.123   0.947
  378SOL    HW3 1543   2.495   3.034   0.830
  378SOL    MW4 1544   2.520   3.111   0.862
  379SOL     OW 1545   2.248   3.212   0.778
  379SOL    HW2 1546   2.162   3.179   0.805
  379SOL    HW3 1547   2.310   3.173   0.840
  379SOL    MW4 1548   2.245   3.203   0.790
  380SOL     OW 1549   2.235   3.484   0.829
  380SOL    HW2 1550   2.245   3.399   0.786
  380SOL    HW3 1551   2.167   3.529   0.778
  380SOL    MW4 1552   2.227   3.479   0.816
  381SOL     OW 1553   2.456   3.617   0.727
  381SOL    HW2 1554   2.538   3.578   0.758
  381SOL    HW3 1555   2.387   3.570   0.775
  381SOL    MW4 1556   2.457   3.605   0.738
  382SOL     OW 1557   2.491   3.884   0.806
  382SOL    HW2 1558   2.413   3.935   0.782
  382SOL    HW3 1559   2.470   3.795   0.777
  382SOL    MW4 1560   2.478   3.879   0.799
  383SOL     OW 1561   2.264   4.018   0.748
  383SOL    HW2 1562   2.199   3.966   0.796
  383SOL    HW3 1563   2.236   4.012   0.657
  383SOL    MW4 1564   2.252   4.010   0.742
  384SOL     OW 1565   2.177   4.283   0.817
  384SOL    HW2 1566   2.196   4.192   0.792
  384SOL    HW3 1567   2.097   4.305   0.770
  384SOL    MW4 1568   2.169   4.274   0.808
  385SOL     OW 1569   2.364   4.450   0.700
  385SOL    HW2 1570   2.356   4.520   0.764
  385SOL    HW3 1571   2.288   4.394   0.716
  385SOL    MW4 1572   2.353   4.452   0.711
  386SOL     OW 1573   2.889   4.658   0.872
  386SOL    HW2 1574   2.890   4.562   0.866
  386SOL    HW3 1575   2.804   4.684   0.838
  386SOL    MW4 1576   2.878   4.648   0.867
  387SOL     OW 1577   2.535   4.594   0.460
  387SOL    HW2 1578   2.553   4.688   0.471
  387SOL    HW3 1579   2.447   4.591   0.423
  387SOL    MW4 1580   2.526   4.606   0.457
  388SOL     OW 1581   2.704   0.324   0.848
  388SOL    HW2 1582   2.686   0.322   0.942
  388SOL    HW3 1583   2.777   0.385   0.839
  388SOL    MW4 1584   2.711   0.332   0.860
  389SOL     OW 1585   2.909   0.490   0.785
  389SOL    HW2 1586   2.995   0.478   0.826
  389SOL    HW3 1587   2.924   0.470   0.692
  389SOL    MW4 1588   2.922   0.486   0.778
  390SOL     OW 1589   2.877   0.744   0.875
  390SOL    HW2 1590   2.876   0.746   0.970
  390SOL    HW3 1591   2.894   0.653   0.852
  390SOL    MW4 1592   2.879   0.732   0.884
  391SOL     OW 1593   2.683   0.906   0.772
  391SOL    HW2 1594   2.752   0.847   0.804
  391SOL    HW3 1595   2.699   0.912   0.678
  391SOL    MW4 1596   2.694   0.899   0.764
  392SOL     OW 1597   2.675   1.172   0.877
  392SOL    HW2 1598   2.666   1.079   0.858
  392SOL    HW3 1599   2.604   1.214   0.829
  392SOL    MW4 1600   2.664   1.166   0.868
  393SOL     OW 1601   2.910   1.298   0.789
  393SOL    HW2 1602   2.986   1.244   0.809
  393SOL    HW3 1603   2.834   1.244   0.811
  393SOL    MW4 1604   2.910   1.284   0.794
  394SOL     OW 1605   2.885   1.550   0.898
  394SOL    HW2 1606   2.976   1.576   0.888
  394SOL    HW3 1607   2.878   1.466   0.854
  394SOL    MW4 1608   2.896   1.543   0.891
  395SOL     OW 1609   2.691   1.654   0.745
  395SOL    HW2 1610   2.686   1.749   0.749
  395SOL    HW3 1611   2.774   1.632   0.788
  395SOL    MW4 1612   2.701   1.664   0.751
  396SOL     OW 1613   2.654   1.914   0.824
  396SOL    HW2 1614   2.661   1.951   0.912
  396SOL    HW3 1615   2.575   1.953   0.787
  396SOL    MW4 1616   2.645   1.924   0.831
  397SOL     OW 1617   2.869   2.077   0.694
  397SOL    HW2 1618   2.891   2.153   0.748
  397SOL    HW3 1619   2.804   2.029   0.745
  397SOL    MW4 1620   2.863   2.081   0.708
  398SOL     OW 1621   2.884   2.328   0.815
  398SOL    HW2 1622   2.872   2.334   0.910
  398SOL    HW3 1623   2.810   2.377   0.778
  398SOL    MW4 1624   2.872   2.335   0.823
  399SOL     OW 1625   2.642   2.470   0.756
  399SOL    HW2 1626   2.608   2.494   0.670
  399SOL    HW3 1627   2.645   2.553   0.804
  399SOL    MW4 1628   2.638   2.484   0.751
  400SOL     OW 1629   2.690   2.711   0.886
  400SOL    HW2 1630   2.687   2.712   0.981
  400SOL    HW3 1631   2.772   2.755   0.863
  400SOL    MW4 1632   2.700   2.717   0.895
  401SOL     OW 1633   2.897   2.844   0.528
  401SOL    HW2 1634   2.921   2.752   0.513
  401SOL    HW3 1635   2.802   2.845   0.523
  401SOL    MW4 1636   2.888   2.832   0.526
  402SOL     OW 1637   2.929   3.098   0.855
  402SOL    HW2 1638   2.865   3.153   0.811
  402SOL    HW3 1639   2.906   3.009   0.831
  402SOL    MW4 1640   2.918   3.094   0.846
  403SOL     OW 1641   2.735   3.248   0.732
  403SOL    HW2 1642   2.720   3.339   0.758
  403SOL    HW3 1643   2.659   3.200   0.766
  403SOL    MW4 1644   2.723   3.253   0.740
  404SOL     OW 1645   2.684   3.493   0.820
  404SOL    HW2 1646   2.694   3.494   0.916
  404SOL    HW3 1647   2.760   3.542   0.788
  404SOL    MW4 1648   2.695   3.500   0.829
  405SOL     OW 1649   2.909   3.612   0.712
  405SOL    HW2 1650   2.921   3.705   0.732
  405SOL    HW3 1651   2.929   3.604   0.619
  405SOL    MW4 1652   2.913   3.623   0.702
  406SOL     OW 1653   2.921   3.878   0.805
  406SOL    HW2 1654   2.911   3.887   0.900
  406SOL    HW3 1655   2.851   3.931   0.768
  406SOL    MW4 1656   2.910   3.886   0.813
  407SOL     OW 1657   2.711   4.047   0.728
  407SOL    HW2 1658   2.627   4.008   0.754
  407SOL    HW3 1659   2.715   4.034   0.634
  407SOL    MW4 1660   2.700   4.040   0.719
  408SOL     OW 1661   2.647   4.287   0.799
  408SOL    HW2 1662   2.632   4.284   0.893
  408SOL    HW3 1663   2.671   4.198   0.775
  408SOL    MW4 1664   2.648   4.275   0.808
  409SOL     OW 1665   2.924   4.383   0.831
  409SOL    HW2 1666   2.993   4.318   0.843
  409SOL    HW3 1667   2.843   4.335   0.847
  409SOL    MW4 1668   2.922   4.368   0.834
  410SOL     OW 1669   3.373   4.654   0.843
  410SOL    HW2 1670   3.377   4.655   0.939
  410SOL    HW3 1671   3.291   4.698   0.822
  410SOL    MW4 1672   3.363   4.660   0.853
  411SOL     OW 1673   3.122   0.122   0.782
  411SOL    HW2 1674   3.139   0.207   0.823
  411SOL    HW3 1675   3.042   0.090   0.825
  411SOL    MW4 1676   3.114   0.129   0.793
  412SOL     OW 1677   3.162   0.376   0.882
  412SOL    HW2 1678   3.155   0.360   0.977
  412SOL    HW3 1679   3.249   0.413   0.870
  412SOL    MW4 1680   3.172   0.379   0.893
  413SOL     OW 1681   3.391   0.511   0.811
  413SOL    HW2 1682   3.459   0.447   0.829
  413SOL    HW3 1683   3.378   0.506   0.716
  413SOL    MW4 1684   3.399   0.502   0.801
  414SOL     OW 1685   3.377   0.765   0.919
  414SOL    HW2 1686   3.295   0.803   0.889
  414SOL    HW3 1687   3.379   0.678   0.878
  414SOL    MW4 1688   3.367   0.758   0.909
  415SOL     OW 1689   3.106   0.853   0.767
  415SOL    HW2 1690   3.108   0.947   0.784
  415SOL    HW3 1691   3.020   0.825   0.797
  415SOL    MW4 1692   3.095   0.862   0.773
  416SOL     OW 1693   3.126   1.121   0.854
  416SOL    HW2 1694   3.101   1.112   0.946
  416SOL    HW3 1695   3.202   1.178   0.856
  416SOL    MW4 1696   3.133   1.127   0.866
  417SOL     OW 1697   3.354   1.275   0.795
  417SOL    HW2 1698   3.437   1.237   0.822
  417SOL    HW3 1699   3.363   1.369   0.812
  417SOL    MW4 1700   3.366   1.282   0.801
  418SOL     OW 1701   3.358   1.543   0.868
  418SOL    HW2 1702   3.387   1.549   0.959
  418SOL    HW3 1703   3.436   1.563   0.816
  418SOL    MW4 1704   3.372   1.546   0.873
  419SOL     OW 1705   3.108   1.643   0.778
  419SOL    HW2 1706   3.186   1.599   0.811
  419SOL    HW3 1707   3.111   1.630   0.683
  419SOL    MW4 1708   3.118   1.636   0.769
  420SOL     OW 1709   3.272   1.863   0.847
  420SOL    HW2 1710   3.235   1.897   0.928
  420SOL    HW3 1711   3.215   1.790   0.823
  420SOL    MW4 1712   3.259   1.858   0.854
  421SOL     OW 1713   3.545   1.934   0.860
  421SOL    HW2 1714   3.535   2.029   0.861
  421SOL    HW3 1715   3.456   1.900   0.853
  421SOL    MW4 1716   3.532   1.942   0.859
  422SOL     OW 1717   3.512   2.210   0.872
  422SOL    HW2 1718   3.470   2.225   0.957
  422SOL    HW3 1719   3.584   2.273   0.869
  422SOL    MW4 1720   3.516   2.220   0.883
  423SOL     OW 1721   3.087   2.440   0.688
  423SOL    HW2 1722   3.152   2.373   0.710
  423SOL    HW3 1723   3.008   2.411   0.733
  423SOL    MW4 1724   3.085   2.427   0.697
  424SOL     OW 1725   3.149   2.684   0.835
  424SOL    HW2 1726   3.137   2.607   0.781
  424SOL    HW3 1727   3.184   2.750   0.775
  424SOL    MW4 1728   3.152   2.683   0.820
  425SOL     OW 1729   3.277   2.895   0.701
  425SOL    HW2 1730   3.231   2.908   0.618
  425SOL    HW3 1731   3.358   2.851   0.678
  425SOL    MW4 1732   3.281   2.891   0.687
  426SOL     OW 1733   3.409   3.107   0.838
  426SOL    HW2 1734   3.383   3.100   0.930
  426SOL    HW3 1735   3.358   3.039   0.794
  426SOL    MW4 1736   3.398   3.097   0.844
  427SOL     OW 1737   3.153   3.226   0.776
  427SOL    HW2 1738   3.239   3.195   0.806
  427SOL    HW3 1739   3.090   3.168   0.820
  427SOL    MW4 1740   3.156   3.214   0.786
  428SOL     OW 1741   3.134   3.511   0.834
  428SOL    HW2 1742   3.112   3.423   0.804
  428SOL    HW3 1743   3.066   3.567   0.797
  428SOL    MW4 1744   3.122   3.507   0.825
  429SOL     OW 1745   3.307   3.793   0.877
  429SOL    HW2 1746   3.336   3.833   0.959
  429SOL    HW3 1747   3.241   3.729   0.904
  429SOL    MW4 1748   3.302   3.790   0.891
  430SOL     OW 1749   3.571   3.961   0.930
  430SOL    HW2 1750   3.575   4.056   0.938
  430SOL    HW3 1751   3.534   3.931   1.013
  430SOL    MW4 1752   3.567   3.969   0.942
  431SOL     OW 1753   3.161   3.989   0.703
  431SOL    HW2 1754   3.223   3.920   0.727
  431SOL    HW3 1755   3.076   3.957   0.734
  431SOL    MW4 1756   3.158   3.976   0.710
  432SOL     OW 1757   3.146   4.196   0.871
  432SOL    HW2 1758   3.221   4.249   0.846
  432SOL    HW3 1759   3.157   4.114   0.824
  432SOL    MW4 1760   3.157   4.192   0.862
  433SOL     OW 1761   3.345   4.366   0.785
  433SOL    HW2 1762   3.353   4.461   0.785
  433SOL    HW3 1763   3.356   4.342   0.693
  433SOL    MW4 1764   3.347   4.376   0.773
  434SOL     OW 1765   3.846   4.608   0.894
  434SOL    HW2 1766   3.918   4.668   0.872
  434SOL    HW3 1767   3.767   4.655   0.869
  434SOL    MW4 1768   3.845   4.622   0.888
  435SOL     OW 1769   3.636   0.093   0.796
  435SOL    HW2 1770   3.546   0.060   0.801
  435SOL    HW3 1771   3.669   0.061   0.713
  435SOL    MW4 1772   3.628   0.084   0.786
  436SOL     OW 1773   3.583   0.352   0.889
  436SOL    HW2 1774   3.584   0.343   0.984
  436SOL    HW3 1775   3.591   0.263   0.856
  436SOL    MW4 1776   3.584   0.339   0.897
  437SOL     OW 1777   3.785   0.500   0.757
  437SOL    HW2 1778   3.783   0.587   0.797
  437SOL    HW3 1779   3.728   0.448   0.812
  437SOL    MW4 1780   3.777   0.505   0.769
  438SOL     OW 1781   3.815   0.744   0.860
  438SOL    HW2 1782   3.828   0.746   0.954
  438SOL    HW3 1783   3.891   0.791   0.824
  438SOL    MW4 1784   3.827   0.751   0.867
  439SOL     OW 1785   3.583   0.879   0.730
  439SOL    HW2 1786   3.665   0.837   0.756
  439SOL    HW3 1787   3.519   0.848   0.794
  439SOL    MW4 1788   3.585   0.870   0.742
  440SOL     OW 1789   3.604   1.150   0.828
  440SOL    HW2 1790   3.582   1.132   0.919
  440SOL    HW3 1791   3.632   1.065   0.793
  440SOL    MW4 1792   3.605   1.137   0.835
  441SOL     OW 1793   3.830   1.313   0.784
  441SOL    HW2 1794   3.756   1.253   0.778
  441SOL    HW3 1795   3.868   1.314   0.696
  441SOL    MW4 1796   3.825   1.305   0.772
  442SOL     OW 1797   3.838   1.589   0.852
  442SOL    HW2 1798   3.925   1.625   0.832
  442SOL    HW3 1799   3.840   1.501   0.814
  442SOL    MW4 1800   3.850   1.582   0.844
  443SOL     OW 1801   3.544   1.585   0.659
  443SOL    HW2 1802   3.490   1.601   0.582
  443SOL    HW3 1803   3.593   1.667   0.671
  443SOL    MW4 1804   3.543   1.598   0.651
  444SOL     OW 1805   3.726   1.803   0.691
  444SOL    HW2 1806   3.770   1.738   0.746
  444SOL    HW3 1807   3.676   1.856   0.753
  444SOL    MW4 1808   3.725   1.801   0.707
  445SOL     OW 1809   3.843   2.132   0.683
  445SOL    HW2 1810   3.813   2.201   0.742
  445SOL    HW3 1811   3.885   2.068   0.739
  445SOL    MW4 1812   3.844   2.133   0.698
  446SOL     OW 1813   3.716   2.123   0.440
  446SOL    HW2 1814   3.641   2.064   0.440
  446SOL    HW3 1815   3.743   2.127   0.531
  446SOL    MW4 1816   3.709   2.116   0.452
  447SOL     OW 1817   3.738   2.379   0.830
  447SOL    HW2 1818   3.697   2.464   0.813
  447SOL    HW3 1819   3.772   2.386   0.919
  447SOL    MW4 1820   3.737   2.392   0.839
  448SOL     OW 1821   3.662   2.665   0.842
  448SOL    HW2 1822   3.614   2.676   0.925
  448SOL    HW3 1823   3.721   2.739   0.838
  448SOL    MW4 1824   3.663   2.676   0.853
  449SOL     OW 1825   3.851   2.863   0.810
  449SOL    HW2 1826   3.884   2.945   0.847
  449SOL    HW3 1827   3.882   2.863   0.720
  449SOL    MW4 1828   3.859   2.874   0.803
  450SOL     OW 1829   3.876   3.123   0.893
  450SOL    HW2 1830   3.942   3.157   0.833
  450SOL    HW3 1831   3.793   3.148   0.854
  450SOL    MW4 1832   3.874   3.131   0.880
  451SOL     OW 1833   3.651   3.194   0.744
  451SOL    HW2 1834   3.570   3.157   0.778
  451SOL    HW3 1835   3.628   3.229   0.658
  451SOL    MW4 1836   3.638   3.194   0.737
  452SOL     OW 1837   3.565   3.502   0.833
  452SOL    HW2 1838   3.591   3.417   0.798
  452SOL    HW3 1839   3.481   3.521   0.790
  452SOL    MW4 1840   3.557   3.493   0.823
  453SOL     OW 1841   3.799   3.604   0.719
  453SOL    HW2 1842   3.875   3.551   0.744
  453SOL    HW3 1843   3.724   3.559   0.758
  453SOL    MW4 1844   3.799   3.591   0.727
  454SOL     OW 1845   3.815   3.829   0.879
  454SOL    HW2 1846   3.726   3.864   0.883
  454SOL    HW3 1847   3.809   3.753   0.820
  454SOL    MW4 1848   3.803   3.823   0.871
  455SOL     OW 1849   3.353   3.794   0.534
  455SOL    HW2 1850   3.394   3.863   0.586
  455SOL    HW3 1851   3.357   3.716   0.590
  455SOL    MW4 1852   3.359   3.793   0.548
  456SOL     OW 1853   3.564   4.240   0.907
  456SOL    HW2 1854   3.638   4.275   0.858
  456SOL    HW3 1855   3.488   4.289   0.875
  456SOL    MW4 1856   3.564   4.251   0.897
  457SOL     OW 1857   3.813   4.309   0.772
  457SOL    HW2 1858   3.887   4.264   0.812
  457SOL    HW3 1859   3.821   4.400   0.802
  457SOL    MW4 1860   3.824   4.315   0.781
  458SOL     OW 1861   4.255   4.656   0.836
  458SOL    HW2 1862   4.246   4.662   0.931
  458SOL    HW3 1863   4.181   4.706   0.801
  458SOL    MW4 1864   4.244   4.663   0.844
  459SOL     OW 1865   4.029   0.096   0.741
  459SOL    HW2 1866   4.029   0.189   0.766
  459SOL    HW3 1867   4.013   0.097   0.646
  459SOL    MW4 1868   4.027   0.109   0.731
  460SOL     OW 1869   4.027   0.351   0.841
  460SOL    HW2 1870   4.093   0.415   0.818
  460SOL    HW3 1871   3.945   0.388   0.810
  460SOL    MW4 1872   4.025   0.364   0.834
  461SOL     OW 1873   4.251   0.493   0.758
  461SOL    HW2 1874   4.341   0.458   0.762
  461SOL    HW3 1875   4.236   0.507   0.664
  461SOL    MW4 1876   4.261   0.490   0.746
  462SOL     OW 1877   4.253   0.756   0.879
  462SOL    HW2 1878   4.175   0.812   0.867
  462SOL    HW3 1879   4.225   0.670   0.849
  462SOL    MW4 1880   4.239   0.752   0.873
  463SOL     OW 1881   4.027   0.899   0.775
  463SOL    HW2 1882   4.011   0.986   0.810
  463SOL    HW3 1883   4.054   0.913   0.684
  463SOL    MW4 1884   4.029   0.912   0.768
  464SOL     OW 1885   4.053   1.177   0.908
  464SOL    HW2 1886   4.020   1.171   0.998
  464SOL    HW3 1887   3.990   1.232   0.862
  464SOL    MW4 1888   4.040   1.183   0.914
  465SOL     OW 1889   4.282   1.227   0.715
  465SOL    HW2 1890   4.210   1.211   0.776
  465SOL    HW3 1891   4.355   1.176   0.750
  465SOL    MW4 1892   4.282   1.218   0.728
  466SOL     OW 1893   4.308   1.513   0.879
  466SOL    HW2 1894   4.286   1.510   0.972
  466SOL    HW3 1895   4.310   1.421   0.852
  466SOL    MW4 1896   4.305   1.500   0.888
  467SOL     OW 1897   4.091   1.687   0.785
  467SOL    HW2 1898   4.168   1.645   0.823
  467SOL    HW3 1899   4.095   1.665   0.692
  467SOL    MW4 1900   4.101   1.679   0.778
  468SOL     OW 1901   3.988   1.992   0.842
  468SOL    HW2 1902   4.031   1.925   0.788
  468SOL    HW3 1903   4.055   2.060   0.853
  468SOL    MW4 1904   4.003   1.992   0.836
  469SOL     OW 1905   4.256   2.072   0.757
  469SOL    HW2 1906   4.323   2.014   0.792
  469SOL    HW3 1907   4.293   2.106   0.675
  469SOL    MW4 1908   4.270   2.069   0.751
  470SOL     OW 1909   4.257   2.344   0.836
  470SOL    HW2 1910   4.176   2.388   0.811
  470SOL    HW3 1911   4.246   2.254   0.806
  470SOL    MW4 1912   4.245   2.338   0.829
  471SOL     OW 1913   4.019   2.473   0.712
  471SOL    HW2 1914   4.030   2.555   0.761
  471SOL    HW3 1915   3.934   2.439   0.741
  471SOL    MW4 1916   4.009   2.479   0.722
  472SOL     OW 1917   4.061   2.694   0.904
  472SOL    HW2 1918   4.128   2.753   0.869
  472SOL    HW3 1919   3.979   2.740   0.888
  472SOL    MW4 1920   4.059   2.708   0.898
  473SOL     OW 1921   4.243   2.871   0.772
  473SOL    HW2 1922   4.317   2.813   0.790
  473SOL    HW3 1923   4.227   2.860   0.678
  473SOL    MW4 1924   4.251   2.862   0.762
  474SOL     OW 1925   4.250   3.111   0.867
  474SOL    HW2 1926   4.254   3.024   0.827
  474SOL    HW3 1927   4.338   3.147   0.855
  474SOL    MW4 1928   4.262   3.104   0.860
  475SOL     OW 1929   4.052   3.224   0.709
  475SOL    HW2 1930   4.050   3.302   0.765
  475SOL    HW3 1931   4.116   3.167   0.751
  475SOL    MW4 1932   4.060   3.227   0.722
  476SOL     OW 1933   4.048   3.477   0.818
  476SOL    HW2 1934   4.038   3.489   0.913
  476SOL    HW3 1935   4.123   3.530   0.794
  476SOL    MW4 1936   4.056   3.485   0.827
  477SOL     OW 1937   4.279   3.594   0.778
  477SOL    HW2 1938   4.295   3.682   0.811
  477SOL    HW3 1939   4.335   3.587   0.700
  477SOL    MW4 1940   4.289   3.605   0.772
  478SOL     OW 1941   4.340   3.860   0.870
  478SOL    HW2 1942   4.349   3.880   0.964
  478SOL    HW3 1943   4.250   3.887   0.849
  478SOL    MW4 1944   4.329   3.866   0.880
  479SOL     OW 1945   4.079   3.951   0.794
  479SOL    HW2 1946   3.992   3.912   0.798
  479SOL    HW3 1947   4.096   3.961   0.700
  479SOL    MW4 1948   4.070   3.947   0.782
  480SOL     OW 1949   4.049   4.216   0.918
  480SOL    HW2 1950   4.111   4.274   0.874
  480SOL    HW3 1951   4.066   4.130   0.880
  480SOL    MW4 1952   4.060   4.212   0.907
  481SOL     OW 1953   4.241   4.382   0.782
  481SOL    HW2 1954   4.224   4.474   0.800
  481SOL    HW3 1955   4.323   4.363   0.828
  481SOL    MW4 1956   4.250   4.391   0.791
  482SOL     OW 1957   0.215   0.009   1.134
  482SOL    HW2 1958   0.283   0.052   1.186
  482SOL    HW3 1959   0.250   0.010   1.045
  482SOL    MW4 1960   0.229   0.015   1.129
  483SOL     OW 1961   4.468   0.131   1.228
  483SOL    HW2 1962   4.385   0.095   1.195
  483SOL    HW3 1963   4.536   0.076   1.189
  483SOL    MW4 1964   4.466   0.119   1.218
  484SOL     OW 1965   4.476   0.399   1.134
  484SOL    HW2 1966   4.399   0.443   1.170
  484SOL    HW3 1967   4.464   0.307   1.157
  484SOL    MW4 1968   4.464   0.393   1.142
  485SOL     OW 1969   0.229   0.492   1.234
  485SOL    HW2 1970   0.230   0.584   1.209
  485SOL    HW3 1971   0.144   0.459   1.204
  485SOL    MW4 1972   0.218   0.500   1.227
  486SOL     OW 1973   0.203   0.745   1.123
  486SOL    HW2 1974   0.283   0.792   1.146
  486SOL    HW3 1975   0.133   0.802   1.154
  486SOL    MW4 1976   0.204   0.759   1.130
  487SOL     OW 1977   0.004   0.914   1.226
  487SOL    HW2 1978   0.022   0.910   1.320
  487SOL    HW3 1979  -0.077   0.863   1.215
  487SOL    MW4 1980  -0.005   0.906   1.237
  488SOL     OW 1981   0.019   1.152   1.109
  488SOL    HW2 1982  -0.036   1.199   1.172
  488SOL    HW3 1983   0.017   1.061   1.138
  488SOL    MW4 1984   0.012   1.146   1.121
  489SOL     OW 1985   0.247   1.267   1.227
  489SOL    HW2 1986   0.330   1.228   1.199
  489SOL    HW3 1987   0.180   1.212   1.187
  489SOL    MW4 1988   0.249   1.255   1.218
  490SOL     OW 1989   0.210   1.516   1.135
  490SOL    HW2 1990   0.218   1.425   1.163
  490SOL    HW3 1991   0.218   1.512   1.039
  490SOL    MW4 1992   0.212   1.504   1.126
  491SOL     OW 1993   4.473   1.648   1.277
  491SOL    HW2 1994   4.465   1.732   1.233
  491SOL    HW3 1995   4.547   1.605   1.233
  491SOL    MW4 1996   4.482   1.653   1.265
  492SOL     OW 1997   4.461   1.884   1.141
  492SOL    HW2 1998   4.388   1.941   1.166
  492SOL    HW3 1999   4.464   1.890   1.046
  492SOL    MW4 2000   4.452   1.893   1.132
  493SOL     OW 2001   0.221   1.989   1.209
  493SOL    HW2 2002   0.216   2.084   1.194
  493SOL    HW3 2003   0.136   1.956   1.183
  493SOL    MW4 2004   0.209   1.997   1.204
  494SOL     OW 2005   0.236   2.279   1.116
  494SOL    HW2 2006   0.309   2.323   1.159
  494SOL    HW3 2007   0.159   2.332   1.141
  494SOL    MW4 2008   0.235   2.292   1.125
  495SOL     OW 2009   4.471   2.411   1.178
  495SOL    HW2 2010   4.482   2.402   1.273
  495SOL    HW3 2011   4.388   2.367   1.160
  495SOL    MW4 2012   4.462   2.404   1.188
  496SOL     OW 2013   0.018   2.688   1.130
  496SOL    HW2 2014  -0.050   2.730   1.183
  496SOL    HW3 2015   0.021   2.598   1.164
  496SOL    MW4 2016   0.009   2.681   1.142
  497SOL     OW 2017   0.235   2.835   1.219
  497SOL    HW2 2018   0.223   2.845   1.314
  497SOL    HW3 2019   0.155   2.792   1.189
  497SOL    MW4 2020   0.223   2.831   1.228
  498SOL     OW 2021   0.230   3.084   1.088
  498SOL    HW2 2022   0.312   3.130   1.109
  498SOL    HW3 2023   0.239   2.999   1.131
  498SOL    MW4 2024   0.242   3.079   1.097
  499SOL     OW 2025   0.016   3.197   1.235
  499SOL    HW2 2026  -0.060   3.143   1.215
  499SOL    HW3 2027   0.089   3.154   1.190
  499SOL    MW4 2028   0.016   3.184   1.227
  500SOL     OW 2029   0.030   3.468   1.182
  500SOL    HW2 2030   0.004   3.380   1.211
  500SOL    HW3 2031   0.035   3.462   1.087
  500SOL    MW4 2032   0.028   3.456   1.174
  501SOL     OW 2033   0.237   3.631   1.297
  501SOL    HW2 2034   0.229   3.623   1.393
  501SOL    HW3 2035   0.180   3.561   1.263
  501SOL    MW4 2036   0.228   3.620   1.305
  502SOL     OW 2037   0.239   3.898   1.190
  502SOL    HW2 2038   0.157   3.932   1.226
  502SOL    HW3 2039   0.257   3.820   1.243
  502SOL    MW4 2040   0.230   3.892   1.202
  503SOL     OW 2041   0.025   4.061   1.298
  503SOL    HW2 2042   0.019   4.051   1.393
  503SOL    HW3 2043  -0.050   4.012   1.264
  503SOL    MW4 2044   0.014   4.053   1.306
  504SOL     OW 2045   0.020   4.296   1.159
  504SOL    HW2 2046   0.101   4.345   1.166
  504SOL    HW3 2047   0.026   4.228   1.226
  504SOL    MW4 2048   0.031   4.294   1.168
  505SOL     OW 2049   0.267   4.412   1.202
  505SOL    HW2 2050   0.268   4.409   1.298
  505SOL    HW3 2051   0.234   4.500   1.181
  505SOL    MW4 2052   0.263   4.423   1.212
  506SOL     OW 2053   0.648   4.650   1.160
  506SOL    HW2 2054   0.733   4.690   1.180
  506SOL    HW3 2055   0.655   4.560   1.193
  506SOL    MW4 2056   0.660   4.643   1.167
  507SOL     OW 2057   0.429   0.100   1.282
  507SOL    HW2 2058   0.433   0.193   1.260
  507SOL    HW3 2059   0.512   0.064   1.252
  507SOL    MW4 2060   0.440   0.107   1.275
  508SOL     OW 2061   0.469   0.374   1.185
  508SOL    HW2 2062   0.386   0.418   1.206
  508SOL    HW3 2063   0.471   0.372   1.089
  508SOL    MW4 2064   0.458   0.380   1.175
  509SOL     OW 2065   0.711   0.472   1.261
  509SOL    HW2 2066   0.694   0.565   1.247
  509SOL    HW3 2067   0.628   0.429   1.243
  509SOL    MW4 2068   0.698   0.479   1.257
  510SOL     OW 2069   0.693   0.741   1.193
  510SOL    HW2 2070   0.609   0.782   1.214
  510SOL    HW3 2071   0.700   0.748   1.098
  510SOL    MW4 2072   0.683   0.747   1.183
  511SOL     OW 2073   0.445   0.886   1.207
  511SOL    HW2 2074   0.437   0.878   1.302
  511SOL    HW3 2075   0.461   0.979   1.192
  511SOL    MW4 2076   0.446   0.897   1.217
  512SOL     OW 2077   0.482   1.150   1.138
  512SOL    HW2 2078   0.562   1.190   1.173
  512SOL    HW3 2079   0.494   1.151   1.043
  512SOL    MW4 2080   0.495   1.155   1.130
  513SOL     OW 2081   0.720   1.278   1.208
  513SOL    HW2 2082   0.810   1.249   1.195
  513SOL    HW3 2083   0.719   1.369   1.177
  513SOL    MW4 2084   0.732   1.286   1.202
  514SOL     OW 2085   0.703   1.540   1.112
  514SOL    HW2 2086   0.771   1.601   1.139
  514SOL    HW3 2087   0.622   1.579   1.145
  514SOL    MW4 2088   0.701   1.553   1.120
  515SOL     OW 2089   0.462   1.631   1.209
  515SOL    HW2 2090   0.460   1.627   1.304
  515SOL    HW3 2091   0.374   1.604   1.182
  515SOL    MW4 2092   0.450   1.627   1.218
  516SOL     OW 2093   0.461   1.896   1.142
  516SOL    HW2 2094   0.448   1.804   1.167
  516SOL    HW3 2095   0.377   1.938   1.162
  516SOL    MW4 2096   0.448   1.889   1.148
  517SOL     OW 2097   0.697   2.021   1.241
  517SOL    HW2 2098   0.673   2.035   1.333
  517SOL    HW3 2099   0.627   1.964   1.207
  517SOL    MW4 2100   0.684   2.015   1.249
  518SOL     OW 2101   0.675   2.277   1.118
  518SOL    HW2 2102   0.613   2.321   1.175
  518SOL    HW3 2103   0.686   2.190   1.156
  518SOL    MW4 2104   0.668   2.271   1.130
  519SOL     OW 2105   0.473   2.420   1.224
  519SOL    HW2 2106   0.485   2.428   1.319
  519SOL    HW3 2107   0.467   2.510   1.193
  519SOL    MW4 2108   0.474   2.433   1.232
  520SOL     OW 2109   0.460   2.689   1.157
  520SOL    HW2 2110   0.382   2.735   1.189
  520SOL    HW3 2111   0.450   2.689   1.061
  520SOL    MW4 2112   0.448   2.695   1.148
  521SOL     OW 2113   0.676   2.851   1.233
  521SOL    HW2 2114   0.682   2.934   1.185
  521SOL    HW3 2115   0.594   2.812   1.203
  521SOL    MW4 2116   0.666   2.857   1.223
  522SOL     OW 2117   0.686   3.098   1.096
  522SOL    HW2 2118   0.767   3.134   1.134
  522SOL    HW3 2119   0.705   3.092   1.003
  522SOL    MW4 2120   0.699   3.102   1.089
  523SOL     OW 2121   0.445   3.227   1.181
  523SOL    HW2 2122   0.466   3.319   1.162
  523SOL    HW3 2123   0.526   3.180   1.160
  523SOL    MW4 2124   0.459   3.233   1.175
  524SOL     OW 2125   0.441   3.522   1.138
  524SOL    HW2 2126   0.529   3.540   1.171
  524SOL    HW3 2127   0.384   3.577   1.192
  524SOL    MW4 2128   0.445   3.532   1.149
  525SOL     OW 2129   0.696   3.581   1.200
  525SOL    HW2 2130   0.691   3.594   1.295
  525SOL    HW3 2131   0.709   3.669   1.165
  525SOL    MW4 2132   0.697   3.594   1.208
  526SOL     OW 2133   0.699   3.835   1.121
  526SOL    HW2 2134   0.624   3.890   1.145
  526SOL    HW3 2135   0.707   3.846   1.026
  526SOL    MW4 2136   0.690   3.844   1.112
  527SOL     OW 2137   0.498   3.996   1.237
  527SOL    HW2 2138   0.492   4.085   1.205
  527SOL    HW3 2139   0.410   3.959   1.224
  527SOL    MW4 2140   0.485   4.003   1.231
  528SOL     OW 2141   0.478   4.266   1.118
  528SOL    HW2 2142   0.552   4.319   1.147
  528SOL    HW3 2143   0.402   4.310   1.155
  528SOL    MW4 2144   0.478   4.279   1.127
  529SOL     OW 2145   0.708   4.399   1.226
  529SOL    HW2 2146   0.698   4.386   1.320
  529SOL    HW3 2147   0.785   4.347   1.203
  529SOL    MW4 2148   0.717   4.390   1.236
  530SOL     OW 2149   1.135   4.612   1.135
  530SOL    HW2 2150   1.152   4.520   1.156
  530SOL    HW3 2151   1.115   4.612   1.041
  530SOL    MW4 2152   1.134   4.599   1.125
  531SOL     OW 2153   0.898   0.069   1.251
  531SOL    HW2 2154   0.904   0.068   1.347
  531SOL    HW3 2155   0.966   0.007   1.222
  531SOL    MW4 2156   0.908   0.060   1.260
  532SOL     OW 2157   0.905   0.316   1.145
  532SOL    HW2 2158   0.904   0.231   1.190
  532SOL    HW3 2159   0.844   0.370   1.195
  532SOL    MW4 2160   0.897   0.312   1.158
  533SOL     OW 2161   1.143   0.479   1.192
  533SOL    HW2 2162   1.151   0.488   1.287
  533SOL    HW3 2163   1.059   0.433   1.180
  533SOL    MW4 2164   1.133   0.474   1.203
  534SOL     OW 2165   1.182   0.742   1.122
  534SOL    HW2 2166   1.111   0.786   1.168
  534SOL    HW3 2167   1.166   0.649   1.137
  534SOL    MW4 2168   1.171   0.735   1.130
  535SOL     OW 2169   0.949   0.863   1.252
  535SOL    HW2 2170   0.952   0.953   1.218
  535SOL    HW3 2171   0.861   0.832   1.229
  535SOL    MW4 2172   0.938   0.871   1.245
  536SOL     OW 2173   0.939   1.114   1.117
  536SOL    HW2 2174   1.024   1.156   1.133
  536SOL    HW3 2175   0.919   1.134   1.026
  536SOL    MW4 2176   0.948   1.122   1.107
  537SOL     OW 2177   1.145   1.279   1.214
  537SOL    HW2 2178   1.154   1.279   1.309
  537SOL    HW3 2179   1.213   1.219   1.183
  537SOL    MW4 2180   1.155   1.271   1.222
  538SOL     OW 2181   1.136   1.529   1.100
  538SOL    HW2 2182   1.146   1.438   1.131
  538SOL    HW3 2183   1.132   1.521   1.005
  538SOL    MW4 2184   1.137   1.516   1.091
  539SOL     OW 2185   0.922   1.638   1.236
  539SOL    HW2 2186   0.930   1.731   1.218
  539SOL    HW3 2187   0.987   1.596   1.180
  539SOL    MW4 2188   0.932   1.645   1.226
  540SOL     OW 2189   0.937   1.895   1.141
  540SOL    HW2 2190   1.013   1.935   1.183
  540SOL    HW3 2191   0.862   1.946   1.174
  540SOL    MW4 2192   0.937   1.907   1.151
  541SOL     OW 2193   1.141   2.042   1.229
  541SOL    HW2 2194   1.135   2.062   1.322
  541SOL    HW3 2195   1.120   2.124   1.185
  541SOL    MW4 2196   1.138   2.056   1.235
  542SOL     OW 2197   1.113   2.307   1.127
  542SOL    HW2 2198   1.190   2.360   1.147
  542SOL    HW3 2199   1.038   2.361   1.153
  542SOL    MW4 2200   1.113   2.321   1.133
  543SOL     OW 2201   0.889   2.434   1.207
  543SOL    HW2 2202   0.884   2.425   1.302
  543SOL    HW3 2203   0.819   2.379   1.174
  543SOL    MW4 2204   0.879   2.425   1.215
  544SOL     OW 2205   0.889   2.704   1.152
  544SOL    HW2 2206   0.879   2.610   1.171
  544SOL    HW3 2207   0.804   2.742   1.177
  544SOL    MW4 2208   0.876   2.696   1.158
  545SOL     OW 2209   1.126   2.823   1.212
  545SOL    HW2 2210   1.121   2.837   1.306
  545SOL    HW3 2211   1.042   2.784   1.188
  545SOL    MW4 2212   1.114   2.820   1.221
  546SOL     OW 2213   1.105   3.098   1.123
  546SOL    HW2 2214   1.101   3.005   1.147
  546SOL    HW3 2215   1.121   3.097   1.029
  546SOL    MW4 2216   1.107   3.085   1.114
  547SOL     OW 2217   0.885   3.235   1.229
  547SOL    HW2 2218   0.886   3.312   1.172
  547SOL    HW3 2219   0.962   3.185   1.201
  547SOL    MW4 2220   0.896   3.239   1.217
  548SOL     OW 2221   0.928   3.462   1.081
  548SOL    HW2 2222   0.846   3.502   1.110
  548SOL    HW3 2223   0.934   3.484   0.988
  548SOL    MW4 2224   0.918   3.470   1.072
  549SOL     OW 2225   1.121   3.578   1.259
  549SOL    HW2 2226   1.205   3.542   1.229
  549SOL    HW3 2227   1.055   3.529   1.211
  549SOL    MW4 2228   1.124   3.567   1.249
  550SOL     OW 2229   1.125   3.801   1.101
  550SOL    HW2 2230   1.061   3.857   1.145
  550SOL    HW3 2231   1.127   3.721   1.154
  550SOL    MW4 2232   1.117   3.797   1.114
  551SOL     OW 2233   0.947   3.957   1.230
  551SOL    HW2 2234   0.960   3.957   1.325
  551SOL    HW3 2235   0.861   3.916   1.218
  551SOL    MW4 2236   0.937   3.952   1.241
  552SOL     OW 2237   0.945   4.223   1.125
  552SOL    HW2 2238   0.957   4.138   1.168
  552SOL    HW3 2239   0.924   4.202   1.034
  552SOL    MW4 2240   0.944   4.209   1.119
  553SOL     OW 2241   1.156   4.349   1.218
  553SOL    HW2 2242   1.136   4.358   1.311
  553SOL    HW3 2243   1.078   4.310   1.180
  553SOL    MW4 2244   1.143   4.345   1.225
  554SOL     OW 2245   1.561   4.607   1.068
  554SOL    HW2 2246   1.629   4.653   1.116
  554SOL    HW3 2247   1.549   4.525   1.116
  554SOL    MW4 2248   1.568   4.602   1.080
  555SOL     OW 2249   1.358   0.069   1.231
  555SOL    HW2 2250   1.429   0.025   1.185
  555SOL    HW3 2251   1.278   0.026   1.199
  555SOL    MW4 2252   1.357   0.058   1.221
  556SOL     OW 2253   1.397   0.348   1.171
  556SOL    HW2 2254   1.387   0.261   1.208
  556SOL    HW3 2255   1.315   0.393   1.191
  556SOL    MW4 2256   1.385   0.343   1.179
  557SOL     OW 2257   1.583   0.520   1.265
  557SOL    HW2 2258   1.590   0.604   1.220
  557SOL    HW3 2259   1.517   0.472   1.216
  557SOL    MW4 2260   1.575   0.525   1.253
  558SOL     OW 2261   1.606   0.753   1.126
  558SOL    HW2 2262   1.674   0.815   1.154
  558SOL    HW3 2263   1.620   0.744   1.032
  558SOL    MW4 2264   1.617   0.760   1.117
  559SOL     OW 2265   1.381   0.901   1.214
  559SOL    HW2 2266   1.467   0.871   1.183
  559SOL    HW3 2267   1.320   0.835   1.180
  559SOL    MW4 2268   1.385   0.888   1.205
  560SOL     OW 2269   1.375   1.172   1.115
  560SOL    HW2 2270   1.389   1.082   1.145
  560SOL    HW3 2271   1.380   1.167   1.020
  560SOL    MW4 2272   1.378   1.160   1.107
  561SOL     OW 2273   1.603   1.337   1.184
  561SOL    HW2 2274   1.674   1.273   1.179
  561SOL    HW3 2275   1.525   1.289   1.160
  561SOL    MW4 2276   1.602   1.322   1.180
  562SOL     OW 2277   1.601   1.610   1.116
  562SOL    HW2 2278   1.669   1.643   1.174
  562SOL    HW3 2279   1.598   1.516   1.133
  562SOL    MW4 2280   1.610   1.602   1.126
  563SOL     OW 2281   1.354   1.662   1.249
  563SOL    HW2 2282   1.428   1.636   1.194
  563SOL    HW3 2283   1.277   1.623   1.206
  563SOL    MW4 2284   1.353   1.654   1.236
  564SOL     OW 2285   1.373   1.924   1.119
  564SOL    HW2 2286   1.370   1.840   1.166
  564SOL    HW3 2287   1.297   1.972   1.151
  564SOL    MW4 2288   1.362   1.919   1.130
  565SOL     OW 2289   1.595   2.063   1.212
  565SOL    HW2 2290   1.596   2.153   1.180
  565SOL    HW3 2291   1.511   2.028   1.184
  565SOL    MW4 2292   1.584   2.070   1.204
  566SOL     OW 2293   1.581   2.309   1.114
  566SOL    HW2 2294   1.500   2.355   1.135
  566SOL    HW3 2295   1.584   2.308   1.018
  566SOL    MW4 2296   1.571   2.315   1.104
  567SOL     OW 2297   1.358   2.433   1.219
  567SOL    HW2 2298   1.349   2.428   1.315
  567SOL    HW3 2299   1.343   2.526   1.199
  567SOL    MW4 2300   1.355   2.445   1.229
  568SOL     OW 2301   1.364   2.694   1.130
  568SOL    HW2 2302   1.435   2.754   1.148
  568SOL    HW3 2303   1.285   2.742   1.153
  568SOL    MW4 2304   1.363   2.708   1.135
  569SOL     OW 2305   1.591   2.837   1.182
  569SOL    HW2 2306   1.677   2.795   1.173
  569SOL    HW3 2307   1.597   2.915   1.127
  569SOL    MW4 2308   1.603   2.842   1.173
  570SOL     OW 2309   1.582   3.097   1.068
  570SOL    HW2 2310   1.659   3.133   1.111
  570SOL    HW3 2311   1.507   3.137   1.113
  570SOL    MW4 2312   1.582   3.107   1.080
  571SOL     OW 2313   1.360   3.201   1.210
  571SOL    HW2 2314   1.363   3.207   1.306
  571SOL    HW3 2315   1.275   3.160   1.191
  571SOL    MW4 2316   1.349   3.196   1.220
  572SOL     OW 2317   1.346   3.477   1.175
  572SOL    HW2 2318   1.352   3.384   1.199
  572SOL    HW3 2319   1.346   3.477   1.080
  572SOL    MW4 2320   1.347   3.465   1.166
  573SOL     OW 2321   1.573   3.595   1.232
  573SOL    HW2 2322   1.553   3.685   1.203
  573SOL    HW3 2323   1.493   3.546   1.213
  573SOL    MW4 2324   1.560   3.601   1.226
  574SOL     OW 2325   1.555   3.855   1.138
  574SOL    HW2 2326   1.475   3.891   1.175
  574SOL    HW3 2327   1.558   3.890   1.049
  574SOL    MW4 2328   1.545   3.865   1.131
  575SOL     OW 2329   1.325   3.960   1.224
  575SOL    HW2 2330   1.350   4.031   1.166
  575SOL    HW3 2331   1.256   3.914   1.178
  575SOL    MW4 2332   1.319   3.963   1.211
  576SOL     OW 2333   1.363   4.198   1.089
  576SOL    HW2 2334   1.293   4.230   1.147
  576SOL    HW3 2335   1.332   4.218   1.001
  576SOL    MW4 2336   1.349   4.205   1.085
  577SOL     OW 2337   1.553   4.367   1.210
  577SOL    HW2 2338   1.539   4.368   1.305
  577SOL    HW3 2339   1.480   4.315   1.176
  577SOL    MW4 2340   1.541   4.360   1.218
  578SOL     OW 2341   2.007   0.031   1.147
  578SOL    HW2 2342   2.009  -0.065   1.148
  578SOL    HW3 2343   1.986   0.054   1.057
  578SOL    MW4 2344   2.005   0.022   1.135
  579SOL     OW 2345   1.739   0.100   1.219
  579SOL    HW2 2346   1.752   0.192   1.194
  579SOL    HW3 2347   1.824   0.058   1.205
  579SOL    MW4 2348   1.752   0.107   1.214
  580SOL     OW 2349   1.787   0.379   1.145
  580SOL    HW2 2350   1.713   0.432   1.175
  580SOL    HW3 2351   1.785   0.388   1.049
  580SOL    MW4 2352   1.777   0.387   1.136
  581SOL     OW 2353   2.017   0.524   1.207
  581SOL    HW2 2354   2.024   0.523   1.303
  581SOL    HW3 2355   1.937   0.475   1.189
  581SOL    MW4 2356   2.007   0.518   1.218
  582SOL     OW 2357   2.067   0.786   1.099
  582SOL    HW2 2358   2.066   0.698   1.136
  582SOL    HW3 2359   2.059   0.773   1.005
  582SOL    MW4 2360   2.066   0.772   1.092
  583SOL     OW 2361   1.803   0.905   1.203
  583SOL    HW2 2362   1.802   0.893   1.298
  583SOL    HW3 2363   1.883   0.861   1.174
  583SOL    MW4 2364   1.813   0.898   1.212
  584SOL     OW 2365   1.788   1.161   1.110
  584SOL    HW2 2366   1.783   1.075   1.151
  584SOL    HW3 2367   1.798   1.143   1.017
  584SOL    MW4 2368   1.789   1.147   1.103
  585SOL     OW 2369   2.008   1.298   1.227
  585SOL    HW2 2370   2.088   1.258   1.191
  585SOL    HW3 2371   1.937   1.254   1.181
  585SOL    MW4 2372   2.009   1.287   1.216
  586SOL     OW 2373   2.002   1.559   1.121
  586SOL    HW2 2374   2.001   1.470   1.156
  586SOL    HW3 2375   1.985   1.547   1.027
  586SOL    MW4 2376   2.000   1.546   1.113
  587SOL     OW 2377   1.806   1.695   1.272
  587SOL    HW2 2378   1.800   1.775   1.220
  587SOL    HW3 2379   1.872   1.642   1.227
  587SOL    MW4 2380   1.814   1.699   1.259
  588SOL     OW 2381   1.781   1.903   1.097
  588SOL    HW2 2382   1.716   1.960   1.138
  588SOL    HW3 2383   1.763   1.908   1.004
  588SOL    MW4 2384   1.770   1.911   1.090
  589SOL     OW 2385   2.031   2.024   1.188
  589SOL    HW2 2386   2.005   2.034   1.279
  589SOL    HW3 2387   1.956   1.979   1.147
  589SOL    MW4 2388   2.018   2.019   1.194
  590SOL     OW 2389   2.067   2.256   1.054
  590SOL    HW2 2390   2.135   2.308   1.096
  590SOL    HW3 2391   2.060   2.177   1.107
  590SOL    MW4 2392   2.075   2.252   1.066
  591SOL     OW 2393   1.838   2.392   1.187
  591SOL    HW2 2394   1.912   2.355   1.138
  591SOL    HW3 2395   1.761   2.350   1.150
  591SOL    MW4 2396   1.838   2.381   1.176
  592SOL     OW 2397   1.848   2.708   1.135
  592SOL    HW2 2398   1.839   2.618   1.168
  592SOL    HW3 2399   1.832   2.700   1.041
  592SOL    MW4 2400   1.844   2.695   1.127
  593SOL     OW 2401   2.065   2.851   1.249
  593SOL    HW2 2402   2.056   2.934   1.204
  593SOL    HW3 2403   1.996   2.796   1.213
  593SOL    MW4 2404   2.055   2.854   1.239
  594SOL     OW 2405   2.054   3.086   1.105
  594SOL    HW2 2406   1.964   3.113   1.125
  594SOL    HW3 2407   2.052   3.064   1.012
  594SOL    MW4 2408   2.042   3.087   1.095
  595SOL     OW 2409   1.812   3.197   1.176
  595SOL    HW2 2410   1.815   3.207   1.271
  595SOL    HW3 2411   1.815   3.286   1.142
  595SOL    MW4 2412   1.813   3.210   1.184
  596SOL     OW 2413   1.796   3.462   1.102
  596SOL    HW2 2414   1.872   3.511   1.133
  596SOL    HW3 2415   1.721   3.508   1.141
  596SOL    MW4 2416   1.796   3.475   1.111
  597SOL     OW 2417   2.021   3.602   1.191
  597SOL    HW2 2418   2.027   3.593   1.286
  597SOL    HW3 2419   2.097   3.556   1.156
  597SOL    MW4 2420   2.032   3.595   1.199
  598SOL     OW 2421   2.028   3.858   1.104
  598SOL    HW2 2422   1.952   3.910   1.131
  598SOL    HW3 2423   2.015   3.773   1.144
  598SOL    MW4 2424   2.016   3.854   1.113
  599SOL     OW 2425   1.802   3.975   1.178
  599SOL    HW2 2426   1.800   3.974   1.274
  599SOL    HW3 2427   1.723   3.928   1.152
  599SOL    MW4 2428   1.791   3.969   1.187
  600SOL     OW 2429   1.790   4.261   1.113
  600SOL    HW2 2430   1.813   4.169   1.129
  600SOL    HW3 2431   1.701   4.270   1.146
  600SOL    MW4 2432   1.781   4.250   1.120
  601SOL     OW 2433   1.992   4.437   1.193
  601SOL    HW2 2434   2.011   4.417   1.284
  601SOL    HW3 2435   1.917   4.381   1.172
  601SOL    MW4 2436   1.984   4.427   1.202
  602SOL     OW 2437   2.447   0.004   1.097
  602SOL    HW2 2438   2.532   0.023   1.138
  602SOL    HW3 2439   2.383   0.047   1.153
  602SOL    MW4 2440   2.450   0.012   1.110
  603SOL     OW 2441   2.232   0.153   1.220
  603SOL    HW2 2442   2.221   0.233   1.169
  603SOL    HW3 2443   2.158   0.098   1.195
  603SOL    MW4 2444   2.221   0.157   1.210
  604SOL     OW 2445   2.236   0.408   1.110
  604SOL    HW2 2446   2.154   0.448   1.139
  604SOL    HW3 2447   2.239   0.423   1.016
  604SOL    MW4 2448   2.226   0.415   1.102
  605SOL     OW 2449   2.478   0.471   1.243
  605SOL    HW2 2450   2.468   0.481   1.338
  605SOL    HW3 2451   2.388   0.456   1.211
  605SOL    MW4 2452   2.465   0.470   1.251
  606SOL     OW 2453   2.482   0.730   1.154
  606SOL    HW2 2454   2.476   0.637   1.177
  606SOL    HW3 2455   2.482   0.732   1.058
  606SOL    MW4 2456   2.481   0.718   1.144
  607SOL     OW 2457   2.284   0.927   1.216
  607SOL    HW2 2458   2.357   0.871   1.191
  607SOL    HW3 2459   2.207   0.884   1.180
  607SOL    MW4 2460   2.284   0.914   1.208
  608SOL     OW 2461   2.229   1.161   1.096
  608SOL    HW2 2462   2.285   1.224   1.142
  608SOL    HW3 2463   2.251   1.076   1.136
  608SOL    MW4 2464   2.240   1.158   1.108
  609SOL     OW 2465   2.433   1.323   1.230
  609SOL    HW2 2466   2.505   1.267   1.201
  609SOL    HW3 2467   2.463   1.412   1.212
  609SOL    MW4 2468   2.447   1.327   1.224
  610SOL     OW 2469   2.481   1.567   1.151
  610SOL    HW2 2470   2.399   1.603   1.185
  610SOL    HW3 2471   2.463   1.548   1.059
  610SOL    MW4 2472   2.468   1.569   1.143
  611SOL     OW 2473   2.241   1.658   1.240
  611SOL    HW2 2474   2.261   1.746   1.210
  611SOL    HW3 2475   2.165   1.631   1.188
  611SOL    MW4 2476   2.233   1.666   1.229
  612SOL     OW 2477   2.270   1.906   1.112
  612SOL    HW2 2478   2.194   1.958   1.137
  612SOL    HW3 2479   2.266   1.902   1.017
  612SOL    MW4 2480   2.259   1.912   1.103
  613SOL     OW 2481   2.474   2.006   1.245
  613SOL    HW2 2482   2.548   1.955   1.213
  613SOL    HW3 2483   2.398   1.968   1.201
  613SOL    MW4 2484   2.474   1.994   1.235
  614SOL     OW 2485   2.494   2.268   1.159
  614SOL    HW2 2486   2.483   2.177   1.185
  614SOL    HW3 2487   2.495   2.267   1.064
  614SOL    MW4 2488   2.493   2.256   1.150
  615SOL     OW 2489   2.258   2.405   1.201
  615SOL    HW2 2490   2.261   2.414   1.296
  615SOL    HW3 2491   2.343   2.370   1.177
  615SOL    MW4 2492   2.269   2.402   1.211
  616SOL     OW 2493   2.280   2.692   1.156
  616SOL    HW2 2494   2.261   2.601   1.180
  616SOL    HW3 2495   2.214   2.743   1.203
  616SOL    MW4 2496   2.269   2.687   1.165
  617SOL     OW 2497   2.500   2.855   1.226
  617SOL    HW2 2498   2.489   2.864   1.321
  617SOL    HW3 2499   2.431   2.794   1.200
  617SOL    MW4 2500   2.489   2.848   1.235
  618SOL     OW 2501   2.510   3.108   1.122
  618SOL    HW2 2502   2.432   3.139   1.167
  618SOL    HW3 2503   2.530   3.023   1.162
  618SOL    MW4 2504   2.502   3.101   1.133
  619SOL     OW 2505   2.284   3.206   1.214
  619SOL    HW2 2506   2.273   3.296   1.184
  619SOL    HW3 2507   2.199   3.165   1.197
  619SOL    MW4 2508   2.271   3.213   1.208
  620SOL     OW 2509   2.243   3.470   1.118
  620SOL    HW2 2510   2.324   3.517   1.139
  620SOL    HW3 2511   2.237   3.473   1.023
  620SOL    MW4 2512   2.253   3.476   1.108
  621SOL     OW 2513   2.469   3.613   1.189
  621SOL    HW2 2514   2.487   3.626   1.282
  621SOL    HW3 2515   2.471   3.701   1.151
  621SOL    MW4 2516   2.472   3.627   1.196
  622SOL     OW 2517   2.484   3.881   1.098
  622SOL    HW2 2518   2.402   3.919   1.130
  622SOL    HW3 2519   2.482   3.897   1.003
  622SOL    MW4 2520   2.473   3.888   1.090
  623SOL     OW 2521   2.257   4.023   1.179
  623SOL    HW2 2522   2.238   4.106   1.135
  623SOL    HW3 2523   2.190   3.962   1.147
  623SOL    MW4 2524   2.246   4.026   1.169
  624SOL     OW 2525   2.195   4.280   1.076
  624SOL    HW2 2526   2.124   4.335   1.112
  624SOL    HW3 2527   2.186   4.289   0.981
  624SOL    MW4 2528   2.184   4.289   1.068
  625SOL     OW 2529   2.425   4.391   1.193
  625SOL    HW2 2530   2.345   4.358   1.151
  625SOL    HW3 2531   2.442   4.474   1.149
  625SOL    MW4 2532   2.416   4.397   1.182
  626SOL     OW 2533   2.925   0.011   1.162
  626SOL    HW2 2534   2.910  -0.081   1.184
  626SOL    HW3 2535   2.921   0.014   1.067
  626SOL    MW4 2536   2.923  -0.001   1.153
  627SOL     OW 2537   2.676   0.079   1.227
  627SOL    HW2 2538   2.672   0.068   1.322
  627SOL    HW3 2539   2.769   0.071   1.206
  627SOL    MW4 2540   2.688   0.077   1.237
  628SOL     OW 2541   2.671   0.335   1.110
  628SOL    HW2 2542   2.669   0.248   1.150
  628SOL    HW3 2543   2.602   0.384   1.155
  628SOL    MW4 2544   2.661   0.330   1.121
  629SOL     OW 2545   2.887   0.494   1.210
  629SOL    HW2 2546   2.872   0.585   1.186
  629SOL    HW3 2547   2.807   0.448   1.181
  629SOL    MW4 2548   2.874   0.500   1.203
  630SOL     OW 2549   2.893   0.761   1.142
  630SOL    HW2 2550   2.974   0.803   1.170
  630SOL    HW3 2551   2.825   0.802   1.195
  630SOL    MW4 2552   2.895   0.772   1.152
  631SOL     OW 2553   2.690   0.906   1.254
  631SOL    HW2 2554   2.667   0.996   1.228
  631SOL    HW3 2555   2.622   0.852   1.214
  631SOL    MW4 2556   2.678   0.911   1.245
  632SOL     OW 2557   2.651   1.169   1.162
  632SOL    HW2 2558   2.737   1.193   1.198
  632SOL    HW3 2559   2.657   1.192   1.069
  632SOL    MW4 2560   2.663   1.175   1.154
  633SOL     OW 2561   2.916   1.231   1.262
  633SOL    HW2 2562   2.912   1.243   1.357
  633SOL    HW3 2563   2.923   1.320   1.227
  633SOL    MW4 2564   2.916   1.244   1.270
  634SOL     OW 2565   2.930   1.488   1.166
  634SOL    HW2 2566   3.004   1.538   1.199
  634SOL    HW3 2567   2.923   1.515   1.074
  634SOL    MW4 2568   2.939   1.498   1.158
  635SOL     OW 2569   2.727   1.690   1.208
  635SOL    HW2 2570   2.791   1.619   1.205
  635SOL    HW3 2571   2.644   1.647   1.187
  635SOL    MW4 2572   2.724   1.675   1.205
  636SOL     OW 2573   2.698   1.946   1.101
  636SOL    HW2 2574   2.781   1.988   1.122
  636SOL    HW3 2575   2.712   1.854   1.123
  636SOL    MW4 2576   2.711   1.939   1.107
  637SOL     OW 2577   2.941   2.065   1.190
  637SOL    HW2 2578   2.952   2.062   1.286
  637SOL    HW3 2579   2.934   2.159   1.170
  637SOL    MW4 2580   2.942   2.077   1.200
  638SOL     OW 2581   2.890   2.340   1.109
  638SOL    HW2 2582   2.967   2.390   1.133
  638SOL    HW3 2583   2.818   2.380   1.158
  638SOL    MW4 2584   2.891   2.352   1.118
  639SOL     OW 2585   2.686   2.463   1.252
  639SOL    HW2 2586   2.688   2.457   1.347
  639SOL    HW3 2587   2.607   2.415   1.227
  639SOL    MW4 2588   2.676   2.456   1.261
  640SOL     OW 2589   2.716   2.711   1.156
  640SOL    HW2 2590   2.706   2.629   1.205
  640SOL    HW3 2591   2.650   2.769   1.193
  640SOL    MW4 2592   2.706   2.708   1.167
  641SOL     OW 2593   2.975   2.827   1.216
  641SOL    HW2 2594   2.969   2.818   1.311
  641SOL    HW3 2595   2.897   2.783   1.183
  641SOL    MW4 2596   2.964   2.820   1.224
  642SOL     OW 2597   2.919   3.087   1.145
  642SOL    HW2 2598   2.943   2.998   1.171
  642SOL    HW3 2599   2.927   3.087   1.050
  642SOL    MW4 2600   2.923   3.075   1.136
  643SOL     OW 2601   2.717   3.258   1.246
  643SOL    HW2 2602   2.791   3.203   1.219
  643SOL    HW3 2603   2.640   3.213   1.211
  643SOL    MW4 2604   2.717   3.245   1.238
  644SOL     OW 2605   2.702   3.500   1.094
  644SOL    HW2 2606   2.700   3.419   1.145
  644SOL    HW3 2607   2.616   3.540   1.108
  644SOL    MW4 2608   2.690   3.495   1.103
  645SOL     OW 2609   2.909   3.666   1.206
  645SOL    HW2 2610   2.982   3.611   1.179
  645SOL    HW3 2611   2.831   3.619   1.177
  645SOL    MW4 2612   2.908   3.652   1.199
  646SOL     OW 2613   2.955   3.934   1.089
  646SOL    HW2 2614   3.031   3.966   1.138
  646SOL    HW3 2615   2.943   3.844   1.118
  646SOL    MW4 2616   2.964   3.926   1.099
  647SOL     OW 2617   2.717   4.007   1.219
  647SOL    HW2 2618   2.801   3.981   1.181
  647SOL    HW3 2619   2.654   3.946   1.182
  647SOL    MW4 2620   2.720   3.996   1.209
  648SOL     OW 2621   2.649   4.272   1.076
  648SOL    HW2 2622   2.671   4.187   1.113
  648SOL    HW3 2623   2.573   4.301   1.127
  648SOL    MW4 2624   2.642   4.265   1.088
  649SOL     OW 2625   2.853   4.405   1.251
  649SOL    HW2 2626   2.935   4.367   1.221
  649SOL    HW3 2627   2.787   4.371   1.191
  649SOL    MW4 2628   2.855   4.396   1.239
  650SOL     OW 2629   3.367   4.635   1.115
  650SOL    HW2 2630   3.443   4.667   1.163
  650SOL    HW3 2631   3.292   4.675   1.159
  650SOL    MW4 2632   3.367   4.645   1.127
  651SOL     OW 2633   3.149   0.098   1.283
  651SOL    HW2 2634   3.132   0.075   1.374
  651SOL    HW3 2635   3.069   0.074   1.237
  651SOL    MW4 2636   3.136   0.092   1.289
  652SOL     OW 2637   3.134   0.344   1.154
  652SOL    HW2 2638   3.110   0.275   1.216
  652SOL    HW3 2639   3.060   0.404   1.156
  652SOL    MW4 2640   3.121   0.343   1.163
  653SOL     OW 2641   3.344   0.483   1.274
  653SOL    HW2 2642   3.347   0.569   1.233
  653SOL    HW3 2643   3.264   0.442   1.238
  653SOL    MW4 2644   3.334   0.489   1.264
  654SOL     OW 2645   3.362   0.748   1.192
  654SOL    HW2 2646   3.283   0.799   1.209
  654SOL    HW3 2647   3.369   0.745   1.097
  654SOL    MW4 2648   3.353   0.754   1.182
  655SOL     OW 2649   3.127   0.869   1.241
  655SOL    HW2 2650   3.121   0.866   1.336
  655SOL    HW3 2651   3.136   0.961   1.219
  655SOL    MW4 2652   3.127   0.880   1.251
  656SOL     OW 2653   3.135   1.116   1.136
  656SOL    HW2 2654   3.219   1.158   1.153
  656SOL    HW3 2655   3.074   1.157   1.198
  656SOL    MW4 2656   3.138   1.127   1.146
  657SOL     OW 2657   3.358   1.265   1.192
  657SOL    HW2 2658   3.338   1.269   1.286
  657SOL    HW3 2659   3.348   1.355   1.161
  657SOL    MW4 2660   3.354   1.277   1.200
  658SOL     OW 2661   3.348   1.545   1.144
  658SOL    HW2 2662   3.422   1.590   1.183
  658SOL    HW3 2663   3.271   1.594   1.173
  658SOL    MW4 2664   3.348   1.557   1.153
  659SOL     OW 2665   3.116   1.698   1.226
  659SOL    HW2 2666   3.144   1.704   1.317
  659SOL    HW3 2667   3.140   1.783   1.188
  659SOL    MW4 2668   3.123   1.710   1.233
  660SOL     OW 2669   3.173   1.944   1.119
  660SOL    HW2 2670   3.229   1.983   1.186
  660SOL    HW3 2671   3.088   1.987   1.130
  660SOL    MW4 2672   3.169   1.955   1.129
  661SOL     OW 2673   3.378   2.072   1.255
  661SOL    HW2 2674   3.453   2.025   1.219
  661SOL    HW3 2675   3.373   2.152   1.203
  661SOL    MW4 2676   3.387   2.076   1.243
  662SOL     OW 2677   3.380   2.323   1.093
  662SOL    HW2 2678   3.443   2.368   1.149
  662SOL    HW3 2679   3.298   2.369   1.107
  662SOL    MW4 2680   3.378   2.335   1.102
  663SOL     OW 2681   3.141   2.443   1.164
  663SOL    HW2 2682   3.156   2.436   1.258
  663SOL    HW3 2683   3.178   2.528   1.140
  663SOL    MW4 2684   3.148   2.453   1.173
  664SOL     OW 2685   3.193   2.720   1.101
  664SOL    HW2 2686   3.110   2.746   1.139
  664SOL    HW3 2687   3.176   2.720   1.006
  664SOL    MW4 2688   3.180   2.723   1.093
  665SOL     OW 2689   3.380   2.860   1.243
  665SOL    HW2 2690   3.388   2.948   1.207
  665SOL    HW3 2691   3.309   2.820   1.193
  665SOL    MW4 2692   3.372   2.867   1.231
  666SOL     OW 2693   3.375   3.124   1.126
  666SOL    HW2 2694   3.442   3.162   1.182
  666SOL    HW3 2695   3.292   3.151   1.165
  666SOL    MW4 2696   3.373   3.132   1.139
  667SOL     OW 2697   3.139   3.245   1.217
  667SOL    HW2 2698   3.140   3.321   1.159
  667SOL    HW3 2699   3.062   3.195   1.191
  667SOL    MW4 2700   3.129   3.248   1.206
  668SOL     OW 2701   3.113   3.502   1.119
  668SOL    HW2 2702   3.191   3.543   1.158
  668SOL    HW3 2703   3.132   3.498   1.025
  668SOL    MW4 2704   3.126   3.507   1.112
  669SOL     OW 2705   3.358   3.598   1.209
  669SOL    HW2 2706   3.366   3.593   1.305
  669SOL    HW3 2707   3.444   3.572   1.177
  669SOL    MW4 2708   3.370   3.594   1.218
  670SOL     OW 2709   3.394   3.863   1.139
  670SOL    HW2 2710   3.319   3.908   1.180
  670SOL    HW3 2711   3.385   3.772   1.166
  670SOL    MW4 2712   3.383   3.857   1.148
  671SOL     OW 2713   3.178   4.036   1.256
  671SOL    HW2 2714   3.175   4.017   1.349
  671SOL    HW3 2715   3.150   4.127   1.248
  671SOL    MW4 2716   3.174   4.045   1.267
  672SOL     OW 2717   3.096   4.276   1.159
  672SOL    HW2 2718   3.185   4.309   1.172
  672SOL    HW3 2719   3.096   4.243   1.069
  672SOL    MW4 2720   3.107   4.276   1.149
  673SOL     OW 2721   3.353   4.348   1.223
  673SOL    HW2 2722   3.437   4.303   1.217
  673SOL    HW3 2723   3.368   4.433   1.181
  673SOL    MW4 2724   3.366   4.354   1.217
  674SOL     OW 2725   3.844   4.647   1.182
  674SOL    HW2 2726   3.849   4.561   1.225
  674SOL    HW3 2727   3.842   4.627   1.089
  674SOL    MW4 2728   3.845   4.633   1.175
  675SOL     OW 2729   3.586   0.089   1.233
  675SOL    HW2 2730   3.574   0.183   1.220
  675SOL    HW3 2731   3.679   0.074   1.216
  675SOL    MW4 2732   3.597   0.099   1.229
  676SOL     OW 2733   3.577   0.357   1.170
  676SOL    HW2 2734   3.654   0.410   1.191
  676SOL    HW3 2735   3.507   0.394   1.223
  676SOL    MW4 2736   3.578   0.369   1.180
  677SOL     OW 2737   3.795   0.505   1.229
  677SOL    HW2 2738   3.868   0.457   1.191
  677SOL    HW3 2739   3.815   0.597   1.212
  677SOL    MW4 2740   3.807   0.511   1.222
  678SOL     OW 2741   3.813   0.778   1.137
  678SOL    HW2 2742   3.879   0.827   1.185
  678SOL    HW3 2743   3.730   0.809   1.173
  678SOL    MW4 2744   3.811   0.788   1.148
  679SOL     OW 2745   3.586   0.893   1.242
  679SOL    HW2 2746   3.569   0.979   1.203
  679SOL    HW3 2747   3.509   0.841   1.221
  679SOL    MW4 2748   3.574   0.898   1.234
  680SOL     OW 2749   3.575   1.135   1.108
  680SOL    HW2 2750   3.661   1.171   1.129
  680SOL    HW3 2751   3.513   1.195   1.148
  680SOL    MW4 2752   3.578   1.147   1.116
  681SOL     OW 2753   3.772   1.290   1.221
  681SOL    HW2 2754   3.791   1.295   1.314
  681SOL    HW3 2755   3.769   1.382   1.192
  681SOL    MW4 2756   3.774   1.303   1.229
  682SOL     OW 2757   3.799   1.546   1.127
  682SOL    HW2 2758   3.877   1.583   1.167
  682SOL    HW3 2759   3.816   1.550   1.033
  682SOL    MW4 2760   3.811   1.551   1.120
  683SOL     OW 2761   3.575   1.660   1.245
  683SOL    HW2 2762   3.589   1.748   1.210
  683SOL    HW3 2763   3.644   1.607   1.206
  683SOL    MW4 2764   3.586   1.664   1.235
  684SOL     OW 2765   3.578   1.920   1.132
  684SOL    HW2 2766   3.659   1.968   1.148
  684SOL    HW3 2767   3.564   1.928   1.037
  684SOL    MW4 2768   3.587   1.928   1.121
  685SOL     OW 2769   3.830   2.051   1.188
  685SOL    HW2 2770   3.831   2.046   1.284
  685SOL    HW3 2771   3.904   1.998   1.160
  685SOL    MW4 2772   3.840   2.044   1.197
  686SOL     OW 2773   3.802   2.327   1.123
  686SOL    HW2 2774   3.878   2.367   1.166
  686SOL    HW3 2775   3.810   2.233   1.144
  686SOL    MW4 2776   3.813   2.320   1.132
  687SOL     OW 2777   3.576   2.461   1.221
  687SOL    HW2 2778   3.590   2.455   1.315
  687SOL    HW3 2779   3.649   2.412   1.183
  687SOL    MW4 2780   3.587   2.453   1.228
  688SOL     OW 2781   3.559   2.709   1.101
  688SOL    HW2 2782   3.554   2.623   1.143
  688SOL    HW3 2783   3.498   2.764   1.150
  688SOL    MW4 2784   3.550   2.705   1.113
  689SOL     OW 2785   3.829   2.839   1.202
  689SOL    HW2 2786   3.841   2.850   1.297
  689SOL    HW3 2787   3.743   2.799   1.194
  689SOL    MW4 2788   3.820   2.835   1.214
  690SOL     OW 2789   3.836   3.123   1.168
  690SOL    HW2 2790   3.811   3.033   1.185
  690SOL    HW3 2791   3.856   3.126   1.075
  690SOL    MW4 2792   3.835   3.112   1.158
  691SOL     OW 2793   3.588   3.234   1.253
  691SOL    HW2 2794   3.590   3.320   1.212
  691SOL    HW3 2795   3.670   3.193   1.227
  691SOL    MW4 2796   3.599   3.240   1.244
  692SOL     OW 2797   3.588   3.483   1.114
  692SOL    HW2 2798   3.673   3.517   1.142
  692SOL    HW3 2799   3.590   3.490   1.019
  692SOL    MW4 2800   3.600   3.488   1.106
  693SOL     OW 2801   3.828   3.573   1.214
  693SOL    HW2 2802   3.827   3.568   1.310
  693SOL    HW3 2803   3.838   3.667   1.195
  693SOL    MW4 2804   3.829   3.585   1.224
  694SOL     OW 2805   3.874   3.842   1.147
  694SOL    HW2 2806   3.793   3.882   1.178
  694SOL    HW3 2807   3.859   3.827   1.053
  694SOL    MW4 2808   3.862   3.845   1.138
  695SOL     OW 2809   3.634   3.956   1.238
  695SOL    HW2 2810   3.627   3.961   1.334
  695SOL    HW3 2811   3.543   3.945   1.209
  695SOL    MW4 2812   3.621   3.955   1.247
  696SOL     OW 2813   3.620   4.233   1.204
  696SOL    HW2 2814   3.632   4.138   1.211
  696SOL    HW3 2815   3.624   4.250   1.110
  696SOL    MW4 2816   3.622   4.223   1.193
  697SOL     OW 2817   3.822   4.403   1.293
  697SOL    HW2 2818   3.845   4.390   1.385
  697SOL    HW3 2819   3.741   4.355   1.281
  697SOL    MW4 2820   3.815   4.395   1.303
  698SOL     OW 2821   4.257   0.018   1.109
  698SOL    HW2 2822   4.268  -0.069   1.146
  698SOL    HW3 2823   4.185   0.056   1.160
  698SOL    MW4 2824   4.249   0.012   1.121
  699SOL     OW 2825   4.053   0.144   1.249
  699SOL    HW2 2826   4.056   0.127   1.343
  699SOL    HW3 2827   3.975   0.098   1.219
  699SOL    MW4 2828   4.043   0.136   1.257
  700SOL     OW 2829   4.007   0.368   1.118
  700SOL    HW2 2830   4.010   0.286   1.167
  700SOL    HW3 2831   4.029   0.343   1.028
  700SOL    MW4 2832   4.010   0.353   1.112
  701SOL     OW 2833   4.235   0.494   1.203
  701SOL    HW2 2834   4.234   0.483   1.298
  701SOL    HW3 2835   4.158   0.445   1.172
  701SOL    MW4 2836   4.225   0.486   1.211
  702SOL     OW 2837   4.237   0.792   1.156
  702SOL    HW2 2838   4.233   0.712   1.208
  702SOL    HW3 2839   4.245   0.763   1.066
  702SOL    MW4 2840   4.237   0.778   1.151
  703SOL     OW 2841   4.012   0.919   1.268
  703SOL    HW2 2842   4.039   0.912   1.360
  703SOL    HW3 2843   4.086   0.883   1.219
  703SOL    MW4 2844   4.025   0.913   1.274
  704SOL     OW 2845   4.051   1.180   1.210
  704SOL    HW2 2846   4.047   1.085   1.223
  704SOL    HW3 2847   3.960   1.207   1.198
  704SOL    MW4 2848   4.039   1.171   1.211
  705SOL     OW 2849   4.313   1.245   1.297
  705SOL    HW2 2850   4.300   1.258   1.391
  705SOL    HW3 2851   4.230   1.207   1.266
  705SOL    MW4 2852   4.300   1.241   1.305
  706SOL     OW 2853   4.269   1.497   1.169
  706SOL    HW2 2854   4.269   1.417   1.222
  706SOL    HW3 2855   4.331   1.555   1.213
  706SOL    MW4 2856   4.277   1.494   1.182
  707SOL     OW 2857   4.042   1.651   1.217
  707SOL    HW2 2858   4.030   1.650   1.312
  707SOL    HW3 2859   4.116   1.592   1.202
  707SOL    MW4 2860   4.051   1.643   1.228
  708SOL     OW 2861   4.048   1.909   1.092
  708SOL    HW2 2862   4.047   1.815   1.112
  708SOL    HW3 2863   4.031   1.914   0.998
  708SOL    MW4 2864   4.046   1.897   1.083
  709SOL     OW 2865   4.251   2.020   1.246
  709SOL    HW2 2866   4.243   2.106   1.206
  709SOL    HW3 2867   4.176   1.970   1.213
  709SOL    MW4 2868   4.240   2.025   1.237
  710SOL     OW 2869   4.242   2.272   1.113
  710SOL    HW2 2870   4.161   2.309   1.149
  710SOL    HW3 2871   4.238   2.292   1.020
  710SOL    MW4 2872   4.231   2.279   1.105
  711SOL     OW 2873   4.041   2.411   1.248
  711SOL    HW2 2874   4.052   2.417   1.342
  711SOL    HW3 2875   4.045   2.502   1.217
  711SOL    MW4 2876   4.043   2.424   1.256
  712SOL     OW 2877   4.079   2.699   1.185
  712SOL    HW2 2878   3.991   2.734   1.196
  712SOL    HW3 2879   4.090   2.691   1.091
  712SOL    MW4 2880   4.069   2.702   1.174
  713SOL     OW 2881   4.299   2.823   1.248
  713SOL    HW2 2882   4.285   2.911   1.214
  713SOL    HW3 2883   4.219   2.775   1.225
  713SOL    MW4 2884   4.287   2.828   1.240
  714SOL     OW 2885   4.267   3.075   1.155
  714SOL    HW2 2886   4.200   3.131   1.195
  714SOL    HW3 2887   4.252   3.083   1.061
  714SOL    MW4 2888   4.256   3.084   1.148
  715SOL     OW 2889   4.043   3.259   1.303
  715SOL    HW2 2890   4.055   3.224   1.391
  715SOL    HW3 2891   3.970   3.207   1.266
  715SOL    MW4 2892   4.035   3.247   1.309
  716SOL     OW 2893   4.058   3.469   1.103
  716SOL    HW2 2894   4.075   3.397   1.165
  716SOL    HW3 2895   3.986   3.517   1.143
  716SOL    MW4 2896   4.051   3.466   1.117
  717SOL     OW 2897   4.292   3.626   1.211
  717SOL    HW2 2898   4.230   3.570   1.165
  717SOL    HW3 2899   4.376   3.580   1.203
  717SOL    MW4 2900   4.295   3.612   1.204
  718SOL     OW 2901   4.345   3.914   1.157
  718SOL    HW2 2902   4.255   3.933   1.182
  718SOL    HW3 2903   4.352   3.818   1.162
  718SOL    MW4 2904   4.334   3.904   1.161
  719SOL     OW 2905   4.089   3.998   1.236
  719SOL    HW2 2906   4.072   4.090   1.212
  719SOL    HW3 2907   4.008   3.953   1.213
  719SOL    MW4 2908   4.076   4.004   1.230
  720SOL     OW 2909   4.053   4.274   1.188
  720SOL    HW2 2910   3.967   4.306   1.215
  720SOL    HW3 2911   4.045   4.257   1.094
  720SOL    MW4 2912   4.041   4.276   1.179
  721SOL     OW 2913   4.287   4.424   1.242
  721SOL    HW2 2914   4.207   4.376   1.218
  721SOL    HW3 2915   4.357   4.378   1.196
  721SOL    MW4 2916   4.286   4.411   1.233
  722SOL     OW 2917   0.234   4.636   1.601
  722SOL    HW2 2918   0.313   4.691   1.601
  722SOL    HW3 2919   0.166   4.691   1.562
  722SOL    MW4 2920   0.235   4.650   1.596
  723SOL     OW 2921   0.014   0.115   1.509
  723SOL    HW2 2922  -0.059   0.063   1.543
  723SOL    HW3 2923   0.002   0.114   1.414
  723SOL    MW4 2924   0.003   0.108   1.501
  724SOL     OW 2925   0.002   0.384   1.602
  724SOL    HW2 2926  -0.006   0.390   1.698
  724SOL    HW3 2927   0.016   0.291   1.586
  724SOL    MW4 2928   0.003   0.372   1.613
  725SOL     OW 2929   0.239   0.502   1.538
  725SOL    HW2 2930   0.158   0.463   1.569
  725SOL    HW3 2931   0.238   0.488   1.444
  725SOL    MW4 2932   0.228   0.495   1.530
  726SOL     OW 2933   0.271   0.752   1.643
  726SOL    HW2 2934   0.332   0.788   1.579
  726SOL    HW3 2935   0.260   0.661   1.617
  726SOL    MW4 2936   0.278   0.745   1.631
  727SOL     OW 2937   0.028   0.873   1.512
  727SOL    HW2 2938   0.029   0.956   1.559
  727SOL    HW3 2939   0.082   0.815   1.564
  727SOL    MW4 2940   0.035   0.877   1.525
  728SOL     OW 2941   0.000   1.123   1.642
  728SOL    HW2 2942  -0.004   1.118   1.738
  728SOL    HW3 2943   0.078   1.177   1.625
  728SOL    MW4 2944   0.010   1.130   1.653
  729SOL     OW 2945   0.217   1.264   1.532
  729SOL    HW2 2946   0.227   1.354   1.565
  729SOL    HW3 2947   0.212   1.274   1.437
  729SOL    MW4 2948   0.217   1.277   1.524
  730SOL     OW 2949   0.240   1.520   1.648
  730SOL    HW2 2950   0.238   1.540   1.742
  730SOL    HW3 2951   0.172   1.576   1.611
  730SOL    MW4 2952   0.231   1.530   1.656
  731SOL     OW 2953   0.010   1.672   1.560
  731SOL    HW2 2954   0.016   1.767   1.573
  731SOL    HW3 2955   0.002   1.661   1.465
  731SOL    MW4 2956   0.010   1.683   1.549
  732SOL     OW 2957   0.009   1.936   1.600
  732SOL    HW2 2958   0.017   1.948   1.694
  732SOL    HW3 2959  -0.084   1.950   1.581
  732SOL    MW4 2960  -0.002   1.939   1.610
  733SOL     OW 2961   0.244   2.011   1.469
  733SOL    HW2 2962   0.174   1.980   1.527
  733SOL    HW3 2963   0.213   1.992   1.381
  733SOL    MW4 2964   0.231   2.004   1.465
  734SOL     OW 2965   0.231   2.284   1.540
  734SOL    HW2 2966   0.241   2.257   1.631
  734SOL    HW3 2967   0.223   2.201   1.492
  734SOL    MW4 2968   0.231   2.269   1.546
  735SOL     OW 2969   4.484   2.417   1.468
  735SOL    HW2 2970   4.408   2.376   1.510
  735SOL    HW3 2971   4.560   2.374   1.508
  735SOL    MW4 2972   4.484   2.406   1.479
  736SOL     OW 2973   0.016   2.684   1.536
  736SOL    HW2 2974  -0.073   2.720   1.534
  736SOL    HW3 2975   0.007   2.594   1.505
  736SOL    MW4 2976   0.003   2.677   1.532
  737SOL     OW 2977   0.233   2.843   1.498
  737SOL    HW2 2978   0.312   2.796   1.523
  737SOL    HW3 2979   0.162   2.781   1.514
  737SOL    MW4 2980   0.234   2.829   1.503
  738SOL     OW 2981   0.263   3.090   1.635
  738SOL    HW2 2982   0.189   3.134   1.596
  738SOL    HW3 2983   0.257   3.000   1.603
  738SOL    MW4 2984   0.253   3.084   1.626
  739SOL     OW 2985   0.059   3.230   1.522
  739SOL    HW2 2986   0.042   3.322   1.544
  739SOL    HW3 2987   0.052   3.226   1.427
  739SOL    MW4 2988   0.056   3.241   1.512
  740SOL     OW 2989   0.008   3.485   1.616
  740SOL    HW2 2990  -0.009   3.462   1.707
  740SOL    HW3 2991  -0.076   3.519   1.584
  740SOL    MW4 2992  -0.005   3.486   1.624
  741SOL     OW 2993   0.246   3.635   1.568
  741SOL    HW2 2994   0.226   3.724   1.597
  741SOL    HW3 2995   0.175   3.581   1.604
  741SOL    MW4 2996   0.234   3.640   1.576
  742SOL     OW 2997   0.262   3.907   1.623
  742SOL    HW2 2998   0.253   3.889   1.717
  742SOL    HW3 2999   0.355   3.925   1.610
  742SOL    MW4 3000   0.273   3.907   1.634
  743SOL     OW 3001   0.006   4.021   1.567
  743SOL    HW2 3002   0.036   4.111   1.575
  743SOL    HW3 3003   0.085   3.968   1.580
  743SOL    MW4 3004   0.021   4.026   1.570
  744SOL     OW 3005   0.012   4.301   1.571
  744SOL    HW2 3006   0.006   4.303   1.666
  744SOL    HW3 3007  -0.076   4.327   1.541
  744SOL    MW4 3008  -0.001   4.305   1.579
  745SOL     OW 3009   0.258   4.385   1.484
  745SOL    HW2 3010   0.167   4.362   1.505
  745SOL    HW3 3011   0.273   4.468   1.528
  745SOL    MW4 3012   0.248   4.393   1.492
  746SOL     OW 3013   0.690   4.643   1.643
  746SOL    HW2 3014   0.768   4.684   1.606
  746SOL    HW3 3015   0.619   4.705   1.624
  746SOL    MW4 3016   0.691   4.657   1.635
  747SOL     OW 3017   0.469   0.113   1.570
  747SOL    HW2 3018   0.450   0.202   1.601
  747SOL    HW3 3019   0.458   0.118   1.475
  747SOL    MW4 3020   0.465   0.126   1.561
  748SOL     OW 3021   0.451   0.370   1.650
  748SOL    HW2 3022   0.529   0.401   1.603
  748SOL    HW3 3023   0.377   0.408   1.602
  748SOL    MW4 3024   0.452   0.379   1.638
  749SOL     OW 3025   0.676   0.493   1.529
  749SOL    HW2 3026   0.692   0.585   1.553
  749SOL    HW3 3027   0.665   0.494   1.434
  749SOL    MW4 3028   0.676   0.505   1.520
  750SOL     OW 3029   0.695   0.762   1.595
  750SOL    HW2 3030   0.687   0.778   1.689
  750SOL    HW3 3031   0.773   0.810   1.568
  750SOL    MW4 3032   0.704   0.770   1.604
  751SOL     OW 3033   0.469   0.871   1.478
  751SOL    HW2 3034   0.461   0.962   1.507
  751SOL    HW3 3035   0.547   0.838   1.523
  751SOL    MW4 3036   0.478   0.879   1.488
  752SOL     OW 3037   0.445   1.120   1.585
  752SOL    HW2 3038   0.516   1.180   1.562
  752SOL    HW3 3039   0.366   1.172   1.575
  752SOL    MW4 3040   0.444   1.135   1.581
  753SOL     OW 3041   0.669   1.246   1.476
  753SOL    HW2 3042   0.690   1.334   1.508
  753SOL    HW3 3043   0.662   1.256   1.381
  753SOL    MW4 3044   0.671   1.259   1.468
  754SOL     OW 3045   0.691   1.499   1.605
  754SOL    HW2 3046   0.770   1.545   1.577
  754SOL    HW3 3047   0.619   1.548   1.564
  754SOL    MW4 3048   0.692   1.512   1.596
  755SOL     OW 3049   0.459   1.608   1.502
  755SOL    HW2 3050   0.454   1.697   1.535
  755SOL    HW3 3051   0.387   1.562   1.546
  755SOL    MW4 3052   0.449   1.614   1.512
  756SOL     OW 3053   0.455   1.857   1.612
  756SOL    HW2 3054   0.450   1.880   1.705
  756SOL    HW3 3055   0.385   1.909   1.571
  756SOL    MW4 3056   0.445   1.867   1.619
  757SOL     OW 3057   0.659   2.030   1.529
  757SOL    HW2 3058   0.737   1.979   1.549
  757SOL    HW3 3059   0.586   1.975   1.558
  757SOL    MW4 3060   0.660   2.016   1.536
  758SOL     OW 3061   0.671   2.293   1.589
  758SOL    HW2 3062   0.583   2.329   1.575
  758SOL    HW3 3063   0.665   2.202   1.561
  758SOL    MW4 3064   0.658   2.286   1.584
  759SOL     OW 3065   0.459   2.432   1.488
  759SOL    HW2 3066   0.438   2.516   1.530
  759SOL    HW3 3067   0.383   2.377   1.504
  759SOL    MW4 3068   0.446   2.436   1.496
  760SOL     OW 3069   0.467   2.696   1.588
  760SOL    HW2 3070   0.466   2.691   1.683
  760SOL    HW3 3071   0.547   2.744   1.567
  760SOL    MW4 3072   0.477   2.702   1.598
  761SOL     OW 3073   0.710   2.811   1.513
  761SOL    HW2 3074   0.690   2.896   1.552
  761SOL    HW3 3075   0.699   2.824   1.419
  761SOL    MW4 3076   0.706   2.824   1.506
  762SOL     OW 3077   0.673   3.068   1.600
  762SOL    HW2 3078   0.738   3.133   1.571
  762SOL    HW3 3079   0.591   3.096   1.560
  762SOL    MW4 3080   0.671   3.080   1.591
  763SOL     OW 3081   0.453   3.208   1.462
  763SOL    HW2 3082   0.375   3.167   1.498
  763SOL    HW3 3083   0.435   3.216   1.368
  763SOL    MW4 3084   0.441   3.204   1.454
  764SOL     OW 3085   0.458   3.451   1.582
  764SOL    HW2 3086   0.450   3.369   1.532
  764SOL    HW3 3087   0.377   3.498   1.562
  764SOL    MW4 3088   0.446   3.447   1.573
  765SOL     OW 3089   0.676   3.578   1.480
  765SOL    HW2 3090   0.755   3.541   1.519
  765SOL    HW3 3091   0.604   3.532   1.524
  765SOL    MW4 3092   0.677   3.567   1.491
  766SOL     OW 3093   0.712   3.825   1.646
  766SOL    HW2 3094   0.777   3.846   1.579
  766SOL    HW3 3095   0.688   3.734   1.628
  766SOL    MW4 3096   0.718   3.816   1.635
  767SOL     OW 3097   0.508   3.998   1.535
  767SOL    HW2 3098   0.585   3.962   1.578
  767SOL    HW3 3099   0.525   3.985   1.441
  767SOL    MW4 3100   0.521   3.992   1.528
  768SOL     OW 3101   0.443   4.254   1.623
  768SOL    HW2 3102   0.447   4.164   1.591
  768SOL    HW3 3103   0.369   4.293   1.577
  768SOL    MW4 3104   0.434   4.247   1.613
  769SOL     OW 3105   0.700   4.380   1.514
  769SOL    HW2 3106   0.617   4.343   1.545
  769SOL    HW3 3107   0.694   4.473   1.537
  769SOL    MW4 3108   0.688   4.387   1.521
  770SOL     OW 3109   1.120   4.610   1.635
  770SOL    HW2 3110   1.104   4.633   1.727
  770SOL    HW3 3111   1.202   4.655   1.613
  770SOL    MW4 3112   1.129   4.619   1.644
  771SOL     OW 3113   0.914   0.100   1.518
  771SOL    HW2 3114   0.934   0.189   1.547
  771SOL    HW3 3115   0.982   0.046   1.557
  771SOL    MW4 3116   0.925   0.105   1.527
  772SOL     OW 3117   0.908   0.373   1.598
  772SOL    HW2 3118   0.900   0.358   1.692
  772SOL    HW3 3119   0.825   0.413   1.573
  772SOL    MW4 3120   0.896   0.377   1.607
  773SOL     OW 3121   1.161   0.489   1.468
  773SOL    HW2 3122   1.164   0.576   1.509
  773SOL    HW3 3123   1.080   0.450   1.501
  773SOL    MW4 3124   1.151   0.495   1.478
  774SOL     OW 3125   1.148   0.733   1.612
  774SOL    HW2 3126   1.151   0.751   1.706
  774SOL    HW3 3127   1.221   0.782   1.575
  774SOL    MW4 3128   1.158   0.742   1.619
  775SOL     OW 3129   0.936   0.893   1.529
  775SOL    HW2 3130   1.009   0.843   1.566
  775SOL    HW3 3131   0.951   0.888   1.434
  775SOL    MW4 3132   0.948   0.886   1.521
  776SOL     OW 3133   0.929   1.154   1.618
  776SOL    HW2 3134   0.931   1.062   1.591
  776SOL    HW3 3135   0.857   1.192   1.569
  776SOL    MW4 3136   0.920   1.147   1.608
  777SOL     OW 3137   1.136   1.278   1.488
  777SOL    HW2 3138   1.216   1.228   1.503
  777SOL    HW3 3139   1.072   1.239   1.548
  777SOL    MW4 3140   1.138   1.266   1.498
  778SOL     OW 3141   1.194   1.510   1.647
  778SOL    HW2 3142   1.273   1.559   1.622
  778SOL    HW3 3143   1.188   1.439   1.582
  778SOL    MW4 3144   1.204   1.507   1.635
  779SOL     OW 3145   0.942   1.614   1.521
  779SOL    HW2 3146   1.022   1.576   1.557
  779SOL    HW3 3147   0.963   1.633   1.430
  779SOL    MW4 3148   0.955   1.611   1.514
  780SOL     OW 3149   0.904   1.910   1.576
  780SOL    HW2 3150   0.984   1.938   1.532
  780SOL    HW3 3151   0.910   1.814   1.578
  780SOL    MW4 3152   0.915   1.901   1.571
  781SOL     OW 3153   1.132   2.053   1.507
  781SOL    HW2 3154   1.217   2.020   1.536
  781SOL    HW3 3155   1.124   2.138   1.549
  781SOL    MW4 3156   1.142   2.060   1.517
  782SOL     OW 3157   1.140   2.331   1.614
  782SOL    HW2 3158   1.213   2.382   1.580
  782SOL    HW3 3159   1.063   2.367   1.570
  782SOL    MW4 3160   1.139   2.343   1.604
  783SOL     OW 3161   0.876   2.434   1.503
  783SOL    HW2 3162   0.887   2.513   1.557
  783SOL    HW3 3163   0.793   2.397   1.533
  783SOL    MW4 3164   0.866   2.440   1.514
  784SOL     OW 3165   0.935   2.699   1.633
  784SOL    HW2 3166   0.930   2.717   1.726
  784SOL    HW3 3167   0.852   2.731   1.598
  784SOL    MW4 3168   0.923   2.705   1.640
  785SOL     OW 3169   1.130   2.862   1.482
  785SOL    HW2 3170   1.105   2.950   1.510
  785SOL    HW3 3171   1.067   2.804   1.526
  785SOL    MW4 3172   1.118   2.866   1.492
  786SOL     OW 3173   1.115   3.120   1.582
  786SOL    HW2 3174   1.125   3.129   1.676
  786SOL    HW3 3175   1.199   3.151   1.546
  786SOL    MW4 3176   1.128   3.125   1.589
  787SOL     OW 3177   0.885   3.223   1.516
  787SOL    HW2 3178   0.974   3.193   1.536
  787SOL    HW3 3179   0.884   3.236   1.421
  787SOL    MW4 3180   0.897   3.221   1.506
  788SOL     OW 3181   0.895   3.493   1.617
  788SOL    HW2 3182   0.988   3.514   1.608
  788SOL    HW3 3183   0.890   3.399   1.600
  788SOL    MW4 3184   0.907   3.484   1.614
  789SOL     OW 3185   1.139   3.604   1.524
  789SOL    HW2 3186   1.221   3.564   1.555
  789SOL    HW3 3187   1.142   3.594   1.429
  789SOL    MW4 3188   1.151   3.597   1.515
  790SOL     OW 3189   1.163   3.869   1.606
  790SOL    HW2 3190   1.233   3.916   1.560
  790SOL    HW3 3191   1.170   3.779   1.573
  790SOL    MW4 3192   1.173   3.863   1.595
  791SOL     OW 3193   0.925   3.956   1.510
  791SOL    HW2 3194   0.922   4.050   1.527
  791SOL    HW3 3195   1.008   3.927   1.548
  791SOL    MW4 3196   0.935   3.964   1.517
  792SOL     OW 3197   0.910   4.223   1.610
  792SOL    HW2 3198   0.912   4.241   1.704
  792SOL    HW3 3199   0.834   4.270   1.577
  792SOL    MW4 3200   0.900   4.231   1.618
  793SOL     OW 3201   1.058   4.384   1.460
  793SOL    HW2 3202   1.022   4.330   1.530
  793SOL    HW3 3203   1.064   4.472   1.498
  793SOL    MW4 3204   1.054   4.388   1.474
  794SOL     OW 3205   1.551   4.628   1.617
  794SOL    HW2 3206   1.565   4.654   1.708
  794SOL    HW3 3207   1.469   4.672   1.592
  794SOL    MW4 3208   1.542   4.637   1.626
  795SOL     OW 3209   1.330   0.090   1.508
  795SOL    HW2 3210   1.321   0.182   1.533
  795SOL    HW3 3211   1.341   0.091   1.413
  795SOL    MW4 3212   1.330   0.102   1.499
  796SOL     OW 3213   1.340   0.356   1.624
  796SOL    HW2 3214   1.421   0.406   1.609
  796SOL    HW3 3215   1.276   0.399   1.567
  796SOL    MW4 3216   1.343   0.368   1.614
  797SOL     OW 3217   1.562   0.495   1.546
  797SOL    HW2 3218   1.643   0.448   1.561
  797SOL    HW3 3219   1.559   0.508   1.451
  797SOL    MW4 3220   1.572   0.491   1.535
  798SOL     OW 3221   1.604   0.750   1.623
  798SOL    HW2 3222   1.605   0.760   1.718
  798SOL    HW3 3223   1.607   0.656   1.609
  798SOL    MW4 3224   1.605   0.739   1.634
  799SOL     OW 3225   1.361   0.860   1.509
  799SOL    HW2 3226   1.424   0.820   1.568
  799SOL    HW3 3227   1.399   0.848   1.422
  799SOL    MW4 3228   1.374   0.853   1.505
  800SOL     OW 3229   1.389   1.135   1.570
  800SOL    HW2 3230   1.376   1.140   1.665
  800SOL    HW3 3231   1.378   1.042   1.549
  800SOL    MW4 3232   1.386   1.123   1.580
  801SOL     OW 3233   1.591   1.315   1.468
  801SOL    HW2 3234   1.507   1.273   1.488
  801SOL    HW3 3235   1.591   1.325   1.373
  801SOL    MW4 3236   1.580   1.311   1.458
  802SOL     OW 3237   1.618   1.548   1.619
  802SOL    HW2 3238   1.598   1.526   1.710
  802SOL    HW3 3239   1.611   1.466   1.571
  802SOL    MW4 3240   1.615   1.535   1.625
  803SOL     OW 3241   1.381   1.670   1.527
  803SOL    HW2 3242   1.469   1.648   1.559
  803SOL    HW3 3243   1.387   1.661   1.432
  803SOL    MW4 3244   1.394   1.666   1.519
  804SOL     OW 3245   1.366   1.928   1.595
  804SOL    HW2 3246   1.356   1.921   1.690
  804SOL    HW3 3247   1.371   1.838   1.564
  804SOL    MW4 3248   1.365   1.915   1.604
  805SOL     OW 3249   1.588   2.061   1.495
  805SOL    HW2 3250   1.515   2.014   1.535
  805SOL    HW3 3251   1.571   2.055   1.401
  805SOL    MW4 3252   1.576   2.054   1.488
  806SOL     OW 3253   1.616   2.339   1.552
  806SOL    HW2 3254   1.702   2.368   1.523
  806SOL    HW3 3255   1.611   2.247   1.523
  806SOL    MW4 3256   1.627   2.330   1.544
  807SOL     OW 3257   1.349   2.461   1.503
  807SOL    HW2 3258   1.342   2.553   1.530
  807SOL    HW3 3259   1.440   2.437   1.524
  807SOL    MW4 3260   1.360   2.470   1.509
  808SOL     OW 3261   1.346   2.729   1.589
  808SOL    HW2 3262   1.428   2.764   1.553
  808SOL    HW3 3263   1.278   2.783   1.548
  808SOL    MW4 3264   1.348   2.741   1.579
  809SOL     OW 3265   1.578   2.848   1.460
  809SOL    HW2 3266   1.668   2.819   1.476
  809SOL    HW3 3267   1.569   2.848   1.365
  809SOL    MW4 3268   1.589   2.844   1.450
  810SOL     OW 3269   1.569   3.089   1.585
  810SOL    HW2 3270   1.655   3.110   1.550
  810SOL    HW3 3271   1.547   3.004   1.548
  810SOL    MW4 3272   1.578   3.081   1.576
  811SOL     OW 3273   1.349   3.245   1.492
  811SOL    HW2 3274   1.336   3.331   1.534
  811SOL    HW3 3275   1.427   3.209   1.535
  811SOL    MW4 3276   1.358   3.252   1.504
  812SOL     OW 3277   1.389   3.479   1.630
  812SOL    HW2 3278   1.392   3.488   1.725
  812SOL    HW3 3279   1.469   3.522   1.600
  812SOL    MW4 3280   1.400   3.486   1.639
  813SOL     OW 3281   1.598   3.619   1.505
  813SOL    HW2 3282   1.605   3.713   1.521
  813SOL    HW3 3283   1.587   3.612   1.410
  813SOL    MW4 3284   1.597   3.630   1.494
  814SOL     OW 3285   1.604   3.875   1.576
  814SOL    HW2 3286   1.617   3.889   1.669
  814SOL    HW3 3287   1.521   3.919   1.556
  814SOL    MW4 3288   1.595   3.882   1.585
  815SOL     OW 3289   1.370   4.015   1.494
  815SOL    HW2 3290   1.355   4.105   1.522
  815SOL    HW3 3291   1.355   4.016   1.399
  815SOL    MW4 3292   1.366   4.027   1.485
  816SOL     OW 3293   1.311   4.277   1.572
  816SOL    HW2 3294   1.395   4.316   1.548
  816SOL    HW3 3295   1.245   4.336   1.536
  816SOL    MW4 3296   1.314   4.290   1.564
  817SOL     OW 3297   1.545   4.384   1.487
  817SOL    HW2 3298   1.633   4.348   1.497
  817SOL    HW3 3299   1.551   4.472   1.524
  817SOL    MW4 3300   1.558   4.391   1.493
  818SOL     OW 3301   1.992   4.620   1.589
  818SOL    HW2 3302   1.982   4.614   1.684
  818SOL    HW3 3303   1.919   4.676   1.562
  818SOL    MW4 3304   1.981   4.627   1.598
  819SOL     OW 3305   1.766   0.096   1.503
  819SOL    HW2 3306   1.693   0.050   1.543
  819SOL    HW3 3307   1.742   0.103   1.410
  819SOL    MW4 3308   1.754   0.091   1.496
  820SOL     OW 3309   1.797   0.360   1.589
  820SOL    HW2 3310   1.876   0.404   1.557
  820SOL    HW3 3311   1.800   0.273   1.548
  820SOL    MW4 3312   1.808   0.354   1.579
  821SOL     OW 3313   2.023   0.488   1.485
  821SOL    HW2 3314   2.105   0.446   1.511
  821SOL    HW3 3315   2.022   0.571   1.533
  821SOL    MW4 3316   2.034   0.493   1.495
  822SOL     OW 3317   2.028   0.739   1.599
  822SOL    HW2 3318   2.101   0.795   1.571
  822SOL    HW3 3319   1.950   0.792   1.583
  822SOL    MW4 3320   2.027   0.753   1.593
  823SOL     OW 3321   1.813   0.881   1.485
  823SOL    HW2 3322   1.810   0.968   1.525
  823SOL    HW3 3323   1.742   0.833   1.528
  823SOL    MW4 3324   1.803   0.887   1.496
  824SOL     OW 3325   1.812   1.138   1.577
  824SOL    HW2 3326   1.880   1.205   1.572
  824SOL    HW3 3327   1.737   1.176   1.530
  824SOL    MW4 3328   1.811   1.152   1.570
  825SOL     OW 3329   2.035   1.297   1.495
  825SOL    HW2 3330   2.021   1.385   1.530
  825SOL    HW3 3331   2.019   1.306   1.401
  825SOL    MW4 3332   2.031   1.309   1.487
  826SOL     OW 3333   2.001   1.545   1.606
  826SOL    HW2 3334   2.081   1.588   1.576
  826SOL    HW3 3335   1.931   1.604   1.579
  826SOL    MW4 3336   2.002   1.559   1.598
  827SOL     OW 3337   1.812   1.729   1.533
  827SOL    HW2 3338   1.737   1.673   1.555
  827SOL    HW3 3339   1.825   1.716   1.439
  827SOL    MW4 3340   1.803   1.720   1.524
  828SOL     OW 3341   1.821   1.975   1.625
  828SOL    HW2 3342   1.822   1.879   1.615
  828SOL    HW3 3343   1.742   2.002   1.577
  828SOL    MW4 3344   1.811   1.966   1.617
  829SOL     OW 3345   2.039   2.058   1.466
  829SOL    HW2 3346   2.115   2.021   1.511
  829SOL    HW3 3347   1.964   2.026   1.516
  829SOL    MW4 3348   2.039   2.049   1.479
  830SOL     OW 3349   2.062   2.314   1.603
  830SOL    HW2 3350   2.033   2.303   1.694
  830SOL    HW3 3351   2.049   2.228   1.564
  830SOL    MW4 3352   2.056   2.302   1.610
  831SOL     OW 3353   1.854   2.467   1.480
  831SOL    HW2 3354   1.929   2.439   1.534
  831SOL    HW3 3355   1.873   2.433   1.393
  831SOL    MW4 3356   1.866   2.459   1.476
  832SOL     OW 3357   1.814   2.722   1.573
  832SOL    HW2 3358   1.904   2.753   1.564
  832SOL    HW3 3359   1.813   2.636   1.532
  832SOL    MW4 3360   1.826   2.715   1.566
  833SOL     OW 3361   2.053   2.853   1.530
  833SOL    HW2 3362   2.026   2.939   1.561
  833SOL    HW3 3363   2.066   2.863   1.436
  833SOL    MW4 3364   2.051   2.866   1.522
  834SOL     OW 3365   2.006   3.109   1.614
  834SOL    HW2 3366   2.004   3.115   1.709
  834SOL    HW3 3367   2.088   3.151   1.589
  834SOL    MW4 3368   2.016   3.115   1.623
  835SOL     OW 3369   1.798   3.191   1.451
  835SOL    HW2 3370   1.787   3.277   1.491
  835SOL    HW3 3371   1.880   3.158   1.490
  835SOL    MW4 3372   1.808   3.198   1.462
  836SOL     OW 3373   1.806   3.456   1.561
  836SOL    HW2 3374   1.808   3.472   1.655
  836SOL    HW3 3375   1.721   3.491   1.533
  836SOL    MW4 3376   1.795   3.462   1.569
  837SOL     OW 3377   2.023   3.594   1.483
  837SOL    HW2 3378   2.099   3.556   1.527
  837SOL    HW3 3379   1.949   3.541   1.514
  837SOL    MW4 3380   2.023   3.582   1.493
  838SOL     OW 3381   2.006   3.861   1.578
  838SOL    HW2 3382   2.088   3.904   1.552
  838SOL    HW3 3383   2.012   3.774   1.541
  838SOL    MW4 3384   2.018   3.855   1.570
  839SOL     OW 3385   1.807   4.004   1.456
  839SOL    HW2 3386   1.876   3.949   1.493
  839SOL    HW3 3387   1.726   3.961   1.481
  839SOL    MW4 3388   1.806   3.991   1.464
  840SOL     OW 3389   1.784   4.258   1.576
  840SOL    HW2 3390   1.863   4.304   1.549
  840SOL    HW3 3391   1.789   4.173   1.534
  840SOL    MW4 3392   1.795   4.253   1.567
  841SOL     OW 3393   2.005   4.381   1.448
  841SOL    HW2 3394   2.067   4.314   1.476
  841SOL    HW3 3395   2.025   4.458   1.501
  841SOL    MW4 3396   2.016   4.382   1.459
  842SOL     OW 3397   2.419   4.620   1.577
  842SOL    HW2 3398   2.418   4.622   1.672
  842SOL    HW3 3399   2.344   4.674   1.551
  842SOL    MW4 3400   2.409   4.627   1.586
  843SOL     OW 3401   2.222   0.129   1.511
  843SOL    HW2 3402   2.160   0.059   1.531
  843SOL    HW3 3403   2.224   0.133   1.415
  843SOL    MW4 3404   2.214   0.120   1.501
  844SOL     OW 3405   2.222   0.380   1.634
  844SOL    HW2 3406   2.208   0.386   1.729
  844SOL    HW3 3407   2.221   0.286   1.616
  844SOL    MW4 3408   2.220   0.369   1.644
  845SOL     OW 3409   2.451   0.508   1.522
  845SOL    HW2 3410   2.526   0.462   1.562
  845SOL    HW3 3411   2.375   0.460   1.553
  845SOL    MW4 3412   2.451   0.495   1.532
  846SOL     OW 3413   2.477   0.765   1.595
  846SOL    HW2 3414   2.402   0.799   1.546
  846SOL    HW3 3415   2.479   0.672   1.573
  846SOL    MW4 3416   2.467   0.757   1.585
  847SOL     OW 3417   2.257   0.893   1.501
  847SOL    HW2 3418   2.255   0.987   1.521
  847SOL    HW3 3419   2.258   0.889   1.405
  847SOL    MW4 3420   2.257   0.905   1.491
  848SOL     OW 3421   2.258   1.152   1.584
  848SOL    HW2 3422   2.235   1.145   1.676
  848SOL    HW3 3423   2.182   1.194   1.543
  848SOL    MW4 3424   2.245   1.157   1.591
  849SOL     OW 3425   2.456   1.323   1.514
  849SOL    HW2 3426   2.386   1.261   1.536
  849SOL    HW3 3427   2.451   1.332   1.419
  849SOL    MW4 3428   2.446   1.316   1.504
  850SOL     OW 3429   2.494   1.579   1.626
  850SOL    HW2 3430   2.575   1.603   1.581
  850SOL    HW3 3431   2.477   1.489   1.598
  850SOL    MW4 3432   2.503   1.570   1.616
  851SOL     OW 3433   2.232   1.637   1.516
  851SOL    HW2 3434   2.318   1.631   1.559
  851SOL    HW3 3435   2.252   1.641   1.423
  851SOL    MW4 3436   2.246   1.637   1.509
  852SOL     OW 3437   2.277   1.935   1.588
  852SOL    HW2 3438   2.272   1.952   1.682
  852SOL    HW3 3439   2.252   1.843   1.578
  852SOL    MW4 3440   2.273   1.925   1.599
  853SOL     OW 3441   2.523   2.055   1.520
  853SOL    HW2 3442   2.449   2.006   1.557
  853SOL    HW3 3443   2.515   2.043   1.425
  853SOL    MW4 3444   2.512   2.047   1.512
  854SOL     OW 3445   2.491   2.331   1.590
  854SOL    HW2 3446   2.487   2.325   1.686
  854SOL    HW3 3447   2.503   2.241   1.561
  854SOL    MW4 3448   2.492   2.318   1.599
  855SOL     OW 3449   2.278   2.470   1.474
  855SOL    HW2 3450   2.354   2.433   1.519
  855SOL    HW3 3451   2.203   2.422   1.510
  855SOL    MW4 3452   2.278   2.459   1.485
  856SOL     OW 3453   2.279   2.704   1.611
  856SOL    HW2 3454   2.281   2.621   1.563
  856SOL    HW3 3455   2.196   2.745   1.585
  856SOL    MW4 3456   2.268   2.699   1.601
  857SOL     OW 3457   2.493   2.868   1.516
  857SOL    HW2 3458   2.485   2.955   1.556
  857SOL    HW3 3459   2.417   2.820   1.550
  857SOL    MW4 3460   2.482   2.874   1.526
  858SOL     OW 3461   2.477   3.103   1.646
  858SOL    HW2 3462   2.556   3.157   1.634
  858SOL    HW3 3463   2.412   3.143   1.589
  858SOL    MW4 3464   2.479   3.116   1.637
  859SOL     OW 3465   2.267   3.217   1.499
  859SOL    HW2 3466   2.261   3.310   1.522
  859SOL    HW3 3467   2.286   3.217   1.405
  859SOL    MW4 3468   2.269   3.230   1.489
  860SOL     OW 3469   2.265   3.498   1.580
  860SOL    HW2 3470   2.273   3.502   1.675
  860SOL    HW3 3471   2.343   3.543   1.547
  860SOL    MW4 3472   2.276   3.505   1.588
  861SOL     OW 3473   2.510   3.607   1.468
  861SOL    HW2 3474   2.587   3.573   1.516
  861SOL    HW3 3475   2.505   3.698   1.495
  861SOL    MW4 3476   2.520   3.614   1.478
  862SOL     OW 3477   2.452   3.876   1.579
  862SOL    HW2 3478   2.463   3.876   1.674
  862SOL    HW3 3479   2.533   3.913   1.546
  862SOL    MW4 3480   2.464   3.881   1.587
  863SOL     OW 3481   2.223   3.980   1.471
  863SOL    HW2 3482   2.305   3.940   1.499
  863SOL    HW3 3483   2.236   3.998   1.378
  863SOL    MW4 3484   2.236   3.977   1.462
  864SOL     OW 3485   2.195   4.227   1.581
  864SOL    HW2 3486   2.276   4.261   1.544
  864SOL    HW3 3487   2.202   4.132   1.570
  864SOL    MW4 3488   2.207   4.219   1.575
  865SOL     OW 3489   2.433   4.365   1.479
  865SOL    HW2 3490   2.432   4.452   1.518
  865SOL    HW3 3491   2.429   4.380   1.385
  865SOL    MW4 3492   2.433   4.378   1.472
  866SOL     OW 3493   2.860   4.604   1.641
  866SOL    HW2 3494   2.864   4.602   1.737
  866SOL    HW3 3495   2.781   4.655   1.622
  866SOL    MW4 3496   2.850   4.610   1.651
  867SOL     OW 3497   2.651   0.081   1.498
  867SOL    HW2 3498   2.656   0.170   1.535
  867SOL    HW3 3499   2.567   0.048   1.528
  867SOL    MW4 3500   2.641   0.089   1.507
  868SOL     OW 3501   2.663   0.359   1.619
  868SOL    HW2 3502   2.661   0.362   1.714
  868SOL    HW3 3503   2.750   0.393   1.596
  868SOL    MW4 3504   2.674   0.364   1.628
  869SOL     OW 3505   2.890   0.469   1.503
  869SOL    HW2 3506   2.883   0.559   1.534
  869SOL    HW3 3507   2.890   0.477   1.408
  869SOL    MW4 3508   2.889   0.482   1.495
  870SOL     OW 3509   2.869   0.734   1.616
  870SOL    HW2 3510   2.860   0.715   1.709
  870SOL    HW3 3511   2.810   0.807   1.600
  870SOL    MW4 3512   2.860   0.741   1.626
  871SOL     OW 3513   2.695   0.931   1.529
  871SOL    HW2 3514   2.619   0.883   1.563
  871SOL    HW3 3515   2.697   0.910   1.435
  871SOL    MW4 3516   2.685   0.922   1.521
  872SOL     OW 3517   2.685   1.194   1.641
  872SOL    HW2 3518   2.688   1.105   1.605
  872SOL    HW3 3519   2.610   1.235   1.598
  872SOL    MW4 3520   2.676   1.187   1.631
  873SOL     OW 3521   2.918   1.277   1.531
  873SOL    HW2 3522   3.000   1.243   1.567
  873SOL    HW3 3523   2.849   1.237   1.585
  873SOL    MW4 3524   2.919   1.267   1.543
  874SOL     OW 3525   2.951   1.548   1.607
  874SOL    HW2 3526   2.878   1.597   1.568
  874SOL    HW3 3527   2.930   1.456   1.590
  874SOL    MW4 3528   2.938   1.542   1.599
  875SOL     OW 3529   2.734   1.688   1.496
  875SOL    HW2 3530   2.745   1.778   1.524
  875SOL    HW3 3531   2.730   1.692   1.400
  875SOL    MW4 3532   2.735   1.700   1.487
  876SOL     OW 3533   2.777   1.932   1.600
  876SOL    HW2 3534   2.770   1.924   1.695
  876SOL    HW3 3535   2.699   1.980   1.574
  876SOL    MW4 3536   2.766   1.937   1.609
  877SOL     OW 3537   2.979   2.057   1.459
  877SOL    HW2 3538   2.956   2.139   1.502
  877SOL    HW3 3539   2.922   1.992   1.501
  877SOL    MW4 3540   2.968   2.059   1.470
  878SOL     OW 3541   2.962   2.282   1.610
  878SOL    HW2 3542   2.954   2.291   1.705
  878SOL    HW3 3543   2.886   2.328   1.575
  878SOL    MW4 3544   2.951   2.289   1.618
  879SOL     OW 3545   2.748   2.440   1.521
  879SOL    HW2 3546   2.738   2.530   1.551
  879SOL    HW3 3547   2.667   2.396   1.547
  879SOL    MW4 3548   2.736   2.446   1.528
  880SOL     OW 3549   2.709   2.699   1.630
  880SOL    HW2 3550   2.783   2.736   1.583
  880SOL    HW3 3551   2.635   2.755   1.606
  880SOL    MW4 3552   2.709   2.711   1.621
  881SOL     OW 3553   2.935   2.796   1.490
  881SOL    HW2 3554   3.004   2.758   1.544
  881SOL    HW3 3555   2.924   2.885   1.525
  881SOL    MW4 3556   2.942   2.803   1.502
  882SOL     OW 3557   2.926   3.067   1.605
  882SOL    HW2 3558   2.910   3.078   1.698
  882SOL    HW3 3559   3.008   3.114   1.588
  882SOL    MW4 3560   2.935   3.075   1.615
  883SOL     OW 3561   2.717   3.225   1.538
  883SOL    HW2 3562   2.798   3.179   1.558
  883SOL    HW3 3563   2.715   3.232   1.443
  883SOL    MW4 3564   2.727   3.220   1.528
  884SOL     OW 3565   2.722   3.493   1.608
  884SOL    HW2 3566   2.703   3.508   1.701
  884SOL    HW3 3567   2.720   3.398   1.598
  884SOL    MW4 3568   2.719   3.483   1.619
  885SOL     OW 3569   2.926   3.643   1.485
  885SOL    HW2 3570   2.852   3.599   1.525
  885SOL    HW3 3571   2.911   3.635   1.391
  885SOL    MW4 3572   2.915   3.636   1.478
  886SOL     OW 3573   2.905   3.893   1.614
  886SOL    HW2 3574   2.829   3.928   1.568
  886SOL    HW3 3575   2.928   3.814   1.564
  886SOL    MW4 3576   2.898   3.887   1.601
  887SOL     OW 3577   2.673   3.984   1.486
  887SOL    HW2 3578   2.644   4.070   1.515
  887SOL    HW3 3579   2.679   3.990   1.391
  887SOL    MW4 3580   2.670   3.996   1.477
  888SOL     OW 3581   2.626   4.210   1.605
  888SOL    HW2 3582   2.711   4.253   1.595
  888SOL    HW3 3583   2.565   4.265   1.556
  888SOL    MW4 3584   2.629   4.222   1.597
  889SOL     OW 3585   2.857   4.349   1.540
  889SOL    HW2 3586   2.853   4.437   1.579
  889SOL    HW3 3587   2.834   4.363   1.448
  889SOL    MW4 3588   2.854   4.363   1.533
  890SOL     OW 3589   3.359   4.618   1.611
  890SOL    HW2 3590   3.446   4.656   1.601
  890SOL    HW3 3591   3.368   4.527   1.581
  890SOL    MW4 3592   3.372   4.611   1.605
  891SOL     OW 3593   3.093   0.079   1.551
  891SOL    HW2 3594   3.175   0.035   1.575
  891SOL    HW3 3595   3.025   0.017   1.575
  891SOL    MW4 3596   3.095   0.065   1.557
  892SOL     OW 3597   3.096   0.343   1.633
  892SOL    HW2 3598   3.073   0.256   1.600
  892SOL    HW3 3599   3.031   0.401   1.593
  892SOL    MW4 3600   3.085   0.339   1.623
  893SOL     OW 3601   3.329   0.453   1.537
  893SOL    HW2 3602   3.250   0.404   1.560
  893SOL    HW3 3603   3.331   0.452   1.442
  893SOL    MW4 3604   3.319   0.446   1.528
  894SOL     OW 3605   3.357   0.742   1.605
  894SOL    HW2 3606   3.378   0.727   1.697
  894SOL    HW3 3607   3.349   0.655   1.567
  894SOL    MW4 3608   3.359   0.728   1.612
  895SOL     OW 3609   3.113   0.889   1.519
  895SOL    HW2 3610   3.178   0.834   1.562
  895SOL    HW3 3611   3.029   0.848   1.542
  895SOL    MW4 3612   3.110   0.876   1.528
  896SOL     OW 3613   3.136   1.158   1.616
  896SOL    HW2 3614   3.136   1.153   1.712
  896SOL    HW3 3615   3.125   1.067   1.588
  896SOL    MW4 3616   3.134   1.145   1.625
  897SOL     OW 3617   3.354   1.265   1.476
  897SOL    HW2 3618   3.438   1.224   1.498
  897SOL    HW3 3619   3.289   1.218   1.528
  897SOL    MW4 3620   3.357   1.253   1.486
  898SOL     OW 3621   3.370   1.524   1.589
  898SOL    HW2 3622   3.361   1.516   1.684
  898SOL    HW3 3623   3.357   1.435   1.556
  898SOL    MW4 3624   3.367   1.511   1.597
  899SOL     OW 3625   3.156   1.690   1.507
  899SOL    HW2 3626   3.224   1.628   1.534
  899SOL    HW3 3627   3.075   1.650   1.537
  899SOL    MW4 3628   3.154   1.676   1.515
  900SOL     OW 3629   3.195   1.939   1.619
  900SOL    HW2 3630   3.189   1.848   1.589
  900SOL    HW3 3631   3.126   1.984   1.571
  900SOL    MW4 3632   3.185   1.933   1.609
  901SOL     OW 3633   3.424   2.044   1.524
  901SOL    HW2 3634   3.351   1.998   1.567
  901SOL    HW3 3635   3.403   2.041   1.431
  901SOL    MW4 3636   3.412   2.038   1.517
  902SOL     OW 3637   3.382   2.305   1.589
  902SOL    HW2 3638   3.457   2.363   1.582
  902SOL    HW3 3639   3.411   2.222   1.552
  902SOL    MW4 3640   3.395   2.301   1.583
  903SOL     OW 3641   3.167   2.437   1.469
  903SOL    HW2 3642   3.238   2.386   1.508
  903SOL    HW3 3643   3.088   2.406   1.512
  903SOL    MW4 3644   3.166   2.426   1.480
  904SOL     OW 3645   3.171   2.673   1.603
  904SOL    HW2 3646   3.248   2.722   1.575
  904SOL    HW3 3647   3.185   2.585   1.566
  904SOL    MW4 3648   3.183   2.668   1.594
  905SOL     OW 3649   3.389   2.826   1.529
  905SOL    HW2 3650   3.370   2.912   1.566
  905SOL    HW3 3651   3.393   2.841   1.434
  905SOL    MW4 3652   3.387   2.839   1.521
  906SOL     OW 3653   3.371   3.090   1.614
  906SOL    HW2 3654   3.361   3.090   1.709
  906SOL    HW3 3655   3.445   3.149   1.597
  906SOL    MW4 3656   3.380   3.098   1.624
  907SOL     OW 3657   3.137   3.233   1.511
  907SOL    HW2 3658   3.216   3.189   1.540
  907SOL    HW3 3659   3.146   3.238   1.415
  907SOL    MW4 3660   3.148   3.228   1.502
  908SOL     OW 3661   3.144   3.501   1.616
  908SOL    HW2 3662   3.121   3.413   1.587
  908SOL    HW3 3663   3.076   3.558   1.579
  908SOL    MW4 3664   3.132   3.497   1.607
  909SOL     OW 3665   3.362   3.613   1.488
  909SOL    HW2 3666   3.436   3.567   1.528
  909SOL    HW3 3667   3.285   3.566   1.520
  909SOL    MW4 3668   3.362   3.601   1.498
  910SOL     OW 3669   3.386   3.853   1.631
  910SOL    HW2 3670   3.312   3.902   1.595
  910SOL    HW3 3671   3.377   3.765   1.596
  910SOL    MW4 3672   3.375   3.848   1.621
  911SOL     OW 3673   3.163   3.985   1.562
  911SOL    HW2 3674   3.159   4.079   1.579
  911SOL    HW3 3675   3.077   3.952   1.590
  911SOL    MW4 3676   3.151   3.993   1.568
  912SOL     OW 3677   3.116   4.251   1.594
  912SOL    HW2 3678   3.116   4.277   1.686
  912SOL    HW3 3679   3.028   4.272   1.562
  912SOL    MW4 3680   3.105   4.257   1.602
  913SOL     OW 3681   3.358   4.363   1.526
  913SOL    HW2 3682   3.276   4.318   1.545
  913SOL    HW3 3683   3.368   4.357   1.431
  913SOL    MW4 3684   3.349   4.356   1.516
  914SOL     OW 3685   3.839   4.633   1.623
  914SOL    HW2 3686   3.825   4.667   1.711
  914SOL    HW3 3687   3.904   4.692   1.585
  914SOL    MW4 3688   3.846   4.645   1.630
  915SOL     OW 3689   3.619   0.090   1.514
  915SOL    HW2 3690   3.698   0.041   1.535
  915SOL    HW3 3691   3.610   0.082   1.419
  915SOL    MW4 3692   3.628   0.083   1.504
  916SOL     OW 3693   3.603   0.371   1.577
  916SOL    HW2 3694   3.615   0.277   1.565
  916SOL    HW3 3695   3.509   0.385   1.573
  916SOL    MW4 3696   3.592   0.361   1.575
  917SOL     OW 3697   3.816   0.511   1.500
  917SOL    HW2 3698   3.735   0.475   1.535
  917SOL    HW3 3699   3.802   0.515   1.406
  917SOL    MW4 3700   3.804   0.507   1.492
  918SOL     OW 3701   3.810   0.766   1.646
  918SOL    HW2 3702   3.747   0.827   1.609
  918SOL    HW3 3703   3.808   0.691   1.586
  918SOL    MW4 3704   3.801   0.764   1.633
  919SOL     OW 3705   3.581   0.895   1.531
  919SOL    HW2 3706   3.500   0.848   1.549
  919SOL    HW3 3707   3.586   0.898   1.435
  919SOL    MW4 3708   3.571   0.889   1.521
  920SOL     OW 3709   3.601   1.158   1.580
  920SOL    HW2 3710   3.681   1.195   1.541
  920SOL    HW3 3711   3.605   1.065   1.558
  920SOL    MW4 3712   3.612   1.150   1.572
  921SOL     OW 3713   3.824   1.260   1.485
  921SOL    HW2 3714   3.899   1.211   1.517
  921SOL    HW3 3715   3.827   1.342   1.534
  921SOL    MW4 3716   3.835   1.265   1.496
  922SOL     OW 3717   3.820   1.497   1.645
  922SOL    HW2 3718   3.817   1.530   1.735
  922SOL    HW3 3719   3.739   1.529   1.605
  922SOL    MW4 3720   3.809   1.506   1.652
  923SOL     OW 3721   3.616   1.638   1.520
  923SOL    HW2 3722   3.534   1.603   1.554
  923SOL    HW3 3723   3.605   1.641   1.425
  923SOL    MW4 3724   3.604   1.634   1.512
  924SOL     OW 3725   3.646   1.911   1.573
  924SOL    HW2 3726   3.621   1.820   1.556
  924SOL    HW3 3727   3.567   1.961   1.553
  924SOL    MW4 3728   3.632   1.905   1.568
  925SOL     OW 3729   3.864   2.053   1.484
  925SOL    HW2 3730   3.843   2.139   1.522
  925SOL    HW3 3731   3.792   1.997   1.512
  925SOL    MW4 3732   3.852   2.057   1.493
  926SOL     OW 3733   3.803   2.276   1.618
  926SOL    HW2 3734   3.825   2.276   1.711
  926SOL    HW3 3735   3.871   2.329   1.577
  926SOL    MW4 3736   3.815   2.283   1.625
  927SOL     OW 3737   3.611   2.450   1.497
  927SOL    HW2 3738   3.628   2.542   1.517
  927SOL    HW3 3739   3.677   2.402   1.546
  927SOL    MW4 3740   3.622   2.456   1.506
  928SOL     OW 3741   3.630   2.708   1.632
  928SOL    HW2 3742   3.626   2.697   1.727
  928SOL    HW3 3743   3.553   2.761   1.611
  928SOL    MW4 3744   3.619   2.713   1.642
  929SOL     OW 3745   3.834   2.823   1.493
  929SOL    HW2 3746   3.907   2.762   1.506
  929SOL    HW3 3747   3.762   2.784   1.542
  929SOL    MW4 3748   3.834   2.810   1.501
  930SOL     OW 3749   3.832   3.082   1.615
  930SOL    HW2 3750   3.918   3.122   1.602
  930SOL    HW3 3751   3.847   2.989   1.600
  930SOL    MW4 3752   3.845   3.075   1.612
  931SOL     OW 3753   3.583   3.239   1.526
  931SOL    HW2 3754   3.663   3.188   1.542
  931SOL    HW3 3755   3.579   3.247   1.431
  931SOL    MW4 3756   3.593   3.234   1.515
  932SOL     OW 3757   3.580   3.494   1.613
  932SOL    HW2 3758   3.666   3.534   1.597
  932SOL    HW3 3759   3.587   3.406   1.577
  932SOL    MW4 3760   3.593   3.488   1.606
  933SOL     OW 3761   3.825   3.574   1.507
  933SOL    HW2 3762   3.915   3.545   1.517
  933SOL    HW3 3763   3.823   3.662   1.544
  933SOL    MW4 3764   3.836   3.582   1.513
  934SOL     OW 3765   3.822   3.836   1.614
  934SOL    HW2 3766   3.900   3.880   1.582
  934SOL    HW3 3767   3.749   3.882   1.572
  934SOL    MW4 3768   3.822   3.848   1.604
  935SOL     OW 3769   3.604   3.983   1.517
  935SOL    HW2 3770   3.586   4.075   1.534
  935SOL    HW3 3771   3.527   3.936   1.549
  935SOL    MW4 3772   3.592   3.989   1.523
  936SOL     OW 3773   3.589   4.245   1.636
  936SOL    HW2 3774   3.582   4.218   1.727
  936SOL    HW3 3775   3.503   4.280   1.614
  936SOL    MW4 3776   3.577   4.246   1.645
  937SOL     OW 3777   3.858   4.348   1.574
  937SOL    HW2 3778   3.781   4.301   1.606
  937SOL    HW3 3779   3.843   4.439   1.599
  937SOL    MW4 3780   3.846   4.354   1.581
  938SOL     OW 3781   4.266   4.653   1.601
  938SOL    HW2 3782   4.262   4.650   1.697
  938SOL    HW3 3783   4.244   4.564   1.574
  938SOL    MW4 3784   4.263   4.641   1.610
  939SOL     OW 3785   4.042   0.126   1.537
  939SOL    HW2 3786   4.040   0.219   1.559
  939SOL    HW3 3787   4.128   0.096   1.564
  939SOL    MW4 3788   4.053   0.134   1.544
  940SOL     OW 3789   4.058   0.391   1.627
  940SOL    HW2 3790   4.049   0.391   1.722
  940SOL    HW3 3791   3.987   0.447   1.596
  940SOL    MW4 3792   4.047   0.398   1.636
  941SOL     OW 3793   4.271   0.495   1.494
  941SOL    HW2 3794   4.200   0.453   1.544
  941SOL    HW3 3795   4.351   0.453   1.526
  941SOL    MW4 3796   4.272   0.484   1.505
  942SOL     OW 3797   4.285   0.751   1.619
  942SOL    HW2 3798   4.285   0.668   1.571
  942SOL    HW3 3799   4.368   0.792   1.595
  942SOL    MW4 3800   4.296   0.745   1.610
  943SOL     OW 3801   4.041   0.893   1.551
  943SOL    HW2 3802   4.116   0.843   1.583
  943SOL    HW3 3803   3.965   0.846   1.585
  943SOL    MW4 3804   4.041   0.880   1.559
  944SOL     OW 3805   4.057   1.161   1.594
  944SOL    HW2 3806   4.045   1.175   1.688
  944SOL    HW3 3807   4.056   1.065   1.584
  944SOL    MW4 3808   4.055   1.150   1.605
  945SOL     OW 3809   4.291   1.307   1.565
  945SOL    HW2 3810   4.209   1.263   1.587
  945SOL    HW3 3811   4.359   1.252   1.604
  945SOL    MW4 3812   4.289   1.294   1.573
  946SOL     OW 3813   4.239   1.591   1.611
  946SOL    HW2 3814   4.241   1.496   1.597
  946SOL    HW3 3815   4.321   1.622   1.572
  946SOL    MW4 3816   4.250   1.582   1.604
  947SOL     OW 3817   4.004   1.659   1.495
  947SOL    HW2 3818   4.092   1.635   1.526
  947SOL    HW3 3819   3.946   1.596   1.536
  947SOL    MW4 3820   4.008   1.648   1.505
  948SOL     OW 3821   4.028   1.907   1.636
  948SOL    HW2 3822   4.006   1.833   1.579
  948SOL    HW3 3823   3.977   1.980   1.602
  948SOL    MW4 3824   4.019   1.907   1.624
  949SOL     OW 3825   4.248   2.021   1.540
  949SOL    HW2 3826   4.171   1.969   1.563
  949SOL    HW3 3827   4.238   2.039   1.447
  949SOL    MW4 3828   4.236   2.017   1.531
  950SOL     OW 3829   4.269   2.300   1.587
  950SOL    HW2 3830   4.278   2.307   1.682
  950SOL    HW3 3831   4.256   2.207   1.570
  950SOL    MW4 3832   4.269   2.289   1.597
  951SOL     OW 3833   4.031   2.411   1.522
  951SOL    HW2 3834   4.050   2.505   1.521
  951SOL    HW3 3835   4.113   2.370   1.551
  951SOL    MW4 3836   4.045   2.418   1.526
  952SOL     OW 3837   4.056   2.679   1.563
  952SOL    HW2 3838   4.042   2.677   1.658
  952SOL    HW3 3839   4.129   2.740   1.552
  952SOL    MW4 3840   4.064   2.687   1.574
  953SOL     OW 3841   4.280   2.827   1.522
  953SOL    HW2 3842   4.297   2.915   1.553
  953SOL    HW3 3843   4.283   2.834   1.427
  953SOL    MW4 3844   4.283   2.839   1.514
  954SOL     OW 3845   4.331   3.088   1.631
  954SOL    HW2 3846   4.326   3.079   1.726
  954SOL    HW3 3847   4.414   3.133   1.615
  954SOL    MW4 3848   4.341   3.093   1.641
  955SOL     OW 3849   4.081   3.185   1.557
  955SOL    HW2 3850   4.081   3.280   1.567
  955SOL    HW3 3851   4.166   3.157   1.590
  955SOL    MW4 3852   4.092   3.194   1.562
  956SOL     OW 3853   4.062   3.471   1.593
  956SOL    HW2 3854   4.058   3.477   1.689
  956SOL    HW3 3855   4.136   3.526   1.568
  956SOL    MW4 3856   4.071   3.479   1.603
  957SOL     OW 3857   4.270   3.617   1.499
  957SOL    HW2 3858   4.276   3.706   1.533
  957SOL    HW3 3859   4.257   3.628   1.405
  957SOL    MW4 3860   4.269   3.630   1.491
  958SOL     OW 3861   4.275   3.881   1.598
  958SOL    HW2 3862   4.195   3.920   1.561
  958SOL    HW3 3863   4.345   3.939   1.569
  958SOL    MW4 3864   4.274   3.894   1.589
  959SOL     OW 3865   4.041   3.967   1.500
  959SOL    HW2 3866   4.051   4.055   1.536
  959SOL    HW3 3867   4.056   3.978   1.406
  959SOL    MW4 3868   4.044   3.980   1.492
  960SOL     OW 3869   4.071   4.201   1.641
  960SOL    HW2 3870   4.073   4.217   1.735
  960SOL    HW3 3871   3.994   4.249   1.610
  960SOL    MW4 3872   4.061   4.209   1.649
  961SOL     OW 3873   4.248   4.385   1.505
  961SOL    HW2 3874   4.171   4.330   1.520
  961SOL    HW3 3875   4.249   4.400   1.411
  961SOL    MW4 3876   4.238   4.379   1.495
  962SOL     OW 3877   0.212   4.618   1.887
  962SOL    HW2 3878   0.282   4.667   1.930
  962SOL    HW3 3879   0.231   4.627   1.793
  962SOL    MW4 3880   0.224   4.626   1.880
  963SOL     OW 3881   0.008   0.107   2.018
  963SOL    HW2 3882   0.009   0.184   1.960
  963SOL    HW3 3883   0.074   0.049   1.981
  963SOL    MW4 3884   0.017   0.110   2.005
  964SOL     OW 3885   4.486   0.351   1.882
  964SOL    HW2 3886   4.412   0.396   1.923
  964SOL    HW3 3887   4.563   0.382   1.930
  964SOL    MW4 3888   4.486   0.361   1.894
  965SOL     OW 3889   0.195   0.485   2.000
  965SOL    HW2 3890   0.268   0.432   1.970
  965SOL    HW3 3891   0.223   0.576   1.987
  965SOL    MW4 3892   0.208   0.490   1.994
  966SOL     OW 3893   0.235   0.767   1.917
  966SOL    HW2 3894   0.319   0.805   1.942
  966SOL    HW3 3895   0.243   0.752   1.822
  966SOL    MW4 3896   0.247   0.770   1.907
  967SOL     OW 3897   4.482   0.882   2.009
  967SOL    HW2 3898   4.402   0.834   1.990
  967SOL    HW3 3899   4.552   0.831   1.969
  967SOL    MW4 3900   4.480   0.869   2.001
  968SOL     OW 3901   0.002   1.158   1.912
  968SOL    HW2 3902  -0.069   1.212   1.946
  968SOL    HW3 3903  -0.012   1.072   1.953
  968SOL    MW4 3904  -0.009   1.154   1.922
  969SOL     OW 3905   0.240   1.302   1.979
  969SOL    HW2 3906   0.212   1.393   1.974
  969SOL    HW3 3907   0.166   1.252   1.944
  969SOL    MW4 3908   0.227   1.307   1.973
  970SOL     OW 3909   0.211   1.570   1.921
  970SOL    HW2 3910   0.288   1.617   1.955
  970SOL    HW3 3911   0.136   1.622   1.949
  970SOL    MW4 3912   0.211   1.583   1.929
  971SOL     OW 3913   4.462   1.730   1.995
  971SOL    HW2 3914   4.473   1.707   2.088
  971SOL    HW3 3915   4.379   1.689   1.971
  971SOL    MW4 3916   4.452   1.721   2.004
  972SOL     OW 3917   0.022   1.983   1.866
  972SOL    HW2 3918  -0.061   2.023   1.891
  972SOL    HW3 3919   0.013   1.891   1.893
  972SOL    MW4 3920   0.010   1.976   1.873
  973SOL     OW 3921   0.249   2.088   1.998
  973SOL    HW2 3922   0.254   2.173   1.954
  973SOL    HW3 3923   0.164   2.052   1.972
  973SOL    MW4 3924   0.239   2.094   1.989
  974SOL     OW 3925   0.236   2.291   1.824
  974SOL    HW2 3926   0.317   2.342   1.827
  974SOL    HW3 3927   0.176   2.339   1.881
  974SOL    MW4 3928   0.239   2.304   1.832
  975SOL     OW 3929   0.054   2.446   1.958
  975SOL    HW2 3930   0.039   2.483   2.045
  975SOL    HW3 3931   0.061   2.522   1.900
  975SOL    MW4 3932   0.053   2.461   1.962
  976SOL     OW 3933   0.047   2.697   1.844
  976SOL    HW2 3934  -0.041   2.729   1.868
  976SOL    HW3 3935   0.055   2.717   1.751
  976SOL    MW4 3936   0.036   2.704   1.835
  977SOL     OW 3937   0.235   2.808   2.010
  977SOL    HW2 3938   0.236   2.902   1.994
  977SOL    HW3 3939   0.161   2.775   1.959
  977SOL    MW4 3940   0.225   2.816   2.001
  978SOL     OW 3941   0.255   3.079   1.927
  978SOL    HW2 3942   0.311   3.148   1.965
  978SOL    HW3 3943   0.250   3.101   1.834
  978SOL    MW4 3944   0.262   3.091   1.920
  979SOL     OW 3945   0.038   3.216   2.015
  979SOL    HW2 3946  -0.036   3.164   1.984
  979SOL    HW3 3947   0.116   3.167   1.990
  979SOL    MW4 3948   0.038   3.203   2.008
  980SOL     OW 3949   4.473   3.471   1.888
  980SOL    HW2 3950   4.538   3.530   1.928
  980SOL    HW3 3951   4.487   3.387   1.932
  980SOL    MW4 3952   4.483   3.468   1.899
  981SOL     OW 3953   0.188   3.615   1.983
  981SOL    HW2 3954   0.205   3.602   2.076
  981SOL    HW3 3955   0.263   3.573   1.939
  981SOL    MW4 3956   0.200   3.608   1.989
  982SOL     OW 3957   0.214   3.870   1.892
  982SOL    HW2 3958   0.296   3.896   1.934
  982SOL    HW3 3959   0.194   3.784   1.928
  982SOL    MW4 3960   0.222   3.862   1.902
  983SOL     OW 3961   4.459   4.023   1.952
  983SOL    HW2 3962   4.476   4.108   1.911
  983SOL    HW3 3963   4.540   3.974   1.938
  983SOL    MW4 3964   4.472   4.028   1.945
  984SOL     OW 3965   4.490   4.285   1.840
  984SOL    HW2 3966   4.415   4.331   1.878
  984SOL    HW3 3967   4.565   4.315   1.892
  984SOL    MW4 3968   4.490   4.295   1.852
  985SOL     OW 3969   0.226   4.378   1.992
  985SOL    HW2 3970   0.217   4.389   2.086
  985SOL    HW3 3971   0.225   4.467   1.956
  985SOL    MW4 3972   0.225   4.391   1.999
  986SOL     OW 3973   0.633   4.662   1.913
  986SOL    HW2 3974   0.662   4.576   1.942
  986SOL    HW3 3975   0.652   4.664   1.819
  986SOL    MW4 3976   0.639   4.651   1.905
  987SOL     OW 3977   0.397   0.113   1.981
  987SOL    HW2 3978   0.409   0.208   1.979
  987SOL    HW3 3979   0.478   0.078   1.944
  987SOL    MW4 3980   0.410   0.121   1.976
  988SOL     OW 3981   0.445   0.402   1.922
  988SOL    HW2 3982   0.525   0.442   1.955
  988SOL    HW3 3983   0.460   0.391   1.828
  988SOL    MW4 3984   0.458   0.405   1.914
  989SOL     OW 3985   0.690   0.533   1.993
  989SOL    HW2 3986   0.696   0.507   2.085
  989SOL    HW3 3987   0.769   0.496   1.953
  989SOL    MW4 3988   0.701   0.524   2.000
  990SOL     OW 3989   0.697   0.782   1.893
  990SOL    HW2 3990   0.764   0.835   1.938
  990SOL    HW3 3991   0.697   0.699   1.940
  990SOL    MW4 3992   0.706   0.778   1.905
  991SOL     OW 3993   0.479   0.896   2.002
  991SOL    HW2 3994   0.479   0.978   1.951
  991SOL    HW3 3995   0.548   0.843   1.961
  991SOL    MW4 3996   0.488   0.900   1.990
  992SOL     OW 3997   0.475   1.147   1.868
  992SOL    HW2 3998   0.396   1.195   1.893
  992SOL    HW3 3999   0.464   1.130   1.774
  992SOL    MW4 4000   0.463   1.151   1.859
  993SOL     OW 4001   0.694   1.273   1.997
  993SOL    HW2 4002   0.686   1.246   2.089
  993SOL    HW3 4003   0.623   1.226   1.952
  993SOL    MW4 4004   0.683   1.263   2.004
  994SOL     OW 4005   0.681   1.519   1.889
  994SOL    HW2 4006   0.670   1.433   1.930
  994SOL    HW3 4007   0.664   1.504   1.796
  994SOL    MW4 4008   0.677   1.506   1.882
  995SOL     OW 4009   0.470   1.697   1.975
  995SOL    HW2 4010   0.486   1.688   2.069
  995SOL    HW3 4011   0.542   1.651   1.933
  995SOL    MW4 4012   0.481   1.690   1.982
  996SOL     OW 4013   0.448   1.949   1.871
  996SOL    HW2 4014   0.453   1.863   1.912
  996SOL    HW3 4015   0.378   1.994   1.918
  996SOL    MW4 4016   0.439   1.943   1.883
  997SOL     OW 4017   0.691   2.067   1.973
  997SOL    HW2 4018   0.672   2.078   2.066
  997SOL    HW3 4019   0.617   2.019   1.938
  997SOL    MW4 4020   0.679   2.062   1.981
  998SOL     OW 4021   0.658   2.313   1.855
  998SOL    HW2 4022   0.683   2.223   1.877
  998SOL    HW3 4023   0.658   2.315   1.759
  998SOL    MW4 4024   0.661   2.301   1.845
  999SOL     OW 4025   0.424   2.410   1.988
  999SOL    HW2 4026   0.417   2.430   2.082
  999SOL    HW3 4027   0.513   2.375   1.979
  999SOL    MW4 4028   0.435   2.408   1.999
 1000SOL     OW 4029   0.432   2.663   1.878
 1000SOL    HW2 4030   0.431   2.579   1.923
 1000SOL    HW3 4031   0.365   2.716   1.923
 1000SOL    MW4 4032   0.423   2.659   1.890
 1001SOL     OW 4033   0.646   2.832   1.936
 1001SOL    HW2 4034   0.641   2.842   2.031
 1001SOL    HW3 4035   0.574   2.773   1.914
 1001SOL    MW4 4036   0.636   2.825   1.946
 1002SOL     OW 4037   0.644   3.108   1.880
 1002SOL    HW2 4038   0.640   3.015   1.903
 1002SOL    HW3 4039   0.650   3.110   1.785
 1002SOL    MW4 4040   0.644   3.096   1.871
 1003SOL     OW 4041   0.429   3.274   2.027
 1003SOL    HW2 4042   0.415   3.353   1.974
 1003SOL    HW3 4043   0.511   3.238   1.994
 1003SOL    MW4 4044   0.438   3.280   2.015
 1004SOL     OW 4045   0.412   3.484   1.855
 1004SOL    HW2 4046   0.496   3.516   1.889
 1004SOL    HW3 4047   0.425   3.475   1.761
 1004SOL    MW4 4048   0.425   3.487   1.847
 1005SOL     OW 4049   0.640   3.597   1.982
 1005SOL    HW2 4050   0.718   3.545   1.964
 1005SOL    HW3 4051   0.666   3.687   1.964
 1005SOL    MW4 4052   0.653   3.602   1.977
 1006SOL     OW 4053   0.722   3.854   1.919
 1006SOL    HW2 4054   0.798   3.903   1.952
 1006SOL    HW3 4055   0.739   3.846   1.825
 1006SOL    MW4 4056   0.735   3.859   1.911
 1007SOL     OW 4057   0.476   3.952   2.008
 1007SOL    HW2 4058   0.481   4.040   1.970
 1007SOL    HW3 4059   0.561   3.913   1.988
 1007SOL    MW4 4060   0.488   3.959   2.000
 1008SOL     OW 4061   0.439   4.223   1.892
 1008SOL    HW2 4062   0.360   4.272   1.915
 1008SOL    HW3 4063   0.453   4.243   1.799
 1008SOL    MW4 4064   0.430   4.232   1.882
 1009SOL     OW 4065   0.644   4.379   1.981
 1009SOL    HW2 4066   0.722   4.344   1.938
 1009SOL    HW3 4067   0.572   4.324   1.950
 1009SOL    MW4 4068   0.645   4.367   1.971
 1010SOL     OW 4069   1.091   0.030   1.894
 1010SOL    HW2 4070   1.165   0.082   1.926
 1010SOL    HW3 4071   1.107  -0.058   1.927
 1010SOL    MW4 4072   1.103   0.025   1.903
 1011SOL     OW 4073   0.874   0.142   1.995
 1011SOL    HW2 4074   0.940   0.091   1.949
 1011SOL    HW3 4075   0.793   0.127   1.946
 1011SOL    MW4 4076   0.872   0.133   1.983
 1012SOL     OW 4077   0.902   0.386   1.892
 1012SOL    HW2 4078   0.981   0.425   1.931
 1012SOL    HW3 4079   0.891   0.303   1.937
 1012SOL    MW4 4080   0.911   0.380   1.903
 1013SOL     OW 4081   1.130   0.493   2.015
 1013SOL    HW2 4082   1.213   0.465   1.976
 1013SOL    HW3 4083   1.119   0.583   1.984
 1013SOL    MW4 4084   1.139   0.501   2.005
 1014SOL     OW 4085   1.132   0.748   1.913
 1014SOL    HW2 4086   1.209   0.797   1.942
 1014SOL    HW3 4087   1.058   0.795   1.951
 1014SOL    MW4 4088   1.133   0.761   1.922
 1015SOL     OW 4089   0.908   0.928   1.998
 1015SOL    HW2 4090   0.896   0.935   2.093
 1015SOL    HW3 4091   0.935   1.015   1.970
 1015SOL    MW4 4092   0.910   0.940   2.007
 1016SOL     OW 4093   0.950   1.197   1.896
 1016SOL    HW2 4094   0.869   1.235   1.930
 1016SOL    HW3 4095   0.937   1.194   1.801
 1016SOL    MW4 4096   0.937   1.201   1.888
 1017SOL     OW 4097   1.190   1.294   1.992
 1017SOL    HW2 4098   1.186   1.389   1.985
 1017SOL    HW3 4099   1.103   1.264   1.966
 1017SOL    MW4 4100   1.178   1.302   1.988
 1018SOL     OW 4101   1.167   1.564   1.938
 1018SOL    HW2 4102   1.080   1.589   1.970
 1018SOL    HW3 4103   1.153   1.549   1.844
 1018SOL    MW4 4104   1.153   1.565   1.930
 1019SOL     OW 4105   0.908   1.650   2.006
 1019SOL    HW2 4106   0.915   1.738   1.971
 1019SOL    HW3 4107   0.833   1.611   1.960
 1019SOL    MW4 4108   0.899   1.656   1.996
 1020SOL     OW 4109   0.915   1.923   1.887
 1020SOL    HW2 4110   0.842   1.969   1.928
 1020SOL    HW3 4111   0.897   1.928   1.793
 1020SOL    MW4 4112   0.903   1.930   1.880
 1021SOL     OW 4113   1.151   2.050   1.937
 1021SOL    HW2 4114   1.130   2.137   1.903
 1021SOL    HW3 4115   1.073   1.997   1.918
 1021SOL    MW4 4116   1.138   2.054   1.930
 1022SOL     OW 4117   1.101   2.308   1.890
 1022SOL    HW2 4118   1.177   2.350   1.932
 1022SOL    HW3 4119   1.113   2.325   1.797
 1022SOL    MW4 4120   1.112   2.316   1.884
 1023SOL     OW 4121   0.868   2.459   1.993
 1023SOL    HW2 4122   0.936   2.405   1.951
 1023SOL    HW3 4123   0.786   2.421   1.964
 1023SOL    MW4 4124   0.866   2.447   1.984
 1024SOL     OW 4125   0.887   2.728   1.902
 1024SOL    HW2 4126   0.883   2.645   1.948
 1024SOL    HW3 4127   0.798   2.763   1.905
 1024SOL    MW4 4128   0.875   2.722   1.908
 1025SOL     OW 4129   1.136   2.851   1.984
 1025SOL    HW2 4130   1.129   2.866   2.079
 1025SOL    HW3 4131   1.055   2.804   1.962
 1025SOL    MW4 4132   1.124   2.847   1.994
 1026SOL     OW 4133   1.147   3.109   1.847
 1026SOL    HW2 4134   1.068   3.149   1.882
 1026SOL    HW3 4135   1.148   3.021   1.886
 1026SOL    MW4 4136   1.137   3.102   1.857
 1027SOL     OW 4137   0.885   3.207   1.954
 1027SOL    HW2 4138   0.896   3.185   2.047
 1027SOL    HW3 4139   0.798   3.174   1.932
 1027SOL    MW4 4140   0.875   3.200   1.964
 1028SOL     OW 4141   0.890   3.480   1.901
 1028SOL    HW2 4142   0.899   3.385   1.904
 1028SOL    HW3 4143   0.861   3.498   1.812
 1028SOL    MW4 4144   0.887   3.470   1.890
 1029SOL     OW 4145   1.115   3.604   1.997
 1029SOL    HW2 4146   1.101   3.592   2.090
 1029SOL    HW3 4147   1.035   3.570   1.956
 1029SOL    MW4 4148   1.103   3.598   2.004
 1030SOL     OW 4149   1.168   3.869   1.912
 1030SOL    HW2 4150   1.138   3.788   1.954
 1030SOL    HW3 4151   1.164   3.851   1.819
 1030SOL    MW4 4152   1.163   3.856   1.906
 1031SOL     OW 4153   0.935   4.031   1.984
 1031SOL    HW2 4154   0.922   4.006   2.075
 1031SOL    HW3 4155   1.011   3.981   1.956
 1031SOL    MW4 4156   0.943   4.021   1.992
 1032SOL     OW 4157   0.894   4.295   1.884
 1032SOL    HW2 4158   0.956   4.348   1.934
 1032SOL    HW3 4159   0.907   4.206   1.917
 1032SOL    MW4 4160   0.904   4.290   1.895
 1033SOL     OW 4161   1.109   4.424   2.023
 1033SOL    HW2 4162   1.129   4.388   2.109
 1033SOL    HW3 4163   1.167   4.378   1.963
 1033SOL    MW4 4164   1.119   4.413   2.026
 1034SOL     OW 4165   1.519   4.624   1.907
 1034SOL    HW2 4166   1.605   4.664   1.924
 1034SOL    HW3 4167   1.522   4.541   1.954
 1034SOL    MW4 4168   1.531   4.619   1.916
 1035SOL     OW 4169   1.324   0.124   2.021
 1035SOL    HW2 4170   1.321   0.109   2.116
 1035SOL    HW3 4171   1.379   0.053   1.988
 1035SOL    MW4 4172   1.331   0.113   2.030
 1036SOL     OW 4173   1.360   0.377   1.917
 1036SOL    HW2 4174   1.355   0.288   1.952
 1036SOL    HW3 4175   1.347   0.366   1.823
 1036SOL    MW4 4176   1.358   0.364   1.909
 1037SOL     OW 4177   1.589   0.497   2.023
 1037SOL    HW2 4178   1.650   0.447   1.970
 1037SOL    HW3 4179   1.503   0.469   1.994
 1037SOL    MW4 4180   1.586   0.487   2.012
 1038SOL     OW 4181   1.603   0.764   1.897
 1038SOL    HW2 4182   1.665   0.824   1.938
 1038SOL    HW3 4183   1.620   0.680   1.938
 1038SOL    MW4 4184   1.614   0.761   1.908
 1039SOL     OW 4185   1.364   0.895   2.004
 1039SOL    HW2 4186   1.379   0.896   2.098
 1039SOL    HW3 4187   1.436   0.842   1.969
 1039SOL    MW4 4188   1.376   0.888   2.011
 1040SOL     OW 4189   1.350   1.124   1.847
 1040SOL    HW2 4190   1.343   1.052   1.910
 1040SOL    HW3 4191   1.296   1.194   1.884
 1040SOL    MW4 4192   1.342   1.123   1.860
 1041SOL     OW 4193   1.575   1.236   1.963
 1041SOL    HW2 4194   1.575   1.329   1.941
 1041SOL    HW3 4195   1.496   1.202   1.920
 1041SOL    MW4 4196   1.564   1.244   1.954
 1042SOL     OW 4197   1.593   1.493   1.887
 1042SOL    HW2 4198   1.674   1.542   1.899
 1042SOL    HW3 4199   1.526   1.547   1.929
 1042SOL    MW4 4200   1.595   1.506   1.894
 1043SOL     OW 4201   1.413   1.661   2.039
 1043SOL    HW2 4202   1.411   1.669   2.134
 1043SOL    HW3 4203   1.327   1.626   2.016
 1043SOL    MW4 4204   1.402   1.657   2.049
 1044SOL     OW 4205   1.372   1.884   1.888
 1044SOL    HW2 4206   1.367   1.805   1.940
 1044SOL    HW3 4207   1.299   1.938   1.918
 1044SOL    MW4 4208   1.362   1.881   1.899
 1045SOL     OW 4209   1.600   2.053   1.941
 1045SOL    HW2 4210   1.569   2.132   1.895
 1045SOL    HW3 4211   1.537   1.986   1.919
 1045SOL    MW4 4212   1.588   2.055   1.932
 1046SOL     OW 4213   1.561   2.310   1.822
 1046SOL    HW2 4214   1.633   2.360   1.860
 1046SOL    HW3 4215   1.579   2.311   1.728
 1046SOL    MW4 4216   1.573   2.317   1.815
 1047SOL     OW 4217   1.349   2.427   1.974
 1047SOL    HW2 4218   1.359   2.518   1.944
 1047SOL    HW3 4219   1.416   2.378   1.926
 1047SOL    MW4 4220   1.359   2.433   1.963
 1048SOL     OW 4221   1.372   2.709   1.915
 1048SOL    HW2 4222   1.286   2.738   1.945
 1048SOL    HW3 4223   1.364   2.709   1.819
 1048SOL    MW4 4224   1.360   2.713   1.906
 1049SOL     OW 4225   1.590   2.841   2.007
 1049SOL    HW2 4226   1.660   2.808   1.950
 1049SOL    HW3 4227   1.511   2.798   1.974
 1049SOL    MW4 4228   1.589   2.831   1.995
 1050SOL     OW 4229   1.586   3.096   1.865
 1050SOL    HW2 4230   1.598   3.018   1.919
 1050SOL    HW3 4231   1.561   3.062   1.779
 1050SOL    MW4 4232   1.584   3.081   1.861
 1051SOL     OW 4233   1.360   3.241   1.979
 1051SOL    HW2 4234   1.437   3.191   1.953
 1051SOL    HW3 4235   1.287   3.197   1.937
 1051SOL    MW4 4236   1.361   3.229   1.970
 1052SOL     OW 4237   1.353   3.496   1.908
 1052SOL    HW2 4238   1.352   3.409   1.949
 1052SOL    HW3 4239   1.274   3.539   1.940
 1052SOL    MW4 4240   1.343   3.490   1.918
 1053SOL     OW 4241   1.591   3.631   1.960
 1053SOL    HW2 4242   1.591   3.625   2.056
 1053SOL    HW3 4243   1.514   3.581   1.933
 1053SOL    MW4 4244   1.581   3.624   1.969
 1054SOL     OW 4245   1.589   3.907   1.878
 1054SOL    HW2 4246   1.670   3.943   1.914
 1054SOL    HW3 4247   1.591   3.815   1.901
 1054SOL    MW4 4248   1.600   3.900   1.886
 1055SOL     OW 4249   1.362   4.057   1.952
 1055SOL    HW2 4250   1.448   4.028   1.920
 1055SOL    HW3 4251   1.302   3.988   1.925
 1055SOL    MW4 4252   1.365   4.044   1.944
 1056SOL     OW 4253   1.290   4.309   1.849
 1056SOL    HW2 4254   1.306   4.221   1.883
 1056SOL    HW3 4255   1.282   4.297   1.754
 1056SOL    MW4 4256   1.291   4.296   1.841
 1057SOL     OW 4257   1.548   4.359   1.966
 1057SOL    HW2 4258   1.547   4.352   2.061
 1057SOL    HW3 4259   1.460   4.334   1.939
 1057SOL    MW4 4260   1.536   4.355   1.975
 1058SOL     OW 4261   1.992   4.621   1.869
 1058SOL    HW2 4262   2.070   4.669   1.895
 1058SOL    HW3 4263   1.994   4.541   1.922
 1058SOL    MW4 4264   2.002   4.616   1.879
 1059SOL     OW 4265   1.774   0.103   1.952
 1059SOL    HW2 4266   1.790   0.112   2.046
 1059SOL    HW3 4267   1.850   0.056   1.919
 1059SOL    MW4 4268   1.786   0.098   1.960
 1060SOL     OW 4269   1.794   0.371   1.867
 1060SOL    HW2 4270   1.773   0.279   1.881
 1060SOL    HW3 4271   1.796   0.381   1.771
 1060SOL    MW4 4272   1.791   0.360   1.856
 1061SOL     OW 4273   1.957   0.514   2.029
 1061SOL    HW2 4274   1.972   0.593   1.977
 1061SOL    HW3 4275   1.894   0.464   1.977
 1061SOL    MW4 4276   1.950   0.518   2.015
 1062SOL     OW 4277   2.043   0.741   1.894
 1062SOL    HW2 4278   2.129   0.781   1.909
 1062SOL    HW3 4279   2.035   0.735   1.799
 1062SOL    MW4 4280   2.054   0.746   1.884
 1063SOL     OW 4281   1.833   0.889   1.994
 1063SOL    HW2 4282   1.835   0.973   1.948
 1063SOL    HW3 4283   1.917   0.848   1.973
 1063SOL    MW4 4284   1.844   0.895   1.985
 1064SOL     OW 4285   1.808   1.126   1.865
 1064SOL    HW2 4286   1.718   1.145   1.892
 1064SOL    HW3 4287   1.805   1.128   1.770
 1064SOL    MW4 4288   1.795   1.129   1.856
 1065SOL     OW 4289   2.020   1.245   1.982
 1065SOL    HW2 4290   2.084   1.198   1.929
 1065SOL    HW3 4291   1.935   1.215   1.948
 1065SOL    MW4 4292   2.017   1.235   1.971
 1066SOL     OW 4293   2.036   1.510   1.878
 1066SOL    HW2 4294   2.039   1.418   1.905
 1066SOL    HW3 4295   2.013   1.508   1.786
 1066SOL    MW4 4296   2.033   1.498   1.870
 1067SOL     OW 4297   1.798   1.679   1.927
 1067SOL    HW2 4298   1.814   1.773   1.926
 1067SOL    HW3 4299   1.885   1.640   1.914
 1067SOL    MW4 4300   1.812   1.686   1.925
 1068SOL     OW 4301   1.851   1.956   1.900
 1068SOL    HW2 4302   1.768   1.997   1.923
 1068SOL    HW3 4303   1.853   1.957   1.804
 1068SOL    MW4 4304   1.840   1.961   1.891
 1069SOL     OW 4305   2.064   2.083   2.009
 1069SOL    HW2 4306   2.150   2.045   1.993
 1069SOL    HW3 4307   2.002   2.014   1.985
 1069SOL    MW4 4308   2.067   2.069   2.004
 1070SOL     OW 4309   2.023   2.332   1.876
 1070SOL    HW2 4310   2.090   2.382   1.923
 1070SOL    HW3 4311   2.016   2.250   1.926
 1070SOL    MW4 4312   2.031   2.328   1.889
 1071SOL     OW 4313   1.772   2.454   1.919
 1071SOL    HW2 4314   1.776   2.453   2.014
 1071SOL    HW3 4315   1.851   2.408   1.891
 1071SOL    MW4 4316   1.783   2.448   1.928
 1072SOL     OW 4317   1.791   2.727   1.848
 1072SOL    HW2 4318   1.772   2.634   1.866
 1072SOL    HW3 4319   1.800   2.731   1.753
 1072SOL    MW4 4320   1.789   2.715   1.838
 1073SOL     OW 4321   2.050   2.804   1.960
 1073SOL    HW2 4322   2.031   2.818   2.053
 1073SOL    HW3 4323   1.968   2.771   1.924
 1073SOL    MW4 4324   2.037   2.801   1.967
 1074SOL     OW 4325   2.053   3.078   1.886
 1074SOL    HW2 4326   1.973   3.103   1.933
 1074SOL    HW3 4327   2.065   2.985   1.907
 1074SOL    MW4 4328   2.044   3.069   1.895
 1075SOL     OW 4329   1.815   3.200   1.975
 1075SOL    HW2 4330   1.797   3.219   2.067
 1075SOL    HW3 4331   1.735   3.159   1.943
 1075SOL    MW4 4332   1.802   3.197   1.983
 1076SOL     OW 4333   1.790   3.446   1.847
 1076SOL    HW2 4334   1.787   3.363   1.894
 1076SOL    HW3 4335   1.731   3.504   1.896
 1076SOL    MW4 4336   1.782   3.443   1.860
 1077SOL     OW 4337   2.021   3.593   1.959
 1077SOL    HW2 4338   2.004   3.680   1.924
 1077SOL    HW3 4339   1.948   3.540   1.929
 1077SOL    MW4 4340   2.009   3.598   1.951
 1078SOL     OW 4341   1.979   3.836   1.863
 1078SOL    HW2 4342   2.059   3.875   1.898
 1078SOL    HW3 4343   1.984   3.852   1.769
 1078SOL    MW4 4344   1.990   3.843   1.855
 1079SOL     OW 4345   1.825   4.001   2.014
 1079SOL    HW2 4346   1.821   4.084   1.967
 1079SOL    HW3 4347   1.879   3.945   1.959
 1079SOL    MW4 4348   1.832   4.005   2.001
 1080SOL     OW 4349   1.777   4.232   1.860
 1080SOL    HW2 4350   1.695   4.277   1.879
 1080SOL    HW3 4351   1.782   4.230   1.764
 1080SOL    MW4 4352   1.767   4.237   1.850
 1081SOL     OW 4353   1.976   4.374   1.996
 1081SOL    HW2 4354   2.043   4.321   1.953
 1081SOL    HW3 4355   1.893   4.340   1.963
 1081SOL    MW4 4356   1.974   4.362   1.986
 1082SOL     OW 4357   2.410   4.641   1.870
 1082SOL    HW2 4358   2.480   4.680   1.922
 1082SOL    HW3 4359   2.392   4.557   1.912
 1082SOL    MW4 4360   2.417   4.635   1.882
 1083SOL     OW 4361   2.192   0.114   1.951
 1083SOL    HW2 4362   2.203   0.107   2.045
 1083SOL    HW3 4363   2.273   0.079   1.914
 1083SOL    MW4 4364   2.204   0.109   1.958
 1084SOL     OW 4365   2.196   0.406   1.920
 1084SOL    HW2 4366   2.197   0.312   1.939
 1084SOL    HW3 4367   2.110   0.435   1.951
 1084SOL    MW4 4368   2.184   0.397   1.927
 1085SOL     OW 4369   2.444   0.514   1.991
 1085SOL    HW2 4370   2.510   0.448   1.970
 1085SOL    HW3 4371   2.361   0.474   1.962
 1085SOL    MW4 4372   2.441   0.500   1.984
 1086SOL     OW 4373   2.499   0.743   1.865
 1086SOL    HW2 4374   2.478   0.661   1.909
 1086SOL    HW3 4375   2.491   0.723   1.772
 1086SOL    MW4 4376   2.495   0.729   1.858
 1087SOL     OW 4377   2.264   0.884   1.956
 1087SOL    HW2 4378   2.276   0.878   2.051
 1087SOL    HW3 4379   2.347   0.852   1.919
 1087SOL    MW4 4380   2.277   0.879   1.964
 1088SOL     OW 4381   2.249   1.142   1.844
 1088SOL    HW2 4382   2.318   1.186   1.894
 1088SOL    HW3 4383   2.241   1.056   1.884
 1088SOL    MW4 4384   2.257   1.137   1.855
 1089SOL     OW 4385   2.459   1.298   1.994
 1089SOL    HW2 4386   2.467   1.295   2.090
 1089SOL    HW3 4387   2.479   1.389   1.972
 1089SOL    MW4 4388   2.463   1.310   2.004
 1090SOL     OW 4389   2.485   1.556   1.916
 1090SOL    HW2 4390   2.398   1.588   1.940
 1090SOL    HW3 4391   2.499   1.587   1.827
 1090SOL    MW4 4392   2.475   1.564   1.908
 1091SOL     OW 4393   2.235   1.670   1.975
 1091SOL    HW2 4394   2.251   1.664   2.069
 1091SOL    HW3 4395   2.152   1.625   1.961
 1091SOL    MW4 4396   2.226   1.664   1.986
 1092SOL     OW 4397   2.296   1.928   1.882
 1092SOL    HW2 4398   2.385   1.960   1.895
 1092SOL    HW3 4399   2.298   1.838   1.915
 1092SOL    MW4 4400   2.308   1.920   1.888
 1093SOL     OW 4401   2.522   2.050   1.975
 1093SOL    HW2 4402   2.610   2.013   1.963
 1093SOL    HW3 4403   2.520   2.127   1.918
 1093SOL    MW4 4404   2.533   2.055   1.966
 1094SOL     OW 4405   2.494   2.316   1.860
 1094SOL    HW2 4406   2.573   2.346   1.905
 1094SOL    HW3 4407   2.422   2.341   1.918
 1094SOL    MW4 4408   2.495   2.323   1.874
 1095SOL     OW 4409   2.258   2.433   1.987
 1095SOL    HW2 4410   2.255   2.428   2.082
 1095SOL    HW3 4411   2.271   2.526   1.968
 1095SOL    MW4 4412   2.259   2.445   1.997
 1096SOL     OW 4413   2.290   2.684   1.887
 1096SOL    HW2 4414   2.207   2.719   1.921
 1096SOL    HW3 4415   2.282   2.691   1.792
 1096SOL    MW4 4416   2.278   2.690   1.879
 1097SOL     OW 4417   2.508   2.803   1.999
 1097SOL    HW2 4418   2.508   2.892   1.964
 1097SOL    HW3 4419   2.431   2.762   1.960
 1097SOL    MW4 4420   2.498   2.809   1.990
 1098SOL     OW 4421   2.451   3.092   1.926
 1098SOL    HW2 4422   2.377   3.149   1.947
 1098SOL    HW3 4423   2.446   3.080   1.832
 1098SOL    MW4 4424   2.441   3.098   1.917
 1099SOL     OW 4425   2.240   3.246   2.006
 1099SOL    HW2 4426   2.226   3.236   2.100
 1099SOL    HW3 4427   2.180   3.184   1.965
 1099SOL    MW4 4428   2.230   3.236   2.013
 1100SOL     OW 4429   2.256   3.479   1.850
 1100SOL    HW2 4430   2.259   3.404   1.909
 1100SOL    HW3 4431   2.172   3.521   1.869
 1100SOL    MW4 4432   2.245   3.475   1.860
 1101SOL     OW 4433   2.466   3.621   1.983
 1101SOL    HW2 4434   2.459   3.611   2.078
 1101SOL    HW3 4435   2.393   3.569   1.949
 1101SOL    MW4 4436   2.456   3.613   1.991
 1102SOL     OW 4437   2.448   3.883   1.850
 1102SOL    HW2 4438   2.367   3.919   1.885
 1102SOL    HW3 4439   2.460   3.801   1.899
 1102SOL    MW4 4440   2.439   3.877   1.861
 1103SOL     OW 4441   2.199   3.967   1.939
 1103SOL    HW2 4442   2.215   3.967   2.033
 1103SOL    HW3 4443   2.189   4.059   1.916
 1103SOL    MW4 4444   2.200   3.979   1.948
 1104SOL     OW 4445   2.169   4.233   1.866
 1104SOL    HW2 4446   2.244   4.281   1.903
 1104SOL    HW3 4447   2.177   4.247   1.771
 1104SOL    MW4 4448   2.180   4.241   1.858
 1105SOL     OW 4449   2.399   4.390   1.976
 1105SOL    HW2 4450   2.410   4.397   2.071
 1105SOL    HW3 4451   2.476   4.342   1.946
 1105SOL    MW4 4452   2.410   4.384   1.985
 1106SOL     OW 4453   2.855   4.630   1.910
 1106SOL    HW2 4454   2.941   4.665   1.935
 1106SOL    HW3 4455   2.853   4.543   1.949
 1106SOL    MW4 4456   2.866   4.623   1.919
 1107SOL     OW 4457   2.620   0.089   2.020
 1107SOL    HW2 4458   2.638   0.107   2.112
 1107SOL    HW3 4459   2.699   0.045   1.988
 1107SOL    MW4 4460   2.633   0.085   2.028
 1108SOL     OW 4461   2.662   0.337   1.916
 1108SOL    HW2 4462   2.744   0.366   1.955
 1108SOL    HW3 4463   2.647   0.250   1.952
 1108SOL    MW4 4464   2.671   0.329   1.926
 1109SOL     OW 4465   2.921   0.442   1.980
 1109SOL    HW2 4466   3.007   0.416   1.946
 1109SOL    HW3 4467   2.905   0.528   1.942
 1109SOL    MW4 4468   2.930   0.450   1.970
 1110SOL     OW 4469   2.892   0.707   1.892
 1110SOL    HW2 4470   2.975   0.747   1.920
 1110SOL    HW3 4471   2.824   0.759   1.936
 1110SOL    MW4 4472   2.894   0.719   1.902
 1111SOL     OW 4473   2.697   0.883   1.997
 1111SOL    HW2 4474   2.700   0.974   1.969
 1111SOL    HW3 4475   2.624   0.845   1.948
 1111SOL    MW4 4476   2.688   0.890   1.987
 1112SOL     OW 4477   2.670   1.148   1.913
 1112SOL    HW2 4478   2.599   1.204   1.944
 1112SOL    HW3 4479   2.669   1.158   1.818
 1112SOL    MW4 4480   2.660   1.156   1.904
 1113SOL     OW 4481   2.909   1.254   1.996
 1113SOL    HW2 4482   2.895   1.342   1.962
 1113SOL    HW3 4483   2.830   1.206   1.970
 1113SOL    MW4 4484   2.897   1.259   1.988
 1114SOL     OW 4485   2.900   1.513   1.876
 1114SOL    HW2 4486   2.976   1.556   1.915
 1114SOL    HW3 4487   2.914   1.519   1.782
 1114SOL    MW4 4488   2.912   1.520   1.869
 1115SOL     OW 4489   2.708   1.647   2.030
 1115SOL    HW2 4490   2.763   1.578   1.993
 1115SOL    HW3 4491   2.620   1.625   2.000
 1115SOL    MW4 4492   2.704   1.635   2.021
 1116SOL     OW 4493   2.775   1.927   1.867
 1116SOL    HW2 4494   2.835   1.984   1.915
 1116SOL    HW3 4495   2.766   1.849   1.923
 1116SOL    MW4 4496   2.782   1.924   1.881
 1117SOL     OW 4497   2.976   2.042   2.031
 1117SOL    HW2 4498   2.966   2.020   2.124
 1117SOL    HW3 4499   3.049   1.988   2.001
 1117SOL    MW4 4500   2.985   2.032   2.039
 1118SOL     OW 4501   2.954   2.288   1.892
 1118SOL    HW2 4502   3.020   2.344   1.934
 1118SOL    HW3 4503   2.971   2.201   1.929
 1118SOL    MW4 4504   2.965   2.284   1.903
 1119SOL     OW 4505   2.728   2.404   1.979
 1119SOL    HW2 4506   2.719   2.497   1.956
 1119SOL    HW3 4507   2.797   2.371   1.921
 1119SOL    MW4 4508   2.736   2.412   1.969
 1120SOL     OW 4509   2.732   2.664   1.904
 1120SOL    HW2 4510   2.651   2.699   1.942
 1120SOL    HW3 4511   2.725   2.684   1.810
 1120SOL    MW4 4512   2.720   2.671   1.896
 1121SOL     OW 4513   2.948   2.825   1.998
 1121SOL    HW2 4514   2.939   2.912   1.959
 1121SOL    HW3 4515   2.867   2.780   1.976
 1121SOL    MW4 4516   2.936   2.831   1.990
 1122SOL     OW 4517   2.897   3.076   1.878
 1122SOL    HW2 4518   2.979   3.117   1.906
 1122SOL    HW3 4519   2.829   3.127   1.922
 1122SOL    MW4 4520   2.899   3.088   1.887
 1123SOL     OW 4521   2.678   3.236   1.993
 1123SOL    HW2 4522   2.662   3.327   1.968
 1123SOL    HW3 4523   2.600   3.189   1.965
 1123SOL    MW4 4524   2.666   3.242   1.986
 1124SOL     OW 4525   2.689   3.498   1.874
 1124SOL    HW2 4526   2.760   3.554   1.905
 1124SOL    HW3 4527   2.609   3.543   1.903
 1124SOL    MW4 4528   2.688   3.512   1.882
 1125SOL     OW 4529   2.901   3.642   1.977
 1125SOL    HW2 4530   2.914   3.637   2.071
 1125SOL    HW3 4531   2.959   3.576   1.940
 1125SOL    MW4 4532   2.910   3.633   1.984
 1126SOL     OW 4533   2.882   3.907   1.897
 1126SOL    HW2 4534   2.891   3.815   1.921
 1126SOL    HW3 4535   2.893   3.908   1.802
 1126SOL    MW4 4536   2.884   3.895   1.887
 1127SOL     OW 4537   2.644   4.028   1.974
 1127SOL    HW2 4538   2.718   3.977   1.940
 1127SOL    HW3 4539   2.567   3.984   1.938
 1127SOL    MW4 4540   2.644   4.015   1.965
 1128SOL     OW 4541   2.621   4.275   1.869
 1128SOL    HW2 4542   2.629   4.188   1.909
 1128SOL    HW3 4543   2.634   4.260   1.776
 1128SOL    MW4 4544   2.624   4.262   1.862
 1129SOL     OW 4545   2.867   4.349   1.991
 1129SOL    HW2 4546   2.851   4.344   2.085
 1129SOL    HW3 4547   2.793   4.302   1.952
 1129SOL    MW4 4548   2.855   4.342   1.998
 1130SOL     OW 4549   3.339   4.624   1.903
 1130SOL    HW2 4550   3.345   4.536   1.940
 1130SOL    HW3 4551   3.357   4.612   1.810
 1130SOL    MW4 4552   3.342   4.611   1.895
 1131SOL     OW 4553   3.106   0.065   2.010
 1131SOL    HW2 4554   3.124   0.093   2.100
 1131SOL    HW3 4555   3.191   0.038   1.976
 1131SOL    MW4 4556   3.119   0.065   2.018
 1132SOL     OW 4557   3.149   0.322   1.903
 1132SOL    HW2 4558   3.134   0.230   1.923
 1132SOL    HW3 4559   3.147   0.327   1.807
 1132SOL    MW4 4560   3.147   0.311   1.893
 1133SOL     OW 4561   3.377   0.447   2.005
 1133SOL    HW2 4562   3.456   0.422   1.957
 1133SOL    HW3 4563   3.306   0.401   1.960
 1133SOL    MW4 4564   3.378   0.438   1.992
 1134SOL     OW 4565   3.373   0.708   1.877
 1134SOL    HW2 4566   3.298   0.757   1.911
 1134SOL    HW3 4567   3.378   0.631   1.933
 1134SOL    MW4 4568   3.364   0.705   1.889
 1135SOL     OW 4569   3.150   0.847   1.958
 1135SOL    HW2 4570   3.157   0.850   2.053
 1135SOL    HW3 4571   3.130   0.938   1.933
 1135SOL    MW4 4572   3.148   0.860   1.967
 1136SOL     OW 4573   3.120   1.117   1.900
 1136SOL    HW2 4574   3.199   1.147   1.945
 1136SOL    HW3 4575   3.049   1.168   1.940
 1136SOL    MW4 4576   3.121   1.128   1.911
 1137SOL     OW 4577   3.367   1.269   1.998
 1137SOL    HW2 4578   3.359   1.309   2.085
 1137SOL    HW3 4579   3.351   1.340   1.937
 1137SOL    MW4 4580   3.364   1.283   2.002
 1138SOL     OW 4581   3.335   1.506   1.859
 1138SOL    HW2 4582   3.409   1.556   1.894
 1138SOL    HW3 4583   3.258   1.545   1.898
 1138SOL    MW4 4584   3.335   1.517   1.869
 1139SOL     OW 4585   3.132   1.652   1.991
 1139SOL    HW2 4586   3.143   1.660   2.086
 1139SOL    HW3 4587   3.128   1.742   1.960
 1139SOL    MW4 4588   3.133   1.665   1.999
 1140SOL     OW 4589   3.172   1.908   1.892
 1140SOL    HW2 4590   3.251   1.946   1.930
 1140SOL    HW3 4591   3.185   1.915   1.797
 1140SOL    MW4 4592   3.184   1.914   1.884
 1141SOL     OW 4593   3.398   2.030   2.007
 1141SOL    HW2 4594   3.477   1.991   1.968
 1141SOL    HW3 4595   3.399   2.121   1.976
 1141SOL    MW4 4596   3.409   2.037   1.998
 1142SOL     OW 4597   3.408   2.277   1.900
 1142SOL    HW2 4598   3.338   2.334   1.931
 1142SOL    HW3 4599   3.410   2.290   1.805
 1142SOL    MW4 4600   3.399   2.286   1.892
 1143SOL     OW 4601   3.196   2.439   2.010
 1143SOL    HW2 4602   3.192   2.449   2.105
 1143SOL    HW3 4603   3.228   2.524   1.979
 1143SOL    MW4 4604   3.199   2.451   2.018
 1144SOL     OW 4605   3.192   2.708   1.882
 1144SOL    HW2 4606   3.109   2.738   1.920
 1144SOL    HW3 4607   3.173   2.696   1.789
 1144SOL    MW4 4608   3.179   2.710   1.875
 1145SOL     OW 4609   3.413   2.816   1.982
 1145SOL    HW2 4610   3.386   2.820   2.073
 1145SOL    HW3 4611   3.338   2.777   1.936
 1145SOL    MW4 4612   3.400   2.811   1.988
 1146SOL     OW 4613   3.366   3.073   1.890
 1146SOL    HW2 4614   3.449   3.113   1.918
 1146SOL    HW3 4615   3.371   2.983   1.924
 1146SOL    MW4 4616   3.378   3.066   1.898
 1147SOL     OW 4617   3.131   3.194   1.975
 1147SOL    HW2 4618   3.136   3.285   1.944
 1147SOL    HW3 4619   3.213   3.154   1.945
 1147SOL    MW4 4620   3.142   3.201   1.967
 1148SOL     OW 4621   3.083   3.468   1.891
 1148SOL    HW2 4622   3.161   3.503   1.936
 1148SOL    HW3 4623   3.105   3.475   1.798
 1148SOL    MW4 4624   3.097   3.474   1.885
 1149SOL     OW 4625   3.330   3.583   1.991
 1149SOL    HW2 4626   3.413   3.541   1.970
 1149SOL    HW3 4627   3.335   3.670   1.951
 1149SOL    MW4 4628   3.342   3.589   1.983
 1150SOL     OW 4629   3.359   3.849   1.917
 1150SOL    HW2 4630   3.276   3.895   1.927
 1150SOL    HW3 4631   3.371   3.841   1.822
 1150SOL    MW4 4632   3.350   3.854   1.906
 1151SOL     OW 4633   3.126   4.015   1.965
 1151SOL    HW2 4634   3.124   4.019   2.060
 1151SOL    HW3 4635   3.045   3.971   1.941
 1151SOL    MW4 4636   3.115   4.010   1.974
 1152SOL     OW 4637   3.131   4.287   1.868
 1152SOL    HW2 4638   3.127   4.196   1.898
 1152SOL    HW3 4639   3.052   4.327   1.903
 1152SOL    MW4 4640   3.120   4.280   1.876
 1153SOL     OW 4641   3.356   4.374   2.002
 1153SOL    HW2 4642   3.432   4.322   1.975
 1153SOL    HW3 4643   3.285   4.345   1.945
 1153SOL    MW4 4644   3.357   4.364   1.991
 1154SOL     OW 4645   3.796   4.653   1.884
 1154SOL    HW2 4646   3.786   4.560   1.904
 1154SOL    HW3 4647   3.724   4.696   1.930
 1154SOL    MW4 4648   3.785   4.646   1.893
 1155SOL     OW 4649   3.574   0.148   1.961
 1155SOL    HW2 4650   3.585   0.119   2.051
 1155SOL    HW3 4651   3.501   0.095   1.927
 1155SOL    MW4 4652   3.566   0.137   1.968
 1156SOL     OW 4653   3.619   0.406   1.859
 1156SOL    HW2 4654   3.605   0.314   1.880
 1156SOL    HW3 4655   3.645   0.407   1.767
 1156SOL    MW4 4656   3.621   0.394   1.850
 1157SOL     OW 4657   3.819   0.502   2.041
 1157SOL    HW2 4658   3.828   0.595   2.021
 1157SOL    HW3 4659   3.743   0.474   1.990
 1157SOL    MW4 4660   3.810   0.511   2.032
 1158SOL     OW 4661   3.828   0.778   1.922
 1158SOL    HW2 4662   3.749   0.825   1.948
 1158SOL    HW3 4663   3.835   0.792   1.828
 1158SOL    MW4 4664   3.818   0.786   1.913
 1159SOL     OW 4665   3.568   0.867   1.987
 1159SOL    HW2 4666   3.560   0.957   1.955
 1159SOL    HW3 4667   3.499   0.819   1.940
 1159SOL    MW4 4668   3.558   0.872   1.977
 1160SOL     OW 4669   3.574   1.130   1.859
 1160SOL    HW2 4670   3.500   1.178   1.895
 1160SOL    HW3 4671   3.569   1.146   1.764
 1160SOL    MW4 4672   3.564   1.138   1.851
 1161SOL     OW 4673   3.804   1.272   1.937
 1161SOL    HW2 4674   3.797   1.256   2.031
 1161SOL    HW3 4675   3.727   1.229   1.900
 1161SOL    MW4 4676   3.793   1.264   1.945
 1162SOL     OW 4677   3.796   1.543   1.915
 1162SOL    HW2 4678   3.866   1.583   1.966
 1162SOL    HW3 4679   3.804   1.450   1.932
 1162SOL    MW4 4680   3.807   1.536   1.924
 1163SOL     OW 4681   3.544   1.670   1.956
 1163SOL    HW2 4682   3.582   1.757   1.938
 1163SOL    HW3 4683   3.616   1.609   1.940
 1163SOL    MW4 4684   3.559   1.674   1.951
 1164SOL     OW 4685   3.627   1.916   1.872
 1164SOL    HW2 4686   3.667   1.998   1.900
 1164SOL    HW3 4687   3.636   1.915   1.777
 1164SOL    MW4 4688   3.633   1.927   1.863
 1165SOL     OW 4689   3.818   2.072   2.001
 1165SOL    HW2 4690   3.894   2.021   1.974
 1165SOL    HW3 4691   3.837   2.161   1.972
 1165SOL    MW4 4692   3.831   2.077   1.994
 1166SOL     OW 4693   3.851   2.309   1.889
 1166SOL    HW2 4694   3.933   2.351   1.915
 1166SOL    HW3 4695   3.784   2.351   1.944
 1166SOL    MW4 4696   3.853   2.320   1.900
 1167SOL     OW 4697   3.624   2.406   2.044
 1167SOL    HW2 4698   3.614   2.479   1.982
 1167SOL    HW3 4699   3.568   2.337   2.009
 1167SOL    MW4 4700   3.615   2.407   2.031
 1168SOL     OW 4701   3.617   2.650   1.892
 1168SOL    HW2 4702   3.701   2.688   1.917
 1168SOL    HW3 4703   3.551   2.704   1.936
 1168SOL    MW4 4704   3.620   2.662   1.901
 1169SOL     OW 4705   3.842   2.814   1.960
 1169SOL    HW2 4706   3.828   2.825   2.054
 1169SOL    HW3 4707   3.858   2.902   1.928
 1169SOL    MW4 4708   3.842   2.827   1.968
 1170SOL     OW 4709   3.842   3.095   1.897
 1170SOL    HW2 4710   3.759   3.124   1.934
 1170SOL    HW3 4711   3.823   3.080   1.804
 1170SOL    MW4 4712   3.829   3.097   1.889
 1171SOL     OW 4713   3.612   3.217   1.991
 1171SOL    HW2 4714   3.599   3.216   2.086
 1171SOL    HW3 4715   3.605   3.309   1.967
 1171SOL    MW4 4716   3.609   3.229   2.001
 1172SOL     OW 4717   3.577   3.474   1.920
 1172SOL    HW2 4718   3.655   3.516   1.956
 1172SOL    HW3 4719   3.593   3.468   1.826
 1172SOL    MW4 4720   3.589   3.479   1.912
 1173SOL     OW 4721   3.818   3.630   1.968
 1173SOL    HW2 4722   3.894   3.587   1.929
 1173SOL    HW3 4723   3.822   3.720   1.934
 1173SOL    MW4 4724   3.829   3.636   1.958
 1174SOL     OW 4725   3.838   3.896   1.876
 1174SOL    HW2 4726   3.752   3.925   1.906
 1174SOL    HW3 4727   3.833   3.898   1.781
 1174SOL    MW4 4728   3.826   3.900   1.868
 1175SOL     OW 4729   3.597   3.948   1.999
 1175SOL    HW2 4730   3.585   3.972   2.091
 1175SOL    HW3 4731   3.509   3.929   1.968
 1175SOL    MW4 4732   3.584   3.949   2.007
 1176SOL     OW 4733   3.567   4.214   1.903
 1176SOL    HW2 4734   3.638   4.270   1.934
 1176SOL    HW3 4735   3.585   4.128   1.941
 1176SOL    MW4 4736   3.578   4.210   1.912
 1177SOL     OW 4737   3.778   4.393   1.947
 1177SOL    HW2 4738   3.783   4.393   2.043
 1177SOL    HW3 4739   3.861   4.355   1.919
 1177SOL    MW4 4740   3.789   4.388   1.956
 1178SOL     OW 4741   4.263   0.025   1.894
 1178SOL    HW2 4742   4.191   0.086   1.909
 1178SOL    HW3 4743   4.333   0.058   1.950
 1178SOL    MW4 4744   4.263   0.038   1.904
 1179SOL     OW 4745   4.025   0.151   1.975
 1179SOL    HW2 4746   4.019   0.143   2.070
 1179SOL    HW3 4747   3.960   0.090   1.942
 1179SOL    MW4 4748   4.016   0.142   1.983
 1180SOL     OW 4749   4.017   0.405   1.888
 1180SOL    HW2 4750   4.025   0.320   1.931
 1180SOL    HW3 4751   3.942   0.447   1.932
 1180SOL    MW4 4752   4.008   0.400   1.900
 1181SOL     OW 4753   4.272   0.478   1.974
 1181SOL    HW2 4754   4.276   0.486   2.069
 1181SOL    HW3 4755   4.182   0.451   1.955
 1181SOL    MW4 4756   4.261   0.475   1.984
 1182SOL     OW 4757   4.258   0.743   1.906
 1182SOL    HW2 4758   4.262   0.650   1.930
 1182SOL    HW3 4759   4.262   0.743   1.810
 1182SOL    MW4 4760   4.259   0.730   1.896
 1183SOL     OW 4761   4.052   0.915   1.967
 1183SOL    HW2 4762   4.126   0.858   1.946
 1183SOL    HW3 4763   3.975   0.861   1.956
 1183SOL    MW4 4764   4.052   0.901   1.963
 1184SOL     OW 4765   4.063   1.182   1.892
 1184SOL    HW2 4766   4.061   1.089   1.914
 1184SOL    HW3 4767   3.975   1.213   1.910
 1184SOL    MW4 4768   4.051   1.174   1.897
 1185SOL     OW 4769   4.291   1.346   1.970
 1185SOL    HW2 4770   4.299   1.354   2.065
 1185SOL    HW3 4771   4.213   1.292   1.958
 1185SOL    MW4 4772   4.281   1.340   1.981
 1186SOL     OW 4773   4.219   1.601   1.889
 1186SOL    HW2 4774   4.230   1.509   1.912
 1186SOL    HW3 4775   4.227   1.604   1.794
 1186SOL    MW4 4776   4.221   1.590   1.879
 1187SOL     OW 4777   4.008   1.690   2.017
 1187SOL    HW2 4778   4.017   1.680   2.112
 1187SOL    HW3 4779   4.094   1.667   1.982
 1187SOL    MW4 4780   4.021   1.685   2.025
 1188SOL     OW 4781   4.044   1.950   1.916
 1188SOL    HW2 4782   4.036   1.862   1.954
 1188SOL    HW3 4783   4.037   1.936   1.821
 1188SOL    MW4 4784   4.042   1.936   1.908
 1189SOL     OW 4785   4.297   2.074   1.982
 1189SOL    HW2 4786   4.296   2.066   2.077
 1189SOL    HW3 4787   4.213   2.039   1.953
 1189SOL    MW4 4788   4.286   2.068   1.990
 1190SOL     OW 4789   4.325   2.322   1.862
 1190SOL    HW2 4790   4.334   2.237   1.906
 1190SOL    HW3 4791   4.401   2.372   1.893
 1190SOL    MW4 4792   4.336   2.317   1.872
 1191SOL     OW 4793   4.080   2.427   1.988
 1191SOL    HW2 4794   4.076   2.432   2.083
 1191SOL    HW3 4795   4.161   2.381   1.970
 1191SOL    MW4 4796   4.090   2.421   1.998
 1192SOL     OW 4797   4.045   2.667   1.830
 1192SOL    HW2 4798   4.063   2.580   1.866
 1192SOL    HW3 4799   3.983   2.706   1.892
 1192SOL    MW4 4800   4.039   2.660   1.843
 1193SOL     OW 4801   4.270   2.821   1.949
 1193SOL    HW2 4802   4.256   2.803   2.042
 1193SOL    HW3 4803   4.190   2.790   1.907
 1193SOL    MW4 4804   4.257   2.814   1.956
 1194SOL     OW 4805   4.316   3.096   1.915
 1194SOL    HW2 4806   4.231   3.135   1.935
 1194SOL    HW3 4807   4.304   3.002   1.930
 1194SOL    MW4 4808   4.303   3.089   1.920
 1195SOL     OW 4809   4.068   3.231   1.969
 1195SOL    HW2 4810   4.062   3.230   2.064
 1195SOL    HW3 4811   3.991   3.182   1.939
 1195SOL    MW4 4812   4.057   3.225   1.978
 1196SOL     OW 4813   4.052   3.499   1.882
 1196SOL    HW2 4814   4.138   3.537   1.899
 1196SOL    HW3 4815   4.058   3.411   1.918
 1196SOL    MW4 4816   4.064   3.492   1.889
 1197SOL     OW 4817   4.273   3.608   1.991
 1197SOL    HW2 4818   4.286   3.699   1.966
 1197SOL    HW3 4819   4.346   3.561   1.950
 1197SOL    MW4 4820   4.284   3.614   1.982
 1198SOL     OW 4821   4.249   3.865   1.903
 1198SOL    HW2 4822   4.330   3.913   1.921
 1198SOL    HW3 4823   4.236   3.875   1.808
 1198SOL    MW4 4824   4.258   3.873   1.893
 1199SOL     OW 4825   4.061   4.033   2.024
 1199SOL    HW2 4826   4.138   3.981   2.001
 1199SOL    HW3 4827   3.990   3.998   1.969
 1199SOL    MW4 4828   4.062   4.022   2.013
 1200SOL     OW 4829   4.030   4.276   1.914
 1200SOL    HW2 4830   4.111   4.322   1.935
 1200SOL    HW3 4831   4.037   4.193   1.962
 1200SOL    MW4 4832   4.041   4.271   1.923
 1201SOL     OW 4833   4.243   4.423   1.972
 1201SOL    HW2 4834   4.257   4.420   2.066
 1201SOL    HW3 4835   4.227   4.515   1.953
 1201SOL    MW4 4836   4.242   4.435   1.982
 1202SOL     OW 4837   0.177   4.660   2.394
 1202SOL    HW2 4838   0.202   4.672   2.486
 1202SOL    HW3 4839   0.249   4.698   2.344
 1202SOL    MW4 4840   0.190   4.667   2.400
 1203SOL     OW 4841   4.482   0.177   2.290
 1203SOL    HW2 4842   4.535   0.112   2.336
 1203SOL    HW3 4843   4.498   0.160   2.198
 1203SOL    MW4 4844   4.491   0.166   2.284
 1204SOL     OW 4845   4.476   0.419   2.411
 1204SOL    HW2 4846   4.555   0.468   2.388
 1204SOL    HW3 4847   4.488   0.334   2.370
 1204SOL    MW4 4848   4.488   0.415   2.403
 1205SOL     OW 4849   0.231   0.500   2.289
 1205SOL    HW2 4850   0.293   0.431   2.313
 1205SOL    HW3 4851   0.218   0.489   2.195
 1205SOL    MW4 4852   0.238   0.489   2.280
 1206SOL     OW 4853   0.243   0.770   2.331
 1206SOL    HW2 4854   0.236   0.764   2.426
 1206SOL    HW3 4855   0.248   0.678   2.302
 1206SOL    MW4 4856   0.243   0.757   2.340
 1207SOL     OW 4857   4.473   0.879   2.298
 1207SOL    HW2 4858   4.560   0.843   2.315
 1207SOL    HW3 4859   4.460   0.866   2.204
 1207SOL    MW4 4860   4.482   0.872   2.288
 1208SOL     OW 4861   4.488   1.140   2.367
 1208SOL    HW2 4862   4.473   1.129   2.461
 1208SOL    HW3 4863   4.486   1.050   2.333
 1208SOL    MW4 4864   4.486   1.127   2.375
 1209SOL     OW 4865   0.237   1.258   2.271
 1209SOL    HW2 4866   0.155   1.213   2.292
 1209SOL    HW3 4867   0.246   1.248   2.177
 1209SOL    MW4 4868   0.227   1.251   2.262
 1210SOL     OW 4869   0.236   1.527   2.351
 1210SOL    HW2 4870   0.212   1.527   2.444
 1210SOL    HW3 4871   0.223   1.436   2.323
 1210SOL    MW4 4872   0.231   1.515   2.360
 1211SOL     OW 4873   0.016   1.672   2.277
 1211SOL    HW2 4874   0.012   1.756   2.323
 1211SOL    HW3 4875   0.103   1.638   2.297
 1211SOL    MW4 4876   0.027   1.679   2.285
 1212SOL     OW 4877   0.010   1.942   2.396
 1212SOL    HW2 4878  -0.060   1.980   2.343
 1212SOL    HW3 4879   0.090   1.983   2.362
 1212SOL    MW4 4880   0.012   1.953   2.384
 1213SOL     OW 4881   0.240   2.024   2.281
 1213SOL    HW2 4882   0.303   1.959   2.312
 1213SOL    HW3 4883   0.256   2.030   2.187
 1213SOL    MW4 4884   0.250   2.016   2.273
 1214SOL     OW 4885   0.200   2.295   2.375
 1214SOL    HW2 4886   0.204   2.286   2.471
 1214SOL    HW3 4887   0.206   2.205   2.343
 1214SOL    MW4 4888   0.201   2.282   2.384
 1215SOL     OW 4889   4.484   2.443   2.241
 1215SOL    HW2 4890   4.486   2.527   2.288
 1215SOL    HW3 4891   4.555   2.392   2.281
 1215SOL    MW4 4892   4.494   2.448   2.252
 1216SOL     OW 4893   4.484   2.701   2.367
 1216SOL    HW2 4894   4.453   2.713   2.457
 1216SOL    HW3 4895   4.563   2.755   2.362
 1216SOL    MW4 4896   4.491   2.709   2.378
 1217SOL     OW 4897   0.245   2.817   2.288
 1217SOL    HW2 4898   0.315   2.759   2.319
 1217SOL    HW3 4899   0.255   2.817   2.193
 1217SOL    MW4 4900   0.255   2.809   2.280
 1218SOL     OW 4901   0.246   3.074   2.374
 1218SOL    HW2 4902   0.164   3.117   2.350
 1218SOL    HW3 4903   0.241   2.988   2.332
 1218SOL    MW4 4904   0.234   3.068   2.365
 1219SOL     OW 4905   4.488   3.176   2.292
 1219SOL    HW2 4906   4.468   3.264   2.325
 1219SOL    HW3 4907   4.497   3.187   2.198
 1219SOL    MW4 4908   4.486   3.189   2.284
 1220SOL     OW 4909   4.465   3.451   2.326
 1220SOL    HW2 4910   4.478   3.450   2.420
 1220SOL    HW3 4911   4.397   3.517   2.312
 1220SOL    MW4 4912   4.458   3.460   2.336
 1221SOL     OW 4913   0.197   3.574   2.250
 1221SOL    HW2 4914   0.276   3.535   2.287
 1221SOL    HW3 4915   0.125   3.529   2.294
 1221SOL    MW4 4916   0.198   3.563   2.261
 1222SOL     OW 4917   0.182   3.866   2.339
 1222SOL    HW2 4918   0.100   3.914   2.336
 1222SOL    HW3 4919   0.165   3.786   2.289
 1222SOL    MW4 4920   0.169   3.861   2.332
 1223SOL     OW 4921   4.443   4.009   2.249
 1223SOL    HW2 4922   4.451   4.100   2.277
 1223SOL    HW3 4923   4.454   4.012   2.154
 1223SOL    MW4 4924   4.445   4.022   2.240
 1224SOL     OW 4925   4.458   4.278   2.313
 1224SOL    HW2 4926   4.458   4.283   2.408
 1224SOL    HW3 4927   4.529   4.338   2.286
 1224SOL    MW4 4928   4.468   4.287   2.322
 1225SOL     OW 4929   0.213   4.425   2.256
 1225SOL    HW2 4930   0.271   4.365   2.304
 1225SOL    HW3 4931   0.196   4.496   2.318
 1225SOL    MW4 4932   0.218   4.426   2.271
 1226SOL     OW 4933   0.650   4.607   2.354
 1226SOL    HW2 4934   0.647   4.623   2.448
 1226SOL    HW3 4935   0.734   4.644   2.326
 1226SOL    MW4 4936   0.661   4.614   2.363
 1227SOL     OW 4937   0.399   0.064   2.255
 1227SOL    HW2 4938   0.488   0.034   2.275
 1227SOL    HW3 4939   0.397   0.068   2.159
 1227SOL    MW4 4940   0.410   0.060   2.245
 1228SOL     OW 4941   0.447   0.333   2.353
 1228SOL    HW2 4942   0.448   0.332   2.449
 1228SOL    HW3 4943   0.434   0.241   2.328
 1228SOL    MW4 4944   0.445   0.320   2.363
 1229SOL     OW 4945   0.677   0.461   2.286
 1229SOL    HW2 4946   0.677   0.543   2.336
 1229SOL    HW3 4947   0.597   0.416   2.313
 1229SOL    MW4 4948   0.666   0.466   2.296
 1230SOL     OW 4949   0.646   0.719   2.395
 1230SOL    HW2 4950   0.666   0.751   2.483
 1230SOL    HW3 4951   0.576   0.775   2.364
 1230SOL    MW4 4952   0.639   0.730   2.403
 1231SOL     OW 4953   0.470   0.907   2.283
 1231SOL    HW2 4954   0.393   0.856   2.309
 1231SOL    HW3 4955   0.475   0.896   2.188
 1231SOL    MW4 4956   0.460   0.899   2.274
 1232SOL     OW 4957   0.464   1.158   2.414
 1232SOL    HW2 4958   0.463   1.063   2.400
 1232SOL    HW3 4959   0.382   1.189   2.375
 1232SOL    MW4 4960   0.453   1.149   2.407
 1233SOL     OW 4961   0.683   1.270   2.274
 1233SOL    HW2 4962   0.699   1.359   2.305
 1233SOL    HW3 4963   0.610   1.238   2.327
 1233SOL    MW4 4964   0.675   1.277   2.285
 1234SOL     OW 4965   0.682   1.525   2.382
 1234SOL    HW2 4966   0.680   1.534   2.478
 1234SOL    HW3 4967   0.757   1.577   2.355
 1234SOL    MW4 4968   0.692   1.533   2.391
 1235SOL     OW 4969   0.469   1.638   2.247
 1235SOL    HW2 4970   0.542   1.592   2.288
 1235SOL    HW3 4971   0.390   1.600   2.286
 1235SOL    MW4 4972   0.468   1.627   2.258
 1236SOL     OW 4973   0.467   1.887   2.363
 1236SOL    HW2 4974   0.535   1.932   2.313
 1236SOL    HW3 4975   0.454   1.805   2.317
 1236SOL    MW4 4976   0.474   1.882   2.350
 1237SOL     OW 4977   0.649   2.064   2.250
 1237SOL    HW2 4978   0.733   2.022   2.271
 1237SOL    HW3 4979   0.656   2.151   2.290
 1237SOL    MW4 4980   0.661   2.070   2.258
 1238SOL     OW 4981   0.652   2.325   2.350
 1238SOL    HW2 4982   0.668   2.316   2.444
 1238SOL    HW3 4983   0.731   2.368   2.317
 1238SOL    MW4 4984   0.665   2.330   2.358
 1239SOL     OW 4985   0.411   2.451   2.268
 1239SOL    HW2 4986   0.493   2.412   2.297
 1239SOL    HW3 4987   0.343   2.400   2.311
 1239SOL    MW4 4988   0.413   2.439   2.277
 1240SOL     OW 4989   0.483   2.691   2.362
 1240SOL    HW2 4990   0.494   2.679   2.456
 1240SOL    HW3 4991   0.458   2.604   2.329
 1240SOL    MW4 4992   0.481   2.678   2.370
 1241SOL     OW 4993   0.672   2.839   2.212
 1241SOL    HW2 4994   0.760   2.816   2.243
 1241SOL    HW3 4995   0.614   2.778   2.259
 1241SOL    MW4 4996   0.676   2.828   2.223
 1242SOL     OW 4997   0.699   3.066   2.375
 1242SOL    HW2 4998   0.615   3.101   2.347
 1242SOL    HW3 4999   0.694   2.972   2.356
 1242SOL    MW4 5000   0.687   3.058   2.369
 1243SOL     OW 5001   0.466   3.211   2.297
 1243SOL    HW2 5002   0.394   3.150   2.313
 1243SOL    HW3 5003   0.452   3.242   2.207
 1243SOL    MW4 5004   0.455   3.207   2.287
 1244SOL     OW 5005   0.428   3.468   2.390
 1244SOL    HW2 5006   0.500   3.523   2.359
 1244SOL    HW3 5007   0.451   3.379   2.362
 1244SOL    MW4 5008   0.440   3.463   2.382
 1245SOL     OW 5009   0.636   3.614   2.272
 1245SOL    HW2 5010   0.648   3.706   2.297
 1245SOL    HW3 5011   0.630   3.616   2.177
 1245SOL    MW4 5012   0.637   3.626   2.263
 1246SOL     OW 5013   0.654   3.878   2.394
 1246SOL    HW2 5014   0.664   3.892   2.488
 1246SOL    HW3 5015   0.575   3.927   2.370
 1246SOL    MW4 5016   0.645   3.886   2.403
 1247SOL     OW 5017   0.423   3.992   2.270
 1247SOL    HW2 5018   0.342   3.944   2.287
 1247SOL    HW3 5019   0.443   3.973   2.178
 1247SOL    MW4 5020   0.415   3.983   2.260
 1248SOL     OW 5021   0.425   4.253   2.381
 1248SOL    HW2 5022   0.507   4.281   2.339
 1248SOL    HW3 5023   0.418   4.160   2.357
 1248SOL    MW4 5024   0.435   4.244   2.372
 1249SOL     OW 5025   0.663   4.339   2.276
 1249SOL    HW2 5026   0.667   4.434   2.290
 1249SOL    HW3 5027   0.672   4.330   2.181
 1249SOL    MW4 5028   0.665   4.351   2.265
 1250SOL     OW 5029   1.128   4.608   2.379
 1250SOL    HW2 5030   1.117   4.591   2.472
 1250SOL    HW3 5031   1.049   4.655   2.353
 1250SOL    MW4 5032   1.116   4.612   2.388
 1251SOL     OW 5033   0.900   0.071   2.294
 1251SOL    HW2 5034   0.894   0.146   2.353
 1251SOL    HW3 5035   0.908   0.110   2.207
 1251SOL    MW4 5036   0.900   0.086   2.290
 1252SOL     OW 5037   0.900   0.338   2.387
 1252SOL    HW2 5038   0.974   0.380   2.343
 1252SOL    HW3 5039   0.824   0.364   2.335
 1252SOL    MW4 5040   0.899   0.347   2.374
 1253SOL     OW 5041   1.136   0.477   2.311
 1253SOL    HW2 5042   1.219   0.445   2.346
 1253SOL    HW3 5043   1.146   0.470   2.216
 1253SOL    MW4 5044   1.148   0.472   2.303
 1254SOL     OW 5045   1.097   0.756   2.349
 1254SOL    HW2 5046   1.008   0.789   2.336
 1254SOL    HW3 5047   1.093   0.664   2.325
 1254SOL    MW4 5048   1.085   0.748   2.344
 1255SOL     OW 5049   0.840   0.875   2.273
 1255SOL    HW2 5050   0.843   0.953   2.327
 1255SOL    HW3 5051   0.767   0.824   2.308
 1255SOL    MW4 5052   0.831   0.878   2.285
 1256SOL     OW 5053   0.916   1.154   2.384
 1256SOL    HW2 5054   0.988   1.191   2.333
 1256SOL    HW3 5055   0.837   1.183   2.338
 1256SOL    MW4 5056   0.915   1.163   2.371
 1257SOL     OW 5057   1.147   1.255   2.257
 1257SOL    HW2 5058   1.217   1.209   2.303
 1257SOL    HW3 5059   1.174   1.255   2.165
 1257SOL    MW4 5060   1.160   1.249   2.251
 1258SOL     OW 5061   1.152   1.535   2.358
 1258SOL    HW2 5062   1.062   1.558   2.335
 1258SOL    HW3 5063   1.154   1.439   2.351
 1258SOL    MW4 5064   1.140   1.525   2.354
 1259SOL     OW 5065   0.905   1.629   2.276
 1259SOL    HW2 5066   0.909   1.722   2.297
 1259SOL    HW3 5067   0.917   1.625   2.181
 1259SOL    MW4 5068   0.907   1.641   2.266
 1260SOL     OW 5069   0.879   1.895   2.322
 1260SOL    HW2 5070   0.895   1.912   2.415
 1260SOL    HW3 5071   0.954   1.934   2.277
 1260SOL    MW4 5072   0.891   1.903   2.328
 1261SOL     OW 5073   1.117   2.031   2.202
 1261SOL    HW2 5074   1.204   2.010   2.234
 1261SOL    HW3 5075   1.127   2.037   2.107
 1261SOL    MW4 5076   1.130   2.029   2.193
 1262SOL     OW 5077   1.094   2.267   2.339
 1262SOL    HW2 5078   1.162   2.325   2.305
 1262SOL    HW3 5079   1.098   2.189   2.282
 1262SOL    MW4 5080   1.104   2.264   2.327
 1263SOL     OW 5081   0.883   2.455   2.264
 1263SOL    HW2 5082   0.956   2.397   2.288
 1263SOL    HW3 5083   0.876   2.446   2.169
 1263SOL    MW4 5084   0.892   2.446   2.255
 1264SOL     OW 5085   0.913   2.717   2.346
 1264SOL    HW2 5086   0.885   2.722   2.438
 1264SOL    HW3 5087   0.909   2.624   2.326
 1264SOL    MW4 5088   0.908   2.705   2.356
 1265SOL     OW 5089   1.133   2.871   2.278
 1265SOL    HW2 5090   1.208   2.823   2.311
 1265SOL    HW3 5091   1.057   2.816   2.302
 1265SOL    MW4 5092   1.133   2.857   2.286
 1266SOL     OW 5093   1.113   3.135   2.372
 1266SOL    HW2 5094   1.040   3.183   2.332
 1266SOL    HW3 5095   1.100   3.045   2.343
 1266SOL    MW4 5096   1.102   3.129   2.363
 1267SOL     OW 5097   0.878   3.233   2.229
 1267SOL    HW2 5098   0.867   3.320   2.268
 1267SOL    HW3 5099   0.821   3.177   2.281
 1267SOL    MW4 5100   0.869   3.237   2.241
 1268SOL     OW 5101   0.869   3.470   2.358
 1268SOL    HW2 5102   0.872   3.461   2.454
 1268SOL    HW3 5103   0.796   3.530   2.342
 1268SOL    MW4 5104   0.860   3.476   2.369
 1269SOL     OW 5105   1.105   3.590   2.274
 1269SOL    HW2 5106   1.189   3.560   2.308
 1269SOL    HW3 5107   1.042   3.526   2.309
 1269SOL    MW4 5108   1.108   3.577   2.283
 1270SOL     OW 5109   1.143   3.859   2.369
 1270SOL    HW2 5110   1.217   3.893   2.318
 1270SOL    HW3 5111   1.133   3.769   2.340
 1270SOL    MW4 5112   1.152   3.852   2.359
 1271SOL     OW 5113   0.916   3.983   2.251
 1271SOL    HW2 5114   0.992   3.951   2.299
 1271SOL    HW3 5115   0.843   3.932   2.286
 1271SOL    MW4 5116   0.916   3.972   2.262
 1272SOL     OW 5117   0.889   4.231   2.397
 1272SOL    HW2 5118   0.908   4.149   2.351
 1272SOL    HW3 5119   0.803   4.258   2.364
 1272SOL    MW4 5120   0.880   4.224   2.387
 1273SOL     OW 5121   1.121   4.342   2.284
 1273SOL    HW2 5122   1.033   4.317   2.310
 1273SOL    HW3 5123   1.129   4.434   2.310
 1273SOL    MW4 5124   1.111   4.351   2.291
 1274SOL     OW 5125   1.574   4.619   2.335
 1274SOL    HW2 5126   1.656   4.658   2.306
 1274SOL    HW3 5127   1.507   4.685   2.315
 1274SOL    MW4 5128   1.576   4.633   2.329
 1275SOL     OW 5129   1.336   0.107   2.293
 1275SOL    HW2 5130   1.327   0.189   2.342
 1275SOL    HW3 5131   1.263   0.053   2.324
 1275SOL    MW4 5132   1.325   0.111   2.304
 1276SOL     OW 5133   1.356   0.345   2.417
 1276SOL    HW2 5134   1.379   0.353   2.510
 1276SOL    HW3 5135   1.418   0.402   2.372
 1276SOL    MW4 5136   1.367   0.353   2.424
 1277SOL     OW 5137   1.563   0.474   2.293
 1277SOL    HW2 5138   1.638   0.422   2.324
 1277SOL    HW3 5139   1.568   0.468   2.197
 1277SOL    MW4 5140   1.573   0.466   2.284
 1278SOL     OW 5141   1.615   0.761   2.343
 1278SOL    HW2 5142   1.694   0.802   2.307
 1278SOL    HW3 5143   1.619   0.670   2.312
 1278SOL    MW4 5144   1.626   0.754   2.335
 1279SOL     OW 5145   1.351   0.878   2.289
 1279SOL    HW2 5146   1.418   0.813   2.308
 1279SOL    HW3 5147   1.269   0.835   2.314
 1279SOL    MW4 5148   1.349   0.864   2.295
 1280SOL     OW 5149   1.370   1.142   2.352
 1280SOL    HW2 5150   1.347   1.153   2.445
 1280SOL    HW3 5151   1.352   1.050   2.334
 1280SOL    MW4 5152   1.365   1.131   2.362
 1281SOL     OW 5153   1.606   1.273   2.238
 1281SOL    HW2 5154   1.526   1.225   2.261
 1281SOL    HW3 5155   1.599   1.288   2.144
 1281SOL    MW4 5156   1.595   1.269   2.229
 1282SOL     OW 5157   1.613   1.527   2.345
 1282SOL    HW2 5158   1.684   1.577   2.304
 1282SOL    HW3 5159   1.602   1.451   2.289
 1282SOL    MW4 5160   1.621   1.524   2.332
 1283SOL     OW 5161   1.378   1.688   2.302
 1283SOL    HW2 5162   1.450   1.638   2.340
 1283SOL    HW3 5163   1.299   1.644   2.333
 1283SOL    MW4 5164   1.377   1.676   2.311
 1284SOL     OW 5165   1.362   1.975   2.342
 1284SOL    HW2 5166   1.440   2.016   2.306
 1284SOL    HW3 5167   1.370   1.883   2.319
 1284SOL    MW4 5168   1.373   1.968   2.334
 1285SOL     OW 5169   1.598   2.093   2.223
 1285SOL    HW2 5170   1.659   2.023   2.245
 1285SOL    HW3 5171   1.589   2.088   2.128
 1285SOL    MW4 5172   1.605   2.083   2.213
 1286SOL     OW 5173   1.569   2.346   2.315
 1286SOL    HW2 5174   1.576   2.349   2.411
 1286SOL    HW3 5175   1.584   2.254   2.293
 1286SOL    MW4 5176   1.572   2.334   2.325
 1287SOL     OW 5177   1.312   2.432   2.257
 1287SOL    HW2 5178   1.398   2.393   2.274
 1287SOL    HW3 5179   1.306   2.436   2.161
 1287SOL    MW4 5180   1.323   2.428   2.246
 1288SOL     OW 5181   1.333   2.713   2.363
 1288SOL    HW2 5182   1.412   2.749   2.322
 1288SOL    HW3 5183   1.328   2.623   2.332
 1288SOL    MW4 5184   1.343   2.706   2.354
 1289SOL     OW 5185   1.582   2.829   2.296
 1289SOL    HW2 5186   1.583   2.920   2.325
 1289SOL    HW3 5187   1.566   2.834   2.202
 1289SOL    MW4 5188   1.580   2.842   2.287
 1290SOL     OW 5189   1.561   3.099   2.371
 1290SOL    HW2 5190   1.564   3.100   2.466
 1290SOL    HW3 5191   1.479   3.141   2.348
 1290SOL    MW4 5192   1.551   3.104   2.380
 1291SOL     OW 5193   1.348   3.243   2.266
 1291SOL    HW2 5194   1.273   3.196   2.303
 1291SOL    HW3 5195   1.344   3.224   2.172
 1291SOL    MW4 5196   1.337   3.234   2.258
 1292SOL     OW 5197   1.354   3.502   2.348
 1292SOL    HW2 5198   1.369   3.489   2.442
 1292SOL    HW3 5199   1.350   3.414   2.312
 1292SOL    MW4 5200   1.355   3.489   2.356
 1293SOL     OW 5201   1.596   3.615   2.234
 1293SOL    HW2 5202   1.599   3.701   2.276
 1293SOL    HW3 5203   1.519   3.573   2.272
 1293SOL    MW4 5204   1.586   3.621   2.245
 1294SOL     OW 5205   1.609   3.862   2.360
 1294SOL    HW2 5206   1.590   3.873   2.453
 1294SOL    HW3 5207   1.691   3.910   2.346
 1294SOL    MW4 5208   1.617   3.870   2.370
 1295SOL     OW 5209   1.356   3.964   2.221
 1295SOL    HW2 5210   1.442   3.926   2.239
 1295SOL    HW3 5211   1.366   4.006   2.135
 1295SOL    MW4 5212   1.368   3.965   2.212
 1296SOL     OW 5213   1.351   4.209   2.364
 1296SOL    HW2 5214   1.354   4.132   2.307
 1296SOL    HW3 5215   1.266   4.248   2.347
 1296SOL    MW4 5216   1.340   4.204   2.354
 1297SOL     OW 5217   1.559   4.350   2.232
 1297SOL    HW2 5218   1.501   4.300   2.289
 1297SOL    HW3 5219   1.547   4.441   2.259
 1297SOL    MW4 5220   1.550   4.355   2.243
 1298SOL     OW 5221   2.043   0.006   2.354
 1298SOL    HW2 5222   2.130   0.018   2.317
 1298SOL    HW3 5223   2.019  -0.083   2.328
 1298SOL    MW4 5224   2.051  -0.005   2.346
 1299SOL     OW 5225   1.801   0.111   2.243
 1299SOL    HW2 5226   1.795   0.181   2.308
 1299SOL    HW3 5227   1.883   0.066   2.264
 1299SOL    MW4 5228   1.811   0.114   2.254
 1300SOL     OW 5229   1.770   0.335   2.393
 1300SOL    HW2 5230   1.768   0.338   2.489
 1300SOL    HW3 5231   1.854   0.375   2.369
 1300SOL    MW4 5232   1.781   0.341   2.402
 1301SOL     OW 5233   1.991   0.462   2.301
 1301SOL    HW2 5234   2.002   0.549   2.339
 1301SOL    HW3 5235   1.976   0.477   2.208
 1301SOL    MW4 5236   1.991   0.475   2.294
 1302SOL     OW 5237   2.060   0.739   2.356
 1302SOL    HW2 5238   2.139   0.778   2.317
 1302SOL    HW3 5239   1.988   0.776   2.306
 1302SOL    MW4 5240   2.061   0.749   2.344
 1303SOL     OW 5241   1.845   0.888   2.262
 1303SOL    HW2 5242   1.849   0.981   2.287
 1303SOL    HW3 5243   1.840   0.889   2.167
 1303SOL    MW4 5244   1.845   0.901   2.253
 1304SOL     OW 5245   1.829   1.149   2.373
 1304SOL    HW2 5246   1.910   1.183   2.334
 1304SOL    HW3 5247   1.760   1.205   2.338
 1304SOL    MW4 5248   1.831   1.161   2.363
 1305SOL     OW 5249   2.051   1.248   2.250
 1305SOL    HW2 5250   2.043   1.336   2.287
 1305SOL    HW3 5251   2.026   1.258   2.158
 1305SOL    MW4 5252   2.046   1.261   2.243
 1306SOL     OW 5253   2.016   1.518   2.312
 1306SOL    HW2 5254   2.006   1.524   2.407
 1306SOL    HW3 5255   1.946   1.574   2.277
 1306SOL    MW4 5256   2.005   1.526   2.320
 1307SOL     OW 5257   1.801   1.671   2.213
 1307SOL    HW2 5258   1.804   1.762   2.242
 1307SOL    HW3 5259   1.801   1.677   2.117
 1307SOL    MW4 5260   1.801   1.684   2.204
 1308SOL     OW 5261   1.792   1.935   2.332
 1308SOL    HW2 5262   1.772   1.940   2.426
 1308SOL    HW3 5263   1.882   1.965   2.325
 1308SOL    MW4 5264   1.801   1.939   2.344
 1309SOL     OW 5265   2.046   2.002   2.282
 1309SOL    HW2 5266   2.125   1.964   2.319
 1309SOL    HW3 5267   2.061   2.003   2.187
 1309SOL    MW4 5268   2.058   1.997   2.274
 1310SOL     OW 5269   1.993   2.282   2.336
 1310SOL    HW2 5270   2.086   2.300   2.318
 1310SOL    HW3 5271   1.987   2.186   2.336
 1310SOL    MW4 5272   2.005   2.271   2.333
 1311SOL     OW 5273   1.799   2.445   2.205
 1311SOL    HW2 5274   1.866   2.383   2.233
 1311SOL    HW3 5275   1.717   2.408   2.237
 1311SOL    MW4 5276   1.797   2.432   2.213
 1312SOL     OW 5277   1.824   2.682   2.339
 1312SOL    HW2 5278   1.819   2.605   2.283
 1312SOL    HW3 5279   1.738   2.723   2.331
 1312SOL    MW4 5280   1.812   2.677   2.330
 1313SOL     OW 5281   2.046   2.836   2.237
 1313SOL    HW2 5282   2.122   2.799   2.283
 1313SOL    HW3 5283   1.972   2.785   2.269
 1313SOL    MW4 5284   2.046   2.824   2.247
 1314SOL     OW 5285   1.988   3.088   2.334
 1314SOL    HW2 5286   2.074   3.130   2.330
 1314SOL    HW3 5287   2.004   2.999   2.301
 1314SOL    MW4 5288   2.002   3.082   2.329
 1315SOL     OW 5289   1.774   3.250   2.247
 1315SOL    HW2 5290   1.856   3.217   2.282
 1315SOL    HW3 5291   1.706   3.200   2.292
 1315SOL    MW4 5292   1.776   3.239   2.257
 1316SOL     OW 5293   1.817   3.498   2.362
 1316SOL    HW2 5294   1.806   3.407   2.333
 1316SOL    HW3 5295   1.741   3.544   2.327
 1316SOL    MW4 5296   1.806   3.492   2.354
 1317SOL     OW 5297   2.053   3.596   2.260
 1317SOL    HW2 5298   1.967   3.560   2.279
 1317SOL    HW3 5299   2.055   3.605   2.165
 1317SOL    MW4 5300   2.042   3.593   2.250
 1318SOL     OW 5301   2.052   3.858   2.376
 1318SOL    HW2 5302   2.046   3.846   2.471
 1318SOL    HW3 5303   2.040   3.770   2.340
 1318SOL    MW4 5304   2.050   3.844   2.384
 1319SOL     OW 5305   1.835   4.014   2.311
 1319SOL    HW2 5306   1.916   3.969   2.333
 1319SOL    HW3 5307   1.842   4.031   2.217
 1319SOL    MW4 5308   1.846   4.010   2.301
 1320SOL     OW 5309   1.803   4.287   2.412
 1320SOL    HW2 5310   1.817   4.196   2.388
 1320SOL    HW3 5311   1.731   4.317   2.357
 1320SOL    MW4 5312   1.795   4.279   2.402
 1321SOL     OW 5313   2.021   4.404   2.281
 1321SOL    HW2 5314   1.950   4.376   2.339
 1321SOL    HW3 5315   1.990   4.381   2.193
 1321SOL    MW4 5316   2.007   4.397   2.277
 1322SOL     OW 5317   2.478   4.643   2.390
 1322SOL    HW2 5318   2.554   4.700   2.382
 1322SOL    HW3 5319   2.496   4.570   2.330
 1322SOL    MW4 5320   2.491   4.641   2.381
 1323SOL     OW 5321   2.288   0.083   2.226
 1323SOL    HW2 5322   2.269   0.168   2.267
 1323SOL    HW3 5323   2.360   0.047   2.278
 1323SOL    MW4 5324   2.295   0.090   2.238
 1324SOL     OW 5325   2.234   0.337   2.332
 1324SOL    HW2 5326   2.301   0.402   2.312
 1324SOL    HW3 5327   2.151   0.382   2.318
 1324SOL    MW4 5328   2.232   0.351   2.328
 1325SOL     OW 5329   2.436   0.491   2.269
 1325SOL    HW2 5330   2.524   0.469   2.300
 1325SOL    HW3 5331   2.446   0.500   2.174
 1325SOL    MW4 5332   2.449   0.489   2.261
 1326SOL     OW 5333   2.484   0.747   2.372
 1326SOL    HW2 5334   2.567   0.779   2.335
 1326SOL    HW3 5335   2.483   0.654   2.350
 1326SOL    MW4 5336   2.495   0.739   2.364
 1327SOL     OW 5337   2.286   0.872   2.222
 1327SOL    HW2 5338   2.278   0.955   2.269
 1327SOL    HW3 5339   2.339   0.817   2.278
 1327SOL    MW4 5340   2.292   0.876   2.235
 1328SOL     OW 5341   2.247   1.096   2.367
 1328SOL    HW2 5342   2.333   1.129   2.343
 1328SOL    HW3 5343   2.185   1.151   2.319
 1328SOL    MW4 5344   2.250   1.108   2.357
 1329SOL     OW 5345   2.480   1.269   2.283
 1329SOL    HW2 5346   2.558   1.228   2.320
 1329SOL    HW3 5347   2.471   1.351   2.333
 1329SOL    MW4 5348   2.489   1.275   2.295
 1330SOL     OW 5349   2.475   1.536   2.372
 1330SOL    HW2 5350   2.462   1.519   2.465
 1330SOL    HW3 5351   2.557   1.585   2.368
 1330SOL    MW4 5352   2.484   1.540   2.384
 1331SOL     OW 5353   2.255   1.659   2.244
 1331SOL    HW2 5354   2.329   1.604   2.269
 1331SOL    HW3 5355   2.178   1.606   2.262
 1331SOL    MW4 5356   2.255   1.645   2.250
 1332SOL     OW 5357   2.278   1.886   2.385
 1332SOL    HW2 5358   2.357   1.933   2.360
 1332SOL    HW3 5359   2.281   1.804   2.336
 1332SOL    MW4 5360   2.289   1.881   2.376
 1333SOL     OW 5361   2.474   2.055   2.263
 1333SOL    HW2 5362   2.552   2.007   2.292
 1333SOL    HW3 5363   2.485   2.064   2.169
 1333SOL    MW4 5364   2.486   2.050   2.255
 1334SOL     OW 5365   2.479   2.311   2.345
 1334SOL    HW2 5366   2.556   2.356   2.312
 1334SOL    HW3 5367   2.485   2.223   2.308
 1334SOL    MW4 5368   2.490   2.305   2.336
 1335SOL     OW 5369   2.230   2.411   2.262
 1335SOL    HW2 5370   2.228   2.500   2.297
 1335SOL    HW3 5371   2.319   2.379   2.281
 1335SOL    MW4 5372   2.242   2.418   2.269
 1336SOL     OW 5373   2.248   2.687   2.355
 1336SOL    HW2 5374   2.253   2.694   2.451
 1336SOL    HW3 5375   2.331   2.722   2.324
 1336SOL    MW4 5376   2.259   2.693   2.364
 1337SOL     OW 5377   2.480   2.841   2.280
 1337SOL    HW2 5378   2.551   2.792   2.322
 1337SOL    HW3 5379   2.502   2.839   2.187
 1337SOL    MW4 5380   2.492   2.834   2.273
 1338SOL     OW 5381   2.458   3.102   2.351
 1338SOL    HW2 5382   2.543   3.138   2.324
 1338SOL    HW3 5383   2.463   3.009   2.327
 1338SOL    MW4 5384   2.470   3.094   2.344
 1339SOL     OW 5385   2.221   3.238   2.283
 1339SOL    HW2 5386   2.242   3.326   2.315
 1339SOL    HW3 5387   2.301   3.187   2.300
 1339SOL    MW4 5388   2.234   3.243   2.290
 1340SOL     OW 5389   2.276   3.477   2.377
 1340SOL    HW2 5390   2.265   3.464   2.471
 1340SOL    HW3 5391   2.196   3.520   2.349
 1340SOL    MW4 5392   2.264   3.481   2.386
 1341SOL     OW 5393   2.501   3.580   2.269
 1341SOL    HW2 5394   2.490   3.671   2.295
 1341SOL    HW3 5395   2.435   3.532   2.321
 1341SOL    MW4 5396   2.490   3.585   2.279
 1342SOL     OW 5397   2.481   3.844   2.329
 1342SOL    HW2 5398   2.463   3.835   2.423
 1342SOL    HW3 5399   2.399   3.876   2.292
 1342SOL    MW4 5400   2.468   3.847   2.337
 1343SOL     OW 5401   2.261   3.953   2.214
 1343SOL    HW2 5402   2.257   4.048   2.221
 1343SOL    HW3 5403   2.195   3.922   2.276
 1343SOL    MW4 5404   2.252   3.961   2.223
 1344SOL     OW 5405   2.220   4.213   2.308
 1344SOL    HW2 5406   2.226   4.200   2.403
 1344SOL    HW3 5407   2.157   4.284   2.298
 1344SOL    MW4 5408   2.213   4.221   2.319
 1345SOL     OW 5409   2.439   4.382   2.260
 1345SOL    HW2 5410   2.509   4.338   2.309
 1345SOL    HW3 5411   2.359   4.339   2.287
 1345SOL    MW4 5412   2.438   4.371   2.270
 1346SOL     OW 5413   2.899   4.651   2.384
 1346SOL    HW2 5414   2.966   4.692   2.330
 1346SOL    HW3 5415   2.886   4.565   2.344
 1346SOL    MW4 5416   2.906   4.645   2.371
 1347SOL     OW 5417   2.688   0.145   2.300
 1347SOL    HW2 5418   2.707   0.236   2.325
 1347SOL    HW3 5419   2.765   0.096   2.328
 1347SOL    MW4 5420   2.701   0.151   2.307
 1348SOL     OW 5421   2.685   0.414   2.386
 1348SOL    HW2 5422   2.684   0.437   2.479
 1348SOL    HW3 5423   2.774   0.434   2.357
 1348SOL    MW4 5424   2.697   0.420   2.395
 1349SOL     OW 5425   2.936   0.478   2.271
 1349SOL    HW2 5426   2.929   0.571   2.291
 1349SOL    HW3 5427   2.942   0.475   2.175
 1349SOL    MW4 5428   2.936   0.490   2.261
 1350SOL     OW 5429   2.934   0.724   2.397
 1350SOL    HW2 5430   2.924   0.736   2.491
 1350SOL    HW3 5431   2.873   0.786   2.358
 1350SOL    MW4 5432   2.925   0.733   2.404
 1351SOL     OW 5433   2.720   0.858   2.272
 1351SOL    HW2 5434   2.713   0.945   2.311
 1351SOL    HW3 5435   2.705   0.872   2.179
 1351SOL    MW4 5436   2.718   0.871   2.265
 1352SOL     OW 5437   2.679   1.117   2.370
 1352SOL    HW2 5438   2.698   1.128   2.463
 1352SOL    HW3 5439   2.750   1.163   2.325
 1352SOL    MW4 5440   2.691   1.125   2.376
 1353SOL     OW 5441   2.918   1.243   2.273
 1353SOL    HW2 5442   3.004   1.206   2.296
 1353SOL    HW3 5443   2.919   1.246   2.177
 1353SOL    MW4 5444   2.930   1.238   2.263
 1354SOL     OW 5445   2.946   1.511   2.394
 1354SOL    HW2 5446   2.936   1.520   2.489
 1354SOL    HW3 5447   2.936   1.417   2.378
 1354SOL    MW4 5448   2.943   1.500   2.404
 1355SOL     OW 5449   2.713   1.656   2.324
 1355SOL    HW2 5450   2.794   1.612   2.351
 1355SOL    HW3 5451   2.716   1.655   2.228
 1355SOL    MW4 5452   2.724   1.650   2.315
 1356SOL     OW 5453   2.704   1.926   2.363
 1356SOL    HW2 5454   2.690   1.941   2.456
 1356SOL    HW3 5455   2.711   1.831   2.354
 1356SOL    MW4 5456   2.703   1.915   2.374
 1357SOL     OW 5457   2.948   2.082   2.301
 1357SOL    HW2 5458   3.018   2.032   2.343
 1357SOL    HW3 5459   2.868   2.033   2.320
 1357SOL    MW4 5460   2.947   2.069   2.309
 1358SOL     OW 5461   2.924   2.349   2.367
 1358SOL    HW2 5462   2.934   2.353   2.462
 1358SOL    HW3 5463   2.935   2.256   2.345
 1358SOL    MW4 5464   2.927   2.337   2.376
 1359SOL     OW 5465   2.694   2.463   2.247
 1359SOL    HW2 5466   2.774   2.430   2.288
 1359SOL    HW3 5467   2.700   2.433   2.156
 1359SOL    MW4 5468   2.705   2.455   2.241
 1360SOL     OW 5469   2.698   2.705   2.398
 1360SOL    HW2 5470   2.778   2.741   2.359
 1360SOL    HW3 5471   2.689   2.618   2.360
 1360SOL    MW4 5472   2.707   2.699   2.388
 1361SOL     OW 5473   2.917   2.817   2.272
 1361SOL    HW2 5474   2.919   2.909   2.297
 1361SOL    HW3 5475   2.927   2.818   2.176
 1361SOL    MW4 5476   2.919   2.829   2.262
 1362SOL     OW 5477   2.912   3.069   2.365
 1362SOL    HW2 5478   2.975   3.135   2.338
 1362SOL    HW3 5479   2.827   3.104   2.339
 1362SOL    MW4 5480   2.909   3.082   2.358
 1363SOL     OW 5481   2.693   3.220   2.286
 1363SOL    HW2 5482   2.701   3.305   2.330
 1363SOL    HW3 5483   2.692   3.242   2.193
 1363SOL    MW4 5484   2.694   3.234   2.280
 1364SOL     OW 5485   2.725   3.488   2.391
 1364SOL    HW2 5486   2.801   3.512   2.337
 1364SOL    HW3 5487   2.650   3.522   2.343
 1364SOL    MW4 5488   2.725   3.496   2.378
 1365SOL     OW 5489   2.936   3.591   2.239
 1365SOL    HW2 5490   3.002   3.544   2.291
 1365SOL    HW3 5491   2.929   3.676   2.282
 1365SOL    MW4 5492   2.944   3.596   2.252
 1366SOL     OW 5493   2.912   3.866   2.330
 1366SOL    HW2 5494   2.898   3.856   2.424
 1366SOL    HW3 5495   2.840   3.921   2.300
 1366SOL    MW4 5496   2.901   3.872   2.339
 1367SOL     OW 5497   2.689   4.006   2.251
 1367SOL    HW2 5498   2.608   3.964   2.279
 1367SOL    HW3 5499   2.684   4.008   2.156
 1367SOL    MW4 5500   2.678   4.001   2.242
 1368SOL     OW 5501   2.667   4.251   2.395
 1368SOL    HW2 5502   2.672   4.232   2.489
 1368SOL    HW3 5503   2.678   4.166   2.353
 1368SOL    MW4 5504   2.669   4.237   2.402
 1369SOL     OW 5505   2.896   4.367   2.267
 1369SOL    HW2 5506   2.974   4.326   2.304
 1369SOL    HW3 5507   2.824   4.331   2.319
 1369SOL    MW4 5508   2.897   4.357   2.279
 1370SOL     OW 5509   3.353   4.659   2.366
 1370SOL    HW2 5510   3.354   4.665   2.461
 1370SOL    HW3 5511   3.429   4.710   2.338
 1370SOL    MW4 5512   3.363   4.667   2.375
 1371SOL     OW 5513   3.104   0.125   2.274
 1371SOL    HW2 5514   3.104   0.216   2.303
 1371SOL    HW3 5515   3.181   0.086   2.315
 1371SOL    MW4 5516   3.114   0.132   2.283
 1372SOL     OW 5517   3.142   0.356   2.388
 1372SOL    HW2 5518   3.220   0.378   2.337
 1372SOL    HW3 5519   3.071   0.407   2.348
 1372SOL    MW4 5520   3.143   0.365   2.376
 1373SOL     OW 5521   3.358   0.480   2.259
 1373SOL    HW2 5522   3.438   0.446   2.301
 1373SOL    HW3 5523   3.366   0.453   2.168
 1373SOL    MW4 5524   3.370   0.472   2.252
 1374SOL     OW 5525   3.357   0.727   2.368
 1374SOL    HW2 5526   3.435   0.770   2.333
 1374SOL    HW3 5527   3.352   0.644   2.321
 1374SOL    MW4 5528   3.366   0.722   2.357
 1375SOL     OW 5529   3.138   0.856   2.247
 1375SOL    HW2 5530   3.222   0.819   2.275
 1375SOL    HW3 5531   3.073   0.803   2.292
 1375SOL    MW4 5532   3.141   0.844   2.256
 1376SOL     OW 5533   3.131   1.103   2.348
 1376SOL    HW2 5534   3.218   1.140   2.334
 1376SOL    HW3 5535   3.136   1.015   2.310
 1376SOL    MW4 5536   3.143   1.096   2.341
 1377SOL     OW 5537   3.349   1.247   2.279
 1377SOL    HW2 5538   3.433   1.206   2.296
 1377SOL    HW3 5539   3.356   1.335   2.316
 1377SOL    MW4 5540   3.361   1.253   2.286
 1378SOL     OW 5541   3.344   1.518   2.359
 1378SOL    HW2 5542   3.362   1.527   2.452
 1378SOL    HW3 5543   3.268   1.575   2.343
 1378SOL    MW4 5544   3.336   1.527   2.369
 1379SOL     OW 5545   3.133   1.671   2.266
 1379SOL    HW2 5546   3.126   1.758   2.304
 1379SOL    HW3 5547   3.074   1.617   2.319
 1379SOL    MW4 5548   3.124   1.675   2.278
 1380SOL     OW 5549   3.174   1.909   2.388
 1380SOL    HW2 5550   3.185   1.924   2.482
 1380SOL    HW3 5551   3.248   1.955   2.348
 1380SOL    MW4 5552   3.186   1.917   2.395
 1381SOL     OW 5553   3.363   2.052   2.272
 1381SOL    HW2 5554   3.443   2.010   2.306
 1381SOL    HW3 5555   3.371   2.043   2.177
 1381SOL    MW4 5556   3.375   2.045   2.264
 1382SOL     OW 5557   3.339   2.301   2.386
 1382SOL    HW2 5558   3.276   2.353   2.335
 1382SOL    HW3 5559   3.346   2.219   2.338
 1382SOL    MW4 5560   3.331   2.297   2.373
 1383SOL     OW 5561   3.161   2.474   2.284
 1383SOL    HW2 5562   3.163   2.553   2.338
 1383SOL    HW3 5563   3.077   2.434   2.305
 1383SOL    MW4 5564   3.150   2.479   2.294
 1384SOL     OW 5565   3.140   2.718   2.407
 1384SOL    HW2 5566   3.142   2.741   2.500
 1384SOL    HW3 5567   3.055   2.750   2.376
 1384SOL    MW4 5568   3.129   2.725   2.415
 1385SOL     OW 5569   3.359   2.804   2.248
 1385SOL    HW2 5570   3.370   2.894   2.278
 1385SOL    HW3 5571   3.281   2.772   2.294
 1385SOL    MW4 5572   3.350   2.811   2.258
 1386SOL     OW 5573   3.352   3.067   2.353
 1386SOL    HW2 5574   3.437   3.102   2.326
 1386SOL    HW3 5575   3.289   3.134   2.326
 1386SOL    MW4 5576   3.355   3.081   2.346
 1387SOL     OW 5577   3.121   3.213   2.262
 1387SOL    HW2 5578   3.122   3.305   2.287
 1387SOL    HW3 5579   3.119   3.213   2.166
 1387SOL    MW4 5580   3.121   3.225   2.253
 1388SOL     OW 5581   3.130   3.470   2.379
 1388SOL    HW2 5582   3.135   3.478   2.474
 1388SOL    HW3 5583   3.212   3.507   2.347
 1388SOL    MW4 5584   3.141   3.476   2.387
 1389SOL     OW 5585   3.341   3.594   2.276
 1389SOL    HW2 5586   3.422   3.552   2.304
 1389SOL    HW3 5587   3.345   3.594   2.180
 1389SOL    MW4 5588   3.352   3.589   2.267
 1390SOL     OW 5589   3.334   3.868   2.396
 1390SOL    HW2 5590   3.403   3.908   2.343
 1390SOL    HW3 5591   3.338   3.775   2.374
 1390SOL    MW4 5592   3.344   3.861   2.386
 1391SOL     OW 5593   3.147   4.001   2.249
 1391SOL    HW2 5594   3.212   3.942   2.288
 1391SOL    HW3 5595   3.063   3.966   2.275
 1391SOL    MW4 5596   3.145   3.989   2.257
 1392SOL     OW 5597   3.124   4.234   2.390
 1392SOL    HW2 5598   3.188   4.291   2.347
 1392SOL    HW3 5599   3.140   4.147   2.353
 1392SOL    MW4 5600   3.135   4.230   2.380
 1393SOL     OW 5601   3.306   4.407   2.281
 1393SOL    HW2 5602   3.322   4.497   2.312
 1393SOL    HW3 5603   3.322   4.412   2.187
 1393SOL    MW4 5604   3.310   4.420   2.273
 1394SOL     OW 5605   3.792   4.640   2.356
 1394SOL    HW2 5606   3.792   4.652   2.451
 1394SOL    HW3 5607   3.869   4.688   2.326
 1394SOL    MW4 5608   3.802   4.648   2.365
 1395SOL     OW 5609   3.581   0.128   2.252
 1395SOL    HW2 5610   3.599   0.216   2.285
 1395SOL    HW3 5611   3.653   0.075   2.286
 1395SOL    MW4 5612   3.593   0.133   2.260
 1396SOL     OW 5613   3.610   0.379   2.367
 1396SOL    HW2 5614   3.600   0.364   2.461
 1396SOL    HW3 5615   3.696   0.420   2.359
 1396SOL    MW4 5616   3.620   0.382   2.378
 1397SOL     OW 5617   3.845   0.527   2.314
 1397SOL    HW2 5618   3.823   0.614   2.348
 1397SOL    HW3 5619   3.824   0.531   2.221
 1397SOL    MW4 5620   3.840   0.539   2.307
 1398SOL     OW 5621   3.799   0.797   2.389
 1398SOL    HW2 5622   3.812   0.791   2.484
 1398SOL    HW3 5623   3.873   0.850   2.358
 1398SOL    MW4 5624   3.810   0.803   2.398
 1399SOL     OW 5625   3.564   0.864   2.253
 1399SOL    HW2 5626   3.651   0.843   2.286
 1399SOL    HW3 5627   3.573   0.859   2.158
 1399SOL    MW4 5628   3.576   0.860   2.245
 1400SOL     OW 5629   3.613   1.117   2.350
 1400SOL    HW2 5630   3.633   1.108   2.443
 1400SOL    HW3 5631   3.607   1.027   2.318
 1400SOL    MW4 5632   3.615   1.104   2.358
 1401SOL     OW 5633   3.811   1.271   2.218
 1401SOL    HW2 5634   3.796   1.361   2.247
 1401SOL    HW3 5635   3.743   1.220   2.262
 1401SOL    MW4 5636   3.800   1.276   2.228
 1402SOL     OW 5637   3.785   1.540   2.319
 1402SOL    HW2 5638   3.769   1.520   2.411
 1402SOL    HW3 5639   3.709   1.592   2.293
 1402SOL    MW4 5640   3.773   1.544   2.327
 1403SOL     OW 5641   3.561   1.695   2.231
 1403SOL    HW2 5642   3.481   1.655   2.265
 1403SOL    HW3 5643   3.553   1.687   2.136
 1403SOL    MW4 5644   3.549   1.688   2.223
 1404SOL     OW 5645   3.588   1.931   2.378
 1404SOL    HW2 5646   3.659   1.980   2.335
 1404SOL    HW3 5647   3.586   1.847   2.332
 1404SOL    MW4 5648   3.597   1.927   2.367
 1405SOL     OW 5649   3.807   2.064   2.281
 1405SOL    HW2 5650   3.877   2.001   2.296
 1405SOL    HW3 5651   3.801   2.071   2.185
 1405SOL    MW4 5652   3.815   2.057   2.270
 1406SOL     OW 5653   3.818   2.339   2.404
 1406SOL    HW2 5654   3.735   2.378   2.376
 1406SOL    HW3 5655   3.808   2.246   2.385
 1406SOL    MW4 5656   3.806   2.332   2.398
 1407SOL     OW 5657   3.570   2.445   2.314
 1407SOL    HW2 5658   3.487   2.401   2.332
 1407SOL    HW3 5659   3.592   2.418   2.225
 1407SOL    MW4 5660   3.562   2.435   2.304
 1408SOL     OW 5661   3.597   2.719   2.385
 1408SOL    HW2 5662   3.616   2.627   2.366
 1408SOL    HW3 5663   3.515   2.737   2.340
 1408SOL    MW4 5664   3.589   2.709   2.376
 1409SOL     OW 5665   3.808   2.819   2.237
 1409SOL    HW2 5666   3.813   2.914   2.249
 1409SOL    HW3 5667   3.732   2.792   2.289
 1409SOL    MW4 5668   3.799   2.828   2.246
 1410SOL     OW 5669   3.817   3.085   2.319
 1410SOL    HW2 5670   3.829   3.098   2.413
 1410SOL    HW3 5671   3.882   3.141   2.279
 1410SOL    MW4 5672   3.827   3.094   2.326
 1411SOL     OW 5673   3.568   3.214   2.254
 1411SOL    HW2 5674   3.577   3.306   2.276
 1411SOL    HW3 5675   3.646   3.172   2.291
 1411SOL    MW4 5676   3.580   3.220   2.262
 1412SOL     OW 5677   3.569   3.477   2.365
 1412SOL    HW2 5678   3.586   3.479   2.459
 1412SOL    HW3 5679   3.642   3.526   2.327
 1412SOL    MW4 5680   3.581   3.484   2.372
 1413SOL     OW 5681   3.762   3.618   2.245
 1413SOL    HW2 5682   3.758   3.707   2.280
 1413SOL    HW3 5683   3.772   3.631   2.150
 1413SOL    MW4 5684   3.763   3.631   2.237
 1414SOL     OW 5685   3.784   3.859   2.371
 1414SOL    HW2 5686   3.803   3.843   2.463
 1414SOL    HW3 5687   3.862   3.904   2.338
 1414SOL    MW4 5688   3.797   3.863   2.379
 1415SOL     OW 5689   3.552   3.982   2.277
 1415SOL    HW2 5690   3.569   4.070   2.309
 1415SOL    HW3 5691   3.628   3.931   2.304
 1415SOL    MW4 5692   3.564   3.987   2.284
 1416SOL     OW 5693   3.546   4.262   2.349
 1416SOL    HW2 5694   3.603   4.306   2.287
 1416SOL    HW3 5695   3.459   4.300   2.334
 1416SOL    MW4 5696   3.542   4.273   2.339
 1417SOL     OW 5697   3.754   4.383   2.223
 1417SOL    HW2 5698   3.822   4.336   2.272
 1417SOL    HW3 5699   3.772   4.475   2.239
 1417SOL    MW4 5700   3.765   4.389   2.232
 1418SOL     OW 5701   4.245   4.664   2.323
 1418SOL    HW2 5702   4.257   4.653   2.418
 1418SOL    HW3 5703   4.322   4.712   2.295
 1418SOL    MW4 5704   4.257   4.669   2.332
 1419SOL     OW 5705   4.008   0.125   2.257
 1419SOL    HW2 5706   4.024   0.204   2.309
 1419SOL    HW3 5707   4.087   0.072   2.270
 1419SOL    MW4 5708   4.020   0.128   2.266
 1420SOL     OW 5709   4.067   0.385   2.390
 1420SOL    HW2 5710   4.143   0.429   2.352
 1420SOL    HW3 5711   3.991   0.432   2.356
 1420SOL    MW4 5712   4.067   0.397   2.380
 1421SOL     OW 5713   4.282   0.500   2.249
 1421SOL    HW2 5714   4.267   0.591   2.276
 1421SOL    HW3 5715   4.359   0.473   2.298
 1421SOL    MW4 5716   4.290   0.508   2.259
 1422SOL     OW 5717   4.232   0.750   2.351
 1422SOL    HW2 5718   4.160   0.805   2.320
 1422SOL    HW3 5719   4.308   0.807   2.350
 1422SOL    MW4 5720   4.232   0.764   2.347
 1423SOL     OW 5721   4.019   0.916   2.265
 1423SOL    HW2 5722   4.036   1.006   2.293
 1423SOL    HW3 5723   4.029   0.919   2.169
 1423SOL    MW4 5724   4.023   0.928   2.256
 1424SOL     OW 5725   4.054   1.195   2.324
 1424SOL    HW2 5726   4.040   1.192   2.419
 1424SOL    HW3 5727   3.974   1.232   2.289
 1424SOL    MW4 5728   4.042   1.199   2.332
 1425SOL     OW 5729   4.298   1.304   2.249
 1425SOL    HW2 5730   4.211   1.269   2.267
 1425SOL    HW3 5731   4.357   1.252   2.303
 1425SOL    MW4 5732   4.295   1.293   2.258
 1426SOL     OW 5733   4.276   1.542   2.378
 1426SOL    HW2 5734   4.286   1.465   2.322
 1426SOL    HW3 5735   4.351   1.597   2.357
 1426SOL    MW4 5736   4.287   1.539   2.368
 1427SOL     OW 5737   4.041   1.682   2.301
 1427SOL    HW2 5738   4.118   1.639   2.339
 1427SOL    HW3 5739   3.972   1.616   2.306
 1427SOL    MW4 5740   4.042   1.668   2.307
 1428SOL     OW 5741   4.036   1.956   2.369
 1428SOL    HW2 5742   4.039   1.959   2.465
 1428SOL    HW3 5743   4.050   1.864   2.347
 1428SOL    MW4 5744   4.038   1.944   2.379
 1429SOL     OW 5745   4.285   2.038   2.264
 1429SOL    HW2 5746   4.284   2.130   2.291
 1429SOL    HW3 5747   4.199   2.004   2.289
 1429SOL    MW4 5748   4.273   2.046   2.271
 1430SOL     OW 5749   4.274   2.316   2.376
 1430SOL    HW2 5750   4.194   2.345   2.332
 1430SOL    HW3 5751   4.345   2.352   2.323
 1430SOL    MW4 5752   4.272   2.325   2.363
 1431SOL     OW 5753   4.061   2.440   2.258
 1431SOL    HW2 5754   4.080   2.528   2.291
 1431SOL    HW3 5755   3.983   2.413   2.305
 1431SOL    MW4 5756   4.053   2.448   2.268
 1432SOL     OW 5757   4.054   2.708   2.360
 1432SOL    HW2 5758   4.059   2.746   2.447
 1432SOL    HW3 5759   3.969   2.736   2.327
 1432SOL    MW4 5760   4.043   2.717   2.367
 1433SOL     OW 5761   4.262   2.814   2.225
 1433SOL    HW2 5762   4.183   2.773   2.261
 1433SOL    HW3 5763   4.334   2.766   2.265
 1433SOL    MW4 5764   4.261   2.802   2.235
 1434SOL     OW 5765   4.244   3.076   2.351
 1434SOL    HW2 5766   4.247   2.990   2.309
 1434SOL    HW3 5767   4.331   3.114   2.335
 1434SOL    MW4 5768   4.256   3.070   2.343
 1435SOL     OW 5769   4.035   3.232   2.226
 1435SOL    HW2 5770   4.034   3.319   2.266
 1435SOL    HW3 5771   4.108   3.187   2.269
 1435SOL    MW4 5772   4.044   3.237   2.237
 1436SOL     OW 5773   4.018   3.468   2.344
 1436SOL    HW2 5774   4.100   3.514   2.325
 1436SOL    HW3 5775   3.950   3.533   2.329
 1436SOL    MW4 5776   4.020   3.483   2.339
 1437SOL     OW 5777   4.243   3.611   2.273
 1437SOL    HW2 5778   4.233   3.702   2.301
 1437SOL    HW3 5779   4.249   3.616   2.178
 1437SOL    MW4 5780   4.243   3.624   2.264
 1438SOL     OW 5781   4.232   3.868   2.359
 1438SOL    HW2 5782   4.252   3.867   2.452
 1438SOL    HW3 5783   4.301   3.922   2.320
 1438SOL    MW4 5784   4.244   3.875   2.366
 1439SOL     OW 5785   4.004   3.992   2.285
 1439SOL    HW2 5786   4.085   3.954   2.319
 1439SOL    HW3 5787   4.023   4.012   2.193
 1439SOL    MW4 5788   4.017   3.990   2.277
 1440SOL     OW 5789   3.952   4.248   2.370
 1440SOL    HW2 5790   4.038   4.278   2.341
 1440SOL    HW3 5791   3.949   4.155   2.345
 1440SOL    MW4 5792   3.963   4.239   2.363
 1441SOL     OW 5793   4.188   4.388   2.272
 1441SOL    HW2 5794   4.206   4.480   2.292
 1441SOL    HW3 5795   4.272   4.344   2.284
 1441SOL    MW4 5796   4.201   4.394   2.276
 1442SOL     OW 5797   0.216   4.664   2.662
 1442SOL    HW2 5798   0.216   4.572   2.689
 1442SOL    HW3 5799   0.135   4.699   2.698
 1442SOL    MW4 5800   0.206   4.656   2.670
 1443SOL     OW 5801   4.477   0.132   2.752
 1443SOL    HW2 5802   4.469   0.126   2.847
 1443SOL    HW3 5803   4.494   0.225   2.735
 1443SOL    MW4 5804   4.478   0.143   2.762
 1444SOL     OW 5805   4.463   0.405   2.692
 1444SOL    HW2 5806   4.543   0.456   2.707
 1444SOL    HW3 5807   4.464   0.387   2.598
 1444SOL    MW4 5808   4.474   0.410   2.681
 1445SOL     OW 5809   0.224   0.547   2.727
 1445SOL    HW2 5810   0.219   0.549   2.822
 1445SOL    HW3 5811   0.283   0.474   2.707
 1445SOL    MW4 5812   0.231   0.538   2.737
 1446SOL     OW 5813   0.221   0.798   2.610
 1446SOL    HW2 5814   0.291   0.842   2.659
 1446SOL    HW3 5815   0.225   0.707   2.639
 1446SOL    MW4 5816   0.231   0.792   2.620
 1447SOL     OW 5817   4.485   0.899   2.773
 1447SOL    HW2 5818   4.407   0.848   2.748
 1447SOL    HW3 5819   4.546   0.887   2.700
 1447SOL    MW4 5820   4.482   0.890   2.760
 1448SOL     OW 5821   4.474   1.154   2.678
 1448SOL    HW2 5822   4.541   1.203   2.724
 1448SOL    HW3 5823   4.480   1.065   2.712
 1448SOL    MW4 5824   4.483   1.149   2.688
 1449SOL     OW 5825   0.197   1.278   2.781
 1449SOL    HW2 5826   0.268   1.232   2.738
 1449SOL    HW3 5827   0.180   1.354   2.725
 1449SOL    MW4 5828   0.204   1.282   2.768
 1450SOL     OW 5829   0.184   1.521   2.631
 1450SOL    HW2 5830   0.262   1.563   2.667
 1450SOL    HW3 5831   0.113   1.549   2.689
 1450SOL    MW4 5832   0.185   1.530   2.643
 1451SOL     OW 5833   4.452   1.645   2.758
 1451SOL    HW2 5834   4.461   1.641   2.853
 1451SOL    HW3 5835   4.443   1.738   2.739
 1451SOL    MW4 5836   4.452   1.657   2.768
 1452SOL     OW 5837   4.487   1.905   2.671
 1452SOL    HW2 5838   4.571   1.928   2.711
 1452SOL    HW3 5839   4.497   1.929   2.579
 1452SOL    MW4 5840   4.499   1.911   2.664
 1453SOL     OW 5841   0.245   1.998   2.757
 1453SOL    HW2 5842   0.326   1.974   2.712
 1453SOL    HW3 5843   0.232   2.090   2.738
 1453SOL    MW4 5844   0.254   2.007   2.749
 1454SOL     OW 5845   0.223   2.264   2.643
 1454SOL    HW2 5846   0.298   2.302   2.689
 1454SOL    HW3 5847   0.150   2.321   2.665
 1454SOL    MW4 5848   0.224   2.276   2.652
 1455SOL     OW 5849   4.484   2.395   2.748
 1455SOL    HW2 5850   4.466   2.412   2.841
 1455SOL    HW3 5851   4.402   2.363   2.713
 1455SOL    MW4 5852   4.471   2.393   2.756
 1456SOL     OW 5853   4.473   2.649   2.644
 1456SOL    HW2 5854   4.409   2.702   2.692
 1456SOL    HW3 5855   4.466   2.562   2.682
 1456SOL    MW4 5856   4.464   2.645   2.655
 1457SOL     OW 5857   0.204   2.776   2.740
 1457SOL    HW2 5858   0.197   2.865   2.706
 1457SOL    HW3 5859   0.134   2.728   2.696
 1457SOL    MW4 5860   0.194   2.782   2.730
 1458SOL     OW 5861   0.224   3.048   2.673
 1458SOL    HW2 5862   0.300   3.085   2.717
 1458SOL    HW3 5863   0.235   3.073   2.581
 1458SOL    MW4 5864   0.235   3.056   2.667
 1459SOL     OW 5865   4.489   3.207   2.726
 1459SOL    HW2 5866   4.410   3.162   2.697
 1459SOL    HW3 5867   4.558   3.141   2.719
 1459SOL    MW4 5868   4.488   3.192   2.721
 1460SOL     OW 5869   0.012   3.443   2.600
 1460SOL    HW2 5870   0.085   3.484   2.645
 1460SOL    HW3 5871   0.003   3.357   2.642
 1460SOL    MW4 5872   0.020   3.437   2.612
 1461SOL     OW 5873   0.210   3.605   2.731
 1461SOL    HW2 5874   0.232   3.645   2.815
 1461SOL    HW3 5875   0.290   3.560   2.704
 1461SOL    MW4 5876   0.223   3.604   2.738
 1462SOL     OW 5877   0.204   3.851   2.612
 1462SOL    HW2 5878   0.236   3.761   2.624
 1462SOL    HW3 5879   0.197   3.861   2.517
 1462SOL    MW4 5880   0.207   3.840   2.601
 1463SOL     OW 5881   4.487   4.021   2.723
 1463SOL    HW2 5882   4.464   4.101   2.675
 1463SOL    HW3 5883   4.553   3.979   2.668
 1463SOL    MW4 5884   4.493   4.026   2.709
 1464SOL     OW 5885   4.471   4.255   2.599
 1464SOL    HW2 5886   4.401   4.304   2.643
 1464SOL    HW3 5887   4.552   4.288   2.639
 1464SOL    MW4 5888   4.473   4.266   2.610
 1465SOL     OW 5889   0.191   4.386   2.727
 1465SOL    HW2 5890   0.194   4.391   2.822
 1465SOL    HW3 5891   0.274   4.344   2.702
 1465SOL    MW4 5892   0.203   4.381   2.736
 1466SOL     OW 5893   0.654   4.636   2.644
 1466SOL    HW2 5894   0.731   4.686   2.672
 1466SOL    HW3 5895   0.582   4.673   2.695
 1466SOL    MW4 5896   0.655   4.648   2.654
 1467SOL     OW 5897   0.443   0.117   2.780
 1467SOL    HW2 5898   0.462   0.113   2.874
 1467SOL    HW3 5899   0.355   0.078   2.772
 1467SOL    MW4 5900   0.434   0.111   2.792
 1468SOL     OW 5901   0.436   0.348   2.625
 1468SOL    HW2 5902   0.505   0.409   2.650
 1468SOL    HW3 5903   0.448   0.273   2.683
 1468SOL    MW4 5904   0.447   0.346   2.636
 1469SOL     OW 5905   0.655   0.487   2.725
 1469SOL    HW2 5906   0.647   0.484   2.821
 1469SOL    HW3 5907   0.741   0.451   2.706
 1469SOL    MW4 5908   0.665   0.482   2.735
 1470SOL     OW 5909   0.664   0.764   2.666
 1470SOL    HW2 5910   0.746   0.793   2.705
 1470SOL    HW3 5911   0.652   0.674   2.698
 1470SOL    MW4 5912   0.673   0.756   2.675
 1471SOL     OW 5913   0.442   0.894   2.757
 1471SOL    HW2 5914   0.458   0.987   2.740
 1471SOL    HW3 5915   0.521   0.850   2.725
 1471SOL    MW4 5916   0.455   0.900   2.751
 1472SOL     OW 5917   0.451   1.159   2.694
 1472SOL    HW2 5918   0.515   1.223   2.726
 1472SOL    HW3 5919   0.450   1.174   2.599
 1472SOL    MW4 5920   0.460   1.170   2.685
 1473SOL     OW 5921   0.673   1.304   2.804
 1473SOL    HW2 5922   0.681   1.295   2.899
 1473SOL    HW3 5923   0.739   1.245   2.768
 1473SOL    MW4 5924   0.683   1.295   2.811
 1474SOL     OW 5925   0.658   1.541   2.652
 1474SOL    HW2 5926   0.580   1.589   2.681
 1474SOL    HW3 5927   0.650   1.455   2.693
 1474SOL    MW4 5928   0.646   1.536   2.661
 1475SOL     OW 5929   0.422   1.647   2.731
 1475SOL    HW2 5930   0.430   1.644   2.826
 1475SOL    HW3 5931   0.434   1.739   2.708
 1475SOL    MW4 5932   0.424   1.659   2.740
 1476SOL     OW 5933   0.472   1.895   2.636
 1476SOL    HW2 5934   0.547   1.946   2.667
 1476SOL    HW3 5935   0.489   1.880   2.543
 1476SOL    MW4 5936   0.484   1.900   2.628
 1477SOL     OW 5937   0.678   2.060   2.751
 1477SOL    HW2 5938   0.685   2.050   2.846
 1477SOL    HW3 5939   0.756   2.017   2.717
 1477SOL    MW4 5940   0.689   2.053   2.759
 1478SOL     OW 5941   0.684   2.320   2.628
 1478SOL    HW2 5942   0.753   2.371   2.670
 1478SOL    HW3 5943   0.704   2.229   2.651
 1478SOL    MW4 5944   0.696   2.315   2.637
 1479SOL     OW 5945   0.437   2.432   2.761
 1479SOL    HW2 5946   0.435   2.514   2.712
 1479SOL    HW3 5947   0.515   2.386   2.727
 1479SOL    MW4 5948   0.447   2.437   2.750
 1480SOL     OW 5949   0.445   2.680   2.640
 1480SOL    HW2 5950   0.507   2.733   2.690
 1480SOL    HW3 5951   0.359   2.715   2.664
 1480SOL    MW4 5952   0.442   2.692   2.650
 1481SOL     OW 5953   0.648   2.809   2.765
 1481SOL    HW2 5954   0.638   2.813   2.860
 1481SOL    HW3 5955   0.677   2.897   2.741
 1481SOL    MW4 5956   0.651   2.821   2.774
 1482SOL     OW 5957   0.688   3.063   2.672
 1482SOL    HW2 5958   0.771   3.107   2.694
 1482SOL    HW3 5959   0.678   3.079   2.578
 1482SOL    MW4 5960   0.698   3.071   2.663
 1483SOL     OW 5961   0.440   3.216   2.771
 1483SOL    HW2 5962   0.441   3.236   2.864
 1483SOL    HW3 5963   0.529   3.187   2.752
 1483SOL    MW4 5964   0.452   3.215   2.781
 1484SOL     OW 5965   0.433   3.471   2.675
 1484SOL    HW2 5966   0.417   3.381   2.703
 1484SOL    HW3 5967   0.451   3.464   2.581
 1484SOL    MW4 5968   0.433   3.459   2.666
 1485SOL     OW 5969   0.680   3.602   2.755
 1485SOL    HW2 5970   0.688   3.617   2.849
 1485SOL    HW3 5971   0.598   3.555   2.744
 1485SOL    MW4 5972   0.670   3.598   2.766
 1486SOL     OW 5973   0.649   3.908   2.682
 1486SOL    HW2 5974   0.561   3.924   2.716
 1486SOL    HW3 5975   0.670   3.819   2.709
 1486SOL    MW4 5976   0.640   3.899   2.690
 1487SOL     OW 5977   0.396   3.982   2.774
 1487SOL    HW2 5978   0.393   4.066   2.729
 1487SOL    HW3 5979   0.324   3.932   2.737
 1487SOL    MW4 5980   0.386   3.986   2.764
 1488SOL     OW 5981   0.403   4.225   2.652
 1488SOL    HW2 5982   0.484   4.263   2.684
 1488SOL    HW3 5983   0.410   4.230   2.556
 1488SOL    MW4 5984   0.414   4.231   2.643
 1489SOL     OW 5985   0.626   4.372   2.733
 1489SOL    HW2 5986   0.717   4.347   2.717
 1489SOL    HW3 5987   0.621   4.463   2.703
 1489SOL    MW4 5988   0.638   4.381   2.727
 1490SOL     OW 5989   1.110   4.627   2.657
 1490SOL    HW2 5990   1.187   4.668   2.696
 1490SOL    HW3 5991   1.118   4.534   2.680
 1490SOL    MW4 5992   1.121   4.620   2.665
 1491SOL     OW 5993   0.894   0.118   2.723
 1491SOL    HW2 5994   0.900   0.122   2.819
 1491SOL    HW3 5995   0.960   0.055   2.697
 1491SOL    MW4 5996   0.904   0.110   2.732
 1492SOL     OW 5997   0.906   0.381   2.656
 1492SOL    HW2 5998   0.904   0.289   2.680
 1492SOL    HW3 5999   0.909   0.381   2.561
 1492SOL    MW4 6000   0.906   0.369   2.647
 1493SOL     OW 6001   1.153   0.489   2.712
 1493SOL    HW2 6002   1.142   0.580   2.684
 1493SOL    HW3 6003   1.067   0.449   2.699
 1493SOL    MW4 6004   1.141   0.496   2.707
 1494SOL     OW 6005   1.121   0.752   2.629
 1494SOL    HW2 6006   1.196   0.800   2.665
 1494SOL    HW3 6007   1.118   0.776   2.537
 1494SOL    MW4 6008   1.131   0.762   2.622
 1495SOL     OW 6009   0.898   0.852   2.772
 1495SOL    HW2 6010   0.913   0.877   2.863
 1495SOL    HW3 6011   0.967   0.788   2.754
 1495SOL    MW4 6012   0.909   0.847   2.782
 1496SOL     OW 6013   0.849   1.134   2.686
 1496SOL    HW2 6014   0.855   1.042   2.709
 1496SOL    HW3 6015   0.879   1.138   2.595
 1496SOL    MW4 6016   0.853   1.123   2.677
 1497SOL     OW 6017   1.094   1.293   2.724
 1497SOL    HW2 6018   1.092   1.384   2.693
 1497SOL    HW3 6019   1.002   1.266   2.724
 1497SOL    MW4 6020   1.081   1.302   2.720
 1498SOL     OW 6021   1.121   1.560   2.631
 1498SOL    HW2 6022   1.034   1.597   2.648
 1498SOL    HW3 6023   1.125   1.554   2.535
 1498SOL    MW4 6024   1.110   1.564   2.620
 1499SOL     OW 6025   0.873   1.677   2.728
 1499SOL    HW2 6026   0.859   1.685   2.822
 1499SOL    HW3 6027   0.791   1.643   2.693
 1499SOL    MW4 6028   0.861   1.674   2.736
 1500SOL     OW 6029   0.892   1.930   2.598
 1500SOL    HW2 6030   0.965   1.976   2.639
 1500SOL    HW3 6031   0.895   1.842   2.634
 1500SOL    MW4 6032   0.902   1.925   2.608
 1501SOL     OW 6033   1.090   2.079   2.730
 1501SOL    HW2 6034   1.174   2.044   2.700
 1501SOL    HW3 6035   1.086   2.167   2.692
 1501SOL    MW4 6036   1.101   2.086   2.721
 1502SOL     OW 6037   1.084   2.340   2.613
 1502SOL    HW2 6038   1.164   2.390   2.632
 1502SOL    HW3 6039   1.095   2.313   2.522
 1502SOL    MW4 6040   1.096   2.343   2.603
 1503SOL     OW 6041   0.887   2.466   2.755
 1503SOL    HW2 6042   0.870   2.549   2.711
 1503SOL    HW3 6043   0.950   2.421   2.700
 1503SOL    MW4 6044   0.893   2.471   2.742
 1504SOL     OW 6045   0.856   2.702   2.634
 1504SOL    HW2 6046   0.927   2.754   2.672
 1504SOL    HW3 6047   0.778   2.730   2.680
 1504SOL    MW4 6048   0.855   2.713   2.645
 1505SOL     OW 6049   1.083   2.832   2.760
 1505SOL    HW2 6050   1.106   2.825   2.853
 1505SOL    HW3 6051   1.159   2.795   2.714
 1505SOL    MW4 6052   1.096   2.826   2.766
 1506SOL     OW 6053   1.148   3.096   2.684
 1506SOL    HW2 6054   1.122   3.007   2.707
 1506SOL    HW3 6055   1.136   3.101   2.589
 1506SOL    MW4 6056   1.143   3.085   2.675
 1507SOL     OW 6057   0.919   3.208   2.785
 1507SOL    HW2 6058   0.903   3.286   2.732
 1507SOL    HW3 6059   1.006   3.179   2.757
 1507SOL    MW4 6060   0.928   3.215   2.774
 1508SOL     OW 6061   0.887   3.462   2.650
 1508SOL    HW2 6062   0.961   3.508   2.691
 1508SOL    HW3 6063   0.810   3.512   2.680
 1508SOL    MW4 6064   0.887   3.475   2.659
 1509SOL     OW 6065   1.102   3.599   2.749
 1509SOL    HW2 6066   1.101   3.626   2.841
 1509SOL    HW3 6067   1.100   3.681   2.700
 1509SOL    MW4 6068   1.102   3.613   2.755
 1510SOL     OW 6069   1.098   3.851   2.634
 1510SOL    HW2 6070   1.178   3.889   2.672
 1510SOL    HW3 6071   1.110   3.859   2.540
 1510SOL    MW4 6072   1.110   3.857   2.627
 1511SOL     OW 6073   0.893   4.008   2.762
 1511SOL    HW2 6074   0.958   3.963   2.707
 1511SOL    HW3 6075   0.809   3.970   2.735
 1511SOL    MW4 6076   0.890   3.997   2.751
 1512SOL     OW 6077   0.888   4.266   2.680
 1512SOL    HW2 6078   0.892   4.174   2.705
 1512SOL    HW3 6079   0.884   4.265   2.585
 1512SOL    MW4 6080   0.888   4.254   2.671
 1513SOL     OW 6081   1.144   4.351   2.757
 1513SOL    HW2 6082   1.137   4.378   2.849
 1513SOL    HW3 6083   1.055   4.327   2.732
 1513SOL    MW4 6084   1.131   4.351   2.766
 1514SOL     OW 6085   1.570   4.633   2.616
 1514SOL    HW2 6086   1.573   4.538   2.632
 1514SOL    HW3 6087   1.563   4.641   2.521
 1514SOL    MW4 6088   1.569   4.621   2.605
 1515SOL     OW 6089   1.357   0.080   2.750
 1515SOL    HW2 6090   1.349   0.162   2.700
 1515SOL    HW3 6091   1.404   0.021   2.692
 1515SOL    MW4 6092   1.362   0.083   2.736
 1516SOL     OW 6093   1.380   0.337   2.683
 1516SOL    HW2 6094   1.457   0.388   2.708
 1516SOL    HW3 6095   1.306   0.397   2.696
 1516SOL    MW4 6096   1.380   0.352   2.688
 1517SOL     OW 6097   1.590   0.512   2.759
 1517SOL    HW2 6098   1.654   0.455   2.716
 1517SOL    HW3 6099   1.602   0.598   2.718
 1517SOL    MW4 6100   1.600   0.516   2.748
 1518SOL     OW 6101   1.599   0.761   2.639
 1518SOL    HW2 6102   1.510   0.788   2.663
 1518SOL    HW3 6103   1.601   0.764   2.544
 1518SOL    MW4 6104   1.587   0.765   2.630
 1519SOL     OW 6105   1.355   0.871   2.728
 1519SOL    HW2 6106   1.354   0.887   2.822
 1519SOL    HW3 6107   1.341   0.957   2.688
 1519SOL    MW4 6108   1.353   0.884   2.735
 1520SOL     OW 6109   1.314   1.148   2.625
 1520SOL    HW2 6110   1.385   1.205   2.654
 1520SOL    HW3 6111   1.235   1.185   2.665
 1520SOL    MW4 6112   1.313   1.160   2.634
 1521SOL     OW 6113   1.572   1.260   2.719
 1521SOL    HW2 6114   1.581   1.258   2.814
 1521SOL    HW3 6115   1.653   1.221   2.686
 1521SOL    MW4 6116   1.584   1.255   2.727
 1522SOL     OW 6117   1.526   1.527   2.602
 1522SOL    HW2 6118   1.542   1.443   2.643
 1522SOL    HW3 6119   1.545   1.513   2.509
 1522SOL    MW4 6120   1.531   1.514   2.595
 1523SOL     OW 6121   1.330   1.703   2.739
 1523SOL    HW2 6122   1.400   1.649   2.702
 1523SOL    HW3 6123   1.250   1.652   2.723
 1523SOL    MW4 6124   1.329   1.689   2.732
 1524SOL     OW 6125   1.324   1.958   2.622
 1524SOL    HW2 6126   1.338   1.872   2.660
 1524SOL    HW3 6127   1.326   1.943   2.527
 1524SOL    MW4 6128   1.326   1.945   2.614
 1525SOL     OW 6129   1.555   2.086   2.703
 1525SOL    HW2 6130   1.616   2.036   2.650
 1525SOL    HW3 6131   1.469   2.055   2.676
 1525SOL    MW4 6132   1.552   2.075   2.693
 1526SOL     OW 6133   1.563   2.343   2.606
 1526SOL    HW2 6134   1.631   2.389   2.654
 1526SOL    HW3 6135   1.570   2.252   2.635
 1526SOL    MW4 6136   1.573   2.337   2.616
 1527SOL     OW 6137   1.326   2.457   2.702
 1527SOL    HW2 6138   1.347   2.548   2.682
 1527SOL    HW3 6139   1.400   2.407   2.669
 1527SOL    MW4 6140   1.338   2.463   2.695
 1528SOL     OW 6141   1.321   2.740   2.644
 1528SOL    HW2 6142   1.406   2.778   2.664
 1528SOL    HW3 6143   1.320   2.729   2.549
 1528SOL    MW4 6144   1.332   2.743   2.634
 1529SOL     OW 6145   1.569   2.849   2.730
 1529SOL    HW2 6146   1.582   2.860   2.824
 1529SOL    HW3 6147   1.641   2.792   2.702
 1529SOL    MW4 6148   1.580   2.843   2.739
 1530SOL     OW 6149   1.549   3.109   2.655
 1530SOL    HW2 6150   1.635   3.144   2.676
 1530SOL    HW3 6151   1.553   3.018   2.683
 1530SOL    MW4 6152   1.561   3.102   2.661
 1531SOL     OW 6153   1.348   3.267   2.768
 1531SOL    HW2 6154   1.434   3.233   2.742
 1531SOL    HW3 6155   1.289   3.193   2.755
 1531SOL    MW4 6156   1.352   3.253   2.763
 1532SOL     OW 6157   1.313   3.493   2.618
 1532SOL    HW2 6158   1.317   3.412   2.669
 1532SOL    HW3 6159   1.251   3.549   2.666
 1532SOL    MW4 6160   1.305   3.490   2.631
 1533SOL     OW 6161   1.578   3.607   2.738
 1533SOL    HW2 6162   1.659   3.570   2.703
 1533SOL    HW3 6163   1.508   3.556   2.695
 1533SOL    MW4 6164   1.579   3.595   2.727
 1534SOL     OW 6165   1.577   3.861   2.639
 1534SOL    HW2 6166   1.493   3.902   2.662
 1534SOL    HW3 6167   1.575   3.776   2.684
 1534SOL    MW4 6168   1.566   3.855   2.648
 1535SOL     OW 6169   1.336   3.959   2.706
 1535SOL    HW2 6170   1.344   3.957   2.801
 1535SOL    HW3 6171   1.347   4.051   2.682
 1535SOL    MW4 6172   1.339   3.971   2.715
 1536SOL     OW 6173   1.357   4.213   2.635
 1536SOL    HW2 6174   1.279   4.263   2.657
 1536SOL    HW3 6175   1.352   4.202   2.540
 1536SOL    MW4 6176   1.346   4.218   2.625
 1537SOL     OW 6177   1.553   4.382   2.720
 1537SOL    HW2 6178   1.560   4.386   2.815
 1537SOL    HW3 6179   1.480   4.321   2.704
 1537SOL    MW4 6180   1.544   4.374   2.730
 1538SOL     OW 6181   1.994   4.661   2.649
 1538SOL    HW2 6182   2.066   4.708   2.691
 1538SOL    HW3 6183   2.020   4.656   2.557
 1538SOL    MW4 6184   2.007   4.667   2.642
 1539SOL     OW 6185   1.769   0.097   2.776
 1539SOL    HW2 6186   1.843   0.052   2.737
 1539SOL    HW3 6187   1.692   0.055   2.738
 1539SOL    MW4 6188   1.769   0.086   2.766
 1540SOL     OW 6189   1.775   0.352   2.659
 1540SOL    HW2 6190   1.847   0.394   2.707
 1540SOL    HW3 6191   1.777   0.261   2.688
 1540SOL    MW4 6192   1.785   0.345   2.669
 1541SOL     OW 6193   1.997   0.508   2.751
 1541SOL    HW2 6194   2.069   0.463   2.706
 1541SOL    HW3 6195   2.001   0.598   2.718
 1541SOL    MW4 6196   2.007   0.514   2.741
 1542SOL     OW 6197   2.007   0.787   2.639
 1542SOL    HW2 6198   1.924   0.823   2.670
 1542SOL    HW3 6199   2.000   0.791   2.543
 1542SOL    MW4 6200   1.995   0.792   2.630
 1543SOL     OW 6201   1.797   0.892   2.768
 1543SOL    HW2 6202   1.804   0.978   2.728
 1543SOL    HW3 6203   1.716   0.855   2.734
 1543SOL    MW4 6204   1.787   0.898   2.759
 1544SOL     OW 6205   1.812   1.134   2.656
 1544SOL    HW2 6206   1.888   1.182   2.690
 1544SOL    HW3 6207   1.823   1.136   2.561
 1544SOL    MW4 6208   1.823   1.141   2.648
 1545SOL     OW 6209   2.020   1.287   2.747
 1545SOL    HW2 6210   2.042   1.283   2.840
 1545SOL    HW3 6211   2.090   1.238   2.703
 1545SOL    MW4 6212   2.032   1.280   2.753
 1546SOL     OW 6213   2.003   1.557   2.595
 1546SOL    HW2 6214   1.918   1.596   2.611
 1546SOL    HW3 6215   2.004   1.477   2.648
 1546SOL    MW4 6216   1.992   1.551   2.604
 1547SOL     OW 6217   1.750   1.679   2.689
 1547SOL    HW2 6218   1.752   1.654   2.782
 1547SOL    HW3 6219   1.688   1.617   2.650
 1547SOL    MW4 6220   1.742   1.667   2.696
 1548SOL     OW 6221   1.751   1.949   2.602
 1548SOL    HW2 6222   1.828   1.993   2.639
 1548SOL    HW3 6223   1.754   1.861   2.641
 1548SOL    MW4 6224   1.762   1.943   2.612
 1549SOL     OW 6225   1.999   2.058   2.692
 1549SOL    HW2 6226   2.008   2.038   2.786
 1549SOL    HW3 6227   2.028   2.148   2.683
 1549SOL    MW4 6228   2.004   2.067   2.703
 1550SOL     OW 6229   2.015   2.323   2.620
 1550SOL    HW2 6230   2.098   2.367   2.638
 1550SOL    HW3 6231   2.005   2.329   2.525
 1550SOL    MW4 6232   2.025   2.330   2.610
 1551SOL     OW 6233   1.800   2.459   2.731
 1551SOL    HW2 6234   1.802   2.437   2.824
 1551SOL    HW3 6235   1.873   2.408   2.694
 1551SOL    MW4 6236   1.810   2.449   2.738
 1552SOL     OW 6237   1.806   2.714   2.615
 1552SOL    HW2 6238   1.800   2.628   2.657
 1552SOL    HW3 6239   1.830   2.694   2.524
 1552SOL    MW4 6240   1.809   2.700   2.608
 1553SOL     OW 6241   2.010   2.859   2.735
 1553SOL    HW2 6242   2.083   2.814   2.694
 1553SOL    HW3 6243   1.932   2.812   2.705
 1553SOL    MW4 6244   2.009   2.847   2.726
 1554SOL     OW 6245   2.010   3.105   2.596
 1554SOL    HW2 6246   2.008   3.013   2.622
 1554SOL    HW3 6247   2.000   3.103   2.501
 1554SOL    MW4 6248   2.009   3.092   2.587
 1555SOL     OW 6249   1.797   3.221   2.720
 1555SOL    HW2 6250   1.812   3.314   2.699
 1555SOL    HW3 6251   1.875   3.177   2.685
 1555SOL    MW4 6252   1.809   3.227   2.712
 1556SOL     OW 6253   1.818   3.476   2.629
 1556SOL    HW2 6254   1.902   3.517   2.648
 1556SOL    HW3 6255   1.808   3.485   2.534
 1556SOL    MW4 6256   1.828   3.482   2.619
 1557SOL     OW 6257   2.016   3.603   2.735
 1557SOL    HW2 6258   1.998   3.589   2.828
 1557SOL    HW3 6259   2.099   3.558   2.720
 1557SOL    MW4 6260   2.025   3.595   2.746
 1558SOL     OW 6261   2.017   3.856   2.641
 1558SOL    HW2 6262   1.939   3.903   2.673
 1558SOL    HW3 6263   2.012   3.771   2.684
 1558SOL    MW4 6264   2.006   3.851   2.651
 1559SOL     OW 6265   1.794   3.997   2.769
 1559SOL    HW2 6266   1.791   4.090   2.746
 1559SOL    HW3 6267   1.712   3.962   2.736
 1559SOL    MW4 6268   1.783   4.005   2.762
 1560SOL     OW 6269   1.792   4.260   2.678
 1560SOL    HW2 6270   1.709   4.304   2.696
 1560SOL    HW3 6271   1.804   4.270   2.583
 1560SOL    MW4 6272   1.783   4.267   2.668
 1561SOL     OW 6273   2.024   4.389   2.742
 1561SOL    HW2 6274   1.936   4.357   2.722
 1561SOL    HW3 6275   2.023   4.480   2.714
 1561SOL    MW4 6276   2.012   4.397   2.736
 1562SOL     OW 6277   2.425   4.650   2.663
 1562SOL    HW2 6278   2.510   4.683   2.692
 1562SOL    HW3 6279   2.438   4.628   2.571
 1562SOL    MW4 6280   2.438   4.652   2.654
 1563SOL     OW 6281   2.192   0.142   2.740
 1563SOL    HW2 6282   2.199   0.140   2.836
 1563SOL    HW3 6283   2.272   0.101   2.708
 1563SOL    MW4 6284   2.203   0.136   2.749
 1564SOL     OW 6285   2.233   0.389   2.633
 1564SOL    HW2 6286   2.232   0.305   2.679
 1564SOL    HW3 6287   2.237   0.365   2.541
 1564SOL    MW4 6288   2.233   0.374   2.627
 1565SOL     OW 6289   2.425   0.520   2.793
 1565SOL    HW2 6290   2.441   0.604   2.750
 1565SOL    HW3 6291   2.346   0.485   2.751
 1565SOL    MW4 6292   2.417   0.526   2.782
 1566SOL     OW 6293   2.467   0.755   2.655
 1566SOL    HW2 6294   2.386   0.792   2.689
 1566SOL    HW3 6295   2.454   0.751   2.560
 1566SOL    MW4 6296   2.455   0.760   2.647
 1567SOL     OW 6297   2.229   0.876   2.754
 1567SOL    HW2 6298   2.227   0.857   2.848
 1567SOL    HW3 6299   2.151   0.833   2.719
 1567SOL    MW4 6300   2.219   0.868   2.762
 1568SOL     OW 6301   2.216   1.129   2.625
 1568SOL    HW2 6302   2.219   1.045   2.671
 1568SOL    HW3 6303   2.220   1.105   2.532
 1568SOL    MW4 6304   2.217   1.115   2.619
 1569SOL     OW 6305   2.431   1.254   2.743
 1569SOL    HW2 6306   2.508   1.220   2.698
 1569SOL    HW3 6307   2.358   1.205   2.706
 1569SOL    MW4 6308   2.431   1.243   2.732
 1570SOL     OW 6309   2.458   1.522   2.655
 1570SOL    HW2 6310   2.382   1.578   2.670
 1570SOL    HW3 6311   2.432   1.436   2.689
 1570SOL    MW4 6312   2.445   1.518   2.661
 1571SOL     OW 6313   2.229   1.665   2.723
 1571SOL    HW2 6314   2.234   1.757   2.696
 1571SOL    HW3 6315   2.141   1.637   2.697
 1571SOL    MW4 6316   2.218   1.673   2.716
 1572SOL     OW 6317   2.247   1.931   2.660
 1572SOL    HW2 6318   2.165   1.980   2.661
 1572SOL    HW3 6319   2.264   1.914   2.567
 1572SOL    MW4 6320   2.238   1.935   2.648
 1573SOL     OW 6321   2.476   2.075   2.767
 1573SOL    HW2 6322   2.479   2.151   2.708
 1573SOL    HW3 6323   2.397   2.028   2.741
 1573SOL    MW4 6324   2.466   2.079   2.756
 1574SOL     OW 6325   2.460   2.306   2.616
 1574SOL    HW2 6326   2.542   2.347   2.643
 1574SOL    HW3 6327   2.461   2.312   2.520
 1574SOL    MW4 6328   2.471   2.312   2.607
 1575SOL     OW 6329   2.251   2.468   2.701
 1575SOL    HW2 6330   2.255   2.466   2.797
 1575SOL    HW3 6331   2.310   2.398   2.673
 1575SOL    MW4 6332   2.259   2.458   2.710
 1576SOL     OW 6333   2.233   2.726   2.620
 1576SOL    HW2 6334   2.315   2.761   2.656
 1576SOL    HW3 6335   2.232   2.635   2.647
 1576SOL    MW4 6336   2.244   2.719   2.628
 1577SOL     OW 6337   2.460   2.837   2.739
 1577SOL    HW2 6338   2.546   2.796   2.727
 1577SOL    HW3 6339   2.471   2.926   2.705
 1577SOL    MW4 6340   2.473   2.843   2.733
 1578SOL     OW 6341   2.497   3.092   2.638
 1578SOL    HW2 6342   2.420   3.128   2.682
 1578SOL    HW3 6343   2.478   3.101   2.545
 1578SOL    MW4 6344   2.484   3.098   2.631
 1579SOL     OW 6345   2.269   3.237   2.750
 1579SOL    HW2 6346   2.257   3.232   2.845
 1579SOL    HW3 6347   2.196   3.186   2.714
 1579SOL    MW4 6348   2.258   3.230   2.757
 1580SOL     OW 6349   2.232   3.488   2.647
 1580SOL    HW2 6350   2.305   3.546   2.667
 1580SOL    HW3 6351   2.246   3.411   2.703
 1580SOL    MW4 6352   2.243   3.486   2.657
 1581SOL     OW 6353   2.472   3.603   2.707
 1581SOL    HW2 6354   2.459   3.627   2.799
 1581SOL    HW3 6355   2.499   3.685   2.664
 1581SOL    MW4 6356   2.474   3.617   2.713
 1582SOL     OW 6357   2.494   3.852   2.613
 1582SOL    HW2 6358   2.563   3.888   2.669
 1582SOL    HW3 6359   2.413   3.888   2.649
 1582SOL    MW4 6360   2.492   3.862   2.625
 1583SOL     OW 6361   2.268   3.977   2.719
 1583SOL    HW2 6362   2.281   3.996   2.812
 1583SOL    HW3 6363   2.184   3.933   2.715
 1583SOL    MW4 6364   2.259   3.974   2.731
 1584SOL     OW 6365   2.238   4.233   2.594
 1584SOL    HW2 6366   2.251   4.149   2.639
 1584SOL    HW3 6367   2.171   4.277   2.646
 1584SOL    MW4 6368   2.231   4.228   2.607
 1585SOL     OW 6369   2.435   4.381   2.754
 1585SOL    HW2 6370   2.378   4.331   2.695
 1585SOL    HW3 6371   2.418   4.472   2.733
 1585SOL    MW4 6372   2.425   4.386   2.743
 1586SOL     OW 6373   2.869   4.638   2.671
 1586SOL    HW2 6374   2.936   4.694   2.710
 1586SOL    HW3 6375   2.888   4.640   2.577
 1586SOL    MW4 6376   2.880   4.645   2.664
 1587SOL     OW 6377   2.646   0.132   2.711
 1587SOL    HW2 6378   2.643   0.133   2.807
 1587SOL    HW3 6379   2.713   0.067   2.690
 1587SOL    MW4 6380   2.655   0.124   2.721
 1588SOL     OW 6381   2.664   0.420   2.682
 1588SOL    HW2 6382   2.652   0.325   2.685
 1588SOL    HW3 6383   2.586   0.455   2.725
 1588SOL    MW4 6384   2.652   0.412   2.688
 1589SOL     OW 6385   2.904   0.518   2.764
 1589SOL    HW2 6386   2.904   0.594   2.706
 1589SOL    HW3 6387   2.827   0.468   2.739
 1589SOL    MW4 6388   2.894   0.521   2.753
 1590SOL     OW 6389   2.908   0.781   2.674
 1590SOL    HW2 6390   2.979   0.834   2.711
 1590SOL    HW3 6391   2.828   0.817   2.714
 1590SOL    MW4 6392   2.907   0.793   2.684
 1591SOL     OW 6393   2.667   0.916   2.762
 1591SOL    HW2 6394   2.655   0.912   2.857
 1591SOL    HW3 6395   2.604   0.852   2.728
 1591SOL    MW4 6396   2.657   0.907   2.770
 1592SOL     OW 6397   2.671   1.173   2.650
 1592SOL    HW2 6398   2.750   1.216   2.682
 1592SOL    HW3 6399   2.675   1.085   2.686
 1592SOL    MW4 6400   2.682   1.167   2.659
 1593SOL     OW 6401   2.942   1.266   2.734
 1593SOL    HW2 6402   2.936   1.241   2.826
 1593SOL    HW3 6403   3.013   1.211   2.699
 1593SOL    MW4 6404   2.951   1.255   2.741
 1594SOL     OW 6405   2.934   1.526   2.675
 1594SOL    HW2 6406   2.840   1.545   2.686
 1594SOL    HW3 6407   2.944   1.437   2.708
 1594SOL    MW4 6408   2.923   1.517   2.681
 1595SOL     OW 6409   2.690   1.678   2.719
 1595SOL    HW2 6410   2.674   1.685   2.813
 1595SOL    HW3 6411   2.616   1.629   2.685
 1595SOL    MW4 6412   2.678   1.672   2.727
 1596SOL     OW 6413   2.697   1.940   2.636
 1596SOL    HW2 6414   2.683   1.851   2.668
 1596SOL    HW3 6415   2.638   1.994   2.688
 1596SOL    MW4 6416   2.687   1.935   2.647
 1597SOL     OW 6417   2.938   2.055   2.766
 1597SOL    HW2 6418   2.940   2.144   2.730
 1597SOL    HW3 6419   2.857   2.018   2.732
 1597SOL    MW4 6420   2.927   2.062   2.757
 1598SOL     OW 6421   2.942   2.302   2.651
 1598SOL    HW2 6422   2.997   2.363   2.700
 1598SOL    HW3 6423   2.854   2.339   2.656
 1598SOL    MW4 6424   2.937   2.315   2.658
 1599SOL     OW 6425   2.709   2.428   2.725
 1599SOL    HW2 6426   2.699   2.415   2.819
 1599SOL    HW3 6427   2.710   2.523   2.714
 1599SOL    MW4 6428   2.707   2.439   2.736
 1600SOL     OW 6429   2.702   2.724   2.672
 1600SOL    HW2 6430   2.769   2.779   2.714
 1600SOL    HW3 6431   2.723   2.729   2.579
 1600SOL    MW4 6432   2.714   2.732   2.665
 1601SOL     OW 6433   2.913   2.876   2.781
 1601SOL    HW2 6434   2.893   2.901   2.871
 1601SOL    HW3 6435   2.930   2.959   2.736
 1601SOL    MW4 6436   2.913   2.890   2.787
 1602SOL     OW 6437   2.934   3.113   2.639
 1602SOL    HW2 6438   2.847   3.135   2.672
 1602SOL    HW3 6439   2.921   3.098   2.545
 1602SOL    MW4 6440   2.921   3.114   2.631
 1603SOL     OW 6441   2.700   3.204   2.757
 1603SOL    HW2 6442   2.693   3.294   2.726
 1603SOL    HW3 6443   2.631   3.156   2.711
 1603SOL    MW4 6444   2.690   3.209   2.747
 1604SOL     OW 6445   2.703   3.461   2.664
 1604SOL    HW2 6446   2.619   3.502   2.682
 1604SOL    HW3 6447   2.711   3.462   2.569
 1604SOL    MW4 6448   2.693   3.466   2.654
 1605SOL     OW 6449   2.903   3.589   2.806
 1605SOL    HW2 6450   2.901   3.556   2.895
 1605SOL    HW3 6451   2.827   3.549   2.764
 1605SOL    MW4 6452   2.893   3.579   2.812
 1606SOL     OW 6453   2.927   3.823   2.620
 1606SOL    HW2 6454   2.984   3.891   2.655
 1606SOL    HW3 6455   2.925   3.756   2.688
 1606SOL    MW4 6456   2.934   3.823   2.633
 1607SOL     OW 6457   2.713   3.960   2.746
 1607SOL    HW2 6458   2.715   4.055   2.734
 1607SOL    HW3 6459   2.792   3.928   2.700
 1607SOL    MW4 6460   2.724   3.968   2.738
 1608SOL     OW 6461   2.684   4.228   2.682
 1608SOL    HW2 6462   2.759   4.283   2.705
 1608SOL    HW3 6463   2.608   4.280   2.705
 1608SOL    MW4 6464   2.684   4.242   2.688
 1609SOL     OW 6465   2.913   4.387   2.764
 1609SOL    HW2 6466   2.899   4.394   2.859
 1609SOL    HW3 6467   2.902   4.476   2.731
 1609SOL    MW4 6468   2.910   4.399   2.772
 1610SOL     OW 6469   3.314   4.662   2.633
 1610SOL    HW2 6470   3.333   4.576   2.671
 1610SOL    HW3 6471   3.230   4.688   2.671
 1610SOL    MW4 6472   3.306   4.654   2.643
 1611SOL     OW 6473   3.089   0.102   2.787
 1611SOL    HW2 6474   3.108   0.108   2.881
 1611SOL    HW3 6475   3.116   0.187   2.752
 1611SOL    MW4 6476   3.095   0.114   2.795
 1612SOL     OW 6477   3.124   0.366   2.688
 1612SOL    HW2 6478   3.043   0.407   2.720
 1612SOL    HW3 6479   3.122   0.379   2.594
 1612SOL    MW4 6480   3.113   0.373   2.680
 1613SOL     OW 6481   3.352   0.498   2.766
 1613SOL    HW2 6482   3.359   0.578   2.715
 1613SOL    HW3 6483   3.273   0.455   2.735
 1613SOL    MW4 6484   3.343   0.503   2.755
 1614SOL     OW 6485   3.373   0.765   2.643
 1614SOL    HW2 6486   3.456   0.808   2.661
 1614SOL    HW3 6487   3.360   0.777   2.549
 1614SOL    MW4 6488   3.382   0.772   2.633
 1615SOL     OW 6489   3.150   0.912   2.732
 1615SOL    HW2 6490   3.151   0.921   2.827
 1615SOL    HW3 6491   3.234   0.870   2.711
 1615SOL    MW4 6492   3.161   0.908   2.742
 1616SOL     OW 6493   3.193   1.155   2.612
 1616SOL    HW2 6494   3.172   1.071   2.652
 1616SOL    HW3 6495   3.145   1.155   2.529
 1616SOL    MW4 6496   3.184   1.144   2.606
 1617SOL     OW 6497   3.395   1.299   2.748
 1617SOL    HW2 6498   3.395   1.273   2.840
 1617SOL    HW3 6499   3.313   1.265   2.714
 1617SOL    MW4 6500   3.384   1.291   2.756
 1618SOL     OW 6501   3.373   1.553   2.620
 1618SOL    HW2 6502   3.299   1.593   2.664
 1618SOL    HW3 6503   3.379   1.465   2.657
 1618SOL    MW4 6504   3.364   1.547   2.630
 1619SOL     OW 6505   3.172   1.664   2.765
 1619SOL    HW2 6506   3.174   1.757   2.742
 1619SOL    HW3 6507   3.091   1.632   2.725
 1619SOL    MW4 6508   3.162   1.672   2.756
 1620SOL     OW 6509   3.180   1.934   2.661
 1620SOL    HW2 6510   3.257   1.979   2.695
 1620SOL    HW3 6511   3.106   1.981   2.699
 1620SOL    MW4 6512   3.180   1.946   2.670
 1621SOL     OW 6513   3.409   2.077   2.760
 1621SOL    HW2 6514   3.389   2.086   2.854
 1621SOL    HW3 6515   3.381   2.160   2.721
 1621SOL    MW4 6516   3.402   2.089   2.768
 1622SOL     OW 6517   3.340   2.321   2.667
 1622SOL    HW2 6518   3.408   2.380   2.700
 1622SOL    HW3 6519   3.352   2.323   2.572
 1622SOL    MW4 6520   3.351   2.329   2.659
 1623SOL     OW 6521   3.131   2.493   2.761
 1623SOL    HW2 6522   3.125   2.583   2.730
 1623SOL    HW3 6523   3.204   2.456   2.712
 1623SOL    MW4 6524   3.140   2.500   2.750
 1624SOL     OW 6525   3.125   2.750   2.677
 1624SOL    HW2 6526   3.203   2.789   2.716
 1624SOL    HW3 6527   3.052   2.782   2.730
 1624SOL    MW4 6528   3.126   2.759   2.689
 1625SOL     OW 6529   3.361   2.844   2.760
 1625SOL    HW2 6530   3.353   2.838   2.855
 1625SOL    HW3 6531   3.452   2.820   2.742
 1625SOL    MW4 6532   3.372   2.840   2.770
 1626SOL     OW 6533   3.378   3.094   2.619
 1626SOL    HW2 6534   3.392   3.004   2.648
 1626SOL    HW3 6535   3.357   3.086   2.526
 1626SOL    MW4 6536   3.377   3.081   2.610
 1627SOL     OW 6537   3.171   3.232   2.747
 1627SOL    HW2 6538   3.239   3.170   2.721
 1627SOL    HW3 6539   3.090   3.192   2.715
 1627SOL    MW4 6540   3.169   3.218   2.739
 1628SOL     OW 6541   3.142   3.489   2.654
 1628SOL    HW2 6542   3.154   3.404   2.697
 1628SOL    HW3 6543   3.067   3.528   2.700
 1628SOL    MW4 6544   3.134   3.483   2.666
 1629SOL     OW 6545   3.369   3.608   2.751
 1629SOL    HW2 6546   3.358   3.609   2.847
 1629SOL    HW3 6547   3.297   3.553   2.720
 1629SOL    MW4 6548   3.358   3.601   2.760
 1630SOL     OW 6549   3.348   3.878   2.688
 1630SOL    HW2 6550   3.359   3.787   2.715
 1630SOL    HW3 6551   3.346   3.874   2.592
 1630SOL    MW4 6552   3.349   3.865   2.679
 1631SOL     OW 6553   3.089   3.996   2.781
 1631SOL    HW2 6554   3.089   4.089   2.761
 1631SOL    HW3 6555   3.172   3.963   2.745
 1631SOL    MW4 6556   3.100   4.004   2.774
 1632SOL     OW 6557   3.120   4.235   2.679
 1632SOL    HW2 6558   3.042   4.288   2.698
 1632SOL    HW3 6559   3.121   4.228   2.583
 1632SOL    MW4 6560   3.110   4.241   2.669
 1633SOL     OW 6561   3.347   4.393   2.723
 1633SOL    HW2 6562   3.339   4.398   2.818
 1633SOL    HW3 6563   3.277   4.335   2.696
 1633SOL    MW4 6564   3.337   4.386   2.732
 1634SOL     OW 6565   3.807   0.019   2.653
 1634SOL    HW2 6566   3.816  -0.069   2.689
 1634SOL    HW3 6567   3.719   0.046   2.679
 1634SOL    MW4 6568   3.796   0.011   2.661
 1635SOL     OW 6569   3.546   0.102   2.757
 1635SOL    HW2 6570   3.540   0.191   2.720
 1635SOL    HW3 6571   3.465   0.060   2.729
 1635SOL    MW4 6572   3.534   0.109   2.748
 1636SOL     OW 6573   3.568   0.351   2.627
 1636SOL    HW2 6574   3.654   0.388   2.645
 1636SOL    HW3 6575   3.507   0.411   2.669
 1636SOL    MW4 6576   3.571   0.364   2.635
 1637SOL     OW 6577   3.798   0.484   2.708
 1637SOL    HW2 6578   3.782   0.509   2.798
 1637SOL    HW3 6579   3.887   0.448   2.709
 1637SOL    MW4 6580   3.808   0.482   2.720
 1638SOL     OW 6581   3.822   0.757   2.671
 1638SOL    HW2 6582   3.740   0.795   2.701
 1638SOL    HW3 6583   3.814   0.663   2.687
 1638SOL    MW4 6584   3.810   0.750   2.677
 1639SOL     OW 6585   3.597   0.895   2.752
 1639SOL    HW2 6586   3.594   0.900   2.848
 1639SOL    HW3 6587   3.592   0.986   2.723
 1639SOL    MW4 6588   3.596   0.908   2.761
 1640SOL     OW 6589   3.616   1.149   2.649
 1640SOL    HW2 6590   3.685   1.200   2.693
 1640SOL    HW3 6591   3.535   1.196   2.669
 1640SOL    MW4 6592   3.615   1.162   2.657
 1641SOL     OW 6593   3.819   1.285   2.772
 1641SOL    HW2 6594   3.887   1.235   2.727
 1641SOL    HW3 6595   3.820   1.371   2.728
 1641SOL    MW4 6596   3.828   1.290   2.760
 1642SOL     OW 6597   3.787   1.520   2.616
 1642SOL    HW2 6598   3.852   1.591   2.618
 1642SOL    HW3 6599   3.723   1.545   2.682
 1642SOL    MW4 6600   3.787   1.533   2.625
 1643SOL     OW 6601   3.589   1.629   2.772
 1643SOL    HW2 6602   3.613   1.707   2.723
 1643SOL    HW3 6603   3.515   1.593   2.724
 1643SOL    MW4 6604   3.582   1.635   2.759
 1644SOL     OW 6605   3.604   1.887   2.649
 1644SOL    HW2 6606   3.534   1.945   2.680
 1644SOL    HW3 6607   3.605   1.899   2.554
 1644SOL    MW4 6608   3.595   1.897   2.640
 1645SOL     OW 6609   3.808   2.075   2.742
 1645SOL    HW2 6610   3.890   2.040   2.706
 1645SOL    HW3 6611   3.742   2.010   2.719
 1645SOL    MW4 6612   3.810   2.062   2.734
 1646SOL     OW 6613   3.759   2.342   2.673
 1646SOL    HW2 6614   3.769   2.250   2.699
 1646SOL    HW3 6615   3.765   2.340   2.578
 1646SOL    MW4 6616   3.761   2.330   2.664
 1647SOL     OW 6617   3.545   2.482   2.776
 1647SOL    HW2 6618   3.548   2.470   2.871
 1647SOL    HW3 6619   3.622   2.435   2.743
 1647SOL    MW4 6620   3.556   2.474   2.784
 1648SOL     OW 6621   3.594   2.728   2.670
 1648SOL    HW2 6622   3.592   2.639   2.706
 1648SOL    HW3 6623   3.587   2.715   2.575
 1648SOL    MW4 6624   3.593   2.714   2.662
 1649SOL     OW 6625   3.824   2.870   2.757
 1649SOL    HW2 6626   3.887   2.816   2.709
 1649SOL    HW3 6627   3.739   2.835   2.732
 1649SOL    MW4 6628   3.821   2.858   2.748
 1650SOL     OW 6629   3.821   3.119   2.593
 1650SOL    HW2 6630   3.745   3.158   2.635
 1650SOL    HW3 6631   3.822   3.028   2.625
 1650SOL    MW4 6632   3.811   3.112   2.602
 1651SOL     OW 6633   3.598   3.222   2.722
 1651SOL    HW2 6634   3.593   3.312   2.691
 1651SOL    HW3 6635   3.521   3.179   2.684
 1651SOL    MW4 6636   3.587   3.228   2.713
 1652SOL     OW 6637   3.591   3.484   2.641
 1652SOL    HW2 6638   3.672   3.510   2.685
 1652SOL    HW3 6639   3.522   3.524   2.693
 1652SOL    MW4 6640   3.593   3.493   2.654
 1653SOL     OW 6641   3.821   3.590   2.760
 1653SOL    HW2 6642   3.903   3.558   2.723
 1653SOL    HW3 6643   3.815   3.681   2.730
 1653SOL    MW4 6644   3.831   3.598   2.751
 1654SOL     OW 6645   3.820   3.840   2.658
 1654SOL    HW2 6646   3.887   3.907   2.665
 1654SOL    HW3 6647   3.738   3.884   2.678
 1654SOL    MW4 6648   3.818   3.854   2.661
 1655SOL     OW 6649   3.580   4.009   2.736
 1655SOL    HW2 6650   3.578   4.098   2.700
 1655SOL    HW3 6651   3.493   3.974   2.719
 1655SOL    MW4 6652   3.568   4.016   2.729
 1656SOL     OW 6653   3.595   4.282   2.630
 1656SOL    HW2 6654   3.515   4.320   2.666
 1656SOL    HW3 6655   3.582   4.285   2.535
 1656SOL    MW4 6656   3.582   4.287   2.622
 1657SOL     OW 6657   3.803   4.412   2.749
 1657SOL    HW2 6658   3.886   4.374   2.720
 1657SOL    HW3 6659   3.737   4.368   2.696
 1657SOL    MW4 6660   3.806   4.402   2.738
 1658SOL     OW 6661   4.286   4.661   2.598
 1658SOL    HW2 6662   4.209   4.683   2.652
 1658SOL    HW3 6663   4.360   4.696   2.648
 1658SOL    MW4 6664   4.285   4.669   2.612
 1659SOL     OW 6665   4.052   0.091   2.752
 1659SOL    HW2 6666   4.013   0.106   2.838
 1659SOL    HW3 6667   3.978   0.071   2.695
 1659SOL    MW4 6668   4.037   0.090   2.756
 1660SOL     OW 6669   4.056   0.369   2.690
 1660SOL    HW2 6670   4.064   0.275   2.709
 1660SOL    HW3 6671   4.066   0.375   2.595
 1660SOL    MW4 6672   4.058   0.357   2.680
 1661SOL     OW 6673   4.248   0.523   2.801
 1661SOL    HW2 6674   4.168   0.481   2.770
 1661SOL    HW3 6675   4.319   0.474   2.761
 1661SOL    MW4 6676   4.247   0.511   2.792
 1662SOL     OW 6677   4.243   0.775   2.678
 1662SOL    HW2 6678   4.263   0.690   2.718
 1662SOL    HW3 6679   4.215   0.754   2.589
 1662SOL    MW4 6680   4.242   0.761   2.672
 1663SOL     OW 6681   4.017   0.907   2.762
 1663SOL    HW2 6682   4.096   0.858   2.739
 1663SOL    HW3 6683   3.945   0.856   2.726
 1663SOL    MW4 6684   4.018   0.894   2.754
 1664SOL     OW 6685   4.009   1.156   2.620
 1664SOL    HW2 6686   4.091   1.199   2.643
 1664SOL    HW3 6687   4.006   1.079   2.678
 1664SOL    MW4 6688   4.019   1.151   2.631
 1665SOL     OW 6689   4.212   1.275   2.745
 1665SOL    HW2 6690   4.206   1.362   2.707
 1665SOL    HW3 6691   4.302   1.247   2.726
 1665SOL    MW4 6692   4.223   1.283   2.737
 1666SOL     OW 6693   4.220   1.528   2.642
 1666SOL    HW2 6694   4.295   1.572   2.682
 1666SOL    HW3 6695   4.240   1.525   2.549
 1666SOL    MW4 6696   4.233   1.533   2.635
 1667SOL     OW 6697   3.986   1.677   2.731
 1667SOL    HW2 6698   3.996   1.677   2.827
 1667SOL    HW3 6699   4.061   1.628   2.699
 1667SOL    MW4 6700   3.997   1.670   2.740
 1668SOL     OW 6701   4.033   1.935   2.651
 1668SOL    HW2 6702   4.107   1.968   2.702
 1668SOL    HW3 6703   4.023   1.844   2.680
 1668SOL    MW4 6704   4.041   1.927   2.662
 1669SOL     OW 6705   4.262   2.056   2.770
 1669SOL    HW2 6706   4.250   2.127   2.707
 1669SOL    HW3 6707   4.337   2.006   2.737
 1669SOL    MW4 6708   4.271   2.059   2.758
 1670SOL     OW 6709   4.245   2.317   2.651
 1670SOL    HW2 6710   4.165   2.359   2.683
 1670SOL    HW3 6711   4.244   2.334   2.557
 1670SOL    MW4 6712   4.234   2.325   2.643
 1671SOL     OW 6713   4.003   2.469   2.725
 1671SOL    HW2 6714   4.018   2.482   2.818
 1671SOL    HW3 6715   3.915   2.432   2.720
 1671SOL    MW4 6716   3.993   2.466   2.736
 1672SOL     OW 6717   4.033   2.728   2.624
 1672SOL    HW2 6718   4.108   2.762   2.672
 1672SOL    HW3 6719   4.019   2.640   2.660
 1672SOL    MW4 6720   4.041   2.721   2.635
 1673SOL     OW 6721   4.276   2.816   2.736
 1673SOL    HW2 6722   4.264   2.826   2.830
 1673SOL    HW3 6723   4.286   2.905   2.703
 1673SOL    MW4 6724   4.276   2.829   2.744
 1674SOL     OW 6725   4.255   3.086   2.637
 1674SOL    HW2 6726   4.181   3.130   2.678
 1674SOL    HW3 6727   4.233   3.084   2.544
 1674SOL    MW4 6728   4.242   3.091   2.630
 1675SOL     OW 6729   4.020   3.233   2.758
 1675SOL    HW2 6730   4.021   3.318   2.715
 1675SOL    HW3 6731   3.955   3.182   2.708
 1675SOL    MW4 6732   4.011   3.237   2.746
 1676SOL     OW 6733   4.055   3.484   2.626
 1676SOL    HW2 6734   4.127   3.546   2.638
 1676SOL    HW3 6735   4.042   3.482   2.531
 1676SOL    MW4 6736   4.063   3.492   2.615
 1677SOL     OW 6737   4.297   3.611   2.715
 1677SOL    HW2 6738   4.303   3.611   2.811
 1677SOL    HW3 6739   4.364   3.549   2.687
 1677SOL    MW4 6740   4.307   3.602   2.724
 1678SOL     OW 6741   4.260   3.867   2.629
 1678SOL    HW2 6742   4.256   3.778   2.664
 1678SOL    HW3 6743   4.338   3.905   2.669
 1678SOL    MW4 6744   4.270   3.860   2.639
 1679SOL     OW 6745   4.045   4.021   2.716
 1679SOL    HW2 6746   4.033   4.019   2.811
 1679SOL    HW3 6747   4.119   3.963   2.700
 1679SOL    MW4 6748   4.053   4.013   2.726
 1680SOL     OW 6749   4.025   4.284   2.637
 1680SOL    HW2 6750   4.022   4.194   2.671
 1680SOL    HW3 6751   3.984   4.279   2.551
 1680SOL    MW4 6752   4.019   4.271   2.630
 1681SOL     OW 6753   4.264   4.420   2.715
 1681SOL    HW2 6754   4.178   4.387   2.691
 1681SOL    HW3 6755   4.269   4.507   2.674
 1681SOL    MW4 6756   4.253   4.427   2.706
 1682SOL     OW 6757   0.222   4.659   3.116
 1682SOL    HW2 6758   0.214   4.654   3.211
 1682SOL    HW3 6759   0.140   4.699   3.087
 1682SOL    MW4 6760   0.210   4.664   3.125
 1683SOL     OW 6761   4.466   0.126   3.038
 1683SOL    HW2 6762   4.379   0.102   3.070
 1683SOL    HW3 6763   4.483   0.212   3.078
 1683SOL    MW4 6764   4.457   0.134   3.048
 1684SOL     OW 6765   0.034   0.368   3.152
 1684SOL    HW2 6766   0.019   0.351   3.245
 1684SOL    HW3 6767  -0.048   0.408   3.121
 1684SOL    MW4 6768   0.021   0.371   3.160
 1685SOL     OW 6769   0.217   0.494   2.999
 1685SOL    HW2 6770   0.296   0.460   3.041
 1685SOL    HW3 6771   0.147   0.472   3.061
 1685SOL    MW4 6772   0.218   0.487   3.013
 1686SOL     OW 6773   0.248   0.725   3.142
 1686SOL    HW2 6774   0.238   0.702   3.235
 1686SOL    HW3 6775   0.235   0.642   3.096
 1686SOL    MW4 6776   0.245   0.711   3.148
 1687SOL     OW 6777   0.019   0.875   3.058
 1687SOL    HW2 6778   0.105   0.843   3.083
 1687SOL    HW3 6779   0.014   0.862   2.963
 1687SOL    MW4 6780   0.030   0.869   3.049
 1688SOL     OW 6781   4.458   1.148   3.154
 1688SOL    HW2 6782   4.393   1.184   3.093
 1688SOL    HW3 6783   4.478   1.061   3.118
 1688SOL    MW4 6784   4.452   1.141   3.141
 1689SOL     OW 6785   0.222   1.247   3.055
 1689SOL    HW2 6786   0.137   1.213   3.083
 1689SOL    HW3 6787   0.214   1.256   2.960
 1689SOL    MW4 6788   0.209   1.243   3.046
 1690SOL     OW 6789   0.212   1.520   3.138
 1690SOL    HW2 6790   0.126   1.554   3.111
 1690SOL    HW3 6791   0.216   1.433   3.100
 1690SOL    MW4 6792   0.201   1.513   3.129
 1691SOL     OW 6793   4.477   1.622   3.044
 1691SOL    HW2 6794   4.393   1.601   3.086
 1691SOL    HW3 6795   4.498   1.710   3.076
 1691SOL    MW4 6796   4.469   1.631   3.054
 1692SOL     OW 6797   0.008   1.900   3.160
 1692SOL    HW2 6798  -0.064   1.954   3.126
 1692SOL    HW3 6799   0.086   1.937   3.119
 1692SOL    MW4 6800   0.009   1.912   3.150
 1693SOL     OW 6801   0.249   2.035   3.043
 1693SOL    HW2 6802   0.234   2.127   3.065
 1693SOL    HW3 6803   0.241   2.031   2.948
 1693SOL    MW4 6804   0.246   2.046   3.033
 1694SOL     OW 6805   0.195   2.307   3.104
 1694SOL    HW2 6806   0.200   2.299   3.199
 1694SOL    HW3 6807   0.273   2.357   3.080
 1694SOL    MW4 6808   0.206   2.312   3.113
 1695SOL     OW 6809   4.458   2.459   3.024
 1695SOL    HW2 6810   4.467   2.550   3.053
 1695SOL    HW3 6811   4.529   2.413   3.068
 1695SOL    MW4 6812   4.469   2.465   3.034
 1696SOL     OW 6813   4.489   2.719   3.088
 1696SOL    HW2 6814   4.507   2.711   3.182
 1696SOL    HW3 6815   4.563   2.770   3.054
 1696SOL    MW4 6816   4.502   2.725   3.096
 1697SOL     OW 6817   0.245   2.873   3.024
 1697SOL    HW2 6818   0.308   2.808   3.056
 1697SOL    HW3 6819   0.233   2.851   2.932
 1697SOL    MW4 6820   0.252   2.862   3.016
 1698SOL     OW 6821   0.241   3.142   3.136
 1698SOL    HW2 6822   0.170   3.180   3.083
 1698SOL    HW3 6823   0.249   3.052   3.105
 1698SOL    MW4 6824   0.233   3.135   3.125
 1699SOL     OW 6825   0.021   3.264   3.002
 1699SOL    HW2 6826  -0.060   3.227   3.038
 1699SOL    HW3 6827   0.005   3.270   2.907
 1699SOL    MW4 6828   0.008   3.260   2.994
 1700SOL     OW 6829   0.012   3.513   3.119
 1700SOL    HW2 6830  -0.063   3.553   3.075
 1700SOL    HW3 6831   0.020   3.426   3.080
 1700SOL    MW4 6832   0.004   3.507   3.108
 1701SOL     OW 6833   0.224   3.669   3.001
 1701SOL    HW2 6834   0.230   3.750   3.050
 1701SOL    HW3 6835   0.145   3.626   3.034
 1701SOL    MW4 6836   0.215   3.674   3.012
 1702SOL     OW 6837   0.235   3.910   3.131
 1702SOL    HW2 6838   0.226   3.908   3.226
 1702SOL    HW3 6839   0.316   3.959   3.116
 1702SOL    MW4 6840   0.245   3.916   3.142
 1703SOL     OW 6841   0.007   4.015   3.004
 1703SOL    HW2 6842   0.090   3.982   3.040
 1703SOL    HW3 6843   0.019   4.013   2.909
 1703SOL    MW4 6844   0.020   4.010   2.996
 1704SOL     OW 6845   0.008   4.282   3.079
 1704SOL    HW2 6846   0.001   4.270   3.174
 1704SOL    HW3 6847   0.004   4.193   3.044
 1704SOL    MW4 6848   0.007   4.268   3.087
 1705SOL     OW 6849   0.236   4.400   3.004
 1705SOL    HW2 6850   0.163   4.347   3.036
 1705SOL    HW3 6851   0.223   4.486   3.045
 1705SOL    MW4 6852   0.225   4.405   3.014
 1706SOL     OW 6853   0.702   0.021   3.124
 1706SOL    HW2 6854   0.718  -0.061   3.077
 1706SOL    HW3 6855   0.621   0.055   3.086
 1706SOL    MW4 6856   0.693   0.015   3.112
 1707SOL     OW 6857   0.465   0.117   3.039
 1707SOL    HW2 6858   0.473   0.200   3.087
 1707SOL    HW3 6859   0.382   0.080   3.070
 1707SOL    MW4 6860   0.455   0.123   3.050
 1708SOL     OW 6861   0.435   0.394   3.133
 1708SOL    HW2 6862   0.433   0.386   3.229
 1708SOL    HW3 6863   0.516   0.443   3.115
 1708SOL    MW4 6864   0.446   0.400   3.143
 1709SOL     OW 6865   0.643   0.523   3.003
 1709SOL    HW2 6866   0.728   0.483   3.021
 1709SOL    HW3 6867   0.657   0.617   3.018
 1709SOL    MW4 6868   0.656   0.530   3.008
 1710SOL     OW 6869   0.718   0.769   3.111
 1710SOL    HW2 6870   0.711   0.761   3.206
 1710SOL    HW3 6871   0.633   0.804   3.084
 1710SOL    MW4 6872   0.705   0.773   3.120
 1711SOL     OW 6873   0.467   0.880   3.036
 1711SOL    HW2 6874   0.400   0.818   3.063
 1711SOL    HW3 6875   0.451   0.894   2.942
 1711SOL    MW4 6876   0.456   0.874   3.027
 1712SOL     OW 6877   0.458   1.134   3.141
 1712SOL    HW2 6878   0.467   1.043   3.113
 1712SOL    HW3 6879   0.371   1.160   3.111
 1712SOL    MW4 6880   0.448   1.126   3.133
 1713SOL     OW 6881   0.680   1.297   3.079
 1713SOL    HW2 6882   0.751   1.232   3.087
 1713SOL    HW3 6883   0.602   1.251   3.111
 1713SOL    MW4 6884   0.679   1.282   3.084
 1714SOL     OW 6885   0.687   1.553   3.130
 1714SOL    HW2 6886   0.666   1.564   3.223
 1714SOL    HW3 6887   0.671   1.460   3.113
 1714SOL    MW4 6888   0.682   1.542   3.140
 1715SOL     OW 6889   0.454   1.632   3.021
 1715SOL    HW2 6890   0.538   1.603   3.057
 1715SOL    HW3 6891   0.389   1.591   3.078
 1715SOL    MW4 6892   0.456   1.623   3.033
 1716SOL     OW 6893   0.476   1.899   3.105
 1716SOL    HW2 6894   0.458   1.810   3.076
 1716SOL    HW3 6895   0.395   1.947   3.088
 1716SOL    MW4 6896   0.463   1.893   3.099
 1717SOL     OW 6897   0.703   2.037   3.015
 1717SOL    HW2 6898   0.774   1.990   3.060
 1717SOL    HW3 6899   0.623   2.002   3.055
 1717SOL    MW4 6900   0.702   2.026   3.027
 1718SOL     OW 6901   0.712   2.321   3.081
 1718SOL    HW2 6902   0.692   2.299   3.172
 1718SOL    HW3 6903   0.720   2.236   3.037
 1718SOL    MW4 6904   0.710   2.307   3.087
 1719SOL     OW 6905   0.437   2.400   3.042
 1719SOL    HW2 6906   0.528   2.374   3.048
 1719SOL    HW3 6907   0.423   2.416   2.948
 1719SOL    MW4 6908   0.447   2.399   3.030
 1720SOL     OW 6909   0.412   2.663   3.144
 1720SOL    HW2 6910   0.488   2.713   3.117
 1720SOL    HW3 6911   0.425   2.577   3.106
 1720SOL    MW4 6912   0.424   2.658   3.136
 1721SOL     OW 6913   0.615   2.839   3.030
 1721SOL    HW2 6914   0.697   2.803   3.064
 1721SOL    HW3 6915   0.610   2.927   3.069
 1721SOL    MW4 6916   0.625   2.846   3.040
 1722SOL     OW 6917   0.609   3.073   3.178
 1722SOL    HW2 6918   0.621   3.076   3.273
 1722SOL    HW3 6919   0.543   3.140   3.161
 1722SOL    MW4 6920   0.602   3.082   3.189
 1723SOL     OW 6921   0.446   3.281   3.044
 1723SOL    HW2 6922   0.443   3.371   3.077
 1723SOL    HW3 6923   0.367   3.240   3.079
 1723SOL    MW4 6924   0.435   3.287   3.053
 1724SOL     OW 6925   0.465   3.548   3.114
 1724SOL    HW2 6926   0.444   3.548   3.207
 1724SOL    HW3 6927   0.387   3.583   3.071
 1724SOL    MW4 6928   0.452   3.553   3.120
 1725SOL     OW 6929   0.700   3.648   3.019
 1725SOL    HW2 6930   0.763   3.592   3.064
 1725SOL    HW3 6931   0.615   3.616   3.048
 1725SOL    MW4 6932   0.697   3.636   3.029
 1726SOL     OW 6933   0.715   3.920   3.149
 1726SOL    HW2 6934   0.707   3.911   3.244
 1726SOL    HW3 6935   0.743   3.833   3.119
 1726SOL    MW4 6936   0.718   3.907   3.157
 1727SOL     OW 6937   0.470   4.032   3.054
 1727SOL    HW2 6938   0.541   3.975   3.082
 1727SOL    HW3 6939   0.454   4.008   2.963
 1727SOL    MW4 6940   0.477   4.021   3.046
 1728SOL     OW 6941   0.470   4.298   3.128
 1728SOL    HW2 6942   0.478   4.208   3.098
 1728SOL    HW3 6943   0.392   4.332   3.084
 1728SOL    MW4 6944   0.461   4.291   3.118
 1729SOL     OW 6945   0.672   4.430   3.002
 1729SOL    HW2 6946   0.595   4.386   3.038
 1729SOL    HW3 6947   0.664   4.419   2.907
 1729SOL    MW4 6948   0.661   4.423   2.994
 1730SOL     OW 6949   1.133   4.638   3.102
 1730SOL    HW2 6950   1.219   4.673   3.078
 1730SOL    HW3 6951   1.071   4.703   3.070
 1730SOL    MW4 6952   1.136   4.651   3.095
 1731SOL     OW 6953   0.914   0.136   3.013
 1731SOL    HW2 6954   0.914   0.229   3.037
 1731SOL    HW3 6955   0.832   0.102   3.049
 1731SOL    MW4 6956   0.903   0.144   3.021
 1732SOL     OW 6957   0.887   0.406   3.074
 1732SOL    HW2 6958   0.897   0.411   3.169
 1732SOL    HW3 6959   0.966   0.449   3.040
 1732SOL    MW4 6960   0.899   0.412   3.082
 1733SOL     OW 6961   1.137   0.503   2.989
 1733SOL    HW2 6962   1.208   0.445   3.016
 1733SOL    HW3 6963   1.149   0.514   2.894
 1733SOL    MW4 6964   1.148   0.497   2.980
 1734SOL     OW 6965   1.159   0.753   3.122
 1734SOL    HW2 6966   1.171   0.752   3.217
 1734SOL    HW3 6967   1.132   0.664   3.100
 1734SOL    MW4 6968   1.157   0.741   3.132
 1735SOL     OW 6969   0.952   0.910   3.040
 1735SOL    HW2 6970   1.021   0.854   3.077
 1735SOL    HW3 6971   0.870   0.870   3.071
 1735SOL    MW4 6972   0.950   0.897   3.049
 1736SOL     OW 6973   0.939   1.174   3.128
 1736SOL    HW2 6974   1.013   1.224   3.095
 1736SOL    HW3 6975   0.955   1.084   3.099
 1736SOL    MW4 6976   0.951   1.169   3.120
 1737SOL     OW 6977   1.166   1.302   3.002
 1737SOL    HW2 6978   1.235   1.238   3.015
 1737SOL    HW3 6979   1.150   1.302   2.907
 1737SOL    MW4 6980   1.173   1.294   2.991
 1738SOL     OW 6981   1.130   1.567   3.104
 1738SOL    HW2 6982   1.212   1.612   3.081
 1738SOL    HW3 6983   1.146   1.475   3.081
 1738SOL    MW4 6984   1.143   1.561   3.098
 1739SOL     OW 6985   0.883   1.680   3.014
 1739SOL    HW2 6986   0.960   1.632   3.043
 1739SOL    HW3 6987   0.811   1.644   3.066
 1739SOL    MW4 6988   0.884   1.669   3.025
 1740SOL     OW 6989   0.934   1.916   3.132
 1740SOL    HW2 6990   0.937   1.897   3.226
 1740SOL    HW3 6991   0.912   1.833   3.091
 1740SOL    MW4 6992   0.931   1.903   3.139
 1741SOL     OW 6993   1.120   2.077   3.009
 1741SOL    HW2 6994   1.061   2.019   3.058
 1741SOL    HW3 6995   1.094   2.066   2.918
 1741SOL    MW4 6996   1.109   2.068   3.003
 1742SOL     OW 6997   1.163   2.338   3.116
 1742SOL    HW2 6998   1.078   2.372   3.089
 1742SOL    HW3 6999   1.171   2.254   3.072
 1742SOL    MW4 7000   1.153   2.331   3.107
 1743SOL     OW 7001   0.910   2.495   3.037
 1743SOL    HW2 7002   0.836   2.440   3.062
 1743SOL    HW3 7003   0.918   2.481   2.942
 1743SOL    MW4 7004   0.901   2.486   3.028
 1744SOL     OW 7005   0.848   2.744   3.133
 1744SOL    HW2 7006   0.855   2.736   3.228
 1744SOL    HW3 7007   0.871   2.657   3.099
 1744SOL    MW4 7008   0.852   2.731   3.141
 1745SOL     OW 7009   1.102   2.827   3.057
 1745SOL    HW2 7010   1.120   2.909   3.103
 1745SOL    HW3 7011   1.016   2.800   3.089
 1745SOL    MW4 7012   1.093   2.834   3.067
 1746SOL     OW 7013   1.117   3.080   3.157
 1746SOL    HW2 7014   1.179   3.133   3.108
 1746SOL    HW3 7015   1.032   3.120   3.139
 1746SOL    MW4 7016   1.114   3.092   3.148
 1747SOL     OW 7017   0.877   3.216   3.056
 1747SOL    HW2 7018   0.804   3.157   3.071
 1747SOL    HW3 7019   0.900   3.203   2.964
 1747SOL    MW4 7020   0.870   3.207   3.045
 1748SOL     OW 7021   0.898   3.489   3.127
 1748SOL    HW2 7022   0.978   3.529   3.094
 1748SOL    HW3 7023   0.896   3.402   3.087
 1748SOL    MW4 7024   0.908   3.483   3.117
 1749SOL     OW 7025   1.121   3.622   3.017
 1749SOL    HW2 7026   1.194   3.575   3.058
 1749SOL    HW3 7027   1.132   3.713   3.046
 1749SOL    MW4 7028   1.132   3.628   3.027
 1750SOL     OW 7029   1.125   3.875   3.124
 1750SOL    HW2 7030   1.115   3.859   3.218
 1750SOL    HW3 7031   1.055   3.937   3.103
 1750SOL    MW4 7032   1.114   3.881   3.133
 1751SOL     OW 7033   0.930   4.056   3.046
 1751SOL    HW2 7034   0.849   4.023   3.087
 1751SOL    HW3 7035   0.917   4.041   2.952
 1751SOL    MW4 7036   0.917   4.050   3.039
 1752SOL     OW 7037   0.872   4.304   3.145
 1752SOL    HW2 7038   0.885   4.212   3.123
 1752SOL    HW3 7039   0.803   4.334   3.087
 1752SOL    MW4 7040   0.865   4.296   3.134
 1753SOL     OW 7041   1.115   4.377   3.033
 1753SOL    HW2 7042   1.036   4.343   3.076
 1753SOL    HW3 7043   1.124   4.466   3.066
 1753SOL    MW4 7044   1.106   4.384   3.043
 1754SOL     OW 7045   1.565   4.615   3.159
 1754SOL    HW2 7046   1.557   4.628   3.254
 1754SOL    HW3 7047   1.490   4.661   3.122
 1754SOL    MW4 7048   1.554   4.623   3.167
 1755SOL     OW 7049   1.372   0.083   3.015
 1755SOL    HW2 7050   1.367   0.176   3.040
 1755SOL    HW3 7051   1.395   0.085   2.922
 1755SOL    MW4 7052   1.375   0.096   3.006
 1756SOL     OW 7053   1.350   0.354   3.085
 1756SOL    HW2 7054   1.336   0.378   3.176
 1756SOL    HW3 7055   1.431   0.399   3.060
 1756SOL    MW4 7056   1.359   0.363   3.093
 1757SOL     OW 7057   1.574   0.507   3.036
 1757SOL    HW2 7058   1.590   0.598   3.062
 1757SOL    HW3 7059   1.608   0.501   2.947
 1757SOL    MW4 7060   1.580   0.518   3.027
 1758SOL     OW 7061   1.631   0.772   3.130
 1758SOL    HW2 7062   1.614   0.761   3.223
 1758SOL    HW3 7063   1.547   0.798   3.093
 1758SOL    MW4 7064   1.618   0.774   3.137
 1759SOL     OW 7065   1.386   0.884   3.008
 1759SOL    HW2 7066   1.389   0.971   3.047
 1759SOL    HW3 7067   1.309   0.843   3.049
 1759SOL    MW4 7068   1.376   0.890   3.019
 1760SOL     OW 7069   1.391   1.151   3.076
 1760SOL    HW2 7070   1.390   1.142   3.172
 1760SOL    HW3 7071   1.476   1.192   3.057
 1760SOL    MW4 7072   1.402   1.155   3.086
 1761SOL     OW 7073   1.627   1.289   3.009
 1761SOL    HW2 7074   1.714   1.258   3.035
 1761SOL    HW3 7075   1.625   1.381   3.037
 1761SOL    MW4 7076   1.638   1.297   3.016
 1762SOL     OW 7077   1.617   1.545   3.106
 1762SOL    HW2 7078   1.680   1.607   3.070
 1762SOL    HW3 7079   1.532   1.581   3.081
 1762SOL    MW4 7080   1.614   1.558   3.098
 1763SOL     OW 7081   1.386   1.694   3.015
 1763SOL    HW2 7082   1.360   1.779   3.050
 1763SOL    HW3 7083   1.377   1.703   2.920
 1763SOL    MW4 7084   1.381   1.706   3.007
 1764SOL     OW 7085   1.346   1.969   3.112
 1764SOL    HW2 7086   1.337   1.970   3.208
 1764SOL    HW3 7087   1.268   2.016   3.081
 1764SOL    MW4 7088   1.334   1.976   3.121
 1765SOL     OW 7089   1.567   2.056   2.981
 1765SOL    HW2 7090   1.481   2.039   3.019
 1765SOL    HW3 7091   1.552   2.064   2.887
 1765SOL    MW4 7092   1.554   2.055   2.974
 1766SOL     OW 7093   1.588   2.302   3.093
 1766SOL    HW2 7094   1.516   2.352   3.054
 1766SOL    HW3 7095   1.589   2.219   3.045
 1766SOL    MW4 7096   1.579   2.297   3.082
 1767SOL     OW 7097   1.372   2.461   2.985
 1767SOL    HW2 7098   1.303   2.408   3.025
 1767SOL    HW3 7099   1.351   2.461   2.892
 1767SOL    MW4 7100   1.360   2.454   2.978
 1768SOL     OW 7101   1.346   2.688   3.120
 1768SOL    HW2 7102   1.343   2.612   3.063
 1768SOL    HW3 7103   1.263   2.733   3.104
 1768SOL    MW4 7104   1.335   2.684   3.110
 1769SOL     OW 7105   1.558   2.855   3.017
 1769SOL    HW2 7106   1.631   2.803   3.052
 1769SOL    HW3 7107   1.480   2.815   3.055
 1769SOL    MW4 7108   1.557   2.843   3.027
 1770SOL     OW 7109   1.571   3.138   3.100
 1770SOL    HW2 7110   1.582   3.137   3.196
 1770SOL    HW3 7111   1.571   3.045   3.076
 1770SOL    MW4 7112   1.572   3.125   3.110
 1771SOL     OW 7113   1.310   3.230   3.033
 1771SOL    HW2 7114   1.393   3.202   3.070
 1771SOL    HW3 7115   1.328   3.242   2.940
 1771SOL    MW4 7116   1.323   3.228   3.026
 1772SOL     OW 7117   1.354   3.487   3.117
 1772SOL    HW2 7118   1.346   3.482   3.212
 1772SOL    HW3 7119   1.338   3.397   3.087
 1772SOL    MW4 7120   1.351   3.474   3.126
 1773SOL     OW 7121   1.563   3.659   3.026
 1773SOL    HW2 7122   1.490   3.614   3.068
 1773SOL    HW3 7123   1.546   3.649   2.932
 1773SOL    MW4 7124   1.551   3.652   3.019
 1774SOL     OW 7125   1.559   3.907   3.140
 1774SOL    HW2 7126   1.645   3.943   3.117
 1774SOL    HW3 7127   1.558   3.820   3.102
 1774SOL    MW4 7128   1.571   3.900   3.132
 1775SOL     OW 7129   1.337   3.976   2.991
 1775SOL    HW2 7130   1.415   3.962   3.045
 1775SOL    HW3 7131   1.267   3.928   3.037
 1775SOL    MW4 7132   1.338   3.968   3.004
 1776SOL     OW 7133   1.338   4.249   3.110
 1776SOL    HW2 7134   1.328   4.158   3.080
 1776SOL    HW3 7135   1.255   4.291   3.087
 1776SOL    MW4 7136   1.326   4.242   3.103
 1777SOL     OW 7137   1.569   4.390   2.991
 1777SOL    HW2 7138   1.498   4.334   3.021
 1777SOL    HW3 7139   1.572   4.461   3.055
 1777SOL    MW4 7140   1.560   4.392   3.003
 1778SOL     OW 7141   1.997   4.622   3.106
 1778SOL    HW2 7142   2.012   4.630   3.200
 1778SOL    HW3 7143   1.909   4.658   3.093
 1778SOL    MW4 7144   1.987   4.627   3.117
 1779SOL     OW 7145   1.762   0.091   3.053
 1779SOL    HW2 7146   1.684   0.038   3.073
 1779SOL    HW3 7147   1.765   0.093   2.958
 1779SOL    MW4 7148   1.752   0.084   3.043
 1780SOL     OW 7149   1.774   0.363   3.150
 1780SOL    HW2 7150   1.775   0.277   3.108
 1780SOL    HW3 7151   1.702   0.410   3.106
 1780SOL    MW4 7152   1.764   0.358   3.139
 1781SOL     OW 7153   2.015   0.474   3.030
 1781SOL    HW2 7154   1.928   0.448   3.062
 1781SOL    HW3 7155   1.999   0.501   2.940
 1781SOL    MW4 7156   2.001   0.474   3.023
 1782SOL     OW 7157   2.044   0.719   3.185
 1782SOL    HW2 7158   1.980   0.782   3.152
 1782SOL    HW3 7159   2.024   0.638   3.139
 1782SOL    MW4 7160   2.033   0.717   3.175
 1783SOL     OW 7161   1.861   0.896   3.043
 1783SOL    HW2 7162   1.778   0.861   3.077
 1783SOL    HW3 7163   1.852   0.890   2.948
 1783SOL    MW4 7164   1.849   0.890   3.035
 1784SOL     OW 7165   1.856   1.177   3.107
 1784SOL    HW2 7166   1.836   1.194   3.199
 1784SOL    HW3 7167   1.850   1.082   3.099
 1784SOL    MW4 7168   1.853   1.167   3.118
 1785SOL     OW 7169   2.103   1.262   3.022
 1785SOL    HW2 7170   2.180   1.216   3.057
 1785SOL    HW3 7171   2.028   1.210   3.051
 1785SOL    MW4 7172   2.103   1.249   3.031
 1786SOL     OW 7173   2.050   1.530   3.091
 1786SOL    HW2 7174   2.026   1.529   3.184
 1786SOL    HW3 7175   2.059   1.437   3.067
 1786SOL    MW4 7176   2.048   1.517   3.100
 1787SOL     OW 7177   1.818   1.648   2.965
 1787SOL    HW2 7178   1.826   1.743   2.975
 1787SOL    HW3 7179   1.886   1.612   3.022
 1787SOL    MW4 7180   1.828   1.656   2.974
 1788SOL     OW 7181   1.826   1.934   3.065
 1788SOL    HW2 7182   1.893   1.996   3.039
 1788SOL    HW3 7183   1.744   1.973   3.035
 1788SOL    MW4 7184   1.824   1.947   3.057
 1789SOL     OW 7185   2.056   2.076   2.978
 1789SOL    HW2 7186   2.113   2.034   3.043
 1789SOL    HW3 7187   2.050   2.167   3.006
 1789SOL    MW4 7188   2.063   2.082   2.990
 1790SOL     OW 7189   2.050   2.312   3.113
 1790SOL    HW2 7190   2.114   2.356   3.057
 1790SOL    HW3 7191   1.965   2.343   3.080
 1790SOL    MW4 7192   2.047   2.322   3.101
 1791SOL     OW 7193   1.830   2.432   3.003
 1791SOL    HW2 7194   1.826   2.528   3.014
 1791SOL    HW3 7195   1.747   2.401   3.039
 1791SOL    MW4 7196   1.818   2.441   3.009
 1792SOL     OW 7197   1.769   2.704   3.086
 1792SOL    HW2 7198   1.761   2.721   3.180
 1792SOL    HW3 7199   1.847   2.754   3.060
 1792SOL    MW4 7200   1.778   2.713   3.095
 1793SOL     OW 7201   2.003   2.844   3.011
 1793SOL    HW2 7202   1.995   2.934   3.045
 1793SOL    HW3 7203   2.028   2.855   2.920
 1793SOL    MW4 7204   2.005   2.858   3.004
 1794SOL     OW 7205   1.977   3.112   3.108
 1794SOL    HW2 7206   1.989   3.145   3.197
 1794SOL    HW3 7207   1.908   3.167   3.071
 1794SOL    MW4 7208   1.970   3.123   3.115
 1795SOL     OW 7209   1.794   3.267   2.996
 1795SOL    HW2 7210   1.711   3.225   3.019
 1795SOL    HW3 7211   1.796   3.263   2.900
 1795SOL    MW4 7212   1.783   3.261   2.986
 1796SOL     OW 7213   1.769   3.502   3.143
 1796SOL    HW2 7214   1.774   3.414   3.106
 1796SOL    HW3 7215   1.702   3.546   3.092
 1796SOL    MW4 7216   1.761   3.496   3.132
 1797SOL     OW 7217   2.002   3.591   3.017
 1797SOL    HW2 7218   2.018   3.681   3.044
 1797SOL    HW3 7219   1.930   3.561   3.073
 1797SOL    MW4 7220   1.995   3.599   3.028
 1798SOL     OW 7221   2.025   3.861   3.124
 1798SOL    HW2 7222   2.023   3.873   3.219
 1798SOL    HW3 7223   1.951   3.912   3.092
 1798SOL    MW4 7224   2.015   3.869   3.132
 1799SOL     OW 7225   1.811   3.997   3.044
 1799SOL    HW2 7226   1.803   4.089   3.067
 1799SOL    HW3 7227   1.811   3.995   2.949
 1799SOL    MW4 7228   1.810   4.009   3.035
 1800SOL     OW 7229   1.774   4.261   3.108
 1800SOL    HW2 7230   1.855   4.304   3.081
 1800SOL    HW3 7231   1.704   4.311   3.066
 1800SOL    MW4 7232   1.775   4.273   3.099
 1801SOL     OW 7233   2.037   4.358   3.027
 1801SOL    HW2 7234   2.021   4.449   3.053
 1801SOL    HW3 7235   2.029   4.358   2.932
 1801SOL    MW4 7236   2.034   4.370   3.018
 1802SOL     OW 7237   2.449   4.644   3.120
 1802SOL    HW2 7238   2.441   4.554   3.089
 1802SOL    HW3 7239   2.376   4.690   3.079
 1802SOL    MW4 7240   2.439   4.638   3.110
 1803SOL     OW 7241   2.220   0.103   3.018
 1803SOL    HW2 7242   2.232   0.183   3.068
 1803SOL    HW3 7243   2.142   0.062   3.057
 1803SOL    MW4 7244   2.211   0.108   3.030
 1804SOL     OW 7245   2.263   0.337   3.126
 1804SOL    HW2 7246   2.247   0.344   3.220
 1804SOL    HW3 7247   2.188   0.381   3.085
 1804SOL    MW4 7248   2.251   0.344   3.133
 1805SOL     OW 7249   2.489   0.483   3.076
 1805SOL    HW2 7250   2.406   0.450   3.110
 1805SOL    HW3 7251   2.471   0.503   2.984
 1805SOL    MW4 7252   2.476   0.481   3.068
 1806SOL     OW 7253   2.477   0.737   3.166
 1806SOL    HW2 7254   2.552   0.784   3.129
 1806SOL    HW3 7255   2.489   0.646   3.140
 1806SOL    MW4 7256   2.488   0.731   3.158
 1807SOL     OW 7257   2.256   0.844   3.031
 1807SOL    HW2 7258   2.340   0.820   3.070
 1807SOL    HW3 7259   2.191   0.795   3.082
 1807SOL    MW4 7260   2.258   0.835   3.043
 1808SOL     OW 7261   2.293   1.114   3.121
 1808SOL    HW2 7262   2.271   1.104   3.214
 1808SOL    HW3 7263   2.294   1.024   3.087
 1808SOL    MW4 7264   2.290   1.101   3.129
 1809SOL     OW 7265   2.482   1.284   3.031
 1809SOL    HW2 7266   2.419   1.218   3.062
 1809SOL    HW3 7267   2.467   1.288   2.937
 1809SOL    MW4 7268   2.472   1.276   3.023
 1810SOL     OW 7269   2.451   1.548   3.113
 1810SOL    HW2 7270   2.384   1.595   3.064
 1810SOL    HW3 7271   2.441   1.457   3.085
 1810SOL    MW4 7272   2.441   1.542   3.103
 1811SOL     OW 7273   2.252   1.697   2.998
 1811SOL    HW2 7274   2.180   1.643   3.031
 1811SOL    HW3 7275   2.244   1.691   2.903
 1811SOL    MW4 7276   2.241   1.689   2.990
 1812SOL     OW 7277   2.281   1.939   3.121
 1812SOL    HW2 7278   2.361   1.977   3.087
 1812SOL    HW3 7279   2.277   1.852   3.081
 1812SOL    MW4 7280   2.291   1.933   3.111
 1813SOL     OW 7281   2.504   2.076   3.035
 1813SOL    HW2 7282   2.581   2.021   3.051
 1813SOL    HW3 7283   2.499   2.082   2.939
 1813SOL    MW4 7284   2.513   2.069   3.024
 1814SOL     OW 7285   2.425   2.334   3.115
 1814SOL    HW2 7286   2.442   2.351   3.207
 1814SOL    HW3 7287   2.425   2.238   3.108
 1814SOL    MW4 7288   2.427   2.324   3.126
 1815SOL     OW 7289   2.224   2.458   2.973
 1815SOL    HW2 7290   2.212   2.537   3.025
 1815SOL    HW3 7291   2.301   2.416   3.011
 1815SOL    MW4 7292   2.232   2.463   2.985
 1816SOL     OW 7293   2.217   2.668   3.161
 1816SOL    HW2 7294   2.305   2.690   3.131
 1816SOL    HW3 7295   2.162   2.738   3.126
 1816SOL    MW4 7296   2.221   2.680   3.153
 1817SOL     OW 7297   2.441   2.756   3.015
 1817SOL    HW2 7298   2.420   2.835   3.065
 1817SOL    HW3 7299   2.424   2.780   2.924
 1817SOL    MW4 7300   2.436   2.770   3.010
 1818SOL     OW 7301   2.424   3.020   3.116
 1818SOL    HW2 7302   2.488   3.086   3.086
 1818SOL    HW3 7303   2.339   3.056   3.091
 1818SOL    MW4 7304   2.421   3.034   3.109
 1819SOL     OW 7305   2.222   3.190   3.021
 1819SOL    HW2 7306   2.212   3.278   3.056
 1819SOL    HW3 7307   2.135   3.150   3.031
 1819SOL    MW4 7308   2.209   3.196   3.027
 1820SOL     OW 7309   2.227   3.446   3.108
 1820SOL    HW2 7310   2.293   3.500   3.064
 1820SOL    HW3 7311   2.144   3.491   3.092
 1820SOL    MW4 7312   2.225   3.459   3.100
 1821SOL     OW 7313   2.418   3.609   3.004
 1821SOL    HW2 7314   2.489   3.564   3.050
 1821SOL    HW3 7315   2.418   3.697   3.042
 1821SOL    MW4 7316   2.428   3.615   3.015
 1822SOL     OW 7317   2.461   3.875   3.120
 1822SOL    HW2 7318   2.464   3.867   3.215
 1822SOL    HW3 7319   2.552   3.880   3.093
 1822SOL    MW4 7320   2.473   3.874   3.129
 1823SOL     OW 7321   2.250   3.997   2.996
 1823SOL    HW2 7322   2.324   3.953   3.038
 1823SOL    HW3 7323   2.173   3.950   3.027
 1823SOL    MW4 7324   2.250   3.985   3.005
 1824SOL     OW 7325   2.226   4.217   3.157
 1824SOL    HW2 7326   2.229   4.139   3.102
 1824SOL    HW3 7327   2.150   4.266   3.125
 1824SOL    MW4 7328   2.216   4.213   3.145
 1825SOL     OW 7329   2.416   4.373   3.047
 1825SOL    HW2 7330   2.350   4.312   3.082
 1825SOL    HW3 7331   2.399   4.376   2.953
 1825SOL    MW4 7332   2.405   4.365   3.039
 1826SOL     OW 7333   2.895   0.020   3.161
 1826SOL    HW2 7334   2.963   0.074   3.121
 1826SOL    HW3 7335   2.911  -0.068   3.126
 1826SOL    MW4 7336   2.906   0.015   3.151
 1827SOL     OW 7337   2.655   0.103   2.993
 1827SOL    HW2 7338   2.734   0.054   3.013
 1827SOL    HW3 7339   2.587   0.064   3.048
 1827SOL    MW4 7340   2.657   0.092   3.003
 1828SOL     OW 7341   2.722   0.338   3.129
 1828SOL    HW2 7342   2.715   0.262   3.072
 1828SOL    HW3 7343   2.641   0.387   3.115
 1828SOL    MW4 7344   2.711   0.334   3.120
 1829SOL     OW 7345   2.930   0.524   3.046
 1829SOL    HW2 7346   2.857   0.481   3.091
 1829SOL    HW3 7347   2.908   0.518   2.953
 1829SOL    MW4 7348   2.917   0.518   3.040
 1830SOL     OW 7349   2.910   0.803   3.107
 1830SOL    HW2 7350   2.905   0.806   3.202
 1830SOL    HW3 7351   2.909   0.709   3.085
 1830SOL    MW4 7352   2.909   0.791   3.116
 1831SOL     OW 7353   2.665   0.889   3.033
 1831SOL    HW2 7354   2.661   0.976   3.074
 1831SOL    HW3 7355   2.754   0.858   3.052
 1831SOL    MW4 7356   2.677   0.897   3.041
 1832SOL     OW 7357   2.698   1.140   3.115
 1832SOL    HW2 7358   2.778   1.187   3.090
 1832SOL    HW3 7359   2.627   1.199   3.091
 1832SOL    MW4 7360   2.699   1.154   3.109
 1833SOL     OW 7361   2.952   1.239   3.013
 1833SOL    HW2 7362   3.037   1.215   3.050
 1833SOL    HW3 7363   2.948   1.334   3.020
 1833SOL    MW4 7364   2.963   1.248   3.019
 1834SOL     OW 7365   2.913   1.497   3.116
 1834SOL    HW2 7366   2.907   1.503   3.212
 1834SOL    HW3 7367   2.981   1.560   3.092
 1834SOL    MW4 7368   2.921   1.506   3.126
 1835SOL     OW 7369   2.692   1.628   3.016
 1835SOL    HW2 7370   2.755   1.575   3.065
 1835SOL    HW3 7371   2.608   1.609   3.058
 1835SOL    MW4 7372   2.689   1.618   3.028
 1836SOL     OW 7373   2.695   1.876   3.125
 1836SOL    HW2 7374   2.770   1.923   3.088
 1836SOL    HW3 7375   2.704   1.786   3.093
 1836SOL    MW4 7376   2.706   1.870   3.116
 1837SOL     OW 7377   2.901   2.048   3.055
 1837SOL    HW2 7378   2.906   2.139   3.083
 1837SOL    HW3 7379   2.914   2.050   2.961
 1837SOL    MW4 7380   2.904   2.060   3.046
 1838SOL     OW 7381   2.912   2.315   3.154
 1838SOL    HW2 7382   2.984   2.354   3.103
 1838SOL    HW3 7383   2.833   2.350   3.114
 1838SOL    MW4 7384   2.911   2.325   3.142
 1839SOL     OW 7385   2.687   2.404   2.989
 1839SOL    HW2 7386   2.681   2.490   3.031
 1839SOL    HW3 7387   2.606   2.360   3.014
 1839SOL    MW4 7388   2.676   2.410   2.998
 1840SOL     OW 7389   2.679   2.650   3.106
 1840SOL    HW2 7390   2.684   2.660   3.201
 1840SOL    HW3 7391   2.595   2.690   3.082
 1840SOL    MW4 7392   2.668   2.657   3.115
 1841SOL     OW 7393   2.852   2.850   3.052
 1841SOL    HW2 7394   2.931   2.800   3.073
 1841SOL    HW3 7395   2.780   2.795   3.081
 1841SOL    MW4 7396   2.853   2.836   3.059
 1842SOL     OW 7397   2.889   3.117   3.095
 1842SOL    HW2 7398   2.799   3.149   3.087
 1842SOL    HW3 7399   2.881   3.021   3.088
 1842SOL    MW4 7400   2.876   3.108   3.093
 1843SOL     OW 7401   2.623   3.216   3.037
 1843SOL    HW2 7402   2.620   3.309   3.060
 1843SOL    HW3 7403   2.646   3.214   2.945
 1843SOL    MW4 7404   2.625   3.228   3.028
 1844SOL     OW 7405   2.626   3.481   3.144
 1844SOL    HW2 7406   2.640   3.494   3.237
 1844SOL    HW3 7407   2.702   3.521   3.102
 1844SOL    MW4 7408   2.638   3.488   3.151
 1845SOL     OW 7409   2.886   3.547   3.071
 1845SOL    HW2 7410   2.956   3.499   3.116
 1845SOL    HW3 7411   2.905   3.639   3.089
 1845SOL    MW4 7412   2.898   3.552   3.079
 1846SOL     OW 7413   2.932   3.817   3.117
 1846SOL    HW2 7414   2.938   3.822   3.212
 1846SOL    HW3 7415   2.856   3.871   3.095
 1846SOL    MW4 7416   2.923   3.825   3.126
 1847SOL     OW 7417   2.698   3.971   3.033
 1847SOL    HW2 7418   2.696   4.063   3.058
 1847SOL    HW3 7419   2.706   3.972   2.937
 1847SOL    MW4 7420   2.699   3.983   3.024
 1848SOL     OW 7421   2.659   4.228   3.119
 1848SOL    HW2 7422   2.679   4.250   3.210
 1848SOL    HW3 7423   2.571   4.264   3.104
 1848SOL    MW4 7424   2.650   4.236   3.129
 1849SOL     OW 7425   2.889   4.407   3.045
 1849SOL    HW2 7426   2.973   4.372   3.075
 1849SOL    HW3 7427   2.826   4.339   3.068
 1849SOL    MW4 7428   2.892   4.393   3.052
 1850SOL     OW 7429   3.376   4.630   3.177
 1850SOL    HW2 7430   3.425   4.682   3.114
 1850SOL    HW3 7431   3.339   4.558   3.126
 1850SOL    MW4 7432   3.377   4.627   3.162
 1851SOL     OW 7433   3.151   0.128   3.061
 1851SOL    HW2 7434   3.155   0.219   3.092
 1851SOL    HW3 7435   3.212   0.081   3.118
 1851SOL    MW4 7436   3.159   0.134   3.073
 1852SOL     OW 7437   3.137   0.382   3.150
 1852SOL    HW2 7438   3.215   0.429   3.121
 1852SOL    HW3 7439   3.064   0.427   3.107
 1852SOL    MW4 7440   3.138   0.394   3.140
 1853SOL     OW 7441   3.330   0.545   3.068
 1853SOL    HW2 7442   3.407   0.494   3.092
 1853SOL    HW3 7443   3.326   0.539   2.973
 1853SOL    MW4 7444   3.340   0.538   3.059
 1854SOL     OW 7445   3.337   0.799   3.169
 1854SOL    HW2 7446   3.346   0.784   3.263
 1854SOL    HW3 7447   3.320   0.712   3.133
 1854SOL    MW4 7448   3.336   0.785   3.177
 1855SOL     OW 7449   3.145   0.935   3.013
 1855SOL    HW2 7450   3.210   0.895   3.071
 1855SOL    HW3 7451   3.061   0.898   3.042
 1855SOL    MW4 7452   3.143   0.925   3.024
 1856SOL     OW 7453   3.177   1.163   3.148
 1856SOL    HW2 7454   3.248   1.221   3.122
 1856SOL    HW3 7455   3.181   1.090   3.086
 1856SOL    MW4 7456   3.187   1.161   3.136
 1857SOL     OW 7457   3.394   1.263   3.030
 1857SOL    HW2 7458   3.457   1.214   3.083
 1857SOL    HW3 7459   3.400   1.353   3.062
 1857SOL    MW4 7460   3.403   1.268   3.041
 1858SOL     OW 7461   3.379   1.533   3.111
 1858SOL    HW2 7462   3.371   1.529   3.207
 1858SOL    HW3 7463   3.452   1.593   3.096
 1858SOL    MW4 7464   3.388   1.541   3.122
 1859SOL     OW 7465   3.129   1.658   3.040
 1859SOL    HW2 7466   3.206   1.617   3.078
 1859SOL    HW3 7467   3.146   1.661   2.946
 1859SOL    MW4 7468   3.141   1.653   3.033
 1860SOL     OW 7469   3.124   1.922   3.159
 1860SOL    HW2 7470   3.113   1.832   3.126
 1860SOL    HW3 7471   3.039   1.964   3.143
 1860SOL    MW4 7472   3.111   1.916   3.153
 1861SOL     OW 7473   3.348   2.065   3.042
 1861SOL    HW2 7474   3.439   2.040   3.061
 1861SOL    HW3 7475   3.296   2.013   3.104
 1861SOL    MW4 7476   3.353   2.055   3.053
 1862SOL     OW 7477   3.355   2.326   3.112
 1862SOL    HW2 7478   3.365   2.325   3.207
 1862SOL    HW3 7479   3.338   2.234   3.089
 1862SOL    MW4 7480   3.354   2.314   3.121
 1863SOL     OW 7481   3.115   2.472   3.041
 1863SOL    HW2 7482   3.192   2.424   3.069
 1863SOL    HW3 7483   3.120   2.473   2.946
 1863SOL    MW4 7484   3.126   2.466   3.032
 1864SOL     OW 7485   3.119   2.756   3.107
 1864SOL    HW2 7486   3.137   2.736   3.199
 1864SOL    HW3 7487   3.115   2.671   3.064
 1864SOL    MW4 7488   3.121   2.742   3.113
 1865SOL     OW 7489   3.353   2.858   3.032
 1865SOL    HW2 7490   3.358   2.949   3.063
 1865SOL    HW3 7491   3.271   2.825   3.069
 1865SOL    MW4 7492   3.343   2.866   3.041
 1866SOL     OW 7493   3.379   3.122   3.103
 1866SOL    HW2 7494   3.366   3.104   3.196
 1866SOL    HW3 7495   3.301   3.172   3.077
 1866SOL    MW4 7496   3.367   3.127   3.112
 1867SOL     OW 7497   3.138   3.227   3.021
 1867SOL    HW2 7498   3.050   3.194   3.040
 1867SOL    HW3 7499   3.145   3.226   2.926
 1867SOL    MW4 7500   3.127   3.223   3.011
 1868SOL     OW 7501   3.152   3.470   3.153
 1868SOL    HW2 7502   3.218   3.531   3.119
 1868SOL    HW3 7503   3.159   3.393   3.098
 1868SOL    MW4 7504   3.162   3.468   3.141
 1869SOL     OW 7505   3.357   3.629   3.031
 1869SOL    HW2 7506   3.425   3.578   3.076
 1869SOL    HW3 7507   3.368   3.718   3.063
 1869SOL    MW4 7508   3.368   3.634   3.041
 1870SOL     OW 7509   3.363   3.889   3.120
 1870SOL    HW2 7510   3.369   3.887   3.215
 1870SOL    HW3 7511   3.273   3.918   3.103
 1870SOL    MW4 7512   3.352   3.893   3.130
 1871SOL     OW 7513   3.116   3.997   3.059
 1871SOL    HW2 7514   3.050   3.938   3.097
 1871SOL    HW3 7515   3.105   3.988   2.965
 1871SOL    MW4 7516   3.106   3.988   3.052
 1872SOL     OW 7517   3.113   4.290   3.126
 1872SOL    HW2 7518   3.141   4.285   3.217
 1872SOL    HW3 7519   3.117   4.200   3.094
 1872SOL    MW4 7520   3.117   4.278   3.134
 1873SOL     OW 7521   3.330   4.415   3.006
 1873SOL    HW2 7522   3.410   4.374   3.038
 1873SOL    HW3 7523   3.260   4.357   3.036
 1873SOL    MW4 7524   3.331   4.402   3.014
 1874SOL     OW 7525   3.781   4.662   3.119
 1874SOL    HW2 7526   3.775   4.570   3.093
 1874SOL    HW3 7527   3.693   4.697   3.101
 1874SOL    MW4 7528   3.768   4.654   3.113
 1875SOL     OW 7529   3.547   0.117   3.025
 1875SOL    HW2 7530   3.530   0.209   3.047
 1875SOL    HW3 7531   3.529   0.112   2.931
 1875SOL    MW4 7532   3.543   0.129   3.015
 1876SOL     OW 7533   3.554   0.386   3.103
 1876SOL    HW2 7534   3.566   0.377   3.198
 1876SOL    HW3 7535   3.642   0.404   3.070
 1876SOL    MW4 7536   3.567   0.388   3.111
 1877SOL     OW 7537   3.782   0.493   2.996
 1877SOL    HW2 7538   3.861   0.465   3.041
 1877SOL    HW3 7539   3.770   0.585   3.023
 1877SOL    MW4 7540   3.791   0.502   3.006
 1878SOL     OW 7541   3.799   0.760   3.110
 1878SOL    HW2 7542   3.807   0.767   3.205
 1878SOL    HW3 7543   3.877   0.803   3.076
 1878SOL    MW4 7544   3.810   0.767   3.118
 1879SOL     OW 7545   3.561   0.900   3.017
 1879SOL    HW2 7546   3.634   0.849   3.050
 1879SOL    HW3 7547   3.484   0.865   3.063
 1879SOL    MW4 7548   3.560   0.889   3.027
 1880SOL     OW 7549   3.599   1.132   3.171
 1880SOL    HW2 7550   3.671   1.192   3.150
 1880SOL    HW3 7551   3.627   1.047   3.137
 1880SOL    MW4 7552   3.612   1.129   3.163
 1881SOL     OW 7553   3.823   1.287   3.065
 1881SOL    HW2 7554   3.809   1.378   3.091
 1881SOL    HW3 7555   3.827   1.289   2.970
 1881SOL    MW4 7556   3.822   1.299   3.056
 1882SOL     OW 7557   3.821   1.545   3.130
 1882SOL    HW2 7558   3.798   1.532   3.222
 1882SOL    HW3 7559   3.741   1.577   3.090
 1882SOL    MW4 7560   3.807   1.547   3.137
 1883SOL     OW 7561   3.598   1.688   3.043
 1883SOL    HW2 7562   3.593   1.782   3.057
 1883SOL    HW3 7563   3.592   1.677   2.948
 1883SOL    MW4 7564   3.596   1.699   3.033
 1884SOL     OW 7565   3.605   1.956   3.099
 1884SOL    HW2 7566   3.609   1.954   3.194
 1884SOL    HW3 7567   3.686   1.999   3.072
 1884SOL    MW4 7568   3.616   1.962   3.108
 1885SOL     OW 7569   3.851   2.063   3.023
 1885SOL    HW2 7570   3.850   2.151   3.062
 1885SOL    HW3 7571   3.831   2.078   2.931
 1885SOL    MW4 7572   3.848   2.077   3.016
 1886SOL     OW 7573   3.811   2.320   3.144
 1886SOL    HW2 7574   3.792   2.330   3.237
 1886SOL    HW3 7575   3.733   2.355   3.100
 1886SOL    MW4 7576   3.798   2.326   3.150
 1887SOL     OW 7577   3.589   2.441   3.040
 1887SOL    HW2 7578   3.577   2.529   3.076
 1887SOL    HW3 7579   3.509   2.394   3.066
 1887SOL    MW4 7580   3.577   2.446   3.048
 1888SOL     OW 7581   3.581   2.717   3.114
 1888SOL    HW2 7582   3.663   2.750   3.076
 1888SOL    HW3 7583   3.513   2.767   3.069
 1888SOL    MW4 7584   3.583   2.728   3.103
 1889SOL     OW 7585   3.801   2.827   3.019
 1889SOL    HW2 7586   3.792   2.911   3.065
 1889SOL    HW3 7587   3.811   2.851   2.927
 1889SOL    MW4 7588   3.801   2.842   3.013
 1890SOL     OW 7589   3.821   3.110   3.118
 1890SOL    HW2 7590   3.903   3.158   3.110
 1890SOL    HW3 7591   3.753   3.175   3.098
 1890SOL    MW4 7592   3.823   3.125   3.114
 1891SOL     OW 7593   3.598   3.261   3.010
 1891SOL    HW2 7594   3.529   3.204   3.044
 1891SOL    HW3 7595   3.596   3.248   2.915
 1891SOL    MW4 7596   3.589   3.252   3.002
 1892SOL     OW 7597   3.583   3.500   3.141
 1892SOL    HW2 7598   3.672   3.536   3.136
 1892SOL    HW3 7599   3.588   3.418   3.092
 1892SOL    MW4 7600   3.596   3.494   3.134
 1893SOL     OW 7601   3.835   3.623   3.038
 1893SOL    HW2 7602   3.836   3.719   3.046
 1893SOL    HW3 7603   3.806   3.608   2.948
 1893SOL    MW4 7604   3.831   3.634   3.027
 1894SOL     OW 7605   3.837   3.903   3.071
 1894SOL    HW2 7606   3.834   3.904   3.166
 1894SOL    HW3 7607   3.758   3.950   3.043
 1894SOL    MW4 7608   3.826   3.909   3.080
 1895SOL     OW 7609   3.586   4.012   3.001
 1895SOL    HW2 7610   3.513   3.963   3.040
 1895SOL    HW3 7611   3.576   3.999   2.907
 1895SOL    MW4 7612   3.575   4.004   2.994
 1896SOL     OW 7613   3.550   4.282   3.088
 1896SOL    HW2 7614   3.628   4.323   3.050
 1896SOL    HW3 7615   3.551   4.193   3.053
 1896SOL    MW4 7616   3.560   4.276   3.078
 1897SOL     OW 7617   3.772   4.402   3.014
 1897SOL    HW2 7618   3.851   4.353   3.041
 1897SOL    HW3 7619   3.781   4.411   2.919
 1897SOL    MW4 7620   3.784   4.396   3.005
 1898SOL     OW 7621   4.226   0.001   3.102
 1898SOL    HW2 7622   4.239  -0.013   3.196
 1898SOL    HW3 7623   4.227  -0.087   3.065
 1898SOL    MW4 7624   4.228  -0.013   3.110
 1899SOL     OW 7625   3.991   0.133   3.019
 1899SOL    HW2 7626   4.067   0.081   3.046
 1899SOL    HW3 7627   3.916   0.086   3.054
 1899SOL    MW4 7628   3.991   0.120   3.027
 1900SOL     OW 7629   3.986   0.389   3.152
 1900SOL    HW2 7630   4.060   0.447   3.136
 1900SOL    HW3 7631   4.009   0.307   3.110
 1900SOL    MW4 7632   3.998   0.386   3.145
 1901SOL     OW 7633   4.259   0.509   3.077
 1901SOL    HW2 7634   4.261   0.601   3.103
 1901SOL    HW3 7635   4.244   0.511   2.983
 1901SOL    MW4 7636   4.257   0.522   3.068
 1902SOL     OW 7637   4.280   0.771   3.155
 1902SOL    HW2 7638   4.216   0.824   3.107
 1902SOL    HW3 7639   4.364   0.798   3.118
 1902SOL    MW4 7640   4.283   0.782   3.144
 1903SOL     OW 7641   4.033   0.868   3.029
 1903SOL    HW2 7642   4.040   0.954   3.070
 1903SOL    HW3 7643   4.025   0.887   2.935
 1903SOL    MW4 7644   4.033   0.882   3.022
 1904SOL     OW 7645   4.039   1.126   3.153
 1904SOL    HW2 7646   4.035   1.133   3.248
 1904SOL    HW3 7647   3.958   1.165   3.122
 1904SOL    MW4 7648   4.028   1.132   3.162
 1905SOL     OW 7649   4.240   1.278   3.029
 1905SOL    HW2 7650   4.172   1.229   3.076
 1905SOL    HW3 7651   4.211   1.279   2.938
 1905SOL    MW4 7652   4.227   1.272   3.024
 1906SOL     OW 7653   4.249   1.538   3.140
 1906SOL    HW2 7654   4.177   1.585   3.097
 1906SOL    HW3 7655   4.240   1.448   3.109
 1906SOL    MW4 7656   4.238   1.532   3.130
 1907SOL     OW 7657   4.038   1.655   3.015
 1907SOL    HW2 7658   4.051   1.746   3.041
 1907SOL    HW3 7659   3.955   1.630   3.056
 1907SOL    MW4 7660   4.028   1.664   3.024
 1908SOL     OW 7661   4.053   1.919   3.137
 1908SOL    HW2 7662   4.134   1.969   3.123
 1908SOL    HW3 7663   3.986   1.968   3.091
 1908SOL    MW4 7664   4.055   1.932   3.129
 1909SOL     OW 7665   4.260   2.048   3.056
 1909SOL    HW2 7666   4.227   2.136   3.073
 1909SOL    HW3 7667   4.287   2.050   2.964
 1909SOL    MW4 7668   4.260   2.060   3.046
 1910SOL     OW 7669   4.213   2.329   3.090
 1910SOL    HW2 7670   4.148   2.386   3.049
 1910SOL    HW3 7671   4.294   2.380   3.089
 1910SOL    MW4 7672   4.215   2.343   3.084
 1911SOL     OW 7673   3.998   2.475   3.006
 1911SOL    HW2 7674   4.025   2.553   3.054
 1911SOL    HW3 7675   3.940   2.429   3.067
 1911SOL    MW4 7676   3.994   2.479   3.021
 1912SOL     OW 7677   4.028   2.718   3.142
 1912SOL    HW2 7678   4.017   2.714   3.237
 1912SOL    HW3 7679   3.956   2.771   3.111
 1912SOL    MW4 7680   4.017   2.724   3.151
 1913SOL     OW 7681   4.252   2.813   3.013
 1913SOL    HW2 7682   4.175   2.780   3.060
 1913SOL    HW3 7683   4.326   2.770   3.056
 1913SOL    MW4 7684   4.251   2.803   3.025
 1914SOL     OW 7685   4.278   3.106   3.114
 1914SOL    HW2 7686   4.207   3.164   3.087
 1914SOL    HW3 7687   4.249   3.019   3.089
 1914SOL    MW4 7688   4.265   3.102   3.108
 1915SOL     OW 7689   4.056   3.257   3.058
 1915SOL    HW2 7690   4.051   3.339   3.107
 1915SOL    HW3 7691   4.034   3.281   2.968
 1915SOL    MW4 7692   4.052   3.271   3.053
 1916SOL     OW 7693   4.070   3.524   3.116
 1916SOL    HW2 7694   4.071   3.526   3.212
 1916SOL    HW3 7695   3.985   3.561   3.093
 1916SOL    MW4 7696   4.059   3.529   3.126
 1917SOL     OW 7697   4.290   3.614   2.993
 1917SOL    HW2 7698   4.275   3.703   3.025
 1917SOL    HW3 7699   4.224   3.561   3.039
 1917SOL    MW4 7700   4.279   3.618   3.003
 1918SOL     OW 7701   4.269   3.872   3.081
 1918SOL    HW2 7702   4.203   3.940   3.063
 1918SOL    HW3 7703   4.350   3.908   3.047
 1918SOL    MW4 7704   4.271   3.886   3.074
 1919SOL     OW 7705   4.063   4.047   2.998
 1919SOL    HW2 7706   4.067   4.135   3.036
 1919SOL    HW3 7707   3.976   4.015   3.024
 1919SOL    MW4 7708   4.052   4.055   3.006
 1920SOL     OW 7709   4.019   4.290   3.115
 1920SOL    HW2 7710   4.033   4.272   3.208
 1920SOL    HW3 7711   4.100   4.332   3.086
 1920SOL    MW4 7712   4.031   4.293   3.123
 1921SOL     OW 7713   4.260   4.413   2.991
 1921SOL    HW2 7714   4.341   4.368   3.017
 1921SOL    HW3 7715   4.263   4.414   2.896
 1921SOL    MW4 7716   4.271   4.407   2.982
 1922SOL     OW 7717   0.183   4.644   3.413
 1922SOL    HW2 7718   0.268   4.672   3.447
 1922SOL    HW3 7719   0.175   4.552   3.440
 1922SOL    MW4 7720   0.193   4.635   3.421
 1923SOL     OW 7721   4.449   0.106   3.505
 1923SOL    HW2 7722   4.465   0.198   3.485
 1923SOL    HW3 7723   4.522   0.059   3.464
 1923SOL    MW4 7724   4.461   0.112   3.497
 1924SOL     OW 7725   4.485   0.370   3.419
 1924SOL    HW2 7726   4.421   0.413   3.476
 1924SOL    HW3 7727   4.570   0.407   3.445
 1924SOL    MW4 7728   4.488   0.381   3.430
 1925SOL     OW 7729   0.220   0.491   3.513
 1925SOL    HW2 7730   0.298   0.444   3.482
 1925SOL    HW3 7731   0.232   0.581   3.481
 1925SOL    MW4 7732   0.232   0.497   3.504
 1926SOL     OW 7733   0.237   0.746   3.408
 1926SOL    HW2 7734   0.306   0.805   3.438
 1926SOL    HW3 7735   0.155   0.793   3.428
 1926SOL    MW4 7736   0.235   0.760   3.414
 1927SOL     OW 7737   0.027   0.887   3.489
 1927SOL    HW2 7738   0.037   0.875   3.583
 1927SOL    HW3 7739   0.014   0.982   3.479
 1927SOL    MW4 7740   0.027   0.898   3.500
 1928SOL     OW 7741   4.466   1.138   3.436
 1928SOL    HW2 7742   4.547   1.184   3.457
 1928SOL    HW3 7743   4.463   1.138   3.340
 1928SOL    MW4 7744   4.476   1.144   3.426
 1929SOL     OW 7745   0.204   1.272   3.508
 1929SOL    HW2 7746   0.287   1.245   3.469
 1929SOL    HW3 7747   0.186   1.357   3.470
 1929SOL    MW4 7748   0.212   1.279   3.498
 1930SOL     OW 7749   0.193   1.532   3.414
 1930SOL    HW2 7750   0.275   1.552   3.459
 1930SOL    HW3 7751   0.213   1.543   3.321
 1930SOL    MW4 7752   0.207   1.536   3.407
 1931SOL     OW 7753   4.485   1.702   3.508
 1931SOL    HW2 7754   4.399   1.667   3.481
 1931SOL    HW3 7755   4.548   1.643   3.467
 1931SOL    MW4 7756   4.482   1.689   3.499
 1932SOL     OW 7757   4.479   1.958   3.424
 1932SOL    HW2 7758   4.486   1.876   3.471
 1932SOL    HW3 7759   4.472   1.933   3.332
 1932SOL    MW4 7760   4.479   1.944   3.418
 1933SOL     OW 7761   0.248   2.044   3.477
 1933SOL    HW2 7762   0.249   2.050   3.572
 1933SOL    HW3 7763   0.163   2.003   3.456
 1933SOL    MW4 7764   0.237   2.039   3.486
 1934SOL     OW 7765   0.241   2.299   3.379
 1934SOL    HW2 7766   0.163   2.349   3.404
 1934SOL    HW3 7767   0.226   2.212   3.415
 1934SOL    MW4 7768   0.229   2.294   3.387
 1935SOL     OW 7769   0.008   2.414   3.471
 1935SOL    HW2 7770   0.008   2.430   3.566
 1935SOL    HW3 7771  -0.082   2.387   3.452
 1935SOL    MW4 7772  -0.004   2.413   3.481
 1936SOL     OW 7773   4.476   2.672   3.348
 1936SOL    HW2 7774   4.524   2.738   3.400
 1936SOL    HW3 7775   4.498   2.589   3.390
 1936SOL    MW4 7776   4.485   2.670   3.360
 1937SOL     OW 7777   0.180   2.802   3.486
 1937SOL    HW2 7778   0.254   2.746   3.463
 1937SOL    HW3 7779   0.208   2.890   3.459
 1937SOL    MW4 7780   0.194   2.806   3.480
 1938SOL     OW 7781   0.241   3.073   3.404
 1938SOL    HW2 7782   0.162   3.114   3.440
 1938SOL    HW3 7783   0.240   3.098   3.312
 1938SOL    MW4 7784   0.230   3.082   3.397
 1939SOL     OW 7785   0.021   3.196   3.496
 1939SOL    HW2 7786  -0.065   3.163   3.467
 1939SOL    HW3 7787   0.017   3.290   3.481
 1939SOL    MW4 7788   0.009   3.204   3.490
 1940SOL     OW 7789   4.489   3.473   3.399
 1940SOL    HW2 7790   4.418   3.533   3.422
 1940SOL    HW3 7791   4.498   3.481   3.304
 1940SOL    MW4 7792   4.480   3.482   3.390
 1941SOL     OW 7793   0.226   3.628   3.527
 1941SOL    HW2 7794   0.236   3.624   3.622
 1941SOL    HW3 7795   0.152   3.570   3.509
 1941SOL    MW4 7796   0.218   3.619   3.537
 1942SOL     OW 7797   0.198   3.873   3.421
 1942SOL    HW2 7798   0.120   3.914   3.456
 1942SOL    HW3 7799   0.198   3.784   3.456
 1942SOL    MW4 7800   0.188   3.867   3.430
 1943SOL     OW 7801   4.454   4.023   3.485
 1943SOL    HW2 7802   4.451   4.036   3.579
 1943SOL    HW3 7803   4.479   4.109   3.450
 1943SOL    MW4 7804   4.457   4.036   3.493
 1944SOL     OW 7805   4.488   4.270   3.365
 1944SOL    HW2 7806   4.409   4.315   3.394
 1944SOL    HW3 7807   4.559   4.311   3.413
 1944SOL    MW4 7808   4.487   4.281   3.375
 1945SOL     OW 7809   0.190   4.378   3.506
 1945SOL    HW2 7810   0.186   4.373   3.601
 1945SOL    HW3 7811   0.268   4.327   3.482
 1945SOL    MW4 7812   0.199   4.370   3.515
 1946SOL     OW 7813   0.674   0.014   3.410
 1946SOL    HW2 7814   0.751   0.053   3.451
 1946SOL    HW3 7815   0.696   0.010   3.317
 1946SOL    MW4 7816   0.687   0.019   3.403
 1947SOL     OW 7817   0.406   0.078   3.494
 1947SOL    HW2 7818   0.420   0.075   3.589
 1947SOL    HW3 7819   0.486   0.042   3.457
 1947SOL    MW4 7820   0.418   0.073   3.502
 1948SOL     OW 7821   0.423   0.347   3.392
 1948SOL    HW2 7822   0.509   0.379   3.418
 1948SOL    HW3 7823   0.423   0.254   3.416
 1948SOL    MW4 7824   0.434   0.339   3.398
 1949SOL     OW 7825   0.654   0.486   3.482
 1949SOL    HW2 7826   0.664   0.480   3.577
 1949SOL    HW3 7827   0.738   0.456   3.447
 1949SOL    MW4 7828   0.666   0.481   3.490
 1950SOL     OW 7829   0.682   0.754   3.410
 1950SOL    HW2 7830   0.612   0.808   3.447
 1950SOL    HW3 7831   0.662   0.665   3.438
 1950SOL    MW4 7832   0.670   0.750   3.418
 1951SOL     OW 7833   0.465   0.876   3.503
 1951SOL    HW2 7834   0.441   0.872   3.596
 1951SOL    HW3 7835   0.451   0.968   3.479
 1951SOL    MW4 7836   0.460   0.888   3.512
 1952SOL     OW 7837   0.435   1.147   3.428
 1952SOL    HW2 7838   0.515   1.196   3.447
 1952SOL    HW3 7839   0.433   1.141   3.332
 1952SOL    MW4 7840   0.445   1.153   3.418
 1953SOL     OW 7841   0.679   1.278   3.497
 1953SOL    HW2 7842   0.749   1.228   3.456
 1953SOL    HW3 7843   0.696   1.369   3.471
 1953SOL    MW4 7844   0.690   1.283   3.488
 1954SOL     OW 7845   0.687   1.551   3.431
 1954SOL    HW2 7846   0.773   1.576   3.465
 1954SOL    HW3 7847   0.625   1.601   3.484
 1954SOL    MW4 7848   0.691   1.561   3.442
 1955SOL     OW 7849   0.422   1.649   3.530
 1955SOL    HW2 7850   0.414   1.660   3.624
 1955SOL    HW3 7851   0.422   1.739   3.495
 1955SOL    MW4 7852   0.421   1.663   3.538
 1956SOL     OW 7853   0.475   1.901   3.390
 1956SOL    HW2 7854   0.396   1.949   3.415
 1956SOL    HW3 7855   0.463   1.879   3.298
 1956SOL    MW4 7856   0.463   1.905   3.382
 1957SOL     OW 7857   0.714   1.981   3.509
 1957SOL    HW2 7858   0.697   1.958   3.600
 1957SOL    HW3 7859   0.641   1.941   3.461
 1957SOL    MW4 7860   0.702   1.973   3.515
 1958SOL     OW 7861   0.716   2.273   3.354
 1958SOL    HW2 7862   0.790   2.311   3.401
 1958SOL    HW3 7863   0.712   2.183   3.387
 1958SOL    MW4 7864   0.726   2.266   3.365
 1959SOL     OW 7865   0.490   2.392   3.483
 1959SOL    HW2 7866   0.572   2.373   3.437
 1959SOL    HW3 7867   0.422   2.363   3.423
 1959SOL    MW4 7868   0.492   2.386   3.469
 1960SOL     OW 7869   0.403   2.650   3.411
 1960SOL    HW2 7870   0.429   2.560   3.428
 1960SOL    HW3 7871   0.421   2.663   3.318
 1960SOL    MW4 7872   0.409   2.640   3.401
 1961SOL     OW 7873   0.622   2.820   3.481
 1961SOL    HW2 7874   0.707   2.787   3.453
 1961SOL    HW3 7875   0.559   2.757   3.447
 1961SOL    MW4 7876   0.625   2.807   3.473
 1962SOL     OW 7877   0.667   3.096   3.452
 1962SOL    HW2 7878   0.584   3.141   3.471
 1962SOL    HW3 7879   0.650   3.004   3.472
 1962SOL    MW4 7880   0.654   3.090   3.457
 1963SOL     OW 7881   0.437   3.261   3.481
 1963SOL    HW2 7882   0.433   3.274   3.576
 1963SOL    HW3 7883   0.379   3.186   3.465
 1963SOL    MW4 7884   0.429   3.252   3.492
 1964SOL     OW 7885   0.462   3.516   3.399
 1964SOL    HW2 7886   0.452   3.426   3.428
 1964SOL    HW3 7887   0.385   3.561   3.435
 1964SOL    MW4 7888   0.450   3.510   3.407
 1965SOL     OW 7889   0.686   3.595   3.531
 1965SOL    HW2 7890   0.755   3.543   3.490
 1965SOL    HW3 7891   0.607   3.573   3.481
 1965SOL    MW4 7892   0.684   3.585   3.519
 1966SOL     OW 7893   0.666   3.858   3.429
 1966SOL    HW2 7894   0.583   3.904   3.445
 1966SOL    HW3 7895   0.657   3.775   3.475
 1966SOL    MW4 7896   0.654   3.853   3.438
 1967SOL     OW 7897   0.452   4.025   3.493
 1967SOL    HW2 7898   0.427   4.108   3.451
 1967SOL    HW3 7899   0.370   3.978   3.505
 1967SOL    MW4 7900   0.438   4.030   3.489
 1968SOL     OW 7901   0.419   4.275   3.403
 1968SOL    HW2 7902   0.493   4.326   3.435
 1968SOL    HW3 7903   0.426   4.279   3.308
 1968SOL    MW4 7904   0.430   4.282   3.395
 1969SOL     OW 7905   0.637   4.417   3.502
 1969SOL    HW2 7906   0.708   4.362   3.470
 1969SOL    HW3 7907   0.660   4.505   3.471
 1969SOL    MW4 7908   0.650   4.422   3.494
 1970SOL     OW 7909   1.122   4.623   3.372
 1970SOL    HW2 7910   1.186   4.685   3.406
 1970SOL    HW3 7911   1.132   4.629   3.277
 1970SOL    MW4 7912   1.132   4.632   3.364
 1971SOL     OW 7913   0.908   0.120   3.478
 1971SOL    HW2 7914   0.909   0.102   3.572
 1971SOL    HW3 7915   0.967   0.055   3.440
 1971SOL    MW4 7916   0.916   0.109   3.485
 1972SOL     OW 7917   0.893   0.388   3.352
 1972SOL    HW2 7918   0.974   0.433   3.375
 1972SOL    HW3 7919   0.903   0.300   3.389
 1972SOL    MW4 7920   0.905   0.382   3.360
 1973SOL     OW 7921   1.106   0.513   3.488
 1973SOL    HW2 7922   1.088   0.514   3.583
 1973SOL    HW3 7923   1.135   0.602   3.469
 1973SOL    MW4 7924   1.107   0.525   3.498
 1974SOL     OW 7925   1.149   0.772   3.410
 1974SOL    HW2 7926   1.219   0.826   3.446
 1974SOL    HW3 7927   1.069   0.806   3.451
 1974SOL    MW4 7928   1.148   0.784   3.420
 1975SOL     OW 7929   0.907   0.876   3.519
 1975SOL    HW2 7930   0.896   0.966   3.490
 1975SOL    HW3 7931   0.834   0.829   3.479
 1975SOL    MW4 7932   0.896   0.882   3.510
 1976SOL     OW 7933   0.886   1.127   3.390
 1976SOL    HW2 7934   0.966   1.164   3.428
 1976SOL    HW3 7935   0.898   1.138   3.295
 1976SOL    MW4 7936   0.898   1.133   3.382
 1977SOL     OW 7937   1.133   1.249   3.473
 1977SOL    HW2 7938   1.133   1.247   3.569
 1977SOL    HW3 7939   1.146   1.341   3.451
 1977SOL    MW4 7940   1.135   1.261   3.483
 1978SOL     OW 7941   1.159   1.503   3.388
 1978SOL    HW2 7942   1.216   1.558   3.442
 1978SOL    HW3 7943   1.161   1.545   3.301
 1978SOL    MW4 7944   1.167   1.516   3.383
 1979SOL     OW 7945   0.944   1.657   3.531
 1979SOL    HW2 7946   0.962   1.741   3.488
 1979SOL    HW3 7947   1.012   1.599   3.499
 1979SOL    MW4 7948   0.955   1.661   3.521
 1980SOL     OW 7949   0.964   1.896   3.399
 1980SOL    HW2 7950   1.027   1.950   3.446
 1980SOL    HW3 7951   0.878   1.933   3.423
 1980SOL    MW4 7952   0.961   1.908   3.408
 1981SOL     OW 7953   1.177   2.049   3.518
 1981SOL    HW2 7954   1.243   2.007   3.462
 1981SOL    HW3 7955   1.169   2.138   3.483
 1981SOL    MW4 7956   1.185   2.055   3.506
 1982SOL     OW 7957   1.149   2.304   3.388
 1982SOL    HW2 7958   1.235   2.334   3.417
 1982SOL    HW3 7959   1.153   2.306   3.293
 1982SOL    MW4 7960   1.161   2.308   3.380
 1983SOL     OW 7961   0.925   2.425   3.492
 1983SOL    HW2 7962   0.921   2.443   3.586
 1983SOL    HW3 7963   1.014   2.394   3.477
 1983SOL    MW4 7964   0.936   2.423   3.502
 1984SOL     OW 7965   0.892   2.709   3.412
 1984SOL    HW2 7966   0.972   2.753   3.439
 1984SOL    HW3 7967   0.907   2.617   3.432
 1984SOL    MW4 7968   0.905   2.703   3.418
 1985SOL     OW 7969   1.117   2.841   3.477
 1985SOL    HW2 7970   1.118   2.840   3.573
 1985SOL    HW3 7971   1.208   2.824   3.452
 1985SOL    MW4 7972   1.129   2.839   3.486
 1986SOL     OW 7973   1.139   3.108   3.433
 1986SOL    HW2 7974   1.126   3.022   3.473
 1986SOL    HW3 7975   1.132   3.093   3.339
 1986SOL    MW4 7976   1.136   3.095   3.426
 1987SOL     OW 7977   0.905   3.218   3.542
 1987SOL    HW2 7978   0.988   3.180   3.513
 1987SOL    HW3 7979   0.838   3.160   3.506
 1987SOL    MW4 7980   0.907   3.205   3.533
 1988SOL     OW 7981   0.898   3.451   3.406
 1988SOL    HW2 7982   0.910   3.363   3.441
 1988SOL    HW3 7983   0.895   3.439   3.311
 1988SOL    MW4 7984   0.899   3.438   3.398
 1989SOL     OW 7985   1.116   3.583   3.511
 1989SOL    HW2 7986   1.109   3.577   3.606
 1989SOL    HW3 7987   1.043   3.530   3.478
 1989SOL    MW4 7988   1.105   3.575   3.519
 1990SOL     OW 7989   1.107   3.834   3.396
 1990SOL    HW2 7990   1.178   3.884   3.437
 1990SOL    HW3 7991   1.105   3.752   3.445
 1990SOL    MW4 7992   1.116   3.830   3.408
 1991SOL     OW 7993   0.898   3.984   3.492
 1991SOL    HW2 7994   0.961   3.920   3.460
 1991SOL    HW3 7995   0.812   3.945   3.474
 1991SOL    MW4 7996   0.895   3.971   3.485
 1992SOL     OW 7997   0.824   4.244   3.406
 1992SOL    HW2 7998   0.846   4.152   3.422
 1992SOL    HW3 7999   0.823   4.252   3.310
 1992SOL    MW4 8000   0.827   4.233   3.395
 1993SOL     OW 8001   1.081   4.358   3.459
 1993SOL    HW2 8002   0.989   4.335   3.446
 1993SOL    HW3 8003   1.087   4.451   3.435
 1993SOL    MW4 8004   1.070   4.368   3.454
 1994SOL     OW 8005   1.565   0.045   3.421
 1994SOL    HW2 8006   1.547  -0.045   3.446
 1994SOL    HW3 8007   1.491   0.095   3.454
 1994SOL    MW4 8008   1.553   0.040   3.429
 1995SOL     OW 8009   1.310   0.140   3.472
 1995SOL    HW2 8010   1.309   0.141   3.567
 1995SOL    HW3 8011   1.311   0.232   3.446
 1995SOL    MW4 8012   1.310   0.152   3.481
 1996SOL     OW 8013   1.314   0.385   3.357
 1996SOL    HW2 8014   1.393   0.411   3.406
 1996SOL    HW3 8015   1.241   0.420   3.409
 1996SOL    MW4 8016   1.315   0.393   3.370
 1997SOL     OW 8017   1.568   0.481   3.494
 1997SOL    HW2 8018   1.552   0.501   3.587
 1997SOL    HW3 8019   1.657   0.444   3.494
 1997SOL    MW4 8020   1.578   0.479   3.507
 1998SOL     OW 8021   1.585   0.725   3.398
 1998SOL    HW2 8022   1.518   0.775   3.445
 1998SOL    HW3 8023   1.571   0.635   3.426
 1998SOL    MW4 8024   1.574   0.720   3.408
 1999SOL     OW 8025   1.405   0.899   3.504
 1999SOL    HW2 8026   1.386   0.906   3.598
 1999SOL    HW3 8027   1.406   0.990   3.474
 1999SOL    MW4 8028   1.403   0.912   3.513
 2000SOL     OW 8029   1.397   1.146   3.354
 2000SOL    HW2 8030   1.470   1.186   3.401
 2000SOL    HW3 8031   1.321   1.198   3.379
 2000SOL    MW4 8032   1.397   1.158   3.363
 2001SOL     OW 8033   1.577   1.287   3.508
 2001SOL    HW2 8034   1.570   1.265   3.601
 2001SOL    HW3 8035   1.659   1.246   3.480
 2001SOL    MW4 8036   1.587   1.279   3.517
 2002SOL     OW 8037   1.562   1.552   3.409
 2002SOL    HW2 8038   1.576   1.460   3.431
 2002SOL    HW3 8039   1.579   1.558   3.315
 2002SOL    MW4 8040   1.566   1.541   3.400
 2003SOL     OW 8041   1.337   1.671   3.493
 2003SOL    HW2 8042   1.344   1.686   3.588
 2003SOL    HW3 8043   1.423   1.635   3.469
 2003SOL    MW4 8044   1.349   1.668   3.503
 2004SOL     OW 8045   1.373   1.908   3.381
 2004SOL    HW2 8046   1.454   1.934   3.424
 2004SOL    HW3 8047   1.352   1.823   3.419
 2004SOL    MW4 8048   1.381   1.900   3.391
 2005SOL     OW 8049   1.588   2.045   3.515
 2005SOL    HW2 8050   1.657   1.998   3.469
 2005SOL    HW3 8051   1.593   2.135   3.482
 2005SOL    MW4 8052   1.598   2.051   3.505
 2006SOL     OW 8053   1.610   2.313   3.400
 2006SOL    HW2 8054   1.530   2.361   3.425
 2006SOL    HW3 8055   1.598   2.294   3.307
 2006SOL    MW4 8056   1.598   2.317   3.391
 2007SOL     OW 8057   1.380   2.453   3.467
 2007SOL    HW2 8058   1.368   2.468   3.560
 2007SOL    HW3 8059   1.370   2.539   3.426
 2007SOL    MW4 8060   1.377   2.466   3.474
 2008SOL     OW 8061   1.362   2.720   3.382
 2008SOL    HW2 8062   1.441   2.768   3.407
 2008SOL    HW3 8063   1.372   2.705   3.288
 2008SOL    MW4 8064   1.374   2.725   3.373
 2009SOL     OW 8065   1.576   2.864   3.494
 2009SOL    HW2 8066   1.654   2.827   3.452
 2009SOL    HW3 8067   1.563   2.948   3.451
 2009SOL    MW4 8068   1.584   2.870   3.482
 2010SOL     OW 8069   1.600   3.117   3.362
 2010SOL    HW2 8070   1.679   3.132   3.415
 2010SOL    HW3 8071   1.529   3.154   3.415
 2010SOL    MW4 8072   1.601   3.124   3.376
 2011SOL     OW 8073   1.392   3.225   3.513
 2011SOL    HW2 8074   1.403   3.232   3.608
 2011SOL    HW3 8075   1.310   3.177   3.502
 2011SOL    MW4 8076   1.383   3.220   3.524
 2012SOL     OW 8077   1.336   3.478   3.391
 2012SOL    HW2 8078   1.357   3.403   3.446
 2012SOL    HW3 8079   1.261   3.520   3.435
 2012SOL    MW4 8080   1.329   3.474   3.404
 2013SOL     OW 8081   1.564   3.627   3.474
 2013SOL    HW2 8082   1.560   3.610   3.568
 2013SOL    HW3 8083   1.480   3.597   3.441
 2013SOL    MW4 8084   1.553   3.621   3.482
 2014SOL     OW 8085   1.564   3.889   3.405
 2014SOL    HW2 8086   1.568   3.800   3.442
 2014SOL    HW3 8087   1.556   3.876   3.311
 2014SOL    MW4 8088   1.563   3.875   3.397
 2015SOL     OW 8089   1.327   3.986   3.478
 2015SOL    HW2 8090   1.325   4.075   3.443
 2015SOL    HW3 8091   1.415   3.954   3.458
 2015SOL    MW4 8092   1.338   3.994   3.471
 2016SOL     OW 8093   1.325   4.251   3.386
 2016SOL    HW2 8094   1.242   4.291   3.410
 2016SOL    HW3 8095   1.325   4.250   3.290
 2016SOL    MW4 8096   1.314   4.256   3.376
 2017SOL     OW 8097   1.534   4.424   3.466
 2017SOL    HW2 8098   1.618   4.390   3.436
 2017SOL    HW3 8099   1.469   4.362   3.432
 2017SOL    MW4 8100   1.536   4.411   3.457
 2018SOL     OW 8101   2.019   4.644   3.384
 2018SOL    HW2 8102   2.103   4.680   3.414
 2018SOL    HW3 8103   1.954   4.690   3.437
 2018SOL    MW4 8104   2.022   4.655   3.395
 2019SOL     OW 8105   1.812   0.104   3.543
 2019SOL    HW2 8106   1.787   0.108   3.635
 2019SOL    HW3 8107   1.733   0.075   3.498
 2019SOL    MW4 8108   1.798   0.100   3.549
 2020SOL     OW 8109   1.804   0.374   3.429
 2020SOL    HW2 8110   1.784   0.284   3.457
 2020SOL    HW3 8111   1.790   0.373   3.334
 2020SOL    MW4 8112   1.800   0.362   3.420
 2021SOL     OW 8113   2.049   0.469   3.540
 2021SOL    HW2 8114   2.050   0.561   3.512
 2021SOL    HW3 8115   1.970   0.433   3.500
 2021SOL    MW4 8116   2.039   0.477   3.531
 2022SOL     OW 8117   2.029   0.746   3.448
 2022SOL    HW2 8118   2.104   0.798   3.478
 2022SOL    HW3 8119   2.043   0.735   3.354
 2022SOL    MW4 8120   2.041   0.751   3.440
 2023SOL     OW 8121   1.813   0.904   3.466
 2023SOL    HW2 8122   1.894   0.853   3.469
 2023SOL    HW3 8123   1.746   0.841   3.438
 2023SOL    MW4 8124   1.814   0.889   3.462
 2024SOL     OW 8125   1.801   1.170   3.379
 2024SOL    HW2 8126   1.877   1.209   3.420
 2024SOL    HW3 8127   1.801   1.079   3.409
 2024SOL    MW4 8128   1.811   1.163   3.388
 2025SOL     OW 8129   2.046   1.298   3.481
 2025SOL    HW2 8130   2.033   1.293   3.576
 2025SOL    HW3 8131   2.044   1.391   3.461
 2025SOL    MW4 8132   2.044   1.309   3.491
 2026SOL     OW 8133   2.022   1.560   3.372
 2026SOL    HW2 8134   2.089   1.609   3.419
 2026SOL    HW3 8135   1.939   1.596   3.404
 2026SOL    MW4 8136   2.020   1.572   3.382
 2027SOL     OW 8137   1.804   1.657   3.509
 2027SOL    HW2 8138   1.805   1.751   3.491
 2027SOL    HW3 8139   1.716   1.628   3.484
 2027SOL    MW4 8140   1.792   1.665   3.503
 2028SOL     OW 8141   1.798   1.903   3.381
 2028SOL    HW2 8142   1.867   1.963   3.407
 2028SOL    HW3 8143   1.807   1.895   3.286
 2028SOL    MW4 8144   1.809   1.910   3.372
 2029SOL     OW 8145   2.025   2.039   3.481
 2029SOL    HW2 8146   2.111   2.001   3.460
 2029SOL    HW3 8147   2.026   2.124   3.438
 2029SOL    MW4 8148   2.037   2.045   3.473
 2030SOL     OW 8149   2.041   2.309   3.394
 2030SOL    HW2 8150   2.117   2.345   3.440
 2030SOL    HW3 8151   2.058   2.327   3.301
 2030SOL    MW4 8152   2.053   2.316   3.388
 2031SOL     OW 8153   1.819   2.469   3.450
 2031SOL    HW2 8154   1.897   2.416   3.436
 2031SOL    HW3 8155   1.746   2.408   3.443
 2031SOL    MW4 8156   1.819   2.454   3.447
 2032SOL     OW 8157   1.790   2.745   3.364
 2032SOL    HW2 8158   1.872   2.781   3.398
 2032SOL    HW3 8159   1.797   2.651   3.383
 2032SOL    MW4 8160   1.802   2.737   3.371
 2033SOL     OW 8161   2.017   2.875   3.457
 2033SOL    HW2 8162   2.005   2.887   3.551
 2033SOL    HW3 8163   2.025   2.964   3.422
 2033SOL    MW4 8164   2.017   2.889   3.465
 2034SOL     OW 8165   2.026   3.164   3.377
 2034SOL    HW2 8166   2.097   3.208   3.423
 2034SOL    HW3 8167   1.947   3.186   3.426
 2034SOL    MW4 8168   2.025   3.173   3.389
 2035SOL     OW 8169   1.811   3.210   3.530
 2035SOL    HW2 8170   1.816   3.203   3.625
 2035SOL    HW3 8171   1.772   3.296   3.514
 2035SOL    MW4 8172   1.807   3.220   3.540
 2036SOL     OW 8173   1.779   3.467   3.412
 2036SOL    HW2 8174   1.706   3.516   3.451
 2036SOL    HW3 8175   1.778   3.492   3.320
 2036SOL    MW4 8176   1.769   3.477   3.405
 2037SOL     OW 8177   1.984   3.638   3.489
 2037SOL    HW2 8178   2.067   3.593   3.473
 2037SOL    HW3 8179   1.917   3.573   3.471
 2037SOL    MW4 8180   1.986   3.623   3.484
 2038SOL     OW 8181   2.021   3.905   3.410
 2038SOL    HW2 8182   1.944   3.958   3.430
 2038SOL    HW3 8183   1.999   3.818   3.444
 2038SOL    MW4 8184   2.008   3.900   3.417
 2039SOL     OW 8185   1.793   4.038   3.504
 2039SOL    HW2 8186   1.792   4.034   3.599
 2039SOL    HW3 8187   1.711   3.996   3.477
 2039SOL    MW4 8188   1.782   4.032   3.513
 2040SOL     OW 8189   1.758   4.293   3.398
 2040SOL    HW2 8190   1.771   4.202   3.427
 2040SOL    HW3 8191   1.757   4.287   3.303
 2040SOL    MW4 8192   1.760   4.280   3.389
 2041SOL     OW 8193   2.010   4.374   3.497
 2041SOL    HW2 8194   1.931   4.345   3.452
 2041SOL    HW3 8195   2.020   4.466   3.472
 2041SOL    MW4 8196   2.001   4.382   3.488
 2042SOL     OW 8197   2.491   4.638   3.395
 2042SOL    HW2 8198   2.518   4.547   3.410
 2042SOL    HW3 8199   2.476   4.644   3.301
 2042SOL    MW4 8200   2.493   4.627   3.384
 2043SOL     OW 8201   2.251   0.069   3.488
 2043SOL    HW2 8202   2.259   0.158   3.455
 2043SOL    HW3 8203   2.335   0.028   3.468
 2043SOL    MW4 8204   2.263   0.075   3.481
 2044SOL     OW 8205   2.262   0.340   3.411
 2044SOL    HW2 8206   2.339   0.382   3.449
 2044SOL    HW3 8207   2.188   0.390   3.445
 2044SOL    MW4 8208   2.263   0.352   3.420
 2045SOL     OW 8209   2.463   0.467   3.515
 2045SOL    HW2 8210   2.546   0.427   3.486
 2045SOL    HW3 8211   2.466   0.556   3.482
 2045SOL    MW4 8212   2.474   0.473   3.507
 2046SOL     OW 8213   2.461   0.750   3.445
 2046SOL    HW2 8214   2.534   0.804   3.475
 2046SOL    HW3 8215   2.461   0.760   3.350
 2046SOL    MW4 8216   2.470   0.759   3.436
 2047SOL     OW 8217   2.252   0.904   3.534
 2047SOL    HW2 8218   2.245   0.986   3.486
 2047SOL    HW3 8219   2.328   0.860   3.497
 2047SOL    MW4 8220   2.261   0.909   3.523
 2048SOL     OW 8221   2.258   1.140   3.395
 2048SOL    HW2 8222   2.334   1.196   3.411
 2048SOL    HW3 8223   2.183   1.193   3.422
 2048SOL    MW4 8224   2.258   1.154   3.401
 2049SOL     OW 8225   2.465   1.310   3.475
 2049SOL    HW2 8226   2.477   1.325   3.569
 2049SOL    HW3 8227   2.551   1.280   3.444
 2049SOL    MW4 8228   2.478   1.308   3.483
 2050SOL     OW 8229   2.433   1.558   3.387
 2050SOL    HW2 8230   2.430   1.464   3.406
 2050SOL    HW3 8231   2.431   1.564   3.292
 2050SOL    MW4 8232   2.432   1.546   3.377
 2051SOL     OW 8233   2.222   1.690   3.500
 2051SOL    HW2 8234   2.229   1.678   3.595
 2051SOL    HW3 8235   2.294   1.638   3.465
 2051SOL    MW4 8236   2.233   1.681   3.508
 2052SOL     OW 8237   2.266   1.941   3.422
 2052SOL    HW2 8238   2.252   1.853   3.457
 2052SOL    HW3 8239   2.281   1.927   3.328
 2052SOL    MW4 8240   2.266   1.927   3.414
 2053SOL     OW 8241   2.512   2.080   3.494
 2053SOL    HW2 8242   2.502   2.087   3.588
 2053SOL    HW3 8243   2.427   2.049   3.463
 2053SOL    MW4 8244   2.499   2.077   3.502
 2054SOL     OW 8245   2.507   2.347   3.384
 2054SOL    HW2 8246   2.587   2.390   3.416
 2054SOL    HW3 8247   2.512   2.258   3.418
 2054SOL    MW4 8248   2.518   2.341   3.393
 2055SOL     OW 8249   2.249   2.437   3.511
 2055SOL    HW2 8250   2.234   2.529   3.490
 2055SOL    HW3 8251   2.331   2.416   3.466
 2055SOL    MW4 8252   2.258   2.446   3.502
 2056SOL     OW 8253   2.247   2.697   3.444
 2056SOL    HW2 8254   2.179   2.764   3.449
 2056SOL    HW3 8255   2.243   2.665   3.354
 2056SOL    MW4 8256   2.238   2.702   3.433
 2057SOL     OW 8257   2.458   2.852   3.527
 2057SOL    HW2 8258   2.432   2.929   3.477
 2057SOL    HW3 8259   2.386   2.790   3.516
 2057SOL    MW4 8260   2.445   2.854   3.519
 2058SOL     OW 8261   2.416   3.080   3.384
 2058SOL    HW2 8262   2.495   3.130   3.402
 2058SOL    HW3 8263   2.423   3.056   3.292
 2058SOL    MW4 8264   2.427   3.083   3.374
 2059SOL     OW 8265   2.240   3.271   3.529
 2059SOL    HW2 8266   2.238   3.250   3.622
 2059SOL    HW3 8267   2.310   3.216   3.493
 2059SOL    MW4 8268   2.249   3.261   3.536
 2060SOL     OW 8269   2.232   3.506   3.402
 2060SOL    HW2 8270   2.214   3.427   3.453
 2060SOL    HW3 8271   2.242   3.475   3.312
 2060SOL    MW4 8272   2.231   3.491   3.397
 2061SOL     OW 8273   2.475   3.614   3.509
 2061SOL    HW2 8274   2.482   3.705   3.482
 2061SOL    HW3 8275   2.390   3.585   3.473
 2061SOL    MW4 8276   2.465   3.622   3.500
 2062SOL     OW 8277   2.480   3.868   3.400
 2062SOL    HW2 8278   2.556   3.919   3.430
 2062SOL    HW3 8279   2.405   3.908   3.444
 2062SOL    MW4 8280   2.480   3.880   3.410
 2063SOL     OW 8281   2.256   3.996   3.518
 2063SOL    HW2 8282   2.264   4.088   3.493
 2063SOL    HW3 8283   2.170   3.970   3.485
 2063SOL    MW4 8284   2.246   4.005   3.510
 2064SOL     OW 8285   2.265   4.264   3.431
 2064SOL    HW2 8286   2.197   4.315   3.476
 2064SOL    HW3 8287   2.227   4.244   3.346
 2064SOL    MW4 8288   2.251   4.268   3.426
 2065SOL     OW 8289   2.500   4.363   3.499
 2065SOL    HW2 8290   2.478   4.390   3.588
 2065SOL    HW3 8291   2.422   4.317   3.468
 2065SOL    MW4 8292   2.487   4.361   3.507
 2066SOL     OW 8293   2.892   4.653   3.433
 2066SOL    HW2 8294   2.815   4.699   3.466
 2066SOL    HW3 8295   2.891   4.670   3.339
 2066SOL    MW4 8296   2.882   4.662   3.425
 2067SOL     OW 8297   2.675   0.120   3.546
 2067SOL    HW2 8298   2.686   0.209   3.511
 2067SOL    HW3 8299   2.611   0.079   3.488
 2067SOL    MW4 8300   2.668   0.126   3.534
 2068SOL     OW 8301   2.707   0.360   3.408
 2068SOL    HW2 8302   2.771   0.429   3.429
 2068SOL    HW3 8303   2.710   0.353   3.313
 2068SOL    MW4 8304   2.716   0.368   3.399
 2069SOL     OW 8305   2.897   0.553   3.485
 2069SOL    HW2 8306   2.894   0.547   3.581
 2069SOL    HW3 8307   2.913   0.646   3.468
 2069SOL    MW4 8308   2.899   0.565   3.496
 2070SOL     OW 8309   2.894   0.824   3.390
 2070SOL    HW2 8310   2.974   0.864   3.425
 2070SOL    HW3 8311   2.824   0.853   3.449
 2070SOL    MW4 8312   2.895   0.833   3.402
 2071SOL     OW 8313   2.665   0.919   3.535
 2071SOL    HW2 8314   2.663   0.937   3.629
 2071SOL    HW3 8315   2.673   1.005   3.494
 2071SOL    MW4 8316   2.666   0.932   3.542
 2072SOL     OW 8317   2.686   1.160   3.401
 2072SOL    HW2 8318   2.771   1.197   3.425
 2072SOL    HW3 8319   2.701   1.121   3.314
 2072SOL    MW4 8320   2.700   1.159   3.392
 2073SOL     OW 8321   2.911   1.262   3.508
 2073SOL    HW2 8322   2.911   1.260   3.604
 2073SOL    HW3 8323   3.000   1.236   3.484
 2073SOL    MW4 8324   2.923   1.259   3.518
 2074SOL     OW 8325   2.911   1.519   3.401
 2074SOL    HW2 8326   2.834   1.550   3.448
 2074SOL    HW3 8327   2.925   1.430   3.432
 2074SOL    MW4 8328   2.903   1.512   3.411
 2075SOL     OW 8329   2.669   1.630   3.520
 2075SOL    HW2 8330   2.667   1.719   3.483
 2075SOL    HW3 8331   2.595   1.586   3.479
 2075SOL    MW4 8332   2.659   1.636   3.510
 2076SOL     OW 8333   2.661   1.867   3.403
 2076SOL    HW2 8334   2.600   1.935   3.433
 2076SOL    HW3 8335   2.670   1.882   3.309
 2076SOL    MW4 8336   2.654   1.878   3.395
 2077SOL     OW 8337   2.862   2.043   3.497
 2077SOL    HW2 8338   2.863   2.040   3.593
 2077SOL    HW3 8339   2.798   1.977   3.472
 2077SOL    MW4 8340   2.854   2.034   3.507
 2078SOL     OW 8341   2.895   2.315   3.430
 2078SOL    HW2 8342   2.874   2.229   3.468
 2078SOL    HW3 8343   2.909   2.297   3.337
 2078SOL    MW4 8344   2.894   2.301   3.423
 2079SOL     OW 8345   2.710   2.489   3.523
 2079SOL    HW2 8346   2.687   2.463   3.612
 2079SOL    HW3 8347   2.783   2.432   3.500
 2079SOL    MW4 8348   2.717   2.478   3.532
 2080SOL     OW 8349   2.656   2.718   3.380
 2080SOL    HW2 8350   2.682   2.645   3.437
 2080SOL    HW3 8351   2.579   2.755   3.424
 2080SOL    MW4 8352   2.649   2.713   3.393
 2081SOL     OW 8353   2.893   2.829   3.477
 2081SOL    HW2 8354   2.885   2.828   3.572
 2081SOL    HW3 8355   2.816   2.780   3.447
 2081SOL    MW4 8356   2.882   2.822   3.486
 2082SOL     OW 8357   2.914   3.120   3.368
 2082SOL    HW2 8358   2.906   3.030   3.401
 2082SOL    HW3 8359   2.911   3.111   3.273
 2082SOL    MW4 8360   2.912   3.107   3.360
 2083SOL     OW 8361   2.672   3.210   3.453
 2083SOL    HW2 8362   2.689   3.212   3.547
 2083SOL    HW3 8363   2.757   3.191   3.413
 2083SOL    MW4 8364   2.686   3.208   3.460
 2084SOL     OW 8365   2.697   3.475   3.419
 2084SOL    HW2 8366   2.678   3.382   3.429
 2084SOL    HW3 8367   2.628   3.519   3.469
 2084SOL    MW4 8368   2.685   3.469   3.427
 2085SOL     OW 8369   2.934   3.574   3.531
 2085SOL    HW2 8370   2.947   3.665   3.506
 2085SOL    HW3 8371   2.862   3.544   3.476
 2085SOL    MW4 8372   2.926   3.582   3.521
 2086SOL     OW 8373   2.923   3.843   3.424
 2086SOL    HW2 8374   3.000   3.898   3.434
 2086SOL    HW3 8375   2.849   3.902   3.438
 2086SOL    MW4 8376   2.923   3.858   3.427
 2087SOL     OW 8377   2.703   4.019   3.476
 2087SOL    HW2 8378   2.703   4.032   3.571
 2087SOL    HW3 8379   2.710   4.108   3.441
 2087SOL    MW4 8380   2.704   4.033   3.484
 2088SOL     OW 8381   2.733   4.280   3.390
 2088SOL    HW2 8382   2.806   4.316   3.440
 2088SOL    HW3 8383   2.655   4.312   3.435
 2088SOL    MW4 8384   2.732   4.289   3.403
 2089SOL     OW 8385   2.912   4.403   3.561
 2089SOL    HW2 8386   2.919   4.402   3.656
 2089SOL    HW3 8387   2.909   4.496   3.538
 2089SOL    MW4 8388   2.913   4.415   3.570
 2090SOL     OW 8389   3.359   0.001   3.462
 2090SOL    HW2 8390   3.283   0.056   3.483
 2090SOL    HW3 8391   3.351  -0.016   3.368
 2090SOL    MW4 8392   3.348   0.006   3.452
 2091SOL     OW 8393   3.109   0.129   3.498
 2091SOL    HW2 8394   3.101   0.220   3.468
 2091SOL    HW3 8395   3.022   0.091   3.481
 2091SOL    MW4 8396   3.096   0.136   3.492
 2092SOL     OW 8397   3.124   0.398   3.433
 2092SOL    HW2 8398   3.050   0.453   3.461
 2092SOL    HW3 8399   3.123   0.405   3.337
 2092SOL    MW4 8400   3.114   0.406   3.424
 2093SOL     OW 8401   3.363   0.482   3.516
 2093SOL    HW2 8402   3.383   0.483   3.610
 2093SOL    HW3 8403   3.270   0.460   3.511
 2093SOL    MW4 8404   3.354   0.479   3.528
 2094SOL     OW 8405   3.352   0.766   3.445
 2094SOL    HW2 8406   3.443   0.794   3.452
 2094SOL    HW3 8407   3.353   0.675   3.477
 2094SOL    MW4 8408   3.364   0.757   3.450
 2095SOL     OW 8409   3.149   0.942   3.495
 2095SOL    HW2 8410   3.169   1.030   3.463
 2095SOL    HW3 8411   3.229   0.891   3.476
 2095SOL    MW4 8412   3.162   0.947   3.488
 2096SOL     OW 8413   3.162   1.201   3.426
 2096SOL    HW2 8414   3.223   1.264   3.465
 2096SOL    HW3 8415   3.185   1.198   3.333
 2096SOL    MW4 8416   3.173   1.209   3.419
 2097SOL     OW 8417   3.367   1.331   3.576
 2097SOL    HW2 8418   3.425   1.270   3.531
 2097SOL    HW3 8419   3.366   1.408   3.519
 2097SOL    MW4 8420   3.375   1.333   3.562
 2098SOL     OW 8421   3.367   1.545   3.384
 2098SOL    HW2 8422   3.440   1.598   3.414
 2098SOL    HW3 8423   3.289   1.597   3.404
 2098SOL    MW4 8424   3.366   1.559   3.391
 2099SOL     OW 8425   3.150   1.657   3.471
 2099SOL    HW2 8426   3.127   1.750   3.467
 2099SOL    HW3 8427   3.067   1.611   3.465
 2099SOL    MW4 8428   3.136   1.663   3.470
 2100SOL     OW 8429   3.120   1.916   3.435
 2100SOL    HW2 8430   3.040   1.960   3.462
 2100SOL    HW3 8431   3.122   1.924   3.340
 2100SOL    MW4 8432   3.110   1.923   3.426
 2101SOL     OW 8433   3.353   2.060   3.506
 2101SOL    HW2 8434   3.343   2.152   3.479
 2101SOL    HW3 8435   3.265   2.023   3.497
 2101SOL    MW4 8436   3.340   2.067   3.501
 2102SOL     OW 8437   3.333   2.316   3.394
 2102SOL    HW2 8438   3.414   2.363   3.417
 2102SOL    HW3 8439   3.263   2.368   3.433
 2102SOL    MW4 8440   3.335   2.329   3.402
 2103SOL     OW 8441   3.132   2.468   3.497
 2103SOL    HW2 8442   3.130   2.551   3.449
 2103SOL    HW3 8443   3.049   2.425   3.475
 2103SOL    MW4 8444   3.121   2.473   3.488
 2104SOL     OW 8445   3.149   2.726   3.390
 2104SOL    HW2 8446   3.225   2.761   3.436
 2104SOL    HW3 8447   3.074   2.759   3.441
 2104SOL    MW4 8448   3.149   2.735   3.403
 2105SOL     OW 8449   3.351   2.858   3.532
 2105SOL    HW2 8450   3.421   2.810   3.488
 2105SOL    HW3 8451   3.335   2.934   3.476
 2105SOL    MW4 8452   3.358   2.862   3.519
 2106SOL     OW 8453   3.360   3.097   3.386
 2106SOL    HW2 8454   3.438   3.125   3.435
 2106SOL    HW3 8455   3.289   3.151   3.422
 2106SOL    MW4 8456   3.361   3.108   3.397
 2107SOL     OW 8457   3.124   3.221   3.516
 2107SOL    HW2 8458   3.114   3.314   3.494
 2107SOL    HW3 8459   3.059   3.176   3.463
 2107SOL    MW4 8460   3.114   3.228   3.506
 2108SOL     OW 8461   3.165   3.470   3.424
 2108SOL    HW2 8462   3.081   3.512   3.441
 2108SOL    HW3 8463   3.171   3.465   3.329
 2108SOL    MW4 8464   3.155   3.475   3.414
 2109SOL     OW 8465   3.389   3.606   3.500
 2109SOL    HW2 8466   3.379   3.695   3.468
 2109SOL    HW3 8467   3.306   3.563   3.480
 2109SOL    MW4 8468   3.377   3.612   3.493
 2110SOL     OW 8469   3.365   3.870   3.389
 2110SOL    HW2 8470   3.439   3.919   3.425
 2110SOL    HW3 8471   3.288   3.912   3.427
 2110SOL    MW4 8472   3.365   3.882   3.399
 2111SOL     OW 8473   3.131   4.013   3.485
 2111SOL    HW2 8474   3.127   4.017   3.581
 2111SOL    HW3 8475   3.125   4.104   3.457
 2111SOL    MW4 8476   3.130   4.026   3.494
 2112SOL     OW 8477   3.128   4.284   3.412
 2112SOL    HW2 8478   3.200   4.341   3.439
 2112SOL    HW3 8479   3.050   4.322   3.453
 2112SOL    MW4 8480   3.127   4.296   3.421
 2113SOL     OW 8481   3.353   4.396   3.512
 2113SOL    HW2 8482   3.346   4.386   3.607
 2113SOL    HW3 8483   3.362   4.490   3.498
 2113SOL    MW4 8484   3.354   4.407   3.523
 2114SOL     OW 8485   3.820   4.663   3.398
 2114SOL    HW2 8486   3.745   4.713   3.430
 2114SOL    HW3 8487   3.808   4.660   3.303
 2114SOL    MW4 8488   3.809   4.670   3.389
 2115SOL     OW 8489   3.606   0.127   3.495
 2115SOL    HW2 8490   3.602   0.217   3.464
 2115SOL    HW3 8491   3.522   0.089   3.471
 2115SOL    MW4 8492   3.595   0.134   3.488
 2116SOL     OW 8493   3.579   0.366   3.384
 2116SOL    HW2 8494   3.661   0.409   3.409
 2116SOL    HW3 8495   3.510   0.418   3.425
 2116SOL    MW4 8496   3.581   0.378   3.392
 2117SOL     OW 8497   3.789   0.497   3.486
 2117SOL    HW2 8498   3.795   0.515   3.580
 2117SOL    HW3 8499   3.868   0.447   3.467
 2117SOL    MW4 8500   3.800   0.492   3.496
 2118SOL     OW 8501   3.814   0.761   3.382
 2118SOL    HW2 8502   3.894   0.794   3.423
 2118SOL    HW3 8503   3.799   0.676   3.424
 2118SOL    MW4 8504   3.822   0.754   3.393
 2119SOL     OW 8505   3.597   0.872   3.489
 2119SOL    HW2 8506   3.612   0.876   3.584
 2119SOL    HW3 8507   3.677   0.834   3.454
 2119SOL    MW4 8508   3.609   0.868   3.497
 2120SOL     OW 8509   3.520   1.129   3.435
 2120SOL    HW2 8510   3.533   1.039   3.465
 2120SOL    HW3 8511   3.530   1.125   3.340
 2120SOL    MW4 8512   3.523   1.117   3.426
 2121SOL     OW 8513   3.765   1.250   3.494
 2121SOL    HW2 8514   3.770   1.253   3.589
 2121SOL    HW3 8515   3.695   1.188   3.475
 2121SOL    MW4 8516   3.756   1.242   3.504
 2122SOL     OW 8517   3.757   1.516   3.393
 2122SOL    HW2 8518   3.846   1.545   3.414
 2122SOL    HW3 8519   3.749   1.430   3.434
 2122SOL    MW4 8520   3.768   1.509   3.401
 2123SOL     OW 8521   3.554   1.686   3.510
 2123SOL    HW2 8522   3.552   1.767   3.460
 2123SOL    HW3 8523   3.632   1.640   3.480
 2123SOL    MW4 8524   3.564   1.691   3.500
 2124SOL     OW 8525   3.564   1.937   3.368
 2124SOL    HW2 8526   3.630   1.971   3.429
 2124SOL    HW3 8527   3.481   1.968   3.404
 2124SOL    MW4 8528   3.562   1.946   3.381
 2125SOL     OW 8529   3.782   2.072   3.528
 2125SOL    HW2 8530   3.799   2.070   3.622
 2125SOL    HW3 8531   3.850   2.016   3.491
 2125SOL    MW4 8532   3.793   2.064   3.536
 2126SOL     OW 8533   3.779   2.336   3.421
 2126SOL    HW2 8534   3.866   2.369   3.443
 2126SOL    HW3 8535   3.768   2.258   3.475
 2126SOL    MW4 8536   3.789   2.330   3.431
 2127SOL     OW 8537   3.543   2.464   3.500
 2127SOL    HW2 8538   3.548   2.552   3.463
 2127SOL    HW3 8539   3.629   2.426   3.485
 2127SOL    MW4 8540   3.555   2.470   3.493
 2128SOL     OW 8541   3.575   2.718   3.397
 2128SOL    HW2 8542   3.653   2.753   3.441
 2128SOL    HW3 8543   3.587   2.742   3.305
 2128SOL    MW4 8544   3.587   2.726   3.390
 2129SOL     OW 8545   3.773   2.851   3.520
 2129SOL    HW2 8546   3.813   2.859   3.607
 2129SOL    HW3 8547   3.771   2.940   3.486
 2129SOL    MW4 8548   3.778   2.864   3.527
 2130SOL     OW 8549   3.810   3.152   3.389
 2130SOL    HW2 8550   3.892   3.193   3.414
 2130SOL    HW3 8551   3.822   3.124   3.298
 2130SOL    MW4 8552   3.822   3.154   3.381
 2131SOL     OW 8553   3.576   3.212   3.523
 2131SOL    HW2 8554   3.557   3.300   3.491
 2131SOL    HW3 8555   3.662   3.191   3.486
 2131SOL    MW4 8556   3.585   3.221   3.514
 2132SOL     OW 8557   3.597   3.458   3.399
 2132SOL    HW2 8558   3.526   3.513   3.433
 2132SOL    HW3 8559   3.580   3.452   3.305
 2132SOL    MW4 8560   3.585   3.465   3.391
 2133SOL     OW 8561   3.829   3.607   3.452
 2133SOL    HW2 8562   3.829   3.621   3.546
 2133SOL    HW3 8563   3.750   3.554   3.436
 2133SOL    MW4 8564   3.818   3.602   3.462
 2134SOL     OW 8565   3.825   3.878   3.332
 2134SOL    HW2 8566   3.750   3.914   3.380
 2134SOL    HW3 8567   3.835   3.789   3.366
 2134SOL    MW4 8568   3.817   3.871   3.343
 2135SOL     OW 8569   3.598   4.017   3.454
 2135SOL    HW2 8570   3.600   4.007   3.549
 2135SOL    HW3 8571   3.610   4.111   3.439
 2135SOL    MW4 8572   3.600   4.028   3.464
 2136SOL     OW 8573   3.579   4.284   3.368
 2136SOL    HW2 8574   3.498   4.324   3.401
 2136SOL    HW3 8575   3.562   4.266   3.276
 2136SOL    MW4 8576   3.566   4.287   3.360
 2137SOL     OW 8577   3.811   4.390   3.478
 2137SOL    HW2 8578   3.720   4.362   3.465
 2137SOL    HW3 8579   3.810   4.484   3.460
 2137SOL    MW4 8580   3.799   4.399   3.474
 2138SOL     OW 8581   4.264   4.611   3.371
 2138SOL    HW2 8582   4.255   4.533   3.426
 2138SOL    HW3 8583   4.325   4.667   3.420
 2138SOL    MW4 8584   4.271   4.608   3.385
 2139SOL     OW 8585   4.058   0.106   3.484
 2139SOL    HW2 8586   4.125   0.045   3.453
 2139SOL    HW3 8587   3.976   0.059   3.470
 2139SOL    MW4 8588   4.056   0.091   3.478
 2140SOL     OW 8589   4.035   0.379   3.423
 2140SOL    HW2 8590   4.035   0.286   3.449
 2140SOL    HW3 8591   4.030   0.376   3.328
 2140SOL    MW4 8592   4.034   0.366   3.414
 2141SOL     OW 8593   4.275   0.506   3.528
 2141SOL    HW2 8594   4.274   0.595   3.493
 2141SOL    HW3 8595   4.192   0.468   3.500
 2141SOL    MW4 8596   4.264   0.513   3.519
 2142SOL     OW 8597   4.264   0.782   3.445
 2142SOL    HW2 8598   4.340   0.836   3.469
 2142SOL    HW3 8599   4.272   0.770   3.350
 2142SOL    MW4 8600   4.275   0.788   3.436
 2143SOL     OW 8601   4.012   0.897   3.504
 2143SOL    HW2 8602   4.032   0.991   3.495
 2143SOL    HW3 8603   4.092   0.853   3.474
 2143SOL    MW4 8604   4.025   0.904   3.499
 2144SOL     OW 8605   4.031   1.164   3.433
 2144SOL    HW2 8606   4.096   1.217   3.479
 2144SOL    HW3 8607   3.947   1.201   3.460
 2144SOL    MW4 8608   4.028   1.176   3.442
 2145SOL     OW 8609   4.263   1.274   3.542
 2145SOL    HW2 8610   4.262   1.360   3.499
 2145SOL    HW3 8611   4.338   1.230   3.504
 2145SOL    MW4 8612   4.272   1.280   3.531
 2146SOL     OW 8613   4.260   1.528   3.413
 2146SOL    HW2 8614   4.174   1.563   3.437
 2146SOL    HW3 8615   4.260   1.528   3.318
 2146SOL    MW4 8616   4.249   1.532   3.404
 2147SOL     OW 8617   4.028   1.642   3.482
 2147SOL    HW2 8618   4.041   1.648   3.577
 2147SOL    HW3 8619   4.011   1.732   3.455
 2147SOL    MW4 8620   4.027   1.655   3.491
 2148SOL     OW 8621   4.004   1.930   3.413
 2148SOL    HW2 8622   4.087   1.966   3.442
 2148SOL    HW3 8623   4.014   1.919   3.318
 2148SOL    MW4 8624   4.016   1.933   3.404
 2149SOL     OW 8625   4.240   2.083   3.492
 2149SOL    HW2 8626   4.231   2.168   3.450
 2149SOL    HW3 8627   4.320   2.046   3.455
 2149SOL    MW4 8628   4.249   2.089   3.481
 2150SOL     OW 8629   4.242   2.340   3.372
 2150SOL    HW2 8630   4.168   2.389   3.407
 2150SOL    HW3 8631   4.221   2.326   3.280
 2150SOL    MW4 8632   4.229   2.344   3.365
 2151SOL     OW 8633   4.020   2.447   3.505
 2151SOL    HW2 8634   4.014   2.432   3.600
 2151SOL    HW3 8635   3.999   2.540   3.494
 2151SOL    MW4 8636   4.016   2.457   3.516
 2152SOL     OW 8637   3.982   2.717   3.403
 2152SOL    HW2 8638   4.065   2.760   3.425
 2152SOL    HW3 8639   3.917   2.764   3.455
 2152SOL    MW4 8640   3.985   2.729   3.413
 2153SOL     OW 8641   4.239   2.833   3.459
 2153SOL    HW2 8642   4.256   2.841   3.552
 2153SOL    HW3 8643   4.305   2.771   3.427
 2153SOL    MW4 8644   4.250   2.826   3.467
 2154SOL     OW 8645   4.261   3.112   3.390
 2154SOL    HW2 8646   4.259   3.020   3.418
 2154SOL    HW3 8647   4.256   3.107   3.294
 2154SOL    MW4 8648   4.260   3.099   3.381
 2155SOL     OW 8649   4.045   3.248   3.505
 2155SOL    HW2 8650   4.041   3.335   3.466
 2155SOL    HW3 8651   4.117   3.204   3.460
 2155SOL    MW4 8652   4.054   3.253   3.494
 2156SOL     OW 8653   4.070   3.481   3.382
 2156SOL    HW2 8654   4.150   3.526   3.409
 2156SOL    HW3 8655   4.000   3.541   3.408
 2156SOL    MW4 8656   4.072   3.495   3.389
 2157SOL     OW 8657   4.284   3.663   3.490
 2157SOL    HW2 8658   4.286   3.670   3.586
 2157SOL    HW3 8659   4.281   3.754   3.460
 2157SOL    MW4 8660   4.284   3.676   3.499
 2158SOL     OW 8661   4.241   3.914   3.341
 2158SOL    HW2 8662   4.318   3.966   3.364
 2158SOL    HW3 8663   4.255   3.887   3.251
 2158SOL    MW4 8664   4.253   3.917   3.332
 2159SOL     OW 8665   4.008   3.997   3.500
 2159SOL    HW2 8666   4.096   3.982   3.464
 2159SOL    HW3 8667   3.950   3.949   3.442
 2159SOL    MW4 8668   4.012   3.989   3.488
 2160SOL     OW 8669   4.025   4.247   3.381
 2160SOL    HW2 8670   4.023   4.161   3.424
 2160SOL    HW3 8671   3.944   4.289   3.408
 2160SOL    MW4 8672   4.014   4.241   3.390
 2161SOL     OW 8673   4.271   4.369   3.500
 2161SOL    HW2 8674   4.264   4.377   3.595
 2161SOL    HW3 8675   4.183   4.344   3.472
 2161SOL    MW4 8676   4.258   4.367   3.509
 2162SOL     OW 8677   0.148   4.621   3.867
 2162SOL    HW2 8678   0.155   4.636   3.961
 2162SOL    HW3 8679   0.071   4.672   3.840
 2162SOL    MW4 8680   0.139   4.630   3.876
 2163SOL     OW 8681   4.440   0.115   3.770
 2163SOL    HW2 8682   4.454   0.207   3.795
 2163SOL    HW3 8683   4.451   0.115   3.675
 2163SOL    MW4 8684   4.443   0.127   3.761
 2164SOL     OW 8685   4.464   0.352   3.907
 2164SOL    HW2 8686   4.386   0.398   3.876
 2164SOL    HW3 8687   4.537   0.394   3.863
 2164SOL    MW4 8688   4.463   0.363   3.897
 2165SOL     OW 8689   0.187   0.466   3.789
 2165SOL    HW2 8690   0.191   0.558   3.815
 2165SOL    HW3 8691   0.204   0.467   3.694
 2165SOL    MW4 8692   0.190   0.478   3.780
 2166SOL     OW 8693   0.183   0.742   3.865
 2166SOL    HW2 8694   0.190   0.730   3.960
 2166SOL    HW3 8695   0.102   0.792   3.853
 2166SOL    MW4 8696   0.173   0.747   3.876
 2167SOL     OW 8697   4.452   0.892   3.834
 2167SOL    HW2 8698   4.377   0.847   3.871
 2167SOL    HW3 8699   4.455   0.976   3.879
 2167SOL    MW4 8700   4.443   0.897   3.845
 2168SOL     OW 8701   4.470   1.166   3.959
 2168SOL    HW2 8702   4.400   1.208   3.909
 2168SOL    HW3 8703   4.549   1.180   3.906
 2168SOL    MW4 8704   4.471   1.173   3.945
 2169SOL     OW 8705   0.176   1.224   3.785
 2169SOL    HW2 8706   0.164   1.318   3.794
 2169SOL    HW3 8707   0.179   1.208   3.691
 2169SOL    MW4 8708   0.175   1.234   3.774
 2170SOL     OW 8709   0.163   1.485   3.858
 2170SOL    HW2 8710   0.162   1.479   3.954
 2170SOL    HW3 8711   0.114   1.564   3.838
 2170SOL    MW4 8712   0.156   1.494   3.868
 2171SOL     OW 8713   4.467   1.685   3.784
 2171SOL    HW2 8714   4.481   1.774   3.817
 2171SOL    HW3 8715   4.486   1.691   3.691
 2171SOL    MW4 8716   4.471   1.698   3.776
 2172SOL     OW 8717   0.003   1.934   3.894
 2172SOL    HW2 8718  -0.010   1.922   3.988
 2172SOL    HW3 8719  -0.080   1.972   3.864
 2172SOL    MW4 8720  -0.010   1.938   3.902
 2173SOL     OW 8721   0.218   2.058   3.762
 2173SOL    HW2 8722   0.223   2.153   3.773
 2173SOL    HW3 8723   0.156   2.029   3.828
 2173SOL    MW4 8724   0.211   2.066   3.772
 2174SOL     OW 8725   0.206   2.334   3.814
 2174SOL    HW2 8726   0.209   2.332   3.910
 2174SOL    HW3 8727   0.123   2.378   3.794
 2174SOL    MW4 8728   0.195   2.340   3.824
 2175SOL     OW 8729   4.453   2.464   3.754
 2175SOL    HW2 8730   4.369   2.427   3.781
 2175SOL    HW3 8731   4.455   2.551   3.795
 2175SOL    MW4 8732   4.442   2.471   3.763
 2176SOL     OW 8733   4.481   2.711   3.859
 2176SOL    HW2 8734   4.482   2.702   3.954
 2176SOL    HW3 8735   4.570   2.740   3.838
 2176SOL    MW4 8736   4.493   2.714   3.869
 2177SOL     OW 8737   0.230   2.851   3.785
 2177SOL    HW2 8738   0.307   2.796   3.801
 2177SOL    HW3 8739   0.210   2.836   3.692
 2177SOL    MW4 8740   0.238   2.842   3.775
 2178SOL     OW 8741   0.226   3.098   3.926
 2178SOL    HW2 8742   0.176   3.075   4.004
 2178SOL    HW3 8743   0.242   3.015   3.882
 2178SOL    MW4 8744   0.222   3.084   3.930
 2179SOL     OW 8745   0.044   3.216   3.778
 2179SOL    HW2 8746   0.111   3.174   3.831
 2179SOL    HW3 8747   0.062   3.187   3.689
 2179SOL    MW4 8748   0.055   3.207   3.773
 2180SOL     OW 8749   4.483   3.461   3.896
 2180SOL    HW2 8750   4.561   3.515   3.878
 2180SOL    HW3 8751   4.505   3.376   3.858
 2180SOL    MW4 8752   4.497   3.457   3.888
 2181SOL     OW 8753   0.226   3.602   3.798
 2181SOL    HW2 8754   0.305   3.565   3.838
 2181SOL    HW3 8755   0.213   3.685   3.842
 2181SOL    MW4 8756   0.235   3.608   3.809
 2182SOL     OW 8757   0.210   3.867   3.883
 2182SOL    HW2 8758   0.202   3.883   3.977
 2182SOL    HW3 8759   0.294   3.905   3.859
 2182SOL    MW4 8760   0.220   3.874   3.892
 2183SOL     OW 8761   4.480   3.995   3.750
 2183SOL    HW2 8762   4.407   3.962   3.802
 2183SOL    HW3 8763   4.557   3.946   3.782
 2183SOL    MW4 8764   4.481   3.984   3.761
 2184SOL     OW 8765   4.461   4.251   3.879
 2184SOL    HW2 8766   4.539   4.299   3.851
 2184SOL    HW3 8767   4.473   4.163   3.842
 2184SOL    MW4 8768   4.473   4.245   3.871
 2185SOL     OW 8769   0.203   4.366   3.782
 2185SOL    HW2 8770   0.275   4.329   3.832
 2185SOL    HW3 8771   0.198   4.457   3.810
 2185SOL    MW4 8772   0.212   4.373   3.792
 2186SOL     OW 8773   0.656   0.003   3.883
 2186SOL    HW2 8774   0.640  -0.087   3.853
 2186SOL    HW3 8775   0.572   0.048   3.869
 2186SOL    MW4 8776   0.643  -0.003   3.877
 2187SOL     OW 8777   0.403   0.112   3.794
 2187SOL    HW2 8778   0.407   0.200   3.833
 2187SOL    HW3 8779   0.316   0.079   3.817
 2187SOL    MW4 8780   0.392   0.119   3.802
 2188SOL     OW 8781   0.437   0.365   3.899
 2188SOL    HW2 8782   0.505   0.415   3.855
 2188SOL    HW3 8783   0.355   0.395   3.859
 2188SOL    MW4 8784   0.435   0.375   3.888
 2189SOL     OW 8785   0.641   0.469   3.762
 2189SOL    HW2 8786   0.724   0.434   3.794
 2189SOL    HW3 8787   0.649   0.564   3.772
 2189SOL    MW4 8788   0.653   0.477   3.768
 2190SOL     OW 8789   0.654   0.732   3.863
 2190SOL    HW2 8790   0.722   0.790   3.829
 2190SOL    HW3 8791   0.571   0.774   3.837
 2190SOL    MW4 8792   0.652   0.745   3.855
 2191SOL     OW 8793   0.404   0.874   3.780
 2191SOL    HW2 8794   0.415   0.956   3.828
 2191SOL    HW3 8795   0.322   0.837   3.814
 2191SOL    MW4 8796   0.395   0.880   3.791
 2192SOL     OW 8797   0.417   1.130   3.890
 2192SOL    HW2 8798   0.486   1.186   3.855
 2192SOL    HW3 8799   0.336   1.168   3.856
 2192SOL    MW4 8800   0.415   1.143   3.881
 2193SOL     OW 8801   0.630   1.257   3.788
 2193SOL    HW2 8802   0.713   1.232   3.828
 2193SOL    HW3 8803   0.648   1.260   3.694
 2193SOL    MW4 8804   0.643   1.254   3.781
 2194SOL     OW 8805   0.646   1.523   3.851
 2194SOL    HW2 8806   0.740   1.523   3.835
 2194SOL    HW3 8807   0.618   1.435   3.826
 2194SOL    MW4 8808   0.655   1.511   3.846
 2195SOL     OW 8809   0.397   1.656   3.791
 2195SOL    HW2 8810   0.477   1.617   3.826
 2195SOL    HW3 8811   0.326   1.604   3.829
 2195SOL    MW4 8812   0.398   1.644   3.800
 2196SOL     OW 8813   0.427   1.916   3.883
 2196SOL    HW2 8814   0.422   1.824   3.858
 2196SOL    HW3 8815   0.350   1.956   3.842
 2196SOL    MW4 8816   0.416   1.909   3.874
 2197SOL     OW 8817   0.675   1.981   3.780
 2197SOL    HW2 8818   0.672   2.076   3.797
 2197SOL    HW3 8819   0.596   1.947   3.822
 2197SOL    MW4 8820   0.664   1.989   3.788
 2198SOL     OW 8821   0.690   2.254   3.816
 2198SOL    HW2 8822   0.773   2.300   3.802
 2198SOL    HW3 8823   0.623   2.316   3.789
 2198SOL    MW4 8824   0.692   2.268   3.811
 2199SOL     OW 8825   0.472   2.433   3.760
 2199SOL    HW2 8826   0.381   2.407   3.770
 2199SOL    HW3 8827   0.489   2.427   3.666
 2199SOL    MW4 8828   0.462   2.429   3.749
 2200SOL     OW 8829   0.449   2.683   3.876
 2200SOL    HW2 8830   0.525   2.717   3.830
 2200SOL    HW3 8831   0.446   2.590   3.853
 2200SOL    MW4 8832   0.458   2.676   3.867
 2201SOL     OW 8833   0.664   2.791   3.746
 2201SOL    HW2 8834   0.748   2.746   3.757
 2201SOL    HW3 8835   0.651   2.795   3.651
 2201SOL    MW4 8836   0.673   2.786   3.735
 2202SOL     OW 8837   0.670   3.050   3.855
 2202SOL    HW2 8838   0.665   3.033   3.949
 2202SOL    HW3 8839   0.660   2.964   3.815
 2202SOL    MW4 8840   0.668   3.037   3.862
 2203SOL     OW 8841   0.439   3.238   3.797
 2203SOL    HW2 8842   0.508   3.173   3.805
 2203SOL    HW3 8843   0.367   3.204   3.849
 2203SOL    MW4 8844   0.439   3.225   3.805
 2204SOL     OW 8845   0.464   3.483   3.907
 2204SOL    HW2 8846   0.543   3.519   3.867
 2204SOL    HW3 8847   0.453   3.397   3.866
 2204SOL    MW4 8848   0.473   3.476   3.896
 2205SOL     OW 8849   0.697   3.594   3.815
 2205SOL    HW2 8850   0.674   3.681   3.847
 2205SOL    HW3 8851   0.699   3.604   3.719
 2205SOL    MW4 8852   0.694   3.607   3.806
 2206SOL     OW 8853   0.600   3.850   3.866
 2206SOL    HW2 8854   0.589   3.886   3.954
 2206SOL    HW3 8855   0.684   3.885   3.837
 2206SOL    MW4 8856   0.610   3.859   3.874
 2207SOL     OW 8857   0.425   4.053   3.795
 2207SOL    HW2 8858   0.502   3.999   3.812
 2207SOL    HW3 8859   0.416   4.053   3.700
 2207SOL    MW4 8860   0.434   4.046   3.785
 2208SOL     OW 8861   0.410   4.291   3.931
 2208SOL    HW2 8862   0.476   4.337   3.880
 2208SOL    HW3 8863   0.415   4.200   3.901
 2208SOL    MW4 8864   0.419   4.285   3.920
 2209SOL     OW 8865   0.637   4.412   3.782
 2209SOL    HW2 8866   0.705   4.347   3.799
 2209SOL    HW3 8867   0.638   4.424   3.687
 2209SOL    MW4 8868   0.646   4.405   3.772
 2210SOL     OW 8869   1.119   4.642   3.838
 2210SOL    HW2 8870   1.200   4.675   3.800
 2210SOL    HW3 8871   1.111   4.552   3.804
 2210SOL    MW4 8872   1.128   4.634   3.828
 2211SOL     OW 8873   0.873   0.099   3.748
 2211SOL    HW2 8874   0.942   0.045   3.786
 2211SOL    HW3 8875   0.795   0.079   3.800
 2211SOL    MW4 8876   0.872   0.090   3.760
 2212SOL     OW 8877   0.868   0.356   3.863
 2212SOL    HW2 8878   0.883   0.348   3.957
 2212SOL    HW3 8879   0.863   0.266   3.831
 2212SOL    MW4 8880   0.869   0.343   3.871
 2213SOL     OW 8881   1.072   0.509   3.762
 2213SOL    HW2 8882   1.149   0.471   3.806
 2213SOL    HW3 8883   0.998   0.459   3.796
 2213SOL    MW4 8884   1.073   0.497   3.772
 2214SOL     OW 8885   1.101   0.751   3.867
 2214SOL    HW2 8886   1.100   0.742   3.963
 2214SOL    HW3 8887   1.081   0.663   3.835
 2214SOL    MW4 8888   1.098   0.738   3.876
 2215SOL     OW 8889   0.887   0.880   3.787
 2215SOL    HW2 8890   0.967   0.839   3.818
 2215SOL    HW3 8891   0.888   0.866   3.692
 2215SOL    MW4 8892   0.897   0.873   3.778
 2216SOL     OW 8893   0.911   1.161   3.862
 2216SOL    HW2 8894   0.908   1.157   3.958
 2216SOL    HW3 8895   0.886   1.073   3.833
 2216SOL    MW4 8896   0.907   1.149   3.871
 2217SOL     OW 8897   1.136   1.273   3.748
 2217SOL    HW2 8898   1.156   1.359   3.786
 2217SOL    HW3 8899   1.053   1.248   3.788
 2217SOL    MW4 8900   1.128   1.281   3.759
 2218SOL     OW 8901   1.161   1.520   3.859
 2218SOL    HW2 8902   1.166   1.508   3.953
 2218SOL    HW3 8903   1.235   1.577   3.838
 2218SOL    MW4 8904   1.171   1.525   3.868
 2219SOL     OW 8905   0.904   1.597   3.781
 2219SOL    HW2 8906   0.987   1.557   3.804
 2219SOL    HW3 8907   0.915   1.627   3.691
 2219SOL    MW4 8908   0.916   1.596   3.772
 2220SOL     OW 8909   0.916   1.881   3.868
 2220SOL    HW2 8910   0.914   1.790   3.838
 2220SOL    HW3 8911   0.836   1.920   3.833
 2220SOL    MW4 8912   0.905   1.874   3.859
 2221SOL     OW 8913   1.142   2.058   3.813
 2221SOL    HW2 8914   1.075   1.994   3.834
 2221SOL    HW3 8915   1.151   2.053   3.718
 2221SOL    MW4 8916   1.134   2.049   3.803
 2222SOL     OW 8917   1.173   2.325   3.830
 2222SOL    HW2 8918   1.166   2.349   3.923
 2222SOL    HW3 8919   1.164   2.230   3.829
 2222SOL    MW4 8920   1.171   2.316   3.843
 2223SOL     OW 8921   0.922   2.449   3.770
 2223SOL    HW2 8922   0.923   2.532   3.819
 2223SOL    HW3 8923   1.012   2.416   3.779
 2223SOL    MW4 8924   0.934   2.456   3.778
 2224SOL     OW 8925   0.914   2.713   3.850
 2224SOL    HW2 8926   0.892   2.731   3.941
 2224SOL    HW3 8927   0.973   2.784   3.825
 2224SOL    MW4 8928   0.919   2.725   3.859
 2225SOL     OW 8929   1.109   2.878   3.753
 2225SOL    HW2 8930   1.174   2.829   3.804
 2225SOL    HW3 8931   1.115   2.967   3.787
 2225SOL    MW4 8932   1.118   2.883   3.764
 2226SOL     OW 8933   1.139   3.119   3.878
 2226SOL    HW2 8934   1.217   3.153   3.833
 2226SOL    HW3 8935   1.066   3.167   3.838
 2226SOL    MW4 8936   1.140   3.130   3.866
 2227SOL     OW 8937   0.885   3.236   3.812
 2227SOL    HW2 8938   0.822   3.171   3.843
 2227SOL    HW3 8939   0.885   3.227   3.716
 2227SOL    MW4 8940   0.877   3.227   3.803
 2228SOL     OW 8941   0.909   3.475   3.941
 2228SOL    HW2 8942   0.899   3.388   3.905
 2228SOL    HW3 8943   0.841   3.528   3.899
 2228SOL    MW4 8944   0.899   3.471   3.931
 2229SOL     OW 8945   1.095   3.573   3.789
 2229SOL    HW2 8946   1.093   3.667   3.809
 2229SOL    HW3 8947   1.034   3.534   3.852
 2229SOL    MW4 8948   1.087   3.580   3.800
 2230SOL     OW 8949   1.078   3.836   3.883
 2230SOL    HW2 8950   1.106   3.814   3.972
 2230SOL    HW3 8951   1.143   3.900   3.853
 2230SOL    MW4 8952   1.091   3.842   3.891
 2231SOL     OW 8953   0.848   3.971   3.787
 2231SOL    HW2 8954   0.922   3.926   3.827
 2231SOL    HW3 8955   0.875   3.987   3.696
 2231SOL    MW4 8956   0.861   3.968   3.780
 2232SOL     OW 8957   0.860   4.244   3.879
 2232SOL    HW2 8958   0.858   4.256   3.974
 2232SOL    HW3 8959   0.867   4.150   3.867
 2232SOL    MW4 8960   0.861   4.234   3.890
 2233SOL     OW 8961   1.092   4.370   3.770
 2233SOL    HW2 8962   1.012   4.321   3.789
 2233SOL    HW3 8963   1.097   4.369   3.674
 2233SOL    MW4 8964   1.082   4.363   3.760
 2234SOL     OW 8965   1.555   4.618   3.846
 2234SOL    HW2 8966   1.545   4.611   3.941
 2234SOL    HW3 8967   1.543   4.528   3.814
 2234SOL    MW4 8968   1.552   4.605   3.854
 2235SOL     OW 8969   1.341   0.129   3.736
 2235SOL    HW2 8970   1.310   0.202   3.789
 2235SOL    HW3 8971   1.408   0.087   3.789
 2235SOL    MW4 8972   1.345   0.133   3.750
 2236SOL     OW 8973   1.308   0.400   3.860
 2236SOL    HW2 8974   1.324   0.383   3.953
 2236SOL    HW3 8975   1.376   0.462   3.835
 2236SOL    MW4 8976   1.319   0.406   3.869
 2237SOL     OW 8977   1.531   0.557   3.754
 2237SOL    HW2 8978   1.603   0.512   3.798
 2237SOL    HW3 8979   1.532   0.645   3.790
 2237SOL    MW4 8980   1.540   0.562   3.765
 2238SOL     OW 8981   1.543   0.795   3.892
 2238SOL    HW2 8982   1.612   0.848   3.852
 2238SOL    HW3 8983   1.462   0.824   3.850
 2238SOL    MW4 8984   1.542   0.806   3.881
 2239SOL     OW 8985   1.321   0.912   3.776
 2239SOL    HW2 8986   1.320   0.991   3.831
 2239SOL    HW3 8987   1.244   0.862   3.805
 2239SOL    MW4 8988   1.310   0.916   3.787
 2240SOL     OW 8989   1.316   1.155   3.898
 2240SOL    HW2 8990   1.396   1.200   3.870
 2240SOL    HW3 8991   1.245   1.200   3.854
 2240SOL    MW4 8992   1.317   1.166   3.889
 2241SOL     OW 8993   1.552   1.264   3.785
 2241SOL    HW2 8994   1.635   1.219   3.802
 2241SOL    HW3 8995   1.572   1.357   3.799
 2241SOL    MW4 8996   1.566   1.271   3.789
 2242SOL     OW 8997   1.597   1.518   3.877
 2242SOL    HW2 8998   1.579   1.528   3.970
 2242SOL    HW3 8999   1.686   1.550   3.865
 2242SOL    MW4 9000   1.606   1.523   3.888
 2243SOL     OW 9001   1.383   1.674   3.780
 2243SOL    HW2 9002   1.375   1.763   3.815
 2243SOL    HW3 9003   1.468   1.644   3.811
 2243SOL    MW4 9004   1.393   1.682   3.789
 2244SOL     OW 9005   1.363   1.914   3.905
 2244SOL    HW2 9006   1.360   1.906   4.000
 2244SOL    HW3 9007   1.277   1.947   3.880
 2244SOL    MW4 9008   1.352   1.917   3.914
 2245SOL     OW 9009   1.596   2.056   3.791
 2245SOL    HW2 9010   1.527   2.006   3.834
 2245SOL    HW3 9011   1.579   2.043   3.697
 2245SOL    MW4 9012   1.584   2.047   3.784
 2246SOL     OW 9013   1.602   2.332   3.851
 2246SOL    HW2 9014   1.671   2.369   3.796
 2246SOL    HW3 9015   1.614   2.238   3.844
 2246SOL    MW4 9016   1.612   2.325   3.843
 2247SOL     OW 9017   1.398   2.471   3.753
 2247SOL    HW2 9018   1.464   2.413   3.791
 2247SOL    HW3 9019   1.314   2.430   3.775
 2247SOL    MW4 9020   1.395   2.458   3.761
 2248SOL     OW 9021   1.327   2.733   3.843
 2248SOL    HW2 9022   1.343   2.729   3.938
 2248SOL    HW3 9023   1.365   2.653   3.809
 2248SOL    MW4 9024   1.334   2.722   3.851
 2249SOL     OW 9025   1.570   2.847   3.766
 2249SOL    HW2 9026   1.491   2.804   3.796
 2249SOL    HW3 9027   1.554   2.866   3.673
 2249SOL    MW4 9028   1.558   2.844   3.757
 2250SOL     OW 9029   1.587   3.085   3.926
 2250SOL    HW2 9030   1.560   3.085   4.018
 2250SOL    HW3 9031   1.566   2.997   3.895
 2250SOL    MW4 9032   1.581   3.074   3.934
 2251SOL     OW 9033   1.365   3.232   3.797
 2251SOL    HW2 9034   1.361   3.317   3.841
 2251SOL    HW3 9035   1.448   3.194   3.826
 2251SOL    MW4 9036   1.376   3.238   3.807
 2252SOL     OW 9037   1.335   3.476   3.918
 2252SOL    HW2 9038   1.402   3.534   3.882
 2252SOL    HW3 9039   1.256   3.498   3.869
 2252SOL    MW4 9040   1.334   3.487   3.907
 2253SOL     OW 9041   1.553   3.601   3.748
 2253SOL    HW2 9042   1.636   3.565   3.778
 2253SOL    HW3 9043   1.546   3.685   3.793
 2253SOL    MW4 9044   1.563   3.608   3.758
 2254SOL     OW 9045   1.543   3.860   3.858
 2254SOL    HW2 9046   1.551   3.864   3.953
 2254SOL    HW3 9047   1.463   3.908   3.838
 2254SOL    MW4 9048   1.534   3.867   3.868
 2255SOL     OW 9049   1.295   3.964   3.767
 2255SOL    HW2 9050   1.289   4.052   3.806
 2255SOL    HW3 9051   1.289   3.979   3.673
 2255SOL    MW4 9052   1.294   3.978   3.760
 2256SOL     OW 9053   1.317   4.231   3.848
 2256SOL    HW2 9054   1.393   4.275   3.809
 2256SOL    HW3 9055   1.243   4.286   3.823
 2256SOL    MW4 9056   1.317   4.244   3.839
 2257SOL     OW 9057   1.534   4.363   3.750
 2257SOL    HW2 9058   1.620   4.340   3.785
 2257SOL    HW3 9059   1.548   4.375   3.656
 2257SOL    MW4 9060   1.547   4.362   3.742
 2258SOL     OW 9061   1.968   4.634   3.871
 2258SOL    HW2 9062   2.053   4.669   3.844
 2258SOL    HW3 9063   1.956   4.555   3.818
 2258SOL    MW4 9064   1.978   4.628   3.861
 2259SOL     OW 9065   1.756   0.157   3.821
 2259SOL    HW2 9066   1.831   0.106   3.850
 2259SOL    HW3 9067   1.680   0.103   3.842
 2259SOL    MW4 9068   1.756   0.143   3.828
 2260SOL     OW 9069   1.722   0.419   3.899
 2260SOL    HW2 9070   1.725   0.431   3.994
 2260SOL    HW3 9071   1.718   0.324   3.887
 2260SOL    MW4 9072   1.722   0.408   3.910
 2261SOL     OW 9073   1.993   0.459   3.831
 2261SOL    HW2 9074   1.901   0.440   3.849
 2261SOL    HW3 9075   1.999   0.457   3.735
 2261SOL    MW4 9076   1.981   0.456   3.820
 2262SOL     OW 9077   1.974   0.736   3.843
 2262SOL    HW2 9078   1.983   0.754   3.937
 2262SOL    HW3 9079   1.977   0.641   3.837
 2262SOL    MW4 9080   1.976   0.726   3.855
 2263SOL     OW 9081   1.772   0.894   3.752
 2263SOL    HW2 9082   1.845   0.837   3.777
 2263SOL    HW3 9083   1.781   0.902   3.657
 2263SOL    MW4 9084   1.783   0.888   3.742
 2264SOL     OW 9085   1.787   1.155   3.853
 2264SOL    HW2 9086   1.766   1.150   3.947
 2264SOL    HW3 9087   1.786   1.064   3.824
 2264SOL    MW4 9088   1.784   1.142   3.862
 2265SOL     OW 9089   2.011   1.302   3.768
 2265SOL    HW2 9090   2.088   1.254   3.799
 2265SOL    HW3 9091   1.937   1.253   3.804
 2265SOL    MW4 9092   2.012   1.289   3.777
 2266SOL     OW 9093   2.060   1.529   3.926
 2266SOL    HW2 9094   1.987   1.577   3.888
 2266SOL    HW3 9095   2.058   1.444   3.884
 2266SOL    MW4 9096   2.050   1.524   3.916
 2267SOL     OW 9097   1.833   1.633   3.785
 2267SOL    HW2 9098   1.841   1.726   3.807
 2267SOL    HW3 9099   1.816   1.633   3.690
 2267SOL    MW4 9100   1.832   1.646   3.775
 2268SOL     OW 9101   1.815   1.907   3.841
 2268SOL    HW2 9102   1.817   1.894   3.936
 2268SOL    HW3 9103   1.743   1.968   3.827
 2268SOL    MW4 9104   1.806   1.913   3.852
 2269SOL     OW 9105   2.025   2.051   3.759
 2269SOL    HW2 9106   1.952   2.000   3.792
 2269SOL    HW3 9107   2.015   2.050   3.664
 2269SOL    MW4 9108   2.014   2.044   3.751
 2270SOL     OW 9109   1.995   2.297   3.880
 2270SOL    HW2 9110   1.928   2.339   3.827
 2270SOL    HW3 9111   2.007   2.211   3.840
 2270SOL    MW4 9112   1.988   2.291   3.868
 2271SOL     OW 9113   1.820   2.449   3.727
 2271SOL    HW2 9114   1.809   2.532   3.773
 2271SOL    HW3 9115   1.814   2.472   3.634
 2271SOL    MW4 9116   1.818   2.463   3.721
 2272SOL     OW 9117   1.810   2.704   3.857
 2272SOL    HW2 9118   1.796   2.713   3.951
 2272SOL    HW3 9119   1.742   2.758   3.817
 2272SOL    MW4 9120   1.800   2.712   3.864
 2273SOL     OW 9121   2.029   2.824   3.743
 2273SOL    HW2 9122   2.103   2.775   3.778
 2273SOL    HW3 9123   1.952   2.779   3.779
 2273SOL    MW4 9124   2.028   2.811   3.752
 2274SOL     OW 9125   2.027   3.084   3.865
 2274SOL    HW2 9126   2.044   2.993   3.841
 2274SOL    HW3 9127   2.104   3.131   3.836
 2274SOL    MW4 9128   2.039   3.078   3.858
 2275SOL     OW 9129   1.796   3.217   3.807
 2275SOL    HW2 9130   1.878   3.172   3.826
 2275SOL    HW3 9131   1.729   3.161   3.847
 2275SOL    MW4 9132   1.798   3.204   3.815
 2276SOL     OW 9133   1.765   3.504   3.889
 2276SOL    HW2 9134   1.839   3.547   3.846
 2276SOL    HW3 9135   1.779   3.410   3.875
 2276SOL    MW4 9136   1.777   3.497   3.882
 2277SOL     OW 9137   1.989   3.621   3.780
 2277SOL    HW2 9138   2.071   3.573   3.791
 2277SOL    HW3 9139   1.985   3.641   3.686
 2277SOL    MW4 9140   1.999   3.617   3.769
 2278SOL     OW 9141   2.010   3.888   3.884
 2278SOL    HW2 9142   2.087   3.935   3.853
 2278SOL    HW3 9143   2.017   3.801   3.845
 2278SOL    MW4 9144   2.021   3.883   3.875
 2279SOL     OW 9145   1.768   3.998   3.781
 2279SOL    HW2 9146   1.844   3.956   3.821
 2279SOL    HW3 9147   1.697   3.936   3.794
 2279SOL    MW4 9148   1.769   3.984   3.788
 2280SOL     OW 9149   1.764   4.281   3.866
 2280SOL    HW2 9150   1.855   4.307   3.852
 2280SOL    HW3 9151   1.761   4.189   3.842
 2280SOL    MW4 9152   1.776   4.272   3.861
 2281SOL     OW 9153   1.999   4.376   3.764
 2281SOL    HW2 9154   2.076   4.333   3.801
 2281SOL    HW3 9155   2.011   4.372   3.670
 2281SOL    MW4 9156   2.011   4.370   3.757
 2282SOL     OW 9157   2.440   0.028   3.898
 2282SOL    HW2 9158   2.438   0.023   3.994
 2282SOL    HW3 9159   2.518   0.079   3.878
 2282SOL    MW4 9160   2.450   0.034   3.908
 2283SOL     OW 9161   2.206   0.089   3.766
 2283SOL    HW2 9162   2.283   0.083   3.822
 2283SOL    HW3 9163   2.241   0.087   3.677
 2283SOL    MW4 9164   2.221   0.088   3.761
 2284SOL     OW 9165   2.216   0.327   3.911
 2284SOL    HW2 9166   2.208   0.241   3.870
 2284SOL    HW3 9167   2.132   0.371   3.894
 2284SOL    MW4 9168   2.204   0.322   3.903
 2285SOL     OW 9169   2.421   0.492   3.831
 2285SOL    HW2 9170   2.347   0.459   3.882
 2285SOL    HW3 9171   2.394   0.484   3.740
 2285SOL    MW4 9172   2.408   0.487   3.826
 2286SOL     OW 9173   2.464   0.776   3.899
 2286SOL    HW2 9174   2.381   0.820   3.884
 2286SOL    HW3 9175   2.449   0.686   3.870
 2286SOL    MW4 9176   2.451   0.770   3.893
 2287SOL     OW 9177   2.224   0.899   3.802
 2287SOL    HW2 9178   2.141   0.856   3.823
 2287SOL    HW3 9179   2.224   0.909   3.707
 2287SOL    MW4 9180   2.213   0.895   3.792
 2288SOL     OW 9181   2.246   1.166   3.877
 2288SOL    HW2 9182   2.230   1.162   3.971
 2288SOL    HW3 9183   2.254   1.075   3.849
 2288SOL    MW4 9184   2.245   1.154   3.886
 2289SOL     OW 9185   2.478   1.324   3.772
 2289SOL    HW2 9186   2.473   1.407   3.819
 2289SOL    HW3 9187   2.396   1.279   3.794
 2289SOL    MW4 9188   2.466   1.329   3.781
 2290SOL     OW 9189   2.457   1.563   3.896
 2290SOL    HW2 9190   2.535   1.614   3.872
 2290SOL    HW3 9191   2.388   1.597   3.839
 2290SOL    MW4 9192   2.458   1.574   3.886
 2291SOL     OW 9193   2.238   1.678   3.775
 2291SOL    HW2 9194   2.231   1.765   3.813
 2291SOL    HW3 9195   2.174   1.626   3.824
 2291SOL    MW4 9196   2.228   1.682   3.787
 2292SOL     OW 9197   2.246   1.941   3.884
 2292SOL    HW2 9198   2.242   1.964   3.977
 2292SOL    HW3 9199   2.175   1.991   3.844
 2292SOL    MW4 9200   2.236   1.950   3.891
 2293SOL     OW 9201   2.475   2.058   3.782
 2293SOL    HW2 9202   2.477   2.139   3.834
 2293SOL    HW3 9203   2.396   2.013   3.811
 2293SOL    MW4 9204   2.465   2.063   3.793
 2294SOL     OW 9205   2.448   2.328   3.943
 2294SOL    HW2 9206   2.531   2.357   3.903
 2294SOL    HW3 9207   2.380   2.362   3.885
 2294SOL    MW4 9208   2.450   2.337   3.930
 2295SOL     OW 9209   2.230   2.426   3.780
 2295SOL    HW2 9210   2.152   2.375   3.800
 2295SOL    HW3 9211   2.233   2.429   3.684
 2295SOL    MW4 9212   2.220   2.420   3.770
 2296SOL     OW 9213   2.257   2.692   3.848
 2296SOL    HW2 9214   2.210   2.696   3.931
 2296SOL    HW3 9215   2.266   2.598   3.830
 2296SOL    MW4 9216   2.252   2.680   3.856
 2297SOL     OW 9217   2.500   2.818   3.812
 2297SOL    HW2 9218   2.416   2.775   3.825
 2297SOL    HW3 9219   2.503   2.838   3.718
 2297SOL    MW4 9220   2.489   2.815   3.801
 2298SOL     OW 9221   2.484   3.090   3.886
 2298SOL    HW2 9222   2.518   3.090   3.976
 2298SOL    HW3 9223   2.505   3.002   3.853
 2298SOL    MW4 9224   2.491   3.078   3.894
 2299SOL     OW 9225   2.261   3.226   3.797
 2299SOL    HW2 9226   2.241   3.306   3.845
 2299SOL    HW3 9227   2.331   3.184   3.848
 2299SOL    MW4 9228   2.268   3.231   3.810
 2300SOL     OW 9229   2.208   3.479   3.884
 2300SOL    HW2 9230   2.232   3.477   3.976
 2300SOL    HW3 9231   2.288   3.504   3.838
 2300SOL    MW4 9232   2.222   3.482   3.890
 2301SOL     OW 9233   2.441   3.599   3.788
 2301SOL    HW2 9234   2.516   3.550   3.821
 2301SOL    HW3 9235   2.448   3.594   3.693
 2301SOL    MW4 9236   2.451   3.592   3.780
 2302SOL     OW 9237   2.484   3.877   3.873
 2302SOL    HW2 9238   2.548   3.903   3.806
 2302SOL    HW3 9239   2.474   3.783   3.860
 2302SOL    MW4 9240   2.491   3.868   3.862
 2303SOL     OW 9241   2.246   3.994   3.787
 2303SOL    HW2 9242   2.320   3.938   3.808
 2303SOL    HW3 9243   2.252   4.008   3.693
 2303SOL    MW4 9244   2.257   3.988   3.778
 2304SOL     OW 9245   2.241   4.272   3.860
 2304SOL    HW2 9246   2.213   4.272   3.952
 2304SOL    HW3 9247   2.241   4.179   3.835
 2304SOL    MW4 9248   2.237   4.259   3.869
 2305SOL     OW 9249   2.439   4.453   3.751
 2305SOL    HW2 9250   2.385   4.388   3.797
 2305SOL    HW3 9251   2.425   4.534   3.799
 2305SOL    MW4 9252   2.430   4.455   3.763
 2306SOL     OW 9253   2.878   0.001   3.897
 2306SOL    HW2 9254   2.871   0.002   3.992
 2306SOL    HW3 9255   2.963   0.041   3.879
 2306SOL    MW4 9256   2.889   0.006   3.907
 2307SOL     OW 9257   2.661   0.151   3.816
 2307SOL    HW2 9258   2.732   0.099   3.854
 2307SOL    HW3 9259   2.670   0.139   3.722
 2307SOL    MW4 9260   2.672   0.142   3.809
 2308SOL     OW 9261   2.688   0.417   3.893
 2308SOL    HW2 9262   2.679   0.324   3.871
 2308SOL    HW3 9263   2.601   0.454   3.878
 2308SOL    MW4 9264   2.675   0.409   3.888
 2309SOL     OW 9265   2.894   0.530   3.759
 2309SOL    HW2 9266   2.974   0.483   3.783
 2309SOL    HW3 9267   2.823   0.480   3.798
 2309SOL    MW4 9268   2.895   0.517   3.767
 2310SOL     OW 9269   2.885   0.795   3.894
 2310SOL    HW2 9270   2.961   0.831   3.848
 2310SOL    HW3 9271   2.872   0.709   3.855
 2310SOL    MW4 9272   2.893   0.789   3.883
 2311SOL     OW 9273   2.671   0.923   3.795
 2311SOL    HW2 9274   2.747   0.880   3.836
 2311SOL    HW3 9275   2.596   0.872   3.825
 2311SOL    MW4 9276   2.671   0.910   3.804
 2312SOL     OW 9277   2.664   1.166   3.919
 2312SOL    HW2 9278   2.654   1.077   3.884
 2312SOL    HW3 9279   2.599   1.217   3.871
 2312SOL    MW4 9280   2.654   1.161   3.908
 2313SOL     OW 9281   2.874   1.266   3.784
 2313SOL    HW2 9282   2.888   1.355   3.816
 2313SOL    HW3 9283   2.818   1.226   3.851
 2313SOL    MW4 9284   2.869   1.273   3.797
 2314SOL     OW 9285   2.913   1.526   3.852
 2314SOL    HW2 9286   2.906   1.531   3.947
 2314SOL    HW3 9287   2.999   1.564   3.832
 2314SOL    MW4 9288   2.924   1.531   3.862
 2315SOL     OW 9289   2.683   1.673   3.793
 2315SOL    HW2 9290   2.767   1.629   3.805
 2315SOL    HW3 9291   2.666   1.669   3.699
 2315SOL    MW4 9292   2.691   1.667   3.782
 2316SOL     OW 9293   2.667   1.918   3.899
 2316SOL    HW2 9294   2.673   1.830   3.862
 2316SOL    HW3 9295   2.591   1.957   3.855
 2316SOL    MW4 9296   2.658   1.912   3.888
 2317SOL     OW 9297   2.893   2.025   3.784
 2317SOL    HW2 9298   2.910   2.118   3.798
 2317SOL    HW3 9299   2.818   2.005   3.840
 2317SOL    MW4 9300   2.885   2.035   3.793
 2318SOL     OW 9301   2.973   2.281   3.848
 2318SOL    HW2 9302   2.967   2.288   3.944
 2318SOL    HW3 9303   3.032   2.352   3.823
 2318SOL    MW4 9304   2.980   2.291   3.858
 2319SOL     OW 9305   2.691   2.413   3.792
 2319SOL    HW2 9306   2.716   2.497   3.830
 2319SOL    HW3 9307   2.768   2.358   3.803
 2319SOL    MW4 9308   2.704   2.417   3.798
 2320SOL     OW 9309   2.712   2.663   3.924
 2320SOL    HW2 9310   2.693   2.615   4.005
 2320SOL    HW3 9311   2.629   2.701   3.898
 2320SOL    MW4 9312   2.699   2.661   3.931
 2321SOL     OW 9313   2.887   2.866   3.777
 2321SOL    HW2 9314   2.907   2.952   3.815
 2321SOL    HW3 9315   2.826   2.826   3.840
 2321SOL    MW4 9316   2.882   2.872   3.790
 2322SOL     OW 9317   2.888   3.115   3.862
 2322SOL    HW2 9318   2.972   3.149   3.832
 2322SOL    HW3 9319   2.822   3.166   3.814
 2322SOL    MW4 9320   2.890   3.126   3.851
 2323SOL     OW 9321   2.677   3.263   3.743
 2323SOL    HW2 9322   2.699   3.335   3.802
 2323SOL    HW3 9323   2.616   3.209   3.793
 2323SOL    MW4 9324   2.672   3.265   3.758
 2324SOL     OW 9325   2.679   3.474   3.906
 2324SOL    HW2 9326   2.682   3.470   4.002
 2324SOL    HW3 9327   2.764   3.510   3.881
 2324SOL    MW4 9328   2.690   3.479   3.916
 2325SOL     OW 9329   2.925   3.592   3.815
 2325SOL    HW2 9330   3.012   3.569   3.846
 2325SOL    HW3 9331   2.925   3.565   3.723
 2325SOL    MW4 9332   2.936   3.585   3.807
 2326SOL     OW 9333   2.928   3.884   3.848
 2326SOL    HW2 9334   2.916   3.881   3.942
 2326SOL    HW3 9335   2.888   3.804   3.815
 2326SOL    MW4 9336   2.921   3.873   3.856
 2327SOL     OW 9337   2.694   4.034   3.747
 2327SOL    HW2 9338   2.684   4.118   3.792
 2327SOL    HW3 9339   2.779   4.001   3.776
 2327SOL    MW4 9340   2.704   4.041   3.757
 2328SOL     OW 9341   2.640   4.303   3.905
 2328SOL    HW2 9342   2.724   4.343   3.881
 2328SOL    HW3 9343   2.576   4.347   3.850
 2328SOL    MW4 9344   2.643   4.314   3.895
 2329SOL     OW 9345   2.917   4.399   3.841
 2329SOL    HW2 9346   3.000   4.356   3.862
 2329SOL    HW3 9347   2.927   4.488   3.877
 2329SOL    MW4 9348   2.929   4.405   3.849
 2330SOL     OW 9349   3.379   4.643   3.843
 2330SOL    HW2 9350   3.391   4.634   3.938
 2330SOL    HW3 9351   3.440   4.712   3.817
 2330SOL    MW4 9352   3.389   4.651   3.852
 2331SOL     OW 9353   3.120   0.108   3.772
 2331SOL    HW2 9354   3.197   0.057   3.796
 2331SOL    HW3 9355   3.122   0.110   3.677
 2331SOL    MW4 9356   3.130   0.102   3.763
 2332SOL     OW 9357   3.091   0.371   3.846
 2332SOL    HW2 9358   3.111   0.373   3.940
 2332SOL    HW3 9359   3.100   0.279   3.821
 2332SOL    MW4 9360   3.095   0.359   3.855
 2333SOL     OW 9361   3.343   0.505   3.808
 2333SOL    HW2 9362   3.414   0.458   3.852
 2333SOL    HW3 9363   3.264   0.456   3.831
 2333SOL    MW4 9364   3.342   0.492   3.817
 2334SOL     OW 9365   3.341   0.790   3.848
 2334SOL    HW2 9366   3.338   0.800   3.943
 2334SOL    HW3 9367   3.342   0.695   3.834
 2334SOL    MW4 9368   3.340   0.778   3.859
 2335SOL     OW 9369   3.103   0.912   3.769
 2335SOL    HW2 9370   3.173   0.852   3.795
 2335SOL    HW3 9371   3.114   0.922   3.674
 2335SOL    MW4 9372   3.113   0.905   3.760
 2336SOL     OW 9373   3.113   1.157   3.895
 2336SOL    HW2 9374   3.123   1.084   3.834
 2336SOL    HW3 9375   3.040   1.208   3.860
 2336SOL    MW4 9376   3.105   1.154   3.882
 2337SOL     OW 9377   3.339   1.302   3.856
 2337SOL    HW2 9378   3.262   1.258   3.892
 2337SOL    HW3 9379   3.321   1.309   3.763
 2337SOL    MW4 9380   3.327   1.297   3.849
 2338SOL     OW 9381   3.366   1.566   3.944
 2338SOL    HW2 9382   3.286   1.590   3.897
 2338SOL    HW3 9383   3.374   1.471   3.931
 2338SOL    MW4 9384   3.357   1.556   3.936
 2339SOL     OW 9385   3.142   1.647   3.760
 2339SOL    HW2 9386   3.137   1.736   3.794
 2339SOL    HW3 9387   3.149   1.659   3.665
 2339SOL    MW4 9388   3.142   1.660   3.752
 2340SOL     OW 9389   3.131   1.895   3.884
 2340SOL    HW2 9390   3.131   1.895   3.980
 2340SOL    HW3 9391   3.057   1.949   3.859
 2340SOL    MW4 9392   3.121   1.902   3.893
 2341SOL     OW 9393   3.302   2.090   3.785
 2341SOL    HW2 9394   3.236   2.031   3.823
 2341SOL    HW3 9395   3.311   2.059   3.695
 2341SOL    MW4 9396   3.294   2.078   3.778
 2342SOL     OW 9397   3.366   2.332   3.868
 2342SOL    HW2 9398   3.305   2.398   3.834
 2342SOL    HW3 9399   3.331   2.249   3.835
 2342SOL    MW4 9400   3.353   2.330   3.859
 2343SOL     OW 9401   3.141   2.475   3.774
 2343SOL    HW2 9402   3.143   2.564   3.809
 2343SOL    HW3 9403   3.135   2.486   3.679
 2343SOL    MW4 9404   3.140   2.488   3.766
 2344SOL     OW 9405   3.137   2.740   3.872
 2344SOL    HW2 9406   3.117   2.707   3.959
 2344SOL    HW3 9407   3.056   2.780   3.842
 2344SOL    MW4 9408   3.124   2.741   3.879
 2345SOL     OW 9409   3.385   2.855   3.817
 2345SOL    HW2 9410   3.301   2.812   3.833
 2345SOL    HW3 9411   3.395   2.851   3.722
 2345SOL    MW4 9412   3.375   2.849   3.806
 2346SOL     OW 9413   3.351   3.126   3.888
 2346SOL    HW2 9414   3.441   3.142   3.860
 2346SOL    HW3 9415   3.337   3.033   3.870
 2346SOL    MW4 9416   3.361   3.116   3.882
 2347SOL     OW 9417   3.122   3.247   3.790
 2347SOL    HW2 9418   3.208   3.217   3.821
 2347SOL    HW3 9419   3.125   3.236   3.695
 2347SOL    MW4 9420   3.134   3.241   3.782
 2348SOL     OW 9421   3.146   3.485   3.928
 2348SOL    HW2 9422   3.223   3.529   3.892
 2348SOL    HW3 9423   3.140   3.404   3.876
 2348SOL    MW4 9424   3.156   3.480   3.916
 2349SOL     OW 9425   3.355   3.600   3.784
 2349SOL    HW2 9426   3.369   3.687   3.821
 2349SOL    HW3 9427   3.359   3.614   3.689
 2349SOL    MW4 9428   3.358   3.613   3.776
 2350SOL     OW 9429   3.354   3.876   3.856
 2350SOL    HW2 9430   3.429   3.908   3.806
 2350SOL    HW3 9431   3.280   3.926   3.822
 2350SOL    MW4 9432   3.354   3.887   3.845
 2351SOL     OW 9433   3.146   4.014   3.759
 2351SOL    HW2 9434   3.150   4.093   3.813
 2351SOL    HW3 9435   3.064   3.971   3.785
 2351SOL    MW4 9436   3.136   4.019   3.770
 2352SOL     OW 9437   3.143   4.257   3.890
 2352SOL    HW2 9438   3.148   4.270   3.985
 2352SOL    HW3 9439   3.221   4.300   3.856
 2352SOL    MW4 9440   3.154   4.264   3.898
 2353SOL     OW 9441   3.363   4.372   3.782
 2353SOL    HW2 9442   3.438   4.318   3.808
 2353SOL    HW3 9443   3.392   4.462   3.800
 2353SOL    MW4 9444   3.377   4.377   3.788
 2354SOL     OW 9445   3.785   4.647   3.852
 2354SOL    HW2 9446   3.872   4.676   3.824
 2354SOL    HW3 9447   3.781   4.555   3.824
 2354SOL    MW4 9448   3.796   4.638   3.845
 2355SOL     OW 9449   3.591   0.173   3.773
 2355SOL    HW2 9450   3.653   0.110   3.810
 2355SOL    HW3 9451   3.616   0.179   3.680
 2355SOL    MW4 9452   3.603   0.166   3.766
 2356SOL     OW 9453   3.584   0.412   3.912
 2356SOL    HW2 9454   3.643   0.464   3.857
 2356SOL    HW3 9455   3.580   0.327   3.868
 2356SOL    MW4 9456   3.591   0.408   3.899
 2357SOL     OW 9457   3.768   0.559   3.764
 2357SOL    HW2 9458   3.847   0.515   3.794
 2357SOL    HW3 9459   3.768   0.643   3.810
 2357SOL    MW4 9460   3.778   0.564   3.774
 2358SOL     OW 9461   3.814   0.787   3.938
 2358SOL    HW2 9462   3.885   0.809   3.878
 2358SOL    HW3 9463   3.735   0.817   3.893
 2358SOL    MW4 9464   3.813   0.794   3.924
 2359SOL     OW 9465   3.583   0.880   3.774
 2359SOL    HW2 9466   3.589   0.975   3.784
 2359SOL    HW3 9467   3.496   0.858   3.807
 2359SOL    MW4 9468   3.572   0.890   3.779
 2360SOL     OW 9469   3.577   1.158   3.848
 2360SOL    HW2 9470   3.646   1.220   3.821
 2360SOL    HW3 9471   3.496   1.208   3.839
 2360SOL    MW4 9472   3.576   1.173   3.843
 2361SOL     OW 9473   3.794   1.297   3.763
 2361SOL    HW2 9474   3.879   1.257   3.783
 2361SOL    HW3 9475   3.802   1.387   3.793
 2361SOL    MW4 9476   3.806   1.303   3.770
 2362SOL     OW 9477   3.773   1.574   3.855
 2362SOL    HW2 9478   3.759   1.568   3.950
 2362SOL    HW3 9479   3.707   1.636   3.824
 2362SOL    MW4 9480   3.762   1.581   3.864
 2363SOL     OW 9481   3.542   1.744   3.787
 2363SOL    HW2 9482   3.478   1.684   3.826
 2363SOL    HW3 9483   3.532   1.731   3.692
 2363SOL    MW4 9484   3.532   1.734   3.779
 2364SOL     OW 9485   3.551   1.994   3.892
 2364SOL    HW2 9486   3.540   1.904   3.862
 2364SOL    HW3 9487   3.480   2.043   3.850
 2364SOL    MW4 9488   3.540   1.989   3.882
 2365SOL     OW 9489   3.820   2.066   3.802
 2365SOL    HW2 9490   3.880   2.007   3.847
 2365SOL    HW3 9491   3.734   2.048   3.841
 2365SOL    MW4 9492   3.816   2.056   3.813
 2366SOL     OW 9493   3.819   2.302   3.936
 2366SOL    HW2 9494   3.754   2.344   3.879
 2366SOL    HW3 9495   3.848   2.226   3.887
 2366SOL    MW4 9496   3.814   2.298   3.922
 2367SOL     OW 9497   3.603   2.449   3.774
 2367SOL    HW2 9498   3.531   2.393   3.804
 2367SOL    HW3 9499   3.579   2.471   3.684
 2367SOL    MW4 9500   3.590   2.444   3.766
 2368SOL     OW 9501   3.622   2.730   3.877
 2368SOL    HW2 9502   3.610   2.643   3.839
 2368SOL    HW3 9503   3.537   2.772   3.866
 2368SOL    MW4 9504   3.609   2.724   3.871
 2369SOL     OW 9505   3.862   2.846   3.786
 2369SOL    HW2 9506   3.935   2.787   3.805
 2369SOL    HW3 9507   3.784   2.799   3.818
 2369SOL    MW4 9508   3.861   2.832   3.793
 2370SOL     OW 9509   3.887   3.120   3.832
 2370SOL    HW2 9510   3.806   3.157   3.797
 2370SOL    HW3 9511   3.880   3.026   3.816
 2370SOL    MW4 9512   3.875   3.113   3.825
 2371SOL     OW 9513   3.597   3.218   3.806
 2371SOL    HW2 9514   3.594   3.309   3.837
 2371SOL    HW3 9515   3.583   3.224   3.712
 2371SOL    MW4 9516   3.595   3.231   3.798
 2372SOL     OW 9517   3.598   3.491   3.848
 2372SOL    HW2 9518   3.609   3.517   3.939
 2372SOL    HW3 9519   3.510   3.522   3.824
 2372SOL    MW4 9520   3.588   3.499   3.857
 2373SOL     OW 9521   3.811   3.590   3.733
 2373SOL    HW2 9522   3.808   3.675   3.776
 2373SOL    HW3 9523   3.727   3.549   3.756
 2373SOL    MW4 9524   3.800   3.596   3.742
 2374SOL     OW 9525   3.800   3.843   3.864
 2374SOL    HW2 9526   3.790   3.839   3.959
 2374SOL    HW3 9527   3.881   3.892   3.850
 2374SOL    MW4 9528   3.809   3.849   3.874
 2375SOL     OW 9529   3.589   3.979   3.725
 2375SOL    HW2 9530   3.599   4.063   3.770
 2375SOL    HW3 9531   3.655   3.923   3.765
 2375SOL    MW4 9532   3.599   3.983   3.736
 2376SOL     OW 9533   3.597   4.224   3.829
 2376SOL    HW2 9534   3.597   4.236   3.924
 2376SOL    HW3 9535   3.660   4.288   3.796
 2376SOL    MW4 9536   3.606   4.234   3.837
 2377SOL     OW 9537   3.807   4.382   3.757
 2377SOL    HW2 9538   3.888   4.339   3.784
 2377SOL    HW3 9539   3.812   4.387   3.662
 2377SOL    MW4 9540   3.818   4.377   3.748
 2378SOL     OW 9541   4.211   4.636   3.867
 2378SOL    HW2 9542   4.212   4.656   3.961
 2378SOL    HW3 9543   4.273   4.699   3.828
 2378SOL    MW4 9544   4.219   4.647   3.875
 2379SOL     OW 9545   3.995   0.129   3.770
 2379SOL    HW2 9546   4.072   0.085   3.807
 2379SOL    HW3 9547   4.007   0.120   3.675
 2379SOL    MW4 9548   4.007   0.122   3.762
 2380SOL     OW 9549   3.994   0.390   3.864
 2380SOL    HW2 9550   4.008   0.381   3.958
 2380SOL    HW3 9551   3.985   0.300   3.832
 2380SOL    MW4 9552   3.994   0.377   3.872
 2381SOL     OW 9553   4.243   0.502   3.816
 2381SOL    HW2 9554   4.160   0.456   3.829
 2381SOL    HW3 9555   4.252   0.510   3.721
 2381SOL    MW4 9556   4.233   0.497   3.805
 2382SOL     OW 9557   4.226   0.767   3.951
 2382SOL    HW2 9558   4.148   0.787   3.900
 2382SOL    HW3 9559   4.245   0.675   3.931
 2382SOL    MW4 9560   4.218   0.757   3.942
 2383SOL     OW 9561   4.031   0.866   3.781
 2383SOL    HW2 9562   4.041   0.955   3.815
 2383SOL    HW3 9563   4.038   0.876   3.686
 2383SOL    MW4 9564   4.033   0.879   3.773
 2384SOL     OW 9565   4.024   1.132   3.862
 2384SOL    HW2 9566   4.022   1.118   3.957
 2384SOL    HW3 9567   4.098   1.191   3.848
 2384SOL    MW4 9568   4.033   1.138   3.873
 2385SOL     OW 9569   4.250   1.257   3.820
 2385SOL    HW2 9570   4.270   1.349   3.840
 2385SOL    HW3 9571   4.254   1.252   3.725
 2385SOL    MW4 9572   4.253   1.269   3.810
 2386SOL     OW 9573   4.283   1.518   3.887
 2386SOL    HW2 9574   4.199   1.538   3.845
 2386SOL    HW3 9575   4.345   1.577   3.845
 2386SOL    MW4 9576   4.280   1.529   3.876
 2387SOL     OW 9577   4.047   1.607   3.786
 2387SOL    HW2 9578   4.052   1.697   3.817
 2387SOL    HW3 9579   3.954   1.585   3.794
 2387SOL    MW4 9580   4.035   1.616   3.791
 2388SOL     OW 9581   4.035   1.890   3.878
 2388SOL    HW2 9582   4.050   1.882   3.972
 2388SOL    HW3 9583   4.109   1.941   3.845
 2388SOL    MW4 9584   4.047   1.896   3.886
 2389SOL     OW 9585   4.267   2.031   3.779
 2389SOL    HW2 9586   4.272   2.124   3.800
 2389SOL    HW3 9587   4.265   2.028   3.683
 2389SOL    MW4 9588   4.267   2.043   3.769
 2390SOL     OW 9589   4.243   2.287   3.836
 2390SOL    HW2 9590   4.235   2.285   3.932
 2390SOL    HW3 9591   4.162   2.330   3.807
 2390SOL    MW4 9592   4.231   2.293   3.845
 2391SOL     OW 9593   4.012   2.429   3.785
 2391SOL    HW2 9594   4.031   2.518   3.813
 2391SOL    HW3 9595   3.943   2.399   3.843
 2391SOL    MW4 9596   4.006   2.436   3.796
 2392SOL     OW 9597   4.073   2.679   3.841
 2392SOL    HW2 9598   4.073   2.690   3.936
 2392SOL    HW3 9599   4.134   2.746   3.809
 2392SOL    MW4 9600   4.081   2.689   3.849
 2393SOL     OW 9601   4.281   2.841   3.740
 2393SOL    HW2 9602   4.285   2.930   3.776
 2393SOL    HW3 9603   4.357   2.797   3.777
 2393SOL    MW4 9604   4.292   2.847   3.750
 2394SOL     OW 9605   4.297   3.113   3.863
 2394SOL    HW2 9606   4.229   3.167   3.823
 2394SOL    HW3 9607   4.379   3.155   3.837
 2394SOL    MW4 9608   4.299   3.125   3.854
 2395SOL     OW 9609   4.104   3.265   3.763
 2395SOL    HW2 9610   4.033   3.216   3.804
 2395SOL    HW3 9611   4.086   3.261   3.670
 2395SOL    MW4 9612   4.092   3.258   3.756
 2396SOL     OW 9613   4.057   3.521   3.869
 2396SOL    HW2 9614   4.092   3.446   3.821
 2396SOL    HW3 9615   3.971   3.537   3.830
 2396SOL    MW4 9616   4.050   3.513   3.857
 2397SOL     OW 9617   4.294   3.643   3.771
 2397SOL    HW2 9618   4.205   3.620   3.798
 2397SOL    HW3 9619   4.350   3.582   3.819
 2397SOL    MW4 9620   4.290   3.632   3.781
 2398SOL     OW 9621   4.273   3.882   3.911
 2398SOL    HW2 9622   4.195   3.910   3.863
 2398SOL    HW3 9623   4.288   3.792   3.881
 2398SOL    MW4 9624   4.264   3.874   3.901
 2399SOL     OW 9625   4.039   3.968   3.778
 2399SOL    HW2 9626   4.040   4.060   3.807
 2399SOL    HW3 9627   4.031   3.974   3.683
 2399SOL    MW4 9628   4.038   3.981   3.770
 2400SOL     OW 9629   4.023   4.242   3.842
 2400SOL    HW2 9630   4.016   4.257   3.936
 2400SOL    HW3 9631   4.102   4.288   3.815
 2400SOL    MW4 9632   4.032   4.250   3.851
 2401SOL     OW 9633   4.240   4.376   3.772
 2401SOL    HW2 9634   4.228   4.464   3.807
 2401SOL    HW3 9635   4.319   4.344   3.815
 2401SOL    MW4 9636   4.249   4.383   3.782
 2402SOL     OW 9637   0.181   0.020   4.124
 2402SOL    HW2 9638   0.265   0.055   4.153
 2402SOL    HW3 9639   0.170  -0.062   4.173
 2402SOL    MW4 9640   0.190   0.014   4.134
 2403SOL     OW 9641   4.440   0.137   4.257
 2403SOL    HW2 9642   4.448   0.127   4.351
 2403SOL    HW3 9643   4.520   0.099   4.221
 2403SOL    MW4 9644   4.451   0.131   4.264
 2404SOL     OW 9645   4.439   0.398   4.177
 2404SOL    HW2 9646   4.428   0.307   4.205
 2404SOL    HW3 9647   4.460   0.392   4.084
 2404SOL    MW4 9648   4.441   0.385   4.168
 2405SOL     OW 9649   0.179   0.480   4.297
 2405SOL    HW2 9650   0.262   0.431   4.298
 2405SOL    HW3 9651   0.119   0.425   4.247
 2405SOL    MW4 9652   0.182   0.466   4.291
 2406SOL     OW 9653   0.226   0.710   4.143
 2406SOL    HW2 9654   0.164   0.768   4.188
 2406SOL    HW3 9655   0.219   0.627   4.191
 2406SOL    MW4 9656   0.217   0.707   4.156
 2407SOL     OW 9657   0.044   0.865   4.277
 2407SOL    HW2 9658  -0.045   0.833   4.262
 2407SOL    HW3 9659   0.039   0.959   4.256
 2407SOL    MW4 9660   0.032   0.873   4.272
 2408SOL     OW 9661   0.008   1.146   4.233
 2408SOL    HW2 9662   0.092   1.192   4.240
 2408SOL    HW3 9663  -0.013   1.145   4.140
 2408SOL    MW4 9664   0.016   1.152   4.222
 2409SOL     OW 9665   0.271   1.256   4.266
 2409SOL    HW2 9666   0.280   1.230   4.358
 2409SOL    HW3 9667   0.337   1.204   4.220
 2409SOL    MW4 9668   0.281   1.246   4.272
 2410SOL     OW 9669   4.366   1.710   4.459
 2410SOL    HW2 9670   4.416   1.718   4.378
 2410SOL    HW3 9671   4.349   1.801   4.485
 2410SOL    MW4 9672   4.370   1.723   4.452
 2411SOL     OW 9673   4.482   1.646   4.223
 2411SOL    HW2 9674   4.394   1.612   4.208
 2411SOL    HW3 9675   4.478   1.736   4.191
 2411SOL    MW4 9676   4.470   1.653   4.217
 2412SOL     OW 9677   0.214   2.086   4.252
 2412SOL    HW2 9678   0.223   2.113   4.343
 2412SOL    HW3 9679   0.293   2.034   4.235
 2412SOL    MW4 9680   0.226   2.083   4.262
 2413SOL     OW 9681   0.780   1.713   4.680
 2413SOL    HW2 9682   0.792   1.808   4.679
 2413SOL    HW3 9683   0.849   1.681   4.739
 2413SOL    MW4 9684   0.791   1.721   4.687
 2414SOL     OW 9685   0.205   2.321   4.107
 2414SOL    HW2 9686   0.289   2.360   4.132
 2414SOL    HW3 9687   0.208   2.233   4.145
 2414SOL    MW4 9688   0.217   2.314   4.115
 2415SOL     OW 9689   4.488   2.452   4.194
 2415SOL    HW2 9690   4.412   2.398   4.175
 2415SOL    HW3 9691   4.562   2.406   4.155
 2415SOL    MW4 9692   4.488   2.439   4.187
 2416SOL     OW 9693   4.455   2.716   4.145
 2416SOL    HW2 9694   4.538   2.748   4.183
 2416SOL    HW3 9695   4.461   2.620   4.153
 2416SOL    MW4 9696   4.467   2.707   4.151
 2417SOL     OW 9697   0.186   2.797   4.303
 2417SOL    HW2 9698   0.257   2.756   4.254
 2417SOL    HW3 9699   0.185   2.888   4.273
 2417SOL    MW4 9700   0.195   2.804   4.293
 2418SOL     OW 9701   0.165   3.047   4.186
 2418SOL    HW2 9702   0.245   3.099   4.194
 2418SOL    HW3 9703   0.096   3.104   4.219
 2418SOL    MW4 9704   0.167   3.061   4.191
 2419SOL     OW 9705   4.440   3.208   4.290
 2419SOL    HW2 9706   4.368   3.168   4.241
 2419SOL    HW3 9707   4.446   3.297   4.256
 2419SOL    MW4 9708   4.432   3.214   4.279
 2420SOL     OW 9709   4.466   3.465   4.180
 2420SOL    HW2 9710   4.386   3.516   4.188
 2420SOL    HW3 9711   4.479   3.455   4.085
 2420SOL    MW4 9712   4.457   3.470   4.168
 2421SOL     OW 9713   0.197   3.634   4.235
 2421SOL    HW2 9714   0.270   3.575   4.211
 2421SOL    HW3 9715   0.118   3.583   4.215
 2421SOL    MW4 9716   0.196   3.619   4.229
 2422SOL     OW 9717   0.194   3.909   4.163
 2422SOL    HW2 9718   0.112   3.951   4.188
 2422SOL    HW3 9719   0.181   3.817   4.181
 2422SOL    MW4 9720   0.182   3.903   4.168
 2423SOL     OW 9721   4.456   4.030   4.255
 2423SOL    HW2 9722   4.477   4.026   4.348
 2423SOL    HW3 9723   4.373   3.983   4.247
 2423SOL    MW4 9724   4.448   4.024   4.266
 2424SOL     OW 9725   4.416   4.291   4.171
 2424SOL    HW2 9726   4.449   4.206   4.199
 2424SOL    HW3 9727   4.439   4.297   4.078
 2424SOL    MW4 9728   4.423   4.281   4.162
 2425SOL     OW 9729   0.154   4.456   4.260
 2425SOL    HW2 9730   0.152   4.495   4.347
 2425SOL    HW3 9731   0.070   4.410   4.252
 2425SOL    MW4 9732   0.143   4.455   4.270
 2426SOL     OW 9733   0.658   4.646   4.176
 2426SOL    HW2 9734   0.577   4.686   4.209
 2426SOL    HW3 9735   0.649   4.650   4.080
 2426SOL    MW4 9736   0.646   4.652   4.167
 2427SOL     OW 9737   0.430   0.096   4.268
 2427SOL    HW2 9738   0.432   0.090   4.364
 2427SOL    HW3 9739   0.431   0.190   4.250
 2427SOL    MW4 9740   0.430   0.108   4.278
 2428SOL     OW 9741   0.412   0.360   4.197
 2428SOL    HW2 9742   0.489   0.409   4.224
 2428SOL    HW3 9743   0.417   0.358   4.101
 2428SOL    MW4 9744   0.423   0.366   4.188
 2429SOL     OW 9745   0.649   0.480   4.293
 2429SOL    HW2 9746   0.713   0.432   4.240
 2429SOL    HW3 9747   0.664   0.572   4.270
 2429SOL    MW4 9748   0.660   0.486   4.283
 2430SOL     OW 9749   0.671   0.730   4.147
 2430SOL    HW2 9750   0.589   0.762   4.182
 2430SOL    HW3 9751   0.665   0.745   4.053
 2430SOL    MW4 9752   0.660   0.736   4.139
 2431SOL     OW 9753   0.454   0.863   4.271
 2431SOL    HW2 9754   0.457   0.947   4.225
 2431SOL    HW3 9755   0.378   0.818   4.233
 2431SOL    MW4 9756   0.444   0.868   4.260
 2432SOL     OW 9757   0.465   1.094   4.151
 2432SOL    HW2 9758   0.518   1.167   4.184
 2432SOL    HW3 9759   0.463   1.107   4.056
 2432SOL    MW4 9760   0.472   1.105   4.143
 2433SOL     OW 9761   0.663   1.270   4.247
 2433SOL    HW2 9762   0.706   1.290   4.330
 2433SOL    HW3 9763   0.648   1.356   4.206
 2433SOL    MW4 9764   0.667   1.284   4.252
 2434SOL     OW 9765   0.670   1.535   4.140
 2434SOL    HW2 9766   0.736   1.602   4.159
 2434SOL    HW3 9767   0.675   1.522   4.046
 2434SOL    MW4 9768   0.679   1.542   4.130
 2435SOL     OW 9769   0.229   1.493   4.127
 2435SOL    HW2 9770   0.242   1.411   4.175
 2435SOL    HW3 9771   0.159   1.538   4.175
 2435SOL    MW4 9772   0.221   1.488   4.140
 2436SOL     OW 9773   0.430   1.927   4.173
 2436SOL    HW2 9774   0.423   1.835   4.198
 2436SOL    HW3 9775   0.415   1.927   4.079
 2436SOL    MW4 9776   0.427   1.915   4.164
 2437SOL     OW 9777   0.647   2.091   4.220
 2437SOL    HW2 9778   0.622   2.116   4.309
 2437SOL    HW3 9779   0.581   2.026   4.194
 2437SOL    MW4 9780   0.635   2.085   4.228
 2438SOL     OW 9781   0.681   2.332   4.087
 2438SOL    HW2 9782   0.666   2.252   4.138
 2438SOL    HW3 9783   0.675   2.303   3.996
 2438SOL    MW4 9784   0.678   2.317   4.082
 2439SOL     OW 9785   0.449   2.402   4.243
 2439SOL    HW2 9786   0.437   2.495   4.224
 2439SOL    HW3 9787   0.534   2.381   4.204
 2439SOL    MW4 9788   0.459   2.412   4.235
 2440SOL     OW 9789   0.385   2.678   4.173
 2440SOL    HW2 9790   0.473   2.688   4.209
 2440SOL    HW3 9791   0.392   2.707   4.082
 2440SOL    MW4 9792   0.397   2.683   4.166
 2441SOL     OW 9793   0.632   2.796   4.270
 2441SOL    HW2 9794   0.663   2.826   4.355
 2441SOL    HW3 9795   0.618   2.876   4.220
 2441SOL    MW4 9796   0.634   2.810   4.274
 2442SOL     OW 9797   0.595   3.027   4.137
 2442SOL    HW2 9798   0.675   3.072   4.165
 2442SOL    HW3 9799   0.525   3.091   4.156
 2442SOL    MW4 9800   0.596   3.042   4.143
 2443SOL     OW 9801   0.403   3.200   4.242
 2443SOL    HW2 9802   0.394   3.208   4.337
 2443SOL    HW3 9803   0.412   3.290   4.211
 2443SOL    MW4 9804   0.403   3.213   4.250
 2444SOL     OW 9805   0.424   3.480   4.171
 2444SOL    HW2 9806   0.500   3.532   4.199
 2444SOL    HW3 9807   0.427   3.482   4.075
 2444SOL    MW4 9808   0.435   3.487   4.162
 2445SOL     OW 9809   0.660   3.624   4.221
 2445SOL    HW2 9810   0.633   3.614   4.313
 2445SOL    HW3 9811   0.720   3.551   4.206
 2445SOL    MW4 9812   0.665   3.613   4.231
 2446SOL     OW 9813   0.631   3.900   4.155
 2446SOL    HW2 9814   0.549   3.928   4.197
 2446SOL    HW3 9815   0.635   3.806   4.170
 2446SOL    MW4 9816   0.621   3.891   4.163
 2447SOL     OW 9817   0.395   4.040   4.297
 2447SOL    HW2 9818   0.403   4.129   4.263
 2447SOL    HW3 9819   0.313   4.007   4.261
 2447SOL    MW4 9820   0.385   4.047   4.288
 2448SOL     OW 9821   0.374   4.293   4.208
 2448SOL    HW2 9822   0.304   4.357   4.224
 2448SOL    HW3 9823   0.389   4.298   4.114
 2448SOL    MW4 9824   0.367   4.302   4.198
 2449SOL     OW 9825   0.624   4.386   4.288
 2449SOL    HW2 9826   0.539   4.359   4.253
 2449SOL    HW3 9827   0.632   4.478   4.264
 2449SOL    MW4 9828   0.614   4.394   4.280
 2450SOL     OW 9829   1.099   4.639   4.121
 2450SOL    HW2 9830   1.095   4.554   4.164
 2450SOL    HW3 9831   1.113   4.618   4.028
 2450SOL    MW4 9832   1.101   4.625   4.114
 2451SOL     OW 9833   0.904   0.107   4.241
 2451SOL    HW2 9834   0.963   0.059   4.184
 2451SOL    HW3 9835   0.818   0.068   4.226
 2451SOL    MW4 9836   0.900   0.096   4.232
 2452SOL     OW 9837   0.870   0.377   4.160
 2452SOL    HW2 9838   0.942   0.430   4.194
 2452SOL    HW3 9839   0.879   0.293   4.206
 2452SOL    MW4 9840   0.880   0.373   4.171
 2453SOL     OW 9841   1.122   0.470   4.281
 2453SOL    HW2 9842   1.134   0.438   4.371
 2453SOL    HW3 9843   1.196   0.434   4.233
 2453SOL    MW4 9844   1.133   0.461   4.287
 2454SOL     OW 9845   1.120   0.718   4.140
 2454SOL    HW2 9846   1.179   0.784   4.176
 2454SOL    HW3 9847   1.141   0.638   4.189
 2454SOL    MW4 9848   1.131   0.716   4.152
 2455SOL     OW 9849   0.885   0.858   4.247
 2455SOL    HW2 9850   0.964   0.808   4.225
 2455SOL    HW3 9851   0.814   0.807   4.208
 2455SOL    MW4 9852   0.886   0.845   4.239
 2456SOL     OW 9853   0.901   1.138   4.158
 2456SOL    HW2 9854   0.889   1.046   4.179
 2456SOL    HW3 9855   0.822   1.181   4.192
 2456SOL    MW4 9856   0.889   1.132   4.166
 2457SOL     OW 9857   1.110   1.299   4.272
 2457SOL    HW2 9858   1.138   1.267   4.358
 2457SOL    HW3 9859   1.035   1.244   4.249
 2457SOL    MW4 9860   1.104   1.288   4.280
 2458SOL     OW 9861   1.143   1.532   4.138
 2458SOL    HW2 9862   1.067   1.589   4.145
 2458SOL    HW3 9863   1.121   1.454   4.189
 2458SOL    MW4 9864   1.130   1.529   4.146
 2459SOL     OW 9865   0.900   1.689   4.208
 2459SOL    HW2 9866   0.945   1.693   4.292
 2459SOL    HW3 9867   0.894   1.781   4.180
 2459SOL    MW4 9868   0.905   1.702   4.215
 2460SOL     OW 9869   0.890   1.957   4.154
 2460SOL    HW2 9870   0.806   1.988   4.186
 2460SOL    HW3 9871   0.880   1.954   4.058
 2460SOL    MW4 9872   0.878   1.960   4.145
 2461SOL     OW 9873   1.127   2.091   4.196
 2461SOL    HW2 9874   1.134   2.104   4.291
 2461SOL    HW3 9875   1.041   2.052   4.183
 2461SOL    MW4 9876   1.117   2.088   4.207
 2462SOL     OW 9877   1.125   2.353   4.109
 2462SOL    HW2 9878   1.201   2.387   4.156
 2462SOL    HW3 9879   1.114   2.264   4.143
 2462SOL    MW4 9880   1.134   2.346   4.120
 2463SOL     OW 9881   0.890   2.433   4.235
 2463SOL    HW2 9882   0.966   2.397   4.188
 2463SOL    HW3 9883   0.815   2.392   4.191
 2463SOL    MW4 9884   0.890   2.423   4.223
 2464SOL     OW 9885   0.856   2.712   4.135
 2464SOL    HW2 9886   0.876   2.627   4.173
 2464SOL    HW3 9887   0.778   2.741   4.182
 2464SOL    MW4 9888   0.848   2.705   4.146
 2465SOL     OW 9889   1.094   2.826   4.193
 2465SOL    HW2 9890   1.101   2.918   4.167
 2465SOL    HW3 9891   1.003   2.803   4.173
 2465SOL    MW4 9892   1.083   2.835   4.187
 2466SOL     OW 9893   1.096   3.108   4.149
 2466SOL    HW2 9894   1.178   3.135   4.189
 2466SOL    HW3 9895   1.110   3.119   4.055
 2466SOL    MW4 9896   1.108   3.113   4.142
 2467SOL     OW 9897   0.818   3.178   4.210
 2467SOL    HW2 9898   0.797   3.203   4.300
 2467SOL    HW3 9899   0.914   3.181   4.206
 2467SOL    MW4 9900   0.828   3.182   4.221
 2468SOL     OW 9901   0.872   3.438   4.207
 2468SOL    HW2 9902   0.845   3.347   4.217
 2468SOL    HW3 9903   0.901   3.445   4.117
 2468SOL    MW4 9904   0.873   3.427   4.197
 2469SOL     OW 9905   1.098   3.556   4.312
 2469SOL    HW2 9906   1.094   3.639   4.264
 2469SOL    HW3 9907   1.011   3.518   4.300
 2469SOL    MW4 9908   1.086   3.562   4.304
 2470SOL     OW 9909   1.109   3.826   4.158
 2470SOL    HW2 9910   1.191   3.863   4.190
 2470SOL    HW3 9911   1.043   3.891   4.179
 2470SOL    MW4 9912   1.111   3.839   4.165
 2471SOL     OW 9913   0.881   3.995   4.229
 2471SOL    HW2 9914   0.865   4.083   4.195
 2471SOL    HW3 9915   0.797   3.949   4.220
 2471SOL    MW4 9916   0.868   4.000   4.223
 2472SOL     OW 9917   0.836   4.256   4.161
 2472SOL    HW2 9918   0.917   4.295   4.194
 2472SOL    HW3 9919   0.767   4.298   4.212
 2472SOL    MW4 9920   0.838   4.267   4.172
 2473SOL     OW 9921   1.065   4.386   4.255
 2473SOL    HW2 9922   1.079   4.385   4.349
 2473SOL    HW3 9923   1.137   4.333   4.219
 2473SOL    MW4 9924   1.076   4.379   4.263
 2474SOL     OW 9925   1.532   4.619   4.129
 2474SOL    HW2 9926   1.612   4.672   4.141
 2474SOL    HW3 9927   1.463   4.671   4.170
 2474SOL    MW4 9928   1.534   4.633   4.136
 2475SOL     OW 9929   1.333   0.078   4.253
 2475SOL    HW2 9930   1.326   0.032   4.337
 2475SOL    HW3 9931   1.248   0.065   4.211
 2475SOL    MW4 9932   1.321   0.070   4.259
 2476SOL     OW 9933   1.323   0.329   4.127
 2476SOL    HW2 9934   1.388   0.387   4.166
 2476SOL    HW3 9935   1.332   0.247   4.175
 2476SOL    MW4 9936   1.333   0.326   4.139
 2477SOL     OW 9937   1.487   0.515   4.254
 2477SOL    HW2 9938   1.472   0.509   4.348
 2477SOL    HW3 9939   1.462   0.604   4.231
 2477SOL    MW4 9940   1.482   0.526   4.263
 2478SOL     OW 9941   1.548   0.784   4.154
 2478SOL    HW2 9942   1.635   0.808   4.186
 2478SOL    HW3 9943   1.554   0.792   4.059
 2478SOL    MW4 9944   1.560   0.788   4.145
 2479SOL     OW 9945   1.313   0.885   4.246
 2479SOL    HW2 9946   1.317   0.979   4.232
 2479SOL    HW3 9947   1.394   0.851   4.207
 2479SOL    MW4 9948   1.324   0.893   4.239
 2480SOL     OW 9949   1.315   1.143   4.174
 2480SOL    HW2 9950   1.249   1.209   4.192
 2480SOL    HW3 9951   1.317   1.137   4.078
 2480SOL    MW4 9952   1.306   1.151   4.164
 2481SOL     OW 9953   1.547   1.272   4.217
 2481SOL    HW2 9954   1.548   1.294   4.310
 2481SOL    HW3 9955   1.461   1.231   4.203
 2481SOL    MW4 9956   1.535   1.269   4.227
 2482SOL     OW 9957   1.560   1.548   4.160
 2482SOL    HW2 9958   1.489   1.575   4.218
 2482SOL    HW3 9959   1.566   1.454   4.172
 2482SOL    MW4 9960   1.551   1.540   4.169
 2483SOL     OW 9961   1.337   1.658   4.303
 2483SOL    HW2 9962   1.336   1.748   4.271
 2483SOL    HW3 9963   1.280   1.610   4.243
 2483SOL    MW4 9964   1.329   1.663   4.291
 2484SOL     OW 9965   1.352   1.919   4.193
 2484SOL    HW2 9966   1.430   1.965   4.225
 2484SOL    HW3 9967   1.283   1.985   4.192
 2484SOL    MW4 9968   1.354   1.933   4.197
 2485SOL     OW 9969   1.625   2.039   4.188
 2485SOL    HW2 9970   1.665   2.048   4.275
 2485SOL    HW3 9971   1.617   2.128   4.156
 2485SOL    MW4 9972   1.629   2.052   4.196
 2486SOL     OW 9973   1.581   2.308   4.125
 2486SOL    HW2 9974   1.645   2.358   4.176
 2486SOL    HW3 9975   1.596   2.336   4.035
 2486SOL    MW4 9976   1.592   2.318   4.120
 2487SOL     OW 9977   1.502   2.821   4.326
 2487SOL    HW2 9978   1.470   2.854   4.410
 2487SOL    HW3 9979   1.590   2.788   4.344
 2487SOL    MW4 9980   1.509   2.821   4.339
 2488SOL     OW 9981   1.336   2.698   4.137
 2488SOL    HW2 9982   1.401   2.752   4.182
 2488SOL    HW3 9983   1.252   2.739   4.159
 2488SOL    MW4 9984   1.333   2.711   4.146
 2489SOL     OW 9985   1.513   2.594   4.580
 2489SOL    HW2 9986   1.598   2.627   4.610
 2489SOL    HW3 9987   1.511   2.614   4.487
 2489SOL    MW4 9988   1.524   2.601   4.572
 2490SOL     OW 9989   1.530   3.106   4.196
 2490SOL    HW2 9990   1.596   3.151   4.249
 2490SOL    HW3 9991   1.529   3.017   4.230
 2490SOL    MW4 9992   1.539   3.100   4.207
 2491SOL     OW 9993   1.308   3.218   4.296
 2491SOL    HW2 9994   1.371   3.158   4.255
 2491SOL    HW3 9995   1.330   3.304   4.261
 2491SOL    MW4 9996   1.319   3.221   4.286
 2492SOL     OW 9997   1.354   3.472   4.197
 2492SOL    HW2 9998   1.271   3.493   4.239
 2492SOL    HW3 9999   1.338   3.482   4.104
 2492SOL    MW410000   1.341   3.476   4.191
 2493SOL     OW10001   1.559   3.612   4.278
 2493SOL    HW210002   1.544   3.638   4.368
 2493SOL    HW310003   1.478   3.568   4.252
 2493SOL    MW410004   1.546   3.609   4.286
 2494SOL     OW10005   1.575   3.849   4.147
 2494SOL    HW210006   1.498   3.893   4.184
 2494SOL    HW310007   1.566   3.757   4.174
 2494SOL    MW410008   1.563   3.842   4.155
 2495SOL     OW10009   1.350   3.987   4.229
 2495SOL    HW210010   1.330   3.984   4.322
 2495SOL    HW310011   1.325   4.076   4.202
 2495SOL    MW410012   1.344   3.999   4.238
 2496SOL     OW10013   1.268   4.246   4.136
 2496SOL    HW210014   1.346   4.289   4.171
 2496SOL    HW310015   1.286   4.233   4.043
 2496SOL    MW410016   1.280   4.250   4.129
 2497SOL     OW10017   1.488   4.370   4.232
 2497SOL    HW210018   1.499   4.456   4.191
 2497SOL    HW310019   1.566   4.321   4.207
 2497SOL    MW410020   1.500   4.375   4.223
 2498SOL     OW10021   1.990   4.638   4.151
 2498SOL    HW210022   1.920   4.701   4.168
 2498SOL    HW310023   1.982   4.617   4.058
 2498SOL    MW410024   1.980   4.643   4.141
 2499SOL     OW10025   1.748   0.116   4.203
 2499SOL    HW210026   1.727   0.105   4.295
 2499SOL    HW310027   1.734   0.210   4.186
 2499SOL    MW410028   1.743   0.127   4.213
 2500SOL     OW10029   1.733   0.394   4.174
 2500SOL    HW210030   1.820   0.429   4.191
 2500SOL    HW310031   1.674   0.448   4.226
 2500SOL    MW410032   1.737   0.406   4.183
 2501SOL     OW10033   1.981   0.509   4.237
 2501SOL    HW210034   1.960   0.513   4.330
 2501SOL    HW310035   2.059   0.454   4.232
 2501SOL    MW410036   1.988   0.502   4.248
 2502SOL     OW10037   2.014   0.761   4.106
 2502SOL    HW210038   2.096   0.788   4.146
 2502SOL    HW310039   1.996   0.675   4.143
 2502SOL    MW410040   2.022   0.753   4.116
 2503SOL     OW10041   1.798   0.861   4.255
 2503SOL    HW210042   1.803   0.946   4.212
 2503SOL    HW310043   1.869   0.810   4.215
 2503SOL    MW410044   1.808   0.865   4.244
 2504SOL     OW10045   1.753   1.100   4.124
 2504SOL    HW210046   1.824   1.155   4.158
 2504SOL    HW310047   1.674   1.139   4.161
 2504SOL    MW410048   1.752   1.113   4.134
 2505SOL     OW10049   1.966   1.257   4.223
 2505SOL    HW210050   2.047   1.210   4.205
 2505SOL    HW310051   1.992   1.349   4.227
 2505SOL    MW410052   1.980   1.263   4.221
 2506SOL     OW10053   2.026   1.537   4.205
 2506SOL    HW210054   2.081   1.606   4.242
 2506SOL    HW310055   2.042   1.542   4.110
 2506SOL    MW410056   2.036   1.547   4.197
 2507SOL     OW10057   1.782   1.659   4.261
 2507SOL    HW210058   1.859   1.602   4.261
 2507SOL    HW310059   1.710   1.603   4.232
 2507SOL    MW410060   1.783   1.644   4.257
 2508SOL     OW10061   1.831   1.884   4.103
 2508SOL    HW210062   1.820   1.802   4.152
 2508SOL    HW310063   1.758   1.939   4.131
 2508SOL    MW410064   1.820   1.881   4.113
 2509SOL     OW10065   1.749   2.458   4.309
 2509SOL    HW210066   1.829   2.503   4.284
 2509SOL    HW310067   1.767   2.423   4.396
 2509SOL    MW410068   1.762   2.459   4.317
 2510SOL     OW10069   2.067   2.319   4.159
 2510SOL    HW210070   2.044   2.229   4.182
 2510SOL    HW310071   2.042   2.327   4.067
 2510SOL    MW410072   2.061   2.308   4.150
 2511SOL     OW10073   1.763   2.783   4.389
 2511SOL    HW210074   1.774   2.688   4.397
 2511SOL    HW310075   1.837   2.819   4.438
 2511SOL    MW410076   1.774   2.775   4.396
 2512SOL     OW10077   1.804   2.796   4.118
 2512SOL    HW210078   1.798   2.776   4.211
 2512SOL    HW310079   1.859   2.874   4.113
 2512SOL    MW410080   1.810   2.804   4.130
 2513SOL     OW10081   1.944   3.088   4.380
 2513SOL    HW210082   1.940   3.012   4.439
 2513SOL    HW310083   1.946   3.050   4.292
 2513SOL    MW410084   1.944   3.073   4.376
 2514SOL     OW10085   2.110   2.746   4.083
 2514SOL    HW210086   2.039   2.695   4.122
 2514SOL    HW310087   2.180   2.744   4.149
 2514SOL    MW410088   2.110   2.739   4.097
 2515SOL     OW10089   1.715   3.238   4.351
 2515SOL    HW210090   1.745   3.316   4.304
 2515SOL    HW310091   1.788   3.176   4.343
 2515SOL    MW410092   1.729   3.240   4.344
 2516SOL     OW10093   1.797   3.481   4.182
 2516SOL    HW210094   1.731   3.543   4.211
 2516SOL    HW310095   1.790   3.480   4.086
 2516SOL    MW410096   1.787   3.489   4.173
 2517SOL     OW10097   2.014   3.611   4.297
 2517SOL    HW210098   2.014   3.698   4.257
 2517SOL    HW310099   1.947   3.562   4.249
 2517SOL    MW410100   2.005   3.616   4.285
 2518SOL     OW10101   2.001   3.850   4.173
 2518SOL    HW210102   1.931   3.903   4.209
 2518SOL    HW310103   1.987   3.853   4.078
 2518SOL    MW410104   1.990   3.857   4.165
 2519SOL     OW10105   1.776   3.985   4.277
 2519SOL    HW210106   1.757   4.070   4.237
 2519SOL    HW310107   1.704   3.929   4.250
 2519SOL    MW410108   1.764   3.989   4.268
 2520SOL     OW10109   1.721   4.235   4.142
 2520SOL    HW210110   1.802   4.273   4.178
 2520SOL    HW310111   1.729   4.247   4.048
 2520SOL    MW410112   1.733   4.242   4.135
 2521SOL     OW10113   1.950   4.379   4.240
 2521SOL    HW210114   1.982   4.388   4.330
 2521SOL    HW310115   1.941   4.469   4.208
 2521SOL    MW410116   1.953   4.392   4.247
 2522SOL     OW10117   2.441   4.647   4.188
 2522SOL    HW210118   2.512   4.686   4.240
 2522SOL    HW310119   2.442   4.555   4.212
 2522SOL    MW410120   2.451   4.640   4.198
 2523SOL     OW10121   2.208   0.092   4.283
 2523SOL    HW210122   2.284   0.051   4.244
 2523SOL    HW310123   2.133   0.047   4.243
 2523SOL    MW410124   2.208   0.081   4.272
 2524SOL     OW10125   2.213   0.363   4.190
 2524SOL    HW210126   2.222   0.277   4.229
 2524SOL    HW310127   2.225   0.349   4.096
 2524SOL    MW410128   2.216   0.350   4.183
 2525SOL     OW10129   2.434   0.495   4.256
 2525SOL    HW210130   2.428   0.493   4.351
 2525SOL    HW310131   2.352   0.454   4.226
 2525SOL    MW410132   2.422   0.489   4.264
 2526SOL     OW10133   2.466   0.770   4.197
 2526SOL    HW210134   2.452   0.681   4.228
 2526SOL    HW310135   2.464   0.762   4.102
 2526SOL    MW410136   2.463   0.757   4.189
 2527SOL     OW10137   2.213   0.872   4.260
 2527SOL    HW210138   2.192   0.860   4.353
 2527SOL    HW310139   2.309   0.867   4.256
 2527SOL    MW410140   2.223   0.870   4.272
 2528SOL     OW10141   2.196   1.135   4.151
 2528SOL    HW210142   2.282   1.163   4.182
 2528SOL    HW310143   2.187   1.046   4.183
 2528SOL    MW410144   2.206   1.127   4.159
 2529SOL     OW10145   2.421   1.265   4.221
 2529SOL    HW210146   2.419   1.265   4.316
 2529SOL    HW310147   2.499   1.214   4.199
 2529SOL    MW410148   2.431   1.259   4.230
 2530SOL     OW10149   2.461   1.549   4.179
 2530SOL    HW210150   2.467   1.456   4.201
 2530SOL    HW310151   2.442   1.550   4.085
 2530SOL    MW410152   2.459   1.537   4.170
 2531SOL     OW10153   2.260   1.713   4.300
 2531SOL    HW210154   2.328   1.661   4.257
 2531SOL    HW310155   2.262   1.797   4.254
 2531SOL    MW410156   2.270   1.718   4.288
 2532SOL     OW10157   2.245   1.970   4.149
 2532SOL    HW210158   2.298   2.039   4.187
 2532SOL    HW310159   2.159   1.980   4.189
 2532SOL    MW410160   2.241   1.980   4.159
 2533SOL     OW10161   2.458   2.109   4.293
 2533SOL    HW210162   2.434   2.084   4.382
 2533SOL    HW310163   2.529   2.049   4.270
 2533SOL    MW410164   2.464   2.098   4.301
 2534SOL     OW10165   2.335   2.413   4.222
 2534SOL    HW210166   2.246   2.384   4.201
 2534SOL    HW310167   2.390   2.373   4.154
 2534SOL    MW410168   2.331   2.404   4.210
 2535SOL     OW10169   2.483   2.474   4.542
 2535SOL    HW210170   2.390   2.496   4.547
 2535SOL    HW310171   2.528   2.555   4.566
 2535SOL    MW410172   2.477   2.488   4.546
 2536SOL     OW10173   1.983   2.587   4.274
 2536SOL    HW210174   2.038   2.647   4.325
 2536SOL    HW310175   2.036   2.509   4.262
 2536SOL    MW410176   1.997   2.585   4.279
 2537SOL     OW10177   2.318   2.696   4.247
 2537SOL    HW210178   2.351   2.606   4.244
 2537SOL    HW310179   2.273   2.702   4.331
 2537SOL    MW410180   2.317   2.685   4.258
 2538SOL     OW10181   2.569   3.077   4.138
 2538SOL    HW210182   2.586   3.145   4.203
 2538SOL    HW310183   2.545   3.000   4.190
 2538SOL    MW410184   2.568   3.075   4.154
 2539SOL     OW10185   1.986   2.993   4.127
 2539SOL    HW210186   2.007   3.044   4.049
 2539SOL    HW310187   2.040   2.914   4.120
 2539SOL    MW410188   1.996   2.990   4.116
 2540SOL     OW10189   2.228   3.453   4.154
 2540SOL    HW210190   2.208   3.374   4.204
 2540SOL    HW310191   2.173   3.521   4.194
 2540SOL    MW410192   2.218   3.452   4.166
 2541SOL     OW10193   2.451   3.603   4.265
 2541SOL    HW210194   2.384   3.554   4.216
 2541SOL    HW310195   2.442   3.693   4.232
 2541SOL    MW410196   2.441   3.609   4.254
 2542SOL     OW10197   2.431   3.872   4.159
 2542SOL    HW210198   2.492   3.923   4.213
 2542SOL    HW310199   2.479   3.858   4.077
 2542SOL    MW410200   2.446   3.877   4.156
 2543SOL     OW10201   2.204   4.021   4.219
 2543SOL    HW210202   2.284   3.976   4.192
 2543SOL    HW310203   2.134   3.958   4.203
 2543SOL    MW410204   2.205   4.007   4.213
 2544SOL     OW10205   2.175   4.275   4.128
 2544SOL    HW210206   2.198   4.195   4.175
 2544SOL    HW310207   2.098   4.309   4.174
 2544SOL    MW410208   2.168   4.269   4.140
 2545SOL     OW10209   2.404   4.375   4.264
 2545SOL    HW210210   2.482   4.330   4.230
 2545SOL    HW310211   2.333   4.346   4.208
 2545SOL    MW410212   2.405   4.366   4.252
 2546SOL     OW10213   2.876   4.647   4.183
 2546SOL    HW210214   2.962   4.687   4.201
 2546SOL    HW310215   2.877   4.565   4.232
 2546SOL    MW410216   2.888   4.642   4.192
 2547SOL     OW10217   2.662   0.091   4.315
 2547SOL    HW210218   2.669   0.180   4.280
 2547SOL    HW310219   2.725   0.040   4.263
 2547SOL    MW410220   2.671   0.096   4.303
 2548SOL     OW10221   2.653   0.348   4.179
 2548SOL    HW210222   2.571   0.395   4.193
 2548SOL    HW310223   2.662   0.343   4.084
 2548SOL    MW410224   2.644   0.354   4.168
 2549SOL     OW10225   2.891   0.465   4.245
 2549SOL    HW210226   2.890   0.549   4.200
 2549SOL    HW310227   2.803   0.430   4.234
 2549SOL    MW410228   2.880   0.471   4.238
 2550SOL     OW10229   2.936   0.712   4.144
 2550SOL    HW210230   3.007   0.764   4.182
 2550SOL    HW310231   2.926   0.747   4.055
 2550SOL    MW410232   2.944   0.724   4.137
 2551SOL     OW10233   2.722   0.863   4.270
 2551SOL    HW210234   2.790   0.798   4.250
 2551SOL    HW310235   2.643   0.828   4.230
 2551SOL    MW410236   2.721   0.850   4.262
 2552SOL     OW10237   2.645   1.108   4.200
 2552SOL    HW210238   2.664   1.017   4.222
 2552SOL    HW310239   2.648   1.111   4.104
 2552SOL    MW410240   2.648   1.096   4.190
 2553SOL     OW10241   2.853   1.309   4.317
 2553SOL    HW210242   2.920   1.257   4.273
 2553SOL    HW310243   2.772   1.260   4.302
 2553SOL    MW410244   2.851   1.296   4.309
 2554SOL     OW10245   2.895   1.532   4.127
 2554SOL    HW210246   2.969   1.571   4.174
 2554SOL    HW310247   2.865   1.462   4.185
 2554SOL    MW410248   2.901   1.528   4.141
 2555SOL     OW10249   2.690   1.685   4.250
 2555SOL    HW210250   2.741   1.645   4.180
 2555SOL    HW310251   2.601   1.655   4.236
 2555SOL    MW410252   2.685   1.676   4.239
 2556SOL     OW10253   2.659   1.944   4.179
 2556SOL    HW210254   2.667   1.851   4.203
 2556SOL    HW310255   2.657   1.944   4.084
 2556SOL    MW410256   2.660   1.932   4.170
 2557SOL     OW10257   2.908   2.045   4.233
 2557SOL    HW210258   2.899   2.131   4.192
 2557SOL    HW310259   2.820   2.006   4.226
 2557SOL    MW410260   2.895   2.051   4.227
 2558SOL     OW10261   2.933   2.298   4.117
 2558SOL    HW210262   3.010   2.320   4.169
 2558SOL    HW310263   2.873   2.371   4.130
 2558SOL    MW410264   2.935   2.310   4.125
 2559SOL     OW10265   2.751   2.491   4.163
 2559SOL    HW210266   2.691   2.456   4.229
 2559SOL    HW310267   2.788   2.569   4.203
 2559SOL    MW410268   2.748   2.496   4.177
 2560SOL     OW10269   2.497   2.885   4.325
 2560SOL    HW210270   2.430   2.825   4.293
 2560SOL    HW310271   2.448   2.952   4.374
 2560SOL    MW410272   2.482   2.886   4.327
 2561SOL     OW10273   2.835   2.980   4.094
 2561SOL    HW210274   2.747   3.013   4.106
 2561SOL    HW310275   2.870   3.029   4.019
 2561SOL    MW410276   2.828   2.991   4.086
 2562SOL     OW10277   2.930   3.099   4.350
 2562SOL    HW210278   2.922   3.035   4.421
 2562SOL    HW310279   2.882   3.059   4.277
 2562SOL    MW410280   2.922   3.085   4.350
 2563SOL     OW10281   2.700   3.262   4.304
 2563SOL    HW210282   2.677   3.293   4.392
 2563SOL    HW310283   2.779   3.208   4.317
 2563SOL    MW410284   2.708   3.259   4.317
 2564SOL     OW10285   2.690   3.510   4.180
 2564SOL    HW210286   2.692   3.423   4.220
 2564SOL    HW310287   2.607   3.547   4.208
 2564SOL    MW410288   2.680   3.503   4.189
 2565SOL     OW10289   2.891   3.667   4.264
 2565SOL    HW210290   2.907   3.657   4.358
 2565SOL    HW310291   2.828   3.598   4.243
 2565SOL    MW410292   2.885   3.657   4.274
 2566SOL     OW10293   2.886   3.930   4.164
 2566SOL    HW210294   2.967   3.974   4.188
 2566SOL    HW310295   2.888   3.847   4.211
 2566SOL    MW410296   2.897   3.925   4.173
 2567SOL     OW10297   2.651   4.008   4.284
 2567SOL    HW210298   2.643   4.097   4.251
 2567SOL    HW310299   2.729   3.973   4.241
 2567SOL    MW410300   2.660   4.015   4.274
 2568SOL     OW10301   2.631   4.266   4.192
 2568SOL    HW210302   2.710   4.309   4.225
 2568SOL    HW310303   2.634   4.280   4.097
 2568SOL    MW410304   2.642   4.274   4.184
 2569SOL     OW10305   2.852   4.389   4.279
 2569SOL    HW210306   2.850   4.377   4.374
 2569SOL    HW310307   2.935   4.349   4.252
 2569SOL    MW410308   2.863   4.382   4.288
 2570SOL     OW10309   3.349   4.665   4.128
 2570SOL    HW210310   3.407   4.716   4.184
 2570SOL    HW310311   3.348   4.577   4.166
 2570SOL    MW410312   3.356   4.660   4.140
 2571SOL     OW10313   3.114   0.096   4.238
 2571SOL    HW210314   3.126   0.078   4.331
 2571SOL    HW310315   3.188   0.052   4.195
 2571SOL    MW410316   3.125   0.088   4.244
 2572SOL     OW10317   3.121   0.348   4.140
 2572SOL    HW210318   3.119   0.258   4.172
 2572SOL    HW310319   3.036   0.384   4.166
 2572SOL    MW410320   3.109   0.341   4.148
 2573SOL     OW10321   3.324   0.525   4.254
 2573SOL    HW210322   3.400   0.468   4.243
 2573SOL    HW310323   3.250   0.473   4.222
 2573SOL    MW410324   3.324   0.510   4.249
 2574SOL     OW10325   3.287   0.768   4.131
 2574SOL    HW210326   3.234   0.813   4.197
 2574SOL    HW310327   3.308   0.684   4.170
 2574SOL    MW410328   3.282   0.763   4.144
 2575SOL     OW10329   3.107   0.905   4.301
 2575SOL    HW210330   3.075   0.893   4.390
 2575SOL    HW310331   3.102   1.000   4.286
 2575SOL    MW410332   3.102   0.916   4.311
 2576SOL     OW10333   3.095   1.153   4.210
 2576SOL    HW210334   3.176   1.204   4.219
 2576SOL    HW310335   3.088   1.138   4.115
 2576SOL    MW410336   3.105   1.158   4.198
 2577SOL     OW10337   3.362   1.261   4.251
 2577SOL    HW210338   3.364   1.220   4.337
 2577SOL    HW310339   3.366   1.355   4.269
 2577SOL    MW410340   3.363   1.268   4.265
 2578SOL     OW10341   3.333   1.537   4.307
 2578SOL    HW210342   3.334   1.581   4.392
 2578SOL    HW310343   3.250   1.562   4.268
 2578SOL    MW410344   3.322   1.546   4.313
 2579SOL     OW10345   3.101   1.679   4.258
 2579SOL    HW210346   3.071   1.675   4.349
 2579SOL    HW310347   3.106   1.772   4.238
 2579SOL    MW410348   3.098   1.691   4.268
 2580SOL     OW10349   3.145   1.934   4.153
 2580SOL    HW210350   3.220   1.965   4.204
 2580SOL    HW310351   3.074   1.993   4.177
 2580SOL    MW410352   3.146   1.946   4.163
 2581SOL     OW10353   3.364   2.035   4.290
 2581SOL    HW210354   3.442   1.989   4.258
 2581SOL    HW310355   3.372   2.123   4.253
 2581SOL    MW410356   3.376   2.041   4.281
 2582SOL     OW10357   3.399   2.275   4.145
 2582SOL    HW210358   3.457   2.346   4.174
 2582SOL    HW310359   3.396   2.283   4.050
 2582SOL    MW410360   3.406   2.285   4.137
 2583SOL     OW10361   3.175   2.383   4.244
 2583SOL    HW210362   3.146   2.470   4.217
 2583SOL    HW310363   3.258   2.370   4.200
 2583SOL    MW410364   3.182   2.393   4.235
 2584SOL     OW10365   3.115   2.643   4.127
 2584SOL    HW210366   3.196   2.681   4.159
 2584SOL    HW310367   3.046   2.690   4.174
 2584SOL    MW410368   3.116   2.654   4.137
 2585SOL     OW10369   3.344   2.793   4.246
 2585SOL    HW210370   3.432   2.757   4.233
 2585SOL    HW310371   3.349   2.881   4.209
 2585SOL    MW410372   3.356   2.800   4.239
 2586SOL     OW10373   3.348   3.074   4.168
 2586SOL    HW210374   3.275   3.127   4.201
 2586SOL    HW310375   3.351   3.094   4.074
 2586SOL    MW410376   3.339   3.084   4.160
 2587SOL     OW10377   3.159   3.232   4.293
 2587SOL    HW210378   3.123   3.315   4.262
 2587SOL    HW310379   3.082   3.178   4.310
 2587SOL    MW410380   3.144   3.236   4.291
 2588SOL     OW10381   3.070   3.467   4.190
 2588SOL    HW210382   3.019   3.542   4.222
 2588SOL    HW310383   3.093   3.490   4.100
 2588SOL    MW410384   3.066   3.480   4.183
 2589SOL     OW10385   3.312   3.622   4.270
 2589SOL    HW210386   3.341   3.586   4.354
 2589SOL    HW310387   3.228   3.580   4.253
 2589SOL    MW410388   3.305   3.612   4.279
 2590SOL     OW10389   3.310   3.895   4.149
 2590SOL    HW210390   3.316   3.803   4.172
 2590SOL    HW310391   3.335   3.898   4.057
 2590SOL    MW410392   3.314   3.883   4.140
 2591SOL     OW10393   3.113   4.051   4.261
 2591SOL    HW210394   3.106   4.061   4.356
 2591SOL    HW310395   3.176   3.979   4.249
 2591SOL    MW410396   3.120   4.043   4.272
 2592SOL     OW10397   3.080   4.302   4.159
 2592SOL    HW210398   3.172   4.324   4.178
 2592SOL    HW310399   3.072   4.211   4.188
 2592SOL    MW410400   3.091   4.293   4.166
 2593SOL     OW10401   3.346   4.375   4.251
 2593SOL    HW210402   3.368   4.355   4.342
 2593SOL    HW310403   3.417   4.335   4.200
 2593SOL    MW410404   3.359   4.367   4.256
 2594SOL     OW10405   3.773   4.648   4.135
 2594SOL    HW210406   3.838   4.717   4.152
 2594SOL    HW310407   3.775   4.636   4.040
 2594SOL    MW410408   3.782   4.656   4.125
 2595SOL     OW10409   3.564   0.101   4.262
 2595SOL    HW210410   3.564   0.185   4.217
 2595SOL    HW310411   3.632   0.050   4.217
 2595SOL    MW410412   3.573   0.105   4.250
 2596SOL     OW10413   3.549   0.364   4.181
 2596SOL    HW210414   3.616   0.407   4.233
 2596SOL    HW310415   3.565   0.393   4.091
 2596SOL    MW410416   3.560   0.373   4.176
 2597SOL     OW10417   3.767   0.495   4.291
 2597SOL    HW210418   3.758   0.479   4.385
 2597SOL    HW310419   3.767   0.591   4.283
 2597SOL    MW410420   3.766   0.506   4.302
 2598SOL     OW10421   3.788   0.767   4.218
 2598SOL    HW210422   3.704   0.809   4.233
 2598SOL    HW310423   3.793   0.757   4.123
 2598SOL    MW410424   3.778   0.771   4.207
 2599SOL     OW10425   3.552   0.895   4.231
 2599SOL    HW210426   3.562   0.977   4.184
 2599SOL    HW310427   3.461   0.870   4.218
 2599SOL    MW410428   3.541   0.902   4.223
 2600SOL     OW10429   3.588   1.165   4.132
 2600SOL    HW210430   3.506   1.207   4.161
 2600SOL    HW310431   3.585   1.171   4.036
 2600SOL    MW410432   3.576   1.171   4.123
 2601SOL     OW10433   3.813   1.262   4.307
 2601SOL    HW210434   3.744   1.233   4.247
 2601SOL    HW310435   3.808   1.358   4.305
 2601SOL    MW410436   3.803   1.271   4.299
 2602SOL     OW10437   3.777   1.510   4.134
 2602SOL    HW210438   3.842   1.579   4.150
 2602SOL    HW310439   3.695   1.549   4.164
 2602SOL    MW410440   3.775   1.525   4.140
 2603SOL     OW10441   3.595   1.926   4.177
 2603SOL    HW210442   3.595   1.945   4.083
 2603SOL    HW310443   3.578   1.832   4.183
 2603SOL    MW410444   3.593   1.916   4.166
 2604SOL     OW10445   3.543   1.647   4.144
 2604SOL    HW210446   3.491   1.612   4.216
 2604SOL    HW310447   3.486   1.641   4.068
 2604SOL    MW410448   3.529   1.641   4.144
 2605SOL     OW10449   3.826   2.082   4.246
 2605SOL    HW210450   3.817   2.094   4.340
 2605SOL    HW310451   3.745   2.039   4.219
 2605SOL    MW410452   3.814   2.078   4.255
 2606SOL     OW10453   3.803   2.376   4.204
 2606SOL    HW210454   3.804   2.286   4.237
 2606SOL    HW310455   3.801   2.366   4.109
 2606SOL    MW410456   3.803   2.363   4.196
 2607SOL     OW10457   3.556   2.481   4.257
 2607SOL    HW210458   3.531   2.463   4.348
 2607SOL    HW310459   3.644   2.445   4.249
 2607SOL    MW410460   3.564   2.474   4.268
 2608SOL     OW10461   3.604   2.744   4.151
 2608SOL    HW210462   3.608   2.654   4.181
 2608SOL    HW310463   3.612   2.738   4.056
 2608SOL    MW410464   3.606   2.732   4.142
 2609SOL     OW10465   3.831   2.861   4.220
 2609SOL    HW210466   3.806   2.899   4.304
 2609SOL    HW310467   3.751   2.821   4.186
 2609SOL    MW410468   3.817   2.861   4.226
 2610SOL     OW10469   3.805   3.132   4.145
 2610SOL    HW210470   3.813   3.041   4.175
 2610SOL    HW310471   3.804   3.126   4.049
 2610SOL    MW410472   3.806   3.119   4.136
 2611SOL     OW10473   3.565   3.236   4.224
 2611SOL    HW210474   3.645   3.192   4.197
 2611SOL    HW310475   3.495   3.173   4.204
 2611SOL    MW410476   3.566   3.222   4.218
 2612SOL     OW10477   3.551   3.500   4.163
 2612SOL    HW210478   3.550   3.406   4.182
 2612SOL    HW310479   3.470   3.533   4.202
 2612SOL    MW410480   3.540   3.492   4.171
 2613SOL     OW10481   3.784   3.603   4.277
 2613SOL    HW210482   3.847   3.570   4.213
 2613SOL    HW310483   3.703   3.555   4.257
 2613SOL    MW410484   3.781   3.592   4.266
 2614SOL     OW10485   3.758   3.856   4.160
 2614SOL    HW210486   3.676   3.901   4.182
 2614SOL    HW310487   3.755   3.776   4.212
 2614SOL    MW410488   3.746   3.851   4.170
 2615SOL     OW10489   3.545   4.008   4.254
 2615SOL    HW210490   3.519   4.029   4.343
 2615SOL    HW310491   3.464   3.981   4.211
 2615SOL    MW410492   3.531   4.007   4.260
 2616SOL     OW10493   3.544   4.256   4.106
 2616SOL    HW210494   3.620   4.299   4.146
 2616SOL    HW310495   3.545   4.167   4.143
 2616SOL    MW410496   3.554   4.250   4.116
 2617SOL     OW10497   3.759   4.390   4.234
 2617SOL    HW210498   3.840   4.355   4.197
 2617SOL    HW310499   3.761   4.483   4.212
 2617SOL    MW410500   3.770   4.398   4.226
 2618SOL     OW10501   4.225   0.003   4.132
 2618SOL    HW210502   4.215  -0.067   4.196
 2618SOL    HW310503   4.295   0.058   4.168
 2618SOL    MW410504   4.233   0.001   4.145
 2619SOL     OW10505   3.998   0.133   4.243
 2619SOL    HW210506   4.000   0.221   4.204
 2619SOL    HW310507   4.079   0.092   4.214
 2619SOL    MW410508   4.009   0.139   4.234
 2620SOL     OW10509   3.979   0.386   4.153
 2620SOL    HW210510   4.053   0.442   4.177
 2620SOL    HW310511   3.904   0.425   4.197
 2620SOL    MW410512   3.979   0.398   4.162
 2621SOL     OW10513   4.216   0.531   4.288
 2621SOL    HW210514   4.235   0.620   4.258
 2621SOL    HW310515   4.294   0.481   4.264
 2621SOL    MW410516   4.229   0.536   4.281
 2622SOL     OW10517   4.259   0.800   4.225
 2622SOL    HW210518   4.180   0.850   4.248
 2622SOL    HW310519   4.263   0.804   4.129
 2622SOL    MW410520   4.249   0.807   4.215
 2623SOL     OW10521   4.017   0.914   4.298
 2623SOL    HW210522   4.024   1.002   4.259
 2623SOL    HW310523   3.954   0.868   4.242
 2623SOL    MW410524   4.009   0.920   4.285
 2624SOL     OW10525   4.035   1.139   4.143
 2624SOL    HW210526   4.119   1.180   4.166
 2624SOL    HW310527   3.969   1.197   4.180
 2624SOL    MW410528   4.038   1.152   4.151
 2625SOL     OW10529   4.248   1.265   4.274
 2625SOL    HW210530   4.213   1.282   4.361
 2625SOL    HW310531   4.338   1.236   4.289
 2625SOL    MW410532   4.255   1.263   4.287
 2626SOL     OW10533   4.236   1.531   4.175
 2626SOL    HW210534   4.243   1.441   4.207
 2626SOL    HW310535   4.255   1.525   4.082
 2626SOL    MW410536   4.240   1.518   4.167
 2627SOL     OW10537   3.997   1.661   4.219
 2627SOL    HW210538   3.986   1.648   4.313
 2627SOL    HW310539   4.074   1.610   4.196
 2627SOL    MW410540   4.005   1.652   4.228
 2628SOL     OW10541   4.066   1.929   4.158
 2628SOL    HW210542   4.045   1.837   4.172
 2628SOL    HW310543   3.984   1.976   4.177
 2628SOL    MW410544   4.052   1.923   4.162
 2629SOL     OW10545   0.015   1.916   4.173
 2629SOL    HW210546   0.084   1.976   4.202
 2629SOL    HW310547  -0.067   1.960   4.195
 2629SOL    MW410548   0.014   1.929   4.180
 2630SOL     OW10549   4.268   2.311   4.128
 2630SOL    HW210550   4.192   2.354   4.167
 2630SOL    HW310551   4.276   2.229   4.176
 2630SOL    MW410552   4.259   2.306   4.140
 2631SOL     OW10553   4.051   2.468   4.228
 2631SOL    HW210554   4.099   2.484   4.309
 2631SOL    HW310555   3.962   2.447   4.257
 2631SOL    MW410556   4.046   2.467   4.242
 2632SOL     OW10557   4.024   2.705   4.106
 2632SOL    HW210558   4.034   2.620   4.149
 2632SOL    HW310559   3.958   2.751   4.157
 2632SOL    MW410560   4.017   2.700   4.118
 2633SOL     OW10561   4.219   2.837   4.247
 2633SOL    HW210562   4.147   2.793   4.202
 2633SOL    HW310563   4.298   2.796   4.213
 2633SOL    MW410564   4.220   2.826   4.237
 2634SOL     OW10565   4.237   3.093   4.150
 2634SOL    HW210566   4.232   3.001   4.176
 2634SOL    HW310567   4.248   3.090   4.055
 2634SOL    MW410568   4.237   3.081   4.141
 2635SOL     OW10569   4.032   3.248   4.231
 2635SOL    HW210570   4.100   3.186   4.204
 2635SOL    HW310571   3.949   3.204   4.211
 2635SOL    MW410572   4.030   3.234   4.225
 2636SOL     OW10573   4.012   3.514   4.144
 2636SOL    HW210574   4.017   3.424   4.177
 2636SOL    HW310575   4.028   3.507   4.050
 2636SOL    MW410576   4.015   3.501   4.136
 2637SOL     OW10577   4.247   3.612   4.241
 2637SOL    HW210578   4.241   3.702   4.208
 2637SOL    HW310579   4.162   3.574   4.219
 2637SOL    MW410580   4.235   3.619   4.233
 2638SOL     OW10581   4.232   3.892   4.180
 2638SOL    HW210582   4.151   3.941   4.192
 2638SOL    HW310583   4.250   3.898   4.086
 2638SOL    MW410584   4.223   3.899   4.169
 2639SOL     OW10585   3.985   4.020   4.246
 2639SOL    HW210586   3.994   4.003   4.340
 2639SOL    HW310587   3.910   3.967   4.220
 2639SOL    MW410588   3.976   4.011   4.255
 2640SOL     OW10589   3.992   4.282   4.117
 2640SOL    HW210590   4.063   4.318   4.171
 2640SOL    HW310591   3.974   4.197   4.157
 2640SOL    MW410592   3.999   4.276   4.130
 2641SOL     OW10593   3.912   4.327   4.618
 2641SOL    HW210594   3.887   4.242   4.657
 2641SOL    HW310595   3.829   4.363   4.586
 2641SOL    MW410596   3.897   4.320   4.619
 2642SOL     OW10597   4.204   0.216   4.817
 2642SOL    HW210598   4.273   0.279   4.839
 2642SOL    HW310599   4.129   0.270   4.791
 2642SOL    MW410600   4.203   0.231   4.816
 2643SOL     OW10601   4.182   4.434   4.537
 2643SOL    HW210602   4.166   4.521   4.575
 2643SOL    HW310603   4.117   4.378   4.579
 2643SOL    MW410604   4.171   4.438   4.548
 2644SOL     OW10605   3.936   0.126   4.518
 2644SOL    HW210606   3.949   0.123   4.423
 2644SOL    HW310607   3.843   0.104   4.529
 2644SOL    MW410608   3.925   0.123   4.507
 2645SOL     OW10609   4.224   1.640   4.746
 2645SOL    HW210610   4.287   1.615   4.679
 2645SOL    HW310611   4.153   1.577   4.736
 2645SOL    MW410612   4.223   1.628   4.736
 2646SOL     OW10613   0.416   4.655   4.532
 2646SOL    HW210614   0.327   4.620   4.540
 2646SOL    HW310615   0.473   4.580   4.550
 2646SOL    MW410616   0.412   4.640   4.535
 2647SOL     OW10617   0.317   0.753   4.672
 2647SOL    HW210618   0.252   0.819   4.648
 2647SOL    HW310619   0.278   0.669   4.647
 2647SOL    MW410620   0.303   0.751   4.665
 2648SOL     OW10621   4.114   0.793   4.684
 2648SOL    HW210622   4.136   0.707   4.649
 2648SOL    HW310623   4.144   0.790   4.775
 2648SOL    MW410624   4.121   0.781   4.692
 2649SOL     OW10625   0.620   1.506   4.557
 2649SOL    HW210626   0.665   1.565   4.617
 2649SOL    HW310627   0.532   1.543   4.547
 2649SOL    MW410628   0.614   1.519   4.564
 2650SOL     OW10629   1.098   2.010   4.654
 2650SOL    HW210630   1.143   2.070   4.594
 2650SOL    HW310631   1.080   2.064   4.732
 2650SOL    MW410632   1.102   2.025   4.656
 2651SOL     OW10633   4.188   1.263   4.549
 2651SOL    HW210634   4.229   1.176   4.550
 2651SOL    HW310635   4.262   1.323   4.559
 2651SOL    MW410636   4.203   1.259   4.551
 2652SOL     OW10637   0.200   1.820   4.571
 2652SOL    HW210638   0.104   1.820   4.576
 2652SOL    HW310639   0.225   1.911   4.583
 2652SOL    MW410640   0.191   1.832   4.573
 2653SOL     OW10641   0.424   1.649   4.214
 2653SOL    HW210642   0.355   1.593   4.180
 2653SOL    HW310643   0.505   1.602   4.195
 2653SOL    MW410644   0.426   1.635   4.207
 2654SOL     OW10645   0.208   2.113   4.534
 2654SOL    HW210646   0.273   2.182   4.545
 2654SOL    HW310647   0.134   2.141   4.588
 2654SOL    MW410648   0.207   2.126   4.543
 2655SOL     OW10649   3.995   2.346   4.619
 2655SOL    HW210650   4.054   2.286   4.665
 2655SOL    HW310651   4.053   2.414   4.583
 2655SOL    MW410652   4.010   2.347   4.621
 2656SOL     OW10653   0.360   2.888   4.542
 2656SOL    HW210654   0.318   2.872   4.458
 2656SOL    HW310655   0.340   2.809   4.594
 2656SOL    MW410656   0.352   2.875   4.538
 2657SOL     OW10657   0.326   3.235   4.542
 2657SOL    HW210658   0.400   3.176   4.557
 2657SOL    HW310659   0.351   3.317   4.585
 2657SOL    MW410660   0.339   3.238   4.549
 2658SOL     OW10661   4.420   2.456   4.465
 2658SOL    HW210662   4.451   2.459   4.374
 2658SOL    HW310663   4.480   2.514   4.512
 2658SOL    MW410664   4.432   2.464   4.459
 2659SOL     OW10665   4.307   3.396   4.643
 2659SOL    HW210666   4.365   3.319   4.644
 2659SOL    HW310667   4.233   3.369   4.589
 2659SOL    MW410668   4.305   3.382   4.636
 2660SOL     OW10669   0.345   3.501   4.635
 2660SOL    HW210670   0.338   3.547   4.719
 2660SOL    HW310671   0.280   3.543   4.579
 2660SOL    MW410672   0.336   3.512   4.639
 2661SOL     OW10673   4.289   3.902   4.606
 2661SOL    HW210674   4.201   3.925   4.576
 2661SOL    HW310675   4.300   3.810   4.580
 2661SOL    MW410676   4.279   3.893   4.598
 2662SOL     OW10677   4.413   0.115   4.537
 2662SOL    HW210678   4.324   0.086   4.559
 2662SOL    HW310679   4.425   0.195   4.588
 2662SOL    MW410680   4.403   0.122   4.547
 2663SOL     OW10681   3.744   0.459   4.566
 2663SOL    HW210682   3.655   0.428   4.582
 2663SOL    HW310683   3.739   0.554   4.576
 2663SOL    MW410684   3.731   0.467   4.569
 2664SOL     OW10685   4.165   3.612   4.777
 2664SOL    HW210686   4.241   3.667   4.801
 2664SOL    HW310687   4.203   3.526   4.762
 2664SOL    MW410688   4.180   3.608   4.778
 2665SOL     OW10689   3.851   4.058   4.715
 2665SOL    HW210690   3.901   4.027   4.790
 2665SOL    HW310691   3.781   3.994   4.704
 2665SOL    MW410692   3.848   4.046   4.723
 2666SOL     OW10693   0.612   4.476   4.550
 2666SOL    HW210694   0.610   4.434   4.464
 2666SOL    HW310695   0.685   4.538   4.544
 2666SOL    MW410696   0.621   4.479   4.538
 2667SOL     OW10697   4.301   0.970   4.541
 2667SOL    HW210698   4.325   0.928   4.459
 2667SOL    HW310699   4.222   0.923   4.569
 2667SOL    MW410700   4.293   0.958   4.534
 2668SOL     OW10701   1.094   0.953   4.626
 2668SOL    HW210702   1.082   0.944   4.721
 2668SOL    HW310703   1.014   0.917   4.588
 2668SOL    MW410704   1.082   0.947   4.634
 2669SOL     OW10705   0.386   0.290   4.605
 2669SOL    HW210706   0.388   0.195   4.593
 2669SOL    HW310707   0.478   0.317   4.604
 2669SOL    MW410708   0.398   0.281   4.603
 2670SOL     OW10709   0.843   0.823   4.550
 2670SOL    HW210710   0.855   0.834   4.456
 2670SOL    HW310711   0.748   0.823   4.562
 2670SOL    MW410712   0.832   0.824   4.539
 2671SOL     OW10713   0.555   0.784   4.533
 2671SOL    HW210714   0.482   0.759   4.589
 2671SOL    HW310715   0.514   0.809   4.450
 2671SOL    MW410716   0.540   0.784   4.529
 2672SOL     OW10717   1.946   1.198   4.510
 2672SOL    HW210718   1.935   1.210   4.416
 2672SOL    HW310719   2.004   1.269   4.537
 2672SOL    MW410720   1.952   1.209   4.501
 2673SOL     OW10721   0.364   1.597   4.492
 2673SOL    HW210722   0.327   1.677   4.530
 2673SOL    HW310723   0.382   1.620   4.401
 2673SOL    MW410724   0.362   1.610   4.485
 2674SOL     OW10725   1.201   1.205   4.518
 2674SOL    HW210726   1.177   1.116   4.545
 2674SOL    HW310727   1.132   1.260   4.556
 2674SOL    MW410728   1.188   1.200   4.527
 2675SOL     OW10729   0.972   1.671   4.489
 2675SOL    HW210730   0.907   1.692   4.556
 2675SOL    HW310731   1.056   1.694   4.529
 2675SOL    MW410732   0.975   1.677   4.503
 2676SOL     OW10733   0.669   2.190   4.506
 2676SOL    HW210734   0.738   2.256   4.506
 2676SOL    HW310735   0.712   2.110   4.538
 2676SOL    MW410736   0.684   2.188   4.510
 2677SOL     OW10737   1.178   1.737   4.658
 2677SOL    HW210738   1.267   1.732   4.624
 2677SOL    HW310739   1.164   1.830   4.676
 2677SOL    MW410740   1.188   1.748   4.656
 2678SOL     OW10741   0.412   2.318   4.508
 2678SOL    HW210742   0.492   2.273   4.535
 2678SOL    HW310743   0.426   2.338   4.416
 2678SOL    MW410744   0.425   2.315   4.500
 2679SOL     OW10745   1.036   2.705   4.737
 2679SOL    HW210746   1.028   2.759   4.658
 2679SOL    HW310747   1.128   2.714   4.762
 2679SOL    MW410748   1.047   2.713   4.730
 2680SOL     OW10749   0.704   2.637   4.645
 2680SOL    HW210750   0.763   2.669   4.714
 2680SOL    HW310751   0.750   2.563   4.606
 2680SOL    MW410752   0.718   2.631   4.649
 2681SOL     OW10753   0.989   3.267   4.615
 2681SOL    HW210754   0.907   3.265   4.567
 2681SOL    HW310755   1.035   3.187   4.588
 2681SOL    MW410756   0.984   3.256   4.605
 2682SOL     OW10757   0.738   3.287   4.464
 2682SOL    HW210758   0.708   3.378   4.469
 2682SOL    HW310759   0.667   3.236   4.501
 2682SOL    MW410760   0.725   3.293   4.469
 2683SOL     OW10761   1.267   4.594   4.464
 2683SOL    HW210762   1.220   4.515   4.490
 2683SOL    HW310763   1.344   4.596   4.522
 2683SOL    MW410764   1.271   4.584   4.475
 2684SOL     OW10765   0.117   2.634   4.530
 2684SOL    HW210766   0.202   2.608   4.566
 2684SOL    HW310767   0.138   2.688   4.454
 2684SOL    MW410768   0.131   2.637   4.525
 2685SOL     OW10769   4.368   3.649   4.505
 2685SOL    HW210770   4.350   3.562   4.540
 2685SOL    HW310771   4.330   3.648   4.417
 2685SOL    MW410772   4.361   3.638   4.498
 2686SOL     OW10773   1.013   4.015   4.770
 2686SOL    HW210774   0.977   4.072   4.703
 2686SOL    HW310775   1.002   3.927   4.735
 2686SOL    MW410776   1.007   4.011   4.757
 2687SOL     OW10777   4.458   4.370   4.551
 2687SOL    HW210778   4.471   4.276   4.566
 2687SOL    HW310779   4.363   4.382   4.553
 2687SOL    MW410780   4.447   4.359   4.553
 2688SOL     OW10781   0.002   4.072   4.541
 2688SOL    HW210782   0.069   4.024   4.590
 2688SOL    HW310783  -0.081   4.033   4.570
 2688SOL    MW410784  -0.001   4.060   4.551
 2689SOL     OW10785   0.127   4.594   4.513
 2689SOL    HW210786   0.055   4.650   4.543
 2689SOL    HW310787   0.095   4.505   4.524
 2689SOL    MW410788   0.114   4.590   4.519
 2690SOL     OW10789   0.861   4.603   4.540
 2690SOL    HW210790   0.913   4.525   4.523
 2690SOL    HW310791   0.925   4.675   4.535
 2690SOL    MW410792   0.877   4.603   4.537
 2691SOL     OW10793   1.089   4.370   4.539
 2691SOL    HW210794   1.168   4.322   4.565
 2691SOL    HW310795   1.019   4.304   4.543
 2691SOL    MW410796   1.090   4.355   4.543
 2692SOL     OW10797   0.638   0.486   4.563
 2692SOL    HW210798   0.636   0.461   4.470
 2692SOL    HW310799   0.610   0.578   4.563
 2692SOL    MW410800   0.634   0.495   4.550
 2693SOL     OW10801   1.312   0.790   4.530
 2693SOL    HW210802   1.296   0.808   4.437
 2693SOL    HW310803   1.247   0.844   4.576
 2693SOL    MW410804   1.301   0.799   4.524
 2694SOL     OW10805   1.634   0.905   4.651
 2694SOL    HW210806   1.705   0.857   4.608
 2694SOL    HW310807   1.556   0.853   4.633
 2694SOL    MW410808   1.633   0.892   4.643
 2695SOL     OW10809   0.320   1.121   4.504
 2695SOL    HW210810   0.386   1.100   4.571
 2695SOL    HW310811   0.261   1.045   4.504
 2695SOL    MW410812   0.321   1.108   4.513
 2696SOL     OW10813   0.821   1.993   4.635
 2696SOL    HW210814   0.914   1.983   4.617
 2696SOL    HW310815   0.816   2.068   4.695
 2696SOL    MW410816   0.833   2.002   4.641
 2697SOL     OW10817   0.735   1.250   4.552
 2697SOL    HW210818   0.676   1.319   4.582
 2697SOL    HW310819   0.691   1.169   4.576
 2697SOL    MW410820   0.722   1.249   4.559
 2698SOL     OW10821   1.709   1.180   4.637
 2698SOL    HW210822   1.698   1.086   4.647
 2698SOL    HW310823   1.799   1.190   4.607
 2698SOL    MW410824   1.720   1.169   4.635
 2699SOL     OW10825   1.002   1.387   4.589
 2699SOL    HW210826   0.927   1.329   4.578
 2699SOL    HW310827   0.987   1.458   4.527
 2699SOL    MW410828   0.990   1.389   4.580
 2700SOL     OW10829   1.082   2.411   4.702
 2700SOL    HW210830   1.090   2.505   4.719
 2700SOL    HW310831   1.149   2.392   4.636
 2700SOL    MW410832   1.092   2.421   4.696
 2701SOL     OW10833   1.450   2.814   4.976
 2701SOL    HW210834   1.404   2.889   5.013
 2701SOL    HW310835   1.521   2.852   4.925
 2701SOL    MW410836   1.454   2.829   4.974
 2702SOL     OW10837   1.441   2.951   4.578
 2702SOL    HW210838   1.514   2.985   4.629
 2702SOL    HW310839   1.400   2.886   4.635
 2702SOL    MW410840   1.445   2.947   4.592
 2703SOL     OW10841   1.446   3.364   4.544
 2703SOL    HW210842   1.428   3.296   4.479
 2703SOL    HW310843   1.361   3.403   4.562
 2703SOL    MW410844   1.433   3.360   4.537
 2704SOL     OW10845   0.758   2.869   4.509
 2704SOL    HW210846   0.854   2.872   4.500
 2704SOL    HW310847   0.741   2.788   4.555
 2704SOL    MW410848   0.769   2.859   4.514
 2705SOL     OW10849   0.472   4.004   4.559
 2705SOL    HW210850   0.501   4.090   4.592
 2705SOL    HW310851   0.433   4.023   4.474
 2705SOL    MW410852   0.471   4.018   4.552
 2706SOL     OW10853   1.029   2.837   4.468
 2706SOL    HW210854   1.069   2.806   4.387
 2706SOL    HW310855   1.068   2.923   4.484
 2706SOL    MW410856   1.039   2.844   4.460
 2707SOL     OW10857   0.559   3.075   4.569
 2707SOL    HW210858   0.487   3.011   4.566
 2707SOL    HW310859   0.638   3.022   4.555
 2707SOL    MW410860   0.560   3.059   4.567
 2708SOL     OW10861   1.491   3.638   4.540
 2708SOL    HW210862   1.565   3.652   4.599
 2708SOL    HW310863   1.473   3.544   4.545
 2708SOL    MW410864   1.498   3.627   4.548
 2709SOL     OW10865   0.583   3.530   4.487
 2709SOL    HW210866   0.622   3.614   4.510
 2709SOL    HW310867   0.504   3.525   4.541
 2709SOL    MW410868   0.578   3.541   4.497
 2710SOL     OW10869   0.225   3.903   4.640
 2710SOL    HW210870   0.319   3.913   4.629
 2710SOL    HW310871   0.205   3.819   4.600
 2710SOL    MW410872   0.235   3.893   4.634
 2711SOL     OW10873   0.878   4.178   4.575
 2711SOL    HW210874   0.791   4.203   4.606
 2711SOL    HW310875   0.864   4.093   4.532
 2711SOL    MW410876   0.865   4.170   4.573
 2712SOL     OW10877   0.626   4.228   4.673
 2712SOL    HW210878   0.629   4.215   4.768
 2712SOL    HW310879   0.622   4.323   4.662
 2712SOL    MW410880   0.626   4.239   4.684
 2713SOL     OW10881   2.153   3.869   4.635
 2713SOL    HW210882   2.111   3.786   4.613
 2713SOL    HW310883   2.176   3.861   4.727
 2713SOL    MW410884   2.150   3.857   4.644
 2714SOL     OW10885   1.514   4.607   4.594
 2714SOL    HW210886   1.533   4.614   4.688
 2714SOL    HW310887   1.542   4.518   4.571
 2714SOL    MW410888   1.520   4.596   4.603
 2715SOL     OW10889   1.300   4.203   4.596
 2715SOL    HW210890   1.382   4.246   4.572
 2715SOL    HW310891   1.321   4.155   4.676
 2715SOL    MW410892   1.313   4.202   4.604
 2716SOL     OW10893   0.908   0.545   4.602
 2716SOL    HW210894   0.892   0.639   4.595
 2716SOL    HW310895   0.822   0.505   4.589
 2716SOL    MW410896   0.895   0.552   4.600
 2717SOL     OW10897   1.685   0.127   4.476
 2717SOL    HW210898   1.613   0.074   4.510
 2717SOL    HW310899   1.754   0.119   4.541
 2717SOL    MW410900   1.685   0.119   4.489
 2718SOL     OW10901   1.141   0.404   4.558
 2718SOL    HW210902   1.058   0.451   4.564
 2718SOL    HW310903   1.117   0.312   4.557
 2718SOL    MW410904   1.127   0.398   4.559
 2719SOL     OW10905   1.834   1.686   4.542
 2719SOL    HW210906   1.756   1.644   4.577
 2719SOL    HW310907   1.816   1.695   4.448
 2719SOL    MW410908   1.821   1.682   4.534
 2720SOL     OW10909   0.557   1.036   4.664
 2720SOL    HW210910   0.556   0.960   4.606
 2720SOL    HW310911   0.533   1.001   4.750
 2720SOL    MW410912   0.554   1.022   4.668
 2721SOL     OW10913   1.943   0.522   4.506
 2721SOL    HW210914   2.014   0.470   4.543
 2721SOL    HW310915   1.863   0.480   4.537
 2721SOL    MW410916   1.942   0.510   4.515
 2722SOL     OW10917   1.505   1.332   4.502
 2722SOL    HW210918   1.421   1.287   4.491
 2722SOL    HW310919   1.558   1.270   4.552
 2722SOL    MW410920   1.501   1.318   4.507
 2723SOL     OW10921   1.437   1.756   4.538
 2723SOL    HW210922   1.507   1.702   4.574
 2723SOL    HW310923   1.404   1.707   4.463
 2723SOL    MW410924   1.442   1.743   4.533
 2724SOL     OW10925   1.333   2.739   4.741
 2724SOL    HW210926   1.396   2.685   4.693
 2724SOL    HW310927   1.376   2.756   4.826
 2724SOL    MW410928   1.347   2.734   4.746
 2725SOL     OW10929   2.190   2.459   4.477
 2725SOL    HW210930   2.243   2.461   4.397
 2725SOL    HW310931   2.158   2.549   4.486
 2725SOL    MW410932   2.193   2.471   4.468
 2726SOL     OW10933   0.833   2.429   4.529
 2726SOL    HW210934   0.914   2.440   4.578
 2726SOL    HW310935   0.857   2.448   4.438
 2726SOL    MW410936   0.847   2.433   4.523
 2727SOL     OW10937   1.266   3.745   4.660
 2727SOL    HW210938   1.206   3.673   4.641
 2727SOL    HW310939   1.349   3.720   4.620
 2727SOL    MW410940   1.269   3.732   4.652
 2728SOL     OW10941   1.372   2.444   4.226
 2728SOL    HW210942   1.365   2.522   4.171
 2728SOL    HW310943   1.451   2.401   4.195
 2728SOL    MW410944   1.381   2.449   4.214
 2729SOL     OW10945   1.285   2.425   4.503
 2729SOL    HW210946   1.310   2.443   4.412
 2729SOL    HW310947   1.363   2.447   4.554
 2729SOL    MW410948   1.298   2.430   4.498
 2730SOL     OW10949   1.201   3.096   4.519
 2730SOL    HW210950   1.223   3.158   4.450
 2730SOL    HW310951   1.282   3.045   4.532
 2730SOL    MW410952   1.215   3.097   4.512
 2731SOL     OW10953   1.183   3.460   4.568
 2731SOL    HW210954   1.120   3.401   4.608
 2731SOL    HW310955   1.141   3.489   4.487
 2731SOL    MW410956   1.169   3.456   4.563
 2732SOL     OW10957   0.672   3.806   4.487
 2732SOL    HW210958   0.619   3.882   4.511
 2732SOL    HW310959   0.760   3.829   4.515
 2732SOL    MW410960   0.676   3.820   4.494
 2733SOL     OW10961   2.031   3.618   4.575
 2733SOL    HW210962   2.019   3.634   4.481
 2733SOL    HW310963   2.064   3.528   4.580
 2733SOL    MW410964   2.034   3.608   4.563
 2734SOL     OW10965   1.711   3.289   4.632
 2734SOL    HW210966   1.617   3.297   4.647
 2734SOL    HW310967   1.720   3.280   4.537
 2734SOL    MW410968   1.700   3.289   4.622
 2735SOL     OW10969   2.190   3.231   4.309
 2735SOL    HW210970   2.108   3.194   4.343
 2735SOL    HW310971   2.258   3.172   4.341
 2735SOL    MW410972   2.188   3.218   4.317
 2736SOL     OW10973   0.951   3.929   4.474
 2736SOL    HW210974   0.943   3.943   4.380
 2736SOL    HW310975   1.045   3.923   4.490
 2736SOL    MW410976   0.962   3.930   4.464
 2737SOL     OW10977   1.771   4.178   4.568
 2737SOL    HW210978   1.806   4.090   4.555
 2737SOL    HW310979   1.847   4.235   4.568
 2737SOL    MW410980   1.786   4.174   4.566
 2738SOL     OW10981   2.159   0.375   4.599
 2738SOL    HW210982   2.226   0.424   4.551
 2738SOL    HW310983   2.176   0.395   4.691
 2738SOL    MW410984   2.170   0.384   4.605
 2739SOL     OW10985   1.051   0.149   4.488
 2739SOL    HW210986   0.999   0.147   4.408
 2739SOL    HW310987   1.123   0.088   4.471
 2739SOL    MW410988   1.054   0.141   4.475
 2740SOL     OW10989   1.674   0.406   4.499
 2740SOL    HW210990   1.665   0.316   4.468
 2740SOL    HW310991   1.587   0.428   4.532
 2740SOL    MW410992   1.661   0.397   4.499
 2741SOL     OW10993   2.264   0.120   4.567
 2741SOL    HW210994   2.227   0.083   4.487
 2741SOL    HW310995   2.221   0.205   4.576
 2741SOL    MW410996   2.254   0.126   4.558
 2742SOL     OW10997   1.860   0.803   4.516
 2742SOL    HW210998   1.885   0.711   4.508
 2742SOL    HW310999   1.836   0.830   4.427
 2742SOL    MW411000   1.860   0.795   4.503
 2743SOL     OW11001   1.393   0.518   4.526
 2743SOL    HW211002   1.370   0.610   4.538
 2743SOL    HW311003   1.311   0.470   4.539
 2743SOL    MW411004   1.380   0.523   4.529
 2744SOL     OW11005   2.061   1.634   4.702
 2744SOL    HW211006   2.080   1.540   4.703
 2744SOL    HW311007   1.998   1.644   4.631
 2744SOL    MW411008   2.055   1.623   4.693
 2745SOL     OW11009   0.996   1.575   4.819
 2745SOL    HW211010   1.068   1.631   4.790
 2745SOL    HW311011   0.999   1.500   4.760
 2745SOL    MW411012   1.006   1.573   4.807
 2746SOL     OW11013   1.622   1.561   4.622
 2746SOL    HW211014   1.575   1.496   4.571
 2746SOL    HW311015   1.628   1.522   4.710
 2746SOL    MW411016   1.616   1.547   4.627
 2747SOL     OW11017   0.947   2.180   4.816
 2747SOL    HW211018   0.931   2.210   4.906
 2747SOL    HW311019   0.985   2.257   4.772
 2747SOL    MW411020   0.950   2.194   4.822
 2748SOL     OW11021   1.483   2.017   4.463
 2748SOL    HW211022   1.573   2.033   4.494
 2748SOL    HW311023   1.470   1.923   4.476
 2748SOL    MW411024   1.494   2.007   4.469
 2749SOL     OW11025   1.990   2.056   4.259
 2749SOL    HW211026   1.917   2.068   4.320
 2749SOL    HW311027   1.956   1.995   4.194
 2749SOL    MW411028   1.976   2.050   4.258
 2750SOL     OW11029   1.229   2.156   4.463
 2750SOL    HW211030   1.308   2.101   4.456
 2750SOL    HW311031   1.263   2.245   4.474
 2750SOL    MW411032   1.244   2.160   4.464
 2751SOL     OW11033   2.352   3.067   4.466
 2751SOL    HW211034   2.402   3.120   4.528
 2751SOL    HW311035   2.295   3.013   4.520
 2751SOL    MW411036   2.351   3.067   4.481
 2752SOL     OW11037   1.649   2.920   4.799
 2752SOL    HW211038   1.678   2.839   4.759
 2752SOL    HW311039   1.723   2.980   4.788
 2752SOL    MW411040   1.663   2.918   4.792
 2753SOL     OW11041   1.535   4.321   4.508
 2753SOL    HW211042   1.602   4.258   4.533
 2753SOL    HW311043   1.537   4.322   4.413
 2753SOL    MW411044   1.544   4.313   4.499
 2754SOL     OW11045   2.561   3.117   4.671
 2754SOL    HW211046   2.586   3.029   4.645
 2754SOL    HW311047   2.524   3.107   4.759
 2754SOL    MW411048   2.559   3.104   4.679
 2755SOL     OW11049   2.184   3.361   4.561
 2755SOL    HW211050   2.191   3.313   4.478
 2755SOL    HW311051   2.170   3.293   4.627
 2755SOL    MW411052   2.183   3.345   4.559
 2756SOL     OW11053   2.692   3.893   4.535
 2756SOL    HW211054   2.605   3.861   4.557
 2756SOL    HW311055   2.684   3.927   4.446
 2756SOL    MW411056   2.680   3.893   4.526
 2757SOL     OW11057   2.433   3.777   4.596
 2757SOL    HW211058   2.440   3.684   4.573
 2757SOL    HW311059   2.339   3.793   4.602
 2757SOL    MW411060   2.422   3.766   4.593
 2758SOL     OW11061   2.427   3.497   4.524
 2758SOL    HW211062   2.340   3.466   4.550
 2758SOL    HW311063   2.417   3.524   4.433
 2758SOL    MW411064   2.414   3.496   4.516
 2759SOL     OW11065   1.765   3.569   4.670
 2759SOL    HW211066   1.858   3.590   4.661
 2759SOL    HW311067   1.760   3.474   4.657
 2759SOL    MW411068   1.777   3.559   4.667
 2760SOL     OW11069   2.034   4.344   4.496
 2760SOL    HW211070   2.082   4.262   4.497
 2760SOL    HW311071   2.083   4.402   4.554
 2760SOL    MW411072   2.047   4.341   4.504
 2761SOL     OW11073   1.218   3.951   4.476
 2761SOL    HW211074   1.246   4.036   4.510
 2761SOL    HW311075   1.229   3.890   4.549
 2761SOL    MW411076   1.223   3.954   4.490
 2762SOL     OW11077   1.938   4.665   4.590
 2762SOL    HW211078   2.017   4.625   4.626
 2762SOL    HW311079   1.919   4.614   4.511
 2762SOL    MW411080   1.946   4.653   4.584
 2763SOL     OW11081   2.206   4.511   4.635
 2763SOL    HW211082   2.281   4.457   4.612
 2763SOL    HW311083   2.240   4.600   4.639
 2763SOL    MW411084   2.220   4.516   4.632
 2764SOL     OW11085   1.653   1.407   4.848
 2764SOL    HW211086   1.685   1.329   4.803
 2764SOL    HW311087   1.728   1.437   4.900
 2764SOL    MW411088   1.667   1.401   4.849
 2765SOL     OW11089   2.562   0.087   4.587
 2765SOL    HW211090   2.468   0.105   4.576
 2765SOL    HW311091   2.596   0.087   4.497
 2765SOL    MW411092   2.554   0.089   4.573
 2766SOL     OW11093   2.405   0.768   4.548
 2766SOL    HW211094   2.353   0.847   4.562
 2766SOL    HW311095   2.496   0.799   4.542
 2766SOL    MW411096   2.410   0.782   4.549
 2767SOL     OW11097   2.856   0.677   4.664
 2767SOL    HW211098   2.918   0.750   4.654
 2767SOL    HW311099   2.892   0.609   4.606
 2767SOL    MW411100   2.869   0.678   4.655
 2768SOL     OW11101   2.167   1.351   4.641
 2768SOL    HW211102   2.211   1.306   4.713
 2768SOL    HW311103   2.228   1.344   4.567
 2768SOL    MW411104   2.181   1.344   4.640
 2769SOL     OW11105   2.414   1.324   4.489
 2769SOL    HW211106   2.478   1.257   4.514
 2769SOL    HW311107   2.447   1.404   4.529
 2769SOL    MW411108   2.427   1.326   4.498
 2770SOL     OW11109   2.513   1.570   4.621
 2770SOL    HW211110   2.588   1.617   4.586
 2770SOL    HW311111   2.442   1.635   4.622
 2770SOL    MW411112   2.513   1.585   4.616
 2771SOL     OW11113   2.295   1.749   4.585
 2771SOL    HW211114   2.287   1.712   4.497
 2771SOL    HW311115   2.214   1.722   4.629
 2771SOL    MW411116   2.283   1.741   4.579
 2772SOL     OW11117   2.345   2.257   4.638
 2772SOL    HW211118   2.416   2.319   4.619
 2772SOL    HW311119   2.267   2.300   4.603
 2772SOL    MW411120   2.344   2.271   4.631
 2773SOL     OW11121   2.421   2.005   4.555
 2773SOL    HW211122   2.372   1.933   4.595
 2773SOL    HW311123   2.382   2.084   4.592
 2773SOL    MW411124   2.410   2.006   4.566
 2774SOL     OW11125   2.633   2.315   4.355
 2774SOL    HW211126   2.578   2.365   4.416
 2774SOL    HW311127   2.578   2.241   4.329
 2774SOL    MW411128   2.618   2.312   4.360
 2775SOL     OW11129   1.756   2.688   4.685
 2775SOL    HW211130   1.819   2.748   4.644
 2775SOL    HW311131   1.803   2.650   4.759
 2775SOL    MW411132   1.771   2.691   4.689
 2776SOL     OW11133   2.135   3.147   4.710
 2776SOL    HW211134   2.040   3.154   4.714
 2776SOL    HW311135   2.151   3.059   4.676
 2776SOL    MW411136   2.125   3.136   4.706
 2777SOL     OW11137   2.658   3.346   4.563
 2777SOL    HW211138   2.633   3.270   4.616
 2777SOL    HW311139   2.580   3.400   4.560
 2777SOL    MW411140   2.645   3.343   4.569
 2778SOL     OW11141   2.371   3.111   4.867
 2778SOL    HW211142   2.350   3.122   4.959
 2778SOL    HW311143   2.290   3.132   4.821
 2778SOL    MW411144   2.357   3.115   4.873
 2779SOL     OW11145   1.337   4.016   4.812
 2779SOL    HW211146   1.353   3.925   4.785
 2779SOL    HW311147   1.243   4.018   4.832
 2779SOL    MW411148   1.327   4.004   4.811
 2780SOL     OW11149   2.643   4.190   4.652
 2780SOL    HW211150   2.555   4.221   4.628
 2780SOL    HW311151   2.650   4.105   4.610
 2780SOL    MW411152   2.632   4.183   4.643
 2781SOL     OW11153   1.867   3.083   4.727
 2781SOL    HW211154   1.894   3.025   4.655
 2781SOL    HW311155   1.826   3.157   4.683
 2781SOL    MW411156   1.865   3.085   4.712
 2782SOL     OW11157   3.254   3.875   4.581
 2782SOL    HW211158   3.211   3.959   4.563
 2782SOL    HW311159   3.186   3.809   4.569
 2782SOL    MW411160   3.240   3.878   4.577
 2783SOL     OW11161   3.063   4.085   4.526
 2783SOL    HW211162   2.997   4.020   4.553
 2783SOL    HW311163   3.057   4.153   4.593
 2783SOL    MW411164   3.053   4.085   4.539
 2784SOL     OW11165   2.201   4.096   4.491
 2784SOL    HW211166   2.181   4.015   4.539
 2784SOL    HW311167   2.193   4.071   4.399
 2784SOL    MW411168   2.197   4.082   4.486
 2785SOL     OW11169   2.394   4.310   4.558
 2785SOL    HW211170   2.329   4.239   4.554
 2785SOL    HW311171   2.414   4.329   4.466
 2785SOL    MW411172   2.388   4.303   4.545
 2786SOL     OW11173   2.961   0.446   4.506
 2786SOL    HW211174   2.929   0.449   4.416
 2786SOL    HW311175   3.056   0.458   4.498
 2786SOL    MW411176   2.969   0.448   4.493
 2787SOL     OW11177   2.600   0.380   4.624
 2787SOL    HW211178   2.591   0.286   4.639
 2787SOL    HW311179   2.642   0.412   4.704
 2787SOL    MW411180   2.604   0.372   4.637
 2788SOL     OW11181   3.204   0.255   4.678
 2788SOL    HW211182   3.119   0.262   4.721
 2788SOL    HW311183   3.208   0.331   4.620
 2788SOL    MW411184   3.193   0.266   4.676
 2789SOL     OW11185   2.664   0.866   4.528
 2789SOL    HW211186   2.711   0.789   4.559
 2789SOL    HW311187   2.695   0.878   4.438
 2789SOL    MW411188   2.674   0.857   4.520
 2790SOL     OW11189   3.478   0.650   4.793
 2790SOL    HW211190   3.558   0.695   4.768
 2790SOL    HW311191   3.491   0.560   4.764
 2790SOL    MW411192   3.490   0.644   4.786
 2791SOL     OW11193   2.126   0.944   4.519
 2791SOL    HW211194   2.091   1.031   4.539
 2791SOL    HW311195   2.050   0.886   4.527
 2791SOL    MW411196   2.111   0.948   4.523
 2792SOL     OW11197   2.577   1.133   4.615
 2792SOL    HW211198   2.648   1.185   4.653
 2792SOL    HW311199   2.620   1.056   4.578
 2792SOL    MW411200   2.592   1.130   4.615
 2793SOL     OW11201   2.948   1.339   4.564
 2793SOL    HW211202   2.885   1.372   4.629
 2793SOL    HW311203   2.897   1.332   4.483
 2793SOL    MW411204   2.933   1.342   4.562
 2794SOL     OW11205   3.048   1.596   4.520
 2794SOL    HW211206   2.972   1.649   4.544
 2794SOL    HW311207   3.017   1.505   4.525
 2794SOL    MW411208   3.034   1.591   4.524
 2795SOL     OW11209   2.733   1.703   4.528
 2795SOL    HW211210   2.705   1.792   4.552
 2795SOL    HW311211   2.715   1.697   4.434
 2795SOL    MW411212   2.727   1.714   4.519
 2796SOL     OW11213   2.711   1.976   4.637
 2796SOL    HW211214   2.768   2.041   4.595
 2796SOL    HW311215   2.622   2.006   4.616
 2796SOL    MW411216   2.707   1.989   4.628
 2797SOL     OW11217   2.864   2.163   4.468
 2797SOL    HW211218   2.796   2.221   4.432
 2797SOL    HW311219   2.889   2.107   4.394
 2797SOL    MW411220   2.858   2.163   4.453
 2798SOL     OW11221   3.105   2.166   4.618
 2798SOL    HW211222   3.071   2.164   4.708
 2798SOL    HW311223   3.027   2.164   4.563
 2798SOL    MW411224   3.090   2.166   4.623
 2799SOL     OW11225   2.414   2.855   4.749
 2799SOL    HW211226   2.401   2.927   4.811
 2799SOL    HW311227   2.346   2.868   4.683
 2799SOL    MW411228   2.403   2.866   4.749
 2800SOL     OW11229   3.528   3.109   4.565
 2800SOL    HW211230   3.466   3.090   4.636
 2800SOL    HW311231   3.518   3.204   4.550
 2800SOL    MW411232   3.518   3.119   4.572
 2801SOL     OW11233   2.557   2.740   4.560
 2801SOL    HW211234   2.510   2.786   4.629
 2801SOL    HW311235   2.519   2.775   4.479
 2801SOL    MW411236   2.546   2.751   4.558
 2802SOL     OW11237   2.922   3.502   4.552
 2802SOL    HW211238   2.977   3.424   4.560
 2802SOL    HW311239   2.835   3.472   4.578
 2802SOL    MW411240   2.918   3.488   4.557
 2803SOL     OW11241   2.837   2.867   4.532
 2803SOL    HW211242   2.898   2.802   4.567
 2803SOL    HW311243   2.750   2.834   4.555
 2803SOL    MW411244   2.833   2.854   4.539
 2804SOL     OW11245   2.833   4.635   4.601
 2804SOL    HW211246   2.817   4.542   4.588
 2804SOL    HW311247   2.745   4.674   4.604
 2804SOL    MW411248   2.819   4.628   4.600
 2805SOL     OW11249   3.457   3.693   4.705
 2805SOL    HW211250   3.431   3.631   4.637
 2805SOL    HW311251   3.391   3.762   4.701
 2805SOL    MW411252   3.445   3.694   4.696
 2806SOL     OW11253   3.915   3.720   4.642
 2806SOL    HW211254   3.990   3.692   4.694
 2806SOL    HW311255   3.886   3.641   4.596
 2806SOL    MW411256   3.921   3.706   4.643
 2807SOL     OW11257   2.959   3.784   4.563
 2807SOL    HW211258   2.872   3.824   4.560
 2807SOL    HW311259   2.943   3.691   4.576
 2807SOL    MW411260   2.946   3.777   4.564
 2808SOL     OW11261   2.850   4.363   4.556
 2808SOL    HW211262   2.777   4.322   4.602
 2808SOL    HW311263   2.926   4.344   4.612
 2808SOL    MW411264   2.851   4.355   4.570
 2809SOL     OW11265   2.940   0.277   4.720
 2809SOL    HW211266   2.934   0.335   4.644
 2809SOL    HW311267   2.906   0.193   4.689
 2809SOL    MW411268   2.934   0.274   4.706
 2810SOL     OW11269   3.253   0.498   4.535
 2810SOL    HW211270   3.282   0.506   4.444
 2810SOL    HW311271   3.254   0.587   4.568
 2810SOL    MW411272   3.257   0.510   4.527
 2811SOL     OW11273   2.385   0.496   4.528
 2811SOL    HW211274   2.464   0.455   4.565
 2811SOL    HW311275   2.403   0.590   4.532
 2811SOL    MW411276   2.398   0.503   4.533
 2812SOL     OW11277   2.380   1.214   4.799
 2812SOL    HW211278   2.445   1.178   4.739
 2812SOL    HW311279   2.367   1.144   4.864
 2812SOL    MW411280   2.387   1.200   4.800
 2813SOL     OW11281   2.762   0.462   4.840
 2813SOL    HW211282   2.788   0.539   4.789
 2813SOL    HW311283   2.835   0.402   4.832
 2813SOL    MW411284   2.775   0.464   4.832
 2814SOL     OW11285   3.311   0.763   4.602
 2814SOL    HW211286   3.379   0.821   4.567
 2814SOL    HW311287   3.350   0.727   4.682
 2814SOL    MW411288   3.325   0.766   4.608
 2815SOL     OW11289   3.347   1.172   4.518
 2815SOL    HW211290   3.263   1.152   4.559
 2815SOL    HW311291   3.404   1.100   4.544
 2815SOL    MW411292   3.343   1.160   4.527
 2816SOL     OW11293   2.669   1.362   4.763
 2816SOL    HW211294   2.657   1.335   4.854
 2816SOL    HW311295   2.612   1.438   4.752
 2816SOL    MW411296   2.660   1.368   4.773
 2817SOL     OW11297   3.918   0.937   4.569
 2817SOL    HW211298   3.948   0.929   4.478
 2817SOL    HW311299   3.983   0.889   4.620
 2817SOL    MW411300   3.931   0.930   4.564
 2818SOL     OW11301   3.406   1.409   4.668
 2818SOL    HW211302   3.365   1.484   4.625
 2818SOL    HW311303   3.383   1.335   4.612
 2818SOL    MW411304   3.397   1.409   4.655
 2819SOL     OW11305   3.316   1.676   4.569
 2819SOL    HW211306   3.308   1.771   4.561
 2819SOL    HW311307   3.226   1.644   4.567
 2819SOL    MW411308   3.303   1.684   4.567
 2820SOL     OW11309   3.261   1.967   4.550
 2820SOL    HW211310   3.197   2.034   4.572
 2820SOL    HW311311   3.300   1.996   4.467
 2820SOL    MW411312   3.258   1.979   4.542
 2821SOL     OW11313   3.639   1.737   4.716
 2821SOL    HW211314   3.665   1.657   4.761
 2821SOL    HW311315   3.603   1.707   4.632
 2821SOL    MW411316   3.638   1.723   4.711
 2822SOL     OW11317   2.861   2.729   4.232
 2822SOL    HW211318   2.853   2.812   4.185
 2822SOL    HW311319   2.860   2.754   4.324
 2822SOL    MW411320   2.860   2.743   4.238
 2823SOL     OW11321   3.476   2.468   4.530
 2823SOL    HW211322   3.381   2.473   4.523
 2823SOL    HW311323   3.506   2.559   4.521
 2823SOL    MW411324   3.468   2.481   4.528
 2824SOL     OW11325   3.194   2.448   4.503
 2824SOL    HW211326   3.172   2.425   4.413
 2824SOL    HW311327   3.167   2.372   4.555
 2824SOL    MW411328   3.187   2.435   4.498
 2825SOL     OW11329   3.608   2.721   4.561
 2825SOL    HW211330   3.647   2.800   4.523
 2825SOL    HW311331   3.681   2.677   4.604
 2825SOL    MW411332   3.623   2.726   4.561
 2826SOL     OW11333   3.282   3.089   4.696
 2826SOL    HW211334   3.291   3.000   4.661
 2826SOL    HW311335   3.235   3.079   4.778
 2826SOL    MW411336   3.277   3.076   4.702
 2827SOL     OW11337   3.349   2.864   4.531
 2827SOL    HW211338   3.348   2.869   4.435
 2827SOL    HW311339   3.417   2.799   4.550
 2827SOL    MW411340   3.358   2.856   4.521
 2828SOL     OW11341   4.148   2.545   4.483
 2828SOL    HW211342   4.236   2.509   4.497
 2828SOL    HW311343   4.155   2.637   4.508
 2828SOL    MW411344   4.161   2.552   4.488
 2829SOL     OW11345   3.597   3.364   4.482
 2829SOL    HW211346   3.687   3.380   4.511
 2829SOL    HW311347   3.607   3.324   4.396
 2829SOL    MW411348   3.611   3.361   4.475
 2830SOL     OW11349   3.487   4.037   4.526
 2830SOL    HW211350   3.563   3.994   4.563
 2830SOL    HW311351   3.419   3.970   4.526
 2830SOL    MW411352   3.488   4.023   4.531
 2831SOL     OW11353   3.074   4.304   4.715
 2831SOL    HW211354   3.093   4.280   4.806
 2831SOL    HW311355   3.141   4.369   4.693
 2831SOL    MW411356   3.085   4.309   4.724
 2832SOL     OW11357   3.106   0.012   4.507
 2832SOL    HW211358   3.020  -0.014   4.540
 2832SOL    HW311359   3.123   0.097   4.549
 2832SOL    MW411360   3.097   0.020   4.517
 2833SOL     OW11361   3.433   4.330   4.519
 2833SOL    HW211362   3.447   4.238   4.542
 2833SOL    HW311363   3.521   4.369   4.524
 2833SOL    MW411364   3.447   4.323   4.523
 2834SOL     OW11365   3.670   3.872   4.685
 2834SOL    HW211366   3.750   3.821   4.675
 2834SOL    HW311367   3.601   3.806   4.695
 2834SOL    MW411368   3.671   3.857   4.685
 2835SOL     OW11369   3.420   0.079   4.736
 2835SOL    HW211370   3.391  -0.010   4.712
 2835SOL    HW311371   3.340   0.132   4.731
 2835SOL    MW411372   3.405   0.074   4.732
 2836SOL     OW11373   3.042   0.880   4.592
 2836SOL    HW211374   3.049   0.968   4.627
 2836SOL    HW311375   3.130   0.843   4.602
 2836SOL    MW411376   3.055   0.887   4.598
 2837SOL     OW11377   3.103   1.124   4.667
 2837SOL    HW211378   3.086   1.113   4.760
 2837SOL    HW311379   3.062   1.206   4.643
 2837SOL    MW411380   3.096   1.133   4.676
 2838SOL     OW11381   4.024   1.466   4.669
 2838SOL    HW211382   4.061   1.396   4.617
 2838SOL    HW311383   3.938   1.434   4.695
 2838SOL    MW411384   4.017   1.453   4.666
 2839SOL     OW11385   3.706   1.140   4.546
 2839SOL    HW211386   3.730   1.181   4.463
 2839SOL    HW311387   3.776   1.078   4.564
 2839SOL    MW411388   3.718   1.138   4.538
 2840SOL     OW11389   0.108   0.922   4.564
 2840SOL    HW211390   0.098   0.903   4.470
 2840SOL    HW311391   0.022   0.953   4.591
 2840SOL    MW411392   0.096   0.923   4.555
 2841SOL     OW11393   4.196   0.552   4.567
 2841SOL    HW211394   4.197   0.541   4.472
 2841SOL    HW311395   4.139   0.483   4.599
 2841SOL    MW411396   4.189   0.542   4.559
 2842SOL     OW11397   3.645   1.598   4.451
 2842SOL    HW211398   3.737   1.621   4.439
 2842SOL    HW311399   3.646   1.525   4.513
 2842SOL    MW411400   3.657   1.592   4.458
 2843SOL     OW11401   3.869   1.879   4.614
 2843SOL    HW211402   3.792   1.849   4.663
 2843SOL    HW311403   3.852   1.971   4.596
 2843SOL    MW411404   3.857   1.887   4.618
 2844SOL     OW11405   3.500   2.018   4.693
 2844SOL    HW211406   3.553   1.938   4.699
 2844SOL    HW311407   3.417   1.989   4.656
 2844SOL    MW411408   3.496   2.004   4.689
 2845SOL     OW11409   4.192   2.172   4.771
 2845SOL    HW211410   4.174   2.079   4.757
 2845SOL    HW311411   4.200   2.181   4.866
 2845SOL    MW411412   4.190   2.161   4.782
 2846SOL     OW11413   4.144   1.898   4.714
 2846SOL    HW211414   4.053   1.874   4.694
 2846SOL    HW311415   4.190   1.815   4.719
 2846SOL    MW411416   4.138   1.884   4.712
 2847SOL     OW11417   3.808   2.146   4.541
 2847SOL    HW211418   3.859   2.225   4.558
 2847SOL    HW311419   3.723   2.162   4.582
 2847SOL    MW411420   3.804   2.158   4.548
 2848SOL     OW11421   3.780   2.533   4.678
 2848SOL    HW211422   3.745   2.458   4.727
 2848SOL    HW311423   3.855   2.498   4.631
 2848SOL    MW411424   3.785   2.518   4.678
 2849SOL     OW11425   3.750   2.971   4.478
 2849SOL    HW211426   3.824   3.006   4.528
 2849SOL    HW311427   3.673   3.013   4.516
 2849SOL    MW411428   3.749   2.982   4.489
 2850SOL     OW11429   4.000   3.055   4.588
 2850SOL    HW211430   3.976   3.058   4.681
 2850SOL    HW311431   4.066   2.986   4.583
 2850SOL    MW411432   4.005   3.046   4.600
 2851SOL     OW11433   3.156   3.318   4.570
 2851SOL    HW211434   3.188   3.244   4.621
 2851SOL    HW311435   3.155   3.287   4.479
 2851SOL    MW411436   3.160   3.304   4.565
 2852SOL     OW11437   4.081   3.293   4.493
 2852SOL    HW211438   4.053   3.211   4.533
 2852SOL    HW311439   4.064   3.281   4.399
 2852SOL    MW411440   4.075   3.280   4.486
 2853SOL     OW11441   3.366   3.513   4.523
 2853SOL    HW211442   3.304   3.444   4.548
 2853SOL    HW311443   3.449   3.467   4.510
 2853SOL    MW411444   3.369   3.498   4.524
 2854SOL     OW11445   3.855   3.461   4.533
 2854SOL    HW211446   3.836   3.513   4.455
 2854SOL    HW311447   3.937   3.416   4.512
 2854SOL    MW411448   3.864   3.462   4.520
 2855SOL     OW11449   4.419   2.910   4.593
 2855SOL    HW211450   4.499   2.857   4.589
 2855SOL    HW311451   4.450   3.001   4.593
 2855SOL    MW411452   4.434   2.915   4.593
 2856SOL     OW11453   4.022   3.959   4.514
 2856SOL    HW211454   3.965   4.015   4.567
 2856SOL    HW311455   3.998   3.870   4.539
 2856SOL    MW411456   4.011   3.954   4.525
 2857SOL     OW11457   3.671   4.450   4.506
 2857SOL    HW211458   3.695   4.430   4.415
 2857SOL    HW311459   3.679   4.545   4.512
 2857SOL    MW411460   3.675   4.459   4.495
 2858SOL     OW11461   3.271   4.495   4.646
 2858SOL    HW211462   3.337   4.439   4.604
 2858SOL    HW311463   3.218   4.529   4.574
 2858SOL    MW411464   3.273   4.492   4.631
 2859SOL     OW11465   3.519   0.951   4.508
 2859SOL    HW211466   3.587   1.014   4.534
 2859SOL    HW311467   3.528   0.945   4.413
 2859SOL    MW411468   3.529   0.958   4.499
 2860SOL     OW11469   3.720   0.721   4.569
 2860SOL    HW211470   3.788   0.785   4.592
 2860SOL    HW311471   3.648   0.774   4.534
 2860SOL    MW411472   3.719   0.737   4.567
 2861SOL     OW11473   4.412   0.399   4.690
 2861SOL    HW211474   4.495   0.440   4.664
 2861SOL    HW311475   4.344   0.454   4.650
 2861SOL    MW411476   4.414   0.412   4.681
 2862SOL     OW11477   0.211   0.503   4.569
 2862SOL    HW211478   0.275   0.433   4.581
 2862SOL    HW311479   0.192   0.501   4.475
 2862SOL    MW411480   0.217   0.493   4.558
 2863SOL     OW11481   3.999   0.362   4.671
 2863SOL    HW211482   3.910   0.394   4.656
 2863SOL    HW311483   4.008   0.287   4.613
 2863SOL    MW411484   3.989   0.356   4.662
 2864SOL     OW11485   3.686   1.407   4.663
 2864SOL    HW211486   3.709   1.319   4.632
 2864SOL    HW311487   3.592   1.401   4.680
 2864SOL    MW411488   3.676   1.394   4.661
 2865SOL     OW11489   4.410   1.433   4.536
 2865SOL    HW211490   4.504   1.425   4.553
 2865SOL    HW311491   4.399   1.522   4.503
 2865SOL    MW411492   4.421   1.443   4.534
 2866SOL     OW11493   0.199   1.371   4.583
 2866SOL    HW211494   0.253   1.292   4.580
 2866SOL    HW311495   0.256   1.440   4.550
 2866SOL    MW411496   0.214   1.370   4.578
 2867SOL     OW11497   3.936   1.651   4.496
 2867SOL    HW211498   3.967   1.594   4.567
 2867SOL    HW311499   3.923   1.736   4.539
 2867SOL    MW411500   3.938   1.654   4.511
 2868SOL     OW11501   3.087   2.712   4.559
 2868SOL    HW211502   3.156   2.777   4.547
 2868SOL    HW311503   3.131   2.628   4.545
 2868SOL    MW411504   3.102   2.709   4.556
 2869SOL     OW11505   4.298   2.055   4.241
 2869SOL    HW211506   4.217   2.023   4.202
 2869SOL    HW311507   4.285   2.042   4.335
 2869SOL    MW411508   4.286   2.049   4.248
 2870SOL     OW11509   4.425   2.208   4.615
 2870SOL    HW211510   4.348   2.214   4.672
 2870SOL    HW311511   4.428   2.293   4.571
 2870SOL    MW411512   4.415   2.220   4.617
 2871SOL     OW11513   4.293   1.984   4.502
 2871SOL    HW211514   4.242   1.956   4.578
 2871SOL    HW311515   4.350   2.054   4.535
 2871SOL    MW411516   4.294   1.990   4.516
 2872SOL     OW11517   3.613   2.286   4.694
 2872SOL    HW211518   3.555   2.346   4.646
 2872SOL    HW311519   3.560   2.208   4.709
 2872SOL    MW411520   3.599   2.284   4.690
 2873SOL     OW11521   0.414   2.599   4.584
 2873SOL    HW211522   0.415   2.509   4.552
 2873SOL    HW311523   0.502   2.612   4.621
 2873SOL    MW411524   0.426   2.589   4.585
 2874SOL     OW11525   4.170   2.839   4.528
 2874SOL    HW211526   4.257   2.860   4.564
 2874SOL    HW311527   4.178   2.857   4.435
 2874SOL    MW411528   4.183   2.844   4.521
 2875SOL     OW11529   0.048   3.172   4.559
 2875SOL    HW211530   0.024   3.170   4.467
 2875SOL    HW311531   0.142   3.190   4.560
 2875SOL    MW411532   0.057   3.174   4.547
 2876SOL     OW11533   0.164   3.671   4.506
 2876SOL    HW211534   0.183   3.674   4.412
 2876SOL    HW311535   0.068   3.671   4.510
 2876SOL    MW411536   0.154   3.671   4.494
 2877SOL     OW11537   4.164   0.023   4.625
 2877SOL    HW211538   4.088   0.059   4.580
 2877SOL    HW311539   4.178   0.082   4.700
 2877SOL    MW411540   4.156   0.036   4.629
 2878SOL     OW11541   3.663   0.051   4.513
 2878SOL    HW211542   3.610   0.080   4.588
 2878SOL    HW311543   3.611   0.076   4.437
 2878SOL    MW411544   3.649   0.058   4.513
 2879SOL     OW11545   4.385   3.805   4.832
 2879SOL    HW211546   4.478   3.813   4.812
 2879SOL    HW311547   4.342   3.870   4.777
 2879SOL    MW411548   4.392   3.814   4.822
 2880SOL     OW11549   3.485   0.389   4.663
 2880SOL    HW211550   3.474   0.303   4.704
 2880SOL    HW311551   3.397   0.414   4.636
 2880SOL    MW411552   3.472   0.381   4.665
 2881SOL     OW11553   4.187   4.425   4.265
 2881SOL    HW211554   4.270   4.389   4.234
 2881SOL    HW311555   4.197   4.429   4.360
 2881SOL    MW411556   4.199   4.421   4.274
 2882NA      NA11557   2.560   4.393   0.597
 2883NA      NA11558   0.683   2.506   0.354
   4.49070   4.66690  10.00000
