Gromacs Runs On Most of All Computer Systems in water t= 840.00000 step= 840000
11558
    1RG35     P    1   2.232   2.849   4.448
    1RG35   O1P    2   2.228   2.751   4.337
    1RG35   O2P    3   2.175   2.984   4.417
    1RG35   O5'    4   2.125   2.781   4.552
    1RG35   C5'    5   1.984   2.817   4.543
    1RG35  H5'1    6   1.957   2.834   4.439
    1RG35  H5'2    7   1.967   2.912   4.595
    1RG35   C4'    8   1.889   2.714   4.592
    1RG35   H4'    9   1.786   2.745   4.579
    1RG35   O4'   10   1.909   2.603   4.508
    1RG35   C1'   11   1.923   2.493   4.601
    1RG35   H1'   12   1.825   2.461   4.634
    1RG35    N9   13   1.981   2.385   4.525
    1RG35    C8   14   2.086   2.377   4.439
    1RG35    H8   15   2.151   2.463   4.433
    1RG35    N7   16   2.099   2.262   4.378
    1RG35    C5   17   1.999   2.185   4.439
    1RG35    C6   18   1.962   2.050   4.419
    1RG35    O6   19   2.001   1.968   4.335
    1RG35    N1   20   1.861   2.004   4.497
    1RG35    H1   21   1.842   1.905   4.498
    1RG35    C2   22   1.789   2.089   4.569
    1RG35    N2   23   1.678   2.039   4.616
    1RG35   H21   24   1.667   1.939   4.619
    1RG35   H22   25   1.621   2.095   4.678
    1RG35    N3   26   1.810   2.220   4.592
    1RG35    C4   27   1.924   2.260   4.529
    1RG35   C3'   28   1.929   2.676   4.734
    1RG35   H3'   29   1.995   2.749   4.780
    1RG35   C2'   30   2.001   2.535   4.727
    1RG35  H2'1   31   2.109   2.537   4.715
    1RG35   O2'   32   1.972   2.470   4.847
    1RG35  HO'2   33   2.033   2.397   4.861
    1RG35   O3'   34   1.813   2.670   4.811
    1RG35   H3T   35   1.837   2.629   4.894
    1RG35   O3P   36   2.363   2.860   4.508
    2SOL     OW   37   0.420   0.107   0.419
    2SOL    HW2   38   0.426   0.012   0.411
    2SOL    HW3   39   0.505   0.139   0.390
    2SOL    MW4   40   0.432   0.099   0.414
    3SOL     OW   41   3.602   0.452   0.229
    3SOL    HW2   42   3.593   0.450   0.134
    3SOL    HW3   43   3.666   0.521   0.246
    3SOL    MW4   44   3.609   0.461   0.219
    4SOL     OW   45   3.761   0.294   0.420
    4SOL    HW2   46   3.714   0.335   0.348
    4SOL    HW3   47   3.783   0.366   0.479
    4SOL    MW4   48   3.758   0.309   0.418
    5SOL     OW   49   0.676   1.731   0.532
    5SOL    HW2   50   0.689   1.641   0.500
    5SOL    HW3   51   0.581   1.738   0.545
    5SOL    MW4   52   0.665   1.720   0.529
    6SOL     OW   53   1.472   0.840   0.426
    6SOL    HW2   54   1.457   0.877   0.514
    6SOL    HW3   55   1.566   0.849   0.412
    6SOL    MW4   56   1.482   0.846   0.436
    7SOL     OW   57   0.227   0.522   0.489
    7SOL    HW2   58   0.212   0.512   0.583
    7SOL    HW3   59   0.207   0.436   0.452
    7SOL    MW4   60   0.223   0.509   0.497
    8SOL     OW   61   0.553   0.887   0.499
    8SOL    HW2   62   0.545   0.882   0.594
    8SOL    HW3   63   0.523   0.802   0.468
    8SOL    MW4   64   0.548   0.875   0.508
    9SOL     OW   65   0.830   0.853   0.452
    9SOL    HW2   66   0.858   0.850   0.543
    9SOL    HW3   67   0.734   0.859   0.457
    9SOL    MW4   68   0.821   0.853   0.465
   10SOL     OW   69   0.422   1.089   0.348
   10SOL    HW2   70   0.373   1.059   0.271
   10SOL    HW3   71   0.455   1.009   0.387
   10SOL    MW4   72   0.420   1.075   0.343
   11SOL     OW   73   4.211   1.480   0.419
   11SOL    HW2   74   4.122   1.503   0.390
   11SOL    HW3   75   4.198   1.415   0.488
   11SOL    MW4   76   4.198   1.475   0.424
   12SOL     OW   77   4.040   2.324   0.561
   12SOL    HW2   78   3.950   2.291   0.574
   12SOL    HW3   79   4.031   2.419   0.565
   12SOL    MW4   80   4.027   2.332   0.563
   13SOL     OW   81   4.449   1.626   0.469
   13SOL    HW2   82   4.456   1.634   0.565
   13SOL    HW3   83   4.365   1.581   0.455
   13SOL    MW4   84   4.439   1.621   0.480
   14SOL     OW   85   0.777   2.347   0.366
   14SOL    HW2   86   0.853   2.388   0.408
   14SOL    HW3   87   0.784   2.371   0.274
   14SOL    MW4   88   0.788   2.355   0.359
   15SOL     OW   89   0.231   2.712   0.486
   15SOL    HW2   90   0.215   2.802   0.457
   15SOL    HW3   91   0.315   2.689   0.447
   15SOL    MW4   92   0.240   2.721   0.477
   16SOL     OW   93   4.104   3.370   0.488
   16SOL    HW2   94   4.136   3.310   0.421
   16SOL    HW3   95   4.110   3.320   0.570
   16SOL    MW4   96   4.109   3.355   0.490
   17SOL     OW   97   0.216   2.988   0.419
   17SOL    HW2   98   0.295   3.038   0.436
   17SOL    HW3   99   0.145   3.051   0.426
   17SOL    MW4  100   0.217   3.003   0.422
   18SOL     OW  101   0.653   3.271   0.350
   18SOL    HW2  102   0.683   3.274   0.441
   18SOL    HW3  103   0.617   3.358   0.334
   18SOL    MW4  104   0.652   3.283   0.360
   19SOL     OW  105   0.710   3.857   0.370
   19SOL    HW2  106   0.783   3.913   0.346
   19SOL    HW3  107   0.637   3.918   0.385
   19SOL    MW4  108   0.710   3.873   0.369
   20SOL     OW  109   4.236   3.809   0.346
   20SOL    HW2  110   4.271   3.890   0.383
   20SOL    HW3  111   4.250   3.743   0.413
   20SOL    MW4  112   4.242   3.811   0.359
   21SOL     OW  113   4.394   3.645   0.144
   21SOL    HW2  114   4.448   3.715   0.107
   21SOL    HW3  115   4.323   3.691   0.189
   21SOL    MW4  116   4.392   3.661   0.145
   22SOL     OW  117   4.392   4.498   0.482
   22SOL    HW2  118   4.312   4.501   0.430
   22SOL    HW3  119   4.363   4.479   0.571
   22SOL    MW4  120   4.378   4.496   0.486
   23SOL     OW  121   4.067   4.234   0.375
   23SOL    HW2  122   4.025   4.223   0.461
   23SOL    HW3  123   4.014   4.182   0.315
   23SOL    MW4  124   4.054   4.226   0.379
   24SOL     OW  125   4.214   0.129   0.470
   24SOL    HW2  126   4.275   0.165   0.405
   24SOL    HW3  127   4.242   0.168   0.553
   24SOL    MW4  128   4.226   0.139   0.473
   25SOL     OW  129   0.473   3.088   0.474
   25SOL    HW2  130   0.467   3.117   0.566
   25SOL    HW3  131   0.524   3.157   0.431
   25SOL    MW4  132   0.479   3.101   0.481
   26SOL     OW  133   0.405   4.489   0.364
   26SOL    HW2  134   0.320   4.453   0.392
   26SOL    HW3  135   0.393   4.509   0.272
   26SOL    MW4  136   0.392   4.487   0.356
   27SOL     OW  137   0.173   0.259   0.438
   27SOL    HW2  138   0.118   0.202   0.491
   27SOL    HW3  139   0.258   0.215   0.435
   27SOL    MW4  140   0.177   0.246   0.444
   28SOL     OW  141   0.031   0.719   0.476
   28SOL    HW2  142   0.104   0.658   0.470
   28SOL    HW3  143   0.065   0.801   0.441
   28SOL    MW4  144   0.045   0.722   0.471
   29SOL     OW  145   0.840   4.391   0.500
   29SOL    HW2  146   0.869   4.302   0.479
   29SOL    HW3  147   0.815   4.388   0.592
   29SOL    MW4  148   0.840   4.379   0.509
   30SOL     OW  149   1.193   1.198   0.274
   30SOL    HW2  150   1.128   1.192   0.344
   30SOL    HW3  151   1.143   1.182   0.194
   30SOL    MW4  152   1.177   1.195   0.273
   31SOL     OW  153   0.606   0.446   0.461
   31SOL    HW2  154   0.681   0.491   0.422
   31SOL    HW3  155   0.606   0.360   0.419
   31SOL    MW4  156   0.616   0.440   0.450
   32SOL     OW  157   0.221   1.239   0.472
   32SOL    HW2  158   0.306   1.195   0.465
   32SOL    HW3  159   0.157   1.171   0.448
   32SOL    MW4  160   0.223   1.224   0.468
   33SOL     OW  161   0.072   2.091   0.457
   33SOL    HW2  162   0.051   2.175   0.415
   33SOL    HW3  163   0.025   2.026   0.405
   33SOL    MW4  164   0.063   2.094   0.445
   34SOL     OW  165   0.635   1.998   0.328
   34SOL    HW2  166   0.559   2.056   0.337
   34SOL    HW3  167   0.622   1.954   0.244
   34SOL    MW4  168   0.623   2.000   0.318
   35SOL     OW  169   0.708   2.640   0.189
   35SOL    HW2  170   0.759   2.697   0.248
   35SOL    HW3  171   0.730   2.671   0.101
   35SOL    MW4  172   0.718   2.651   0.185
   36SOL     OW  173   0.900   3.127   0.233
   36SOL    HW2  174   0.911   3.133   0.138
   36SOL    HW3  175   0.821   3.176   0.251
   36SOL    MW4  176   0.891   3.134   0.223
   37SOL     OW  177   3.914   2.101   0.208
   37SOL    HW2  178   3.988   2.160   0.226
   37SOL    HW3  179   3.929   2.026   0.265
   37SOL    MW4  180   3.926   2.099   0.218
   38SOL     OW  181   1.156   2.185   0.511
   38SOL    HW2  182   1.153   2.157   0.602
   38SOL    HW3  183   1.248   2.207   0.494
   38SOL    MW4  184   1.168   2.185   0.521
   39SOL     OW  185   0.509   2.347   0.459
   39SOL    HW2  186   0.499   2.439   0.435
   39SOL    HW3  187   0.594   2.322   0.425
   39SOL    MW4  188   0.519   2.356   0.451
   40SOL     OW  189   4.249   3.202   0.342
   40SOL    HW2  190   4.212   3.124   0.382
   40SOL    HW3  191   4.251   3.183   0.248
   40SOL    MW4  192   4.244   3.189   0.335
   41SOL     OW  193   0.486   2.616   0.386
   41SOL    HW2  194   0.536   2.577   0.314
   41SOL    HW3  195   0.540   2.690   0.416
   41SOL    MW4  196   0.500   2.621   0.381
   42SOL     OW  197   0.794   0.318   0.124
   42SOL    HW2  198   0.772   0.309   0.032
   42SOL    HW3  199   0.837   0.403   0.131
   42SOL    MW4  200   0.797   0.328   0.113
   43SOL     OW  201   0.280   3.605   0.422
   43SOL    HW2  202   0.276   3.698   0.398
   43SOL    HW3  203   0.354   3.571   0.372
   43SOL    MW4  204   0.289   3.613   0.413
   44SOL     OW  205   0.547   3.541   0.316
   44SOL    HW2  206   0.557   3.604   0.245
   44SOL    HW3  207   0.594   3.579   0.390
   44SOL    MW4  208   0.554   3.554   0.316
   45SOL     OW  209   1.005   3.708   0.380
   45SOL    HW2  210   0.925   3.681   0.424
   45SOL    HW3  211   1.070   3.642   0.405
   45SOL    MW4  212   1.003   3.696   0.389
   46SOL     OW  213   0.166   4.378   0.454
   46SOL    HW2  214   0.085   4.429   0.454
   46SOL    HW3  215   0.138   4.288   0.441
   46SOL    MW4  216   0.152   4.373   0.453
   47SOL     OW  217   0.772   3.616   0.495
   47SOL    HW2  218   0.741   3.695   0.450
   47SOL    HW3  219   0.739   3.625   0.584
   47SOL    MW4  220   0.764   3.628   0.501
   48SOL     OW  221   0.595   4.296   0.390
   48SOL    HW2  222   0.524   4.359   0.382
   48SOL    HW3  223   0.672   4.348   0.415
   48SOL    MW4  224   0.596   4.311   0.392
   49SOL     OW  225   0.686   0.189   0.377
   49SOL    HW2  226   0.754   0.136   0.419
   49SOL    HW3  227   0.732   0.235   0.306
   49SOL    MW4  228   0.701   0.188   0.373
   50SOL     OW  229   0.824   0.598   0.318
   50SOL    HW2  230   0.836   0.689   0.343
   50SOL    HW3  231   0.901   0.553   0.353
   50SOL    MW4  232   0.836   0.604   0.326
   51SOL     OW  233   0.451   0.654   0.384
   51SOL    HW2  234   0.367   0.617   0.412
   51SOL    HW3  235   0.515   0.587   0.407
   51SOL    MW4  236   0.448   0.640   0.391
   52SOL     OW  237   1.531   0.571   0.483
   52SOL    HW2  238   1.539   0.556   0.577
   52SOL    HW3  239   1.515   0.665   0.475
   52SOL    MW4  240   1.530   0.581   0.495
   53SOL     OW  241   2.031   0.823   0.415
   53SOL    HW2  242   1.940   0.844   0.394
   53SOL    HW3  243   2.032   0.818   0.511
   53SOL    MW4  244   2.019   0.825   0.425
   54SOL     OW  245   1.974   4.666   0.408
   54SOL    HW2  246   1.969   4.571   0.400
   54SOL    HW3  247   1.891   4.698   0.372
   54SOL    MW4  248   1.962   4.658   0.402
   55SOL     OW  249   0.767   1.514   0.381
   55SOL    HW2  250   0.738   1.423   0.370
   55SOL    HW3  251   0.847   1.507   0.433
   55SOL    MW4  252   0.774   1.501   0.386
   56SOL     OW  253   0.642   1.252   0.394
   56SOL    HW2  254   0.564   1.202   0.371
   56SOL    HW3  255   0.715   1.193   0.375
   56SOL    MW4  256   0.641   1.238   0.389
   57SOL     OW  257   1.951   1.553   0.386
   57SOL    HW2  258   1.897   1.620   0.427
   57SOL    HW3  259   2.039   1.589   0.386
   57SOL    MW4  260   1.956   1.566   0.391
   58SOL     OW  261   0.920   1.124   0.427
   58SOL    HW2  262   0.921   1.139   0.521
   58SOL    HW3  263   0.910   1.029   0.417
   58SOL    MW4  264   0.919   1.114   0.438
   59SOL     OW  265   1.278   1.475   0.318
   59SOL    HW2  266   1.290   1.384   0.289
   59SOL    HW3  267   1.364   1.515   0.310
   59SOL    MW4  268   1.291   1.468   0.313
   60SOL     OW  269   4.453   2.322   0.337
   60SOL    HW2  270   4.442   2.392   0.401
   60SOL    HW3  271   4.452   2.366   0.252
   60SOL    MW4  272   4.451   2.337   0.334
   61SOL     OW  273   4.393   1.867   0.323
   61SOL    HW2  274   4.417   1.787   0.369
   61SOL    HW3  275   4.407   1.847   0.230
   61SOL    MW4  276   4.398   1.854   0.317
   62SOL     OW  277   0.983   1.779   0.554
   62SOL    HW2  278   0.959   1.748   0.642
   62SOL    HW3  279   1.070   1.819   0.566
   62SOL    MW4  280   0.991   1.780   0.567
   63SOL     OW  281   0.856   1.756   0.243
   63SOL    HW2  282   0.947   1.741   0.218
   63SOL    HW3  283   0.825   1.670   0.272
   63SOL    MW4  284   0.864   1.742   0.244
   64SOL     OW  285   0.903   2.104   0.439
   64SOL    HW2  286   0.856   2.183   0.415
   64SOL    HW3  287   0.989   2.134   0.469
   64SOL    MW4  288   0.908   2.118   0.440
   65SOL     OW  289   0.848   2.861   0.324
   65SOL    HW2  290   0.779   2.866   0.390
   65SOL    HW3  291   0.865   2.952   0.300
   65SOL    MW4  292   0.841   2.874   0.329
   66SOL     OW  293   0.612   2.833   0.498
   66SOL    HW2  294   0.573   2.917   0.472
   66SOL    HW3  295   0.616   2.838   0.594
   66SOL    MW4  296   0.608   2.845   0.507
   67SOL     OW  297   1.035   3.226   0.462
   67SOL    HW2  298   0.952   3.251   0.504
   67SOL    HW3  299   1.010   3.189   0.378
   67SOL    MW4  300   1.021   3.225   0.457
   68SOL     OW  301   2.124   3.029   0.333
   68SOL    HW2  302   2.188   3.071   0.390
   68SOL    HW3  303   2.133   3.074   0.249
   68SOL    MW4  304   2.133   3.040   0.330
   69SOL     OW  305   0.997   4.161   0.401
   69SOL    HW2  306   0.965   4.133   0.315
   69SOL    HW3  307   1.033   4.082   0.440
   69SOL    MW4  308   0.997   4.147   0.395
   70SOL     OW  309   0.486   4.024   0.417
   70SOL    HW2  310   0.483   4.017   0.512
   70SOL    HW3  311   0.505   4.116   0.400
   70SOL    MW4  312   0.488   4.035   0.427
   71SOL     OW  313   1.221   4.324   0.485
   71SOL    HW2  314   1.180   4.364   0.562
   71SOL    HW3  315   1.149   4.278   0.441
   71SOL    MW4  316   1.206   4.323   0.489
   72SOL     OW  317   1.063   0.472   0.448
   72SOL    HW2  318   1.048   0.383   0.415
   72SOL    HW3  319   1.146   0.499   0.408
   72SOL    MW4  320   1.072   0.464   0.438
   73SOL     OW  321   0.891   0.006   0.487
   73SOL    HW2  322   0.882  -0.089   0.484
   73SOL    HW3  323   0.890   0.028   0.580
   73SOL    MW4  324   0.890  -0.003   0.499
   74SOL     OW  325   1.304   0.493   0.311
   74SOL    HW2  326   1.374   0.497   0.377
   74SOL    HW3  327   1.316   0.572   0.258
   74SOL    MW4  328   1.314   0.504   0.313
   75SOL     OW  329   1.999   4.623   0.683
   75SOL    HW2  330   2.012   4.528   0.687
   75SOL    HW3  331   2.013   4.645   0.591
   75SOL    MW4  332   2.002   4.613   0.671
   76SOL     OW  333   1.043   0.202   0.323
   76SOL    HW2  334   1.016   0.121   0.365
   76SOL    HW3  335   0.993   0.204   0.242
   76SOL    MW4  336   1.032   0.192   0.318
   77SOL     OW  337   2.259   0.382   0.408
   77SOL    HW2  338   2.179   0.433   0.400
   77SOL    HW3  339   2.233   0.293   0.384
   77SOL    MW4  340   2.245   0.377   0.404
   78SOL     OW  341   2.448   1.074   0.270
   78SOL    HW2  342   2.447   1.079   0.175
   78SOL    HW3  343   2.356   1.070   0.296
   78SOL    MW4  344   2.436   1.074   0.261
   79SOL     OW  345   1.724   1.143   0.292
   79SOL    HW2  346   1.629   1.135   0.300
   79SOL    HW3  347   1.736   1.221   0.238
   79SOL    MW4  348   1.713   1.152   0.286
   80SOL     OW  349   1.748   0.895   0.412
   80SOL    HW2  350   1.744   0.913   0.506
   80SOL    HW3  351   1.752   0.982   0.371
   80SOL    MW4  352   1.748   0.909   0.419
   81SOL     OW  353   1.436   1.107   0.362
   81SOL    HW2  354   1.354   1.138   0.323
   81SOL    HW3  355   1.427   1.012   0.365
   81SOL    MW4  356   1.424   1.099   0.357
   82SOL     OW  357   1.794   1.760   0.524
   82SOL    HW2  358   1.782   1.735   0.616
   82SOL    HW3  359   1.843   1.842   0.527
   82SOL    MW4  360   1.799   1.768   0.537
   83SOL     OW  361   1.022   2.456   0.461
   83SOL    HW2  362   1.067   2.372   0.464
   83SOL    HW3  363   0.993   2.471   0.551
   83SOL    MW4  364   1.024   2.447   0.473
   84SOL     OW  365   1.344   2.598   0.466
   84SOL    HW2  366   1.265   2.652   0.458
   84SOL    HW3  367   1.417   2.661   0.461
   84SOL    MW4  368   1.343   2.613   0.464
   85SOL     OW  369   2.283   2.012   0.431
   85SOL    HW2  370   2.373   1.981   0.424
   85SOL    HW3  371   2.291   2.104   0.454
   85SOL    MW4  372   2.296   2.020   0.433
   86SOL     OW  373   1.470   2.349   0.412
   86SOL    HW2  374   1.560   2.381   0.422
   86SOL    HW3  375   1.415   2.425   0.429
   86SOL    MW4  376   1.475   2.363   0.416
   87SOL     OW  377   1.033   1.498   0.478
   87SOL    HW2  378   1.028   1.585   0.519
   87SOL    HW3  379   1.118   1.498   0.434
   87SOL    MW4  380   1.043   1.510   0.478
   88SOL     OW  381   1.151   3.491   0.461
   88SOL    HW2  382   1.242   3.470   0.443
   88SOL    HW3  383   1.107   3.406   0.463
   88SOL    MW4  384   1.157   3.477   0.459
   89SOL     OW  385   1.985   2.218   0.309
   89SOL    HW2  386   2.011   2.143   0.361
   89SOL    HW3  387   2.016   2.198   0.220
   89SOL    MW4  388   1.993   2.206   0.304
   90SOL     OW  389   2.008   0.527   0.427
   90SOL    HW2  390   1.994   0.620   0.408
   90SOL    HW3  391   1.929   0.483   0.393
   90SOL    MW4  392   1.996   0.533   0.420
   91SOL     OW  393   1.075   3.938   0.518
   91SOL    HW2  394   1.049   3.860   0.470
   91SOL    HW3  395   1.012   3.944   0.590
   91SOL    MW4  396   1.063   3.929   0.521
   92SOL     OW  397   1.835   2.645   0.433
   92SOL    HW2  398   1.764   2.706   0.451
   92SOL    HW3  399   1.914   2.699   0.431
   92SOL    MW4  400   1.836   2.660   0.435
   93SOL     OW  401   1.370   3.909   0.506
   93SOL    HW2  402   1.276   3.927   0.504
   93SOL    HW3  403   1.411   3.993   0.485
   93SOL    MW4  404   1.363   3.922   0.503
   94SOL     OW  405   1.572   2.788   0.466
   94SOL    HW2  406   1.525   2.855   0.415
   94SOL    HW3  407   1.581   2.826   0.553
   94SOL    MW4  408   1.567   2.802   0.471
   95SOL     OW  409   2.226   3.903   0.375
   95SOL    HW2  410   2.176   3.822   0.363
   95SOL    HW3  411   2.314   3.883   0.343
   95SOL    MW4  412   2.231   3.890   0.369
   96SOL     OW  413   0.931   3.933   0.219
   96SOL    HW2  414   0.907   3.916   0.128
   96SOL    HW3  415   0.948   3.846   0.256
   96SOL    MW4  416   0.930   3.919   0.212
   97SOL     OW  417   1.986   4.390   0.389
   97SOL    HW2  418   2.029   4.314   0.352
   97SOL    HW3  419   1.892   4.368   0.387
   97SOL    MW4  420   1.979   4.377   0.384
   98SOL     OW  421   2.240   0.110   0.754
   98SOL    HW2  422   2.161   0.057   0.752
   98SOL    HW3  423   2.309   0.050   0.784
   98SOL    MW4  424   2.239   0.095   0.758
   99SOL     OW  425   2.621   4.385   0.179
   99SOL    HW2  426   2.642   4.376   0.272
   99SOL    HW3  427   2.650   4.473   0.157
   99SOL    MW4  428   2.628   4.395   0.189
  100SOL     OW  429   1.396   4.478   0.326
  100SOL    HW2  430   1.330   4.429   0.376
  100SOL    HW3  431   1.368   4.470   0.235
  100SOL    MW4  432   1.384   4.471   0.320
  101SOL     OW  433   2.531   0.364   0.464
  101SOL    HW2  434   2.441   0.372   0.432
  101SOL    HW3  435   2.575   0.443   0.434
  101SOL    MW4  436   2.525   0.375   0.456
  102SOL     OW  437   1.592   1.863   0.364
  102SOL    HW2  438   1.637   1.891   0.284
  102SOL    HW3  439   1.660   1.821   0.417
  102SOL    MW4  440   1.607   1.861   0.360
  103SOL     OW  441   1.966   1.236   0.441
  103SOL    HW2  442   1.879   1.217   0.406
  103SOL    HW3  443   1.986   1.324   0.409
  103SOL    MW4  444   1.957   1.245   0.432
  104SOL     OW  445   2.521   1.234   0.514
  104SOL    HW2  446   2.609   1.262   0.488
  104SOL    HW3  447   2.487   1.189   0.437
  104SOL    MW4  448   2.528   1.232   0.500
  105SOL     OW  449   2.639   1.648   0.449
  105SOL    HW2  450   2.719   1.654   0.396
  105SOL    HW3  451   2.671   1.635   0.538
  105SOL    MW4  452   2.654   1.647   0.454
  106SOL     OW  453   1.527   1.602   0.305
  106SOL    HW2  454   1.532   1.697   0.308
  106SOL    HW3  455   1.530   1.575   0.397
  106SOL    MW4  456   1.528   1.611   0.318
  107SOL     OW  457   1.272   1.826   0.442
  107SOL    HW2  458   1.304   1.916   0.444
  107SOL    HW3  459   1.309   1.785   0.520
  107SOL    MW4  460   1.281   1.833   0.452
  108SOL     OW  461   2.281   2.306   0.473
  108SOL    HW2  462   2.249   2.372   0.412
  108SOL    HW3  463   2.244   2.331   0.558
  108SOL    MW4  464   2.272   2.318   0.476
  109SOL     OW  465   1.864   3.170   0.404
  109SOL    HW2  466   1.917   3.108   0.355
  109SOL    HW3  467   1.896   3.256   0.379
  109SOL    MW4  468   1.875   3.173   0.394
  110SOL     OW  469   1.237   3.053   0.582
  110SOL    HW2  470   1.196   2.979   0.627
  110SOL    HW3  471   1.164   3.100   0.542
  110SOL    MW4  472   1.222   3.049   0.583
  111SOL     OW  473   1.574   3.210   0.415
  111SOL    HW2  474   1.664   3.180   0.404
  111SOL    HW3  475   1.521   3.140   0.379
  111SOL    MW4  476   1.579   3.197   0.409
  112SOL     OW  477   1.140   1.713   0.231
  112SOL    HW2  478   1.183   1.628   0.235
  112SOL    HW3  479   1.178   1.764   0.302
  112SOL    MW4  480   1.150   1.709   0.241
  113SOL     OW  481   3.720   1.425   0.335
  113SOL    HW2  482   3.695   1.473   0.256
  113SOL    HW3  483   3.646   1.437   0.395
  113SOL    MW4  484   3.707   1.433   0.333
  114SOL     OW  485   1.794   2.373   0.483
  114SOL    HW2  486   1.866   2.321   0.448
  114SOL    HW3  487   1.812   2.462   0.454
  114SOL    MW4  488   1.806   2.378   0.474
  115SOL     OW  489   1.430   2.051   0.495
  115SOL    HW2  490   1.454   2.133   0.452
  115SOL    HW3  491   1.494   1.987   0.464
  115SOL    MW4  492   1.441   2.053   0.485
  116SOL     OW  493   1.414   3.456   0.406
  116SOL    HW2  494   1.476   3.385   0.388
  116SOL    HW3  495   1.469   3.535   0.409
  116SOL    MW4  496   1.430   3.457   0.404
  117SOL     OW  497   2.245   3.358   0.298
  117SOL    HW2  498   2.318   3.413   0.270
  117SOL    HW3  499   2.284   3.290   0.352
  117SOL    MW4  500   2.259   3.356   0.301
  118SOL     OW  501   1.658   4.384   0.470
  118SOL    HW2  502   1.615   4.389   0.556
  118SOL    HW3  503   1.593   4.420   0.409
  118SOL    MW4  504   1.644   4.389   0.474
  119SOL     OW  505   1.547   3.703   0.480
  119SOL    HW2  506   1.490   3.779   0.486
  119SOL    HW3  507   1.632   3.739   0.455
  119SOL    MW4  508   1.551   3.718   0.477
  120SOL     OW  509   1.309   0.229   0.237
  120SOL    HW2  510   1.223   0.212   0.276
  120SOL    HW3  511   1.325   0.322   0.253
  120SOL    MW4  512   1.299   0.239   0.244
  121SOL     OW  513   1.422   0.072   0.448
  121SOL    HW2  514   1.390   0.134   0.383
  121SOL    HW3  515   1.426  -0.012   0.402
  121SOL    MW4  516   1.418   0.069   0.434
  122SOL     OW  517   2.482   4.566   0.427
  122SOL    HW2  518   2.393   4.598   0.414
  122SOL    HW3  519   2.532   4.642   0.453
  122SOL    MW4  520   2.477   4.580   0.429
  123SOL     OW  521   2.256   0.057   0.438
  123SOL    HW2  522   2.165   0.032   0.418
  123SOL    HW3  523   2.252   0.096   0.525
  123SOL    MW4  524   2.243   0.059   0.446
  124SOL     OW  525   2.423   1.467   0.393
  124SOL    HW2  526   2.462   1.384   0.418
  124SOL    HW3  527   2.497   1.528   0.388
  124SOL    MW4  528   2.438   1.464   0.395
  125SOL     OW  529   2.920   0.509   0.489
  125SOL    HW2  530   2.980   0.553   0.429
  125SOL    HW3  531   2.835   0.548   0.470
  125SOL    MW4  532   2.917   0.520   0.479
  126SOL     OW  533   2.165   1.068   0.372
  126SOL    HW2  534   2.103   1.140   0.386
  126SOL    HW3  535   2.111   0.989   0.371
  126SOL    MW4  536   2.150   1.067   0.374
  127SOL     OW  537   2.777   1.309   0.463
  127SOL    HW2  538   2.798   1.220   0.436
  127SOL    HW3  539   2.806   1.314   0.554
  127SOL    MW4  540   2.784   1.298   0.472
  128SOL     OW  541   2.864   1.558   0.316
  128SOL    HW2  542   2.910   1.535   0.235
  128SOL    HW3  543   2.852   1.475   0.361
  128SOL    MW4  544   2.869   1.544   0.311
  129SOL     OW  545   3.201   2.125   0.451
  129SOL    HW2  546   3.171   2.057   0.510
  129SOL    HW3  547   3.281   2.091   0.412
  129SOL    MW4  548   3.207   2.112   0.453
  130SOL     OW  549   2.957   4.599   0.335
  130SOL    HW2  550   2.991   4.667   0.393
  130SOL    HW3  551   3.030   4.538   0.325
  130SOL    MW4  552   2.971   4.600   0.341
  131SOL     OW  553   2.008   1.962   0.479
  131SOL    HW2  554   1.991   1.999   0.565
  131SOL    HW3  555   2.104   1.960   0.472
  131SOL    MW4  556   2.019   1.966   0.489
  132SOL     OW  557   1.489   1.556   0.573
  132SOL    HW2  558   1.562   1.591   0.624
  132SOL    HW3  559   1.412   1.599   0.610
  132SOL    MW4  560   1.489   1.567   0.585
  133SOL     OW  561   2.541   1.909   0.487
  133SOL    HW2  562   2.584   1.826   0.465
  133SOL    HW3  563   2.611   1.974   0.487
  133SOL    MW4  564   2.556   1.907   0.484
  134SOL     OW  565   2.739   2.105   0.486
  134SOL    HW2  566   2.796   2.137   0.416
  134SOL    HW3  567   2.796   2.100   0.563
  134SOL    MW4  568   2.754   2.108   0.487
  135SOL     OW  569   2.457   2.619   0.381
  135SOL    HW2  570   2.502   2.537   0.401
  135SOL    HW3  571   2.364   2.598   0.385
  135SOL    MW4  572   2.451   2.606   0.384
  136SOL     OW  573   1.394   2.988   0.343
  136SOL    HW2  574   1.338   3.017   0.414
  136SOL    HW3  575   1.334   2.947   0.280
  136SOL    MW4  576   1.379   2.986   0.344
  137SOL     OW  577   1.195   2.889   0.176
  137SOL    HW2  578   1.156   2.822   0.233
  137SOL    HW3  579   1.174   2.860   0.087
  137SOL    MW4  580   1.187   2.877   0.172
  138SOL     OW  581   2.017   3.701   0.408
  138SOL    HW2  582   2.025   3.623   0.353
  138SOL    HW3  583   2.039   3.671   0.496
  138SOL    MW4  584   2.021   3.687   0.412
  139SOL     OW  585   2.500   3.878   0.294
  139SOL    HW2  586   2.539   3.798   0.330
  139SOL    HW3  587   2.564   3.909   0.229
  139SOL    MW4  588   2.514   3.872   0.290
  140SOL     OW  589   1.798   3.859   0.425
  140SOL    HW2  590   1.802   3.908   0.343
  140SOL    HW3  591   1.878   3.807   0.426
  140SOL    MW4  592   1.809   3.858   0.415
  141SOL     OW  593   1.973   3.411   0.312
  141SOL    HW2  594   1.939   3.378   0.229
  141SOL    HW3  595   2.067   3.395   0.308
  141SOL    MW4  596   1.981   3.404   0.301
  142SOL     OW  597   2.373   4.329   0.303
  142SOL    HW2  598   2.438   4.348   0.235
  142SOL    HW3  599   2.373   4.408   0.357
  142SOL    MW4  600   2.382   4.342   0.301
  143SOL     OW  601   2.134   4.178   0.279
  143SOL    HW2  602   2.162   4.100   0.325
  143SOL    HW3  603   2.214   4.227   0.263
  143SOL    MW4  604   2.148   4.174   0.283
  144SOL     OW  605   3.127   0.137   0.453
  144SOL    HW2  606   3.045   0.183   0.437
  144SOL    HW3  607   3.137   0.137   0.548
  144SOL    MW4  608   3.118   0.143   0.464
  145SOL     OW  609   2.611   3.659   0.419
  145SOL    HW2  610   2.557   3.642   0.496
  145SOL    HW3  611   2.664   3.580   0.408
  145SOL    MW4  612   2.611   3.647   0.428
  146SOL     OW  613   2.516   4.110   0.442
  146SOL    HW2  614   2.451   4.167   0.403
  146SOL    HW3  615   2.496   4.023   0.407
  146SOL    MW4  616   2.505   4.106   0.432
  147SOL     OW  617   2.650   0.116   0.467
  147SOL    HW2  618   2.592   0.192   0.458
  147SOL    HW3  619   2.734   0.146   0.433
  147SOL    MW4  620   2.653   0.130   0.461
  148SOL     OW  621   1.764   0.404   0.376
  148SOL    HW2  622   1.747   0.310   0.385
  148SOL    HW3  623   1.683   0.446   0.403
  148SOL    MW4  624   1.751   0.397   0.380
  149SOL     OW  625   3.075   0.620   0.268
  149SOL    HW2  626   3.168   0.598   0.267
  149SOL    HW3  627   3.073   0.715   0.275
  149SOL    MW4  628   3.087   0.629   0.269
  150SOL     OW  629   2.218   1.641   0.446
  150SOL    HW2  630   2.254   1.726   0.420
  150SOL    HW3  631   2.279   1.577   0.407
  150SOL    MW4  632   2.231   1.644   0.437
  151SOL     OW  633   2.666   0.607   0.411
  151SOL    HW2  634   2.640   0.698   0.400
  151SOL    HW3  635   2.692   0.578   0.324
  151SOL    MW4  636   2.666   0.615   0.398
  152SOL     OW  637   3.105   1.692   0.425
  152SOL    HW2  638   3.016   1.670   0.396
  152SOL    HW3  639   3.093   1.767   0.483
  152SOL    MW4  640   3.091   1.699   0.429
  153SOL     OW  641   3.582   1.004   0.464
  153SOL    HW2  642   3.596   0.968   0.376
  153SOL    HW3  643   3.585   0.927   0.522
  153SOL    MW4  644   3.584   0.989   0.460
  154SOL     OW  645   3.954   1.874   0.386
  154SOL    HW2  646   4.039   1.912   0.407
  154SOL    HW3  647   3.892   1.920   0.442
  154SOL    MW4  648   3.957   1.885   0.396
  155SOL     OW  649   2.870   0.249   0.388
  155SOL    HW2  650   2.876   0.249   0.292
  155SOL    HW3  651   2.882   0.341   0.413
  155SOL    MW4  652   2.872   0.261   0.379
  156SOL     OW  653   3.124   1.915   0.605
  156SOL    HW2  654   3.048   1.949   0.651
  156SOL    HW3  655   3.176   1.872   0.672
  156SOL    MW4  656   3.121   1.914   0.620
  157SOL     OW  657   2.563   2.346   0.466
  157SOL    HW2  658   2.614   2.265   0.461
  157SOL    HW3  659   2.473   2.317   0.478
  157SOL    MW4  660   2.558   2.331   0.467
  158SOL     OW  661   2.952   2.181   0.300
  158SOL    HW2  662   2.990   2.191   0.212
  158SOL    HW3  663   3.026   2.153   0.354
  158SOL    MW4  664   2.967   2.178   0.295
  159SOL     OW  665   2.172   2.551   0.359
  159SOL    HW2  666   2.134   2.623   0.409
  159SOL    HW3  667   2.100   2.516   0.307
  159SOL    MW4  668   2.158   2.556   0.359
  160SOL     OW  669   2.582   2.836   0.488
  160SOL    HW2  670   2.536   2.777   0.429
  160SOL    HW3  671   2.538   2.825   0.572
  160SOL    MW4  672   2.570   2.827   0.491
  161SOL     OW  673   3.167   3.194   0.488
  161SOL    HW2  674   3.161   3.099   0.486
  161SOL    HW3  675   3.144   3.217   0.578
  161SOL    MW4  676   3.163   3.185   0.500
  162SOL     OW  677   3.433   3.199   0.580
  162SOL    HW2  678   3.428   3.120   0.635
  162SOL    HW3  679   3.354   3.196   0.527
  162SOL    MW4  680   3.422   3.188   0.580
  163SOL     OW  681   2.350   3.158   0.444
  163SOL    HW2  682   2.442   3.140   0.422
  163SOL    HW3  683   2.349   3.160   0.540
  163SOL    MW4  684   2.362   3.156   0.454
  164SOL     OW  685   1.463   4.163   0.503
  164SOL    HW2  686   1.542   4.214   0.488
  164SOL    HW3  687   1.392   4.227   0.506
  164SOL    MW4  688   1.464   4.178   0.501
  165SOL     OW  689   3.403   4.095   0.359
  165SOL    HW2  690   3.334   4.100   0.293
  165SOL    HW3  691   3.372   4.030   0.422
  165SOL    MW4  692   3.390   4.087   0.359
  166SOL     OW  693   2.990   3.398   0.393
  166SOL    HW2  694   2.995   3.407   0.298
  166SOL    HW3  695   3.038   3.317   0.413
  166SOL    MW4  696   2.997   3.388   0.383
  167SOL     OW  697   2.712   3.397   0.390
  167SOL    HW2  698   2.694   3.304   0.377
  167SOL    HW3  699   2.804   3.400   0.416
  167SOL    MW4  700   2.722   3.385   0.392
  168SOL     OW  701   3.892   4.166   0.585
  168SOL    HW2  702   3.887   4.072   0.604
  168SOL    HW3  703   3.806   4.187   0.547
  168SOL    MW4  704   3.880   4.156   0.583
  169SOL     OW  705   3.174   4.152   0.177
  169SOL    HW2  706   3.171   4.234   0.225
  169SOL    HW3  707   3.097   4.103   0.209
  169SOL    MW4  708   3.163   4.156   0.187
  170SOL     OW  709   3.353   0.297   0.486
  170SOL    HW2  710   3.281   0.237   0.468
  170SOL    HW3  711   3.432   0.243   0.481
  170SOL    MW4  712   3.354   0.282   0.483
  171SOL     OW  713   2.730   4.642   0.196
  171SOL    HW2  714   2.818   4.623   0.231
  171SOL    HW3  715   2.677   4.661   0.273
  171SOL    MW4  716   2.735   4.642   0.210
  172SOL     OW  717   2.925   4.025   0.279
  172SOL    HW2  718   2.897   3.948   0.329
  172SOL    HW3  719   2.844   4.062   0.245
  172SOL    MW4  720   2.911   4.020   0.281
  173SOL     OW  721   2.823   0.242   0.097
  173SOL    HW2  722   2.890   0.209   0.036
  173SOL    HW3  723   2.772   0.164   0.120
  173SOL    MW4  724   2.825   0.227   0.092
  174SOL     OW  725   2.884   1.041   0.452
  174SOL    HW2  726   2.938   0.990   0.391
  174SOL    HW3  727   2.908   1.008   0.538
  174SOL    MW4  728   2.894   1.030   0.455
  175SOL     OW  729   3.423   1.462   0.401
  175SOL    HW2  730   3.453   1.492   0.487
  175SOL    HW3  731   3.384   1.376   0.418
  175SOL    MW4  732   3.422   1.455   0.415
  176SOL     OW  733   3.402   0.726   0.501
  176SOL    HW2  734   3.366   0.664   0.437
  176SOL    HW3  735   3.341   0.800   0.499
  176SOL    MW4  736   3.389   0.727   0.492
  177SOL     OW  737   3.234   0.924   0.496
  177SOL    HW2  738   3.162   0.935   0.558
  177SOL    HW3  739   3.271   1.011   0.486
  177SOL    MW4  740   3.229   0.937   0.503
  178SOL     OW  741   3.585   1.841   0.586
  178SOL    HW2  742   3.530   1.891   0.525
  178SOL    HW3  743   3.562   1.876   0.672
  178SOL    MW4  744   3.575   1.853   0.589
  179SOL     OW  745   3.441   1.977   0.376
  179SOL    HW2  746   3.414   1.893   0.339
  179SOL    HW3  747   3.505   2.012   0.314
  179SOL    MW4  748   3.446   1.970   0.363
  180SOL     OW  749   3.354   1.178   0.436
  180SOL    HW2  750   3.433   1.125   0.420
  180SOL    HW3  751   3.354   1.194   0.530
  180SOL    MW4  752   3.365   1.173   0.446
  181SOL     OW  753   3.627   2.176   0.241
  181SOL    HW2  754   3.612   2.186   0.147
  181SOL    HW3  755   3.720   2.155   0.249
  181SOL    MW4  756   3.637   2.175   0.230
  182SOL     OW  757   3.311   2.289   0.644
  182SOL    HW2  758   3.282   2.229   0.576
  182SOL    HW3  759   3.358   2.233   0.707
  182SOL    MW4  760   3.313   2.273   0.644
  183SOL     OW  761   3.572   2.722   0.623
  183SOL    HW2  762   3.600   2.697   0.711
  183SOL    HW3  763   3.514   2.651   0.596
  183SOL    MW4  764   3.568   2.710   0.631
  184SOL     OW  765   2.082   2.782   0.468
  184SOL    HW2  766   2.070   2.803   0.560
  184SOL    HW3  767   2.092   2.867   0.425
  184SOL    MW4  768   2.082   2.796   0.474
  185SOL     OW  769   3.227   2.673   0.383
  185SOL    HW2  770   3.158   2.607   0.375
  185SOL    HW3  771   3.305   2.624   0.410
  185SOL    MW4  772   3.228   2.658   0.385
  186SOL     OW  773   2.961   2.771   0.779
  186SOL    HW2  774   2.964   2.766   0.684
  186SOL    HW3  775   3.019   2.702   0.810
  186SOL    MW4  776   2.969   2.761   0.771
  187SOL     OW  777   2.618   0.879   0.399
  187SOL    HW2  778   2.698   0.929   0.415
  187SOL    HW3  779   2.563   0.938   0.348
  187SOL    MW4  780   2.621   0.894   0.394
  188SOL     OW  781   2.926   4.199   0.488
  188SOL    HW2  782   2.921   4.145   0.409
  188SOL    HW3  783   2.980   4.148   0.549
  188SOL    MW4  784   2.933   4.185   0.486
  189SOL     OW  785   3.374   3.650   0.502
  189SOL    HW2  786   3.462   3.673   0.473
  189SOL    HW3  787   3.388   3.591   0.576
  189SOL    MW4  788   3.388   3.645   0.508
  190SOL     OW  789   3.844   3.461   0.466
  190SOL    HW2  790   3.935   3.433   0.457
  190SOL    HW3  791   3.844   3.514   0.546
  190SOL    MW4  792   3.856   3.465   0.475
  191SOL     OW  793   3.797   3.240   0.743
  191SOL    HW2  794   3.893   3.244   0.749
  191SOL    HW3  795   3.780   3.226   0.650
  191SOL    MW4  796   3.807   3.239   0.731
  192SOL     OW  797   2.842   3.829   0.467
  192SOL    HW2  798   2.920   3.774   0.473
  192SOL    HW3  799   2.772   3.770   0.440
  192SOL    MW4  800   2.843   3.814   0.464
  193SOL     OW  801   2.646   3.107   0.448
  193SOL    HW2  802   2.683   3.126   0.535
  193SOL    HW3  803   2.604   3.022   0.458
  193SOL    MW4  804   2.645   3.098   0.461
  194SOL     OW  805   4.408   0.261   0.311
  194SOL    HW2  806   4.391   0.232   0.221
  194SOL    HW3  807   4.498   0.232   0.329
  194SOL    MW4  808   4.418   0.253   0.301
  195SOL     OW  809   3.975   0.037   0.416
  195SOL    HW2  810   3.927   0.118   0.402
  195SOL    HW3  811   4.066   0.064   0.424
  195SOL    MW4  812   3.981   0.051   0.415
  196SOL     OW  813   2.785   0.537   0.168
  196SOL    HW2  814   2.788   0.446   0.136
  196SOL    HW3  815   2.876   0.557   0.190
  196SOL    MW4  816   2.797   0.527   0.166
  197SOL     OW  817   3.337   0.514   0.318
  197SOL    HW2  818   3.334   0.443   0.383
  197SOL    HW3  819   3.427   0.511   0.284
  197SOL    MW4  820   3.349   0.504   0.322
  198SOL     OW  821   4.045   0.609   0.413
  198SOL    HW2  822   4.134   0.574   0.410
  198SOL    HW3  823   4.003   0.560   0.484
  198SOL    MW4  824   4.051   0.598   0.422
  199SOL     OW  825   4.292   1.075   0.443
  199SOL    HW2  826   4.284   1.131   0.520
  199SOL    HW3  827   4.218   1.015   0.449
  199SOL    MW4  828   4.281   1.075   0.454
  200SOL     OW  829   3.775   0.656   0.307
  200SOL    HW2  830   3.746   0.647   0.398
  200SOL    HW3  831   3.870   0.657   0.312
  200SOL    MW4  832   3.784   0.655   0.320
  201SOL     OW  833   3.953   1.056   0.243
  201SOL    HW2  834   4.029   1.111   0.224
  201SOL    HW3  835   3.911   1.099   0.318
  201SOL    MW4  836   3.957   1.069   0.250
  202SOL     OW  837   3.810   1.172   0.451
  202SOL    HW2  838   3.737   1.111   0.460
  202SOL    HW3  839   3.773   1.247   0.405
  202SOL    MW4  840   3.796   1.174   0.446
  203SOL     OW  841   3.359   1.713   0.298
  203SOL    HW2  842   3.264   1.710   0.312
  203SOL    HW3  843   3.389   1.624   0.315
  203SOL    MW4  844   3.350   1.701   0.302
  204SOL     OW  845   3.065   0.890   0.273
  204SOL    HW2  846   3.138   0.892   0.335
  204SOL    HW3  847   3.099   0.934   0.195
  204SOL    MW4  848   3.079   0.896   0.271
  205SOL     OW  849   3.691   2.424   0.396
  205SOL    HW2  850   3.673   2.369   0.319
  205SOL    HW3  851   3.708   2.363   0.467
  205SOL    MW4  852   3.691   2.409   0.395
  206SOL     OW  853   4.128   2.989   0.444
  206SOL    HW2  854   4.164   2.900   0.438
  206SOL    HW3  855   4.033   2.975   0.450
  206SOL    MW4  856   4.120   2.975   0.444
  207SOL     OW  857   2.972   2.527   0.434
  207SOL    HW2  858   3.015   2.485   0.508
  207SOL    HW3  859   2.905   2.465   0.406
  207SOL    MW4  860   2.969   2.514   0.440
  208SOL     OW  861   3.082   3.657   0.482
  208SOL    HW2  862   3.175   3.673   0.497
  208SOL    HW3  863   3.078   3.572   0.439
  208SOL    MW4  864   3.094   3.648   0.479
  209SOL     OW  865   3.147   2.905   0.525
  209SOL    HW2  866   3.187   2.837   0.471
  209SOL    HW3  867   3.056   2.907   0.497
  209SOL    MW4  868   3.140   2.896   0.515
  210SOL     OW  869   3.858   2.966   0.495
  210SOL    HW2  870   3.808   2.894   0.458
  210SOL    HW3  871   3.805   3.044   0.477
  210SOL    MW4  872   3.845   2.967   0.488
  211SOL     OW  873   3.792   2.681   0.457
  211SOL    HW2  874   3.767   2.600   0.413
  211SOL    HW3  875   3.715   2.705   0.508
  211SOL    MW4  876   3.778   2.674   0.458
  212SOL     OW  877   3.869   4.055   0.246
  212SOL    HW2  878   3.894   3.972   0.287
  212SOL    HW3  879   3.862   4.035   0.153
  212SOL    MW4  880   3.871   4.041   0.239
  213SOL     OW  881   3.428   2.518   0.508
  213SOL    HW2  882   3.383   2.454   0.563
  213SOL    HW3  883   3.499   2.469   0.467
  213SOL    MW4  884   3.431   2.503   0.510
  214SOL     OW  885   3.319   3.928   0.561
  214SOL    HW2  886   3.383   3.938   0.632
  214SOL    HW3  887   3.324   3.836   0.536
  214SOL    MW4  888   3.328   3.917   0.567
  215SOL     OW  889   4.270   4.068   0.450
  215SOL    HW2  890   4.254   4.053   0.543
  215SOL    HW3  891   4.197   4.122   0.421
  215SOL    MW4  892   4.258   4.073   0.459
  216SOL     OW  893   3.666   4.192   0.390
  216SOL    HW2  894   3.741   4.148   0.350
  216SOL    HW3  895   3.590   4.146   0.355
  216SOL    MW4  896   3.666   4.180   0.380
  217SOL     OW  897   3.592   4.452   0.450
  217SOL    HW2  898   3.611   4.368   0.410
  217SOL    HW3  899   3.648   4.455   0.528
  217SOL    MW4  900   3.602   4.441   0.455
  218SOL     OW  901   0.043   0.071   0.579
  218SOL    HW2  902   0.024   0.003   0.516
  218SOL    HW3  903  -0.043   0.096   0.614
  218SOL    MW4  904   0.029   0.066   0.576
  219SOL     OW  905   4.084   0.883   0.478
  219SOL    HW2  906   4.085   0.789   0.458
  219SOL    HW3  907   4.020   0.920   0.418
  219SOL    MW4  908   4.076   0.875   0.468
  220SOL     OW  909   0.375   2.114   0.408
  220SOL    HW2  910   0.404   2.203   0.429
  220SOL    HW3  911   0.282   2.114   0.431
  220SOL    MW4  912   0.367   2.126   0.414
  221SOL     OW  913   4.301   0.548   0.495
  221SOL    HW2  914   4.322   0.487   0.424
  221SOL    HW3  915   4.367   0.617   0.487
  221SOL    MW4  916   4.313   0.549   0.485
  222SOL     OW  917   4.163   1.225   0.232
  222SOL    HW2  918   4.217   1.168   0.287
  222SOL    HW3  919   4.192   1.313   0.253
  222SOL    MW4  920   4.174   1.229   0.242
  223SOL     OW  921   3.555   0.110   0.495
  223SOL    HW2  922   3.555   0.020   0.464
  223SOL    HW3  923   3.642   0.144   0.472
  223SOL    MW4  924   3.566   0.103   0.488
  224SOL     OW  925   3.699   0.910   0.234
  224SOL    HW2  926   3.782   0.947   0.206
  224SOL    HW3  927   3.718   0.817   0.250
  224SOL    MW4  928   3.712   0.903   0.232
  225SOL     OW  929   0.053   0.991   0.385
  225SOL    HW2  930   0.087   1.040   0.310
  225SOL    HW3  931  -0.033   1.031   0.403
  225SOL    MW4  932   0.046   1.003   0.377
  226SOL     OW  933   4.175   2.221   0.327
  226SOL    HW2  934   4.124   2.277   0.385
  226SOL    HW3  935   4.265   2.253   0.335
  226SOL    MW4  936   4.180   2.232   0.335
  227SOL     OW  937   0.221   1.528   0.500
  227SOL    HW2  938   0.220   1.441   0.460
  227SOL    HW3  939   0.133   1.563   0.483
  227SOL    MW4  940   0.209   1.521   0.492
  228SOL     OW  941   1.078   2.718   0.370
  228SOL    HW2  942   1.044   2.631   0.388
  228SOL    HW3  943   1.000   2.773   0.359
  228SOL    MW4  944   1.063   2.714   0.371
  229SOL     OW  945   4.182   1.992   0.467
  229SOL    HW2  946   4.251   1.944   0.423
  229SOL    HW3  947   4.178   2.076   0.421
  229SOL    MW4  948   4.191   1.997   0.455
  230SOL     OW  949   4.465   2.571   0.479
  230SOL    HW2  950   4.558   2.592   0.469
  230SOL    HW3  951   4.453   2.558   0.573
  230SOL    MW4  952   4.475   2.572   0.490
  231SOL     OW  953   4.280   3.604   0.522
  231SOL    HW2  954   4.359   3.574   0.477
  231SOL    HW3  955   4.218   3.533   0.512
  231SOL    MW4  956   4.283   3.591   0.515
  232SOL     OW  957   4.259   2.753   0.444
  232SOL    HW2  958   4.188   2.691   0.466
  232SOL    HW3  959   4.335   2.698   0.430
  232SOL    MW4  960   4.259   2.737   0.445
  233SOL     OW  961   0.246   3.894   0.371
  233SOL    HW2  962   0.178   3.949   0.409
  233SOL    HW3  963   0.327   3.946   0.380
  233SOL    MW4  964   0.248   3.908   0.378
  234SOL     OW  965   0.004   3.501   0.390
  234SOL    HW2  966  -0.026   3.534   0.305
  234SOL    HW3  967   0.091   3.539   0.402
  234SOL    MW4  968   0.011   3.511   0.381
  235SOL     OW  969   0.023   3.222   0.452
  235SOL    HW2  970  -0.067   3.202   0.424
  235SOL    HW3  971   0.032   3.316   0.438
  235SOL    MW4  972   0.012   3.232   0.447
  236SOL     OW  973   3.950   3.825   0.366
  236SOL    HW2  974   3.921   3.737   0.341
  236SOL    HW3  975   4.044   3.825   0.347
  236SOL    MW4  976   3.958   3.813   0.360
  237SOL     OW  977   3.701   3.209   0.488
  237SOL    HW2  978   3.725   3.296   0.459
  237SOL    HW3  979   3.610   3.217   0.518
  237SOL    MW4  980   3.692   3.221   0.488
  238SOL     OW  981   0.078   4.108   0.479
  238SOL    HW2  982   0.085   4.087   0.573
  238SOL    HW3  983  -0.014   4.093   0.458
  238SOL    MW4  984   0.067   4.103   0.489
  239SOL     OW  985   4.149   4.492   0.345
  239SOL    HW2  986   4.111   4.409   0.373
  239SOL    HW3  987   4.075   4.553   0.348
  239SOL    MW4  988   4.134   4.489   0.349
  240SOL     OW  989   3.990   4.542   0.651
  240SOL    HW2  990   4.082   4.513   0.647
  240SOL    HW3  991   3.980   4.601   0.577
  240SOL    MW4  992   4.001   4.546   0.641
  241SOL     OW  993   3.745   4.449   0.709
  241SOL    HW2  994   3.697   4.528   0.735
  241SOL    HW3  995   3.832   4.481   0.686
  241SOL    MW4  996   3.750   4.464   0.709
  242SOL     OW  997   0.197   4.657   0.815
  242SOL    HW2  998   0.189   4.563   0.796
  242SOL    HW3  999   0.139   4.699   0.751
  242SOL    MW4 1000   0.188   4.650   0.804
  243SOL     OW 1001   4.313   0.194   0.726
  243SOL    HW2 1002   4.302   0.130   0.796
  243SOL    HW3 1003   4.358   0.268   0.768
  243SOL    MW4 1004   4.318   0.196   0.741
  244SOL     OW 1005   4.444   0.416   0.852
  244SOL    HW2 1006   4.462   0.406   0.946
  244SOL    HW3 1007   4.522   0.457   0.817
  244SOL    MW4 1008   4.456   0.420   0.860
  245SOL     OW 1009   0.185   0.529   0.761
  245SOL    HW2 1010   0.264   0.481   0.785
  245SOL    HW3 1011   0.209   0.622   0.768
  245SOL    MW4 1012   0.198   0.535   0.765
  246SOL     OW 1013   0.266   0.796   0.814
  246SOL    HW2 1014   0.263   0.799   0.910
  246SOL    HW3 1015   0.193   0.850   0.786
  246SOL    MW4 1016   0.256   0.803   0.823
  247SOL     OW 1017   0.028   0.903   0.713
  247SOL    HW2 1018  -0.056   0.875   0.752
  247SOL    HW3 1019   0.030   0.858   0.628
  247SOL    MW4 1020   0.017   0.893   0.707
  248SOL     OW 1021   4.460   1.149   0.813
  248SOL    HW2 1022   4.475   1.143   0.907
  248SOL    HW3 1023   4.480   1.061   0.780
  248SOL    MW4 1024   4.465   1.136   0.821
  249SOL     OW 1025   0.200   1.305   0.750
  249SOL    HW2 1026   0.124   1.256   0.781
  249SOL    HW3 1027   0.209   1.281   0.658
  249SOL    MW4 1028   0.191   1.296   0.742
  250SOL     OW 1029   0.238   1.565   0.844
  250SOL    HW2 1030   0.278   1.619   0.776
  250SOL    HW3 1031   0.230   1.478   0.805
  250SOL    MW4 1032   0.242   1.561   0.830
  251SOL     OW 1033   4.476   1.659   0.753
  251SOL    HW2 1034   4.395   1.611   0.770
  251SOL    HW3 1035   4.543   1.611   0.802
  251SOL    MW4 1036   4.474   1.646   0.762
  252SOL     OW 1037   4.442   1.912   0.850
  252SOL    HW2 1038   4.513   1.960   0.807
  252SOL    HW3 1039   4.449   1.823   0.816
  252SOL    MW4 1040   4.452   1.906   0.840
  253SOL     OW 1041   0.155   2.080   0.712
  253SOL    HW2 1042   0.168   2.166   0.750
  253SOL    HW3 1043   0.123   2.097   0.623
  253SOL    MW4 1044   0.152   2.093   0.705
  254SOL     OW 1045   0.177   2.338   0.818
  254SOL    HW2 1046   0.185   2.323   0.912
  254SOL    HW3 1047   0.262   2.376   0.793
  254SOL    MW4 1048   0.189   2.341   0.827
  255SOL     OW 1049   4.427   2.478   0.746
  255SOL    HW2 1050   4.343   2.435   0.767
  255SOL    HW3 1051   4.494   2.417   0.779
  255SOL    MW4 1052   4.424   2.464   0.753
  256SOL     OW 1053   0.028   2.726   0.859
  256SOL    HW2 1054   0.044   2.707   0.952
  256SOL    HW3 1055   0.016   2.640   0.819
  256SOL    MW4 1056   0.029   2.712   0.866
  257SOL     OW 1057   0.278   2.833   0.741
  257SOL    HW2 1058   0.189   2.812   0.769
  257SOL    HW3 1059   0.285   2.794   0.654
  257SOL    MW4 1060   0.267   2.825   0.733
  258SOL     OW 1061   0.201   3.076   0.819
  258SOL    HW2 1062   0.193   3.073   0.915
  258SOL    HW3 1063   0.237   2.991   0.795
  258SOL    MW4 1064   0.205   3.065   0.829
  259SOL     OW 1065   4.467   3.204   0.723
  259SOL    HW2 1066   4.524   3.131   0.749
  259SOL    HW3 1067   4.475   3.208   0.627
  259SOL    MW4 1068   4.476   3.195   0.713
  260SOL     OW 1069   0.102   3.417   0.832
  260SOL    HW2 1070   0.032   3.481   0.819
  260SOL    HW3 1071   0.067   3.335   0.797
  260SOL    MW4 1072   0.088   3.414   0.826
  261SOL     OW 1073   0.273   3.609   0.712
  261SOL    HW2 1074   0.228   3.529   0.740
  261SOL    HW3 1075   0.277   3.603   0.617
  261SOL    MW4 1076   0.268   3.598   0.703
  262SOL     OW 1077   0.273   3.882   0.804
  262SOL    HW2 1078   0.256   3.866   0.897
  262SOL    HW3 1079   0.276   3.795   0.764
  262SOL    MW4 1080   0.271   3.868   0.811
  263SOL     OW 1081   0.057   4.022   0.736
  263SOL    HW2 1082  -0.015   3.971   0.776
  263SOL    HW3 1083   0.137   3.982   0.770
  263SOL    MW4 1084   0.058   4.010   0.745
  264SOL     OW 1085   4.443   4.277   0.822
  264SOL    HW2 1086   4.460   4.277   0.916
  264SOL    HW3 1087   4.464   4.188   0.794
  264SOL    MW4 1088   4.448   4.265   0.831
  265SOL     OW 1089   0.221   4.366   0.742
  265SOL    HW2 1090   0.138   4.339   0.782
  265SOL    HW3 1091   0.201   4.374   0.648
  265SOL    MW4 1092   0.208   4.364   0.735
  266SOL     OW 1093   0.657   4.649   0.820
  266SOL    HW2 1094   0.653   4.644   0.915
  266SOL    HW3 1095   0.575   4.692   0.795
  266SOL    MW4 1096   0.645   4.654   0.829
  267SOL     OW 1097   0.435   0.123   0.735
  267SOL    HW2 1098   0.360   0.078   0.773
  267SOL    HW3 1099   0.437   0.094   0.644
  267SOL    MW4 1100   0.426   0.113   0.728
  268SOL     OW 1101   0.391   0.373   0.837
  268SOL    HW2 1102   0.462   0.419   0.792
  268SOL    HW3 1103   0.399   0.282   0.808
  268SOL    MW4 1104   0.401   0.367   0.827
  269SOL     OW 1105   0.611   0.479   0.727
  269SOL    HW2 1106   0.688   0.426   0.751
  269SOL    HW3 1107   0.600   0.462   0.633
  269SOL    MW4 1108   0.620   0.470   0.718
  270SOL     OW 1109   0.693   0.716   0.857
  270SOL    HW2 1110   0.631   0.787   0.837
  270SOL    HW3 1111   0.658   0.640   0.811
  270SOL    MW4 1112   0.680   0.715   0.848
  271SOL     OW 1113   0.511   0.906   0.783
  271SOL    HW2 1114   0.499   1.000   0.793
  271SOL    HW3 1115   0.422   0.872   0.771
  271SOL    MW4 1116   0.498   0.914   0.783
  272SOL     OW 1117   0.452   1.172   0.800
  272SOL    HW2 1118   0.525   1.215   0.756
  272SOL    HW3 1119   0.376   1.226   0.779
  272SOL    MW4 1120   0.451   1.184   0.791
  273SOL     OW 1121   0.670   1.280   0.677
  273SOL    HW2 1122   0.653   1.372   0.699
  273SOL    HW3 1123   0.656   1.275   0.582
  273SOL    MW4 1124   0.666   1.292   0.667
  274SOL     OW 1125   0.597   1.533   0.808
  274SOL    HW2 1126   0.599   1.548   0.903
  274SOL    HW3 1127   0.523   1.586   0.778
  274SOL    MW4 1128   0.588   1.542   0.817
  275SOL     OW 1129   0.409   1.687   0.645
  275SOL    HW2 1130   0.383   1.779   0.631
  275SOL    HW3 1131   0.359   1.638   0.580
  275SOL    MW4 1132   0.399   1.693   0.635
  276SOL     OW 1133   0.412   1.978   0.658
  276SOL    HW2 1134   0.327   2.011   0.687
  276SOL    HW3 1135   0.424   2.015   0.571
  276SOL    MW4 1136   0.402   1.987   0.650
  277SOL     OW 1137   0.596   2.077   0.843
  277SOL    HW2 1138   0.560   2.063   0.931
  277SOL    HW3 1139   0.522   2.063   0.785
  277SOL    MW4 1140   0.581   2.073   0.847
  278SOL     OW 1141   0.673   2.348   0.852
  278SOL    HW2 1142   0.667   2.347   0.947
  278SOL    HW3 1143   0.661   2.257   0.825
  278SOL    MW4 1144   0.671   2.336   0.861
  279SOL     OW 1145   0.433   2.413   0.737
  279SOL    HW2 1146   0.509   2.389   0.789
  279SOL    HW3 1147   0.451   2.376   0.650
  279SOL    MW4 1148   0.446   2.405   0.732
  280SOL     OW 1149   0.449   2.669   0.868
  280SOL    HW2 1150   0.437   2.583   0.827
  280SOL    HW3 1151   0.383   2.725   0.827
  280SOL    MW4 1152   0.439   2.665   0.857
  281SOL     OW 1153   0.640   2.840   0.769
  281SOL    HW2 1154   0.721   2.791   0.781
  281SOL    HW3 1155   0.571   2.779   0.794
  281SOL    MW4 1156   0.642   2.826   0.774
  282SOL     OW 1157   0.702   3.105   0.834
  282SOL    HW2 1158   0.618   3.151   0.825
  282SOL    HW3 1159   0.682   3.015   0.811
  282SOL    MW4 1160   0.688   3.099   0.830
  283SOL     OW 1161   0.441   3.188   0.732
  283SOL    HW2 1162   0.430   3.275   0.771
  283SOL    HW3 1163   0.359   3.143   0.752
  283SOL    MW4 1164   0.429   3.194   0.740
  284SOL     OW 1165   0.471   3.443   0.828
  284SOL    HW2 1166   0.470   3.453   0.923
  284SOL    HW3 1167   0.407   3.506   0.796
  284SOL    MW4 1168   0.463   3.452   0.836
  285SOL     OW 1169   0.717   3.579   0.779
  285SOL    HW2 1170   0.641   3.527   0.803
  285SOL    HW3 1171   0.694   3.668   0.807
  285SOL    MW4 1172   0.704   3.584   0.786
  286SOL     OW 1173   0.676   3.846   0.838
  286SOL    HW2 1174   0.768   3.870   0.826
  286SOL    HW3 1175   0.627   3.912   0.790
  286SOL    MW4 1176   0.682   3.858   0.830
  287SOL     OW 1177   0.503   4.008   0.695
  287SOL    HW2 1178   0.497   4.096   0.730
  287SOL    HW3 1179   0.430   3.961   0.735
  287SOL    MW4 1180   0.493   4.013   0.705
  288SOL     OW 1181   0.474   4.264   0.781
  288SOL    HW2 1182   0.443   4.248   0.870
  288SOL    HW3 1183   0.402   4.310   0.738
  288SOL    MW4 1184   0.461   4.268   0.787
  289SOL     OW 1185   0.715   4.383   0.760
  289SOL    HW2 1186   0.628   4.344   0.761
  289SOL    HW3 1187   0.700   4.477   0.766
  289SOL    MW4 1188   0.702   4.390   0.761
  290SOL     OW 1189   1.143   0.014   0.849
  290SOL    HW2 1190   1.215   0.055   0.802
  290SOL    HW3 1191   1.065   0.057   0.816
  290SOL    MW4 1192   1.142   0.025   0.839
  291SOL     OW 1193   0.903   0.111   0.736
  291SOL    HW2 1194   0.889   0.204   0.718
  291SOL    HW3 1195   0.817   0.079   0.764
  291SOL    MW4 1196   0.889   0.119   0.737
  292SOL     OW 1197   0.854   0.375   0.789
  292SOL    HW2 1198   0.855   0.354   0.882
  292SOL    HW3 1199   0.932   0.428   0.775
  292SOL    MW4 1200   0.864   0.379   0.799
  293SOL     OW 1201   1.091   0.511   0.725
  293SOL    HW2 1202   1.172   0.465   0.748
  293SOL    HW3 1203   1.077   0.490   0.632
  293SOL    MW4 1204   1.100   0.502   0.716
  294SOL     OW 1205   1.163   0.753   0.820
  294SOL    HW2 1206   1.150   0.748   0.914
  294SOL    HW3 1207   1.143   0.665   0.788
  294SOL    MW4 1208   1.159   0.741   0.828
  295SOL     OW 1209   0.900   0.844   0.739
  295SOL    HW2 1210   0.985   0.809   0.764
  295SOL    HW3 1211   0.838   0.799   0.797
  295SOL    MW4 1212   0.903   0.833   0.750
  296SOL     OW 1213   0.892   1.130   0.715
  296SOL    HW2 1214   0.874   1.036   0.710
  296SOL    HW3 1215   0.806   1.171   0.715
  296SOL    MW4 1216   0.878   1.123   0.714
  297SOL     OW 1217   1.097   1.315   0.683
  297SOL    HW2 1218   1.027   1.250   0.691
  297SOL    HW3 1219   1.084   1.353   0.596
  297SOL    MW4 1220   1.086   1.311   0.673
  298SOL     OW 1221   1.106   1.555   0.840
  298SOL    HW2 1222   1.021   1.599   0.846
  298SOL    HW3 1223   1.086   1.471   0.799
  298SOL    MW4 1224   1.092   1.550   0.835
  299SOL     OW 1225   0.857   1.679   0.781
  299SOL    HW2 1226   0.837   1.769   0.807
  299SOL    HW3 1227   0.772   1.634   0.781
  299SOL    MW4 1228   0.843   1.685   0.784
  300SOL     OW 1229   0.849   1.952   0.854
  300SOL    HW2 1230   0.868   1.930   0.945
  300SOL    HW3 1231   0.765   1.998   0.858
  300SOL    MW4 1232   0.840   1.955   0.866
  301SOL     OW 1233   1.091   2.083   0.763
  301SOL    HW2 1234   1.093   2.170   0.803
  301SOL    HW3 1235   1.006   2.047   0.789
  301SOL    MW4 1236   1.080   2.090   0.772
  302SOL     OW 1237   1.125   2.362   0.838
  302SOL    HW2 1238   1.139   2.377   0.932
  302SOL    HW3 1239   1.205   2.396   0.797
  302SOL    MW4 1240   1.138   2.369   0.845
  303SOL     OW 1241   0.917   2.477   0.713
  303SOL    HW2 1242   0.993   2.438   0.757
  303SOL    HW3 1243   0.842   2.430   0.749
  303SOL    MW4 1244   0.917   2.466   0.724
  304SOL     OW 1245   0.898   2.717   0.826
  304SOL    HW2 1246   0.910   2.701   0.920
  304SOL    HW3 1247   0.910   2.632   0.785
  304SOL    MW4 1248   0.901   2.704   0.833
  305SOL     OW 1249   1.125   2.919   0.825
  305SOL    HW2 1250   1.099   3.010   0.838
  305SOL    HW3 1251   1.042   2.871   0.821
  305SOL    MW4 1252   1.110   2.925   0.826
  306SOL     OW 1253   1.008   3.155   0.874
  306SOL    HW2 1254   0.914   3.140   0.881
  306SOL    HW3 1255   1.016   3.247   0.847
  306SOL    MW4 1256   0.996   3.165   0.871
  307SOL     OW 1257   0.788   3.279   0.612
  307SOL    HW2 1258   0.777   3.360   0.661
  307SOL    HW3 1259   0.768   3.209   0.675
  307SOL    MW4 1260   0.784   3.280   0.626
  308SOL     OW 1261   0.934   3.436   0.857
  308SOL    HW2 1262   1.010   3.474   0.812
  308SOL    HW3 1263   0.863   3.499   0.843
  308SOL    MW4 1264   0.935   3.449   0.849
  309SOL     OW 1265   1.143   3.565   0.739
  309SOL    HW2 1266   1.226   3.529   0.771
  309SOL    HW3 1267   1.143   3.546   0.645
  309SOL    MW4 1268   1.154   3.557   0.731
  310SOL     OW 1269   1.167   3.850   0.863
  310SOL    HW2 1270   1.162   3.829   0.956
  310SOL    HW3 1271   1.149   3.768   0.817
  310SOL    MW4 1272   1.164   3.837   0.869
  311SOL     OW 1273   0.930   3.953   0.752
  311SOL    HW2 1274   0.932   4.048   0.761
  311SOL    HW3 1275   1.012   3.923   0.790
  311SOL    MW4 1276   0.941   3.961   0.758
  312SOL     OW 1277   0.943   4.234   0.807
  312SOL    HW2 1278   1.017   4.295   0.799
  312SOL    HW3 1279   0.866   4.289   0.793
  312SOL    MW4 1280   0.943   4.250   0.804
  313SOL     OW 1281   1.137   4.424   0.724
  313SOL    HW2 1282   1.218   4.393   0.765
  313SOL    HW3 1283   1.118   4.507   0.768
  313SOL    MW4 1284   1.145   4.431   0.735
  314SOL     OW 1285   1.587   4.645   0.815
  314SOL    HW2 1286   1.595   4.661   0.909
  314SOL    HW3 1287   1.506   4.689   0.790
  314SOL    MW4 1288   1.577   4.653   0.824
  315SOL     OW 1289   1.375   0.123   0.714
  315SOL    HW2 1290   1.388   0.217   0.723
  315SOL    HW3 1291   1.384   0.106   0.620
  315SOL    MW4 1292   1.378   0.133   0.703
  316SOL     OW 1293   1.334   0.389   0.784
  316SOL    HW2 1294   1.328   0.381   0.879
  316SOL    HW3 1295   1.411   0.445   0.770
  316SOL    MW4 1296   1.344   0.396   0.794
  317SOL     OW 1297   1.561   0.525   0.750
  317SOL    HW2 1298   1.560   0.612   0.788
  317SOL    HW3 1299   1.650   0.492   0.766
  317SOL    MW4 1300   1.572   0.532   0.758
  318SOL     OW 1301   1.567   0.791   0.844
  318SOL    HW2 1302   1.636   0.840   0.801
  318SOL    HW3 1303   1.486   0.832   0.814
  318SOL    MW4 1304   1.565   0.803   0.835
  319SOL     OW 1305   1.359   0.891   0.682
  319SOL    HW2 1306   1.341   0.978   0.718
  319SOL    HW3 1307   1.289   0.836   0.716
  319SOL    MW4 1308   1.347   0.895   0.691
  320SOL     OW 1309   1.313   1.159   0.756
  320SOL    HW2 1310   1.387   1.196   0.708
  320SOL    HW3 1311   1.236   1.195   0.712
  320SOL    MW4 1312   1.313   1.168   0.744
  321SOL     OW 1313   1.519   1.263   0.605
  321SOL    HW2 1314   1.502   1.357   0.594
  321SOL    HW3 1315   1.517   1.228   0.516
  321SOL    MW4 1316   1.516   1.271   0.592
  322SOL     OW 1317   1.707   1.653   0.785
  322SOL    HW2 1318   1.655   1.639   0.864
  322SOL    HW3 1319   1.790   1.609   0.803
  322SOL    MW4 1320   1.711   1.645   0.798
  323SOL     OW 1321   1.288   1.698   0.702
  323SOL    HW2 1322   1.301   1.776   0.756
  323SOL    HW3 1323   1.222   1.647   0.749
  323SOL    MW4 1324   1.281   1.702   0.716
  324SOL     OW 1325   1.301   1.932   0.851
  324SOL    HW2 1326   1.310   1.936   0.946
  324SOL    HW3 1327   1.222   1.984   0.833
  324SOL    MW4 1328   1.292   1.940   0.861
  325SOL     OW 1329   1.524   2.057   0.748
  325SOL    HW2 1330   1.495   2.060   0.656
  325SOL    HW3 1331   1.451   2.015   0.794
  325SOL    MW4 1332   1.511   2.052   0.742
  326SOL     OW 1333   1.566   2.342   0.826
  326SOL    HW2 1334   1.504   2.402   0.785
  326SOL    HW3 1335   1.540   2.255   0.796
  326SOL    MW4 1336   1.555   2.338   0.816
  327SOL     OW 1337   1.378   2.498   0.726
  327SOL    HW2 1338   1.384   2.579   0.777
  327SOL    HW3 1339   1.372   2.527   0.635
  327SOL    MW4 1340   1.378   2.513   0.721
  328SOL     OW 1341   1.371   2.764   0.843
  328SOL    HW2 1342   1.373   2.761   0.939
  328SOL    HW3 1343   1.288   2.806   0.822
  328SOL    MW4 1344   1.360   2.769   0.853
  329SOL     OW 1345   1.612   2.867   0.734
  329SOL    HW2 1346   1.616   2.957   0.765
  329SOL    HW3 1347   1.526   2.836   0.761
  329SOL    MW4 1348   1.601   2.875   0.742
  330SOL     OW 1349   1.625   3.127   0.802
  330SOL    HW2 1350   1.633   3.135   0.897
  330SOL    HW3 1351   1.566   3.199   0.777
  330SOL    MW4 1352   1.618   3.138   0.811
  331SOL     OW 1353   1.410   3.258   0.658
  331SOL    HW2 1354   1.348   3.189   0.633
  331SOL    HW3 1355   1.468   3.266   0.582
  331SOL    MW4 1356   1.410   3.250   0.644
  332SOL     OW 1357   1.363   3.456   0.843
  332SOL    HW2 1358   1.435   3.518   0.827
  332SOL    HW3 1359   1.370   3.393   0.771
  332SOL    MW4 1360   1.374   3.456   0.832
  333SOL     OW 1361   1.563   3.637   0.767
  333SOL    HW2 1362   1.636   3.576   0.767
  333SOL    HW3 1363   1.539   3.646   0.675
  333SOL    MW4 1364   1.570   3.630   0.755
  334SOL     OW 1365   1.604   3.897   0.876
  334SOL    HW2 1366   1.530   3.950   0.847
  334SOL    HW3 1367   1.582   3.808   0.849
  334SOL    MW4 1368   1.591   3.892   0.869
  335SOL     OW 1369   1.370   4.017   0.792
  335SOL    HW2 1370   1.305   3.953   0.821
  335SOL    HW3 1371   1.388   3.994   0.701
  335SOL    MW4 1372   1.364   4.006   0.784
  336SOL     OW 1373   1.344   4.282   0.866
  336SOL    HW2 1374   1.423   4.316   0.824
  336SOL    HW3 1375   1.341   4.189   0.841
  336SOL    MW4 1376   1.354   4.274   0.857
  337SOL     OW 1377   1.545   4.386   0.720
  337SOL    HW2 1378   1.620   4.339   0.758
  337SOL    HW3 1379   1.563   4.478   0.737
  337SOL    MW4 1380   1.557   4.392   0.728
  338SOL     OW 1381   1.770   0.161   0.709
  338SOL    HW2 1382   1.850   0.108   0.709
  338SOL    HW3 1383   1.701   0.100   0.734
  338SOL    MW4 1384   1.771   0.146   0.713
  339SOL     OW 1385   1.704   0.142   0.422
  339SOL    HW2 1386   1.611   0.121   0.428
  339SOL    HW3 1387   1.732   0.155   0.513
  339SOL    MW4 1388   1.696   0.141   0.435
  340SOL     OW 1389   1.791   0.413   0.836
  340SOL    HW2 1390   1.783   0.325   0.798
  340SOL    HW3 1391   1.865   0.453   0.790
  340SOL    MW4 1392   1.800   0.407   0.825
  341SOL     OW 1393   2.004   0.515   0.713
  341SOL    HW2 1394   1.994   0.509   0.618
  341SOL    HW3 1395   2.089   0.475   0.731
  341SOL    MW4 1396   2.014   0.509   0.703
  342SOL     OW 1397   2.012   0.787   0.716
  342SOL    HW2 1398   2.091   0.811   0.765
  342SOL    HW3 1399   2.020   0.692   0.702
  342SOL    MW4 1400   2.024   0.777   0.721
  343SOL     OW 1401   1.745   0.926   0.683
  343SOL    HW2 1402   1.744   1.016   0.717
  343SOL    HW3 1403   1.831   0.893   0.709
  343SOL    MW4 1404   1.756   0.934   0.691
  344SOL     OW 1405   1.716   1.173   0.815
  344SOL    HW2 1406   1.797   1.219   0.791
  344SOL    HW3 1407   1.651   1.205   0.752
  344SOL    MW4 1408   1.718   1.183   0.803
  345SOL     OW 1409   1.984   1.259   0.720
  345SOL    HW2 1410   2.058   1.209   0.757
  345SOL    HW3 1411   1.986   1.237   0.627
  345SOL    MW4 1412   1.994   1.249   0.713
  346SOL     OW 1413   1.970   1.530   0.817
  346SOL    HW2 1414   2.043   1.571   0.771
  346SOL    HW3 1415   1.970   1.440   0.785
  346SOL    MW4 1416   1.979   1.524   0.807
  347SOL     OW 1417   1.731   1.427   0.250
  347SOL    HW2 1418   1.662   1.487   0.277
  347SOL    HW3 1419   1.812   1.465   0.286
  347SOL    MW4 1420   1.733   1.440   0.259
  348SOL     OW 1421   1.737   1.914   0.878
  348SOL    HW2 1422   1.717   1.827   0.844
  348SOL    HW3 1423   1.667   1.970   0.845
  348SOL    MW4 1424   1.725   1.910   0.869
  349SOL     OW 1425   1.944   2.047   0.747
  349SOL    HW2 1426   1.953   2.133   0.788
  349SOL    HW3 1427   1.864   2.011   0.784
  349SOL    MW4 1428   1.935   2.054   0.757
  350SOL     OW 1429   2.016   2.289   0.895
  350SOL    HW2 1430   2.022   2.326   0.983
  350SOL    HW3 1431   1.949   2.341   0.851
  350SOL    MW4 1432   2.008   2.301   0.901
  351SOL     OW 1433   1.821   2.439   0.759
  351SOL    HW2 1434   1.744   2.406   0.806
  351SOL    HW3 1435   1.811   2.405   0.670
  351SOL    MW4 1436   1.809   2.430   0.754
  352SOL     OW 1437   1.832   2.719   0.855
  352SOL    HW2 1438   1.823   2.637   0.806
  352SOL    HW3 1439   1.764   2.776   0.819
  352SOL    MW4 1440   1.822   2.716   0.844
  353SOL     OW 1441   2.076   2.803   0.729
  353SOL    HW2 1442   2.141   2.737   0.754
  353SOL    HW3 1443   1.996   2.776   0.776
  353SOL    MW4 1444   2.074   2.790   0.739
  354SOL     OW 1445   2.109   3.057   0.839
  354SOL    HW2 1446   2.030   3.087   0.793
  354SOL    HW3 1447   2.128   2.971   0.801
  354SOL    MW4 1448   2.101   3.050   0.828
  355SOL     OW 1449   1.874   3.147   0.709
  355SOL    HW2 1450   1.780   3.135   0.726
  355SOL    HW3 1451   1.883   3.138   0.615
  355SOL    MW4 1452   1.863   3.144   0.699
  356SOL     OW 1453   1.805   3.462   0.801
  356SOL    HW2 1454   1.831   3.478   0.892
  356SOL    HW3 1455   1.817   3.367   0.789
  356SOL    MW4 1456   1.810   3.451   0.811
  357SOL     OW 1457   2.050   3.602   0.673
  357SOL    HW2 1458   2.050   3.687   0.717
  357SOL    HW3 1459   1.965   3.563   0.696
  357SOL    MW4 1460   2.038   3.608   0.682
  358SOL     OW 1461   2.049   3.882   0.802
  358SOL    HW2 1462   2.054   3.884   0.897
  358SOL    HW3 1463   1.959   3.905   0.781
  358SOL    MW4 1464   2.038   3.885   0.811
  359SOL     OW 1465   1.796   3.981   0.698
  359SOL    HW2 1466   1.740   3.936   0.762
  359SOL    HW3 1467   1.795   3.925   0.621
  359SOL    MW4 1468   1.788   3.968   0.697
  360SOL     OW 1469   1.780   4.237   0.807
  360SOL    HW2 1470   1.774   4.231   0.903
  360SOL    HW3 1471   1.779   4.146   0.778
  360SOL    MW4 1472   1.779   4.224   0.816
  361SOL     OW 1473   2.007   4.332   0.679
  361SOL    HW2 1474   1.931   4.289   0.718
  361SOL    HW3 1475   1.993   4.325   0.585
  361SOL    MW4 1476   1.995   4.326   0.672
  362SOL     OW 1477   2.699   0.122   0.738
  362SOL    HW2 1478   2.689   0.137   0.644
  362SOL    HW3 1479   2.708   0.209   0.776
  362SOL    MW4 1480   2.699   0.135   0.731
  363SOL     OW 1481   2.468   4.606   0.805
  363SOL    HW2 1482   2.538   4.671   0.794
  363SOL    HW3 1483   2.455   4.600   0.900
  363SOL    MW4 1484   2.476   4.614   0.816
  364SOL     OW 1485   2.237   0.392   0.817
  364SOL    HW2 1486   2.317   0.428   0.779
  364SOL    HW3 1487   2.238   0.300   0.793
  364SOL    MW4 1488   2.248   0.385   0.809
  365SOL     OW 1489   2.479   0.502   0.700
  365SOL    HW2 1490   2.484   0.443   0.626
  365SOL    HW3 1491   2.556   0.482   0.753
  365SOL    MW4 1492   2.490   0.492   0.697
  366SOL     OW 1493   2.517   0.767   0.666
  366SOL    HW2 1494   2.529   0.801   0.577
  366SOL    HW3 1495   2.512   0.672   0.655
  366SOL    MW4 1496   2.517   0.759   0.653
  367SOL     OW 1497   2.254   0.870   0.827
  367SOL    HW2 1498   2.315   0.836   0.894
  367SOL    HW3 1499   2.291   0.841   0.744
  367SOL    MW4 1500   2.267   0.861   0.825
  368SOL     OW 1501   2.195   1.142   0.850
  368SOL    HW2 1502   2.208   1.156   0.944
  368SOL    HW3 1503   2.211   1.049   0.837
  368SOL    MW4 1504   2.199   1.132   0.861
  369SOL     OW 1505   2.463   1.239   0.792
  369SOL    HW2 1506   2.379   1.198   0.809
  369SOL    HW3 1507   2.473   1.236   0.697
  369SOL    MW4 1508   2.453   1.233   0.782
  370SOL     OW 1509   2.460   1.516   0.871
  370SOL    HW2 1510   2.532   1.546   0.815
  370SOL    HW3 1511   2.453   1.422   0.852
  370SOL    MW4 1512   2.468   1.507   0.861
  371SOL     OW 1513   2.219   1.632   0.736
  371SOL    HW2 1514   2.299   1.600   0.777
  371SOL    HW3 1515   2.236   1.625   0.642
  371SOL    MW4 1516   2.232   1.627   0.729
  372SOL     OW 1517   2.206   1.895   0.836
  372SOL    HW2 1518   2.214   1.815   0.783
  372SOL    HW3 1519   2.119   1.929   0.814
  372SOL    MW4 1520   2.196   1.889   0.826
  373SOL     OW 1521   2.427   2.037   0.739
  373SOL    HW2 1522   2.347   1.989   0.761
  373SOL    HW3 1523   2.436   2.029   0.645
  373SOL    MW4 1524   2.418   2.030   0.730
  374SOL     OW 1525   2.447   2.269   0.877
  374SOL    HW2 1526   2.524   2.319   0.851
  374SOL    HW3 1527   2.442   2.198   0.813
  374SOL    MW4 1528   2.456   2.266   0.865
  375SOL     OW 1529   2.226   2.378   0.752
  375SOL    HW2 1530   2.303   2.338   0.792
  375SOL    HW3 1531   2.153   2.346   0.806
  375SOL    MW4 1532   2.226   2.368   0.765
  376SOL     OW 1533   2.286   2.641   0.796
  376SOL    HW2 1534   2.272   2.652   0.890
  376SOL    HW3 1535   2.264   2.550   0.778
  376SOL    MW4 1536   2.281   2.631   0.806
  377SOL     OW 1537   2.489   2.814   0.754
  377SOL    HW2 1538   2.570   2.770   0.780
  377SOL    HW3 1539   2.421   2.749   0.767
  377SOL    MW4 1540   2.491   2.800   0.759
  378SOL     OW 1541   2.511   3.064   0.853
  378SOL    HW2 1542   2.518   3.050   0.947
  378SOL    HW3 1543   2.490   2.978   0.817
  378SOL    MW4 1544   2.509   3.051   0.860
  379SOL     OW 1545   2.315   3.196   0.715
  379SOL    HW2 1546   2.235   3.167   0.759
  379SOL    HW3 1547   2.385   3.167   0.773
  379SOL    MW4 1548   2.314   3.188   0.728
  380SOL     OW 1549   2.283   3.470   0.773
  380SOL    HW2 1550   2.297   3.385   0.731
  380SOL    HW3 1551   2.202   3.503   0.733
  380SOL    MW4 1552   2.274   3.463   0.762
  381SOL     OW 1553   2.526   3.619   0.699
  381SOL    HW2 1554   2.591   3.578   0.756
  381SOL    HW3 1555   2.442   3.584   0.728
  381SOL    MW4 1556   2.524   3.609   0.710
  382SOL     OW 1557   2.510   3.911   0.760
  382SOL    HW2 1558   2.439   3.954   0.714
  382SOL    HW3 1559   2.515   3.824   0.720
  382SOL    MW4 1560   2.501   3.905   0.749
  383SOL     OW 1561   2.270   3.992   0.646
  383SOL    HW2 1562   2.203   3.943   0.692
  383SOL    HW3 1563   2.254   3.974   0.553
  383SOL    MW4 1564   2.259   3.983   0.639
  384SOL     OW 1565   2.237   4.219   0.800
  384SOL    HW2 1566   2.269   4.139   0.757
  384SOL    HW3 1567   2.149   4.232   0.765
  384SOL    MW4 1568   2.230   4.210   0.789
  385SOL     OW 1569   2.494   4.342   0.660
  385SOL    HW2 1570   2.410   4.318   0.699
  385SOL    HW3 1571   2.512   4.430   0.695
  385SOL    MW4 1572   2.485   4.351   0.670
  386SOL     OW 1573   2.915   4.613   0.818
  386SOL    HW2 1574   2.878   4.527   0.796
  386SOL    HW3 1575   2.844   4.675   0.801
  386SOL    MW4 1576   2.901   4.610   0.813
  387SOL     OW 1577   2.709   4.407   0.449
  387SOL    HW2 1578   2.779   4.472   0.437
  387SOL    HW3 1579   2.629   4.460   0.453
  387SOL    MW4 1580   2.708   4.423   0.448
  388SOL     OW 1581   2.696   0.406   0.830
  388SOL    HW2 1582   2.697   0.397   0.926
  388SOL    HW3 1583   2.786   0.430   0.808
  388SOL    MW4 1584   2.708   0.408   0.840
  389SOL     OW 1585   2.958   0.507   0.761
  389SOL    HW2 1586   3.026   0.441   0.775
  389SOL    HW3 1587   2.949   0.512   0.665
  389SOL    MW4 1588   2.966   0.499   0.750
  390SOL     OW 1589   2.928   0.767   0.850
  390SOL    HW2 1590   2.925   0.768   0.946
  390SOL    HW3 1591   2.940   0.675   0.827
  390SOL    MW4 1592   2.930   0.755   0.860
  391SOL     OW 1593   2.668   0.844   0.887
  391SOL    HW2 1594   2.758   0.817   0.866
  391SOL    HW3 1595   2.619   0.825   0.807
  391SOL    MW4 1596   2.673   0.838   0.874
  392SOL     OW 1597   2.696   1.118   0.866
  392SOL    HW2 1598   2.684   1.024   0.876
  392SOL    HW3 1599   2.610   1.152   0.842
  392SOL    MW4 1600   2.683   1.110   0.864
  393SOL     OW 1601   2.866   1.317   0.740
  393SOL    HW2 1602   2.953   1.278   0.749
  393SOL    HW3 1603   2.807   1.252   0.778
  393SOL    MW4 1604   2.870   1.303   0.746
  394SOL     OW 1605   2.916   1.557   0.892
  394SOL    HW2 1606   2.990   1.605   0.855
  394SOL    HW3 1607   2.912   1.476   0.841
  394SOL    MW4 1608   2.925   1.553   0.880
  395SOL     OW 1609   2.669   1.618   0.728
  395SOL    HW2 1610   2.654   1.710   0.752
  395SOL    HW3 1611   2.752   1.595   0.770
  395SOL    MW4 1612   2.678   1.627   0.737
  396SOL     OW 1613   2.675   1.888   0.807
  396SOL    HW2 1614   2.671   1.899   0.902
  396SOL    HW3 1615   2.603   1.942   0.774
  396SOL    MW4 1616   2.665   1.897   0.815
  397SOL     OW 1617   2.887   2.052   0.709
  397SOL    HW2 1618   2.892   2.121   0.775
  397SOL    HW3 1619   2.830   1.986   0.748
  397SOL    MW4 1620   2.880   2.053   0.723
  398SOL     OW 1621   2.900   2.295   0.845
  398SOL    HW2 1622   2.906   2.287   0.940
  398SOL    HW3 1623   2.811   2.325   0.829
  398SOL    MW4 1624   2.889   2.298   0.855
  399SOL     OW 1625   2.662   2.402   0.747
  399SOL    HW2 1626   2.626   2.399   0.658
  399SOL    HW3 1627   2.671   2.496   0.766
  399SOL    MW4 1628   2.659   2.414   0.738
  400SOL     OW 1629   2.714   2.666   0.823
  400SOL    HW2 1630   2.720   2.672   0.918
  400SOL    HW3 1631   2.800   2.695   0.792
  400SOL    MW4 1632   2.726   2.671   0.832
  401SOL     OW 1633   2.878   2.791   0.495
  401SOL    HW2 1634   2.887   2.704   0.457
  401SOL    HW3 1635   2.784   2.810   0.492
  401SOL    MW4 1636   2.867   2.782   0.490
  402SOL     OW 1637   2.933   3.035   0.891
  402SOL    HW2 1638   2.863   3.066   0.833
  402SOL    HW3 1639   2.955   2.948   0.856
  402SOL    MW4 1640   2.927   3.027   0.879
  403SOL     OW 1641   2.766   3.162   0.717
  403SOL    HW2 1642   2.765   3.257   0.726
  403SOL    HW3 1643   2.680   3.134   0.748
  403SOL    MW4 1644   2.754   3.171   0.722
  404SOL     OW 1645   2.738   3.446   0.789
  404SOL    HW2 1646   2.712   3.457   0.880
  404SOL    HW3 1647   2.824   3.489   0.783
  404SOL    MW4 1648   2.746   3.453   0.800
  405SOL     OW 1649   2.961   3.598   0.749
  405SOL    HW2 1650   2.950   3.690   0.774
  405SOL    HW3 1651   2.988   3.602   0.657
  405SOL    MW4 1652   2.963   3.611   0.740
  406SOL     OW 1653   2.917   3.869   0.826
  406SOL    HW2 1654   2.913   3.871   0.922
  406SOL    HW3 1655   2.855   3.935   0.798
  406SOL    MW4 1656   2.909   3.878   0.835
  407SOL     OW 1657   2.745   4.010   0.676
  407SOL    HW2 1658   2.664   3.976   0.715
  407SOL    HW3 1659   2.763   3.952   0.603
  407SOL    MW4 1660   2.736   3.998   0.672
  408SOL     OW 1661   2.828   4.365   0.761
  408SOL    HW2 1662   2.777   4.357   0.842
  408SOL    HW3 1663   2.910   4.321   0.780
  408SOL    MW4 1664   2.832   4.358   0.774
  409SOL     OW 1665   3.119   4.374   0.350
  409SOL    HW2 1666   3.185   4.378   0.419
  409SOL    HW3 1667   3.043   4.333   0.392
  409SOL    MW4 1668   3.118   4.369   0.364
  410SOL     OW 1669   3.387   4.639   0.869
  410SOL    HW2 1670   3.377   4.643   0.964
  410SOL    HW3 1671   3.311   4.688   0.836
  410SOL    MW4 1672   3.375   4.646   0.877
  411SOL     OW 1673   3.164   0.060   0.752
  411SOL    HW2 1674   3.154   0.146   0.793
  411SOL    HW3 1675   3.079   0.018   0.763
  411SOL    MW4 1676   3.152   0.066   0.759
  412SOL     OW 1677   3.155   0.320   0.846
  412SOL    HW2 1678   3.164   0.321   0.941
  412SOL    HW3 1679   3.243   0.335   0.813
  412SOL    MW4 1680   3.167   0.322   0.854
  413SOL     OW 1681   3.382   0.411   0.733
  413SOL    HW2 1682   3.468   0.382   0.761
  413SOL    HW3 1683   3.373   0.379   0.643
  413SOL    MW4 1684   3.392   0.403   0.725
  414SOL     OW 1685   3.328   0.683   0.791
  414SOL    HW2 1686   3.310   0.703   0.700
  414SOL    HW3 1687   3.364   0.594   0.790
  414SOL    MW4 1688   3.331   0.674   0.779
  415SOL     OW 1689   3.028   0.940   0.659
  415SOL    HW2 1690   3.056   1.014   0.713
  415SOL    HW3 1691   2.983   0.881   0.720
  415SOL    MW4 1692   3.026   0.942   0.674
  416SOL     OW 1693   3.114   1.166   0.791
  416SOL    HW2 1694   3.113   1.156   0.886
  416SOL    HW3 1695   3.200   1.202   0.771
  416SOL    MW4 1696   3.125   1.169   0.801
  417SOL     OW 1697   3.351   1.269   0.699
  417SOL    HW2 1698   3.424   1.226   0.742
  417SOL    HW3 1699   3.346   1.355   0.741
  417SOL    MW4 1700   3.360   1.275   0.710
  418SOL     OW 1701   3.353   1.536   0.802
  418SOL    HW2 1702   3.377   1.535   0.895
  418SOL    HW3 1703   3.434   1.559   0.757
  418SOL    MW4 1704   3.367   1.539   0.808
  419SOL     OW 1705   3.120   1.557   0.683
  419SOL    HW2 1706   3.209   1.548   0.716
  419SOL    HW3 1707   3.129   1.563   0.588
  419SOL    MW4 1708   3.133   1.556   0.675
  420SOL     OW 1709   3.252   1.824   0.873
  420SOL    HW2 1710   3.195   1.841   0.948
  420SOL    HW3 1711   3.244   1.731   0.856
  420SOL    MW4 1712   3.243   1.814   0.880
  421SOL     OW 1713   3.506   1.932   0.811
  421SOL    HW2 1714   3.485   2.025   0.822
  421SOL    HW3 1715   3.425   1.886   0.833
  421SOL    MW4 1716   3.492   1.938   0.815
  422SOL     OW 1717   3.442   2.194   0.882
  422SOL    HW2 1718   3.383   2.223   0.952
  422SOL    HW3 1719   3.522   2.245   0.896
  422SOL    MW4 1720   3.445   2.204   0.893
  423SOL     OW 1721   3.074   2.419   0.674
  423SOL    HW2 1722   3.145   2.356   0.684
  423SOL    HW3 1723   3.007   2.390   0.737
  423SOL    MW4 1724   3.074   2.407   0.683
  424SOL     OW 1725   3.193   2.609   0.847
  424SOL    HW2 1726   3.174   2.534   0.791
  424SOL    HW3 1727   3.243   2.668   0.791
  424SOL    MW4 1728   3.197   2.607   0.832
  425SOL     OW 1729   3.316   2.816   0.728
  425SOL    HW2 1730   3.252   2.856   0.670
  425SOL    HW3 1731   3.389   2.792   0.670
  425SOL    MW4 1732   3.317   2.818   0.713
  426SOL     OW 1733   3.400   3.048   0.876
  426SOL    HW2 1734   3.369   3.040   0.966
  426SOL    HW3 1735   3.391   2.960   0.839
  426SOL    MW4 1736   3.395   3.036   0.883
  427SOL     OW 1737   3.130   3.196   0.777
  427SOL    HW2 1738   3.212   3.155   0.804
  427SOL    HW3 1739   3.062   3.140   0.814
  427SOL    MW4 1740   3.132   3.183   0.785
  428SOL     OW 1741   3.189   3.465   0.842
  428SOL    HW2 1742   3.164   3.374   0.827
  428SOL    HW3 1743   3.117   3.517   0.806
  428SOL    MW4 1744   3.177   3.460   0.835
  429SOL     OW 1745   3.346   4.333   0.501
  429SOL    HW2 1746   3.366   4.249   0.459
  429SOL    HW3 1747   3.427   4.382   0.497
  429SOL    MW4 1748   3.359   4.328   0.495
  430SOL     OW 1749   3.489   3.928   0.785
  430SOL    HW2 1750   3.532   4.012   0.801
  430SOL    HW3 1751   3.452   3.903   0.870
  430SOL    MW4 1752   3.490   3.935   0.798
  431SOL     OW 1753   3.086   4.022   0.653
  431SOL    HW2 1754   3.172   3.992   0.625
  431SOL    HW3 1755   3.046   3.945   0.694
  431SOL    MW4 1756   3.092   4.008   0.655
  432SOL     OW 1757   3.065   4.234   0.823
  432SOL    HW2 1758   3.145   4.286   0.831
  432SOL    HW3 1759   3.092   4.154   0.778
  432SOL    MW4 1760   3.079   4.230   0.818
  433SOL     OW 1761   3.346   4.333   0.786
  433SOL    HW2 1762   3.366   4.425   0.807
  433SOL    HW3 1763   3.322   4.334   0.694
  433SOL    MW4 1764   3.346   4.346   0.777
  434SOL     OW 1765   4.003   0.006   0.892
  434SOL    HW2 1766   3.977   0.091   0.857
  434SOL    HW3 1767   4.000  -0.053   0.817
  434SOL    MW4 1768   3.999   0.010   0.877
  435SOL     OW 1769   3.640   0.031   0.747
  435SOL    HW2 1770   3.559   0.007   0.791
  435SOL    HW3 1771   3.612   0.056   0.658
  435SOL    MW4 1772   3.625   0.031   0.741
  436SOL     OW 1773   3.649   0.310   0.832
  436SOL    HW2 1774   3.629   0.315   0.926
  436SOL    HW3 1775   3.640   0.217   0.811
  436SOL    MW4 1776   3.645   0.298   0.842
  437SOL     OW 1777   3.653   0.600   0.541
  437SOL    HW2 1778   3.568   0.642   0.527
  437SOL    HW3 1779   3.682   0.633   0.627
  437SOL    MW4 1780   3.646   0.610   0.551
  438SOL     OW 1781   3.792   0.741   0.795
  438SOL    HW2 1782   3.791   0.706   0.884
  438SOL    HW3 1783   3.857   0.811   0.797
  438SOL    MW4 1784   3.800   0.746   0.807
  439SOL     OW 1785   3.537   0.875   0.729
  439SOL    HW2 1786   3.618   0.842   0.767
  439SOL    HW3 1787   3.471   0.808   0.750
  439SOL    MW4 1788   3.539   0.862   0.737
  440SOL     OW 1789   3.557   1.150   0.823
  440SOL    HW2 1790   3.582   1.138   0.915
  440SOL    HW3 1791   3.543   1.061   0.790
  440SOL    MW4 1792   3.558   1.137   0.831
  441SOL     OW 1793   3.802   1.245   0.734
  441SOL    HW2 1794   3.725   1.200   0.768
  441SOL    HW3 1795   3.802   1.226   0.640
  441SOL    MW4 1796   3.792   1.237   0.726
  442SOL     OW 1797   3.767   1.517   0.803
  442SOL    HW2 1798   3.851   1.550   0.773
  442SOL    HW3 1799   3.768   1.424   0.779
  442SOL    MW4 1800   3.778   1.509   0.796
  443SOL     OW 1801   3.577   1.559   0.611
  443SOL    HW2 1802   3.589   1.647   0.574
  443SOL    HW3 1803   3.640   1.554   0.682
  443SOL    MW4 1804   3.587   1.570   0.615
  444SOL     OW 1805   3.815   1.999   0.594
  444SOL    HW2 1806   3.874   1.973   0.665
  444SOL    HW3 1807   3.740   1.940   0.602
  444SOL    MW4 1808   3.813   1.987   0.604
  445SOL     OW 1809   3.765   2.280   0.607
  445SOL    HW2 1810   3.758   2.303   0.699
  445SOL    HW3 1811   3.774   2.184   0.606
  445SOL    MW4 1812   3.766   2.270   0.619
  446SOL     OW 1813   3.942   1.585   0.459
  446SOL    HW2 1814   3.861   1.539   0.436
  446SOL    HW3 1815   3.926   1.676   0.433
  446SOL    MW4 1816   3.929   1.591   0.452
  447SOL     OW 1817   3.686   2.355   0.874
  447SOL    HW2 1818   3.686   2.450   0.863
  447SOL    HW3 1819   3.725   2.341   0.960
  447SOL    MW4 1820   3.691   2.366   0.884
  448SOL     OW 1821   3.656   2.641   0.866
  448SOL    HW2 1822   3.622   2.639   0.955
  448SOL    HW3 1823   3.707   2.722   0.861
  448SOL    MW4 1824   3.658   2.651   0.877
  449SOL     OW 1825   3.821   2.840   0.758
  449SOL    HW2 1826   3.781   2.903   0.818
  449SOL    HW3 1827   3.821   2.885   0.673
  449SOL    MW4 1828   3.816   2.854   0.755
  450SOL     OW 1829   3.684   3.059   0.918
  450SOL    HW2 1830   3.718   3.124   0.855
  450SOL    HW3 1831   3.590   3.074   0.919
  450SOL    MW4 1832   3.676   3.070   0.909
  451SOL     OW 1833   3.432   3.454   0.682
  451SOL    HW2 1834   3.451   3.369   0.643
  451SOL    HW3 1835   3.363   3.437   0.745
  451SOL    MW4 1836   3.426   3.441   0.685
  452SOL     OW 1837   3.647   3.472   0.854
  452SOL    HW2 1838   3.713   3.415   0.814
  452SOL    HW3 1839   3.579   3.480   0.787
  452SOL    MW4 1840   3.647   3.466   0.840
  453SOL     OW 1841   3.886   3.608   0.711
  453SOL    HW2 1842   3.830   3.652   0.776
  453SOL    HW3 1843   3.956   3.568   0.764
  453SOL    MW4 1844   3.888   3.609   0.727
  454SOL     OW 1845   3.695   3.757   0.877
  454SOL    HW2 1846   3.614   3.795   0.843
  454SOL    HW3 1847   3.675   3.664   0.890
  454SOL    MW4 1848   3.682   3.750   0.874
  455SOL     OW 1849   2.678   4.119   0.196
  455SOL    HW2 1850   2.660   4.200   0.147
  455SOL    HW3 1851   2.621   4.125   0.273
  455SOL    MW4 1852   2.668   4.131   0.200
  456SOL     OW 1853   3.600   4.197   0.799
  456SOL    HW2 1854   3.668   4.259   0.773
  456SOL    HW3 1855   3.518   4.245   0.786
  456SOL    MW4 1856   3.598   4.212   0.794
  457SOL     OW 1857   4.033   4.264   0.823
  457SOL    HW2 1858   3.972   4.259   0.750
  457SOL    HW3 1859   4.105   4.318   0.791
  457SOL    MW4 1860   4.034   4.271   0.809
  458SOL     OW 1861   4.270   4.657   0.900
  458SOL    HW2 1862   4.298   4.643   0.991
  458SOL    HW3 1863   4.176   4.672   0.907
  458SOL    MW4 1864   4.261   4.657   0.913
  459SOL     OW 1865   3.919   0.279   0.827
  459SOL    HW2 1866   3.935   0.356   0.772
  459SOL    HW3 1867   3.824   0.267   0.824
  459SOL    MW4 1868   3.908   0.288   0.819
  460SOL     OW 1869   3.967   0.529   0.671
  460SOL    HW2 1870   4.058   0.533   0.701
  460SOL    HW3 1871   3.922   0.597   0.722
  460SOL    MW4 1872   3.973   0.538   0.682
  461SOL     OW 1873   4.227   0.593   0.766
  461SOL    HW2 1874   4.275   0.520   0.805
  461SOL    HW3 1875   4.249   0.590   0.673
  461SOL    MW4 1876   4.236   0.583   0.759
  462SOL     OW 1877   4.290   0.842   0.854
  462SOL    HW2 1878   4.214   0.886   0.817
  462SOL    HW3 1879   4.280   0.750   0.827
  462SOL    MW4 1880   4.279   0.835   0.845
  463SOL     OW 1881   4.015   0.895   0.747
  463SOL    HW2 1882   4.017   0.981   0.789
  463SOL    HW3 1883   4.034   0.912   0.655
  463SOL    MW4 1884   4.018   0.908   0.740
  464SOL     OW 1885   4.066   1.153   0.819
  464SOL    HW2 1886   4.061   1.160   0.914
  464SOL    HW3 1887   3.978   1.177   0.789
  464SOL    MW4 1888   4.053   1.157   0.828
  465SOL     OW 1889   4.267   1.256   0.658
  465SOL    HW2 1890   4.190   1.229   0.709
  465SOL    HW3 1891   4.341   1.227   0.710
  465SOL    MW4 1892   4.266   1.249   0.672
  466SOL     OW 1893   4.246   1.522   0.781
  466SOL    HW2 1894   4.254   1.506   0.875
  466SOL    HW3 1895   4.276   1.440   0.741
  466SOL    MW4 1896   4.251   1.509   0.788
  467SOL     OW 1897   4.004   1.642   0.731
  467SOL    HW2 1898   4.081   1.599   0.768
  467SOL    HW3 1899   3.999   1.609   0.641
  467SOL    MW4 1900   4.013   1.632   0.724
  468SOL     OW 1901   3.964   1.907   0.811
  468SOL    HW2 1902   3.968   1.816   0.781
  468SOL    HW3 1903   4.050   1.943   0.788
  468SOL    MW4 1904   3.976   1.899   0.804
  469SOL     OW 1905   4.196   2.021   0.727
  469SOL    HW2 1906   4.287   2.009   0.756
  469SOL    HW3 1907   4.199   2.006   0.632
  469SOL    MW4 1908   4.209   2.018   0.718
  470SOL     OW 1909   4.199   2.305   0.799
  470SOL    HW2 1910   4.137   2.336   0.733
  470SOL    HW3 1911   4.214   2.213   0.777
  470SOL    MW4 1912   4.193   2.297   0.787
  471SOL     OW 1913   4.039   2.588   0.532
  471SOL    HW2 1914   4.035   2.620   0.622
  471SOL    HW3 1915   3.961   2.625   0.489
  471SOL    MW4 1916   4.028   2.597   0.538
  472SOL     OW 1917   4.056   2.687   0.801
  472SOL    HW2 1918   4.136   2.739   0.789
  472SOL    HW3 1919   3.985   2.747   0.780
  472SOL    MW4 1920   4.057   2.702   0.797
  473SOL     OW 1921   4.292   2.829   0.748
  473SOL    HW2 1922   4.373   2.792   0.782
  473SOL    HW3 1923   4.303   2.829   0.653
  473SOL    MW4 1924   4.304   2.824   0.740
  474SOL     OW 1925   4.268   3.074   0.863
  474SOL    HW2 1926   4.260   2.984   0.830
  474SOL    HW3 1927   4.340   3.112   0.813
  474SOL    MW4 1928   4.277   3.067   0.852
  475SOL     OW 1929   4.080   3.259   0.763
  475SOL    HW2 1930   4.083   3.332   0.825
  475SOL    HW3 1931   4.135   3.191   0.803
  475SOL    MW4 1932   4.087   3.259   0.777
  476SOL     OW 1933   4.116   3.531   0.866
  476SOL    HW2 1934   4.123   3.543   0.961
  476SOL    HW3 1935   4.206   3.536   0.834
  476SOL    MW4 1936   4.128   3.533   0.874
  477SOL     OW 1937   4.387   3.586   0.779
  477SOL    HW2 1938   4.378   3.677   0.809
  477SOL    HW3 1939   4.365   3.589   0.686
  477SOL    MW4 1940   4.383   3.599   0.771
  478SOL     OW 1941   4.343   3.864   0.831
  478SOL    HW2 1942   4.327   3.874   0.925
  478SOL    HW3 1943   4.276   3.917   0.789
  478SOL    MW4 1944   4.332   3.872   0.838
  479SOL     OW 1945   3.925   3.879   0.632
  479SOL    HW2 1946   3.915   3.799   0.682
  479SOL    HW3 1947   3.939   3.850   0.542
  479SOL    MW4 1948   3.925   3.865   0.626
  480SOL     OW 1949   4.176   4.023   0.703
  480SOL    HW2 1950   4.152   4.101   0.754
  480SOL    HW3 1951   4.093   3.984   0.678
  480SOL    MW4 1952   4.162   4.028   0.707
  481SOL     OW 1953   4.252   4.432   0.722
  481SOL    HW2 1954   4.241   4.502   0.787
  481SOL    HW3 1955   4.315   4.372   0.762
  481SOL    MW4 1956   4.259   4.433   0.736
  482SOL     OW 1957   0.186   0.010   1.093
  482SOL    HW2 1958   0.253   0.074   1.117
  482SOL    HW3 1959   0.183   0.014   0.997
  482SOL    MW4 1960   0.194   0.019   1.083
  483SOL     OW 1961   4.484   0.144   1.243
  483SOL    HW2 1962   4.416   0.083   1.213
  483SOL    HW3 1963   4.565   0.109   1.206
  483SOL    MW4 1964   4.486   0.131   1.234
  484SOL     OW 1965   4.472   0.387   1.122
  484SOL    HW2 1966   4.388   0.424   1.149
  484SOL    HW3 1967   4.474   0.300   1.162
  484SOL    MW4 1968   4.461   0.380   1.131
  485SOL     OW 1969   0.221   0.489   1.197
  485SOL    HW2 1970   0.220   0.578   1.161
  485SOL    HW3 1971   0.141   0.449   1.163
  485SOL    MW4 1972   0.210   0.496   1.188
  486SOL     OW 1973   0.241   0.778   1.087
  486SOL    HW2 1974   0.310   0.825   1.133
  486SOL    HW3 1975   0.162   0.829   1.104
  486SOL    MW4 1976   0.240   0.791   1.096
  487SOL     OW 1977   0.002   0.904   1.173
  487SOL    HW2 1978   0.004   0.867   1.261
  487SOL    HW3 1979  -0.087   0.888   1.141
  487SOL    MW4 1980  -0.009   0.897   1.180
  488SOL     OW 1981   0.030   1.163   1.083
  488SOL    HW2 1982  -0.040   1.209   1.130
  488SOL    HW3 1983   0.025   1.073   1.113
  488SOL    MW4 1984   0.020   1.157   1.093
  489SOL     OW 1985   0.251   1.279   1.185
  489SOL    HW2 1986   0.326   1.225   1.160
  489SOL    HW3 1987   0.177   1.239   1.139
  489SOL    MW4 1988   0.251   1.266   1.176
  490SOL     OW 1989   0.222   1.549   1.117
  490SOL    HW2 1990   0.231   1.462   1.155
  490SOL    HW3 1991   0.241   1.538   1.024
  490SOL    MW4 1992   0.226   1.536   1.110
  491SOL     OW 1993   4.490   1.670   1.213
  491SOL    HW2 1994   4.509   1.756   1.176
  491SOL    HW3 1995   4.559   1.613   1.179
  491SOL    MW4 1996   4.502   1.674   1.204
  492SOL     OW 1997   4.430   1.963   1.140
  492SOL    HW2 1998   4.338   1.973   1.163
  492SOL    HW3 1999   4.430   1.927   1.052
  492SOL    MW4 2000   4.418   1.960   1.132
  493SOL     OW 2001   0.211   2.052   1.185
  493SOL    HW2 2002   0.204   2.138   1.144
  493SOL    HW3 2003   0.122   2.017   1.184
  493SOL    MW4 2004   0.198   2.059   1.180
  494SOL     OW 2005   0.232   2.313   1.084
  494SOL    HW2 2006   0.304   2.354   1.132
  494SOL    HW3 2007   0.153   2.351   1.122
  494SOL    MW4 2008   0.231   2.323   1.096
  495SOL     OW 2009   4.477   2.383   1.171
  495SOL    HW2 2010   4.480   2.406   1.264
  495SOL    HW3 2011   4.401   2.325   1.162
  495SOL    MW4 2012   4.468   2.378   1.182
  496SOL     OW 2013   4.489   2.666   1.129
  496SOL    HW2 2014   4.406   2.709   1.153
  496SOL    HW3 2015   4.472   2.573   1.143
  496SOL    MW4 2016   4.475   2.660   1.134
  497SOL     OW 2017   0.212   2.796   1.230
  497SOL    HW2 2018   0.232   2.796   1.323
  497SOL    HW3 2019   0.130   2.746   1.223
  497SOL    MW4 2020   0.204   2.789   1.241
  498SOL     OW 2021   0.199   3.053   1.086
  498SOL    HW2 2022   0.275   3.095   1.126
  498SOL    HW3 2023   0.200   2.963   1.120
  498SOL    MW4 2024   0.209   3.047   1.096
  499SOL     OW 2025   4.490   3.221   1.223
  499SOL    HW2 2026   4.409   3.177   1.195
  499SOL    HW3 2027   4.560   3.167   1.185
  499SOL    MW4 2028   4.489   3.208   1.214
  500SOL     OW 2029   0.029   3.469   1.111
  500SOL    HW2 2030  -0.002   3.382   1.137
  500SOL    HW3 2031   0.057   3.460   1.020
  500SOL    MW4 2032   0.029   3.457   1.103
  501SOL     OW 2033   0.264   3.606   1.212
  501SOL    HW2 2034   0.257   3.595   1.307
  501SOL    HW3 2035   0.187   3.560   1.178
  501SOL    MW4 2036   0.253   3.598   1.220
  502SOL     OW 2037   0.261   3.855   1.089
  502SOL    HW2 2038   0.186   3.909   1.111
  502SOL    HW3 2039   0.246   3.772   1.134
  502SOL    MW4 2040   0.249   3.851   1.098
  503SOL     OW 2041   0.037   3.997   1.176
  503SOL    HW2 2042   0.062   3.995   1.269
  503SOL    HW3 2043  -0.050   3.958   1.174
  503SOL    MW4 2044   0.029   3.992   1.188
  504SOL     OW 2045   0.030   4.275   1.101
  504SOL    HW2 2046   0.101   4.323   1.143
  504SOL    HW3 2047   0.037   4.186   1.135
  504SOL    MW4 2048   0.040   4.270   1.111
  505SOL     OW 2049   0.257   4.413   1.181
  505SOL    HW2 2050   0.271   4.418   1.276
  505SOL    HW3 2051   0.252   4.504   1.153
  505SOL    MW4 2052   0.258   4.426   1.190
  506SOL     OW 2053   0.661   4.648   1.104
  506SOL    HW2 2054   0.746   4.691   1.118
  506SOL    HW3 2055   0.677   4.557   1.127
  506SOL    MW4 2056   0.675   4.642   1.109
  507SOL     OW 2057   0.439   0.123   1.168
  507SOL    HW2 2058   0.459   0.215   1.149
  507SOL    HW3 2059   0.523   0.078   1.159
  507SOL    MW4 2060   0.453   0.129   1.164
  508SOL     OW 2061   0.469   0.384   1.108
  508SOL    HW2 2062   0.386   0.412   1.147
  508SOL    HW3 2063   0.453   0.385   1.014
  508SOL    MW4 2064   0.456   0.388   1.101
  509SOL     OW 2065   0.691   0.494   1.216
  509SOL    HW2 2066   0.688   0.585   1.187
  509SOL    HW3 2067   0.607   0.457   1.187
  509SOL    MW4 2068   0.679   0.501   1.209
  510SOL     OW 2069   0.701   0.777   1.128
  510SOL    HW2 2070   0.622   0.824   1.155
  510SOL    HW3 2071   0.693   0.770   1.033
  510SOL    MW4 2072   0.689   0.782   1.119
  511SOL     OW 2073   0.466   0.900   1.206
  511SOL    HW2 2074   0.469   0.905   1.301
  511SOL    HW3 2075   0.486   0.989   1.177
  511SOL    MW4 2076   0.469   0.913   1.214
  512SOL     OW 2077   0.474   1.151   1.081
  512SOL    HW2 2078   0.546   1.208   1.108
  512SOL    HW3 2079   0.467   1.165   0.987
  512SOL    MW4 2080   0.483   1.160   1.072
  513SOL     OW 2081   0.677   1.312   1.192
  513SOL    HW2 2082   0.742   1.265   1.141
  513SOL    HW3 2083   0.685   1.403   1.164
  513SOL    MW4 2084   0.686   1.318   1.182
  514SOL     OW 2085   0.658   1.577   1.088
  514SOL    HW2 2086   0.733   1.627   1.120
  514SOL    HW3 2087   0.582   1.621   1.125
  514SOL    MW4 2088   0.658   1.589   1.097
  515SOL     OW 2089   0.447   1.706   1.194
  515SOL    HW2 2090   0.445   1.710   1.290
  515SOL    HW3 2091   0.361   1.672   1.169
  515SOL    MW4 2092   0.435   1.702   1.204
  516SOL     OW 2093   0.452   1.965   1.084
  516SOL    HW2 2094   0.469   1.878   1.118
  516SOL    HW3 2095   0.364   1.987   1.118
  516SOL    MW4 2096   0.442   1.957   1.093
  517SOL     OW 2097   0.685   2.087   1.192
  517SOL    HW2 2098   0.687   2.071   1.286
  517SOL    HW3 2099   0.603   2.046   1.162
  517SOL    MW4 2100   0.674   2.079   1.200
  518SOL     OW 2101   0.681   2.366   1.148
  518SOL    HW2 2102   0.592   2.395   1.171
  518SOL    HW3 2103   0.685   2.275   1.179
  518SOL    MW4 2104   0.669   2.358   1.155
  519SOL     OW 2105   0.446   2.465   1.217
  519SOL    HW2 2106   0.456   2.479   1.311
  519SOL    HW3 2107   0.453   2.552   1.178
  519SOL    MW4 2108   0.448   2.478   1.224
  520SOL     OW 2109   0.455   2.718   1.127
  520SOL    HW2 2110   0.370   2.747   1.160
  520SOL    HW3 2111   0.445   2.720   1.031
  520SOL    MW4 2112   0.442   2.722   1.118
  521SOL     OW 2113   0.742   2.828   1.221
  521SOL    HW2 2114   0.730   2.913   1.178
  521SOL    HW3 2115   0.661   2.780   1.203
  521SOL    MW4 2116   0.730   2.833   1.213
  522SOL     OW 2117   0.673   3.077   1.126
  522SOL    HW2 2118   0.758   3.090   1.168
  522SOL    HW3 2119   0.690   3.095   1.033
  522SOL    MW4 2120   0.686   3.081   1.119
  523SOL     OW 2121   0.416   3.176   1.202
  523SOL    HW2 2122   0.431   3.259   1.157
  523SOL    HW3 2123   0.497   3.126   1.189
  523SOL    MW4 2124   0.428   3.181   1.194
  524SOL     OW 2125   0.455   3.442   1.105
  524SOL    HW2 2126   0.531   3.490   1.138
  524SOL    HW3 2127   0.380   3.498   1.126
  524SOL    MW4 2128   0.455   3.456   1.112
  525SOL     OW 2129   0.686   3.546   1.209
  525SOL    HW2 2130   0.684   3.532   1.303
  525SOL    HW3 2131   0.681   3.641   1.198
  525SOL    MW4 2132   0.685   3.557   1.220
  526SOL     OW 2133   0.676   3.812   1.135
  526SOL    HW2 2134   0.638   3.894   1.164
  526SOL    HW3 2135   0.654   3.806   1.042
  526SOL    MW4 2136   0.668   3.822   1.127
  527SOL     OW 2137   0.444   4.015   1.237
  527SOL    HW2 2138   0.425   4.100   1.199
  527SOL    HW3 2139   0.387   3.954   1.190
  527SOL    MW4 2140   0.434   4.018   1.226
  528SOL     OW 2141   0.455   4.231   1.065
  528SOL    HW2 2142   0.543   4.262   1.087
  528SOL    HW3 2143   0.396   4.294   1.105
  528SOL    MW4 2144   0.459   4.243   1.073
  529SOL     OW 2145   0.709   4.350   1.208
  529SOL    HW2 2146   0.697   4.337   1.302
  529SOL    HW3 2147   0.789   4.302   1.187
  529SOL    MW4 2148   0.718   4.342   1.218
  530SOL     OW 2149   1.148   4.662   1.131
  530SOL    HW2 2150   1.156   4.577   1.173
  530SOL    HW3 2151   1.162   4.644   1.038
  530SOL    MW4 2152   1.151   4.649   1.124
  531SOL     OW 2153   0.900   0.121   1.192
  531SOL    HW2 2154   0.899   0.132   1.287
  531SOL    HW3 2155   0.974   0.063   1.174
  531SOL    MW4 2156   0.909   0.115   1.202
  532SOL     OW 2157   0.882   0.365   1.066
  532SOL    HW2 2158   0.891   0.283   1.115
  532SOL    HW3 2159   0.807   0.409   1.107
  532SOL    MW4 2160   0.873   0.360   1.078
  533SOL     OW 2161   1.100   0.491   1.182
  533SOL    HW2 2162   1.085   0.493   1.277
  533SOL    HW3 2163   1.022   0.448   1.147
  533SOL    MW4 2164   1.088   0.486   1.190
  534SOL     OW 2165   1.117   0.771   1.095
  534SOL    HW2 2166   1.048   0.819   1.141
  534SOL    HW3 2167   1.094   0.679   1.107
  534SOL    MW4 2168   1.105   0.765   1.102
  535SOL     OW 2169   0.911   0.945   1.205
  535SOL    HW2 2170   0.900   1.017   1.143
  535SOL    HW3 2171   0.842   0.883   1.182
  535SOL    MW4 2172   0.900   0.946   1.194
  536SOL     OW 2173   0.859   1.182   1.042
  536SOL    HW2 2174   0.945   1.216   1.065
  536SOL    HW3 2175   0.867   1.154   0.951
  536SOL    MW4 2176   0.871   1.183   1.033
  537SOL     OW 2177   1.094   1.273   1.161
  537SOL    HW2 2178   1.092   1.280   1.256
  537SOL    HW3 2179   1.185   1.250   1.140
  537SOL    MW4 2180   1.106   1.271   1.171
  538SOL     OW 2181   1.144   1.547   1.107
  538SOL    HW2 2182   1.114   1.460   1.134
  538SOL    HW3 2183   1.139   1.545   1.011
  538SOL    MW4 2184   1.139   1.535   1.098
  539SOL     OW 2185   0.898   1.644   1.221
  539SOL    HW2 2186   0.897   1.735   1.192
  539SOL    HW3 2187   0.974   1.606   1.177
  539SOL    MW4 2188   0.908   1.651   1.212
  540SOL     OW 2189   0.902   1.925   1.128
  540SOL    HW2 2190   0.982   1.976   1.141
  540SOL    HW3 2191   0.832   1.989   1.133
  540SOL    MW4 2192   0.904   1.940   1.131
  541SOL     OW 2193   1.132   2.072   1.193
  541SOL    HW2 2194   1.131   2.066   1.289
  541SOL    HW3 2195   1.144   2.166   1.176
  541SOL    MW4 2196   1.134   2.084   1.204
  542SOL     OW 2197   1.181   2.342   1.112
  542SOL    HW2 2198   1.254   2.395   1.145
  542SOL    HW3 2199   1.104   2.378   1.156
  542SOL    MW4 2200   1.180   2.354   1.122
  543SOL     OW 2201   0.943   2.426   1.227
  543SOL    HW2 2202   0.934   2.453   1.318
  543SOL    HW3 2203   0.854   2.407   1.198
  543SOL    MW4 2204   0.930   2.427   1.235
  544SOL     OW 2205   0.973   2.685   1.108
  544SOL    HW2 2206   0.968   2.593   1.137
  544SOL    HW3 2207   0.897   2.727   1.148
  544SOL    MW4 2208   0.962   2.678   1.117
  545SOL     OW 2209   1.149   2.856   1.243
  545SOL    HW2 2210   1.146   2.849   1.338
  545SOL    HW3 2211   1.084   2.792   1.212
  545SOL    MW4 2212   1.140   2.847   1.251
  546SOL     OW 2213   1.157   3.097   1.120
  546SOL    HW2 2214   1.168   3.005   1.144
  546SOL    HW3 2215   1.110   3.095   1.037
  546SOL    MW4 2216   1.152   3.085   1.113
  547SOL     OW 2217   0.915   3.146   1.240
  547SOL    HW2 2218   0.915   3.241   1.226
  547SOL    HW3 2219   1.002   3.118   1.213
  547SOL    MW4 2220   0.927   3.155   1.235
  548SOL     OW 2221   0.924   3.411   1.150
  548SOL    HW2 2222   0.851   3.468   1.172
  548SOL    HW3 2223   0.915   3.395   1.056
  548SOL    MW4 2224   0.913   3.416   1.140
  549SOL     OW 2225   1.156   3.563   1.227
  549SOL    HW2 2226   1.236   3.515   1.205
  549SOL    HW3 2227   1.085   3.510   1.191
  549SOL    MW4 2228   1.157   3.550   1.219
  550SOL     OW 2229   1.172   3.822   1.147
  550SOL    HW2 2230   1.092   3.856   1.186
  550SOL    HW3 2231   1.180   3.733   1.182
  550SOL    MW4 2232   1.162   3.815   1.157
  551SOL     OW 2233   0.927   3.916   1.232
  551SOL    HW2 2234   0.900   3.912   1.324
  551SOL    HW3 2235   0.850   3.890   1.183
  551SOL    MW4 2236   0.914   3.912   1.238
  552SOL     OW 2237   0.947   4.198   1.156
  552SOL    HW2 2238   0.942   4.113   1.199
  552SOL    HW3 2239   0.935   4.178   1.063
  552SOL    MW4 2240   0.945   4.184   1.149
  553SOL     OW 2241   1.170   4.391   1.223
  553SOL    HW2 2242   1.162   4.394   1.318
  553SOL    HW3 2243   1.097   4.337   1.194
  553SOL    MW4 2244   1.159   4.384   1.232
  554SOL     OW 2245   1.582   4.651   1.100
  554SOL    HW2 2246   1.656   4.699   1.137
  554SOL    HW3 2247   1.580   4.568   1.149
  554SOL    MW4 2248   1.592   4.646   1.111
  555SOL     OW 2249   1.367   0.137   1.204
  555SOL    HW2 2250   1.440   0.096   1.158
  555SOL    HW3 2251   1.291   0.084   1.180
  555SOL    MW4 2252   1.367   0.125   1.195
  556SOL     OW 2253   1.341   0.376   1.075
  556SOL    HW2 2254   1.342   0.292   1.121
  556SOL    HW3 2255   1.267   0.423   1.113
  556SOL    MW4 2256   1.332   0.371   1.086
  557SOL     OW 2257   1.568   0.500   1.214
  557SOL    HW2 2258   1.565   0.594   1.196
  557SOL    HW3 2259   1.493   0.464   1.167
  557SOL    MW4 2260   1.558   0.507   1.206
  558SOL     OW 2261   1.570   0.773   1.121
  558SOL    HW2 2262   1.649   0.823   1.144
  558SOL    HW3 2263   1.576   0.763   1.026
  558SOL    MW4 2264   1.581   0.778   1.111
  559SOL     OW 2265   1.341   0.923   1.185
  559SOL    HW2 2266   1.418   0.869   1.168
  559SOL    HW3 2267   1.267   0.872   1.152
  559SOL    MW4 2268   1.341   0.909   1.179
  560SOL     OW 2269   1.333   1.162   1.032
  560SOL    HW2 2270   1.337   1.074   1.070
  560SOL    HW3 2271   1.329   1.146   0.937
  560SOL    MW4 2272   1.333   1.148   1.024
  561SOL     OW 2273   1.530   1.309   1.164
  561SOL    HW2 2274   1.609   1.259   1.145
  561SOL    HW3 2275   1.464   1.272   1.106
  561SOL    MW4 2276   1.532   1.298   1.154
  562SOL     OW 2277   1.629   1.540   1.032
  562SOL    HW2 2278   1.700   1.567   1.090
  562SOL    HW3 2279   1.597   1.458   1.070
  562SOL    MW4 2280   1.634   1.532   1.045
  563SOL     OW 2281   1.405   1.672   1.191
  563SOL    HW2 2282   1.480   1.628   1.151
  563SOL    HW3 2283   1.329   1.630   1.151
  563SOL    MW4 2284   1.405   1.661   1.180
  564SOL     OW 2285   1.359   1.946   1.116
  564SOL    HW2 2286   1.368   1.854   1.143
  564SOL    HW3 2287   1.272   1.972   1.147
  564SOL    MW4 2288   1.349   1.937   1.123
  565SOL     OW 2289   1.567   2.083   1.229
  565SOL    HW2 2290   1.567   2.167   1.184
  565SOL    HW3 2291   1.495   2.034   1.189
  565SOL    MW4 2292   1.558   2.087   1.218
  566SOL     OW 2293   1.581   2.314   1.103
  566SOL    HW2 2294   1.506   2.361   1.137
  566SOL    HW3 2295   1.572   2.319   1.007
  566SOL    MW4 2296   1.570   2.321   1.094
  567SOL     OW 2297   1.383   2.481   1.212
  567SOL    HW2 2298   1.382   2.476   1.307
  567SOL    HW3 2299   1.373   2.574   1.192
  567SOL    MW4 2300   1.381   2.492   1.222
  568SOL     OW 2301   1.365   2.733   1.134
  568SOL    HW2 2302   1.439   2.781   1.170
  568SOL    HW3 2303   1.288   2.778   1.168
  568SOL    MW4 2304   1.365   2.745   1.143
  569SOL     OW 2305   1.594   2.885   1.226
  569SOL    HW2 2306   1.674   2.840   1.198
  569SOL    HW3 2307   1.593   2.966   1.175
  569SOL    MW4 2308   1.604   2.889   1.215
  570SOL     OW 2309   1.630   3.130   1.090
  570SOL    HW2 2310   1.704   3.158   1.144
  570SOL    HW3 2311   1.554   3.172   1.130
  570SOL    MW4 2312   1.630   3.139   1.103
  571SOL     OW 2313   1.396   3.227   1.210
  571SOL    HW2 2314   1.395   3.214   1.305
  571SOL    HW3 2315   1.316   3.184   1.180
  571SOL    MW4 2316   1.385   3.219   1.219
  572SOL     OW 2317   1.405   3.476   1.126
  572SOL    HW2 2318   1.411   3.383   1.150
  572SOL    HW3 2319   1.385   3.475   1.032
  572SOL    MW4 2320   1.403   3.464   1.117
  573SOL     OW 2321   1.625   3.606   1.234
  573SOL    HW2 2322   1.618   3.697   1.206
  573SOL    HW3 2323   1.543   3.566   1.207
  573SOL    MW4 2324   1.613   3.613   1.227
  574SOL     OW 2325   1.623   3.866   1.151
  574SOL    HW2 2326   1.545   3.917   1.171
  574SOL    HW3 2327   1.623   3.859   1.055
  574SOL    MW4 2328   1.613   3.872   1.141
  575SOL     OW 2329   1.389   3.983   1.225
  575SOL    HW2 2330   1.383   4.076   1.206
  575SOL    HW3 2331   1.304   3.947   1.201
  575SOL    MW4 2332   1.377   3.990   1.220
  576SOL     OW 2333   1.381   4.238   1.144
  576SOL    HW2 2334   1.304   4.284   1.178
  576SOL    HW3 2335   1.381   4.255   1.050
  576SOL    MW4 2336   1.371   4.246   1.136
  577SOL     OW 2337   1.576   4.406   1.235
  577SOL    HW2 2338   1.570   4.408   1.330
  577SOL    HW3 2339   1.508   4.344   1.208
  577SOL    MW4 2340   1.566   4.398   1.244
  578SOL     OW 2341   2.010   4.645   1.007
  578SOL    HW2 2342   2.015   4.562   1.054
  578SOL    HW3 2343   1.997   4.620   0.915
  578SOL    MW4 2344   2.009   4.631   1.001
  579SOL     OW 2345   1.801   0.130   1.170
  579SOL    HW2 2346   1.798   0.224   1.150
  579SOL    HW3 2347   1.873   0.097   1.115
  579SOL    MW4 2348   1.810   0.138   1.160
  580SOL     OW 2349   1.793   0.394   1.113
  580SOL    HW2 2350   1.709   0.432   1.140
  580SOL    HW3 2351   1.799   0.415   1.020
  580SOL    MW4 2352   1.782   0.402   1.104
  581SOL     OW 2353   2.007   0.558   1.197
  581SOL    HW2 2354   2.006   0.542   1.292
  581SOL    HW3 2355   1.932   0.508   1.164
  581SOL    MW4 2356   1.997   0.549   1.205
  582SOL     OW 2357   2.014   0.796   1.071
  582SOL    HW2 2358   2.020   0.708   1.106
  582SOL    HW3 2359   2.009   0.784   0.976
  582SOL    MW4 2360   2.014   0.783   1.063
  583SOL     OW 2361   1.788   0.915   1.194
  583SOL    HW2 2362   1.786   0.912   1.290
  583SOL    HW3 2363   1.867   0.866   1.170
  583SOL    MW4 2364   1.798   0.908   1.204
  584SOL     OW 2365   1.769   1.183   1.094
  584SOL    HW2 2366   1.780   1.093   1.126
  584SOL    HW3 2367   1.756   1.173   1.000
  584SOL    MW4 2368   1.769   1.170   1.086
  585SOL     OW 2369   1.975   1.320   1.216
  585SOL    HW2 2370   2.052   1.270   1.189
  585SOL    HW3 2371   1.902   1.279   1.171
  585SOL    MW4 2372   1.976   1.308   1.206
  586SOL     OW 2373   2.040   1.554   1.109
  586SOL    HW2 2374   2.008   1.473   1.149
  586SOL    HW3 2375   2.025   1.542   1.015
  586SOL    MW4 2376   2.034   1.541   1.102
  587SOL     OW 2377   1.802   1.652   1.226
  587SOL    HW2 2378   1.790   1.746   1.211
  587SOL    HW3 2379   1.896   1.639   1.219
  587SOL    MW4 2380   1.813   1.663   1.223
  588SOL     OW 2381   1.783   1.917   1.162
  588SOL    HW2 2382   1.719   1.982   1.189
  588SOL    HW3 2383   1.772   1.910   1.067
  588SOL    MW4 2384   1.773   1.924   1.153
  589SOL     OW 2385   2.005   2.088   1.232
  589SOL    HW2 2386   2.017   2.079   1.327
  589SOL    HW3 2387   1.935   2.026   1.211
  589SOL    MW4 2388   1.997   2.079   1.242
  590SOL     OW 2389   2.041   2.359   1.169
  590SOL    HW2 2390   2.122   2.380   1.214
  590SOL    HW3 2391   2.032   2.264   1.178
  590SOL    MW4 2392   2.050   2.349   1.176
  591SOL     OW 2393   1.793   2.461   1.241
  591SOL    HW2 2394   1.871   2.426   1.198
  591SOL    HW3 2395   1.721   2.411   1.203
  591SOL    MW4 2396   1.794   2.450   1.230
  592SOL     OW 2397   1.803   2.740   1.132
  592SOL    HW2 2398   1.779   2.655   1.170
  592SOL    HW3 2399   1.803   2.725   1.038
  592SOL    MW4 2400   1.800   2.727   1.125
  593SOL     OW 2401   2.084   2.774   1.234
  593SOL    HW2 2402   2.091   2.863   1.201
  593SOL    HW3 2403   1.996   2.746   1.210
  593SOL    MW4 2404   2.074   2.782   1.227
  594SOL     OW 2405   2.051   3.032   1.126
  594SOL    HW2 2406   1.975   3.091   1.134
  594SOL    HW3 2407   2.070   3.032   1.032
  594SOL    MW4 2408   2.043   3.040   1.114
  595SOL     OW 2409   1.871   3.232   1.186
  595SOL    HW2 2410   1.859   3.222   1.280
  595SOL    HW3 2411   1.862   3.325   1.169
  595SOL    MW4 2412   1.869   3.243   1.196
  596SOL     OW 2413   1.840   3.507   1.080
  596SOL    HW2 2414   1.907   3.565   1.115
  596SOL    HW3 2415   1.760   3.532   1.127
  596SOL    MW4 2416   1.838   3.518   1.091
  597SOL     OW 2417   2.071   3.644   1.169
  597SOL    HW2 2418   2.071   3.608   1.258
  597SOL    HW3 2419   2.128   3.585   1.119
  597SOL    MW4 2420   2.078   3.631   1.174
  598SOL     OW 2421   2.015   3.899   1.076
  598SOL    HW2 2422   1.953   3.934   1.139
  598SOL    HW3 2423   2.030   3.809   1.106
  598SOL    MW4 2424   2.009   3.891   1.089
  599SOL     OW 2425   1.829   4.038   1.229
  599SOL    HW2 2426   1.843   4.042   1.324
  599SOL    HW3 2427   1.753   3.982   1.218
  599SOL    MW4 2428   1.821   4.031   1.240
  600SOL     OW 2429   1.766   4.243   1.083
  600SOL    HW2 2430   1.776   4.166   1.139
  600SOL    HW3 2431   1.706   4.300   1.132
  600SOL    MW4 2432   1.759   4.240   1.097
  601SOL     OW 2433   2.004   4.400   1.130
  601SOL    HW2 2434   2.023   4.390   1.223
  601SOL    HW3 2435   1.926   4.346   1.116
  601SOL    MW4 2436   1.996   4.391   1.140
  602SOL     OW 2437   2.447   4.640   1.072
  602SOL    HW2 2438   2.524   4.690   1.098
  602SOL    HW3 2439   2.373   4.688   1.110
  602SOL    MW4 2440   2.447   4.653   1.081
  603SOL     OW 2441   2.206   0.109   1.163
  603SOL    HW2 2442   2.206   0.203   1.145
  603SOL    HW3 2443   2.135   0.074   1.108
  603SOL    MW4 2444   2.197   0.116   1.153
  604SOL     OW 2445   2.225   0.390   1.109
  604SOL    HW2 2446   2.156   0.453   1.127
  604SOL    HW3 2447   2.224   0.379   1.014
  604SOL    MW4 2448   2.216   0.397   1.099
  605SOL     OW 2449   2.448   0.536   1.162
  605SOL    HW2 2450   2.448   0.533   1.257
  605SOL    HW3 2451   2.373   0.482   1.136
  605SOL    MW4 2452   2.438   0.529   1.171
  606SOL     OW 2453   2.448   0.777   1.051
  606SOL    HW2 2454   2.444   0.691   1.093
  606SOL    HW3 2455   2.520   0.770   0.988
  606SOL    MW4 2456   2.457   0.765   1.048
  607SOL     OW 2457   2.246   0.890   1.204
  607SOL    HW2 2458   2.316   0.863   1.146
  607SOL    HW3 2459   2.166   0.853   1.166
  607SOL    MW4 2460   2.245   0.882   1.191
  608SOL     OW 2461   2.207   1.178   1.137
  608SOL    HW2 2462   2.283   1.216   1.180
  608SOL    HW3 2463   2.216   1.084   1.151
  608SOL    MW4 2464   2.218   1.170   1.144
  609SOL     OW 2465   2.461   1.294   1.221
  609SOL    HW2 2466   2.534   1.266   1.166
  609SOL    HW3 2467   2.456   1.389   1.207
  609SOL    MW4 2468   2.470   1.303   1.212
  610SOL     OW 2469   2.483   1.565   1.138
  610SOL    HW2 2470   2.414   1.624   1.167
  610SOL    HW3 2471   2.466   1.552   1.044
  610SOL    MW4 2472   2.472   1.571   1.129
  611SOL     OW 2473   2.255   1.686   1.224
  611SOL    HW2 2474   2.244   1.777   1.197
  611SOL    HW3 2475   2.190   1.637   1.174
  611SOL    MW4 2476   2.245   1.692   1.214
  612SOL     OW 2477   2.217   1.951   1.117
  612SOL    HW2 2478   2.130   1.976   1.148
  612SOL    HW3 2479   2.205   1.933   1.024
  612SOL    MW4 2480   2.204   1.952   1.109
  613SOL     OW 2481   2.457   2.004   1.256
  613SOL    HW2 2482   2.522   1.959   1.202
  613SOL    HW3 2483   2.373   1.983   1.214
  613SOL    MW4 2484   2.454   1.995   1.243
  614SOL     OW 2485   2.495   2.264   1.154
  614SOL    HW2 2486   2.471   2.177   1.186
  614SOL    HW3 2487   2.496   2.254   1.058
  614SOL    MW4 2488   2.492   2.251   1.145
  615SOL     OW 2489   2.300   2.424   1.248
  615SOL    HW2 2490   2.296   2.416   1.344
  615SOL    HW3 2491   2.357   2.352   1.221
  615SOL    MW4 2492   2.307   2.413   1.257
  616SOL     OW 2493   2.287   2.658   1.086
  616SOL    HW2 2494   2.298   2.583   1.145
  616SOL    HW3 2495   2.224   2.714   1.131
  616SOL    MW4 2496   2.281   2.656   1.100
  617SOL     OW 2497   2.493   2.819   1.209
  617SOL    HW2 2498   2.486   2.780   1.296
  617SOL    HW3 2499   2.422   2.778   1.159
  617SOL    MW4 2500   2.482   2.809   1.214
  618SOL     OW 2501   2.510   3.079   1.131
  618SOL    HW2 2502   2.427   3.125   1.141
  618SOL    HW3 2503   2.497   2.996   1.177
  618SOL    MW4 2504   2.497   3.074   1.139
  619SOL     OW 2505   2.256   3.193   1.175
  619SOL    HW2 2506   2.252   3.271   1.119
  619SOL    HW3 2507   2.182   3.140   1.147
  619SOL    MW4 2508   2.246   3.196   1.164
  620SOL     OW 2509   2.249   3.457   1.038
  620SOL    HW2 2510   2.330   3.491   1.075
  620SOL    HW3 2511   2.263   3.461   0.943
  620SOL    MW4 2512   2.261   3.462   1.030
  621SOL     OW 2513   2.452   3.593   1.151
  621SOL    HW2 2514   2.435   3.611   1.243
  621SOL    HW3 2515   2.468   3.679   1.111
  621SOL    MW4 2516   2.452   3.606   1.158
  622SOL     OW 2517   2.478   3.844   1.035
  622SOL    HW2 2518   2.399   3.892   1.057
  622SOL    HW3 2519   2.497   3.868   0.944
  622SOL    MW4 2520   2.470   3.853   1.026
  623SOL     OW 2521   2.267   3.983   1.146
  623SOL    HW2 2522   2.251   4.075   1.125
  623SOL    HW3 2523   2.181   3.941   1.137
  623SOL    MW4 2524   2.253   3.990   1.142
  624SOL     OW 2525   2.253   4.259   1.069
  624SOL    HW2 2526   2.167   4.301   1.076
  624SOL    HW3 2527   2.263   4.241   0.976
  624SOL    MW4 2528   2.243   4.262   1.058
  625SOL     OW 2529   2.495   4.367   1.163
  625SOL    HW2 2530   2.411   4.346   1.123
  625SOL    HW3 2531   2.506   4.461   1.148
  625SOL    MW4 2532   2.485   4.377   1.156
  626SOL     OW 2533   2.942   4.664   1.117
  626SOL    HW2 2534   2.938   4.581   1.164
  626SOL    HW3 2535   2.942   4.640   1.024
  626SOL    MW4 2536   2.942   4.650   1.111
  627SOL     OW 2537   2.686   0.101   1.139
  627SOL    HW2 2538   2.684   0.100   1.235
  627SOL    HW3 2539   2.771   0.062   1.117
  627SOL    MW4 2540   2.697   0.096   1.149
  628SOL     OW 2541   2.681   0.377   1.101
  628SOL    HW2 2542   2.667   0.285   1.125
  628SOL    HW3 2543   2.595   0.418   1.111
  628SOL    MW4 2544   2.668   0.370   1.105
  629SOL     OW 2545   2.925   0.484   1.206
  629SOL    HW2 2546   2.927   0.577   1.183
  629SOL    HW3 2547   2.842   0.453   1.170
  629SOL    MW4 2548   2.914   0.492   1.198
  630SOL     OW 2549   2.899   0.749   1.119
  630SOL    HW2 2550   2.976   0.806   1.126
  630SOL    HW3 2551   2.827   0.800   1.156
  630SOL    MW4 2552   2.900   0.763   1.125
  631SOL     OW 2553   2.660   0.900   1.193
  631SOL    HW2 2554   2.655   0.991   1.165
  631SOL    HW3 2555   2.582   0.859   1.156
  631SOL    MW4 2556   2.649   0.906   1.184
  632SOL     OW 2557   2.677   1.175   1.122
  632SOL    HW2 2558   2.764   1.188   1.160
  632SOL    HW3 2559   2.694   1.159   1.029
  632SOL    MW4 2560   2.691   1.174   1.115
  633SOL     OW 2561   2.920   1.252   1.228
  633SOL    HW2 2562   2.943   1.257   1.321
  633SOL    HW3 2563   2.921   1.343   1.198
  633SOL    MW4 2564   2.923   1.265   1.237
  634SOL     OW 2565   2.907   1.513   1.173
  634SOL    HW2 2566   2.994   1.551   1.177
  634SOL    HW3 2567   2.881   1.522   1.081
  634SOL    MW4 2568   2.915   1.519   1.161
  635SOL     OW 2569   2.720   1.692   1.226
  635SOL    HW2 2570   2.787   1.625   1.217
  635SOL    HW3 2571   2.639   1.650   1.195
  635SOL    MW4 2572   2.718   1.678   1.221
  636SOL     OW 2573   2.663   1.919   1.099
  636SOL    HW2 2574   2.733   1.976   1.131
  636SOL    HW3 2575   2.684   1.833   1.135
  636SOL    MW4 2576   2.675   1.915   1.108
  637SOL     OW 2577   2.893   2.029   1.195
  637SOL    HW2 2578   2.914   2.036   1.288
  637SOL    HW3 2579   2.892   2.120   1.164
  637SOL    MW4 2580   2.896   2.042   1.203
  638SOL     OW 2581   2.885   2.294   1.116
  638SOL    HW2 2582   2.967   2.330   1.149
  638SOL    HW3 2583   2.817   2.337   1.168
  638SOL    MW4 2584   2.887   2.305   1.127
  639SOL     OW 2585   2.692   2.452   1.255
  639SOL    HW2 2586   2.691   2.447   1.350
  639SOL    HW3 2587   2.622   2.394   1.226
  639SOL    MW4 2588   2.683   2.444   1.264
  640SOL     OW 2589   2.708   2.686   1.099
  640SOL    HW2 2590   2.699   2.603   1.146
  640SOL    HW3 2591   2.636   2.740   1.132
  640SOL    MW4 2592   2.697   2.683   1.109
  641SOL     OW 2593   2.943   2.802   1.184
  641SOL    HW2 2594   2.944   2.791   1.279
  641SOL    HW3 2595   2.859   2.765   1.156
  641SOL    MW4 2596   2.932   2.796   1.193
  642SOL     OW 2597   2.941   3.094   1.156
  642SOL    HW2 2598   2.934   3.005   1.192
  642SOL    HW3 2599   2.948   3.081   1.062
  642SOL    MW4 2600   2.941   3.081   1.149
  643SOL     OW 2601   2.707   3.243   1.185
  643SOL    HW2 2602   2.790   3.201   1.161
  643SOL    HW3 2603   2.640   3.185   1.150
  643SOL    MW4 2604   2.709   3.230   1.177
  644SOL     OW 2605   2.704   3.486   1.078
  644SOL    HW2 2606   2.711   3.396   1.110
  644SOL    HW3 2607   2.614   3.511   1.098
  644SOL    MW4 2608   2.693   3.477   1.085
  645SOL     OW 2609   2.901   3.616   1.219
  645SOL    HW2 2610   2.976   3.587   1.169
  645SOL    HW3 2611   2.826   3.576   1.176
  645SOL    MW4 2612   2.901   3.607   1.207
  646SOL     OW 2613   2.932   3.859   1.113
  646SOL    HW2 2614   3.013   3.888   1.154
  646SOL    HW3 2615   2.916   3.772   1.150
  646SOL    MW4 2616   2.941   3.851   1.123
  647SOL     OW 2617   2.699   4.014   1.128
  647SOL    HW2 2618   2.779   3.961   1.136
  647SOL    HW3 2619   2.637   3.957   1.083
  647SOL    MW4 2620   2.701   4.000   1.123
  648SOL     OW 2621   2.720   4.282   1.016
  648SOL    HW2 2622   2.745   4.196   1.051
  648SOL    HW3 2623   2.632   4.297   1.050
  648SOL    MW4 2624   2.712   4.273   1.025
  649SOL     OW 2625   2.895   4.409   1.198
  649SOL    HW2 2626   2.969   4.349   1.196
  649SOL    HW3 2627   2.837   4.379   1.128
  649SOL    MW4 2628   2.897   4.397   1.189
  650SOL     OW 2629   3.368   4.634   1.147
  650SOL    HW2 2630   3.447   4.676   1.180
  650SOL    HW3 2631   3.296   4.685   1.185
  650SOL    MW4 2632   3.369   4.647   1.156
  651SOL     OW 2633   3.160   0.102   1.254
  651SOL    HW2 2634   3.151   0.085   1.348
  651SOL    HW3 2635   3.076   0.075   1.216
  651SOL    MW4 2636   3.148   0.096   1.261
  652SOL     OW 2637   3.176   0.356   1.134
  652SOL    HW2 2638   3.158   0.280   1.190
  652SOL    HW3 2639   3.114   0.422   1.165
  652SOL    MW4 2640   3.165   0.354   1.146
  653SOL     OW 2641   3.407   0.519   1.187
  653SOL    HW2 2642   3.380   0.601   1.144
  653SOL    HW3 2643   3.340   0.456   1.163
  653SOL    MW4 2644   3.395   0.522   1.178
  654SOL     OW 2645   3.336   0.764   1.067
  654SOL    HW2 2646   3.255   0.802   1.100
  654SOL    HW3 2647   3.319   0.749   0.974
  654SOL    MW4 2648   3.323   0.767   1.059
  655SOL     OW 2649   3.123   0.899   1.165
  655SOL    HW2 2650   3.122   0.889   1.260
  655SOL    HW3 2651   3.128   0.994   1.151
  655SOL    MW4 2652   3.124   0.910   1.176
  656SOL     OW 2653   3.139   1.160   1.088
  656SOL    HW2 2654   3.217   1.192   1.134
  656SOL    HW3 2655   3.066   1.196   1.136
  656SOL    MW4 2656   3.140   1.169   1.100
  657SOL     OW 2657   3.389   1.256   1.183
  657SOL    HW2 2658   3.386   1.279   1.276
  657SOL    HW3 2659   3.384   1.340   1.137
  657SOL    MW4 2660   3.388   1.270   1.189
  658SOL     OW 2661   3.369   1.520   1.087
  658SOL    HW2 2662   3.439   1.555   1.141
  658SOL    HW3 2663   3.289   1.558   1.125
  658SOL    MW4 2664   3.367   1.530   1.099
  659SOL     OW 2665   3.145   1.630   1.206
  659SOL    HW2 2666   3.141   1.640   1.302
  659SOL    HW3 2667   3.139   1.719   1.173
  659SOL    MW4 2668   3.144   1.643   1.215
  660SOL     OW 2669   3.120   1.874   1.106
  660SOL    HW2 2670   3.195   1.907   1.156
  660SOL    HW3 2671   3.045   1.920   1.143
  660SOL    MW4 2672   3.120   1.885   1.118
  661SOL     OW 2673   3.346   2.020   1.211
  661SOL    HW2 2674   3.420   1.981   1.165
  661SOL    HW3 2675   3.341   2.109   1.176
  661SOL    MW4 2676   3.355   2.027   1.200
  662SOL     OW 2677   3.328   2.282   1.130
  662SOL    HW2 2678   3.404   2.329   1.164
  662SOL    HW3 2679   3.253   2.334   1.160
  662SOL    MW4 2680   3.328   2.295   1.138
  663SOL     OW 2681   3.109   2.425   1.215
  663SOL    HW2 2682   3.117   2.422   1.311
  663SOL    HW3 2683   3.141   2.512   1.191
  663SOL    MW4 2684   3.115   2.436   1.225
  664SOL     OW 2685   3.170   2.680   1.110
  664SOL    HW2 2686   3.088   2.725   1.130
  664SOL    HW3 2687   3.168   2.665   1.016
  664SOL    MW4 2688   3.159   2.684   1.101
  665SOL     OW 2689   3.358   2.868   1.232
  665SOL    HW2 2690   3.319   2.955   1.219
  665SOL    HW3 2691   3.294   2.807   1.195
  665SOL    MW4 2692   3.344   2.871   1.225
  666SOL     OW 2693   3.323   3.122   1.149
  666SOL    HW2 2694   3.405   3.169   1.164
  666SOL    HW3 2695   3.256   3.177   1.189
  666SOL    MW4 2696   3.325   3.135   1.156
  667SOL     OW 2697   3.127   3.275   1.249
  667SOL    HW2 2698   3.107   3.353   1.197
  667SOL    HW3 2699   3.060   3.212   1.224
  667SOL    MW4 2700   3.116   3.277   1.239
  668SOL     OW 2701   3.139   3.516   1.106
  668SOL    HW2 2702   3.225   3.539   1.142
  668SOL    HW3 2703   3.157   3.500   1.013
  668SOL    MW4 2704   3.153   3.517   1.098
  669SOL     OW 2705   3.377   3.605   1.209
  669SOL    HW2 2706   3.364   3.637   1.299
  669SOL    HW3 2707   3.465   3.568   1.209
  669SOL    MW4 2708   3.387   3.605   1.221
  670SOL     OW 2709   3.371   3.850   1.034
  670SOL    HW2 2710   3.316   3.908   1.086
  670SOL    HW3 2711   3.372   3.768   1.081
  670SOL    MW4 2712   3.364   3.847   1.047
  671SOL     OW 2713   3.186   3.970   1.188
  671SOL    HW2 2714   3.158   3.966   1.280
  671SOL    HW3 2715   3.153   4.054   1.156
  671SOL    MW4 2716   3.178   3.981   1.196
  672SOL     OW 2717   3.092   4.223   1.109
  672SOL    HW2 2718   3.174   4.264   1.135
  672SOL    HW3 2719   3.099   4.212   1.014
  672SOL    MW4 2720   3.104   4.227   1.100
  673SOL     OW 2721   3.335   4.356   1.184
  673SOL    HW2 2722   3.412   4.320   1.142
  673SOL    HW3 2723   3.342   4.451   1.172
  673SOL    MW4 2724   3.346   4.364   1.177
  674SOL     OW 2725   3.788   4.635   1.099
  674SOL    HW2 2726   3.797   4.544   1.127
  674SOL    HW3 2727   3.835   4.639   1.015
  674SOL    MW4 2728   3.795   4.623   1.091
  675SOL     OW 2729   3.587   0.119   1.234
  675SOL    HW2 2730   3.597   0.208   1.203
  675SOL    HW3 2731   3.656   0.069   1.191
  675SOL    MW4 2732   3.597   0.124   1.225
  676SOL     OW 2733   3.621   0.369   1.094
  676SOL    HW2 2734   3.706   0.398   1.129
  676SOL    HW3 2735   3.558   0.432   1.130
  676SOL    MW4 2736   3.624   0.381   1.104
  677SOL     OW 2737   3.843   0.477   1.220
  677SOL    HW2 2738   3.918   0.429   1.185
  677SOL    HW3 2739   3.840   0.557   1.166
  677SOL    MW4 2740   3.853   0.481   1.208
  678SOL     OW 2741   3.807   0.717   1.089
  678SOL    HW2 2742   3.882   0.762   1.128
  678SOL    HW3 2743   3.731   0.762   1.126
  678SOL    MW4 2744   3.807   0.729   1.099
  679SOL     OW 2745   3.579   0.847   1.189
  679SOL    HW2 2746   3.584   0.931   1.143
  679SOL    HW3 2747   3.494   0.812   1.164
  679SOL    MW4 2748   3.569   0.854   1.180
  680SOL     OW 2749   3.613   1.114   1.105
  680SOL    HW2 2750   3.689   1.149   1.152
  680SOL    HW3 2751   3.539   1.165   1.138
  680SOL    MW4 2752   3.613   1.125   1.116
  681SOL     OW 2753   3.819   1.252   1.204
  681SOL    HW2 2754   3.790   1.271   1.293
  681SOL    HW3 2755   3.799   1.332   1.155
  681SOL    MW4 2756   3.812   1.265   1.209
  682SOL     OW 2757   3.784   1.481   1.074
  682SOL    HW2 2758   3.873   1.502   1.102
  682SOL    HW3 2759   3.782   1.502   0.981
  682SOL    MW4 2760   3.795   1.487   1.066
  683SOL     OW 2761   3.580   1.635   1.203
  683SOL    HW2 2762   3.580   1.724   1.166
  683SOL    HW3 2763   3.661   1.596   1.170
  683SOL    MW4 2764   3.591   1.642   1.194
  684SOL     OW 2765   3.570   1.895   1.109
  684SOL    HW2 2766   3.640   1.953   1.138
  684SOL    HW3 2767   3.562   1.911   1.015
  684SOL    MW4 2768   3.578   1.904   1.101
  685SOL     OW 2769   3.787   2.082   1.205
  685SOL    HW2 2770   3.816   2.078   1.296
  685SOL    HW3 2771   3.843   2.019   1.160
  685SOL    MW4 2772   3.798   2.073   1.211
  686SOL     OW 2773   3.759   2.351   1.137
  686SOL    HW2 2774   3.838   2.396   1.167
  686SOL    HW3 2775   3.771   2.260   1.165
  686SOL    MW4 2776   3.771   2.345   1.145
  687SOL     OW 2777   3.524   2.440   1.240
  687SOL    HW2 2778   3.522   2.430   1.335
  687SOL    HW3 2779   3.608   2.402   1.213
  687SOL    MW4 2780   3.535   2.434   1.249
  688SOL     OW 2781   3.560   2.706   1.153
  688SOL    HW2 2782   3.530   2.617   1.173
  688SOL    HW3 2783   3.490   2.763   1.184
  688SOL    MW4 2784   3.547   2.702   1.160
  689SOL     OW 2785   3.822   2.775   1.236
  689SOL    HW2 2786   3.831   2.764   1.331
  689SOL    HW3 2787   3.736   2.738   1.216
  689SOL    MW4 2788   3.812   2.769   1.246
  690SOL     OW 2789   3.814   3.060   1.168
  690SOL    HW2 2790   3.802   2.971   1.203
  690SOL    HW3 2791   3.770   3.058   1.083
  690SOL    MW4 2792   3.807   3.048   1.161
  691SOL     OW 2793   3.581   3.195   1.221
  691SOL    HW2 2794   3.600   3.282   1.185
  691SOL    HW3 2795   3.660   3.144   1.202
  691SOL    MW4 2796   3.594   3.200   1.213
  692SOL     OW 2797   3.617   3.454   1.130
  692SOL    HW2 2798   3.690   3.511   1.155
  692SOL    HW3 2799   3.618   3.455   1.034
  692SOL    MW4 2800   3.626   3.462   1.121
  693SOL     OW 2801   3.822   3.608   1.207
  693SOL    HW2 2802   3.801   3.601   1.300
  693SOL    HW3 2803   3.823   3.702   1.190
  693SOL    MW4 2804   3.819   3.620   1.217
  694SOL     OW 2805   3.816   3.872   1.095
  694SOL    HW2 2806   3.741   3.914   1.136
  694SOL    HW3 2807   3.783   3.838   1.012
  694SOL    MW4 2808   3.802   3.873   1.090
  695SOL     OW 2809   3.574   3.993   1.177
  695SOL    HW2 2810   3.565   3.993   1.272
  695SOL    HW3 2811   3.504   3.936   1.146
  695SOL    MW4 2812   3.564   3.986   1.186
  696SOL     OW 2813   3.569   4.251   1.084
  696SOL    HW2 2814   3.583   4.166   1.125
  696SOL    HW3 2815   3.599   4.240   0.993
  696SOL    MW4 2816   3.575   4.238   1.077
  697SOL     OW 2817   3.802   4.376   1.192
  697SOL    HW2 2818   3.794   4.385   1.287
  697SOL    HW3 2819   3.717   4.341   1.164
  697SOL    MW4 2820   3.789   4.373   1.201
  698SOL     OW 2821   4.294   4.634   1.177
  698SOL    HW2 2822   4.301   4.547   1.217
  698SOL    HW3 2823   4.201   4.655   1.180
  698SOL    MW4 2824   4.283   4.626   1.182
  699SOL     OW 2825   4.036   0.090   1.191
  699SOL    HW2 2826   4.035   0.095   1.287
  699SOL    HW3 2827   3.959   0.038   1.169
  699SOL    MW4 2828   4.026   0.084   1.201
  700SOL     OW 2829   4.051   0.346   1.073
  700SOL    HW2 2830   4.064   0.260   1.114
  700SOL    HW3 2831   4.008   0.327   0.989
  700SOL    MW4 2832   4.047   0.332   1.067
  701SOL     OW 2833   4.234   0.516   1.178
  701SOL    HW2 2834   4.222   0.504   1.272
  701SOL    HW3 2835   4.159   0.472   1.138
  701SOL    MW4 2836   4.222   0.509   1.185
  702SOL     OW 2837   4.248   0.775   1.142
  702SOL    HW2 2838   4.249   0.679   1.143
  702SOL    HW3 2839   4.249   0.798   1.049
  702SOL    MW4 2840   4.248   0.765   1.130
  703SOL     OW 2841   4.003   0.867   1.190
  703SOL    HW2 2842   4.000   0.891   1.282
  703SOL    HW3 2843   4.088   0.825   1.178
  703SOL    MW4 2844   4.014   0.864   1.200
  704SOL     OW 2845   4.052   1.127   1.089
  704SOL    HW2 2846   4.036   1.036   1.113
  704SOL    HW3 2847   3.983   1.176   1.133
  704SOL    MW4 2848   4.041   1.121   1.098
  705SOL     OW 2849   4.299   1.281   1.195
  705SOL    HW2 2850   4.299   1.273   1.291
  705SOL    HW3 2851   4.230   1.222   1.166
  705SOL    MW4 2852   4.290   1.273   1.204
  706SOL     OW 2853   4.295   1.520   1.057
  706SOL    HW2 2854   4.291   1.443   1.114
  706SOL    HW3 2855   4.358   1.578   1.101
  706SOL    MW4 2856   4.303   1.518   1.071
  707SOL     OW 2857   4.017   1.588   1.152
  707SOL    HW2 2858   4.025   1.597   1.247
  707SOL    HW3 2859   4.107   1.576   1.122
  707SOL    MW4 2860   4.030   1.587   1.161
  708SOL     OW 2861   3.941   1.881   1.091
  708SOL    HW2 2862   3.951   1.786   1.099
  708SOL    HW3 2863   3.936   1.896   0.997
  708SOL    MW4 2864   3.942   1.870   1.080
  709SOL     OW 2865   4.175   2.041   1.210
  709SOL    HW2 2866   4.188   2.123   1.162
  709SOL    HW3 2867   4.109   1.994   1.161
  709SOL    MW4 2868   4.168   2.046   1.197
  710SOL     OW 2869   4.210   2.275   1.079
  710SOL    HW2 2870   4.130   2.315   1.113
  710SOL    HW3 2871   4.209   2.296   0.986
  710SOL    MW4 2872   4.199   2.283   1.071
  711SOL     OW 2873   4.007   2.425   1.202
  711SOL    HW2 2874   4.035   2.422   1.293
  711SOL    HW3 2875   4.025   2.515   1.175
  711SOL    MW4 2876   4.013   2.437   1.211
  712SOL     OW 2877   4.059   2.681   1.103
  712SOL    HW2 2878   3.969   2.699   1.131
  712SOL    HW3 2879   4.053   2.675   1.007
  712SOL    MW4 2880   4.046   2.682   1.094
  713SOL     OW 2881   4.273   2.807   1.229
  713SOL    HW2 2882   4.278   2.891   1.184
  713SOL    HW3 2883   4.192   2.767   1.197
  713SOL    MW4 2884   4.263   2.813   1.219
  714SOL     OW 2885   4.266   3.066   1.134
  714SOL    HW2 2886   4.186   3.115   1.154
  714SOL    HW3 2887   4.266   3.061   1.038
  714SOL    MW4 2888   4.255   3.072   1.124
  715SOL     OW 2889   4.030   3.215   1.221
  715SOL    HW2 2890   4.022   3.210   1.316
  715SOL    HW3 2891   3.954   3.167   1.188
  715SOL    MW4 2892   4.019   3.208   1.229
  716SOL     OW 2893   4.067   3.486   1.147
  716SOL    HW2 2894   4.065   3.396   1.181
  716SOL    HW3 2895   3.983   3.523   1.173
  716SOL    MW4 2896   4.056   3.479   1.155
  717SOL     OW 2897   4.316   3.627   1.229
  717SOL    HW2 2898   4.232   3.597   1.196
  717SOL    HW3 2899   4.380   3.567   1.190
  717SOL    MW4 2900   4.314   3.615   1.219
  718SOL     OW 2901   4.278   3.901   1.108
  718SOL    HW2 2902   4.196   3.947   1.126
  718SOL    HW3 2903   4.271   3.820   1.158
  718SOL    MW4 2904   4.266   3.897   1.117
  719SOL     OW 2905   4.046   4.029   1.185
  719SOL    HW2 2906   4.050   4.121   1.156
  719SOL    HW3 2907   3.962   3.997   1.151
  719SOL    MW4 2908   4.035   4.037   1.176
  720SOL     OW 2909   4.057   4.296   1.106
  720SOL    HW2 2910   3.981   4.344   1.140
  720SOL    HW3 2911   4.039   4.286   1.012
  720SOL    MW4 2912   4.045   4.301   1.098
  721SOL     OW 2913   4.310   4.368   1.231
  721SOL    HW2 2914   4.235   4.333   1.184
  721SOL    HW3 2915   4.386   4.329   1.187
  721SOL    MW4 2916   4.310   4.358   1.219
  722SOL     OW 2917   0.229   4.625   1.574
  722SOL    HW2 2918   0.315   4.663   1.556
  722SOL    HW3 2919   0.166   4.691   1.545
  722SOL    MW4 2920   0.232   4.639   1.568
  723SOL     OW 2921   0.002   0.110   1.521
  723SOL    HW2 2922  -0.074   0.070   1.564
  723SOL    HW3 2923  -0.026   0.126   1.431
  723SOL    MW4 2924  -0.012   0.107   1.515
  724SOL     OW 2925   4.450   0.373   1.583
  724SOL    HW2 2926   4.460   0.375   1.678
  724SOL    HW3 2927   4.461   0.281   1.559
  724SOL    MW4 2928   4.453   0.361   1.593
  725SOL     OW 2929   0.209   0.470   1.498
  725SOL    HW2 2930   0.128   0.424   1.521
  725SOL    HW3 2931   0.208   0.473   1.402
  725SOL    MW4 2932   0.198   0.465   1.489
  726SOL     OW 2933   0.194   0.727   1.558
  726SOL    HW2 2934   0.272   0.772   1.525
  726SOL    HW3 2935   0.208   0.635   1.536
  726SOL    MW4 2936   0.206   0.721   1.551
  727SOL     OW 2937   4.468   0.817   1.435
  727SOL    HW2 2938   4.483   0.905   1.468
  727SOL    HW3 2939   4.535   0.764   1.479
  727SOL    MW4 2940   4.479   0.822   1.445
  728SOL     OW 2941   4.488   1.080   1.548
  728SOL    HW2 2942   4.502   1.080   1.643
  728SOL    HW3 2943   4.551   1.145   1.515
  728SOL    MW4 2944   4.498   1.088   1.556
  729SOL     OW 2945   0.232   1.253   1.463
  729SOL    HW2 2946   0.230   1.345   1.491
  729SOL    HW3 2947   0.261   1.256   1.372
  729SOL    MW4 2948   0.236   1.266   1.455
  730SOL     OW 2949   0.233   1.501   1.575
  730SOL    HW2 2950   0.242   1.512   1.670
  730SOL    HW3 2951   0.165   1.563   1.550
  730SOL    MW4 2952   0.225   1.511   1.584
  731SOL     OW 2953   0.035   1.666   1.478
  731SOL    HW2 2954   0.027   1.754   1.513
  731SOL    HW3 2955   0.021   1.677   1.384
  731SOL    MW4 2956   0.032   1.679   1.470
  732SOL     OW 2957   0.022   1.928   1.591
  732SOL    HW2 2958   0.028   1.919   1.686
  732SOL    HW3 2959  -0.067   1.960   1.575
  732SOL    MW4 2960   0.011   1.931   1.601
  733SOL     OW 2961   0.258   2.031   1.477
  733SOL    HW2 2962   0.173   2.005   1.514
  733SOL    HW3 2963   0.245   2.027   1.382
  733SOL    MW4 2964   0.245   2.027   1.469
  734SOL     OW 2965   0.202   2.294   1.568
  734SOL    HW2 2966   0.218   2.302   1.662
  734SOL    HW3 2967   0.228   2.204   1.546
  734SOL    MW4 2968   0.208   2.283   1.577
  735SOL     OW 2969   4.483   2.437   1.454
  735SOL    HW2 2970   4.404   2.399   1.491
  735SOL    HW3 2971   4.553   2.377   1.479
  735SOL    MW4 2972   4.482   2.424   1.462
  736SOL     OW 2973   4.480   2.648   1.623
  736SOL    HW2 2974   4.398   2.694   1.605
  736SOL    HW3 2975   4.484   2.580   1.555
  736SOL    MW4 2976   4.470   2.645   1.611
  737SOL     OW 2977   0.197   2.800   1.512
  737SOL    HW2 2978   0.275   2.792   1.566
  737SOL    HW3 2979   0.132   2.745   1.555
  737SOL    MW4 2980   0.199   2.792   1.524
  738SOL     OW 2981   0.250   3.056   1.586
  738SOL    HW2 2982   0.185   3.122   1.564
  738SOL    HW3 2983   0.221   2.978   1.539
  738SOL    MW4 2984   0.237   3.054   1.577
  739SOL     OW 2985   0.032   3.213   1.505
  739SOL    HW2 2986   0.020   3.300   1.544
  739SOL    HW3 2987   0.030   3.228   1.411
  739SOL    MW4 2988   0.030   3.227   1.498
  740SOL     OW 2989   4.474   3.474   1.574
  740SOL    HW2 2990   4.489   3.476   1.668
  740SOL    HW3 2991   4.392   3.522   1.561
  740SOL    MW4 2992   4.465   3.480   1.585
  741SOL     OW 2993   0.236   3.582   1.482
  741SOL    HW2 2994   0.229   3.667   1.524
  741SOL    HW3 2995   0.158   3.534   1.511
  741SOL    MW4 2996   0.225   3.587   1.491
  742SOL     OW 2997   0.207   3.832   1.571
  742SOL    HW2 2998   0.199   3.845   1.665
  742SOL    HW3 2999   0.283   3.884   1.546
  742SOL    MW4 3000   0.216   3.840   1.580
  743SOL     OW 3001   0.018   3.994   1.464
  743SOL    HW2 3002   0.028   4.078   1.509
  743SOL    HW3 3003   0.087   3.939   1.500
  743SOL    MW4 3004   0.028   3.998   1.475
  744SOL     OW 3005   0.040   4.236   1.612
  744SOL    HW2 3006   0.028   4.233   1.707
  744SOL    HW3 3007  -0.024   4.300   1.581
  744SOL    MW4 3008   0.030   4.244   1.620
  745SOL     OW 3009   0.222   4.372   1.461
  745SOL    HW2 3010   0.160   4.321   1.513
  745SOL    HW3 3011   0.221   4.459   1.501
  745SOL    MW4 3012   0.214   4.376   1.473
  746SOL     OW 3013   0.682   4.632   1.591
  746SOL    HW2 3014   0.763   4.676   1.566
  746SOL    HW3 3015   0.612   4.689   1.559
  746SOL    MW4 3016   0.683   4.645   1.584
  747SOL     OW 3017   0.450   0.110   1.464
  747SOL    HW2 3018   0.433   0.193   1.509
  747SOL    HW3 3019   0.460   0.134   1.372
  747SOL    MW4 3020   0.449   0.124   1.458
  748SOL     OW 3021   0.435   0.353   1.604
  748SOL    HW2 3022   0.516   0.393   1.570
  748SOL    HW3 3023   0.365   0.408   1.567
  748SOL    MW4 3024   0.437   0.366   1.594
  749SOL     OW 3025   0.658   0.483   1.501
  749SOL    HW2 3026   0.655   0.575   1.525
  749SOL    HW3 3027   0.685   0.482   1.409
  749SOL    MW4 3028   0.661   0.495   1.492
  750SOL     OW 3029   0.660   0.741   1.577
  750SOL    HW2 3030   0.667   0.755   1.671
  750SOL    HW3 3031   0.733   0.790   1.540
  750SOL    MW4 3032   0.670   0.749   1.584
  751SOL     OW 3033   0.438   0.878   1.483
  751SOL    HW2 3034   0.433   0.963   1.526
  751SOL    HW3 3035   0.509   0.832   1.527
  751SOL    MW4 3036   0.447   0.883   1.494
  752SOL     OW 3037   0.444   1.160   1.599
  752SOL    HW2 3038   0.514   1.206   1.553
  752SOL    HW3 3039   0.364   1.198   1.563
  752SOL    MW4 3040   0.442   1.171   1.588
  753SOL     OW 3041   0.664   1.264   1.468
  753SOL    HW2 3042   0.676   1.352   1.505
  753SOL    HW3 3043   0.654   1.279   1.374
  753SOL    MW4 3044   0.664   1.278   1.460
  754SOL     OW 3045   0.657   1.534   1.563
  754SOL    HW2 3046   0.719   1.594   1.522
  754SOL    HW3 3047   0.572   1.576   1.550
  754SOL    MW4 3048   0.654   1.548   1.556
  755SOL     OW 3049   0.436   1.680   1.473
  755SOL    HW2 3050   0.443   1.747   1.542
  755SOL    HW3 3051   0.371   1.618   1.506
  755SOL    MW4 3052   0.428   1.681   1.486
  756SOL     OW 3053   0.476   1.917   1.596
  756SOL    HW2 3054   0.450   1.930   1.688
  756SOL    HW3 3055   0.405   1.957   1.546
  756SOL    MW4 3056   0.463   1.924   1.602
  757SOL     OW 3057   0.690   2.065   1.470
  757SOL    HW2 3058   0.758   2.023   1.522
  757SOL    HW3 3059   0.608   2.024   1.498
  757SOL    MW4 3060   0.688   2.054   1.480
  758SOL     OW 3061   0.667   2.339   1.573
  758SOL    HW2 3062   0.585   2.386   1.561
  758SOL    HW3 3063   0.652   2.254   1.531
  758SOL    MW4 3064   0.655   2.334   1.565
  759SOL     OW 3065   0.425   2.454   1.506
  759SOL    HW2 3066   0.427   2.535   1.557
  759SOL    HW3 3067   0.338   2.417   1.523
  759SOL    MW4 3068   0.414   2.460   1.515
  760SOL     OW 3069   0.437   2.713   1.624
  760SOL    HW2 3070   0.461   2.725   1.716
  760SOL    HW3 3071   0.508   2.756   1.576
  760SOL    MW4 3072   0.450   2.720   1.630
  761SOL     OW 3073   0.649   2.814   1.500
  761SOL    HW2 3074   0.649   2.898   1.547
  761SOL    HW3 3075   0.698   2.832   1.420
  761SOL    MW4 3076   0.655   2.828   1.496
  762SOL     OW 3077   0.650   3.064   1.632
  762SOL    HW2 3078   0.738   3.088   1.603
  762SOL    HW3 3079   0.592   3.120   1.581
  762SOL    MW4 3080   0.654   3.074   1.621
  763SOL     OW 3081   0.451   3.187   1.482
  763SOL    HW2 3082   0.383   3.128   1.513
  763SOL    HW3 3083   0.441   3.187   1.387
  763SOL    MW4 3084   0.441   3.179   1.473
  764SOL     OW 3085   0.443   3.429   1.595
  764SOL    HW2 3086   0.440   3.342   1.554
  764SOL    HW3 3087   0.377   3.480   1.548
  764SOL    MW4 3088   0.434   3.424   1.583
  765SOL     OW 3089   0.670   3.556   1.493
  765SOL    HW2 3090   0.746   3.511   1.530
  765SOL    HW3 3091   0.595   3.507   1.524
  765SOL    MW4 3092   0.670   3.544   1.502
  766SOL     OW 3093   0.638   3.821   1.594
  766SOL    HW2 3094   0.710   3.870   1.555
  766SOL    HW3 3095   0.649   3.731   1.562
  766SOL    MW4 3096   0.649   3.815   1.584
  767SOL     OW 3097   0.433   3.997   1.521
  767SOL    HW2 3098   0.505   3.948   1.561
  767SOL    HW3 3099   0.446   3.985   1.427
  767SOL    MW4 3100   0.444   3.989   1.514
  768SOL     OW 3101   0.439   4.267   1.614
  768SOL    HW2 3102   0.446   4.175   1.587
  768SOL    HW3 3103   0.374   4.305   1.555
  768SOL    MW4 3104   0.431   4.260   1.603
  769SOL     OW 3105   0.678   4.363   1.482
  769SOL    HW2 3106   0.592   4.327   1.502
  769SOL    HW3 3107   0.677   4.451   1.518
  769SOL    MW4 3108   0.667   4.370   1.489
  770SOL     OW 3109   1.134   4.635   1.539
  770SOL    HW2 3110   1.143   4.632   1.634
  770SOL    HW3 3111   1.209   4.688   1.510
  770SOL    MW4 3112   1.145   4.642   1.548
  771SOL     OW 3113   0.896   0.096   1.479
  771SOL    HW2 3114   0.903   0.168   1.542
  771SOL    HW3 3115   0.974   0.043   1.496
  771SOL    MW4 3116   0.907   0.099   1.490
  772SOL     OW 3117   0.896   0.344   1.613
  772SOL    HW2 3118   0.909   0.351   1.708
  772SOL    HW3 3119   0.813   0.388   1.597
  772SOL    MW4 3120   0.887   0.351   1.624
  773SOL     OW 3121   1.082   0.503   1.460
  773SOL    HW2 3122   1.091   0.588   1.503
  773SOL    HW3 3123   1.020   0.455   1.515
  773SOL    MW4 3124   1.075   0.508   1.473
  774SOL     OW 3125   1.087   0.778   1.564
  774SOL    HW2 3126   1.112   0.779   1.656
  774SOL    HW3 3127   1.156   0.826   1.519
  774SOL    MW4 3128   1.099   0.784   1.570
  775SOL     OW 3129   0.862   0.907   1.491
  775SOL    HW2 3130   0.933   0.849   1.516
  775SOL    HW3 3131   0.886   0.938   1.403
  775SOL    MW4 3132   0.875   0.904   1.483
  776SOL     OW 3133   0.897   1.176   1.565
  776SOL    HW2 3134   0.917   1.086   1.538
  776SOL    HW3 3135   0.814   1.196   1.520
  776SOL    MW4 3136   0.889   1.167   1.555
  777SOL     OW 3137   1.131   1.295   1.454
  777SOL    HW2 3138   1.205   1.255   1.500
  777SOL    HW3 3139   1.054   1.257   1.497
  777SOL    MW4 3140   1.130   1.285   1.466
  778SOL     OW 3141   1.126   1.558   1.572
  778SOL    HW2 3142   1.200   1.602   1.532
  778SOL    HW3 3143   1.136   1.466   1.547
  778SOL    MW4 3144   1.137   1.552   1.564
  779SOL     OW 3145   0.890   1.700   1.484
  779SOL    HW2 3146   0.959   1.641   1.516
  779SOL    HW3 3147   0.891   1.687   1.389
  779SOL    MW4 3148   0.899   1.690   1.475
  780SOL     OW 3149   0.898   1.957   1.590
  780SOL    HW2 3150   0.979   1.991   1.552
  780SOL    HW3 3151   0.895   1.865   1.562
  780SOL    MW4 3152   0.908   1.949   1.581
  781SOL     OW 3153   1.135   2.080   1.476
  781SOL    HW2 3154   1.217   2.038   1.502
  781SOL    HW3 3155   1.145   2.171   1.503
  781SOL    MW4 3156   1.147   2.087   1.483
  782SOL     OW 3157   1.125   2.359   1.611
  782SOL    HW2 3158   1.197   2.416   1.582
  782SOL    HW3 3159   1.046   2.401   1.576
  782SOL    MW4 3160   1.124   2.372   1.602
  783SOL     OW 3161   0.897   2.483   1.503
  783SOL    HW2 3162   0.889   2.556   1.563
  783SOL    HW3 3163   0.837   2.417   1.536
  783SOL    MW4 3164   0.888   2.484   1.515
  784SOL     OW 3165   0.919   2.771   1.603
  784SOL    HW2 3166   0.926   2.758   1.698
  784SOL    HW3 3167   0.836   2.817   1.592
  784SOL    MW4 3168   0.909   2.775   1.614
  785SOL     OW 3169   1.162   2.819   1.509
  785SOL    HW2 3170   1.154   2.913   1.522
  785SOL    HW3 3171   1.076   2.784   1.533
  785SOL    MW4 3172   1.150   2.827   1.514
  786SOL     OW 3173   1.153   3.080   1.585
  786SOL    HW2 3174   1.148   3.077   1.681
  786SOL    HW3 3175   1.217   3.149   1.567
  786SOL    MW4 3176   1.161   3.089   1.596
  787SOL     OW 3177   0.886   3.146   1.536
  787SOL    HW2 3178   0.975   3.116   1.555
  787SOL    HW3 3179   0.883   3.155   1.441
  787SOL    MW4 3180   0.898   3.144   1.526
  788SOL     OW 3181   0.880   3.421   1.592
  788SOL    HW2 3182   0.961   3.453   1.551
  788SOL    HW3 3183   0.888   3.326   1.589
  788SOL    MW4 3184   0.892   3.413   1.587
  789SOL     OW 3185   1.103   3.583   1.504
  789SOL    HW2 3186   1.190   3.552   1.532
  789SOL    HW3 3187   1.109   3.589   1.409
  789SOL    MW4 3188   1.115   3.580   1.495
  790SOL     OW 3189   1.112   3.849   1.598
  790SOL    HW2 3190   1.195   3.873   1.556
  790SOL    HW3 3191   1.103   3.755   1.581
  790SOL    MW4 3192   1.122   3.840   1.590
  791SOL     OW 3193   0.861   3.937   1.502
  791SOL    HW2 3194   0.854   4.028   1.528
  791SOL    HW3 3195   0.942   3.906   1.542
  791SOL    MW4 3196   0.870   3.945   1.510
  792SOL     OW 3197   0.894   4.207   1.584
  792SOL    HW2 3198   0.904   4.216   1.678
  792SOL    HW3 3199   0.821   4.265   1.562
  792SOL    MW4 3200   0.886   4.216   1.593
  793SOL     OW 3201   1.135   4.363   1.497
  793SOL    HW2 3202   1.063   4.309   1.530
  793SOL    HW3 3203   1.121   4.449   1.536
  793SOL    MW4 3204   1.124   4.367   1.506
  794SOL     OW 3205   1.575   4.640   1.578
  794SOL    HW2 3206   1.578   4.654   1.673
  794SOL    HW3 3207   1.490   4.678   1.551
  794SOL    MW4 3208   1.564   4.647   1.587
  795SOL     OW 3209   1.355   0.122   1.477
  795SOL    HW2 3210   1.339   0.210   1.510
  795SOL    HW3 3211   1.356   0.131   1.382
  795SOL    MW4 3212   1.353   0.135   1.469
  796SOL     OW 3213   1.322   0.406   1.566
  796SOL    HW2 3214   1.386   0.469   1.532
  796SOL    HW3 3215   1.240   0.428   1.522
  796SOL    MW4 3216   1.320   0.418   1.556
  797SOL     OW 3217   1.577   0.524   1.496
  797SOL    HW2 3218   1.656   0.472   1.515
  797SOL    HW3 3219   1.562   0.511   1.402
  797SOL    MW4 3220   1.586   0.515   1.486
  798SOL     OW 3221   1.572   0.821   1.575
  798SOL    HW2 3222   1.589   0.814   1.669
  798SOL    HW3 3223   1.568   0.730   1.544
  798SOL    MW4 3224   1.574   0.808   1.583
  799SOL     OW 3225   1.312   0.906   1.461
  799SOL    HW2 3226   1.396   0.884   1.501
  799SOL    HW3 3227   1.327   0.895   1.367
  799SOL    MW4 3228   1.325   0.902   1.454
  800SOL     OW 3229   1.337   1.156   1.564
  800SOL    HW2 3230   1.348   1.141   1.658
  800SOL    HW3 3231   1.330   1.069   1.526
  800SOL    MW4 3232   1.337   1.143   1.571
  801SOL     OW 3233   1.572   1.274   1.450
  801SOL    HW2 3234   1.493   1.230   1.479
  801SOL    HW3 3235   1.548   1.314   1.366
  801SOL    MW4 3236   1.559   1.274   1.443
  802SOL     OW 3237   1.560   1.535   1.581
  802SOL    HW2 3238   1.558   1.519   1.675
  802SOL    HW3 3239   1.573   1.449   1.542
  802SOL    MW4 3240   1.561   1.522   1.588
  803SOL     OW 3241   1.342   1.668   1.453
  803SOL    HW2 3242   1.414   1.613   1.484
  803SOL    HW3 3243   1.357   1.677   1.359
  803SOL    MW4 3244   1.353   1.662   1.445
  804SOL     OW 3245   1.345   1.935   1.570
  804SOL    HW2 3246   1.331   1.923   1.664
  804SOL    HW3 3247   1.349   1.846   1.535
  804SOL    MW4 3248   1.344   1.921   1.578
  805SOL     OW 3249   1.590   2.035   1.494
  805SOL    HW2 3250   1.507   1.998   1.522
  805SOL    HW3 3251   1.578   2.053   1.400
  805SOL    MW4 3252   1.578   2.033   1.485
  806SOL     OW 3253   1.555   2.293   1.593
  806SOL    HW2 3254   1.636   2.331   1.559
  806SOL    HW3 3255   1.563   2.200   1.573
  806SOL    MW4 3256   1.567   2.286   1.586
  807SOL     OW 3257   1.373   2.466   1.494
  807SOL    HW2 3258   1.403   2.543   1.544
  807SOL    HW3 3259   1.427   2.394   1.527
  807SOL    MW4 3260   1.384   2.467   1.505
  808SOL     OW 3261   1.405   2.708   1.619
  808SOL    HW2 3262   1.475   2.764   1.587
  808SOL    HW3 3263   1.327   2.739   1.573
  808SOL    MW4 3264   1.404   2.719   1.608
  809SOL     OW 3265   1.588   2.874   1.495
  809SOL    HW2 3266   1.664   2.823   1.520
  809SOL    HW3 3267   1.597   2.886   1.400
  809SOL    MW4 3268   1.599   2.869   1.486
  810SOL     OW 3269   1.620   3.124   1.604
  810SOL    HW2 3270   1.669   3.180   1.544
  810SOL    HW3 3271   1.615   3.039   1.560
  810SOL    MW4 3272   1.626   3.120   1.591
  811SOL     OW 3273   1.380   3.238   1.493
  811SOL    HW2 3274   1.381   3.322   1.540
  811SOL    HW3 3275   1.458   3.192   1.525
  811SOL    MW4 3276   1.391   3.243   1.504
  812SOL     OW 3277   1.357   3.508   1.579
  812SOL    HW2 3278   1.356   3.503   1.674
  812SOL    HW3 3279   1.417   3.580   1.560
  812SOL    MW4 3280   1.365   3.517   1.589
  813SOL     OW 3281   1.595   3.650   1.511
  813SOL    HW2 3282   1.620   3.741   1.531
  813SOL    HW3 3283   1.618   3.638   1.419
  813SOL    MW4 3284   1.601   3.661   1.502
  814SOL     OW 3285   1.615   3.922   1.592
  814SOL    HW2 3286   1.601   3.909   1.686
  814SOL    HW3 3287   1.527   3.921   1.554
  814SOL    MW4 3288   1.602   3.920   1.599
  815SOL     OW 3289   1.355   3.948   1.521
  815SOL    HW2 3290   1.353   4.035   1.561
  815SOL    HW3 3291   1.361   3.964   1.427
  815SOL    MW4 3292   1.355   3.962   1.514
  816SOL     OW 3293   1.365   4.230   1.605
  816SOL    HW2 3294   1.452   4.248   1.571
  816SOL    HW3 3295   1.308   4.293   1.561
  816SOL    MW4 3296   1.369   4.240   1.595
  817SOL     OW 3297   1.596   4.351   1.516
  817SOL    HW2 3298   1.685   4.330   1.542
  817SOL    HW3 3299   1.591   4.447   1.521
  817SOL    MW4 3300   1.607   4.361   1.520
  818SOL     OW 3301   2.025   4.586   1.539
  818SOL    HW2 3302   2.006   4.581   1.633
  818SOL    HW3 3303   1.966   4.655   1.507
  818SOL    MW4 3304   2.014   4.594   1.547
  819SOL     OW 3305   1.808   0.108   1.464
  819SOL    HW2 3306   1.736   0.065   1.510
  819SOL    HW3 3307   1.791   0.091   1.372
  819SOL    MW4 3308   1.796   0.100   1.458
  820SOL     OW 3309   1.800   0.378   1.574
  820SOL    HW2 3310   1.863   0.426   1.519
  820SOL    HW3 3311   1.805   0.288   1.543
  820SOL    MW4 3312   1.809   0.372   1.562
  821SOL     OW 3313   1.996   0.518   1.466
  821SOL    HW2 3314   2.068   0.469   1.505
  821SOL    HW3 3315   1.993   0.600   1.516
  821SOL    MW4 3316   2.005   0.522   1.478
  822SOL     OW 3317   2.003   0.755   1.579
  822SOL    HW2 3318   2.078   0.815   1.582
  822SOL    HW3 3319   1.930   0.811   1.550
  822SOL    MW4 3320   2.003   0.771   1.575
  823SOL     OW 3321   1.806   0.923   1.487
  823SOL    HW2 3322   1.817   1.008   1.530
  823SOL    HW3 3323   1.722   0.891   1.519
  823SOL    MW4 3324   1.797   0.930   1.497
  824SOL     OW 3325   1.832   1.183   1.599
  824SOL    HW2 3326   1.911   1.220   1.559
  824SOL    HW3 3327   1.761   1.211   1.541
  824SOL    MW4 3328   1.833   1.192   1.586
  825SOL     OW 3329   2.062   1.298   1.498
  825SOL    HW2 3330   2.068   1.383   1.542
  825SOL    HW3 3331   2.017   1.317   1.416
  825SOL    MW4 3332   2.056   1.312   1.493
  826SOL     OW 3333   2.028   1.546   1.626
  826SOL    HW2 3334   2.102   1.593   1.588
  826SOL    HW3 3335   1.951   1.591   1.591
  826SOL    MW4 3336   2.028   1.558   1.616
  827SOL     OW 3337   1.805   1.653   1.515
  827SOL    HW2 3338   1.730   1.596   1.534
  827SOL    HW3 3339   1.819   1.644   1.421
  827SOL    MW4 3340   1.797   1.644   1.505
  828SOL     OW 3341   1.791   1.907   1.605
  828SOL    HW2 3342   1.777   1.816   1.581
  828SOL    HW3 3343   1.718   1.954   1.564
  828SOL    MW4 3344   1.779   1.901   1.596
  829SOL     OW 3345   2.029   2.065   1.528
  829SOL    HW2 3346   2.099   2.017   1.573
  829SOL    HW3 3347   1.948   2.031   1.566
  829SOL    MW4 3348   2.028   2.054   1.539
  830SOL     OW 3349   2.040   2.337   1.586
  830SOL    HW2 3350   2.042   2.337   1.682
  830SOL    HW3 3351   2.031   2.245   1.562
  830SOL    MW4 3352   2.039   2.325   1.595
  831SOL     OW 3353   1.792   2.434   1.519
  831SOL    HW2 3354   1.875   2.390   1.539
  831SOL    HW3 3355   1.786   2.431   1.424
  831SOL    MW4 3356   1.802   2.427   1.509
  832SOL     OW 3357   1.784   2.707   1.583
  832SOL    HW2 3358   1.863   2.748   1.547
  832SOL    HW3 3359   1.799   2.613   1.569
  832SOL    MW4 3360   1.797   2.700   1.576
  833SOL     OW 3361   2.017   2.812   1.494
  833SOL    HW2 3362   2.013   2.904   1.519
  833SOL    HW3 3363   2.051   2.813   1.404
  833SOL    MW4 3364   2.021   2.824   1.486
  834SOL     OW 3365   2.011   3.085   1.567
  834SOL    HW2 3366   2.018   3.088   1.662
  834SOL    HW3 3367   2.092   3.126   1.536
  834SOL    MW4 3368   2.022   3.091   1.575
  835SOL     OW 3369   1.823   3.243   1.456
  835SOL    HW2 3370   1.832   3.334   1.485
  835SOL    HW3 3371   1.893   3.196   1.501
  835SOL    MW4 3372   1.833   3.249   1.466
  836SOL     OW 3373   1.812   3.488   1.579
  836SOL    HW2 3374   1.811   3.475   1.674
  836SOL    HW3 3375   1.729   3.532   1.559
  836SOL    MW4 3376   1.801   3.492   1.589
  837SOL     OW 3377   2.019   3.595   1.443
  837SOL    HW2 3378   2.103   3.560   1.473
  837SOL    HW3 3379   1.954   3.547   1.493
  837SOL    MW4 3380   2.022   3.584   1.453
  838SOL     OW 3381   2.030   3.820   1.600
  838SOL    HW2 3382   2.099   3.869   1.555
  838SOL    HW3 3383   2.005   3.752   1.537
  838SOL    MW4 3384   2.035   3.817   1.585
  839SOL     OW 3385   1.846   4.036   1.508
  839SOL    HW2 3386   1.908   3.971   1.541
  839SOL    HW3 3387   1.761   4.005   1.537
  839SOL    MW4 3388   1.843   4.024   1.516
  840SOL     OW 3389   1.850   4.296   1.579
  840SOL    HW2 3390   1.923   4.329   1.526
  840SOL    HW3 3391   1.855   4.201   1.571
  840SOL    MW4 3392   1.861   4.288   1.571
  841SOL     OW 3393   2.075   4.359   1.401
  841SOL    HW2 3394   2.134   4.293   1.438
  841SOL    HW3 3395   2.076   4.431   1.464
  841SOL    MW4 3396   2.083   4.360   1.414
  842SOL     OW 3397   2.454   4.607   1.522
  842SOL    HW2 3398   2.443   4.611   1.617
  842SOL    HW3 3399   2.379   4.655   1.487
  842SOL    MW4 3400   2.443   4.614   1.530
  843SOL     OW 3401   2.230   0.095   1.435
  843SOL    HW2 3402   2.161   0.043   1.477
  843SOL    HW3 3403   2.204   0.098   1.343
  843SOL    MW4 3404   2.217   0.088   1.429
  844SOL     OW 3405   2.216   0.360   1.541
  844SOL    HW2 3406   2.234   0.359   1.635
  844SOL    HW3 3407   2.194   0.269   1.520
  844SOL    MW4 3408   2.215   0.348   1.550
  845SOL     OW 3409   2.428   0.492   1.433
  845SOL    HW2 3410   2.498   0.447   1.480
  845SOL    HW3 3411   2.348   0.448   1.460
  845SOL    MW4 3412   2.426   0.480   1.442
  846SOL     OW 3413   2.461   0.758   1.550
  846SOL    HW2 3414   2.376   0.786   1.517
  846SOL    HW3 3415   2.470   0.668   1.518
  846SOL    MW4 3416   2.451   0.750   1.541
  847SOL     OW 3417   2.230   0.900   1.487
  847SOL    HW2 3418   2.245   0.993   1.500
  847SOL    HW3 3419   2.240   0.887   1.392
  847SOL    MW4 3420   2.234   0.910   1.476
  848SOL     OW 3421   2.295   1.150   1.559
  848SOL    HW2 3422   2.295   1.138   1.654
  848SOL    HW3 3423   2.213   1.195   1.540
  848SOL    MW4 3424   2.284   1.155   1.569
  849SOL     OW 3425   2.518   1.293   1.495
  849SOL    HW2 3426   2.444   1.243   1.531
  849SOL    HW3 3427   2.503   1.293   1.400
  849SOL    MW4 3428   2.506   1.286   1.487
  850SOL     OW 3429   2.467   1.556   1.586
  850SOL    HW2 3430   2.545   1.598   1.552
  850SOL    HW3 3431   2.478   1.463   1.564
  850SOL    MW4 3432   2.479   1.549   1.579
  851SOL     OW 3433   2.244   1.687   1.508
  851SOL    HW2 3434   2.326   1.646   1.535
  851SOL    HW3 3435   2.246   1.686   1.412
  851SOL    MW4 3436   2.255   1.682   1.499
  852SOL     OW 3437   2.249   1.930   1.634
  852SOL    HW2 3438   2.240   1.914   1.728
  852SOL    HW3 3439   2.241   1.843   1.594
  852SOL    MW4 3440   2.246   1.916   1.641
  853SOL     OW 3441   2.489   2.036   1.529
  853SOL    HW2 3442   2.420   1.984   1.570
  853SOL    HW3 3443   2.469   2.034   1.436
  853SOL    MW4 3444   2.477   2.029   1.522
  854SOL     OW 3445   2.507   2.278   1.651
  854SOL    HW2 3446   2.483   2.268   1.744
  854SOL    HW3 3447   2.484   2.194   1.612
  854SOL    MW4 3448   2.501   2.266   1.658
  855SOL     OW 3449   2.290   2.440   1.535
  855SOL    HW2 3450   2.362   2.391   1.574
  855SOL    HW3 3451   2.212   2.390   1.560
  855SOL    MW4 3452   2.289   2.427   1.543
  856SOL     OW 3453   2.246   2.693   1.606
  856SOL    HW2 3454   2.260   2.605   1.573
  856SOL    HW3 3455   2.161   2.719   1.570
  856SOL    MW4 3456   2.236   2.685   1.597
  857SOL     OW 3457   2.462   2.782   1.489
  857SOL    HW2 3458   2.481   2.873   1.510
  857SOL    HW3 3459   2.382   2.762   1.537
  857SOL    MW4 3460   2.454   2.791   1.498
  858SOL     OW 3461   2.452   3.051   1.571
  858SOL    HW2 3462   2.532   3.089   1.535
  858SOL    HW3 3463   2.382   3.106   1.535
  858SOL    MW4 3464   2.453   3.063   1.561
  859SOL     OW 3465   2.254   3.206   1.447
  859SOL    HW2 3466   2.243   3.299   1.461
  859SOL    HW3 3467   2.266   3.197   1.352
  859SOL    MW4 3468   2.254   3.217   1.436
  860SOL     OW 3469   2.246   3.469   1.537
  860SOL    HW2 3470   2.262   3.463   1.631
  860SOL    HW3 3471   2.322   3.516   1.503
  860SOL    MW4 3472   2.258   3.474   1.545
  861SOL     OW 3473   2.463   3.601   1.426
  861SOL    HW2 3474   2.531   3.548   1.468
  861SOL    HW3 3475   2.453   3.677   1.484
  861SOL    MW4 3476   2.471   3.604   1.439
  862SOL     OW 3477   2.437   3.834   1.566
  862SOL    HW2 3478   2.464   3.818   1.656
  862SOL    HW3 3479   2.510   3.882   1.527
  862SOL    MW4 3480   2.450   3.838   1.572
  863SOL     OW 3481   2.208   3.954   1.440
  863SOL    HW2 3482   2.284   3.910   1.477
  863SOL    HW3 3483   2.232   3.970   1.349
  863SOL    MW4 3484   2.221   3.951   1.433
  864SOL     OW 3485   2.256   4.207   1.562
  864SOL    HW2 3486   2.326   4.252   1.515
  864SOL    HW3 3487   2.254   4.119   1.525
  864SOL    MW4 3488   2.265   4.201   1.551
  865SOL     OW 3489   2.468   4.325   1.446
  865SOL    HW2 3490   2.485   4.407   1.494
  865SOL    HW3 3491   2.464   4.351   1.354
  865SOL    MW4 3492   2.470   4.339   1.441
  866SOL     OW 3493   2.895   0.011   1.590
  866SOL    HW2 3494   2.871   0.038   1.679
  866SOL    HW3 3495   2.816   0.026   1.539
  866SOL    MW4 3496   2.882   0.016   1.595
  867SOL     OW 3497   2.672   0.097   1.410
  867SOL    HW2 3498   2.668   0.186   1.444
  867SOL    HW3 3499   2.604   0.050   1.459
  867SOL    MW4 3500   2.662   0.103   1.421
  868SOL     OW 3501   2.662   0.358   1.561
  868SOL    HW2 3502   2.647   0.374   1.655
  868SOL    HW3 3503   2.737   0.413   1.539
  868SOL    MW4 3504   2.670   0.368   1.571
  869SOL     OW 3505   2.890   0.509   1.493
  869SOL    HW2 3506   2.896   0.594   1.537
  869SOL    HW3 3507   2.889   0.530   1.400
  869SOL    MW4 3508   2.891   0.523   1.487
  870SOL     OW 3509   2.908   0.771   1.608
  870SOL    HW2 3510   2.890   0.772   1.702
  870SOL    HW3 3511   2.829   0.808   1.568
  870SOL    MW4 3512   2.895   0.776   1.615
  871SOL     OW 3513   2.688   0.884   1.483
  871SOL    HW2 3514   2.604   0.849   1.511
  871SOL    HW3 3515   2.682   0.887   1.387
  871SOL    MW4 3516   2.676   0.880   1.474
  872SOL     OW 3517   2.754   1.135   1.563
  872SOL    HW2 3518   2.728   1.050   1.526
  872SOL    HW3 3519   2.681   1.193   1.541
  872SOL    MW4 3520   2.741   1.131   1.555
  873SOL     OW 3521   2.967   1.273   1.511
  873SOL    HW2 3522   3.042   1.221   1.538
  873SOL    HW3 3523   2.891   1.218   1.531
  873SOL    MW4 3524   2.967   1.259   1.518
  874SOL     OW 3525   2.910   1.503   1.624
  874SOL    HW2 3526   2.828   1.535   1.585
  874SOL    HW3 3527   2.933   1.426   1.572
  874SOL    MW4 3528   2.902   1.497   1.612
  875SOL     OW 3529   2.697   1.676   1.495
  875SOL    HW2 3530   2.714   1.760   1.538
  875SOL    HW3 3531   2.699   1.697   1.401
  875SOL    MW4 3532   2.700   1.690   1.488
  876SOL     OW 3533   2.718   1.925   1.596
  876SOL    HW2 3534   2.709   1.917   1.691
  876SOL    HW3 3535   2.635   1.964   1.567
  876SOL    MW4 3536   2.706   1.929   1.604
  877SOL     OW 3537   2.944   2.018   1.470
  877SOL    HW2 3538   2.955   2.109   1.498
  877SOL    HW3 3539   2.872   1.985   1.524
  877SOL    MW4 3540   2.936   2.026   1.481
  878SOL     OW 3541   2.963   2.275   1.579
  878SOL    HW2 3542   2.949   2.262   1.673
  878SOL    HW3 3543   2.890   2.330   1.551
  878SOL    MW4 3544   2.952   2.280   1.588
  879SOL     OW 3545   2.744   2.405   1.529
  879SOL    HW2 3546   2.750   2.497   1.554
  879SOL    HW3 3547   2.676   2.369   1.586
  879SOL    MW4 3548   2.736   2.412   1.540
  880SOL     OW 3549   2.723   2.692   1.595
  880SOL    HW2 3550   2.786   2.749   1.549
  880SOL    HW3 3551   2.640   2.709   1.552
  880SOL    MW4 3552   2.721   2.701   1.583
  881SOL     OW 3553   2.939   2.810   1.458
  881SOL    HW2 3554   3.004   2.756   1.503
  881SOL    HW3 3555   2.927   2.886   1.515
  881SOL    MW4 3556   2.946   2.813   1.472
  882SOL     OW 3557   2.914   3.056   1.603
  882SOL    HW2 3558   2.910   3.058   1.698
  882SOL    HW3 3559   2.988   3.113   1.581
  882SOL    MW4 3560   2.923   3.064   1.613
  883SOL     OW 3561   2.684   3.153   1.462
  883SOL    HW2 3562   2.763   3.111   1.497
  883SOL    HW3 3563   2.705   3.175   1.372
  883SOL    MW4 3564   2.697   3.150   1.455
  884SOL     OW 3565   2.654   3.442   1.532
  884SOL    HW2 3566   2.666   3.452   1.626
  884SOL    HW3 3567   2.656   3.347   1.517
  884SOL    MW4 3568   2.656   3.431   1.542
  885SOL     OW 3569   2.895   3.588   1.503
  885SOL    HW2 3570   2.821   3.529   1.513
  885SOL    HW3 3571   2.913   3.588   1.409
  885SOL    MW4 3572   2.888   3.580   1.492
  886SOL     OW 3573   2.861   3.860   1.562
  886SOL    HW2 3574   2.785   3.891   1.512
  886SOL    HW3 3575   2.862   3.765   1.546
  886SOL    MW4 3576   2.851   3.851   1.553
  887SOL     OW 3577   2.647   3.969   1.434
  887SOL    HW2 3578   2.675   4.057   1.458
  887SOL    HW3 3579   2.659   3.965   1.339
  887SOL    MW4 3580   2.652   3.980   1.425
  888SOL     OW 3581   2.727   4.232   1.517
  888SOL    HW2 3582   2.785   4.308   1.515
  888SOL    HW3 3583   2.642   4.267   1.489
  888SOL    MW4 3584   2.723   4.247   1.513
  889SOL     OW 3585   2.925   4.425   1.478
  889SOL    HW2 3586   2.904   4.512   1.510
  889SOL    HW3 3587   2.901   4.428   1.385
  889SOL    MW4 3588   2.919   4.437   1.470
  890SOL     OW 3589   3.373   4.604   1.582
  890SOL    HW2 3590   3.457   4.648   1.571
  890SOL    HW3 3591   3.375   4.533   1.518
  890SOL    MW4 3592   3.385   4.600   1.572
  891SOL     OW 3593   3.153   0.090   1.534
  891SOL    HW2 3594   3.228   0.041   1.566
  891SOL    HW3 3595   3.077   0.043   1.569
  891SOL    MW4 3596   3.153   0.077   1.543
  892SOL     OW 3597   3.128   0.370   1.565
  892SOL    HW2 3598   3.123   0.278   1.540
  892SOL    HW3 3599   3.049   0.409   1.529
  892SOL    MW4 3600   3.117   0.363   1.557
  893SOL     OW 3601   3.356   0.506   1.485
  893SOL    HW2 3602   3.277   0.454   1.505
  893SOL    HW3 3603   3.359   0.509   1.389
  893SOL    MW4 3604   3.346   0.499   1.475
  894SOL     OW 3605   3.355   0.757   1.560
  894SOL    HW2 3606   3.366   0.755   1.655
  894SOL    HW3 3607   3.344   0.665   1.535
  894SOL    MW4 3608   3.355   0.745   1.569
  895SOL     OW 3609   3.110   0.860   1.440
  895SOL    HW2 3610   3.192   0.831   1.481
  895SOL    HW3 3611   3.042   0.834   1.501
  895SOL    MW4 3612   3.112   0.853   1.453
  896SOL     OW 3613   3.182   1.110   1.583
  896SOL    HW2 3614   3.161   1.092   1.675
  896SOL    HW3 3615   3.177   1.024   1.540
  896SOL    MW4 3616   3.178   1.096   1.589
  897SOL     OW 3617   3.379   1.294   1.497
  897SOL    HW2 3618   3.465   1.256   1.514
  897SOL    HW3 3619   3.317   1.231   1.532
  897SOL    MW4 3620   3.382   1.281   1.504
  898SOL     OW 3621   3.368   1.541   1.606
  898SOL    HW2 3622   3.367   1.527   1.700
  898SOL    HW3 3623   3.393   1.456   1.570
  898SOL    MW4 3624   3.371   1.528   1.613
  899SOL     OW 3625   3.128   1.636   1.497
  899SOL    HW2 3626   3.208   1.604   1.538
  899SOL    HW3 3627   3.058   1.590   1.544
  899SOL    MW4 3628   3.129   1.626   1.509
  900SOL     OW 3629   3.171   1.903   1.590
  900SOL    HW2 3630   3.165   1.812   1.560
  900SOL    HW3 3631   3.091   1.945   1.558
  900SOL    MW4 3632   3.160   1.897   1.582
  901SOL     OW 3633   3.392   2.032   1.503
  901SOL    HW2 3634   3.321   1.990   1.551
  901SOL    HW3 3635   3.362   2.037   1.412
  901SOL    MW4 3636   3.379   2.027   1.497
  902SOL     OW 3637   3.349   2.284   1.630
  902SOL    HW2 3638   3.414   2.350   1.609
  902SOL    HW3 3639   3.367   2.212   1.569
  902SOL    MW4 3640   3.360   2.283   1.619
  903SOL     OW 3641   3.157   2.440   1.486
  903SOL    HW2 3642   3.240   2.402   1.512
  903SOL    HW3 3643   3.091   2.386   1.529
  903SOL    MW4 3644   3.159   2.428   1.495
  904SOL     OW 3645   3.151   2.697   1.599
  904SOL    HW2 3646   3.231   2.738   1.566
  904SOL    HW3 3647   3.160   2.605   1.576
  904SOL    MW4 3648   3.163   2.690   1.591
  905SOL     OW 3649   3.361   2.853   1.528
  905SOL    HW2 3650   3.380   2.942   1.557
  905SOL    HW3 3651   3.363   2.858   1.432
  905SOL    MW4 3652   3.364   2.865   1.519
  906SOL     OW 3653   3.366   3.124   1.590
  906SOL    HW2 3654   3.365   3.150   1.682
  906SOL    HW3 3655   3.443   3.169   1.554
  906SOL    MW4 3656   3.376   3.134   1.597
  907SOL     OW 3657   3.132   3.229   1.522
  907SOL    HW2 3658   3.218   3.188   1.535
  907SOL    HW3 3659   3.121   3.233   1.427
  907SOL    MW4 3660   3.142   3.224   1.512
  908SOL     OW 3661   3.135   3.488   1.619
  908SOL    HW2 3662   3.134   3.397   1.590
  908SOL    HW3 3663   3.050   3.523   1.592
  908SOL    MW4 3664   3.124   3.481   1.612
  909SOL     OW 3665   3.367   3.590   1.506
  909SOL    HW2 3666   3.438   3.535   1.539
  909SOL    HW3 3667   3.288   3.555   1.547
  909SOL    MW4 3668   3.366   3.578   1.515
  910SOL     OW 3669   3.357   3.875   1.561
  910SOL    HW2 3670   3.272   3.910   1.534
  910SOL    HW3 3671   3.353   3.782   1.537
  910SOL    MW4 3672   3.345   3.867   1.554
  911SOL     OW 3673   3.114   3.974   1.464
  911SOL    HW2 3674   3.100   4.062   1.498
  911SOL    HW3 3675   3.042   3.922   1.502
  911SOL    MW4 3676   3.103   3.979   1.473
  912SOL     OW 3677   3.147   4.256   1.536
  912SOL    HW2 3678   3.151   4.239   1.630
  912SOL    HW3 3679   3.069   4.310   1.524
  912SOL    MW4 3680   3.137   4.261   1.547
  913SOL     OW 3681   3.381   4.357   1.452
  913SOL    HW2 3682   3.296   4.325   1.481
  913SOL    HW3 3683   3.377   4.354   1.356
  913SOL    MW4 3684   3.369   4.353   1.443
  914SOL     OW 3685   3.830   4.631   1.578
  914SOL    HW2 3686   3.830   4.645   1.673
  914SOL    HW3 3687   3.917   4.658   1.549
  914SOL    MW4 3688   3.841   4.636   1.587
  915SOL     OW 3689   3.588   0.085   1.501
  915SOL    HW2 3690   3.679   0.059   1.515
  915SOL    HW3 3691   3.580   0.094   1.406
  915SOL    MW4 3692   3.599   0.083   1.490
  916SOL     OW 3693   3.570   0.366   1.586
  916SOL    HW2 3694   3.573   0.279   1.546
  916SOL    HW3 3695   3.494   0.409   1.546
  916SOL    MW4 3696   3.561   0.360   1.576
  917SOL     OW 3697   3.798   0.507   1.511
  917SOL    HW2 3698   3.715   0.465   1.532
  917SOL    HW3 3699   3.802   0.504   1.415
  917SOL    MW4 3700   3.787   0.501   1.501
  918SOL     OW 3701   3.811   0.750   1.613
  918SOL    HW2 3702   3.732   0.788   1.576
  918SOL    HW3 3703   3.809   0.659   1.586
  918SOL    MW4 3704   3.801   0.743   1.605
  919SOL     OW 3705   3.601   0.845   1.482
  919SOL    HW2 3706   3.519   0.802   1.505
  919SOL    HW3 3707   3.607   0.835   1.387
  919SOL    MW4 3708   3.591   0.838   1.472
  920SOL     OW 3709   3.567   1.121   1.606
  920SOL    HW2 3710   3.647   1.160   1.570
  920SOL    HW3 3711   3.573   1.028   1.584
  920SOL    MW4 3712   3.578   1.114   1.598
  921SOL     OW 3713   3.747   1.283   1.479
  921SOL    HW2 3714   3.832   1.247   1.505
  921SOL    HW3 3715   3.746   1.371   1.518
  921SOL    MW4 3716   3.758   1.290   1.488
  922SOL     OW 3717   3.809   1.530   1.585
  922SOL    HW2 3718   3.823   1.512   1.678
  922SOL    HW3 3719   3.733   1.590   1.583
  922SOL    MW4 3720   3.801   1.536   1.597
  923SOL     OW 3721   3.591   1.693   1.489
  923SOL    HW2 3722   3.513   1.666   1.537
  923SOL    HW3 3723   3.577   1.661   1.400
  923SOL    MW4 3724   3.579   1.685   1.484
  924SOL     OW 3725   3.640   1.946   1.561
  924SOL    HW2 3726   3.627   1.855   1.533
  924SOL    HW3 3727   3.559   1.991   1.536
  924SOL    MW4 3728   3.628   1.940   1.554
  925SOL     OW 3729   3.868   2.051   1.459
  925SOL    HW2 3730   3.870   2.141   1.491
  925SOL    HW3 3731   3.790   2.013   1.500
  925SOL    MW4 3732   3.858   2.058   1.468
  926SOL     OW 3733   3.805   2.336   1.565
  926SOL    HW2 3734   3.830   2.306   1.652
  926SOL    HW3 3735   3.888   2.340   1.517
  926SOL    MW4 3736   3.820   2.332   1.570
  927SOL     OW 3737   3.547   2.424   1.508
  927SOL    HW2 3738   3.539   2.515   1.536
  927SOL    HW3 3739   3.628   2.393   1.547
  927SOL    MW4 3740   3.556   2.432   1.517
  928SOL     OW 3741   3.570   2.670   1.605
  928SOL    HW2 3742   3.574   2.662   1.700
  928SOL    HW3 3743   3.502   2.736   1.589
  928SOL    MW4 3744   3.561   2.677   1.615
  929SOL     OW 3745   3.827   2.757   1.512
  929SOL    HW2 3746   3.896   2.702   1.548
  929SOL    HW3 3747   3.746   2.722   1.549
  929SOL    MW4 3748   3.825   2.745   1.522
  930SOL     OW 3749   3.806   3.030   1.573
  930SOL    HW2 3750   3.887   3.070   1.541
  930SOL    HW3 3751   3.812   2.939   1.547
  930SOL    MW4 3752   3.817   3.024   1.565
  931SOL     OW 3753   3.605   3.224   1.496
  931SOL    HW2 3754   3.679   3.170   1.524
  931SOL    HW3 3755   3.601   3.212   1.401
  931SOL    MW4 3756   3.614   3.215   1.487
  932SOL     OW 3757   3.575   3.456   1.637
  932SOL    HW2 3758   3.643   3.519   1.613
  932SOL    HW3 3759   3.595   3.378   1.585
  932SOL    MW4 3760   3.587   3.454   1.627
  933SOL     OW 3761   3.789   3.614   1.500
  933SOL    HW2 3762   3.874   3.570   1.508
  933SOL    HW3 3763   3.805   3.703   1.530
  933SOL    MW4 3764   3.802   3.620   1.505
  934SOL     OW 3765   3.816   3.880   1.584
  934SOL    HW2 3766   3.896   3.918   1.547
  934SOL    HW3 3767   3.745   3.931   1.545
  934SOL    MW4 3768   3.817   3.892   1.574
  935SOL     OW 3769   3.578   4.005   1.454
  935SOL    HW2 3770   3.577   4.087   1.503
  935SOL    HW3 3771   3.499   3.958   1.483
  935SOL    MW4 3772   3.567   4.009   1.464
  936SOL     OW 3773   3.599   4.262   1.587
  936SOL    HW2 3774   3.601   4.299   1.675
  936SOL    HW3 3775   3.528   4.308   1.543
  936SOL    MW4 3776   3.590   4.273   1.593
  937SOL     OW 3777   3.812   4.375   1.467
  937SOL    HW2 3778   3.743   4.331   1.516
  937SOL    HW3 3779   3.817   4.462   1.505
  937SOL    MW4 3780   3.804   4.381   1.478
  938SOL     OW 3781   4.260   4.632   1.624
  938SOL    HW2 3782   4.259   4.622   1.719
  938SOL    HW3 3783   4.308   4.555   1.592
  938SOL    MW4 3784   4.266   4.621   1.632
  939SOL     OW 3785   4.060   0.086   1.483
  939SOL    HW2 3786   4.049   0.169   1.530
  939SOL    HW3 3787   4.124   0.037   1.535
  939SOL    MW4 3788   4.067   0.090   1.496
  940SOL     OW 3789   4.025   0.337   1.597
  940SOL    HW2 3790   4.032   0.334   1.692
  940SOL    HW3 3791   3.952   0.396   1.580
  940SOL    MW4 3792   4.016   0.344   1.607
  941SOL     OW 3793   4.218   0.425   1.429
  941SOL    HW2 3794   4.153   0.392   1.490
  941SOL    HW3 3795   4.302   0.400   1.467
  941SOL    MW4 3796   4.221   0.418   1.442
  942SOL     OW 3797   4.234   0.708   1.544
  942SOL    HW2 3798   4.221   0.619   1.510
  942SOL    HW3 3799   4.314   0.739   1.500
  942SOL    MW4 3800   4.243   0.700   1.534
  943SOL     OW 3801   4.030   0.878   1.453
  943SOL    HW2 3802   4.110   0.840   1.490
  943SOL    HW3 3803   3.958   0.834   1.499
  943SOL    MW4 3804   4.031   0.867   1.464
  944SOL     OW 3805   3.994   1.148   1.529
  944SOL    HW2 3806   4.001   1.134   1.623
  944SOL    HW3 3807   3.989   1.060   1.492
  944SOL    MW4 3808   3.994   1.134   1.536
  945SOL     OW 3809   4.282   1.262   1.485
  945SOL    HW2 3810   4.198   1.218   1.487
  945SOL    HW3 3811   4.344   1.198   1.520
  945SOL    MW4 3812   4.279   1.248   1.490
  946SOL     OW 3813   4.260   1.530   1.581
  946SOL    HW2 3814   4.263   1.438   1.556
  946SOL    HW3 3815   4.335   1.569   1.536
  946SOL    MW4 3816   4.271   1.523   1.572
  947SOL     OW 3817   4.022   1.612   1.439
  947SOL    HW2 3818   4.102   1.600   1.490
  947SOL    HW3 3819   3.953   1.575   1.494
  947SOL    MW4 3820   4.023   1.606   1.453
  948SOL     OW 3821   4.034   1.877   1.569
  948SOL    HW2 3822   4.031   1.794   1.521
  948SOL    HW3 3823   3.973   1.934   1.522
  948SOL    MW4 3824   4.026   1.874   1.556
  949SOL     OW 3825   4.260   2.022   1.508
  949SOL    HW2 3826   4.182   1.972   1.531
  949SOL    HW3 3827   4.248   2.047   1.416
  949SOL    MW4 3828   4.248   2.019   1.499
  950SOL     OW 3829   4.300   2.292   1.601
  950SOL    HW2 3830   4.297   2.311   1.695
  950SOL    HW3 3831   4.317   2.198   1.596
  950SOL    MW4 3832   4.302   2.282   1.613
  951SOL     OW 3833   4.042   2.367   1.461
  951SOL    HW2 3834   4.046   2.443   1.519
  951SOL    HW3 3835   4.100   2.303   1.502
  951SOL    MW4 3836   4.050   2.369   1.474
  952SOL     OW 3837   4.059   2.613   1.597
  952SOL    HW2 3838   4.052   2.616   1.692
  952SOL    HW3 3839   4.117   2.685   1.574
  952SOL    MW4 3840   4.066   2.623   1.606
  953SOL     OW 3841   4.248   2.809   1.510
  953SOL    HW2 3842   4.245   2.901   1.536
  953SOL    HW3 3843   4.262   2.811   1.416
  953SOL    MW4 3844   4.250   2.822   1.501
  954SOL     OW 3845   4.287   3.066   1.600
  954SOL    HW2 3846   4.297   3.085   1.693
  954SOL    HW3 3847   4.372   3.086   1.561
  954SOL    MW4 3848   4.299   3.071   1.607
  955SOL     OW 3849   4.040   3.192   1.492
  955SOL    HW2 3850   4.048   3.281   1.526
  955SOL    HW3 3851   4.120   3.148   1.521
  955SOL    MW4 3852   4.052   3.198   1.501
  956SOL     OW 3853   4.031   3.476   1.564
  956SOL    HW2 3854   4.033   3.457   1.658
  956SOL    HW3 3855   4.116   3.516   1.545
  956SOL    MW4 3856   4.042   3.479   1.574
  957SOL     OW 3857   4.258   3.616   1.506
  957SOL    HW2 3858   4.249   3.707   1.536
  957SOL    HW3 3859   4.280   3.623   1.413
  957SOL    MW4 3860   4.260   3.629   1.498
  958SOL     OW 3861   4.262   3.884   1.560
  958SOL    HW2 3862   4.195   3.943   1.524
  958SOL    HW3 3863   4.343   3.909   1.514
  958SOL    MW4 3864   4.264   3.895   1.549
  959SOL     OW 3865   4.041   3.998   1.474
  959SOL    HW2 3866   4.037   4.087   1.508
  959SOL    HW3 3867   4.032   4.008   1.379
  959SOL    MW4 3868   4.039   4.011   1.466
  960SOL     OW 3869   4.055   4.258   1.550
  960SOL    HW2 3870   4.041   4.245   1.643
  960SOL    HW3 3871   3.972   4.291   1.517
  960SOL    MW4 3872   4.042   4.260   1.558
  961SOL     OW 3873   4.335   4.400   1.502
  961SOL    HW2 3874   4.259   4.350   1.533
  961SOL    HW3 3875   4.337   4.383   1.407
  961SOL    MW4 3876   4.325   4.391   1.493
  962SOL     OW 3877   0.210   4.651   1.867
  962SOL    HW2 3878   0.297   4.677   1.895
  962SOL    HW3 3879   0.216   4.647   1.771
  962SOL    MW4 3880   0.222   4.654   1.858
  963SOL     OW 3881   0.003   0.091   1.979
  963SOL    HW2 3882  -0.009   0.176   1.937
  963SOL    HW3 3883   0.084   0.056   1.943
  963SOL    MW4 3884   0.012   0.097   1.969
  964SOL     OW 3885   4.486   0.361   1.870
  964SOL    HW2 3886   4.411   0.416   1.893
  964SOL    HW3 3887   4.563   0.410   1.899
  964SOL    MW4 3888   4.486   0.375   1.877
  965SOL     OW 3889   0.220   0.490   1.958
  965SOL    HW2 3890   0.303   0.458   1.923
  965SOL    HW3 3891   0.213   0.580   1.926
  965SOL    MW4 3892   0.230   0.498   1.949
  966SOL     OW 3893   0.198   0.760   1.845
  966SOL    HW2 3894   0.277   0.811   1.864
  966SOL    HW3 3895   0.194   0.757   1.749
  966SOL    MW4 3896   0.208   0.767   1.835
  967SOL     OW 3897   4.451   0.887   1.917
  967SOL    HW2 3898   4.376   0.836   1.886
  967SOL    HW3 3899   4.528   0.832   1.897
  967SOL    MW4 3900   4.452   0.873   1.910
  968SOL     OW 3901   0.018   1.134   1.814
  968SOL    HW2 3902  -0.061   1.184   1.838
  968SOL    HW3 3903   0.007   1.050   1.858
  968SOL    MW4 3904   0.006   1.129   1.823
  969SOL     OW 3905   0.228   1.287   1.940
  969SOL    HW2 3906   0.224   1.377   1.908
  969SOL    HW3 3907   0.155   1.243   1.898
  969SOL    MW4 3908   0.218   1.293   1.930
  970SOL     OW 3909   0.271   1.539   1.852
  970SOL    HW2 3910   0.346   1.587   1.886
  970SOL    HW3 3911   0.195   1.582   1.892
  970SOL    MW4 3912   0.271   1.551   1.862
  971SOL     OW 3913   0.023   1.656   1.969
  971SOL    HW2 3914   0.009   1.659   2.063
  971SOL    HW3 3915  -0.032   1.584   1.938
  971SOL    MW4 3916   0.014   1.647   1.977
  972SOL     OW 3917   0.026   1.924   1.891
  972SOL    HW2 3918  -0.060   1.958   1.914
  972SOL    HW3 3919   0.023   1.832   1.917
  972SOL    MW4 3920   0.015   1.916   1.897
  973SOL     OW 3921   0.234   2.053   1.999
  973SOL    HW2 3922   0.238   2.141   1.963
  973SOL    HW3 3923   0.150   2.018   1.968
  973SOL    MW4 3924   0.223   2.060   1.990
  974SOL     OW 3925   0.232   2.298   1.869
  974SOL    HW2 3926   0.305   2.355   1.894
  974SOL    HW3 3927   0.155   2.338   1.909
  974SOL    MW4 3928   0.232   2.311   1.878
  975SOL     OW 3929   0.001   2.416   2.018
  975SOL    HW2 3930   0.016   2.417   2.112
  975SOL    HW3 3931   0.023   2.505   1.989
  975SOL    MW4 3932   0.006   2.428   2.026
  976SOL     OW 3933   4.477   2.669   1.892
  976SOL    HW2 3934   4.397   2.720   1.903
  976SOL    HW3 3935   4.482   2.652   1.798
  976SOL    MW4 3936   4.468   2.674   1.881
  977SOL     OW 3937   0.211   2.800   1.972
  977SOL    HW2 3938   0.205   2.889   1.936
  977SOL    HW3 3939   0.128   2.759   1.948
  977SOL    MW4 3940   0.199   2.807   1.964
  978SOL     OW 3941   0.237   3.044   1.859
  978SOL    HW2 3942   0.322   3.085   1.874
  978SOL    HW3 3943   0.229   3.039   1.763
  978SOL    MW4 3944   0.247   3.049   1.848
  979SOL     OW 3945   0.027   3.203   1.989
  979SOL    HW2 3946  -0.047   3.158   1.949
  979SOL    HW3 3947   0.104   3.157   1.956
  979SOL    MW4 3948   0.028   3.191   1.979
  980SOL     OW 3949   0.009   3.449   1.854
  980SOL    HW2 3950   0.078   3.495   1.902
  980SOL    HW3 3951   0.000   3.366   1.899
  980SOL    MW4 3952   0.017   3.444   1.866
  981SOL     OW 3953   0.221   3.583   1.992
  981SOL    HW2 3954   0.240   3.585   2.086
  981SOL    HW3 3955   0.291   3.530   1.954
  981SOL    MW4 3956   0.233   3.576   1.999
  982SOL     OW 3957   0.227   3.829   1.854
  982SOL    HW2 3958   0.296   3.871   1.905
  982SOL    HW3 3959   0.210   3.746   1.899
  982SOL    MW4 3960   0.234   3.824   1.867
  983SOL     OW 3961   4.489   3.964   1.964
  983SOL    HW2 3962   4.505   4.053   1.932
  983SOL    HW3 3963   4.560   3.912   1.925
  983SOL    MW4 3964   4.501   3.969   1.954
  984SOL     OW 3965   0.030   4.236   1.881
  984SOL    HW2 3966  -0.053   4.276   1.909
  984SOL    HW3 3967   0.098   4.295   1.912
  984SOL    MW4 3968   0.028   4.249   1.889
  985SOL     OW 3969   0.229   4.388   1.976
  985SOL    HW2 3970   0.197   4.399   2.065
  985SOL    HW3 3971   0.217   4.474   1.935
  985SOL    MW4 3972   0.223   4.401   1.982
  986SOL     OW 3973   0.719   4.645   1.860
  986SOL    HW2 3974   0.706   4.558   1.898
  986SOL    HW3 3975   0.689   4.636   1.770
  986SOL    MW4 3976   0.713   4.632   1.853
  987SOL     OW 3977   0.465   0.090   1.943
  987SOL    HW2 3978   0.459   0.178   1.904
  987SOL    HW3 3979   0.551   0.058   1.916
  987SOL    MW4 3980   0.476   0.098   1.934
  988SOL     OW 3981   0.441   0.366   1.870
  988SOL    HW2 3982   0.521   0.402   1.909
  988SOL    HW3 3983   0.458   0.365   1.776
  988SOL    MW4 3984   0.454   0.370   1.863
  989SOL     OW 3985   0.662   0.505   1.954
  989SOL    HW2 3986   0.668   0.483   2.047
  989SOL    HW3 3987   0.733   0.456   1.913
  989SOL    MW4 3988   0.672   0.496   1.961
  990SOL     OW 3989   0.691   0.773   1.866
  990SOL    HW2 3990   0.777   0.803   1.893
  990SOL    HW3 3991   0.679   0.689   1.910
  990SOL    MW4 3992   0.701   0.766   1.875
  991SOL     OW 3993   0.445   0.877   1.912
  991SOL    HW2 3994   0.456   0.971   1.901
  991SOL    HW3 3995   0.530   0.839   1.887
  991SOL    MW4 3996   0.458   0.884   1.907
  992SOL     OW 3997   0.459   1.150   1.900
  992SOL    HW2 3998   0.376   1.193   1.922
  992SOL    HW3 3999   0.469   1.165   1.806
  992SOL    MW4 4000   0.449   1.157   1.890
  993SOL     OW 4001   0.696   1.284   1.951
  993SOL    HW2 4002   0.697   1.281   2.047
  993SOL    HW3 4003   0.614   1.241   1.927
  993SOL    MW4 4004   0.685   1.278   1.960
  994SOL     OW 4005   0.720   1.545   1.856
  994SOL    HW2 4006   0.697   1.457   1.887
  994SOL    HW3 4007   0.706   1.542   1.762
  994SOL    MW4 4008   0.715   1.533   1.848
  995SOL     OW 4009   0.485   1.668   1.965
  995SOL    HW2 4010   0.470   1.660   2.059
  995SOL    HW3 4011   0.566   1.620   1.949
  995SOL    MW4 4012   0.493   1.661   1.975
  996SOL     OW 4013   0.440   1.922   1.876
  996SOL    HW2 4014   0.442   1.833   1.913
  996SOL    HW3 4015   0.382   1.971   1.934
  996SOL    MW4 4016   0.433   1.917   1.889
  997SOL     OW 4017   0.670   2.068   1.941
  997SOL    HW2 4018   0.689   2.038   2.030
  997SOL    HW3 4019   0.599   2.012   1.911
  997SOL    MW4 4020   0.663   2.057   1.949
  998SOL     OW 4021   0.730   2.333   1.849
  998SOL    HW2 4022   0.711   2.244   1.876
  998SOL    HW3 4023   0.715   2.334   1.755
  998SOL    MW4 4024   0.726   2.322   1.840
  999SOL     OW 4025   0.445   2.457   1.939
  999SOL    HW2 4026   0.462   2.440   2.031
  999SOL    HW3 4027   0.523   2.427   1.894
  999SOL    MW4 4028   0.457   2.451   1.945
 1000SOL     OW 4029   0.461   2.727   1.895
 1000SOL    HW2 4030   0.452   2.634   1.914
 1000SOL    HW3 4031   0.373   2.763   1.903
 1000SOL    MW4 4032   0.448   2.720   1.899
 1001SOL     OW 4033   0.699   2.790   1.996
 1001SOL    HW2 4034   0.686   2.810   2.089
 1001SOL    HW3 4035   0.613   2.763   1.965
 1001SOL    MW4 4036   0.686   2.789   2.004
 1002SOL     OW 4037   0.732   3.059   1.907
 1002SOL    HW2 4038   0.713   2.972   1.940
 1002SOL    HW3 4039   0.699   3.059   1.817
 1002SOL    MW4 4040   0.725   3.048   1.899
 1003SOL     OW 4041   0.483   3.162   1.963
 1003SOL    HW2 4042   0.487   3.252   1.930
 1003SOL    HW3 4043   0.571   3.128   1.951
 1003SOL    MW4 4044   0.495   3.170   1.957
 1004SOL     OW 4045   0.466   3.432   1.870
 1004SOL    HW2 4046   0.539   3.485   1.900
 1004SOL    HW3 4047   0.483   3.415   1.778
 1004SOL    MW4 4048   0.478   3.437   1.862
 1005SOL     OW 4049   0.679   3.590   1.974
 1005SOL    HW2 4050   0.761   3.562   1.931
 1005SOL    HW3 4051   0.663   3.677   1.939
 1005SOL    MW4 4052   0.688   3.598   1.964
 1006SOL     OW 4053   0.623   3.840   1.864
 1006SOL    HW2 4054   0.690   3.897   1.901
 1006SOL    HW3 4055   0.643   3.837   1.770
 1006SOL    MW4 4056   0.634   3.847   1.856
 1007SOL     OW 4057   0.422   3.984   1.982
 1007SOL    HW2 4058   0.423   4.076   1.955
 1007SOL    HW3 4059   0.491   3.943   1.929
 1007SOL    MW4 4060   0.431   3.991   1.972
 1008SOL     OW 4061   0.450   4.244   1.886
 1008SOL    HW2 4062   0.375   4.292   1.921
 1008SOL    HW3 4063   0.448   4.260   1.792
 1008SOL    MW4 4064   0.440   4.252   1.879
 1009SOL     OW 4065   0.690   4.406   1.969
 1009SOL    HW2 4066   0.754   4.339   1.946
 1009SOL    HW3 4067   0.608   4.376   1.929
 1009SOL    MW4 4068   0.687   4.393   1.961
 1010SOL     OW 4069   1.138   4.640   1.809
 1010SOL    HW2 4070   1.209   4.688   1.850
 1010SOL    HW3 4071   1.141   4.553   1.850
 1010SOL    MW4 4072   1.147   4.635   1.820
 1011SOL     OW 4073   0.937   0.130   1.952
 1011SOL    HW2 4074   1.018   0.093   1.918
 1011SOL    HW3 4075   0.868   0.073   1.920
 1011SOL    MW4 4076   0.939   0.118   1.943
 1012SOL     OW 4077   0.912   0.396   1.878
 1012SOL    HW2 4078   0.986   0.447   1.911
 1012SOL    HW3 4079   0.930   0.307   1.908
 1012SOL    MW4 4080   0.925   0.391   1.887
 1013SOL     OW 4081   1.116   0.533   1.954
 1013SOL    HW2 4082   1.191   0.482   1.923
 1013SOL    HW3 4083   1.130   0.621   1.919
 1013SOL    MW4 4084   1.128   0.538   1.946
 1014SOL     OW 4085   1.166   0.785   1.848
 1014SOL    HW2 4086   1.236   0.830   1.895
 1014SOL    HW3 4087   1.085   0.820   1.885
 1014SOL    MW4 4088   1.164   0.795   1.859
 1015SOL     OW 4089   0.939   0.876   1.955
 1015SOL    HW2 4090   0.922   0.875   2.049
 1015SOL    HW3 4091   0.932   0.969   1.931
 1015SOL    MW4 4092   0.936   0.888   1.964
 1016SOL     OW 4093   0.909   1.155   1.854
 1016SOL    HW2 4094   0.832   1.198   1.892
 1016SOL    HW3 4095   0.891   1.153   1.760
 1016SOL    MW4 4096   0.896   1.160   1.846
 1017SOL     OW 4097   1.140   1.287   1.948
 1017SOL    HW2 4098   1.129   1.380   1.929
 1017SOL    HW3 4099   1.063   1.245   1.908
 1017SOL    MW4 4100   1.128   1.293   1.940
 1018SOL     OW 4101   1.135   1.550   1.840
 1018SOL    HW2 4102   1.065   1.610   1.865
 1018SOL    HW3 4103   1.148   1.567   1.746
 1018SOL    MW4 4104   1.128   1.560   1.831
 1019SOL     OW 4105   0.915   1.706   1.966
 1019SOL    HW2 4106   0.892   1.790   1.926
 1019SOL    HW3 4107   0.843   1.648   1.941
 1019SOL    MW4 4108   0.902   1.710   1.957
 1020SOL     OW 4109   0.913   1.962   1.862
 1020SOL    HW2 4110   0.828   2.001   1.884
 1020SOL    HW3 4111   0.919   1.969   1.767
 1020SOL    MW4 4112   0.903   1.968   1.853
 1021SOL     OW 4113   1.126   2.042   2.022
 1021SOL    HW2 4114   1.156   2.119   1.974
 1021SOL    HW3 4115   1.040   2.023   1.984
 1021SOL    MW4 4116   1.119   2.050   2.011
 1022SOL     OW 4117   1.181   2.286   1.871
 1022SOL    HW2 4118   1.249   2.343   1.906
 1022SOL    HW3 4119   1.181   2.303   1.777
 1022SOL    MW4 4120   1.190   2.296   1.864
 1023SOL     OW 4121   0.971   2.428   1.961
 1023SOL    HW2 4122   1.034   2.365   1.927
 1023SOL    HW3 4123   0.888   2.402   1.921
 1023SOL    MW4 4124   0.968   2.417   1.951
 1024SOL     OW 4125   0.935   2.709   1.870
 1024SOL    HW2 4126   0.940   2.626   1.918
 1024SOL    HW3 4127   0.855   2.750   1.903
 1024SOL    MW4 4128   0.925   2.703   1.881
 1025SOL     OW 4129   1.163   2.834   1.985
 1025SOL    HW2 4130   1.141   2.845   2.077
 1025SOL    HW3 4131   1.084   2.799   1.945
 1025SOL    MW4 4132   1.150   2.831   1.992
 1026SOL     OW 4133   1.169   3.084   1.858
 1026SOL    HW2 4134   1.098   3.121   1.911
 1026SOL    HW3 4135   1.188   3.000   1.898
 1026SOL    MW4 4136   1.162   3.078   1.870
 1027SOL     OW 4137   0.955   3.216   1.987
 1027SOL    HW2 4138   0.925   3.238   2.076
 1027SOL    HW3 4139   0.889   3.154   1.955
 1027SOL    MW4 4140   0.942   3.211   1.995
 1028SOL     OW 4141   0.923   3.484   1.866
 1028SOL    HW2 4142   0.940   3.400   1.907
 1028SOL    HW3 4143   0.909   3.464   1.774
 1028SOL    MW4 4144   0.924   3.471   1.859
 1029SOL     OW 4145   1.143   3.621   1.944
 1029SOL    HW2 4146   1.145   3.637   2.038
 1029SOL    HW3 4147   1.052   3.598   1.925
 1029SOL    MW4 4148   1.131   3.620   1.954
 1030SOL     OW 4149   1.082   3.908   1.867
 1030SOL    HW2 4150   1.102   3.820   1.900
 1030SOL    HW3 4151   1.089   3.900   1.772
 1030SOL    MW4 4152   1.085   3.895   1.859
 1031SOL     OW 4153   0.846   4.005   1.986
 1031SOL    HW2 4154   0.844   4.023   2.080
 1031SOL    HW3 4155   0.931   3.964   1.972
 1031SOL    MW4 4156   0.857   4.002   1.997
 1032SOL     OW 4157   0.900   4.259   1.867
 1032SOL    HW2 4158   0.982   4.295   1.901
 1032SOL    HW3 4159   0.892   4.174   1.909
 1032SOL    MW4 4160   0.910   4.253   1.877
 1033SOL     OW 4161   1.128   4.388   1.945
 1033SOL    HW2 4162   1.131   4.390   2.040
 1033SOL    HW3 4163   1.205   4.337   1.919
 1033SOL    MW4 4164   1.139   4.381   1.954
 1034SOL     OW 4165   1.581   4.646   1.843
 1034SOL    HW2 4166   1.656   4.673   1.895
 1034SOL    HW3 4167   1.566   4.555   1.867
 1034SOL    MW4 4168   1.589   4.637   1.853
 1035SOL     OW 4169   1.351   0.113   1.929
 1035SOL    HW2 4170   1.335   0.101   2.022
 1035SOL    HW3 4171   1.433   0.066   1.912
 1035SOL    MW4 4172   1.360   0.105   1.939
 1036SOL     OW 4173   1.326   0.378   1.847
 1036SOL    HW2 4174   1.336   0.286   1.872
 1036SOL    HW3 4175   1.317   0.377   1.751
 1036SOL    MW4 4176   1.326   0.366   1.837
 1037SOL     OW 4177   1.585   0.470   1.928
 1037SOL    HW2 4178   1.659   0.423   1.891
 1037SOL    HW3 4179   1.510   0.441   1.877
 1037SOL    MW4 4180   1.585   0.460   1.917
 1038SOL     OW 4181   1.579   0.736   1.837
 1038SOL    HW2 4182   1.647   0.768   1.897
 1038SOL    HW3 4183   1.578   0.641   1.851
 1038SOL    MW4 4184   1.588   0.728   1.847
 1039SOL     OW 4185   1.385   0.887   1.975
 1039SOL    HW2 4186   1.392   0.864   2.068
 1039SOL    HW3 4187   1.440   0.823   1.930
 1039SOL    MW4 4188   1.393   0.876   1.981
 1040SOL     OW 4189   1.361   1.130   1.835
 1040SOL    HW2 4190   1.365   1.050   1.886
 1040SOL    HW3 4191   1.300   1.186   1.883
 1040SOL    MW4 4192   1.353   1.127   1.848
 1041SOL     OW 4193   1.588   1.256   1.961
 1041SOL    HW2 4194   1.573   1.347   1.936
 1041SOL    HW3 4195   1.512   1.209   1.926
 1041SOL    MW4 4196   1.576   1.262   1.953
 1042SOL     OW 4197   1.554   1.494   1.857
 1042SOL    HW2 4198   1.637   1.527   1.889
 1042SOL    HW3 4199   1.487   1.539   1.909
 1042SOL    MW4 4200   1.556   1.504   1.868
 1043SOL     OW 4201   1.348   1.653   1.969
 1043SOL    HW2 4202   1.339   1.663   2.064
 1043SOL    HW3 4203   1.267   1.612   1.941
 1043SOL    MW4 4204   1.336   1.649   1.978
 1044SOL     OW 4205   1.310   1.901   1.840
 1044SOL    HW2 4206   1.323   1.811   1.869
 1044SOL    HW3 4207   1.244   1.937   1.900
 1044SOL    MW4 4208   1.303   1.894   1.852
 1045SOL     OW 4209   1.545   2.021   1.956
 1045SOL    HW2 4210   1.545   2.114   1.932
 1045SOL    HW3 4211   1.466   1.985   1.916
 1045SOL    MW4 4212   1.535   2.029   1.948
 1046SOL     OW 4213   1.575   2.287   1.870
 1046SOL    HW2 4214   1.657   2.328   1.900
 1046SOL    HW3 4215   1.573   2.305   1.776
 1046SOL    MW4 4216   1.586   2.295   1.861
 1047SOL     OW 4217   1.377   2.457   1.959
 1047SOL    HW2 4218   1.409   2.546   1.939
 1047SOL    HW3 4219   1.455   2.402   1.954
 1047SOL    MW4 4220   1.392   2.462   1.956
 1048SOL     OW 4221   1.418   2.733   1.891
 1048SOL    HW2 4222   1.332   2.761   1.920
 1048SOL    HW3 4223   1.409   2.721   1.796
 1048SOL    MW4 4224   1.406   2.735   1.882
 1049SOL     OW 4225   1.658   2.861   1.981
 1049SOL    HW2 4226   1.732   2.819   1.938
 1049SOL    HW3 4227   1.581   2.817   1.945
 1049SOL    MW4 4228   1.658   2.850   1.971
 1050SOL     OW 4229   1.610   3.112   1.882
 1050SOL    HW2 4230   1.639   3.024   1.905
 1050SOL    HW3 4231   1.608   3.112   1.786
 1050SOL    MW4 4232   1.614   3.100   1.872
 1051SOL     OW 4233   1.368   3.241   1.969
 1051SOL    HW2 4234   1.449   3.200   1.938
 1051SOL    HW3 4235   1.299   3.182   1.941
 1051SOL    MW4 4236   1.370   3.228   1.961
 1052SOL     OW 4237   1.362   3.487   1.852
 1052SOL    HW2 4238   1.365   3.403   1.898
 1052SOL    HW3 4239   1.283   3.529   1.885
 1052SOL    MW4 4240   1.352   3.481   1.862
 1053SOL     OW 4241   1.598   3.599   1.922
 1053SOL    HW2 4242   1.594   3.609   2.017
 1053SOL    HW3 4243   1.511   3.565   1.899
 1053SOL    MW4 4244   1.586   3.596   1.932
 1054SOL     OW 4245   1.567   3.871   1.859
 1054SOL    HW2 4246   1.645   3.913   1.894
 1054SOL    HW3 4247   1.581   3.777   1.876
 1054SOL    MW4 4248   1.579   3.864   1.866
 1055SOL     OW 4249   1.327   3.986   1.959
 1055SOL    HW2 4250   1.405   3.941   1.926
 1055SOL    HW3 4251   1.254   3.947   1.911
 1055SOL    MW4 4252   1.328   3.975   1.948
 1056SOL     OW 4253   1.360   4.258   1.881
 1056SOL    HW2 4254   1.346   4.170   1.914
 1056SOL    HW3 4255   1.367   4.247   1.786
 1056SOL    MW4 4256   1.359   4.245   1.873
 1057SOL     OW 4257   1.587   4.392   1.971
 1057SOL    HW2 4258   1.586   4.389   2.066
 1057SOL    HW3 4259   1.506   4.349   1.944
 1057SOL    MW4 4260   1.577   4.386   1.980
 1058SOL     OW 4261   2.013   4.587   1.838
 1058SOL    HW2 4262   2.076   4.649   1.875
 1058SOL    HW3 4263   2.001   4.521   1.905
 1058SOL    MW4 4264   2.020   4.587   1.852
 1059SOL     OW 4265   1.805   0.083   1.935
 1059SOL    HW2 4266   1.798   0.060   2.028
 1059SOL    HW3 4267   1.880   0.033   1.904
 1059SOL    MW4 4268   1.814   0.073   1.944
 1060SOL     OW 4269   1.807   0.350   1.848
 1060SOL    HW2 4270   1.794   0.255   1.855
 1060SOL    HW3 4271   1.789   0.369   1.756
 1060SOL    MW4 4272   1.803   0.340   1.837
 1061SOL     OW 4273   2.045   0.443   1.933
 1061SOL    HW2 4274   2.030   0.527   1.888
 1061SOL    HW3 4275   1.968   0.391   1.912
 1061SOL    MW4 4276   2.033   0.447   1.924
 1062SOL     OW 4277   2.002   0.715   1.843
 1062SOL    HW2 4278   2.092   0.739   1.866
 1062SOL    HW3 4279   2.000   0.719   1.747
 1062SOL    MW4 4280   2.013   0.719   1.833
 1063SOL     OW 4281   1.779   0.843   1.999
 1063SOL    HW2 4282   1.775   0.927   1.954
 1063SOL    HW3 4283   1.855   0.799   1.961
 1063SOL    MW4 4284   1.788   0.848   1.988
 1064SOL     OW 4285   1.813   1.104   1.885
 1064SOL    HW2 4286   1.739   1.162   1.900
 1064SOL    HW3 4287   1.828   1.107   1.791
 1064SOL    MW4 4288   1.806   1.112   1.875
 1065SOL     OW 4289   2.054   1.247   1.953
 1065SOL    HW2 4290   2.119   1.184   1.923
 1065SOL    HW3 4291   1.970   1.212   1.923
 1065SOL    MW4 4292   2.052   1.234   1.945
 1066SOL     OW 4293   2.024   1.505   1.904
 1066SOL    HW2 4294   2.033   1.410   1.909
 1066SOL    HW3 4295   2.023   1.524   1.810
 1066SOL    MW4 4296   2.025   1.495   1.892
 1067SOL     OW 4297   1.776   1.626   1.975
 1067SOL    HW2 4298   1.782   1.715   1.941
 1067SOL    HW3 4299   1.859   1.585   1.951
 1067SOL    MW4 4300   1.787   1.633   1.968
 1068SOL     OW 4301   1.775   1.893   1.882
 1068SOL    HW2 4302   1.690   1.929   1.908
 1068SOL    HW3 4303   1.782   1.912   1.789
 1068SOL    MW4 4304   1.765   1.900   1.873
 1069SOL     OW 4305   1.994   2.071   1.973
 1069SOL    HW2 4306   2.072   2.017   1.960
 1069SOL    HW3 4307   1.922   2.015   1.942
 1069SOL    MW4 4308   1.995   2.056   1.967
 1070SOL     OW 4309   2.037   2.322   1.860
 1070SOL    HW2 4310   2.108   2.363   1.908
 1070SOL    HW3 4311   2.023   2.238   1.904
 1070SOL    MW4 4312   2.044   2.316   1.872
 1071SOL     OW 4313   1.803   2.435   1.936
 1071SOL    HW2 4314   1.813   2.444   2.031
 1071SOL    HW3 4315   1.881   2.387   1.909
 1071SOL    MW4 4316   1.815   2.430   1.945
 1072SOL     OW 4317   1.854   2.700   1.855
 1072SOL    HW2 4318   1.843   2.612   1.891
 1072SOL    HW3 4319   1.824   2.693   1.764
 1072SOL    MW4 4320   1.849   2.688   1.847
 1073SOL     OW 4321   2.065   2.859   1.969
 1073SOL    HW2 4322   2.036   2.850   2.060
 1073SOL    HW3 4323   1.999   2.811   1.918
 1073SOL    MW4 4324   2.052   2.851   1.974
 1074SOL     OW 4325   2.063   3.089   1.839
 1074SOL    HW2 4326   1.985   3.119   1.887
 1074SOL    HW3 4327   2.085   3.005   1.880
 1074SOL    MW4 4328   2.056   3.082   1.851
 1075SOL     OW 4329   1.839   3.222   1.963
 1075SOL    HW2 4330   1.838   3.239   2.057
 1075SOL    HW3 4331   1.753   3.184   1.944
 1075SOL    MW4 4332   1.827   3.219   1.973
 1076SOL     OW 4333   1.838   3.460   1.847
 1076SOL    HW2 4334   1.838   3.373   1.887
 1076SOL    HW3 4335   1.757   3.500   1.880
 1076SOL    MW4 4336   1.827   3.454   1.857
 1077SOL     OW 4337   2.077   3.570   1.928
 1077SOL    HW2 4338   2.064   3.663   1.911
 1077SOL    HW3 4339   1.992   3.529   1.909
 1077SOL    MW4 4340   2.064   3.577   1.923
 1078SOL     OW 4341   2.036   3.850   1.866
 1078SOL    HW2 4342   2.115   3.897   1.892
 1078SOL    HW3 4343   2.047   3.834   1.773
 1078SOL    MW4 4344   2.047   3.854   1.857
 1079SOL     OW 4345   1.804   4.010   1.918
 1079SOL    HW2 4346   1.803   4.103   1.893
 1079SOL    HW3 4347   1.885   3.976   1.879
 1079SOL    MW4 4348   1.815   4.018   1.909
 1080SOL     OW 4349   1.809   4.281   1.857
 1080SOL    HW2 4350   1.734   4.327   1.897
 1080SOL    HW3 4351   1.803   4.304   1.764
 1080SOL    MW4 4352   1.798   4.290   1.850
 1081SOL     OW 4353   2.030   4.352   1.990
 1081SOL    HW2 4354   2.107   4.325   1.940
 1081SOL    HW3 4355   1.957   4.305   1.948
 1081SOL    MW4 4356   2.030   4.342   1.978
 1082SOL     OW 4357   2.444   4.651   1.802
 1082SOL    HW2 4358   2.523   4.685   1.845
 1082SOL    HW3 4359   2.445   4.558   1.821
 1082SOL    MW4 4360   2.455   4.644   1.810
 1083SOL     OW 4361   2.218   0.085   1.930
 1083SOL    HW2 4362   2.229   0.099   2.024
 1083SOL    HW3 4363   2.299   0.042   1.903
 1083SOL    MW4 4364   2.230   0.082   1.939
 1084SOL     OW 4365   2.260   0.318   1.807
 1084SOL    HW2 4366   2.263   0.231   1.848
 1084SOL    HW3 4367   2.184   0.360   1.845
 1084SOL    MW4 4368   2.250   0.312   1.817
 1085SOL     OW 4369   2.478   0.462   1.901
 1085SOL    HW2 4370   2.556   0.407   1.895
 1085SOL    HW3 4371   2.407   0.407   1.868
 1085SOL    MW4 4372   2.479   0.448   1.896
 1086SOL     OW 4373   2.459   0.743   1.834
 1086SOL    HW2 4374   2.466   0.648   1.849
 1086SOL    HW3 4375   2.468   0.753   1.739
 1086SOL    MW4 4376   2.461   0.732   1.823
 1087SOL     OW 4377   2.236   0.861   1.931
 1087SOL    HW2 4378   2.238   0.864   2.026
 1087SOL    HW3 4379   2.314   0.812   1.906
 1087SOL    MW4 4380   2.246   0.855   1.940
 1088SOL     OW 4381   2.262   1.104   1.845
 1088SOL    HW2 4382   2.343   1.140   1.880
 1088SOL    HW3 4383   2.263   1.012   1.872
 1088SOL    MW4 4384   2.273   1.097   1.853
 1089SOL     OW 4385   2.490   1.233   1.935
 1089SOL    HW2 4386   2.494   1.241   2.030
 1089SOL    HW3 4387   2.484   1.324   1.903
 1089SOL    MW4 4388   2.490   1.246   1.943
 1090SOL     OW 4389   2.481   1.517   1.862
 1090SOL    HW2 4390   2.398   1.549   1.898
 1090SOL    HW3 4391   2.480   1.545   1.771
 1090SOL    MW4 4392   2.470   1.525   1.855
 1091SOL     OW 4393   2.259   1.621   1.987
 1091SOL    HW2 4394   2.259   1.628   2.083
 1091SOL    HW3 4395   2.178   1.576   1.966
 1091SOL    MW4 4396   2.249   1.616   1.997
 1092SOL     OW 4397   2.224   1.924   1.944
 1092SOL    HW2 4398   2.311   1.957   1.965
 1092SOL    HW3 4399   2.222   1.837   1.983
 1092SOL    MW4 4400   2.235   1.917   1.952
 1093SOL     OW 4401   2.489   2.006   1.980
 1093SOL    HW2 4402   2.568   1.967   1.943
 1093SOL    HW3 4403   2.492   2.097   1.951
 1093SOL    MW4 4404   2.500   2.012   1.971
 1094SOL     OW 4405   2.455   2.272   1.917
 1094SOL    HW2 4406   2.539   2.317   1.928
 1094SOL    HW3 4407   2.391   2.332   1.956
 1094SOL    MW4 4408   2.458   2.286   1.924
 1095SOL     OW 4409   2.248   2.444   1.997
 1095SOL    HW2 4410   2.248   2.454   2.092
 1095SOL    HW3 4411   2.266   2.532   1.964
 1095SOL    MW4 4412   2.251   2.457   2.005
 1096SOL     OW 4413   2.286   2.705   1.894
 1096SOL    HW2 4414   2.215   2.764   1.919
 1096SOL    HW3 4415   2.285   2.705   1.798
 1096SOL    MW4 4416   2.277   2.713   1.885
 1097SOL     OW 4417   2.518   2.809   1.947
 1097SOL    HW2 4418   2.508   2.902   1.925
 1097SOL    HW3 4419   2.436   2.769   1.917
 1097SOL    MW4 4420   2.506   2.816   1.940
 1098SOL     OW 4421   2.466   3.059   1.848
 1098SOL    HW2 4422   2.395   3.114   1.882
 1098SOL    HW3 4423   2.447   3.053   1.754
 1098SOL    MW4 4424   2.454   3.066   1.840
 1099SOL     OW 4425   2.286   3.217   1.963
 1099SOL    HW2 4426   2.281   3.219   2.058
 1099SOL    HW3 4427   2.203   3.176   1.935
 1099SOL    MW4 4428   2.274   3.212   1.972
 1100SOL     OW 4429   2.294   3.454   1.815
 1100SOL    HW2 4430   2.297   3.371   1.862
 1100SOL    HW3 4431   2.221   3.502   1.854
 1100SOL    MW4 4432   2.285   3.449   1.826
 1101SOL     OW 4433   2.496   3.578   1.957
 1101SOL    HW2 4434   2.492   3.543   2.046
 1101SOL    HW3 4435   2.415   3.548   1.915
 1101SOL    MW4 4436   2.485   3.569   1.963
 1102SOL     OW 4437   2.487   3.827   1.832
 1102SOL    HW2 4438   2.410   3.857   1.880
 1102SOL    HW3 4439   2.507   3.742   1.871
 1102SOL    MW4 4440   2.479   3.819   1.844
 1103SOL     OW 4441   2.275   3.988   1.933
 1103SOL    HW2 4442   2.286   3.991   2.028
 1103SOL    HW3 4443   2.266   4.079   1.907
 1103SOL    MW4 4444   2.276   4.000   1.942
 1104SOL     OW 4445   2.234   4.237   1.832
 1104SOL    HW2 4446   2.305   4.301   1.841
 1104SOL    HW3 4447   2.230   4.218   1.739
 1104SOL    MW4 4448   2.243   4.243   1.821
 1105SOL     OW 4449   2.466   4.388   1.885
 1105SOL    HW2 4450   2.464   4.380   1.980
 1105SOL    HW3 4451   2.548   4.345   1.860
 1105SOL    MW4 4452   2.477   4.381   1.894
 1106SOL     OW 4453   2.907   4.616   1.876
 1106SOL    HW2 4454   2.987   4.666   1.894
 1106SOL    HW3 4455   2.934   4.525   1.882
 1106SOL    MW4 4456   2.921   4.611   1.879
 1107SOL     OW 4457   2.675   0.055   1.946
 1107SOL    HW2 4458   2.680   0.062   2.041
 1107SOL    HW3 4459   2.748  -0.002   1.922
 1107SOL    MW4 4460   2.685   0.049   1.955
 1108SOL     OW 4461   2.717   0.327   1.865
 1108SOL    HW2 4462   2.789   0.357   1.920
 1108SOL    HW3 4463   2.710   0.233   1.883
 1108SOL    MW4 4464   2.725   0.318   1.874
 1109SOL     OW 4465   2.922   0.465   1.992
 1109SOL    HW2 4466   3.003   0.429   1.956
 1109SOL    HW3 4467   2.927   0.559   1.971
 1109SOL    MW4 4468   2.934   0.473   1.984
 1110SOL     OW 4469   2.876   0.769   1.867
 1110SOL    HW2 4470   2.952   0.810   1.908
 1110SOL    HW3 4471   2.800   0.804   1.913
 1110SOL    MW4 4472   2.876   0.779   1.878
 1111SOL     OW 4473   2.660   0.895   1.969
 1111SOL    HW2 4474   2.684   0.958   1.901
 1111SOL    HW3 4475   2.576   0.860   1.941
 1111SOL    MW4 4476   2.652   0.899   1.956
 1112SOL     OW 4477   2.735   1.128   1.838
 1112SOL    HW2 4478   2.648   1.164   1.854
 1112SOL    HW3 4479   2.744   1.129   1.742
 1112SOL    MW4 4480   2.725   1.133   1.827
 1113SOL     OW 4481   2.945   1.233   1.971
 1113SOL    HW2 4482   2.936   1.321   1.934
 1113SOL    HW3 4483   2.867   1.187   1.943
 1113SOL    MW4 4484   2.934   1.238   1.963
 1114SOL     OW 4485   2.925   1.497   1.898
 1114SOL    HW2 4486   3.005   1.548   1.914
 1114SOL    HW3 4487   2.911   1.503   1.804
 1114SOL    MW4 4488   2.934   1.505   1.888
 1115SOL     OW 4489   2.704   1.635   1.990
 1115SOL    HW2 4490   2.785   1.585   1.983
 1115SOL    HW3 4491   2.639   1.583   1.943
 1115SOL    MW4 4492   2.706   1.622   1.983
 1116SOL     OW 4493   2.708   1.871   1.872
 1116SOL    HW2 4494   2.796   1.898   1.900
 1116SOL    HW3 4495   2.697   1.783   1.907
 1116SOL    MW4 4496   2.718   1.863   1.880
 1117SOL     OW 4497   2.930   2.016   1.969
 1117SOL    HW2 4498   2.942   2.025   2.063
 1117SOL    HW3 4499   3.013   1.980   1.937
 1117SOL    MW4 4500   2.943   2.012   1.977
 1118SOL     OW 4501   2.930   2.267   1.862
 1118SOL    HW2 4502   3.007   2.295   1.912
 1118SOL    HW3 4503   2.909   2.180   1.896
 1118SOL    MW4 4504   2.937   2.259   1.873
 1119SOL     OW 4505   2.690   2.421   1.938
 1119SOL    HW2 4506   2.698   2.510   1.904
 1119SOL    HW3 4507   2.762   2.373   1.897
 1119SOL    MW4 4508   2.700   2.426   1.928
 1120SOL     OW 4509   2.733   2.691   1.862
 1120SOL    HW2 4510   2.653   2.728   1.899
 1120SOL    HW3 4511   2.722   2.699   1.767
 1120SOL    MW4 4512   2.721   2.697   1.854
 1121SOL     OW 4513   2.952   2.810   1.971
 1121SOL    HW2 4514   2.927   2.898   1.941
 1121SOL    HW3 4515   2.880   2.754   1.943
 1121SOL    MW4 4516   2.939   2.814   1.963
 1122SOL     OW 4517   2.894   3.069   1.889
 1122SOL    HW2 4518   2.963   3.134   1.905
 1122SOL    HW3 4519   2.814   3.113   1.918
 1122SOL    MW4 4520   2.892   3.084   1.895
 1123SOL     OW 4521   2.678   3.228   1.930
 1123SOL    HW2 4522   2.688   3.313   1.888
 1123SOL    HW3 4523   2.604   3.188   1.883
 1123SOL    MW4 4524   2.670   3.234   1.918
 1124SOL     OW 4525   2.715   3.483   1.817
 1124SOL    HW2 4526   2.785   3.525   1.868
 1124SOL    HW3 4527   2.634   3.508   1.862
 1124SOL    MW4 4528   2.713   3.492   1.830
 1125SOL     OW 4529   2.909   3.597   1.959
 1125SOL    HW2 4530   2.904   3.597   2.055
 1125SOL    HW3 4531   2.994   3.556   1.941
 1125SOL    MW4 4532   2.920   3.591   1.970
 1126SOL     OW 4533   2.913   3.869   1.849
 1126SOL    HW2 4534   2.901   3.783   1.889
 1126SOL    HW3 4535   2.913   3.853   1.755
 1126SOL    MW4 4536   2.912   3.856   1.842
 1127SOL     OW 4537   2.690   4.008   1.925
 1127SOL    HW2 4538   2.775   3.971   1.904
 1127SOL    HW3 4539   2.627   3.948   1.886
 1127SOL    MW4 4540   2.693   3.995   1.917
 1128SOL     OW 4541   2.702   4.269   1.821
 1128SOL    HW2 4542   2.710   4.182   1.859
 1128SOL    HW3 4543   2.710   4.254   1.726
 1128SOL    MW4 4544   2.704   4.256   1.813
 1129SOL     OW 4545   2.946   4.347   1.918
 1129SOL    HW2 4546   2.955   4.351   2.014
 1129SOL    HW3 4547   2.855   4.323   1.904
 1129SOL    MW4 4548   2.935   4.344   1.929
 1130SOL     OW 4549   3.349   4.635   1.869
 1130SOL    HW2 4550   3.358   4.544   1.899
 1130SOL    HW3 4551   3.359   4.629   1.774
 1130SOL    MW4 4552   3.352   4.622   1.861
 1131SOL     OW 4553   3.128   0.098   1.963
 1131SOL    HW2 4554   3.134   0.113   2.057
 1131SOL    HW3 4555   3.209   0.052   1.941
 1131SOL    MW4 4556   3.139   0.094   1.973
 1132SOL     OW 4557   3.146   0.360   1.876
 1132SOL    HW2 4558   3.150   0.267   1.897
 1132SOL    HW3 4559   3.145   0.362   1.780
 1132SOL    MW4 4560   3.146   0.348   1.866
 1133SOL     OW 4561   3.387   0.531   1.955
 1133SOL    HW2 4562   3.463   0.479   1.930
 1133SOL    HW3 4563   3.312   0.474   1.936
 1133SOL    MW4 4564   3.387   0.517   1.949
 1134SOL     OW 4565   3.383   0.772   1.832
 1134SOL    HW2 4566   3.308   0.811   1.876
 1134SOL    HW3 4567   3.380   0.679   1.857
 1134SOL    MW4 4568   3.373   0.765   1.841
 1135SOL     OW 4569   3.126   0.845   1.959
 1135SOL    HW2 4570   3.143   0.846   2.053
 1135SOL    HW3 4571   3.137   0.937   1.932
 1135SOL    MW4 4572   3.130   0.857   1.968
 1136SOL     OW 4573   3.170   1.105   1.856
 1136SOL    HW2 4574   3.251   1.144   1.890
 1136SOL    HW3 4575   3.100   1.153   1.899
 1136SOL    MW4 4576   3.172   1.116   1.866
 1137SOL     OW 4577   3.382   1.240   1.980
 1137SOL    HW2 4578   3.364   1.249   2.074
 1137SOL    HW3 4579   3.377   1.330   1.947
 1137SOL    MW4 4580   3.379   1.253   1.988
 1138SOL     OW 4581   3.382   1.513   1.879
 1138SOL    HW2 4582   3.457   1.546   1.928
 1138SOL    HW3 4583   3.307   1.559   1.916
 1138SOL    MW4 4584   3.382   1.523   1.890
 1139SOL     OW 4585   3.145   1.627   1.973
 1139SOL    HW2 4586   3.135   1.642   2.067
 1139SOL    HW3 4587   3.123   1.711   1.933
 1139SOL    MW4 4588   3.141   1.640   1.980
 1140SOL     OW 4589   3.141   1.897   1.868
 1140SOL    HW2 4590   3.218   1.942   1.902
 1140SOL    HW3 4591   3.152   1.898   1.773
 1140SOL    MW4 4592   3.152   1.903   1.860
 1141SOL     OW 4593   3.371   2.005   1.948
 1141SOL    HW2 4594   3.445   1.964   1.903
 1141SOL    HW3 4595   3.375   2.097   1.922
 1141SOL    MW4 4596   3.381   2.011   1.938
 1142SOL     OW 4597   3.399   2.271   1.901
 1142SOL    HW2 4598   3.319   2.295   1.946
 1142SOL    HW3 4599   3.376   2.273   1.808
 1142SOL    MW4 4600   3.386   2.274   1.895
 1143SOL     OW 4601   3.132   2.382   1.989
 1143SOL    HW2 4602   3.120   2.402   2.082
 1143SOL    HW3 4603   3.143   2.467   1.947
 1143SOL    MW4 4604   3.132   2.396   1.996
 1144SOL     OW 4605   3.142   2.631   1.868
 1144SOL    HW2 4606   3.081   2.684   1.919
 1144SOL    HW3 4607   3.124   2.655   1.777
 1144SOL    MW4 4608   3.132   2.641   1.863
 1145SOL     OW 4609   3.326   2.840   1.965
 1145SOL    HW2 4610   3.307   2.832   2.059
 1145SOL    HW3 4611   3.277   2.768   1.926
 1145SOL    MW4 4612   3.317   2.829   1.972
 1146SOL     OW 4613   3.350   3.111   1.882
 1146SOL    HW2 4614   3.435   3.136   1.918
 1146SOL    HW3 4615   3.338   3.020   1.908
 1146SOL    MW4 4616   3.360   3.102   1.890
 1147SOL     OW 4617   3.108   3.208   1.961
 1147SOL    HW2 4618   3.104   3.302   1.945
 1147SOL    HW3 4619   3.196   3.182   1.933
 1147SOL    MW4 4620   3.119   3.217   1.955
 1148SOL     OW 4621   3.141   3.471   1.911
 1148SOL    HW2 4622   3.218   3.509   1.954
 1148SOL    HW3 4623   3.162   3.475   1.818
 1148SOL    MW4 4624   3.154   3.477   1.905
 1149SOL     OW 4625   3.368   3.648   1.974
 1149SOL    HW2 4626   3.451   3.601   1.962
 1149SOL    HW3 4627   3.377   3.726   1.920
 1149SOL    MW4 4628   3.380   3.652   1.965
 1150SOL     OW 4629   3.441   3.887   1.828
 1150SOL    HW2 4630   3.359   3.927   1.858
 1150SOL    HW3 4631   3.433   3.884   1.733
 1150SOL    MW4 4632   3.429   3.891   1.820
 1151SOL     OW 4633   3.191   3.982   1.920
 1151SOL    HW2 4634   3.172   4.007   2.010
 1151SOL    HW3 4635   3.110   3.941   1.889
 1151SOL    MW4 4636   3.178   3.980   1.928
 1152SOL     OW 4637   3.154   4.224   1.808
 1152SOL    HW2 4638   3.155   4.131   1.830
 1152SOL    HW3 4639   3.077   4.259   1.853
 1152SOL    MW4 4640   3.144   4.217   1.817
 1153SOL     OW 4641   3.358   4.371   1.951
 1153SOL    HW2 4642   3.447   4.349   1.924
 1153SOL    HW3 4643   3.303   4.304   1.911
 1153SOL    MW4 4644   3.363   4.359   1.942
 1154SOL     OW 4645   3.820   0.003   1.864
 1154SOL    HW2 4646   3.834  -0.090   1.884
 1154SOL    HW3 4647   3.732   0.022   1.897
 1154SOL    MW4 4648   3.810  -0.007   1.871
 1155SOL     OW 4649   3.584   0.080   1.958
 1155SOL    HW2 4650   3.589   0.071   2.054
 1155SOL    HW3 4651   3.500   0.041   1.935
 1155SOL    MW4 4652   3.573   0.073   1.968
 1156SOL     OW 4653   3.632   0.372   1.866
 1156SOL    HW2 4654   3.637   0.277   1.880
 1156SOL    HW3 4655   3.624   0.381   1.771
 1156SOL    MW4 4656   3.632   0.360   1.855
 1157SOL     OW 4657   3.823   0.515   1.996
 1157SOL    HW2 4658   3.827   0.609   1.978
 1157SOL    HW3 4659   3.751   0.483   1.943
 1157SOL    MW4 4660   3.814   0.523   1.986
 1158SOL     OW 4661   3.825   0.768   1.890
 1158SOL    HW2 4662   3.754   0.830   1.905
 1158SOL    HW3 4663   3.825   0.753   1.796
 1158SOL    MW4 4664   3.816   0.774   1.880
 1159SOL     OW 4665   3.587   0.905   1.956
 1159SOL    HW2 4666   3.592   0.996   1.928
 1159SOL    HW3 4667   3.526   0.864   1.895
 1159SOL    MW4 4668   3.580   0.911   1.945
 1160SOL     OW 4669   3.611   1.165   1.879
 1160SOL    HW2 4670   3.526   1.189   1.917
 1160SOL    HW3 4671   3.594   1.158   1.785
 1160SOL    MW4 4672   3.597   1.167   1.872
 1161SOL     OW 4673   3.848   1.270   1.953
 1161SOL    HW2 4674   3.835   1.270   2.048
 1161SOL    HW3 4675   3.764   1.241   1.918
 1161SOL    MW4 4676   3.835   1.267   1.961
 1162SOL     OW 4677   3.844   1.511   1.856
 1162SOL    HW2 4678   3.928   1.549   1.881
 1162SOL    HW3 4679   3.844   1.423   1.895
 1162SOL    MW4 4680   3.855   1.504   1.865
 1163SOL     OW 4681   3.606   1.654   1.963
 1163SOL    HW2 4682   3.608   1.741   1.923
 1163SOL    HW3 4683   3.691   1.616   1.940
 1163SOL    MW4 4684   3.618   1.660   1.955
 1164SOL     OW 4685   3.576   1.891   1.824
 1164SOL    HW2 4686   3.646   1.938   1.869
 1164SOL    HW3 4687   3.586   1.917   1.732
 1164SOL    MW4 4688   3.587   1.901   1.818
 1165SOL     OW 4689   3.795   2.023   1.956
 1165SOL    HW2 4690   3.862   1.980   1.903
 1165SOL    HW3 4691   3.784   2.109   1.917
 1165SOL    MW4 4692   3.803   2.029   1.944
 1166SOL     OW 4693   3.826   2.273   1.848
 1166SOL    HW2 4694   3.900   2.310   1.895
 1166SOL    HW3 4695   3.753   2.331   1.870
 1166SOL    MW4 4696   3.826   2.286   1.857
 1167SOL     OW 4697   3.608   2.433   1.950
 1167SOL    HW2 4698   3.581   2.523   1.935
 1167SOL    HW3 4699   3.533   2.380   1.923
 1167SOL    MW4 4700   3.595   2.438   1.945
 1168SOL     OW 4701   3.546   2.698   1.887
 1168SOL    HW2 4702   3.626   2.746   1.908
 1168SOL    HW3 4703   3.475   2.758   1.910
 1168SOL    MW4 4704   3.547   2.712   1.893
 1169SOL     OW 4705   3.785   2.809   1.972
 1169SOL    HW2 4706   3.773   2.810   2.067
 1169SOL    HW3 4707   3.804   2.899   1.949
 1169SOL    MW4 4708   3.786   2.821   1.982
 1170SOL     OW 4709   3.832   3.071   1.877
 1170SOL    HW2 4710   3.746   3.107   1.899
 1170SOL    HW3 4711   3.841   3.084   1.783
 1170SOL    MW4 4712   3.822   3.078   1.868
 1171SOL     OW 4713   3.606   3.204   1.983
 1171SOL    HW2 4714   3.600   3.186   2.077
 1171SOL    HW3 4715   3.591   3.299   1.977
 1171SOL    MW4 4716   3.603   3.214   1.995
 1172SOL     OW 4717   3.590   3.485   1.909
 1172SOL    HW2 4718   3.674   3.526   1.927
 1172SOL    HW3 4719   3.584   3.483   1.814
 1172SOL    MW4 4720   3.600   3.490   1.899
 1173SOL     OW 4721   3.851   3.567   1.952
 1173SOL    HW2 4722   3.932   3.528   1.919
 1173SOL    HW3 4723   3.851   3.656   1.916
 1173SOL    MW4 4724   3.862   3.573   1.943
 1174SOL     OW 4725   3.818   3.845   1.881
 1174SOL    HW2 4726   3.757   3.909   1.918
 1174SOL    HW3 4727   3.799   3.845   1.787
 1174SOL    MW4 4728   3.807   3.853   1.874
 1175SOL     OW 4729   3.640   4.027   1.967
 1175SOL    HW2 4730   3.616   4.011   2.058
 1175SOL    HW3 4731   3.574   3.980   1.916
 1175SOL    MW4 4732   3.628   4.019   1.972
 1176SOL     OW 4733   3.634   4.279   1.855
 1176SOL    HW2 4734   3.718   4.312   1.886
 1176SOL    HW3 4735   3.638   4.184   1.872
 1176SOL    MW4 4736   3.645   4.271   1.861
 1177SOL     OW 4737   3.855   4.404   1.931
 1177SOL    HW2 4738   3.846   4.398   2.026
 1177SOL    HW3 4739   3.919   4.336   1.908
 1177SOL    MW4 4740   3.862   4.394   1.940
 1178SOL     OW 4741   4.274   4.622   1.898
 1178SOL    HW2 4742   4.207   4.680   1.935
 1178SOL    HW3 4743   4.357   4.666   1.916
 1178SOL    MW4 4744   4.276   4.636   1.906
 1179SOL     OW 4745   4.054   0.101   1.974
 1179SOL    HW2 4746   4.043   0.105   2.069
 1179SOL    HW3 4747   3.979   0.050   1.944
 1179SOL    MW4 4748   4.043   0.095   1.983
 1180SOL     OW 4749   4.003   0.354   1.867
 1180SOL    HW2 4750   3.980   0.267   1.900
 1180SOL    HW3 4751   3.955   0.414   1.922
 1180SOL    MW4 4752   3.994   0.350   1.878
 1181SOL     OW 4753   4.247   0.501   1.942
 1181SOL    HW2 4754   4.228   0.514   2.035
 1181SOL    HW3 4755   4.187   0.431   1.916
 1181SOL    MW4 4756   4.236   0.493   1.951
 1182SOL     OW 4757   4.239   0.739   1.817
 1182SOL    HW2 4758   4.242   0.660   1.872
 1182SOL    HW3 4759   4.237   0.705   1.727
 1182SOL    MW4 4760   4.239   0.724   1.812
 1183SOL     OW 4761   4.054   0.908   1.924
 1183SOL    HW2 4762   4.115   0.853   1.874
 1183SOL    HW3 4763   3.974   0.856   1.929
 1183SOL    MW4 4764   4.051   0.894   1.918
 1184SOL     OW 4765   4.034   1.152   1.806
 1184SOL    HW2 4766   4.042   1.065   1.844
 1184SOL    HW3 4767   3.973   1.199   1.863
 1184SOL    MW4 4768   4.027   1.147   1.818
 1185SOL     OW 4769   4.273   1.248   1.898
 1185SOL    HW2 4770   4.264   1.246   1.993
 1185SOL    HW3 4771   4.189   1.215   1.866
 1185SOL    MW4 4772   4.261   1.244   1.906
 1186SOL     OW 4773   4.320   1.505   1.846
 1186SOL    HW2 4774   4.292   1.419   1.877
 1186SOL    HW3 4775   4.286   1.510   1.756
 1186SOL    MW4 4776   4.312   1.494   1.838
 1187SOL     OW 4777   4.066   1.641   1.934
 1187SOL    HW2 4778   4.058   1.636   2.029
 1187SOL    HW3 4779   4.151   1.602   1.914
 1187SOL    MW4 4780   4.076   1.635   1.944
 1188SOL     OW 4781   4.018   1.905   1.847
 1188SOL    HW2 4782   4.046   1.819   1.879
 1188SOL    HW3 4783   4.023   1.898   1.752
 1188SOL    MW4 4784   4.023   1.892   1.839
 1189SOL     OW 4785   4.262   2.030   1.928
 1189SOL    HW2 4786   4.249   2.025   2.023
 1189SOL    HW3 4787   4.182   1.991   1.891
 1189SOL    MW4 4788   4.250   2.024   1.936
 1190SOL     OW 4789   4.286   2.289   1.879
 1190SOL    HW2 4790   4.295   2.196   1.899
 1190SOL    HW3 4791   4.341   2.333   1.943
 1190SOL    MW4 4792   4.295   2.283   1.890
 1191SOL     OW 4793   4.035   2.400   1.960
 1191SOL    HW2 4794   4.035   2.402   2.056
 1191SOL    HW3 4795   4.116   2.355   1.937
 1191SOL    MW4 4796   4.046   2.394   1.970
 1192SOL     OW 4797   4.036   2.659   1.857
 1192SOL    HW2 4798   4.030   2.573   1.900
 1192SOL    HW3 4799   3.974   2.714   1.905
 1192SOL    MW4 4800   4.027   2.655   1.869
 1193SOL     OW 4801   4.260   2.822   1.926
 1193SOL    HW2 4802   4.257   2.830   2.021
 1193SOL    HW3 4803   4.193   2.756   1.906
 1193SOL    MW4 4804   4.250   2.814   1.936
 1194SOL     OW 4805   4.308   3.085   1.863
 1194SOL    HW2 4806   4.225   3.124   1.891
 1194SOL    HW3 4807   4.302   2.993   1.891
 1194SOL    MW4 4808   4.296   3.078   1.870
 1195SOL     OW 4809   4.077   3.195   1.969
 1195SOL    HW2 4810   4.078   3.215   2.063
 1195SOL    HW3 4811   3.991   3.158   1.953
 1195SOL    MW4 4812   4.066   3.193   1.979
 1196SOL     OW 4813   4.063   3.432   1.831
 1196SOL    HW2 4814   4.142   3.477   1.862
 1196SOL    HW3 4815   4.066   3.347   1.874
 1196SOL    MW4 4816   4.074   3.427   1.841
 1197SOL     OW 4817   4.262   3.578   1.969
 1197SOL    HW2 4818   4.246   3.659   1.922
 1197SOL    HW3 4819   4.347   3.547   1.936
 1197SOL    MW4 4820   4.271   3.584   1.959
 1198SOL     OW 4821   4.279   3.830   1.844
 1198SOL    HW2 4822   4.347   3.889   1.876
 1198SOL    HW3 4823   4.279   3.842   1.749
 1198SOL    MW4 4824   4.288   3.839   1.836
 1199SOL     OW 4825   4.050   3.984   1.926
 1199SOL    HW2 4826   4.121   3.920   1.914
 1199SOL    HW3 4827   3.970   3.933   1.912
 1199SOL    MW4 4828   4.049   3.969   1.923
 1200SOL     OW 4829   4.046   4.233   1.831
 1200SOL    HW2 4830   4.126   4.266   1.873
 1200SOL    HW3 4831   4.041   4.141   1.858
 1200SOL    MW4 4832   4.056   4.225   1.840
 1201SOL     OW 4833   4.261   4.342   1.972
 1201SOL    HW2 4834   4.273   4.327   2.066
 1201SOL    HW3 4835   4.238   4.435   1.966
 1201SOL    MW4 4836   4.260   4.352   1.984
 1202SOL     OW 4837   0.237   0.022   2.334
 1202SOL    HW2 4838   0.247   0.004   2.427
 1202SOL    HW3 4839   0.314   0.074   2.311
 1202SOL    MW4 4840   0.249   0.026   2.343
 1203SOL     OW 4841   4.470   0.115   2.242
 1203SOL    HW2 4842   4.554   0.089   2.282
 1203SOL    HW3 4843   4.486   0.109   2.148
 1203SOL    MW4 4844   4.483   0.111   2.235
 1204SOL     OW 4845   4.455   0.386   2.334
 1204SOL    HW2 4846   4.539   0.423   2.308
 1204SOL    HW3 4847   4.449   0.303   2.286
 1204SOL    MW4 4848   4.465   0.380   2.324
 1205SOL     OW 4849   0.214   0.476   2.249
 1205SOL    HW2 4850   0.277   0.417   2.291
 1205SOL    HW3 4851   0.233   0.470   2.156
 1205SOL    MW4 4852   0.225   0.467   2.243
 1206SOL     OW 4853   0.227   0.763   2.282
 1206SOL    HW2 4854   0.236   0.772   2.377
 1206SOL    HW3 4855   0.216   0.670   2.267
 1206SOL    MW4 4856   0.227   0.752   2.292
 1207SOL     OW 4857   4.452   0.872   2.230
 1207SOL    HW2 4858   4.541   0.840   2.248
 1207SOL    HW3 4859   4.443   0.866   2.135
 1207SOL    MW4 4860   4.462   0.867   2.220
 1208SOL     OW 4861   4.444   1.128   2.338
 1208SOL    HW2 4862   4.476   1.129   2.428
 1208SOL    HW3 4863   4.433   1.035   2.317
 1208SOL    MW4 4864   4.447   1.116   2.347
 1209SOL     OW 4865   0.193   1.249   2.225
 1209SOL    HW2 4866   0.103   1.222   2.243
 1209SOL    HW3 4867   0.197   1.258   2.130
 1209SOL    MW4 4868   0.182   1.246   2.215
 1210SOL     OW 4869   0.242   1.533   2.328
 1210SOL    HW2 4870   0.222   1.531   2.422
 1210SOL    HW3 4871   0.230   1.443   2.299
 1210SOL    MW4 4872   0.237   1.521   2.337
 1211SOL     OW 4873   4.488   1.670   2.253
 1211SOL    HW2 4874   4.483   1.756   2.294
 1211SOL    HW3 4875   4.564   1.628   2.293
 1211SOL    MW4 4876   4.498   1.675   2.263
 1212SOL     OW 4877   4.489   1.939   2.371
 1212SOL    HW2 4878   4.423   1.979   2.313
 1212SOL    HW3 4879   4.573   1.965   2.333
 1212SOL    MW4 4880   4.492   1.948   2.358
 1213SOL     OW 4881   0.234   2.055   2.295
 1213SOL    HW2 4882   0.325   2.024   2.304
 1213SOL    HW3 4883   0.221   2.065   2.201
 1213SOL    MW4 4884   0.245   2.052   2.284
 1214SOL     OW 4885   0.222   2.348   2.324
 1214SOL    HW2 4886   0.215   2.342   2.419
 1214SOL    HW3 4887   0.220   2.257   2.294
 1214SOL    MW4 4888   0.221   2.335   2.332
 1215SOL     OW 4889   4.462   2.443   2.285
 1215SOL    HW2 4890   4.472   2.536   2.309
 1215SOL    HW3 4891   4.549   2.405   2.301
 1215SOL    MW4 4892   4.475   2.450   2.291
 1216SOL     OW 4893   4.464   2.719   2.339
 1216SOL    HW2 4894   4.456   2.748   2.430
 1216SOL    HW3 4895   4.549   2.752   2.311
 1216SOL    MW4 4896   4.474   2.727   2.347
 1217SOL     OW 4897   0.208   2.848   2.243
 1217SOL    HW2 4898   0.290   2.806   2.267
 1217SOL    HW3 4899   0.198   2.831   2.150
 1217SOL    MW4 4900   0.217   2.840   2.234
 1218SOL     OW 4901   0.246   3.100   2.365
 1218SOL    HW2 4902   0.167   3.149   2.345
 1218SOL    HW3 4903   0.221   3.008   2.355
 1218SOL    MW4 4904   0.232   3.094   2.361
 1219SOL     OW 4905   0.025   3.224   2.270
 1219SOL    HW2 4906   0.012   3.314   2.298
 1219SOL    HW3 4907   0.043   3.230   2.176
 1219SOL    MW4 4908   0.026   3.236   2.262
 1220SOL     OW 4909   4.484   3.478   2.349
 1220SOL    HW2 4910   4.466   3.477   2.443
 1220SOL    HW3 4911   4.406   3.517   2.309
 1220SOL    MW4 4912   4.472   3.483   2.356
 1221SOL     OW 4913   0.230   3.579   2.250
 1221SOL    HW2 4914   0.305   3.540   2.295
 1221SOL    HW3 4915   0.154   3.538   2.291
 1221SOL    MW4 4916   0.230   3.568   2.262
 1222SOL     OW 4917   0.240   3.830   2.356
 1222SOL    HW2 4918   0.154   3.854   2.324
 1222SOL    HW3 4919   0.257   3.744   2.319
 1222SOL    MW4 4920   0.231   3.822   2.347
 1223SOL     OW 4921   0.016   3.980   2.250
 1223SOL    HW2 4922   0.027   4.075   2.263
 1223SOL    HW3 4923   0.009   3.971   2.155
 1223SOL    MW4 4924   0.017   3.992   2.239
 1224SOL     OW 4925   0.017   4.251   2.339
 1224SOL    HW2 4926   0.020   4.261   2.434
 1224SOL    HW3 4927   0.067   4.325   2.305
 1224SOL    MW4 4928   0.024   4.262   2.347
 1225SOL     OW 4929   0.186   4.439   2.235
 1225SOL    HW2 4930   0.265   4.390   2.259
 1225SOL    HW3 4931   0.204   4.528   2.266
 1225SOL    MW4 4932   0.199   4.445   2.243
 1226SOL     OW 4933   0.689   4.602   2.337
 1226SOL    HW2 4934   0.694   4.635   2.427
 1226SOL    HW3 4935   0.762   4.644   2.292
 1226SOL    MW4 4936   0.699   4.612   2.343
 1227SOL     OW 4937   0.495   0.097   2.223
 1227SOL    HW2 4938   0.556   0.028   2.252
 1227SOL    HW3 4939   0.478   0.076   2.131
 1227SOL    MW4 4940   0.501   0.085   2.214
 1228SOL     OW 4941   0.426   0.337   2.345
 1228SOL    HW2 4942   0.457   0.331   2.435
 1228SOL    HW3 4943   0.457   0.256   2.303
 1228SOL    MW4 4944   0.434   0.325   2.351
 1229SOL     OW 4945   0.647   0.458   2.224
 1229SOL    HW2 4946   0.659   0.553   2.233
 1229SOL    HW3 4947   0.564   0.440   2.268
 1229SOL    MW4 4948   0.637   0.468   2.231
 1230SOL     OW 4949   0.647   0.720   2.261
 1230SOL    HW2 4950   0.639   0.719   2.356
 1230SOL    HW3 4951   0.586   0.788   2.232
 1230SOL    MW4 4952   0.638   0.729   2.270
 1231SOL     OW 4953   0.454   0.894   2.181
 1231SOL    HW2 4954   0.381   0.840   2.210
 1231SOL    HW3 4955   0.445   0.897   2.085
 1231SOL    MW4 4956   0.444   0.887   2.172
 1232SOL     OW 4957   0.423   1.149   2.300
 1232SOL    HW2 4958   0.422   1.065   2.253
 1232SOL    HW3 4959   0.335   1.185   2.285
 1232SOL    MW4 4960   0.411   1.143   2.292
 1233SOL     OW 4961   0.664   1.291   2.234
 1233SOL    HW2 4962   0.659   1.379   2.270
 1233SOL    HW3 4963   0.576   1.254   2.247
 1233SOL    MW4 4964   0.651   1.298   2.240
 1234SOL     OW 4965   0.662   1.547   2.342
 1234SOL    HW2 4966   0.668   1.562   2.437
 1234SOL    HW3 4967   0.746   1.577   2.307
 1234SOL    MW4 4968   0.674   1.553   2.350
 1235SOL     OW 4969   0.448   1.684   2.250
 1235SOL    HW2 4970   0.521   1.640   2.294
 1235SOL    HW3 4971   0.370   1.637   2.281
 1235SOL    MW4 4972   0.447   1.672   2.260
 1236SOL     OW 4973   0.492   1.950   2.319
 1236SOL    HW2 4974   0.575   1.985   2.287
 1236SOL    HW3 4975   0.480   1.868   2.270
 1236SOL    MW4 4976   0.501   1.944   2.308
 1237SOL     OW 4977   0.723   2.031   2.205
 1237SOL    HW2 4978   0.787   1.981   2.256
 1237SOL    HW3 4979   0.728   2.119   2.243
 1237SOL    MW4 4980   0.732   2.036   2.217
 1238SOL     OW 4981   0.703   2.292   2.293
 1238SOL    HW2 4982   0.687   2.280   2.387
 1238SOL    HW3 4983   0.790   2.331   2.288
 1238SOL    MW4 4984   0.712   2.295   2.305
 1239SOL     OW 4985   0.459   2.438   2.226
 1239SOL    HW2 4986   0.537   2.399   2.265
 1239SOL    HW3 4987   0.386   2.400   2.275
 1239SOL    MW4 4988   0.460   2.428   2.238
 1240SOL     OW 4989   0.436   2.722   2.310
 1240SOL    HW2 4990   0.440   2.721   2.405
 1240SOL    HW3 4991   0.437   2.629   2.285
 1240SOL    MW4 4992   0.436   2.710   2.319
 1241SOL     OW 4993   0.685   2.845   2.270
 1241SOL    HW2 4994   0.753   2.785   2.301
 1241SOL    HW3 4995   0.605   2.793   2.272
 1241SOL    MW4 4996   0.683   2.830   2.275
 1242SOL     OW 4997   0.691   3.106   2.343
 1242SOL    HW2 4998   0.613   3.143   2.302
 1242SOL    HW3 4999   0.687   3.012   2.322
 1242SOL    MW4 5000   0.680   3.098   2.335
 1243SOL     OW 5001   0.454   3.229   2.242
 1243SOL    HW2 5002   0.387   3.170   2.277
 1243SOL    HW3 5003   0.457   3.209   2.148
 1243SOL    MW4 5004   0.446   3.219   2.234
 1244SOL     OW 5005   0.454   3.467   2.393
 1244SOL    HW2 5006   0.528   3.507   2.346
 1244SOL    HW3 5007   0.441   3.383   2.349
 1244SOL    MW4 5008   0.462   3.461   2.381
 1245SOL     OW 5009   0.658   3.624   2.261
 1245SOL    HW2 5010   0.648   3.718   2.275
 1245SOL    HW3 5011   0.677   3.616   2.168
 1245SOL    MW4 5012   0.659   3.635   2.251
 1246SOL     OW 5013   0.663   3.882   2.352
 1246SOL    HW2 5014   0.656   3.877   2.447
 1246SOL    HW3 5015   0.593   3.943   2.325
 1246SOL    MW4 5016   0.652   3.889   2.361
 1247SOL     OW 5017   0.410   4.017   2.256
 1247SOL    HW2 5018   0.353   3.951   2.294
 1247SOL    HW3 5019   0.415   3.994   2.163
 1247SOL    MW4 5020   0.403   4.006   2.249
 1248SOL     OW 5021   0.407   4.279   2.336
 1248SOL    HW2 5022   0.488   4.316   2.304
 1248SOL    HW3 5023   0.408   4.188   2.305
 1248SOL    MW4 5024   0.418   4.272   2.328
 1249SOL     OW 5025   0.654   4.365   2.219
 1249SOL    HW2 5026   0.671   4.450   2.259
 1249SOL    HW3 5027   0.675   4.378   2.126
 1249SOL    MW4 5028   0.659   4.378   2.212
 1250SOL     OW 5029   1.123   4.626   2.365
 1250SOL    HW2 5030   1.125   4.638   2.460
 1250SOL    HW3 5031   1.043   4.671   2.337
 1250SOL    MW4 5032   1.113   4.634   2.374
 1251SOL     OW 5033   0.904   0.073   2.242
 1251SOL    HW2 5034   0.889   0.163   2.273
 1251SOL    HW3 5035   0.892   0.079   2.147
 1251SOL    MW4 5036   0.900   0.086   2.234
 1252SOL     OW 5037   0.894   0.354   2.296
 1252SOL    HW2 5038   0.969   0.407   2.269
 1252SOL    HW3 5039   0.818   0.403   2.265
 1252SOL    MW4 5040   0.894   0.368   2.288
 1253SOL     OW 5041   1.107   0.505   2.238
 1253SOL    HW2 5042   1.167   0.443   2.280
 1253SOL    HW3 5043   1.135   0.508   2.147
 1253SOL    MW4 5044   1.118   0.497   2.231
 1254SOL     OW 5045   1.108   0.756   2.344
 1254SOL    HW2 5046   1.040   0.801   2.294
 1254SOL    HW3 5047   1.103   0.665   2.313
 1254SOL    MW4 5048   1.098   0.750   2.333
 1255SOL     OW 5049   0.882   0.857   2.233
 1255SOL    HW2 5050   0.868   0.947   2.262
 1255SOL    HW3 5051   0.809   0.807   2.271
 1255SOL    MW4 5052   0.870   0.862   2.242
 1256SOL     OW 5053   0.856   1.129   2.329
 1256SOL    HW2 5054   0.933   1.169   2.287
 1256SOL    HW3 5055   0.783   1.184   2.302
 1256SOL    MW4 5056   0.857   1.142   2.320
 1257SOL     OW 5057   1.098   1.235   2.218
 1257SOL    HW2 5058   1.173   1.182   2.246
 1257SOL    HW3 5059   1.109   1.243   2.124
 1257SOL    MW4 5060   1.110   1.229   2.210
 1258SOL     OW 5061   1.119   1.507   2.325
 1258SOL    HW2 5062   1.048   1.556   2.284
 1258SOL    HW3 5063   1.108   1.418   2.294
 1258SOL    MW4 5064   1.108   1.502   2.316
 1259SOL     OW 5065   0.888   1.648   2.230
 1259SOL    HW2 5066   0.923   1.726   2.272
 1259SOL    HW3 5067   0.904   1.661   2.137
 1259SOL    MW4 5068   0.894   1.660   2.223
 1260SOL     OW 5069   0.920   1.905   2.352
 1260SOL    HW2 5070   0.927   1.889   2.446
 1260SOL    HW3 5071   0.993   1.962   2.331
 1260SOL    MW4 5072   0.930   1.911   2.362
 1261SOL     OW 5073   1.149   2.045   2.299
 1261SOL    HW2 5074   1.224   2.000   2.337
 1261SOL    HW3 5075   1.154   2.024   2.205
 1261SOL    MW4 5076   1.160   2.036   2.291
 1262SOL     OW 5077   1.141   2.295   2.383
 1262SOL    HW2 5078   1.219   2.338   2.349
 1262SOL    HW3 5079   1.139   2.210   2.339
 1262SOL    MW4 5080   1.151   2.289   2.373
 1263SOL     OW 5081   0.941   2.433   2.234
 1263SOL    HW2 5082   1.027   2.398   2.258
 1263SOL    HW3 5083   0.934   2.419   2.140
 1263SOL    MW4 5084   0.952   2.427   2.225
 1264SOL     OW 5085   0.909   2.681   2.360
 1264SOL    HW2 5086   0.890   2.670   2.453
 1264SOL    HW3 5087   0.927   2.593   2.328
 1264SOL    MW4 5088   0.909   2.668   2.368
 1265SOL     OW 5089   1.114   2.834   2.263
 1265SOL    HW2 5090   1.198   2.803   2.296
 1265SOL    HW3 5091   1.049   2.779   2.306
 1265SOL    MW4 5092   1.117   2.823   2.273
 1266SOL     OW 5093   1.118   3.096   2.344
 1266SOL    HW2 5094   1.043   3.144   2.311
 1266SOL    HW3 5095   1.110   3.009   2.306
 1266SOL    MW4 5096   1.107   3.091   2.335
 1267SOL     OW 5097   0.898   3.259   2.255
 1267SOL    HW2 5098   0.898   3.350   2.286
 1267SOL    HW3 5099   0.813   3.224   2.283
 1267SOL    MW4 5100   0.887   3.267   2.263
 1268SOL     OW 5101   0.913   3.528   2.321
 1268SOL    HW2 5102   0.919   3.537   2.416
 1268SOL    HW3 5103   0.825   3.557   2.299
 1268SOL    MW4 5104   0.902   3.533   2.330
 1269SOL     OW 5105   1.135   3.633   2.214
 1269SOL    HW2 5106   1.193   3.574   2.261
 1269SOL    HW3 5107   1.046   3.604   2.237
 1269SOL    MW4 5108   1.131   3.621   2.223
 1270SOL     OW 5109   1.122   3.923   2.314
 1270SOL    HW2 5110   1.199   3.974   2.290
 1270SOL    HW3 5111   1.129   3.842   2.263
 1270SOL    MW4 5112   1.133   3.919   2.304
 1271SOL     OW 5113   0.866   4.007   2.248
 1271SOL    HW2 5114   0.950   3.967   2.268
 1271SOL    HW3 5115   0.801   3.951   2.290
 1271SOL    MW4 5116   0.869   3.995   2.256
 1272SOL     OW 5117   0.877   4.250   2.360
 1272SOL    HW2 5118   0.888   4.163   2.322
 1272SOL    HW3 5119   0.801   4.286   2.313
 1272SOL    MW4 5120   0.868   4.243   2.349
 1273SOL     OW 5121   1.087   4.387   2.238
 1273SOL    HW2 5122   1.008   4.358   2.284
 1273SOL    HW3 5123   1.114   4.467   2.285
 1273SOL    MW4 5124   1.080   4.394   2.251
 1274SOL     OW 5125   1.530   4.644   2.332
 1274SOL    HW2 5126   1.593   4.696   2.283
 1274SOL    HW3 5127   1.445   4.682   2.310
 1274SOL    MW4 5128   1.527   4.656   2.322
 1275SOL     OW 5129   1.322   0.111   2.208
 1275SOL    HW2 5130   1.340   0.196   2.247
 1275SOL    HW3 5131   1.264   0.067   2.270
 1275SOL    MW4 5132   1.317   0.116   2.221
 1276SOL     OW 5133   1.337   0.354   2.327
 1276SOL    HW2 5134   1.344   0.361   2.422
 1276SOL    HW3 5135   1.418   0.393   2.294
 1276SOL    MW4 5136   1.349   0.360   2.335
 1277SOL     OW 5137   1.553   0.472   2.237
 1277SOL    HW2 5138   1.631   0.417   2.233
 1277SOL    HW3 5139   1.530   0.488   2.145
 1277SOL    MW4 5140   1.560   0.467   2.224
 1278SOL     OW 5141   1.590   0.721   2.392
 1278SOL    HW2 5142   1.666   0.765   2.353
 1278SOL    HW3 5143   1.583   0.638   2.346
 1278SOL    MW4 5144   1.599   0.716   2.381
 1279SOL     OW 5145   1.370   0.830   2.263
 1279SOL    HW2 5146   1.443   0.780   2.300
 1279SOL    HW3 5147   1.291   0.788   2.299
 1279SOL    MW4 5148   1.369   0.818   2.273
 1280SOL     OW 5149   1.344   1.098   2.290
 1280SOL    HW2 5150   1.353   1.133   2.379
 1280SOL    HW3 5151   1.350   1.004   2.300
 1280SOL    MW4 5152   1.346   1.090   2.303
 1281SOL     OW 5153   1.607   1.182   2.216
 1281SOL    HW2 5154   1.526   1.140   2.243
 1281SOL    HW3 5155   1.594   1.203   2.124
 1281SOL    MW4 5156   1.595   1.179   2.208
 1282SOL     OW 5157   1.560   1.473   2.307
 1282SOL    HW2 5158   1.643   1.509   2.275
 1282SOL    HW3 5159   1.568   1.379   2.295
 1282SOL    MW4 5160   1.572   1.465   2.301
 1283SOL     OW 5161   1.360   1.650   2.251
 1283SOL    HW2 5162   1.438   1.601   2.279
 1283SOL    HW3 5163   1.287   1.602   2.289
 1283SOL    MW4 5164   1.361   1.637   2.260
 1284SOL     OW 5165   1.392   1.910   2.382
 1284SOL    HW2 5166   1.463   1.954   2.335
 1284SOL    HW3 5167   1.381   1.826   2.336
 1284SOL    MW4 5168   1.400   1.905   2.369
 1285SOL     OW 5169   1.568   2.069   2.217
 1285SOL    HW2 5170   1.652   2.029   2.240
 1285SOL    HW3 5171   1.554   2.045   2.126
 1285SOL    MW4 5172   1.577   2.060   2.208
 1286SOL     OW 5173   1.597   2.336   2.346
 1286SOL    HW2 5174   1.591   2.329   2.441
 1286SOL    HW3 5175   1.582   2.247   2.315
 1286SOL    MW4 5176   1.594   2.323   2.355
 1287SOL     OW 5177   1.353   2.430   2.264
 1287SOL    HW2 5178   1.435   2.398   2.300
 1287SOL    HW3 5179   1.368   2.435   2.170
 1287SOL    MW4 5180   1.366   2.426   2.256
 1288SOL     OW 5181   1.356   2.687   2.357
 1288SOL    HW2 5182   1.436   2.732   2.328
 1288SOL    HW3 5183   1.362   2.600   2.318
 1288SOL    MW4 5184   1.367   2.682   2.348
 1289SOL     OW 5185   1.575   2.841   2.248
 1289SOL    HW2 5186   1.575   2.928   2.288
 1289SOL    HW3 5187   1.595   2.856   2.156
 1289SOL    MW4 5188   1.577   2.855   2.241
 1290SOL     OW 5189   1.573   3.101   2.326
 1290SOL    HW2 5190   1.567   3.086   2.420
 1290SOL    HW3 5191   1.487   3.137   2.303
 1290SOL    MW4 5192   1.561   3.104   2.335
 1291SOL     OW 5193   1.331   3.239   2.255
 1291SOL    HW2 5194   1.254   3.191   2.285
 1291SOL    HW3 5195   1.332   3.225   2.160
 1291SOL    MW4 5196   1.321   3.231   2.246
 1292SOL     OW 5197   1.352   3.499   2.307
 1292SOL    HW2 5198   1.352   3.497   2.403
 1292SOL    HW3 5199   1.327   3.410   2.282
 1292SOL    MW4 5200   1.349   3.487   2.317
 1293SOL     OW 5201   1.584   3.583   2.199
 1293SOL    HW2 5202   1.559   3.672   2.227
 1293SOL    HW3 5203   1.510   3.528   2.227
 1293SOL    MW4 5204   1.571   3.588   2.206
 1294SOL     OW 5205   1.561   3.828   2.311
 1294SOL    HW2 5206   1.550   3.832   2.406
 1294SOL    HW3 5207   1.641   3.878   2.294
 1294SOL    MW4 5208   1.570   3.835   2.322
 1295SOL     OW 5209   1.361   4.007   2.221
 1295SOL    HW2 5210   1.424   3.940   2.248
 1295SOL    HW3 5211   1.370   4.011   2.126
 1295SOL    MW4 5212   1.370   3.998   2.212
 1296SOL     OW 5213   1.347   4.257   2.292
 1296SOL    HW2 5214   1.359   4.163   2.278
 1296SOL    HW3 5215   1.254   4.272   2.279
 1296SOL    MW4 5216   1.336   4.247   2.288
 1297SOL     OW 5217   1.571   4.390   2.245
 1297SOL    HW2 5218   1.491   4.338   2.247
 1297SOL    HW3 5219   1.548   4.472   2.288
 1297SOL    MW4 5220   1.558   4.394   2.251
 1298SOL     OW 5221   2.006   4.624   2.245
 1298SOL    HW2 5222   2.094   4.657   2.228
 1298SOL    HW3 5223   2.014   4.529   2.236
 1298SOL    MW4 5224   2.019   4.616   2.242
 1299SOL     OW 5225   1.760   0.078   2.209
 1299SOL    HW2 5226   1.773   0.168   2.240
 1299SOL    HW3 5227   1.844   0.035   2.224
 1299SOL    MW4 5228   1.773   0.084   2.215
 1300SOL     OW 5229   1.798   0.337   2.307
 1300SOL    HW2 5230   1.807   0.360   2.399
 1300SOL    HW3 5231   1.881   0.362   2.267
 1300SOL    MW4 5232   1.810   0.343   2.314
 1301SOL     OW 5233   2.023   0.443   2.213
 1301SOL    HW2 5234   2.031   0.530   2.252
 1301SOL    HW3 5235   2.031   0.458   2.119
 1301SOL    MW4 5236   2.025   0.456   2.206
 1302SOL     OW 5237   2.057   0.703   2.340
 1302SOL    HW2 5238   2.112   0.756   2.282
 1302SOL    HW3 5239   1.967   0.728   2.317
 1302SOL    MW4 5240   2.052   0.713   2.329
 1303SOL     OW 5241   1.825   0.823   2.266
 1303SOL    HW2 5242   1.860   0.905   2.300
 1303SOL    HW3 5243   1.808   0.841   2.173
 1303SOL    MW4 5244   1.828   0.836   2.258
 1304SOL     OW 5245   1.828   1.080   2.358
 1304SOL    HW2 5246   1.893   1.120   2.300
 1304SOL    HW3 5247   1.745   1.123   2.334
 1304SOL    MW4 5248   1.825   1.091   2.347
 1305SOL     OW 5249   2.008   1.224   2.212
 1305SOL    HW2 5250   1.999   1.311   2.252
 1305SOL    HW3 5251   2.018   1.242   2.119
 1305SOL    MW4 5252   2.008   1.238   2.205
 1306SOL     OW 5253   2.001   1.494   2.328
 1306SOL    HW2 5254   2.002   1.515   2.421
 1306SOL    HW3 5255   1.923   1.538   2.294
 1306SOL    MW4 5256   1.990   1.503   2.336
 1307SOL     OW 5257   1.795   1.660   2.251
 1307SOL    HW2 5258   1.798   1.754   2.264
 1307SOL    HW3 5259   1.787   1.649   2.156
 1307SOL    MW4 5260   1.794   1.671   2.240
 1308SOL     OW 5261   1.798   1.930   2.300
 1308SOL    HW2 5262   1.786   1.921   2.395
 1308SOL    HW3 5263   1.883   1.973   2.290
 1308SOL    MW4 5264   1.807   1.934   2.311
 1309SOL     OW 5265   2.028   2.097   2.271
 1309SOL    HW2 5266   2.104   2.040   2.285
 1309SOL    HW3 5267   2.020   2.104   2.176
 1309SOL    MW4 5268   2.037   2.090   2.260
 1310SOL     OW 5269   2.012   2.342   2.396
 1310SOL    HW2 5270   2.094   2.384   2.370
 1310SOL    HW3 5271   2.018   2.253   2.361
 1310SOL    MW4 5272   2.023   2.336   2.388
 1311SOL     OW 5273   1.825   2.433   2.226
 1311SOL    HW2 5274   1.890   2.400   2.287
 1311SOL    HW3 5275   1.741   2.409   2.266
 1311SOL    MW4 5276   1.822   2.425   2.239
 1312SOL     OW 5277   1.796   2.699   2.353
 1312SOL    HW2 5278   1.807   2.615   2.309
 1312SOL    HW3 5279   1.728   2.743   2.304
 1312SOL    MW4 5280   1.789   2.693   2.341
 1313SOL     OW 5281   2.018   2.850   2.246
 1313SOL    HW2 5282   2.102   2.807   2.261
 1313SOL    HW3 5283   1.956   2.798   2.297
 1313SOL    MW4 5284   2.021   2.837   2.255
 1314SOL     OW 5285   2.012   3.084   2.385
 1314SOL    HW2 5286   2.089   3.133   2.358
 1314SOL    HW3 5287   2.014   3.004   2.333
 1314SOL    MW4 5288   2.022   3.080   2.375
 1315SOL     OW 5289   1.821   3.244   2.245
 1315SOL    HW2 5290   1.885   3.199   2.302
 1315SOL    HW3 5291   1.738   3.201   2.264
 1315SOL    MW4 5292   1.819   3.232   2.255
 1316SOL     OW 5293   1.833   3.513   2.296
 1316SOL    HW2 5294   1.824   3.419   2.280
 1316SOL    HW3 5295   1.747   3.549   2.276
 1316SOL    MW4 5296   1.821   3.505   2.291
 1317SOL     OW 5297   2.056   3.657   2.218
 1317SOL    HW2 5298   1.977   3.608   2.243
 1317SOL    HW3 5299   2.075   3.627   2.129
 1317SOL    MW4 5300   2.048   3.647   2.209
 1318SOL     OW 5301   2.032   3.915   2.293
 1318SOL    HW2 5302   2.036   3.896   2.386
 1318SOL    HW3 5303   2.037   3.829   2.250
 1318SOL    MW4 5304   2.033   3.901   2.299
 1319SOL     OW 5305   1.771   3.994   2.237
 1319SOL    HW2 5306   1.859   3.966   2.263
 1319SOL    HW3 5307   1.781   4.023   2.146
 1319SOL    MW4 5308   1.784   3.994   2.228
 1320SOL     OW 5309   1.791   4.247   2.329
 1320SOL    HW2 5310   1.772   4.161   2.292
 1320SOL    HW3 5311   1.715   4.300   2.307
 1320SOL    MW4 5312   1.779   4.243   2.321
 1321SOL     OW 5313   2.052   4.352   2.261
 1321SOL    HW2 5314   1.978   4.311   2.306
 1321SOL    HW3 5315   2.033   4.340   2.168
 1321SOL    MW4 5316   2.040   4.345   2.255
 1322SOL     OW 5317   2.491   4.623   2.321
 1322SOL    HW2 5318   2.575   4.658   2.290
 1322SOL    HW3 5319   2.485   4.537   2.280
 1322SOL    MW4 5320   2.502   4.616   2.312
 1323SOL     OW 5321   2.260   0.088   2.204
 1323SOL    HW2 5322   2.271   0.180   2.226
 1323SOL    HW3 5323   2.327   0.043   2.255
 1323SOL    MW4 5324   2.270   0.094   2.214
 1324SOL     OW 5325   2.269   0.334   2.301
 1324SOL    HW2 5326   2.340   0.390   2.271
 1324SOL    HW3 5327   2.189   0.377   2.270
 1324SOL    MW4 5328   2.268   0.347   2.293
 1325SOL     OW 5329   2.487   0.472   2.179
 1325SOL    HW2 5330   2.563   0.425   2.214
 1325SOL    HW3 5331   2.500   0.471   2.084
 1325SOL    MW4 5332   2.499   0.466   2.171
 1326SOL     OW 5333   2.449   0.727   2.283
 1326SOL    HW2 5334   2.529   0.781   2.283
 1326SOL    HW3 5335   2.474   0.647   2.237
 1326SOL    MW4 5336   2.463   0.724   2.277
 1327SOL     OW 5337   2.220   0.861   2.206
 1327SOL    HW2 5338   2.245   0.949   2.234
 1327SOL    HW3 5339   2.290   0.805   2.239
 1327SOL    MW4 5340   2.233   0.865   2.214
 1328SOL     OW 5341   2.234   1.116   2.295
 1328SOL    HW2 5342   2.307   1.164   2.257
 1328SOL    HW3 5343   2.156   1.158   2.256
 1328SOL    MW4 5344   2.233   1.128   2.285
 1329SOL     OW 5345   2.457   1.264   2.212
 1329SOL    HW2 5346   2.525   1.213   2.257
 1329SOL    HW3 5347   2.458   1.349   2.256
 1329SOL    MW4 5348   2.466   1.269   2.224
 1330SOL     OW 5349   2.461   1.518   2.328
 1330SOL    HW2 5350   2.449   1.536   2.422
 1330SOL    HW3 5351   2.539   1.567   2.304
 1330SOL    MW4 5352   2.470   1.526   2.338
 1331SOL     OW 5353   2.220   1.658   2.268
 1331SOL    HW2 5354   2.299   1.609   2.289
 1331SOL    HW3 5355   2.149   1.595   2.276
 1331SOL    MW4 5356   2.221   1.643   2.272
 1332SOL     OW 5357   2.233   1.935   2.337
 1332SOL    HW2 5358   2.314   1.971   2.299
 1332SOL    HW3 5359   2.243   1.840   2.328
 1332SOL    MW4 5360   2.245   1.927   2.331
 1333SOL     OW 5361   2.473   2.040   2.248
 1333SOL    HW2 5362   2.553   1.999   2.281
 1333SOL    HW3 5363   2.474   2.021   2.154
 1333SOL    MW4 5364   2.483   2.032   2.240
 1334SOL     OW 5365   2.476   2.319   2.330
 1334SOL    HW2 5366   2.539   2.375   2.285
 1334SOL    HW3 5367   2.489   2.232   2.293
 1334SOL    MW4 5368   2.486   2.315   2.319
 1335SOL     OW 5369   2.247   2.437   2.273
 1335SOL    HW2 5370   2.260   2.529   2.295
 1335SOL    HW3 5371   2.329   2.394   2.299
 1335SOL    MW4 5372   2.260   2.444   2.279
 1336SOL     OW 5373   2.258   2.713   2.294
 1336SOL    HW2 5374   2.262   2.714   2.389
 1336SOL    HW3 5375   2.346   2.738   2.266
 1336SOL    MW4 5376   2.270   2.717   2.303
 1337SOL     OW 5377   2.485   2.825   2.223
 1337SOL    HW2 5378   2.551   2.772   2.268
 1337SOL    HW3 5379   2.506   2.816   2.130
 1337SOL    MW4 5380   2.497   2.816   2.217
 1338SOL     OW 5381   2.459   3.083   2.304
 1338SOL    HW2 5382   2.537   3.123   2.265
 1338SOL    HW3 5383   2.464   2.991   2.279
 1338SOL    MW4 5384   2.470   3.076   2.296
 1339SOL     OW 5385   2.222   3.208   2.246
 1339SOL    HW2 5386   2.237   3.298   2.275
 1339SOL    HW3 5387   2.300   3.160   2.273
 1339SOL    MW4 5388   2.234   3.213   2.254
 1340SOL     OW 5389   2.241   3.467   2.335
 1340SOL    HW2 5390   2.240   3.470   2.431
 1340SOL    HW3 5391   2.176   3.533   2.309
 1340SOL    MW4 5392   2.232   3.476   2.345
 1341SOL     OW 5393   2.482   3.546   2.235
 1341SOL    HW2 5394   2.485   3.640   2.255
 1341SOL    HW3 5395   2.402   3.515   2.277
 1341SOL    MW4 5396   2.472   3.555   2.243
 1342SOL     OW 5397   2.475   3.807   2.337
 1342SOL    HW2 5398   2.480   3.805   2.432
 1342SOL    HW3 5399   2.410   3.875   2.317
 1342SOL    MW4 5400   2.467   3.816   2.347
 1343SOL     OW 5401   2.293   3.997   2.204
 1343SOL    HW2 5402   2.306   4.085   2.238
 1343SOL    HW3 5403   2.203   3.975   2.229
 1343SOL    MW4 5404   2.283   4.005   2.212
 1344SOL     OW 5405   2.301   4.251   2.325
 1344SOL    HW2 5406   2.308   4.257   2.420
 1344SOL    HW3 5407   2.209   4.270   2.307
 1344SOL    MW4 5408   2.290   4.254   2.335
 1345SOL     OW 5409   2.485   4.385   2.179
 1345SOL    HW2 5410   2.565   4.335   2.192
 1345SOL    HW3 5411   2.421   4.346   2.239
 1345SOL    MW4 5412   2.487   4.373   2.189
 1346SOL     OW 5413   2.931   4.631   2.312
 1346SOL    HW2 5414   3.004   4.680   2.275
 1346SOL    HW3 5415   2.942   4.542   2.279
 1346SOL    MW4 5416   2.942   4.626   2.303
 1347SOL     OW 5417   2.704   0.086   2.211
 1347SOL    HW2 5418   2.708   0.173   2.250
 1347SOL    HW3 5419   2.787   0.045   2.237
 1347SOL    MW4 5420   2.716   0.092   2.220
 1348SOL     OW 5421   2.710   0.359   2.339
 1348SOL    HW2 5422   2.687   0.367   2.431
 1348SOL    HW3 5423   2.786   0.417   2.328
 1348SOL    MW4 5424   2.717   0.368   2.350
 1349SOL     OW 5425   2.935   0.509   2.262
 1349SOL    HW2 5426   2.923   0.604   2.264
 1349SOL    HW3 5427   2.937   0.486   2.169
 1349SOL    MW4 5428   2.934   0.518   2.250
 1350SOL     OW 5429   2.939   0.771   2.314
 1350SOL    HW2 5430   2.937   0.757   2.409
 1350SOL    HW3 5431   2.849   0.796   2.292
 1350SOL    MW4 5432   2.927   0.772   2.324
 1351SOL     OW 5433   2.675   0.880   2.244
 1351SOL    HW2 5434   2.660   0.957   2.299
 1351SOL    HW3 5435   2.660   0.912   2.155
 1351SOL    MW4 5436   2.671   0.895   2.239
 1352SOL     OW 5437   2.652   1.139   2.349
 1352SOL    HW2 5438   2.663   1.142   2.444
 1352SOL    HW3 5439   2.738   1.164   2.314
 1352SOL    MW4 5440   2.665   1.143   2.357
 1353SOL     OW 5441   2.902   1.230   2.259
 1353SOL    HW2 5442   2.973   1.172   2.290
 1353SOL    HW3 5443   2.922   1.245   2.167
 1353SOL    MW4 5444   2.914   1.224   2.251
 1354SOL     OW 5445   2.894   1.486   2.368
 1354SOL    HW2 5446   2.911   1.486   2.463
 1354SOL    HW3 5447   2.887   1.394   2.345
 1354SOL    MW4 5448   2.895   1.474   2.378
 1355SOL     OW 5449   2.687   1.658   2.271
 1355SOL    HW2 5450   2.749   1.603   2.319
 1355SOL    HW3 5451   2.715   1.653   2.180
 1355SOL    MW4 5452   2.699   1.650   2.266
 1356SOL     OW 5453   2.704   1.927   2.350
 1356SOL    HW2 5454   2.694   1.933   2.445
 1356SOL    HW3 5455   2.689   1.835   2.330
 1356SOL    MW4 5456   2.700   1.916   2.360
 1357SOL     OW 5457   2.937   2.053   2.242
 1357SOL    HW2 5458   3.003   2.007   2.294
 1357SOL    HW3 5459   2.854   2.012   2.266
 1357SOL    MW4 5460   2.935   2.041   2.252
 1358SOL     OW 5461   2.907   2.303   2.366
 1358SOL    HW2 5462   2.928   2.283   2.457
 1358SOL    HW3 5463   2.903   2.218   2.323
 1358SOL    MW4 5464   2.909   2.289   2.373
 1359SOL     OW 5465   2.707   2.440   2.226
 1359SOL    HW2 5466   2.764   2.390   2.283
 1359SOL    HW3 5467   2.738   2.419   2.137
 1359SOL    MW4 5468   2.719   2.431   2.222
 1360SOL     OW 5469   2.675   2.677   2.355
 1360SOL    HW2 5470   2.745   2.727   2.312
 1360SOL    HW3 5471   2.688   2.587   2.325
 1360SOL    MW4 5472   2.686   2.672   2.345
 1361SOL     OW 5473   2.890   2.820   2.238
 1361SOL    HW2 5474   2.877   2.909   2.273
 1361SOL    HW3 5475   2.911   2.834   2.146
 1361SOL    MW4 5476   2.891   2.834   2.231
 1362SOL     OW 5477   2.885   3.098   2.347
 1362SOL    HW2 5478   2.955   3.147   2.305
 1362SOL    HW3 5479   2.805   3.145   2.324
 1362SOL    MW4 5480   2.884   3.110   2.339
 1363SOL     OW 5481   2.678   3.216   2.205
 1363SOL    HW2 5482   2.673   3.305   2.240
 1363SOL    HW3 5483   2.684   3.229   2.110
 1363SOL    MW4 5484   2.678   3.230   2.197
 1364SOL     OW 5485   2.691   3.442   2.366
 1364SOL    HW2 5486   2.765   3.482   2.320
 1364SOL    HW3 5487   2.614   3.475   2.321
 1364SOL    MW4 5488   2.691   3.451   2.354
 1365SOL     OW 5489   2.911   3.608   2.239
 1365SOL    HW2 5490   2.996   3.579   2.272
 1365SOL    HW3 5491   2.913   3.703   2.252
 1365SOL    MW4 5492   2.922   3.617   2.245
 1366SOL     OW 5493   2.922   3.869   2.301
 1366SOL    HW2 5494   2.910   3.858   2.396
 1366SOL    HW3 5495   2.840   3.908   2.271
 1366SOL    MW4 5496   2.910   3.872   2.310
 1367SOL     OW 5497   2.669   3.971   2.236
 1367SOL    HW2 5498   2.596   3.923   2.274
 1367SOL    HW3 5499   2.646   3.982   2.144
 1367SOL    MW4 5500   2.657   3.966   2.229
 1368SOL     OW 5501   2.711   4.242   2.296
 1368SOL    HW2 5502   2.710   4.259   2.390
 1368SOL    HW3 5503   2.694   4.148   2.288
 1368SOL    MW4 5504   2.709   4.232   2.307
 1369SOL     OW 5505   2.947   4.359   2.192
 1369SOL    HW2 5506   3.012   4.318   2.248
 1369SOL    HW3 5507   2.865   4.312   2.210
 1369SOL    MW4 5508   2.944   4.347   2.202
 1370SOL     OW 5509   3.330   4.628   2.318
 1370SOL    HW2 5510   3.322   4.642   2.413
 1370SOL    HW3 5511   3.415   4.666   2.296
 1370SOL    MW4 5512   3.341   4.635   2.328
 1371SOL     OW 5513   3.153   0.141   2.234
 1371SOL    HW2 5514   3.160   0.221   2.286
 1371SOL    HW3 5515   3.226   0.086   2.264
 1371SOL    MW4 5516   3.164   0.144   2.245
 1372SOL     OW 5517   3.178   0.402   2.354
 1372SOL    HW2 5518   3.254   0.445   2.316
 1372SOL    HW3 5519   3.103   0.452   2.323
 1372SOL    MW4 5520   3.178   0.414   2.345
 1373SOL     OW 5521   3.401   0.526   2.242
 1373SOL    HW2 5522   3.466   0.462   2.269
 1373SOL    HW3 5523   3.397   0.519   2.147
 1373SOL    MW4 5524   3.409   0.517   2.233
 1374SOL     OW 5525   3.394   0.758   2.402
 1374SOL    HW2 5526   3.463   0.806   2.358
 1374SOL    HW3 5527   3.391   0.674   2.356
 1374SOL    MW4 5528   3.403   0.753   2.390
 1375SOL     OW 5529   3.176   0.864   2.225
 1375SOL    HW2 5530   3.247   0.817   2.269
 1375SOL    HW3 5531   3.096   0.827   2.261
 1375SOL    MW4 5532   3.175   0.853   2.236
 1376SOL     OW 5533   3.138   1.111   2.348
 1376SOL    HW2 5534   3.206   1.174   2.326
 1376SOL    HW3 5535   3.157   1.035   2.294
 1376SOL    MW4 5536   3.149   1.109   2.338
 1377SOL     OW 5537   3.342   1.271   2.261
 1377SOL    HW2 5538   3.418   1.234   2.306
 1377SOL    HW3 5539   3.338   1.361   2.292
 1377SOL    MW4 5540   3.351   1.278   2.271
 1378SOL     OW 5541   3.346   1.529   2.349
 1378SOL    HW2 5542   3.360   1.564   2.437
 1378SOL    HW3 5543   3.264   1.570   2.320
 1378SOL    MW4 5544   3.337   1.539   2.357
 1379SOL     OW 5545   3.115   1.637   2.242
 1379SOL    HW2 5546   3.103   1.729   2.266
 1379SOL    HW3 5547   3.044   1.590   2.286
 1379SOL    MW4 5548   3.104   1.643   2.251
 1380SOL     OW 5549   3.133   1.900   2.352
 1380SOL    HW2 5550   3.164   1.902   2.442
 1380SOL    HW3 5551   3.202   1.945   2.302
 1380SOL    MW4 5552   3.146   1.906   2.357
 1381SOL     OW 5553   3.336   2.033   2.222
 1381SOL    HW2 5554   3.418   2.007   2.264
 1381SOL    HW3 5555   3.356   2.032   2.128
 1381SOL    MW4 5556   3.349   2.029   2.215
 1382SOL     OW 5557   3.354   2.296   2.342
 1382SOL    HW2 5558   3.274   2.345   2.323
 1382SOL    HW3 5559   3.338   2.208   2.310
 1382SOL    MW4 5560   3.342   2.291   2.335
 1383SOL     OW 5561   3.127   2.435   2.282
 1383SOL    HW2 5562   3.107   2.524   2.311
 1383SOL    HW3 5563   3.052   2.383   2.308
 1383SOL    MW4 5564   3.115   2.440   2.289
 1384SOL     OW 5565   3.095   2.687   2.396
 1384SOL    HW2 5566   3.099   2.723   2.484
 1384SOL    HW3 5567   3.022   2.733   2.354
 1384SOL    MW4 5568   3.086   2.698   2.402
 1385SOL     OW 5569   3.305   2.814   2.239
 1385SOL    HW2 5570   3.300   2.904   2.271
 1385SOL    HW3 5571   3.241   2.766   2.291
 1385SOL    MW4 5572   3.296   2.820   2.250
 1386SOL     OW 5573   3.303   3.066   2.370
 1386SOL    HW2 5574   3.385   3.100   2.334
 1386SOL    HW3 5575   3.237   3.127   2.340
 1386SOL    MW4 5576   3.305   3.078   2.361
 1387SOL     OW 5577   3.111   3.209   2.244
 1387SOL    HW2 5578   3.112   3.300   2.274
 1387SOL    HW3 5579   3.119   3.215   2.149
 1387SOL    MW4 5580   3.112   3.222   2.235
 1388SOL     OW 5581   3.132   3.479   2.332
 1388SOL    HW2 5582   3.131   3.470   2.428
 1388SOL    HW3 5583   3.206   3.537   2.314
 1388SOL    MW4 5584   3.142   3.485   2.343
 1389SOL     OW 5585   3.365   3.631   2.269
 1389SOL    HW2 5586   3.439   3.574   2.292
 1389SOL    HW3 5587   3.371   3.639   2.174
 1389SOL    MW4 5588   3.376   3.624   2.260
 1390SOL     OW 5589   3.378   3.897   2.359
 1390SOL    HW2 5590   3.456   3.928   2.313
 1390SOL    HW3 5591   3.373   3.804   2.338
 1390SOL    MW4 5592   3.388   3.889   2.350
 1391SOL     OW 5593   3.159   4.011   2.183
 1391SOL    HW2 5594   3.236   3.977   2.229
 1391SOL    HW3 5595   3.085   3.964   2.221
 1391SOL    MW4 5596   3.160   4.001   2.194
 1392SOL     OW 5597   3.154   4.244   2.347
 1392SOL    HW2 5598   3.238   4.285   2.326
 1392SOL    HW3 5599   3.157   4.159   2.302
 1392SOL    MW4 5600   3.165   4.238   2.338
 1393SOL     OW 5601   3.380   4.364   2.228
 1393SOL    HW2 5602   3.369   4.454   2.256
 1393SOL    HW3 5603   3.360   4.365   2.134
 1393SOL    MW4 5604   3.376   4.376   2.219
 1394SOL     OW 5605   3.800   4.623   2.331
 1394SOL    HW2 5606   3.806   4.631   2.426
 1394SOL    HW3 5607   3.875   4.673   2.298
 1394SOL    MW4 5608   3.811   4.631   2.339
 1395SOL     OW 5609   3.560   0.087   2.240
 1395SOL    HW2 5610   3.563   0.176   2.273
 1395SOL    HW3 5611   3.639   0.045   2.276
 1395SOL    MW4 5612   3.571   0.093   2.249
 1396SOL     OW 5613   3.578   0.343   2.352
 1396SOL    HW2 5614   3.577   0.326   2.446
 1396SOL    HW3 5615   3.664   0.382   2.335
 1396SOL    MW4 5616   3.589   0.346   2.362
 1397SOL     OW 5617   3.835   0.469   2.275
 1397SOL    HW2 5618   3.826   0.558   2.310
 1397SOL    HW3 5619   3.825   0.479   2.181
 1397SOL    MW4 5620   3.833   0.482   2.267
 1398SOL     OW 5621   3.811   0.745   2.349
 1398SOL    HW2 5622   3.821   0.741   2.444
 1398SOL    HW3 5623   3.885   0.796   2.319
 1398SOL    MW4 5624   3.822   0.751   2.357
 1399SOL     OW 5625   3.588   0.901   2.249
 1399SOL    HW2 5626   3.666   0.851   2.274
 1399SOL    HW3 5627   3.589   0.900   2.153
 1399SOL    MW4 5628   3.598   0.894   2.239
 1400SOL     OW 5629   3.603   1.170   2.374
 1400SOL    HW2 5630   3.614   1.153   2.467
 1400SOL    HW3 5631   3.605   1.083   2.333
 1400SOL    MW4 5632   3.605   1.156   2.381
 1401SOL     OW 5633   3.825   1.294   2.248
 1401SOL    HW2 5634   3.811   1.388   2.262
 1401SOL    HW3 5635   3.752   1.252   2.294
 1401SOL    MW4 5636   3.814   1.301   2.256
 1402SOL     OW 5637   3.794   1.578   2.334
 1402SOL    HW2 5638   3.772   1.553   2.424
 1402SOL    HW3 5639   3.724   1.637   2.307
 1402SOL    MW4 5640   3.782   1.583   2.342
 1403SOL     OW 5641   3.561   1.706   2.234
 1403SOL    HW2 5642   3.503   1.642   2.276
 1403SOL    HW3 5643   3.573   1.673   2.145
 1403SOL    MW4 5644   3.555   1.693   2.228
 1404SOL     OW 5645   3.572   1.962   2.341
 1404SOL    HW2 5646   3.656   1.989   2.302
 1404SOL    HW3 5647   3.558   1.873   2.309
 1404SOL    MW4 5648   3.582   1.954   2.332
 1405SOL     OW 5649   3.823   2.051   2.246
 1405SOL    HW2 5650   3.907   2.014   2.275
 1405SOL    HW3 5651   3.824   2.041   2.151
 1405SOL    MW4 5652   3.834   2.045   2.238
 1406SOL     OW 5653   3.803   2.308   2.348
 1406SOL    HW2 5654   3.729   2.341   2.298
 1406SOL    HW3 5655   3.817   2.220   2.313
 1406SOL    MW4 5656   3.795   2.301   2.336
 1407SOL     OW 5657   3.573   2.415   2.233
 1407SOL    HW2 5658   3.486   2.377   2.248
 1407SOL    HW3 5659   3.582   2.417   2.138
 1407SOL    MW4 5660   3.562   2.410   2.223
 1408SOL     OW 5661   3.537   2.672   2.355
 1408SOL    HW2 5662   3.552   2.590   2.309
 1408SOL    HW3 5663   3.461   2.711   2.311
 1408SOL    MW4 5664   3.529   2.666   2.343
 1409SOL     OW 5665   3.779   2.812   2.260
 1409SOL    HW2 5666   3.786   2.893   2.311
 1409SOL    HW3 5667   3.703   2.766   2.297
 1409SOL    MW4 5668   3.770   2.817   2.271
 1410SOL     OW 5669   3.763   3.063   2.366
 1410SOL    HW2 5670   3.776   3.066   2.461
 1410SOL    HW3 5671   3.837   3.112   2.330
 1410SOL    MW4 5672   3.774   3.070   2.374
 1411SOL     OW 5673   3.538   3.179   2.258
 1411SOL    HW2 5674   3.549   3.269   2.288
 1411SOL    HW3 5675   3.605   3.130   2.305
 1411SOL    MW4 5676   3.548   3.185   2.269
 1412SOL     OW 5677   3.569   3.447   2.333
 1412SOL    HW2 5678   3.571   3.461   2.428
 1412SOL    HW3 5679   3.657   3.471   2.304
 1412SOL    MW4 5680   3.581   3.452   2.342
 1413SOL     OW 5681   3.777   3.566   2.218
 1413SOL    HW2 5682   3.782   3.660   2.236
 1413SOL    HW3 5683   3.801   3.558   2.126
 1413SOL    MW4 5684   3.780   3.578   2.208
 1414SOL     OW 5685   3.865   3.827   2.315
 1414SOL    HW2 5686   3.846   3.857   2.404
 1414SOL    HW3 5687   3.932   3.888   2.283
 1414SOL    MW4 5688   3.871   3.839   2.323
 1415SOL     OW 5689   3.608   4.008   2.247
 1415SOL    HW2 5690   3.612   4.092   2.293
 1415SOL    HW3 5691   3.678   3.956   2.286
 1415SOL    MW4 5692   3.618   4.013   2.258
 1416SOL     OW 5693   3.620   4.269   2.338
 1416SOL    HW2 5694   3.679   4.309   2.274
 1416SOL    HW3 5695   3.533   4.300   2.313
 1416SOL    MW4 5696   3.616   4.278   2.326
 1417SOL     OW 5697   3.839   4.388   2.193
 1417SOL    HW2 5698   3.904   4.333   2.236
 1417SOL    HW3 5699   3.834   4.466   2.249
 1417SOL    MW4 5700   3.847   4.391   2.206
 1418SOL     OW 5701   4.253   4.634   2.344
 1418SOL    HW2 5702   4.275   4.627   2.437
 1418SOL    HW3 5703   4.329   4.678   2.305
 1418SOL    MW4 5704   4.266   4.639   2.351
 1419SOL     OW 5705   4.030   0.093   2.241
 1419SOL    HW2 5706   4.034   0.187   2.258
 1419SOL    HW3 5707   4.099   0.056   2.295
 1419SOL    MW4 5708   4.039   0.100   2.250
 1420SOL     OW 5709   4.076   0.345   2.353
 1420SOL    HW2 5710   4.145   0.400   2.315
 1420SOL    HW3 5711   3.994   0.383   2.320
 1420SOL    MW4 5712   4.074   0.357   2.344
 1421SOL     OW 5713   4.248   0.524   2.220
 1421SOL    HW2 5714   4.243   0.609   2.264
 1421SOL    HW3 5715   4.328   0.484   2.255
 1421SOL    MW4 5716   4.258   0.530   2.230
 1422SOL     OW 5717   4.238   0.765   2.371
 1422SOL    HW2 5718   4.167   0.807   2.323
 1422SOL    HW3 5719   4.318   0.795   2.326
 1422SOL    MW4 5720   4.239   0.774   2.359
 1423SOL     OW 5721   4.044   0.898   2.195
 1423SOL    HW2 5722   4.047   0.987   2.229
 1423SOL    HW3 5723   4.055   0.907   2.101
 1423SOL    MW4 5724   4.046   0.911   2.187
 1424SOL     OW 5725   4.043   1.149   2.322
 1424SOL    HW2 5726   4.047   1.135   2.417
 1424SOL    HW3 5727   3.959   1.192   2.308
 1424SOL    MW4 5728   4.033   1.153   2.333
 1425SOL     OW 5729   4.263   1.275   2.190
 1425SOL    HW2 5730   4.189   1.245   2.243
 1425SOL    HW3 5731   4.340   1.240   2.235
 1425SOL    MW4 5732   4.263   1.267   2.203
 1426SOL     OW 5733   4.257   1.507   2.349
 1426SOL    HW2 5734   4.249   1.420   2.310
 1426SOL    HW3 5735   4.342   1.539   2.319
 1426SOL    MW4 5736   4.267   1.499   2.340
 1427SOL     OW 5737   4.042   1.656   2.225
 1427SOL    HW2 5738   4.113   1.604   2.264
 1427SOL    HW3 5739   3.962   1.616   2.258
 1427SOL    MW4 5740   4.041   1.644   2.235
 1428SOL     OW 5741   4.048   1.935   2.333
 1428SOL    HW2 5742   4.048   1.941   2.429
 1428SOL    HW3 5743   4.038   1.841   2.315
 1428SOL    MW4 5744   4.046   1.923   2.343
 1429SOL     OW 5745   4.267   2.019   2.212
 1429SOL    HW2 5746   4.267   2.112   2.238
 1429SOL    HW3 5747   4.193   1.981   2.259
 1429SOL    MW4 5748   4.257   2.027   2.221
 1430SOL     OW 5749   4.248   2.275   2.306
 1430SOL    HW2 5750   4.173   2.328   2.279
 1430SOL    HW3 5751   4.323   2.335   2.299
 1430SOL    MW4 5752   4.248   2.290   2.302
 1431SOL     OW 5753   4.029   2.423   2.249
 1431SOL    HW2 5754   4.020   2.511   2.286
 1431SOL    HW3 5755   3.952   2.375   2.280
 1431SOL    MW4 5756   4.018   2.428   2.258
 1432SOL     OW 5757   4.017   2.704   2.320
 1432SOL    HW2 5758   4.014   2.681   2.413
 1432SOL    HW3 5759   3.928   2.731   2.299
 1432SOL    MW4 5760   4.005   2.705   2.329
 1433SOL     OW 5761   4.239   2.819   2.208
 1433SOL    HW2 5762   4.165   2.782   2.256
 1433SOL    HW3 5763   4.316   2.782   2.250
 1433SOL    MW4 5764   4.239   2.810   2.220
 1434SOL     OW 5765   4.258   3.090   2.340
 1434SOL    HW2 5766   4.259   3.009   2.289
 1434SOL    HW3 5767   4.343   3.130   2.323
 1434SOL    MW4 5768   4.269   3.085   2.331
 1435SOL     OW 5769   3.998   3.187   2.255
 1435SOL    HW2 5770   4.017   3.271   2.297
 1435SOL    HW3 5771   4.070   3.130   2.281
 1435SOL    MW4 5772   4.010   3.190   2.264
 1436SOL     OW 5773   4.013   3.456   2.332
 1436SOL    HW2 5774   4.087   3.499   2.290
 1436SOL    HW3 5775   3.936   3.496   2.293
 1436SOL    MW4 5776   4.013   3.467   2.321
 1437SOL     OW 5777   4.249   3.596   2.264
 1437SOL    HW2 5778   4.259   3.686   2.293
 1437SOL    HW3 5779   4.244   3.602   2.168
 1437SOL    MW4 5780   4.250   3.608   2.255
 1438SOL     OW 5781   4.277   3.870   2.341
 1438SOL    HW2 5782   4.277   3.888   2.435
 1438SOL    HW3 5783   4.354   3.917   2.308
 1438SOL    MW4 5784   4.288   3.879   2.349
 1439SOL     OW 5785   4.065   3.998   2.225
 1439SOL    HW2 5786   4.142   3.959   2.266
 1439SOL    HW3 5787   4.083   3.993   2.131
 1439SOL    MW4 5788   4.078   3.992   2.218
 1440SOL     OW 5789   4.034   4.250   2.350
 1440SOL    HW2 5790   4.107   4.306   2.320
 1440SOL    HW3 5791   4.054   4.164   2.313
 1440SOL    MW4 5792   4.046   4.246   2.341
 1441SOL     OW 5793   4.260   4.373   2.257
 1441SOL    HW2 5794   4.272   4.466   2.275
 1441SOL    HW3 5795   4.333   4.330   2.301
 1441SOL    MW4 5796   4.271   4.380   2.265
 1442SOL     OW 5797   0.235   4.640   2.611
 1442SOL    HW2 5798   0.227   4.568   2.673
 1442SOL    HW3 5799   0.154   4.690   2.620
 1442SOL    MW4 5800   0.224   4.637   2.620
 1443SOL     OW 5801   0.010   0.099   2.708
 1443SOL    HW2 5802   0.006   0.111   2.803
 1443SOL    HW3 5803  -0.005   0.187   2.673
 1443SOL    MW4 5804   0.008   0.112   2.716
 1444SOL     OW 5805   4.482   0.369   2.625
 1444SOL    HW2 5806   4.561   0.419   2.644
 1444SOL    HW3 5807   4.472   0.374   2.530
 1444SOL    MW4 5808   4.491   0.376   2.615
 1445SOL     OW 5809   0.225   0.509   2.681
 1445SOL    HW2 5810   0.222   0.512   2.776
 1445SOL    HW3 5811   0.291   0.444   2.660
 1445SOL    MW4 5812   0.233   0.501   2.691
 1446SOL     OW 5813   0.230   0.779   2.574
 1446SOL    HW2 5814   0.309   0.808   2.621
 1446SOL    HW3 5815   0.216   0.689   2.605
 1446SOL    MW4 5816   0.239   0.771   2.585
 1447SOL     OW 5817   0.006   0.845   2.723
 1447SOL    HW2 5818  -0.073   0.798   2.698
 1447SOL    HW3 5819   0.074   0.811   2.665
 1447SOL    MW4 5820   0.005   0.835   2.712
 1448SOL     OW 5821   0.025   1.122   2.647
 1448SOL    HW2 5822   0.093   1.180   2.680
 1448SOL    HW3 5823   0.053   1.034   2.672
 1448SOL    MW4 5824   0.037   1.118   2.655
 1449SOL     OW 5825   0.220   1.269   2.755
 1449SOL    HW2 5826   0.293   1.224   2.712
 1449SOL    HW3 5827   0.220   1.357   2.718
 1449SOL    MW4 5828   0.229   1.275   2.744
 1450SOL     OW 5829   0.182   1.529   2.619
 1450SOL    HW2 5830   0.253   1.586   2.649
 1450SOL    HW3 5831   0.103   1.565   2.658
 1450SOL    MW4 5832   0.181   1.541   2.628
 1451SOL     OW 5833   4.456   1.656   2.720
 1451SOL    HW2 5834   4.477   1.663   2.813
 1451SOL    HW3 5835   4.453   1.746   2.689
 1451SOL    MW4 5836   4.458   1.669   2.728
 1452SOL     OW 5837   4.466   1.937   2.642
 1452SOL    HW2 5838   4.552   1.974   2.659
 1452SOL    HW3 5839   4.452   1.952   2.548
 1452SOL    MW4 5840   4.475   1.944   2.631
 1453SOL     OW 5841   0.223   2.059   2.675
 1453SOL    HW2 5842   0.311   2.030   2.654
 1453SOL    HW3 5843   0.219   2.149   2.642
 1453SOL    MW4 5844   0.234   2.067   2.668
 1454SOL     OW 5845   0.186   2.315   2.604
 1454SOL    HW2 5846   0.265   2.357   2.638
 1454SOL    HW3 5847   0.114   2.361   2.647
 1454SOL    MW4 5848   0.187   2.327   2.614
 1455SOL     OW 5849   4.474   2.483   2.678
 1455SOL    HW2 5850   4.483   2.479   2.773
 1455SOL    HW3 5851   4.410   2.415   2.657
 1455SOL    MW4 5852   4.466   2.473   2.687
 1456SOL     OW 5853   4.440   2.752   2.613
 1456SOL    HW2 5854   4.376   2.786   2.674
 1456SOL    HW3 5855   4.451   2.660   2.638
 1456SOL    MW4 5856   4.433   2.745   2.624
 1457SOL     OW 5857   0.204   2.791   2.694
 1457SOL    HW2 5858   0.205   2.887   2.690
 1457SOL    HW3 5859   0.121   2.767   2.653
 1457SOL    MW4 5860   0.193   2.801   2.688
 1458SOL     OW 5861   0.254   3.071   2.645
 1458SOL    HW2 5862   0.329   3.117   2.683
 1458SOL    HW3 5863   0.269   3.074   2.551
 1458SOL    MW4 5864   0.266   3.077   2.638
 1459SOL     OW 5865   0.004   3.228   2.686
 1459SOL    HW2 5866  -0.077   3.183   2.661
 1459SOL    HW3 5867   0.073   3.163   2.668
 1459SOL    MW4 5868   0.003   3.213   2.680
 1460SOL     OW 5869   4.474   3.510   2.639
 1460SOL    HW2 5870   4.552   3.548   2.679
 1460SOL    HW3 5871   4.471   3.420   2.672
 1460SOL    MW4 5872   4.483   3.503   2.648
 1461SOL     OW 5873   0.212   3.614   2.746
 1461SOL    HW2 5874   0.200   3.608   2.841
 1461SOL    HW3 5875   0.288   3.559   2.728
 1461SOL    MW4 5876   0.220   3.606   2.756
 1462SOL     OW 5877   0.235   3.887   2.626
 1462SOL    HW2 5878   0.213   3.804   2.668
 1462SOL    HW3 5879   0.240   3.866   2.532
 1462SOL    MW4 5880   0.233   3.873   2.619
 1463SOL     OW 5881   0.003   4.025   2.716
 1463SOL    HW2 5882   0.005   4.114   2.682
 1463SOL    HW3 5883   0.085   3.986   2.685
 1463SOL    MW4 5884   0.014   4.032   2.708
 1464SOL     OW 5885   4.477   4.282   2.622
 1464SOL    HW2 5886   4.398   4.305   2.672
 1464SOL    HW3 5887   4.547   4.332   2.666
 1464SOL    MW4 5888   4.476   4.292   2.635
 1465SOL     OW 5889   0.195   4.404   2.741
 1465SOL    HW2 5890   0.211   4.412   2.835
 1465SOL    HW3 5891   0.266   4.349   2.709
 1465SOL    MW4 5892   0.206   4.398   2.749
 1466SOL     OW 5893   0.666   0.009   2.602
 1466SOL    HW2 5894   0.742   0.033   2.655
 1466SOL    HW3 5895   0.590   0.037   2.655
 1466SOL    MW4 5896   0.666   0.016   2.616
 1467SOL     OW 5897   0.451   0.084   2.762
 1467SOL    HW2 5898   0.435   0.067   2.854
 1467SOL    HW3 5899   0.380   0.039   2.716
 1467SOL    MW4 5900   0.439   0.076   2.768
 1468SOL     OW 5901   0.458   0.345   2.633
 1468SOL    HW2 5902   0.531   0.405   2.647
 1468SOL    HW3 5903   0.474   0.274   2.695
 1468SOL    MW4 5904   0.470   0.343   2.643
 1469SOL     OW 5905   0.684   0.477   2.691
 1469SOL    HW2 5906   0.689   0.492   2.785
 1469SOL    HW3 5907   0.760   0.421   2.671
 1469SOL    MW4 5908   0.695   0.472   2.701
 1470SOL     OW 5909   0.647   0.715   2.546
 1470SOL    HW2 5910   0.722   0.767   2.574
 1470SOL    HW3 5911   0.661   0.630   2.587
 1470SOL    MW4 5912   0.659   0.711   2.555
 1471SOL     OW 5913   0.471   0.880   2.696
 1471SOL    HW2 5914   0.469   0.969   2.659
 1471SOL    HW3 5915   0.530   0.831   2.639
 1471SOL    MW4 5916   0.478   0.886   2.684
 1472SOL     OW 5917   0.426   1.151   2.609
 1472SOL    HW2 5918   0.503   1.208   2.619
 1472SOL    HW3 5919   0.417   1.139   2.515
 1472SOL    MW4 5920   0.435   1.157   2.598
 1473SOL     OW 5921   0.647   1.300   2.677
 1473SOL    HW2 5922   0.640   1.292   2.772
 1473SOL    HW3 5923   0.728   1.253   2.655
 1473SOL    MW4 5924   0.657   1.293   2.687
 1474SOL     OW 5925   0.658   1.576   2.609
 1474SOL    HW2 5926   0.570   1.613   2.619
 1474SOL    HW3 5927   0.650   1.487   2.645
 1474SOL    MW4 5928   0.645   1.569   2.615
 1475SOL     OW 5929   0.411   1.679   2.693
 1475SOL    HW2 5930   0.410   1.685   2.789
 1475SOL    HW3 5931   0.443   1.764   2.664
 1475SOL    MW4 5932   0.415   1.691   2.702
 1476SOL     OW 5933   0.473   1.938   2.607
 1476SOL    HW2 5934   0.557   1.975   2.636
 1476SOL    HW3 5935   0.480   1.936   2.511
 1476SOL    MW4 5936   0.485   1.943   2.598
 1477SOL     OW 5937   0.717   2.050   2.693
 1477SOL    HW2 5938   0.704   2.033   2.786
 1477SOL    HW3 5939   0.798   2.003   2.671
 1477SOL    MW4 5940   0.726   2.041   2.703
 1478SOL     OW 5941   0.652   2.295   2.589
 1478SOL    HW2 5942   0.713   2.350   2.639
 1478SOL    HW3 5943   0.670   2.206   2.621
 1478SOL    MW4 5944   0.663   2.291   2.600
 1479SOL     OW 5945   0.432   2.427   2.691
 1479SOL    HW2 5946   0.433   2.518   2.661
 1479SOL    HW3 5947   0.502   2.385   2.642
 1479SOL    MW4 5948   0.441   2.433   2.680
 1480SOL     OW 5949   0.458   2.684   2.600
 1480SOL    HW2 5950   0.527   2.736   2.642
 1480SOL    HW3 5951   0.377   2.713   2.642
 1480SOL    MW4 5952   0.456   2.695   2.611
 1481SOL     OW 5953   0.649   2.814   2.728
 1481SOL    HW2 5954   0.658   2.811   2.824
 1481SOL    HW3 5955   0.665   2.905   2.705
 1481SOL    MW4 5956   0.652   2.826   2.738
 1482SOL     OW 5957   0.705   3.070   2.613
 1482SOL    HW2 5958   0.782   3.118   2.643
 1482SOL    HW3 5959   0.706   3.080   2.517
 1482SOL    MW4 5960   0.715   3.078   2.604
 1483SOL     OW 5961   0.476   3.209   2.733
 1483SOL    HW2 5962   0.475   3.185   2.826
 1483SOL    HW3 5963   0.555   3.167   2.699
 1483SOL    MW4 5964   0.486   3.200   2.741
 1484SOL     OW 5965   0.447   3.478   2.674
 1484SOL    HW2 5966   0.453   3.387   2.702
 1484SOL    HW3 5967   0.453   3.474   2.579
 1484SOL    MW4 5968   0.448   3.466   2.665
 1485SOL     OW 5969   0.670   3.612   2.734
 1485SOL    HW2 5970   0.677   3.605   2.830
 1485SOL    HW3 5971   0.590   3.563   2.712
 1485SOL    MW4 5972   0.660   3.605   2.744
 1486SOL     OW 5973   0.668   3.883   2.636
 1486SOL    HW2 5974   0.593   3.924   2.679
 1486SOL    HW3 5975   0.663   3.791   2.660
 1486SOL    MW4 5976   0.658   3.876   2.645
 1487SOL     OW 5977   0.459   4.028   2.740
 1487SOL    HW2 5978   0.451   4.120   2.717
 1487SOL    HW3 5979   0.387   3.985   2.693
 1487SOL    MW4 5980   0.448   4.034   2.731
 1488SOL     OW 5981   0.416   4.288   2.617
 1488SOL    HW2 5982   0.492   4.334   2.652
 1488SOL    HW3 5983   0.423   4.297   2.522
 1488SOL    MW4 5984   0.427   4.295   2.609
 1489SOL     OW 5985   0.659   4.395   2.725
 1489SOL    HW2 5986   0.735   4.357   2.682
 1489SOL    HW3 5987   0.664   4.489   2.703
 1489SOL    MW4 5988   0.669   4.403   2.716
 1490SOL     OW 5989   1.144   4.628   2.633
 1490SOL    HW2 5990   1.211   4.666   2.690
 1490SOL    HW3 5991   1.134   4.538   2.664
 1490SOL    MW4 5992   1.152   4.621   2.645
 1491SOL     OW 5993   0.913   0.072   2.729
 1491SOL    HW2 5994   0.900   0.079   2.823
 1491SOL    HW3 5995   1.007   0.058   2.718
 1491SOL    MW4 5996   0.924   0.071   2.740
 1492SOL     OW 5997   0.924   0.324   2.596
 1492SOL    HW2 5998   0.912   0.233   2.623
 1492SOL    HW3 5999   0.905   0.324   2.502
 1492SOL    MW4 6000   0.920   0.312   2.587
 1493SOL     OW 6001   1.133   0.480   2.707
 1493SOL    HW2 6002   1.119   0.571   2.683
 1493SOL    HW3 6003   1.053   0.435   2.680
 1493SOL    MW4 6004   1.121   0.486   2.700
 1494SOL     OW 6005   1.097   0.749   2.616
 1494SOL    HW2 6006   1.185   0.785   2.627
 1494SOL    HW3 6007   1.087   0.737   2.522
 1494SOL    MW4 6008   1.107   0.752   2.605
 1495SOL     OW 6009   0.852   0.895   2.672
 1495SOL    HW2 6010   0.849   0.904   2.767
 1495SOL    HW3 6011   0.938   0.858   2.654
 1495SOL    MW4 6012   0.863   0.892   2.682
 1496SOL     OW 6013   0.864   1.168   2.597
 1496SOL    HW2 6014   0.853   1.079   2.632
 1496SOL    HW3 6015   0.865   1.157   2.502
 1496SOL    MW4 6016   0.863   1.154   2.589
 1497SOL     OW 6017   1.117   1.264   2.661
 1497SOL    HW2 6018   1.109   1.357   2.639
 1497SOL    HW3 6019   1.037   1.225   2.627
 1497SOL    MW4 6020   1.105   1.271   2.653
 1498SOL     OW 6021   1.103   1.530   2.614
 1498SOL    HW2 6022   1.021   1.561   2.651
 1498SOL    HW3 6023   1.087   1.525   2.520
 1498SOL    MW4 6024   1.090   1.533   2.607
 1499SOL     OW 6025   0.888   1.628   2.751
 1499SOL    HW2 6026   0.879   1.635   2.846
 1499SOL    HW3 6027   0.799   1.618   2.719
 1499SOL    MW4 6028   0.875   1.628   2.759
 1500SOL     OW 6029   0.933   1.869   2.631
 1500SOL    HW2 6030   0.989   1.927   2.683
 1500SOL    HW3 6031   0.921   1.792   2.686
 1500SOL    MW4 6032   0.939   1.866   2.645
 1501SOL     OW 6033   1.113   2.028   2.755
 1501SOL    HW2 6034   1.191   1.986   2.718
 1501SOL    HW3 6035   1.109   2.113   2.711
 1501SOL    MW4 6036   1.123   2.034   2.744
 1502SOL     OW 6037   1.088   2.302   2.655
 1502SOL    HW2 6038   1.155   2.357   2.697
 1502SOL    HW3 6039   1.116   2.296   2.564
 1502SOL    MW4 6040   1.101   2.308   2.649
 1503SOL     OW 6041   0.859   2.423   2.726
 1503SOL    HW2 6042   0.875   2.514   2.700
 1503SOL    HW3 6043   0.931   2.374   2.686
 1503SOL    MW4 6044   0.870   2.429   2.717
 1504SOL     OW 6045   0.871   2.677   2.632
 1504SOL    HW2 6046   0.944   2.732   2.660
 1504SOL    HW3 6047   0.795   2.713   2.676
 1504SOL    MW4 6048   0.871   2.689   2.641
 1505SOL     OW 6049   1.083   2.832   2.700
 1505SOL    HW2 6050   1.106   2.825   2.792
 1505SOL    HW3 6051   1.159   2.795   2.654
 1505SOL    MW4 6052   1.096   2.826   2.706
 1506SOL     OW 6053   1.148   3.096   2.616
 1506SOL    HW2 6054   1.122   3.007   2.639
 1506SOL    HW3 6055   1.136   3.101   2.521
 1506SOL    MW4 6056   1.143   3.085   2.606
 1507SOL     OW 6057   0.919   3.208   2.713
 1507SOL    HW2 6058   0.903   3.286   2.660
 1507SOL    HW3 6059   1.006   3.179   2.685
 1507SOL    MW4 6060   0.928   3.215   2.702
 1508SOL     OW 6061   0.887   3.462   2.610
 1508SOL    HW2 6062   0.961   3.508   2.651
 1508SOL    HW3 6063   0.810   3.512   2.639
 1508SOL    MW4 6064   0.887   3.475   2.620
 1509SOL     OW 6065   1.102   3.599   2.694
 1509SOL    HW2 6066   1.101   3.626   2.786
 1509SOL    HW3 6067   1.100   3.681   2.645
 1509SOL    MW4 6068   1.102   3.613   2.700
 1510SOL     OW 6069   1.098   3.851   2.593
 1510SOL    HW2 6070   1.178   3.889   2.631
 1510SOL    HW3 6071   1.110   3.859   2.498
 1510SOL    MW4 6072   1.110   3.857   2.585
 1511SOL     OW 6073   0.893   4.008   2.725
 1511SOL    HW2 6074   0.958   3.963   2.670
 1511SOL    HW3 6075   0.809   3.970   2.697
 1511SOL    MW4 6076   0.890   3.997   2.714
 1512SOL     OW 6077   0.888   4.266   2.629
 1512SOL    HW2 6078   0.892   4.174   2.654
 1512SOL    HW3 6079   0.884   4.265   2.533
 1512SOL    MW4 6080   0.888   4.254   2.620
 1513SOL     OW 6081   1.144   4.351   2.693
 1513SOL    HW2 6082   1.137   4.378   2.785
 1513SOL    HW3 6083   1.055   4.327   2.668
 1513SOL    MW4 6084   1.131   4.351   2.702
 1514SOL     OW 6085   1.558   4.642   2.618
 1514SOL    HW2 6086   1.588   4.555   2.643
 1514SOL    HW3 6087   1.562   4.643   2.523
 1514SOL    MW4 6088   1.563   4.631   2.609
 1515SOL     OW 6089   1.347   0.119   2.743
 1515SOL    HW2 6090   1.344   0.190   2.679
 1515SOL    HW3 6091   1.418   0.062   2.713
 1515SOL    MW4 6092   1.356   0.121   2.731
 1516SOL     OW 6093   1.354   0.358   2.609
 1516SOL    HW2 6094   1.429   0.380   2.664
 1516SOL    HW3 6095   1.280   0.404   2.650
 1516SOL    MW4 6096   1.354   0.367   2.622
 1517SOL     OW 6097   1.569   0.456   2.737
 1517SOL    HW2 6098   1.648   0.418   2.698
 1517SOL    HW3 6099   1.569   0.547   2.709
 1517SOL    MW4 6100   1.579   0.463   2.728
 1518SOL     OW 6101   1.564   0.722   2.663
 1518SOL    HW2 6102   1.487   0.778   2.672
 1518SOL    HW3 6103   1.581   0.719   2.569
 1518SOL    MW4 6104   1.556   0.729   2.652
 1519SOL     OW 6105   1.344   0.896   2.657
 1519SOL    HW2 6106   1.332   0.893   2.752
 1519SOL    HW3 6107   1.338   0.989   2.636
 1519SOL    MW4 6108   1.342   0.908   2.667
 1520SOL     OW 6109   1.355   1.156   2.558
 1520SOL    HW2 6110   1.419   1.207   2.607
 1520SOL    HW3 6111   1.271   1.180   2.598
 1520SOL    MW4 6112   1.352   1.166   2.570
 1521SOL     OW 6113   1.585   1.283   2.695
 1521SOL    HW2 6114   1.597   1.287   2.789
 1521SOL    HW3 6115   1.652   1.222   2.664
 1521SOL    MW4 6116   1.595   1.275   2.703
 1522SOL     OW 6117   1.549   1.539   2.579
 1522SOL    HW2 6118   1.576   1.458   2.623
 1522SOL    HW3 6119   1.542   1.516   2.487
 1522SOL    MW4 6120   1.551   1.525   2.573
 1523SOL     OW 6121   1.337   1.632   2.720
 1523SOL    HW2 6122   1.405   1.606   2.658
 1523SOL    HW3 6123   1.259   1.585   2.692
 1523SOL    MW4 6124   1.335   1.623   2.708
 1524SOL     OW 6125   1.381   1.899   2.658
 1524SOL    HW2 6126   1.380   1.805   2.671
 1524SOL    HW3 6127   1.391   1.910   2.563
 1524SOL    MW4 6128   1.382   1.888   2.647
 1525SOL     OW 6129   1.604   2.031   2.749
 1525SOL    HW2 6130   1.674   1.983   2.705
 1525SOL    HW3 6131   1.523   1.995   2.711
 1525SOL    MW4 6132   1.602   2.020   2.738
 1526SOL     OW 6133   1.573   2.308   2.638
 1526SOL    HW2 6134   1.664   2.329   2.662
 1526SOL    HW3 6135   1.559   2.219   2.671
 1526SOL    MW4 6136   1.583   2.299   2.646
 1527SOL     OW 6137   1.326   2.442   2.740
 1527SOL    HW2 6138   1.332   2.532   2.707
 1527SOL    HW3 6139   1.408   2.401   2.712
 1527SOL    MW4 6140   1.337   2.448   2.732
 1528SOL     OW 6141   1.324   2.685   2.623
 1528SOL    HW2 6142   1.408   2.727   2.640
 1528SOL    HW3 6143   1.321   2.675   2.528
 1528SOL    MW4 6144   1.334   2.689   2.613
 1529SOL     OW 6145   1.562   2.802   2.695
 1529SOL    HW2 6146   1.576   2.822   2.787
 1529SOL    HW3 6147   1.641   2.754   2.669
 1529SOL    MW4 6148   1.574   2.798   2.704
 1530SOL     OW 6149   1.602   3.061   2.601
 1530SOL    HW2 6150   1.680   3.102   2.639
 1530SOL    HW3 6151   1.600   2.974   2.641
 1530SOL    MW4 6152   1.612   3.055   2.611
 1531SOL     OW 6153   1.379   3.194   2.692
 1531SOL    HW2 6154   1.454   3.142   2.665
 1531SOL    HW3 6155   1.303   3.142   2.665
 1531SOL    MW4 6156   1.379   3.180   2.685
 1532SOL     OW 6157   1.333   3.476   2.592
 1532SOL    HW2 6158   1.356   3.390   2.625
 1532SOL    HW3 6159   1.271   3.510   2.657
 1532SOL    MW4 6160   1.328   3.469   2.605
 1533SOL     OW 6161   1.573   3.575   2.698
 1533SOL    HW2 6162   1.653   3.524   2.682
 1533SOL    HW3 6163   1.504   3.524   2.656
 1533SOL    MW4 6164   1.574   3.561   2.690
 1534SOL     OW 6165   1.564   3.836   2.604
 1534SOL    HW2 6166   1.489   3.880   2.644
 1534SOL    HW3 6167   1.565   3.749   2.644
 1534SOL    MW4 6168   1.554   3.830   2.615
 1535SOL     OW 6169   1.326   3.992   2.704
 1535SOL    HW2 6170   1.318   3.997   2.799
 1535SOL    HW3 6171   1.338   4.083   2.676
 1535SOL    MW4 6172   1.327   4.005   2.712
 1536SOL     OW 6173   1.362   4.224   2.567
 1536SOL    HW2 6174   1.302   4.291   2.599
 1536SOL    HW3 6175   1.343   4.218   2.473
 1536SOL    MW4 6176   1.352   4.232   2.559
 1537SOL     OW 6177   1.582   4.359   2.699
 1537SOL    HW2 6178   1.571   4.367   2.793
 1537SOL    HW3 6179   1.505   4.312   2.669
 1537SOL    MW4 6180   1.571   4.354   2.707
 1538SOL     OW 6181   1.997   4.623   2.527
 1538SOL    HW2 6182   2.079   4.665   2.551
 1538SOL    HW3 6183   1.996   4.626   2.431
 1538SOL    MW4 6184   2.008   4.629   2.517
 1539SOL     OW 6185   1.784   0.108   2.692
 1539SOL    HW2 6186   1.850   0.053   2.651
 1539SOL    HW3 6187   1.701   0.062   2.677
 1539SOL    MW4 6188   1.782   0.095   2.685
 1540SOL     OW 6189   1.789   0.362   2.596
 1540SOL    HW2 6190   1.863   0.390   2.650
 1540SOL    HW3 6191   1.776   0.270   2.618
 1540SOL    MW4 6192   1.797   0.354   2.606
 1541SOL     OW 6193   2.030   0.467   2.710
 1541SOL    HW2 6194   2.111   0.433   2.671
 1541SOL    HW3 6195   2.032   0.561   2.691
 1541SOL    MW4 6196   2.041   0.475   2.702
 1542SOL     OW 6197   2.059   0.722   2.614
 1542SOL    HW2 6198   1.977   0.771   2.624
 1542SOL    HW3 6199   2.066   0.706   2.520
 1542SOL    MW4 6200   2.049   0.727   2.603
 1543SOL     OW 6201   1.809   0.838   2.714
 1543SOL    HW2 6202   1.786   0.925   2.681
 1543SOL    HW3 6203   1.728   0.787   2.707
 1543SOL    MW4 6204   1.795   0.842   2.709
 1544SOL     OW 6205   1.797   1.110   2.648
 1544SOL    HW2 6206   1.856   1.176   2.684
 1544SOL    HW3 6207   1.832   1.091   2.561
 1544SOL    MW4 6208   1.810   1.116   2.641
 1545SOL     OW 6209   2.014   1.276   2.698
 1545SOL    HW2 6210   2.030   1.268   2.793
 1545SOL    HW3 6211   2.086   1.226   2.658
 1545SOL    MW4 6212   2.026   1.268   2.706
 1546SOL     OW 6213   2.015   1.547   2.613
 1546SOL    HW2 6214   1.930   1.577   2.645
 1546SOL    HW3 6215   2.019   1.455   2.638
 1546SOL    MW4 6216   2.005   1.539   2.621
 1547SOL     OW 6217   1.775   1.643   2.689
 1547SOL    HW2 6218   1.761   1.647   2.783
 1547SOL    HW3 6219   1.693   1.610   2.653
 1547SOL    MW4 6220   1.762   1.639   2.697
 1548SOL     OW 6221   1.814   1.898   2.603
 1548SOL    HW2 6222   1.885   1.936   2.655
 1548SOL    HW3 6223   1.803   1.810   2.638
 1548SOL    MW4 6224   1.822   1.891   2.614
 1549SOL     OW 6225   2.051   1.981   2.749
 1549SOL    HW2 6226   2.066   1.981   2.844
 1549SOL    HW3 6227   2.034   2.072   2.727
 1549SOL    MW4 6228   2.051   1.993   2.759
 1550SOL     OW 6229   2.047   2.251   2.661
 1550SOL    HW2 6230   2.123   2.293   2.701
 1550SOL    HW3 6231   2.049   2.279   2.570
 1550SOL    MW4 6232   2.057   2.260   2.654
 1551SOL     OW 6233   1.822   2.410   2.712
 1551SOL    HW2 6234   1.827   2.417   2.807
 1551SOL    HW3 6235   1.888   2.344   2.689
 1551SOL    MW4 6236   1.832   2.402   2.721
 1552SOL     OW 6237   1.792   2.681   2.628
 1552SOL    HW2 6238   1.798   2.590   2.655
 1552SOL    HW3 6239   1.793   2.679   2.533
 1552SOL    MW4 6240   1.793   2.669   2.619
 1553SOL     OW 6241   2.033   2.797   2.696
 1553SOL    HW2 6242   2.104   2.751   2.651
 1553SOL    HW3 6243   1.953   2.757   2.662
 1553SOL    MW4 6244   2.032   2.786   2.686
 1554SOL     OW 6245   2.018   3.068   2.660
 1554SOL    HW2 6246   2.034   2.974   2.670
 1554SOL    HW3 6247   2.020   3.083   2.565
 1554SOL    MW4 6248   2.020   3.058   2.649
 1555SOL     OW 6249   1.799   3.237   2.721
 1555SOL    HW2 6250   1.798   3.325   2.683
 1555SOL    HW3 6251   1.879   3.197   2.687
 1555SOL    MW4 6252   1.810   3.243   2.711
 1556SOL     OW 6253   1.809   3.474   2.586
 1556SOL    HW2 6254   1.880   3.523   2.629
 1556SOL    HW3 6255   1.824   3.488   2.492
 1556SOL    MW4 6256   1.821   3.483   2.579
 1557SOL     OW 6257   2.011   3.620   2.695
 1557SOL    HW2 6258   1.998   3.620   2.789
 1557SOL    HW3 6259   2.097   3.581   2.682
 1557SOL    MW4 6260   2.020   3.615   2.705
 1558SOL     OW 6261   2.032   3.878   2.572
 1558SOL    HW2 6262   1.945   3.903   2.603
 1558SOL    HW3 6263   2.045   3.790   2.606
 1558SOL    MW4 6264   2.023   3.870   2.581
 1559SOL     OW 6265   1.801   3.946   2.682
 1559SOL    HW2 6266   1.798   4.036   2.649
 1559SOL    HW3 6267   1.717   3.908   2.655
 1559SOL    MW4 6268   1.790   3.953   2.674
 1560SOL     OW 6269   1.810   4.222   2.603
 1560SOL    HW2 6270   1.742   4.277   2.641
 1560SOL    HW3 6271   1.805   4.238   2.509
 1560SOL    MW4 6272   1.801   4.232   2.596
 1561SOL     OW 6273   2.053   4.374   2.633
 1561SOL    HW2 6274   1.978   4.313   2.633
 1561SOL    HW3 6275   2.021   4.450   2.585
 1561SOL    MW4 6276   2.039   4.376   2.627
 1562SOL     OW 6277   2.476   4.657   2.603
 1562SOL    HW2 6278   2.546   4.710   2.641
 1562SOL    HW3 6279   2.494   4.659   2.509
 1562SOL    MW4 6280   2.488   4.664   2.595
 1563SOL     OW 6281   2.217   0.062   2.659
 1563SOL    HW2 6282   2.227   0.072   2.754
 1563SOL    HW3 6283   2.297   0.016   2.631
 1563SOL    MW4 6284   2.229   0.057   2.668
 1564SOL     OW 6285   2.265   0.330   2.585
 1564SOL    HW2 6286   2.246   0.242   2.618
 1564SOL    HW3 6287   2.269   0.319   2.490
 1564SOL    MW4 6288   2.263   0.317   2.577
 1565SOL     OW 6289   2.461   0.505   2.721
 1565SOL    HW2 6290   2.452   0.592   2.683
 1565SOL    HW3 6291   2.403   0.450   2.669
 1565SOL    MW4 6292   2.452   0.509   2.709
 1566SOL     OW 6293   2.457   0.761   2.588
 1566SOL    HW2 6294   2.390   0.819   2.624
 1566SOL    HW3 6295   2.449   0.771   2.493
 1566SOL    MW4 6296   2.447   0.770   2.580
 1567SOL     OW 6297   2.243   0.896   2.697
 1567SOL    HW2 6298   2.234   0.904   2.792
 1567SOL    HW3 6299   2.177   0.831   2.672
 1567SOL    MW4 6300   2.233   0.888   2.706
 1568SOL     OW 6301   2.238   1.148   2.588
 1568SOL    HW2 6302   2.231   1.064   2.634
 1568SOL    HW3 6303   2.228   1.126   2.496
 1568SOL    MW4 6304   2.235   1.134   2.582
 1569SOL     OW 6305   2.477   1.276   2.721
 1569SOL    HW2 6306   2.559   1.246   2.680
 1569SOL    HW3 6307   2.408   1.238   2.667
 1569SOL    MW4 6308   2.479   1.267   2.708
 1570SOL     OW 6309   2.484   1.541   2.628
 1570SOL    HW2 6310   2.408   1.588   2.662
 1570SOL    HW3 6311   2.474   1.452   2.663
 1570SOL    MW4 6312   2.473   1.536   2.637
 1571SOL     OW 6313   2.263   1.666   2.724
 1571SOL    HW2 6314   2.266   1.757   2.696
 1571SOL    HW3 6315   2.179   1.633   2.692
 1571SOL    MW4 6316   2.253   1.674   2.716
 1572SOL     OW 6317   2.276   1.928   2.617
 1572SOL    HW2 6318   2.195   1.952   2.663
 1572SOL    HW3 6319   2.257   1.946   2.525
 1572SOL    MW4 6320   2.263   1.934   2.611
 1573SOL     OW 6321   2.475   2.071   2.748
 1573SOL    HW2 6322   2.486   2.161   2.716
 1573SOL    HW3 6323   2.397   2.039   2.703
 1573SOL    MW4 6324   2.466   2.079   2.738
 1574SOL     OW 6325   2.457   2.323   2.611
 1574SOL    HW2 6326   2.535   2.370   2.640
 1574SOL    HW3 6327   2.475   2.299   2.520
 1574SOL    MW4 6328   2.470   2.326   2.603
 1575SOL     OW 6329   2.237   2.439   2.722
 1575SOL    HW2 6330   2.253   2.424   2.815
 1575SOL    HW3 6331   2.311   2.397   2.678
 1575SOL    MW4 6332   2.249   2.431   2.728
 1576SOL     OW 6333   2.255   2.674   2.575
 1576SOL    HW2 6334   2.321   2.720   2.627
 1576SOL    HW3 6335   2.243   2.590   2.620
 1576SOL    MW4 6336   2.262   2.669   2.587
 1577SOL     OW 6337   2.448   2.828   2.703
 1577SOL    HW2 6338   2.530   2.785   2.681
 1577SOL    HW3 6339   2.463   2.920   2.681
 1577SOL    MW4 6340   2.461   2.835   2.697
 1578SOL     OW 6341   2.472   3.101   2.608
 1578SOL    HW2 6342   2.398   3.142   2.653
 1578SOL    HW3 6343   2.445   3.095   2.517
 1578SOL    MW4 6344   2.459   3.106   2.602
 1579SOL     OW 6345   2.240   3.228   2.736
 1579SOL    HW2 6346   2.248   3.211   2.829
 1579SOL    HW3 6347   2.153   3.193   2.713
 1579SOL    MW4 6348   2.229   3.221   2.745
 1580SOL     OW 6349   2.254   3.485   2.621
 1580SOL    HW2 6350   2.324   3.539   2.659
 1580SOL    HW3 6351   2.257   3.403   2.670
 1580SOL    MW4 6352   2.264   3.482   2.633
 1581SOL     OW 6353   2.472   3.609   2.724
 1581SOL    HW2 6354   2.478   3.610   2.820
 1581SOL    HW3 6355   2.490   3.699   2.698
 1581SOL    MW4 6356   2.475   3.621   2.733
 1582SOL     OW 6357   2.534   3.852   2.615
 1582SOL    HW2 6358   2.599   3.904   2.661
 1582SOL    HW3 6359   2.451   3.898   2.631
 1582SOL    MW4 6360   2.531   3.865   2.623
 1583SOL     OW 6361   2.290   3.983   2.681
 1583SOL    HW2 6362   2.272   3.980   2.775
 1583SOL    HW3 6363   2.208   3.955   2.640
 1583SOL    MW4 6364   2.277   3.979   2.688
 1584SOL     OW 6365   2.321   4.254   2.603
 1584SOL    HW2 6366   2.305   4.166   2.638
 1584SOL    HW3 6367   2.237   4.300   2.613
 1584SOL    MW4 6368   2.308   4.249   2.609
 1585SOL     OW 6369   2.515   4.412   2.708
 1585SOL    HW2 6370   2.458   4.345   2.670
 1585SOL    HW3 6371   2.486   4.493   2.667
 1585SOL    MW4 6372   2.504   4.414   2.697
 1586SOL     OW 6373   2.883   4.625   2.602
 1586SOL    HW2 6374   2.964   4.665   2.635
 1586SOL    HW3 6375   2.894   4.624   2.507
 1586SOL    MW4 6376   2.895   4.630   2.594
 1587SOL     OW 6377   2.688   0.135   2.705
 1587SOL    HW2 6378   2.685   0.136   2.800
 1587SOL    HW3 6379   2.769   0.088   2.684
 1587SOL    MW4 6380   2.698   0.129   2.715
 1588SOL     OW 6381   2.704   0.395   2.620
 1588SOL    HW2 6382   2.686   0.307   2.654
 1588SOL    HW3 6383   2.628   0.447   2.647
 1588SOL    MW4 6384   2.692   0.390   2.628
 1589SOL     OW 6385   2.944   0.504   2.723
 1589SOL    HW2 6386   2.936   0.593   2.689
 1589SOL    HW3 6387   2.868   0.458   2.687
 1589SOL    MW4 6388   2.933   0.510   2.714
 1590SOL     OW 6389   2.925   0.767   2.599
 1590SOL    HW2 6390   3.004   0.812   2.627
 1590SOL    HW3 6391   2.854   0.818   2.637
 1590SOL    MW4 6392   2.926   0.779   2.607
 1591SOL     OW 6393   2.698   0.884   2.690
 1591SOL    HW2 6394   2.695   0.875   2.786
 1591SOL    HW3 6395   2.618   0.841   2.660
 1591SOL    MW4 6396   2.688   0.877   2.699
 1592SOL     OW 6397   2.699   1.172   2.621
 1592SOL    HW2 6398   2.783   1.203   2.654
 1592SOL    HW3 6399   2.699   1.078   2.639
 1592SOL    MW4 6400   2.710   1.164   2.627
 1593SOL     OW 6401   2.937   1.264   2.720
 1593SOL    HW2 6402   2.940   1.272   2.815
 1593SOL    HW3 6403   3.022   1.227   2.696
 1593SOL    MW4 6404   2.948   1.260   2.730
 1594SOL     OW 6405   2.949   1.519   2.637
 1594SOL    HW2 6406   2.883   1.571   2.683
 1594SOL    HW3 6407   2.944   1.433   2.677
 1594SOL    MW4 6408   2.940   1.515   2.648
 1595SOL     OW 6409   2.709   1.661   2.700
 1595SOL    HW2 6410   2.713   1.672   2.795
 1595SOL    HW3 6411   2.623   1.622   2.684
 1595SOL    MW4 6412   2.698   1.658   2.710
 1596SOL     OW 6413   2.712   1.935   2.625
 1596SOL    HW2 6414   2.705   1.843   2.650
 1596SOL    HW3 6415   2.636   1.977   2.666
 1596SOL    MW4 6416   2.701   1.929   2.633
 1597SOL     OW 6417   2.923   2.015   2.776
 1597SOL    HW2 6418   2.921   2.105   2.743
 1597SOL    HW3 6419   2.857   1.968   2.725
 1597SOL    MW4 6420   2.914   2.020   2.765
 1598SOL     OW 6421   2.915   2.268   2.648
 1598SOL    HW2 6422   2.984   2.323   2.684
 1598SOL    HW3 6423   2.834   2.311   2.675
 1598SOL    MW4 6424   2.913   2.281   2.656
 1599SOL     OW 6425   2.685   2.426   2.722
 1599SOL    HW2 6426   2.683   2.435   2.817
 1599SOL    HW3 6427   2.669   2.515   2.690
 1599SOL    MW4 6428   2.682   2.439   2.730
 1600SOL     OW 6429   2.663   2.683   2.638
 1600SOL    HW2 6430   2.750   2.718   2.656
 1600SOL    HW3 6431   2.654   2.688   2.543
 1600SOL    MW4 6432   2.673   2.688   2.628
 1601SOL     OW 6433   2.893   2.794   2.711
 1601SOL    HW2 6434   2.885   2.796   2.806
 1601SOL    HW3 6435   2.894   2.886   2.685
 1601SOL    MW4 6436   2.892   2.806   2.720
 1602SOL     OW 6437   2.903   3.058   2.618
 1602SOL    HW2 6438   2.834   3.113   2.654
 1602SOL    HW3 6439   2.887   3.058   2.523
 1602SOL    MW4 6440   2.892   3.065   2.610
 1603SOL     OW 6441   2.698   3.211   2.733
 1603SOL    HW2 6442   2.709   3.302   2.705
 1603SOL    HW3 6443   2.621   3.181   2.685
 1603SOL    MW4 6444   2.690   3.219   2.723
 1604SOL     OW 6445   2.708   3.477   2.639
 1604SOL    HW2 6446   2.637   3.538   2.656
 1604SOL    HW3 6447   2.705   3.462   2.544
 1604SOL    MW4 6448   2.699   3.483   2.628
 1605SOL     OW 6449   2.923   3.649   2.752
 1605SOL    HW2 6450   2.923   3.650   2.848
 1605SOL    HW3 6451   2.847   3.595   2.729
 1605SOL    MW4 6452   2.913   3.642   2.762
 1606SOL     OW 6453   2.930   3.866   2.573
 1606SOL    HW2 6454   2.978   3.923   2.633
 1606SOL    HW3 6455   2.921   3.784   2.621
 1606SOL    MW4 6456   2.935   3.863   2.588
 1607SOL     OW 6457   2.717   4.008   2.709
 1607SOL    HW2 6458   2.720   4.102   2.692
 1607SOL    HW3 6459   2.788   3.971   2.656
 1607SOL    MW4 6460   2.727   4.015   2.700
 1608SOL     OW 6461   2.724   4.256   2.601
 1608SOL    HW2 6462   2.798   4.271   2.659
 1608SOL    HW3 6463   2.666   4.331   2.616
 1608SOL    MW4 6464   2.726   4.268   2.611
 1609SOL     OW 6465   2.939   4.376   2.741
 1609SOL    HW2 6466   2.931   4.389   2.835
 1609SOL    HW3 6467   2.926   4.463   2.703
 1609SOL    MW4 6468   2.937   4.389   2.748
 1610SOL     OW 6469   3.331   4.649   2.591
 1610SOL    HW2 6470   3.334   4.562   2.631
 1610SOL    HW3 6471   3.257   4.692   2.633
 1610SOL    MW4 6472   3.322   4.643   2.602
 1611SOL     OW 6473   3.110   0.090   2.707
 1611SOL    HW2 6474   3.129   0.091   2.801
 1611SOL    HW3 6475   3.119   0.181   2.680
 1611SOL    MW4 6476   3.114   0.102   2.716
 1612SOL     OW 6477   3.148   0.348   2.621
 1612SOL    HW2 6478   3.077   0.409   2.639
 1612SOL    HW3 6479   3.170   0.363   2.529
 1612SOL    MW4 6480   3.142   0.358   2.611
 1613SOL     OW 6481   3.349   0.481   2.756
 1613SOL    HW2 6482   3.351   0.569   2.718
 1613SOL    HW3 6483   3.271   0.441   2.718
 1613SOL    MW4 6484   3.339   0.487   2.746
 1614SOL     OW 6485   3.355   0.726   2.674
 1614SOL    HW2 6486   3.438   0.746   2.718
 1614SOL    HW3 6487   3.372   0.742   2.581
 1614SOL    MW4 6488   3.368   0.731   2.668
 1615SOL     OW 6489   3.138   0.903   2.711
 1615SOL    HW2 6490   3.130   0.929   2.803
 1615SOL    HW3 6491   3.221   0.855   2.707
 1615SOL    MW4 6492   3.148   0.900   2.722
 1616SOL     OW 6493   3.197   1.148   2.609
 1616SOL    HW2 6494   3.181   1.063   2.649
 1616SOL    HW3 6495   3.168   1.137   2.518
 1616SOL    MW4 6496   3.191   1.136   2.602
 1617SOL     OW 6497   3.436   1.287   2.732
 1617SOL    HW2 6498   3.425   1.267   2.825
 1617SOL    HW3 6499   3.361   1.246   2.689
 1617SOL    MW4 6500   3.425   1.279   2.739
 1618SOL     OW 6501   3.391   1.556   2.626
 1618SOL    HW2 6502   3.320   1.597   2.675
 1618SOL    HW3 6503   3.402   1.469   2.666
 1618SOL    MW4 6504   3.383   1.550   2.638
 1619SOL     OW 6505   3.157   1.687   2.748
 1619SOL    HW2 6506   3.153   1.776   2.713
 1619SOL    HW3 6507   3.088   1.639   2.701
 1619SOL    MW4 6508   3.147   1.692   2.737
 1620SOL     OW 6509   3.172   1.936   2.636
 1620SOL    HW2 6510   3.245   1.986   2.674
 1620SOL    HW3 6511   3.094   1.976   2.673
 1620SOL    MW4 6512   3.171   1.948   2.646
 1621SOL     OW 6513   3.389   2.076   2.753
 1621SOL    HW2 6514   3.378   2.073   2.848
 1621SOL    HW3 6515   3.393   2.170   2.732
 1621SOL    MW4 6516   3.388   2.088   2.762
 1622SOL     OW 6517   3.364   2.335   2.603
 1622SOL    HW2 6518   3.442   2.375   2.641
 1622SOL    HW3 6519   3.384   2.326   2.510
 1622SOL    MW4 6520   3.377   2.339   2.596
 1623SOL     OW 6521   3.127   2.419   2.747
 1623SOL    HW2 6522   3.114   2.512   2.728
 1623SOL    HW3 6523   3.198   2.393   2.689
 1623SOL    MW4 6524   3.135   2.428   2.737
 1624SOL     OW 6525   3.143   2.686   2.683
 1624SOL    HW2 6526   3.219   2.738   2.706
 1624SOL    HW3 6527   3.069   2.735   2.717
 1624SOL    MW4 6528   3.143   2.699   2.690
 1625SOL     OW 6529   3.354   2.834   2.740
 1625SOL    HW2 6530   3.362   2.810   2.833
 1625SOL    HW3 6531   3.431   2.794   2.699
 1625SOL    MW4 6532   3.365   2.825   2.747
 1626SOL     OW 6533   3.334   3.102   2.655
 1626SOL    HW2 6534   3.343   3.014   2.691
 1626SOL    HW3 6535   3.325   3.089   2.561
 1626SOL    MW4 6536   3.334   3.089   2.648
 1627SOL     OW 6537   3.099   3.230   2.702
 1627SOL    HW2 6538   3.174   3.178   2.674
 1627SOL    HW3 6539   3.023   3.172   2.689
 1627SOL    MW4 6540   3.099   3.216   2.696
 1628SOL     OW 6541   3.108   3.491   2.602
 1628SOL    HW2 6542   3.102   3.405   2.643
 1628SOL    HW3 6543   3.043   3.544   2.648
 1628SOL    MW4 6544   3.099   3.487   2.614
 1629SOL     OW 6545   3.355   3.634   2.678
 1629SOL    HW2 6546   3.360   3.627   2.774
 1629SOL    HW3 6547   3.279   3.581   2.655
 1629SOL    MW4 6548   3.346   3.626   2.688
 1630SOL     OW 6549   3.352   3.910   2.637
 1630SOL    HW2 6550   3.341   3.817   2.659
 1630SOL    HW3 6551   3.380   3.909   2.545
 1630SOL    MW4 6552   3.354   3.897   2.628
 1631SOL     OW 6553   3.105   3.994   2.734
 1631SOL    HW2 6554   3.096   4.086   2.708
 1631SOL    HW3 6555   3.182   3.963   2.686
 1631SOL    MW4 6556   3.114   4.002   2.724
 1632SOL     OW 6557   3.147   4.243   2.614
 1632SOL    HW2 6558   3.082   4.299   2.655
 1632SOL    HW3 6559   3.137   4.259   2.520
 1632SOL    MW4 6560   3.137   4.252   2.607
 1633SOL     OW 6561   3.392   4.386   2.688
 1633SOL    HW2 6562   3.397   4.402   2.782
 1633SOL    HW3 6563   3.318   4.326   2.677
 1633SOL    MW4 6564   3.383   4.380   2.699
 1634SOL     OW 6565   3.811   0.001   2.623
 1634SOL    HW2 6566   3.817  -0.079   2.675
 1634SOL    HW3 6567   3.726   0.038   2.646
 1634SOL    MW4 6568   3.801  -0.005   2.633
 1635SOL     OW 6569   3.560   0.087   2.712
 1635SOL    HW2 6570   3.562   0.179   2.684
 1635SOL    HW3 6571   3.497   0.045   2.654
 1635SOL    MW4 6572   3.552   0.094   2.701
 1636SOL     OW 6573   3.563   0.349   2.632
 1636SOL    HW2 6574   3.638   0.404   2.654
 1636SOL    HW3 6575   3.489   0.388   2.679
 1636SOL    MW4 6576   3.563   0.361   2.641
 1637SOL     OW 6577   3.804   0.457   2.709
 1637SOL    HW2 6578   3.810   0.481   2.801
 1637SOL    HW3 6579   3.889   0.419   2.689
 1637SOL    MW4 6580   3.816   0.455   2.718
 1638SOL     OW 6581   3.816   0.719   2.625
 1638SOL    HW2 6582   3.735   0.753   2.665
 1638SOL    HW3 6583   3.817   0.626   2.648
 1638SOL    MW4 6584   3.805   0.711   2.633
 1639SOL     OW 6585   3.598   0.832   2.751
 1639SOL    HW2 6586   3.601   0.843   2.846
 1639SOL    HW3 6587   3.622   0.918   2.716
 1639SOL    MW4 6588   3.601   0.845   2.759
 1640SOL     OW 6589   3.648   1.103   2.651
 1640SOL    HW2 6590   3.719   1.153   2.691
 1640SOL    HW3 6591   3.569   1.151   2.675
 1640SOL    MW4 6592   3.647   1.116   2.659
 1641SOL     OW 6593   3.868   1.254   2.752
 1641SOL    HW2 6594   3.941   1.198   2.725
 1641SOL    HW3 6595   3.879   1.334   2.700
 1641SOL    MW4 6596   3.879   1.257   2.742
 1642SOL     OW 6597   3.828   1.508   2.628
 1642SOL    HW2 6598   3.903   1.563   2.651
 1642SOL    HW3 6599   3.752   1.554   2.665
 1642SOL    MW4 6600   3.828   1.522   2.636
 1643SOL     OW 6601   3.625   1.688   2.694
 1643SOL    HW2 6602   3.630   1.780   2.668
 1643SOL    HW3 6603   3.536   1.661   2.671
 1643SOL    MW4 6604   3.614   1.696   2.688
 1644SOL     OW 6605   3.615   1.962   2.601
 1644SOL    HW2 6606   3.524   1.975   2.626
 1644SOL    HW3 6607   3.614   1.958   2.506
 1644SOL    MW4 6608   3.603   1.963   2.592
 1645SOL     OW 6609   3.813   2.087   2.735
 1645SOL    HW2 6610   3.884   2.037   2.695
 1645SOL    HW3 6611   3.734   2.052   2.694
 1645SOL    MW4 6612   3.812   2.076   2.725
 1646SOL     OW 6613   3.846   2.336   2.623
 1646SOL    HW2 6614   3.838   2.247   2.657
 1646SOL    HW3 6615   3.832   2.327   2.529
 1646SOL    MW4 6616   3.843   2.323   2.615
 1647SOL     OW 6617   3.597   2.437   2.724
 1647SOL    HW2 6618   3.612   2.459   2.816
 1647SOL    HW3 6619   3.684   2.433   2.685
 1647SOL    MW4 6620   3.610   2.439   2.731
 1648SOL     OW 6621   3.558   2.689   2.629
 1648SOL    HW2 6622   3.561   2.596   2.655
 1648SOL    HW3 6623   3.542   2.687   2.535
 1648SOL    MW4 6624   3.557   2.676   2.620
 1649SOL     OW 6625   3.797   2.798   2.712
 1649SOL    HW2 6626   3.861   2.734   2.681
 1649SOL    HW3 6627   3.713   2.767   2.677
 1649SOL    MW4 6628   3.794   2.786   2.704
 1650SOL     OW 6629   3.798   3.072   2.643
 1650SOL    HW2 6630   3.722   3.114   2.685
 1650SOL    HW3 6631   3.800   2.984   2.681
 1650SOL    MW4 6632   3.788   3.066   2.654
 1651SOL     OW 6633   3.587   3.221   2.723
 1651SOL    HW2 6634   3.585   3.303   2.674
 1651SOL    HW3 6635   3.508   3.175   2.696
 1651SOL    MW4 6636   3.576   3.226   2.713
 1652SOL     OW 6637   3.578   3.478   2.608
 1652SOL    HW2 6638   3.648   3.527   2.651
 1652SOL    HW3 6639   3.497   3.515   2.644
 1652SOL    MW4 6640   3.576   3.489   2.619
 1653SOL     OW 6641   3.807   3.620   2.709
 1653SOL    HW2 6642   3.888   3.586   2.669
 1653SOL    HW3 6643   3.790   3.702   2.663
 1653SOL    MW4 6644   3.816   3.626   2.698
 1654SOL     OW 6645   3.807   3.879   2.577
 1654SOL    HW2 6646   3.878   3.905   2.636
 1654SOL    HW3 6647   3.730   3.923   2.611
 1654SOL    MW4 6648   3.806   3.888   2.589
 1655SOL     OW 6649   3.599   4.012   2.748
 1655SOL    HW2 6650   3.618   4.100   2.716
 1655SOL    HW3 6651   3.518   3.987   2.703
 1655SOL    MW4 6652   3.591   4.020   2.738
 1656SOL     OW 6653   3.645   4.245   2.621
 1656SOL    HW2 6654   3.562   4.286   2.646
 1656SOL    HW3 6655   3.646   4.249   2.525
 1656SOL    MW4 6656   3.634   4.251   2.612
 1657SOL     OW 6657   3.859   4.404   2.741
 1657SOL    HW2 6658   3.941   4.363   2.714
 1657SOL    HW3 6659   3.791   4.343   2.713
 1657SOL    MW4 6660   3.861   4.391   2.734
 1658SOL     OW 6661   4.275   4.642   2.623
 1658SOL    HW2 6662   4.199   4.686   2.662
 1658SOL    HW3 6663   4.351   4.685   2.662
 1658SOL    MW4 6664   4.275   4.653   2.633
 1659SOL     OW 6665   4.047   0.087   2.720
 1659SOL    HW2 6666   4.032   0.101   2.813
 1659SOL    HW3 6667   3.961   0.064   2.685
 1659SOL    MW4 6668   4.034   0.086   2.728
 1660SOL     OW 6669   4.044   0.350   2.630
 1660SOL    HW2 6670   4.051   0.258   2.656
 1660SOL    HW3 6671   4.066   0.350   2.537
 1660SOL    MW4 6672   4.048   0.338   2.621
 1661SOL     OW 6673   4.264   0.480   2.733
 1661SOL    HW2 6674   4.200   0.417   2.701
 1661SOL    HW3 6675   4.348   0.446   2.703
 1661SOL    MW4 6676   4.267   0.467   2.725
 1662SOL     OW 6677   4.250   0.738   2.651
 1662SOL    HW2 6678   4.256   0.643   2.666
 1662SOL    HW3 6679   4.239   0.747   2.557
 1662SOL    MW4 6680   4.249   0.726   2.641
 1663SOL     OW 6681   4.006   0.873   2.755
 1663SOL    HW2 6682   4.093   0.836   2.742
 1663SOL    HW3 6683   3.946   0.807   2.719
 1663SOL    MW4 6684   4.009   0.859   2.749
 1664SOL     OW 6685   4.071   1.084   2.606
 1664SOL    HW2 6686   4.138   1.119   2.666
 1664SOL    HW3 6687   4.044   1.002   2.646
 1664SOL    MW4 6688   4.077   1.078   2.619
 1665SOL     OW 6689   4.266   1.231   2.723
 1665SOL    HW2 6690   4.258   1.320   2.690
 1665SOL    HW3 6691   4.346   1.197   2.682
 1665SOL    MW4 6692   4.276   1.238   2.714
 1666SOL     OW 6693   4.238   1.493   2.635
 1666SOL    HW2 6694   4.317   1.543   2.658
 1666SOL    HW3 6695   4.234   1.497   2.540
 1666SOL    MW4 6696   4.248   1.500   2.626
 1667SOL     OW 6697   4.032   1.682   2.698
 1667SOL    HW2 6698   4.026   1.684   2.794
 1667SOL    HW3 6699   4.091   1.609   2.679
 1667SOL    MW4 6700   4.039   1.673   2.708
 1668SOL     OW 6701   4.024   1.947   2.625
 1668SOL    HW2 6702   4.103   1.989   2.658
 1668SOL    HW3 6703   4.032   1.856   2.653
 1668SOL    MW4 6704   4.035   1.940   2.633
 1669SOL     OW 6705   4.254   2.078   2.730
 1669SOL    HW2 6706   4.270   2.158   2.681
 1669SOL    HW3 6707   4.332   2.024   2.715
 1669SOL    MW4 6708   4.266   2.081   2.721
 1670SOL     OW 6709   4.278   2.308   2.584
 1670SOL    HW2 6710   4.197   2.347   2.617
 1670SOL    HW3 6711   4.260   2.289   2.492
 1670SOL    MW4 6712   4.265   2.310   2.577
 1671SOL     OW 6713   4.078   2.434   2.724
 1671SOL    HW2 6714   4.061   2.436   2.818
 1671SOL    HW3 6715   3.997   2.397   2.686
 1671SOL    MW4 6716   4.065   2.429   2.731
 1672SOL     OW 6717   4.030   2.666   2.593
 1672SOL    HW2 6718   4.088   2.732   2.631
 1672SOL    HW3 6719   4.054   2.585   2.637
 1672SOL    MW4 6720   4.041   2.664   2.604
 1673SOL     OW 6721   4.212   2.853   2.726
 1673SOL    HW2 6722   4.234   2.853   2.819
 1673SOL    HW3 6723   4.226   2.944   2.698
 1673SOL    MW4 6724   4.217   2.865   2.735
 1674SOL     OW 6725   4.258   3.110   2.627
 1674SOL    HW2 6726   4.186   3.160   2.665
 1674SOL    HW3 6727   4.233   3.098   2.535
 1674SOL    MW4 6728   4.245   3.115   2.620
 1675SOL     OW 6729   4.017   3.233   2.729
 1675SOL    HW2 6730   4.014   3.322   2.693
 1675SOL    HW3 6731   3.939   3.190   2.693
 1675SOL    MW4 6732   4.006   3.239   2.720
 1676SOL     OW 6733   4.020   3.476   2.611
 1676SOL    HW2 6734   4.099   3.528   2.625
 1676SOL    HW3 6735   4.015   3.463   2.516
 1676SOL    MW4 6736   4.030   3.481   2.600
 1677SOL     OW 6737   4.236   3.603   2.722
 1677SOL    HW2 6738   4.246   3.594   2.817
 1677SOL    HW3 6739   4.322   3.581   2.687
 1677SOL    MW4 6740   4.249   3.599   2.730
 1678SOL     OW 6741   4.276   3.876   2.621
 1678SOL    HW2 6742   4.273   3.786   2.653
 1678SOL    HW3 6743   4.348   3.916   2.669
 1678SOL    MW4 6744   4.285   3.869   2.631
 1679SOL     OW 6745   4.025   3.968   2.709
 1679SOL    HW2 6746   4.051   3.995   2.797
 1679SOL    HW3 6747   4.107   3.946   2.666
 1679SOL    MW4 6748   4.039   3.969   2.715
 1680SOL     OW 6749   4.057   4.244   2.649
 1680SOL    HW2 6750   4.035   4.156   2.681
 1680SOL    HW3 6751   4.042   4.240   2.554
 1680SOL    MW4 6752   4.052   4.232   2.641
 1681SOL     OW 6753   4.267   4.398   2.777
 1681SOL    HW2 6754   4.195   4.350   2.735
 1681SOL    HW3 6755   4.274   4.479   2.727
 1681SOL    MW4 6756   4.259   4.402   2.765
 1682SOL     OW 6757   0.197   4.667   3.064
 1682SOL    HW2 6758   0.190   4.663   3.160
 1682SOL    HW3 6759   0.126   4.725   3.038
 1682SOL    MW4 6760   0.187   4.674   3.073
 1683SOL     OW 6761   0.001   0.157   2.971
 1683SOL    HW2 6762  -0.065   0.114   3.025
 1683SOL    HW3 6763  -0.011   0.250   2.990
 1683SOL    MW4 6764  -0.010   0.164   2.981
 1684SOL     OW 6765   4.472   0.400   3.098
 1684SOL    HW2 6766   4.479   0.396   3.194
 1684SOL    HW3 6767   4.386   0.439   3.082
 1684SOL    MW4 6768   4.462   0.405   3.109
 1685SOL     OW 6769   0.208   0.525   2.977
 1685SOL    HW2 6770   0.285   0.479   3.012
 1685SOL    HW3 6771   0.134   0.485   3.022
 1685SOL    MW4 6772   0.209   0.513   2.987
 1686SOL     OW 6773   0.146   0.786   3.078
 1686SOL    HW2 6774   0.180   0.777   3.167
 1686SOL    HW3 6775   0.168   0.703   3.035
 1686SOL    MW4 6776   0.153   0.773   3.084
 1687SOL     OW 6777   4.436   0.934   2.978
 1687SOL    HW2 6778   4.499   0.881   3.028
 1687SOL    HW3 6779   4.453   0.912   2.887
 1687SOL    MW4 6780   4.447   0.924   2.972
 1688SOL     OW 6781   0.004   1.181   3.128
 1688SOL    HW2 6782  -0.055   1.248   3.092
 1688SOL    HW3 6783  -0.028   1.099   3.091
 1688SOL    MW4 6784  -0.008   1.179   3.118
 1689SOL     OW 6785   0.260   1.284   3.025
 1689SOL    HW2 6786   0.181   1.251   3.068
 1689SOL    HW3 6787   0.244   1.272   2.932
 1689SOL    MW4 6788   0.247   1.278   3.019
 1690SOL     OW 6789   0.229   1.541   3.144
 1690SOL    HW2 6790   0.159   1.573   3.087
 1690SOL    HW3 6791   0.240   1.449   3.118
 1690SOL    MW4 6792   0.221   1.533   3.133
 1691SOL     OW 6793   0.030   1.666   2.987
 1691SOL    HW2 6794  -0.044   1.618   3.025
 1691SOL    HW3 6795   0.012   1.758   3.008
 1691SOL    MW4 6796   0.018   1.672   2.995
 1692SOL     OW 6797   4.485   1.924   3.075
 1692SOL    HW2 6798   4.408   1.976   3.055
 1692SOL    HW3 6799   4.558   1.975   3.040
 1692SOL    MW4 6800   4.484   1.938   3.068
 1693SOL     OW 6801   0.238   2.053   2.979
 1693SOL    HW2 6802   0.234   2.144   3.009
 1693SOL    HW3 6803   0.228   2.059   2.884
 1693SOL    MW4 6804   0.236   2.066   2.971
 1694SOL     OW 6805   0.198   2.312   3.053
 1694SOL    HW2 6806   0.197   2.309   3.149
 1694SOL    HW3 6807   0.282   2.352   3.031
 1694SOL    MW4 6808   0.209   2.317   3.063
 1695SOL     OW 6809   4.485   2.458   2.947
 1695SOL    HW2 6810   4.484   2.537   3.001
 1695SOL    HW3 6811   4.548   2.399   2.990
 1695SOL    MW4 6812   4.493   2.460   2.959
 1696SOL     OW 6813   0.001   2.699   3.091
 1696SOL    HW2 6814   0.005   2.702   3.186
 1696SOL    HW3 6815   0.085   2.735   3.063
 1696SOL    MW4 6816   0.013   2.704   3.100
 1697SOL     OW 6817   0.233   2.826   2.983
 1697SOL    HW2 6818   0.300   2.770   3.022
 1697SOL    HW3 6819   0.238   2.806   2.889
 1697SOL    MW4 6820   0.243   2.816   2.976
 1698SOL     OW 6821   0.209   3.071   3.105
 1698SOL    HW2 6822   0.136   3.111   3.057
 1698SOL    HW3 6823   0.220   2.985   3.063
 1698SOL    MW4 6824   0.201   3.065   3.093
 1699SOL     OW 6825   0.003   3.189   2.960
 1699SOL    HW2 6826  -0.073   3.138   2.989
 1699SOL    HW3 6827  -0.015   3.209   2.869
 1699SOL    MW4 6828  -0.010   3.185   2.952
 1700SOL     OW 6829   0.004   3.425   3.115
 1700SOL    HW2 6830  -0.055   3.483   3.066
 1700SOL    HW3 6831  -0.002   3.341   3.070
 1700SOL    MW4 6832  -0.005   3.422   3.103
 1701SOL     OW 6833   0.219   3.593   3.018
 1701SOL    HW2 6834   0.217   3.683   3.053
 1701SOL    HW3 6835   0.149   3.548   3.066
 1701SOL    MW4 6836   0.209   3.599   3.029
 1702SOL     OW 6837   0.219   3.852   3.092
 1702SOL    HW2 6838   0.225   3.835   3.186
 1702SOL    HW3 6839   0.289   3.916   3.075
 1702SOL    MW4 6840   0.229   3.858   3.102
 1703SOL     OW 6841   0.007   4.016   2.982
 1703SOL    HW2 6842   0.084   3.978   3.024
 1703SOL    HW3 6843   0.027   4.012   2.888
 1703SOL    MW4 6844   0.020   4.010   2.975
 1704SOL     OW 6845   0.029   4.263   3.122
 1704SOL    HW2 6846  -0.001   4.241   3.210
 1704SOL    HW3 6847   0.021   4.181   3.073
 1704SOL    MW4 6848   0.024   4.249   3.127
 1705SOL     OW 6849   0.247   4.409   3.010
 1705SOL    HW2 6850   0.174   4.366   3.055
 1705SOL    HW3 6851   0.231   4.503   3.023
 1705SOL    MW4 6852   0.235   4.416   3.017
 1706SOL     OW 6853   0.664   4.657   3.140
 1706SOL    HW2 6854   0.672   4.568   3.107
 1706SOL    HW3 6855   0.579   4.688   3.108
 1706SOL    MW4 6856   0.654   4.649   3.131
 1707SOL     OW 6857   0.438   0.108   3.043
 1707SOL    HW2 6858   0.429   0.197   3.076
 1707SOL    HW3 6859   0.351   0.070   3.050
 1707SOL    MW4 6860   0.425   0.115   3.048
 1708SOL     OW 6861   0.424   0.381   3.086
 1708SOL    HW2 6862   0.436   0.406   3.178
 1708SOL    HW3 6863   0.509   0.397   3.045
 1708SOL    MW4 6864   0.436   0.386   3.093
 1709SOL     OW 6865   0.659   0.506   2.975
 1709SOL    HW2 6866   0.729   0.455   3.016
 1709SOL    HW3 6867   0.654   0.586   3.027
 1709SOL    MW4 6868   0.668   0.510   2.987
 1710SOL     OW 6869   0.646   0.773   3.095
 1710SOL    HW2 6870   0.659   0.800   3.186
 1710SOL    HW3 6871   0.564   0.816   3.069
 1710SOL    MW4 6872   0.637   0.783   3.104
 1711SOL     OW 6873   0.402   0.899   2.997
 1711SOL    HW2 6874   0.314   0.862   3.003
 1711SOL    HW3 6875   0.419   0.907   2.903
 1711SOL    MW4 6876   0.393   0.895   2.985
 1712SOL     OW 6877   0.470   1.148   3.117
 1712SOL    HW2 6878   0.471   1.058   3.084
 1712SOL    HW3 6879   0.389   1.185   3.083
 1712SOL    MW4 6880   0.460   1.141   3.108
 1713SOL     OW 6881   0.640   1.272   2.938
 1713SOL    HW2 6882   0.717   1.234   2.979
 1713SOL    HW3 6883   0.566   1.242   2.992
 1713SOL    MW4 6884   0.640   1.263   2.950
 1714SOL     OW 6885   0.633   1.510   3.057
 1714SOL    HW2 6886   0.627   1.492   3.151
 1714SOL    HW3 6887   0.652   1.424   3.017
 1714SOL    MW4 6888   0.635   1.496   3.064
 1715SOL     OW 6889   0.434   1.670   2.981
 1715SOL    HW2 6890   0.513   1.618   2.997
 1715SOL    HW3 6891   0.363   1.620   3.022
 1715SOL    MW4 6892   0.435   1.656   2.989
 1716SOL     OW 6893   0.441   1.934   3.098
 1716SOL    HW2 6894   0.444   1.850   3.052
 1716SOL    HW3 6895   0.368   1.981   3.058
 1716SOL    MW4 6896   0.432   1.929   3.087
 1717SOL     OW 6897   0.681   2.015   2.967
 1717SOL    HW2 6898   0.753   2.002   3.028
 1717SOL    HW3 6899   0.603   1.992   3.017
 1717SOL    MW4 6900   0.680   2.010   2.982
 1718SOL     OW 6901   0.634   2.278   3.051
 1718SOL    HW2 6902   0.632   2.261   3.146
 1718SOL    HW3 6903   0.642   2.192   3.011
 1718SOL    MW4 6904   0.635   2.265   3.059
 1719SOL     OW 6905   0.446   2.457   2.982
 1719SOL    HW2 6906   0.524   2.411   3.012
 1719SOL    HW3 6907   0.455   2.462   2.887
 1719SOL    MW4 6908   0.457   2.452   2.974
 1720SOL     OW 6909   0.436   2.681   3.126
 1720SOL    HW2 6910   0.519   2.722   3.102
 1720SOL    HW3 6911   0.440   2.594   3.088
 1720SOL    MW4 6912   0.447   2.675   3.118
 1721SOL     OW 6913   0.670   2.791   3.003
 1721SOL    HW2 6914   0.752   2.748   3.024
 1721SOL    HW3 6915   0.675   2.876   3.046
 1721SOL    MW4 6916   0.682   2.797   3.011
 1722SOL     OW 6917   0.706   3.058   3.112
 1722SOL    HW2 6918   0.723   3.072   3.205
 1722SOL    HW3 6919   0.632   3.116   3.093
 1722SOL    MW4 6920   0.698   3.068   3.122
 1723SOL     OW 6921   0.471   3.199   3.021
 1723SOL    HW2 6922   0.459   3.291   3.042
 1723SOL    HW3 6923   0.399   3.155   3.066
 1723SOL    MW4 6924   0.460   3.205   3.030
 1724SOL     OW 6925   0.444   3.471   3.097
 1724SOL    HW2 6926   0.436   3.482   3.192
 1724SOL    HW3 6927   0.364   3.511   3.062
 1724SOL    MW4 6928   0.432   3.478   3.105
 1725SOL     OW 6929   0.673   3.621   3.022
 1725SOL    HW2 6930   0.749   3.567   3.045
 1725SOL    HW3 6931   0.598   3.572   3.055
 1725SOL    MW4 6932   0.673   3.607   3.029
 1726SOL     OW 6933   0.672   3.900   3.101
 1726SOL    HW2 6934   0.700   3.910   3.192
 1726SOL    HW3 6935   0.671   3.806   3.087
 1726SOL    MW4 6936   0.676   3.889   3.111
 1727SOL     OW 6937   0.428   4.010   3.022
 1727SOL    HW2 6938   0.498   3.956   3.060
 1727SOL    HW3 6939   0.450   4.014   2.929
 1727SOL    MW4 6940   0.440   4.003   3.015
 1728SOL     OW 6941   0.471   4.274   3.105
 1728SOL    HW2 6942   0.466   4.182   3.078
 1728SOL    HW3 6943   0.394   4.315   3.066
 1728SOL    MW4 6944   0.460   4.267   3.096
 1729SOL     OW 6945   0.687   4.426   3.004
 1729SOL    HW2 6946   0.613   4.383   3.047
 1729SOL    HW3 6947   0.667   4.421   2.911
 1729SOL    MW4 6948   0.675   4.420   2.998
 1730SOL     OW 6949   1.136   0.015   3.133
 1730SOL    HW2 6950   1.202   0.075   3.098
 1730SOL    HW3 6951   1.053   0.045   3.094
 1730SOL    MW4 6952   1.134   0.027   3.123
 1731SOL     OW 6953   0.899   0.109   3.010
 1731SOL    HW2 6954   0.879   0.200   3.032
 1731SOL    HW3 6955   0.827   0.059   3.049
 1731SOL    MW4 6956   0.887   0.114   3.018
 1732SOL     OW 6957   0.887   0.380   3.061
 1732SOL    HW2 6958   0.891   0.410   3.152
 1732SOL    HW3 6959   0.950   0.434   3.015
 1732SOL    MW4 6960   0.896   0.391   3.067
 1733SOL     OW 6961   1.108   0.524   2.972
 1733SOL    HW2 6962   1.166   0.473   3.027
 1733SOL    HW3 6963   1.127   0.495   2.883
 1733SOL    MW4 6964   1.118   0.514   2.967
 1734SOL     OW 6965   1.089   0.799   3.046
 1734SOL    HW2 6966   1.086   0.802   3.141
 1734SOL    HW3 6967   1.075   0.706   3.025
 1734SOL    MW4 6968   1.086   0.787   3.056
 1735SOL     OW 6969   0.848   0.906   2.948
 1735SOL    HW2 6970   0.930   0.878   2.989
 1735SOL    HW3 6971   0.780   0.860   2.996
 1735SOL    MW4 6972   0.850   0.896   2.960
 1736SOL     OW 6973   0.873   1.170   3.057
 1736SOL    HW2 6974   0.957   1.195   3.020
 1736SOL    HW3 6975   0.861   1.079   3.032
 1736SOL    MW4 6976   0.882   1.162   3.049
 1737SOL     OW 6977   1.106   1.267   2.939
 1737SOL    HW2 6978   1.190   1.224   2.956
 1737SOL    HW3 6979   1.106   1.284   2.845
 1737SOL    MW4 6980   1.117   1.264   2.929
 1738SOL     OW 6981   1.086   1.519   3.069
 1738SOL    HW2 6982   1.164   1.556   3.027
 1738SOL    HW3 6983   1.080   1.430   3.032
 1738SOL    MW4 6984   1.096   1.512   3.058
 1739SOL     OW 6985   0.859   1.656   3.031
 1739SOL    HW2 6986   0.938   1.608   3.056
 1739SOL    HW3 6987   0.786   1.600   3.058
 1739SOL    MW4 6988   0.860   1.642   3.038
 1740SOL     OW 6989   0.914   1.923   3.127
 1740SOL    HW2 6990   0.917   1.921   3.223
 1740SOL    HW3 6991   0.882   1.836   3.102
 1740SOL    MW4 6992   0.910   1.911   3.136
 1741SOL     OW 6993   1.139   2.043   3.042
 1741SOL    HW2 6994   1.065   1.994   3.078
 1741SOL    HW3 6995   1.127   2.039   2.947
 1741SOL    MW4 6996   1.128   2.036   3.034
 1742SOL     OW 6997   1.124   2.314   3.089
 1742SOL    HW2 6998   1.043   2.353   3.054
 1742SOL    HW3 6999   1.115   2.220   3.070
 1742SOL    MW4 7000   1.112   2.307   3.082
 1743SOL     OW 7001   0.883   2.410   3.002
 1743SOL    HW2 7002   0.802   2.364   3.024
 1743SOL    HW3 7003   0.888   2.404   2.907
 1743SOL    MW4 7004   0.873   2.403   2.992
 1744SOL     OW 7005   0.916   2.685   3.079
 1744SOL    HW2 7006   0.897   2.674   3.172
 1744SOL    HW3 7007   0.924   2.595   3.045
 1744SOL    MW4 7008   0.915   2.671   3.086
 1745SOL     OW 7009   1.135   2.818   2.966
 1745SOL    HW2 7010   1.142   2.910   2.991
 1745SOL    HW3 7011   1.057   2.787   3.012
 1745SOL    MW4 7012   1.125   2.826   2.976
 1746SOL     OW 7013   1.133   3.067   3.099
 1746SOL    HW2 7014   1.211   3.119   3.081
 1746SOL    HW3 7015   1.060   3.124   3.074
 1746SOL    MW4 7016   1.133   3.081   3.094
 1747SOL     OW 7017   0.915   3.208   3.001
 1747SOL    HW2 7018   0.836   3.164   3.032
 1747SOL    HW3 7019   0.910   3.201   2.906
 1747SOL    MW4 7020   0.904   3.201   2.992
 1748SOL     OW 7021   0.904   3.467   3.099
 1748SOL    HW2 7022   0.972   3.517   3.055
 1748SOL    HW3 7023   0.900   3.384   3.052
 1748SOL    MW4 7024   0.912   3.463   3.087
 1749SOL     OW 7025   1.115   3.635   2.971
 1749SOL    HW2 7026   1.186   3.588   3.015
 1749SOL    HW3 7027   1.118   3.723   3.008
 1749SOL    MW4 7028   1.125   3.641   2.982
 1750SOL     OW 7029   1.129   3.883   3.085
 1750SOL    HW2 7030   1.108   3.877   3.178
 1750SOL    HW3 7031   1.056   3.931   3.047
 1750SOL    MW4 7032   1.117   3.889   3.092
 1751SOL     OW 7033   0.899   4.028   2.995
 1751SOL    HW2 7034   0.815   3.990   3.020
 1751SOL    HW3 7035   0.900   4.023   2.899
 1751SOL    MW4 7036   0.888   4.022   2.985
 1752SOL     OW 7037   0.926   4.293   3.060
 1752SOL    HW2 7038   0.923   4.202   3.031
 1752SOL    HW3 7039   0.836   4.325   3.050
 1752SOL    MW4 7040   0.914   4.286   3.055
 1753SOL     OW 7041   1.128   4.443   2.963
 1753SOL    HW2 7042   1.056   4.392   3.000
 1753SOL    HW3 7043   1.147   4.509   3.030
 1753SOL    MW4 7044   1.121   4.445   2.977
 1754SOL     OW 7045   1.601   4.661   3.082
 1754SOL    HW2 7046   1.598   4.661   3.178
 1754SOL    HW3 7047   1.522   4.708   3.055
 1754SOL    MW4 7048   1.590   4.667   3.091
 1755SOL     OW 7049   1.356   0.127   3.015
 1755SOL    HW2 7050   1.347   0.216   3.048
 1755SOL    HW3 7051   1.338   0.134   2.921
 1755SOL    MW4 7052   1.352   0.140   3.007
 1756SOL     OW 7053   1.313   0.384   3.091
 1756SOL    HW2 7054   1.315   0.390   3.186
 1756SOL    HW3 7055   1.396   0.424   3.063
 1756SOL    MW4 7056   1.324   0.390   3.100
 1757SOL     OW 7057   1.596   0.483   3.012
 1757SOL    HW2 7058   1.592   0.575   3.038
 1757SOL    HW3 7059   1.575   0.483   2.918
 1757SOL    MW4 7060   1.593   0.495   3.003
 1758SOL     OW 7061   1.566   0.778   3.066
 1758SOL    HW2 7062   1.544   0.787   3.158
 1758SOL    HW3 7063   1.488   0.810   3.020
 1758SOL    MW4 7064   1.553   0.783   3.072
 1759SOL     OW 7065   1.329   0.892   2.940
 1759SOL    HW2 7066   1.341   0.985   2.960
 1759SOL    HW3 7067   1.243   0.870   2.974
 1759SOL    MW4 7068   1.319   0.901   2.947
 1760SOL     OW 7069   1.355   1.150   3.015
 1760SOL    HW2 7070   1.366   1.138   3.109
 1760SOL    HW3 7071   1.442   1.178   2.984
 1760SOL    MW4 7072   1.368   1.152   3.023
 1761SOL     OW 7073   1.618   1.262   2.957
 1761SOL    HW2 7074   1.689   1.223   3.008
 1761SOL    HW3 7075   1.607   1.350   2.994
 1761SOL    MW4 7076   1.626   1.269   2.969
 1762SOL     OW 7077   1.576   1.514   3.091
 1762SOL    HW2 7078   1.654   1.550   3.048
 1762SOL    HW3 7079   1.503   1.558   3.049
 1762SOL    MW4 7080   1.577   1.525   3.080
 1763SOL     OW 7081   1.345   1.630   2.998
 1763SOL    HW2 7082   1.357   1.721   3.022
 1763SOL    HW3 7083   1.343   1.630   2.903
 1763SOL    MW4 7084   1.346   1.642   2.989
 1764SOL     OW 7085   1.369   1.909   3.098
 1764SOL    HW2 7086   1.373   1.918   3.193
 1764SOL    HW3 7087   1.295   1.964   3.072
 1764SOL    MW4 7088   1.360   1.918   3.107
 1765SOL     OW 7089   1.593   2.044   3.016
 1765SOL    HW2 7090   1.521   1.990   3.050
 1765SOL    HW3 7091   1.596   2.023   2.922
 1765SOL    MW4 7092   1.584   2.034   3.008
 1766SOL     OW 7093   1.606   2.305   3.113
 1766SOL    HW2 7094   1.520   2.344   3.098
 1766SOL    HW3 7095   1.596   2.214   3.085
 1766SOL    MW4 7096   1.593   2.298   3.108
 1767SOL     OW 7097   1.369   2.432   3.024
 1767SOL    HW2 7098   1.292   2.392   3.066
 1767SOL    HW3 7099   1.358   2.410   2.931
 1767SOL    MW4 7100   1.357   2.424   3.017
 1768SOL     OW 7101   1.346   2.709   3.102
 1768SOL    HW2 7102   1.336   2.623   3.062
 1768SOL    HW3 7103   1.271   2.759   3.071
 1768SOL    MW4 7104   1.335   2.704   3.093
 1769SOL     OW 7105   1.570   2.822   2.993
 1769SOL    HW2 7106   1.647   2.781   3.032
 1769SOL    HW3 7107   1.496   2.782   3.037
 1769SOL    MW4 7108   1.571   2.812   3.004
 1770SOL     OW 7109   1.557   3.103   3.042
 1770SOL    HW2 7110   1.536   3.101   3.136
 1770SOL    HW3 7111   1.570   3.011   3.019
 1770SOL    MW4 7112   1.556   3.091   3.051
 1771SOL     OW 7113   1.338   3.257   2.974
 1771SOL    HW2 7114   1.407   3.198   3.003
 1771SOL    HW3 7115   1.332   3.242   2.879
 1771SOL    MW4 7116   1.346   3.247   2.965
 1772SOL     OW 7117   1.337   3.492   3.090
 1772SOL    HW2 7118   1.332   3.487   3.185
 1772SOL    HW3 7119   1.346   3.401   3.062
 1772SOL    MW4 7120   1.337   3.480   3.099
 1773SOL     OW 7121   1.565   3.602   2.990
 1773SOL    HW2 7122   1.480   3.593   3.034
 1773SOL    HW3 7123   1.548   3.573   2.900
 1773SOL    MW4 7124   1.551   3.597   2.984
 1774SOL     OW 7125   1.553   3.868   3.070
 1774SOL    HW2 7126   1.627   3.918   3.037
 1774SOL    HW3 7127   1.562   3.781   3.030
 1774SOL    MW4 7128   1.564   3.863   3.060
 1775SOL     OW 7129   1.342   4.011   2.979
 1775SOL    HW2 7130   1.420   3.966   3.012
 1775SOL    HW3 7131   1.270   3.972   3.028
 1775SOL    MW4 7132   1.343   4.000   2.990
 1776SOL     OW 7133   1.335   4.284   3.084
 1776SOL    HW2 7134   1.332   4.193   3.057
 1776SOL    HW3 7135   1.264   4.326   3.035
 1776SOL    MW4 7136   1.325   4.278   3.074
 1777SOL     OW 7137   1.559   4.387   2.972
 1777SOL    HW2 7138   1.476   4.357   3.008
 1777SOL    HW3 7139   1.568   4.477   3.004
 1777SOL    MW4 7140   1.550   4.395   2.981
 1778SOL     OW 7141   2.035   4.620   3.069
 1778SOL    HW2 7142   2.034   4.635   3.163
 1778SOL    HW3 7143   1.977   4.687   3.033
 1778SOL    MW4 7144   2.027   4.631   3.076
 1779SOL     OW 7145   1.828   0.129   2.973
 1779SOL    HW2 7146   1.757   0.074   3.005
 1779SOL    HW3 7147   1.808   0.143   2.880
 1779SOL    MW4 7148   1.816   0.124   2.965
 1780SOL     OW 7149   1.835   0.351   3.128
 1780SOL    HW2 7150   1.832   0.264   3.087
 1780SOL    HW3 7151   1.761   0.397   3.090
 1780SOL    MW4 7152   1.825   0.345   3.118
 1781SOL     OW 7153   2.010   0.511   2.996
 1781SOL    HW2 7154   1.956   0.440   3.030
 1781SOL    HW3 7155   2.008   0.499   2.901
 1781SOL    MW4 7156   2.003   0.500   2.988
 1782SOL     OW 7157   2.026   0.765   3.139
 1782SOL    HW2 7158   1.963   0.812   3.084
 1782SOL    HW3 7159   2.032   0.678   3.100
 1782SOL    MW4 7160   2.019   0.760   3.127
 1783SOL     OW 7161   1.820   0.870   2.989
 1783SOL    HW2 7162   1.737   0.830   3.015
 1783SOL    HW3 7163   1.825   0.855   2.894
 1783SOL    MW4 7164   1.810   0.863   2.980
 1784SOL     OW 7165   1.840   1.139   3.076
 1784SOL    HW2 7166   1.844   1.136   3.171
 1784SOL    HW3 7167   1.854   1.048   3.048
 1784SOL    MW4 7168   1.842   1.127   3.085
 1785SOL     OW 7169   2.050   1.274   2.976
 1785SOL    HW2 7170   2.131   1.227   2.998
 1785SOL    HW3 7171   1.980   1.220   3.014
 1785SOL    MW4 7172   2.051   1.260   2.984
 1786SOL     OW 7173   2.017   1.512   3.099
 1786SOL    HW2 7174   2.012   1.509   3.195
 1786SOL    HW3 7175   2.045   1.425   3.074
 1786SOL    MW4 7176   2.020   1.500   3.109
 1787SOL     OW 7177   1.798   1.624   2.971
 1787SOL    HW2 7178   1.812   1.712   3.005
 1787SOL    HW3 7179   1.876   1.576   2.998
 1787SOL    MW4 7180   1.810   1.629   2.979
 1788SOL     OW 7181   1.827   1.891   3.082
 1788SOL    HW2 7182   1.900   1.947   3.057
 1788SOL    HW3 7183   1.749   1.941   3.059
 1788SOL    MW4 7184   1.826   1.905   3.076
 1789SOL     OW 7185   2.049   2.024   3.037
 1789SOL    HW2 7186   2.120   1.989   3.090
 1789SOL    HW3 7187   2.049   2.118   3.054
 1789SOL    MW4 7188   2.058   2.031   3.046
 1790SOL     OW 7189   2.044   2.300   3.118
 1790SOL    HW2 7190   2.117   2.337   3.069
 1790SOL    HW3 7191   1.967   2.344   3.081
 1790SOL    MW4 7192   2.043   2.311   3.107
 1791SOL     OW 7193   1.828   2.437   3.010
 1791SOL    HW2 7194   1.821   2.532   3.023
 1791SOL    HW3 7195   1.746   2.402   3.046
 1791SOL    MW4 7196   1.816   2.445   3.017
 1792SOL     OW 7197   1.785   2.692   3.097
 1792SOL    HW2 7198   1.785   2.687   3.192
 1792SOL    HW3 7199   1.877   2.709   3.074
 1792SOL    MW4 7200   1.797   2.693   3.106
 1793SOL     OW 7201   2.025   2.820   2.985
 1793SOL    HW2 7202   2.025   2.913   3.007
 1793SOL    HW3 7203   2.022   2.818   2.890
 1793SOL    MW4 7204   2.024   2.832   2.976
 1794SOL     OW 7205   2.027   3.083   3.092
 1794SOL    HW2 7206   2.023   3.070   3.186
 1794SOL    HW3 7207   1.949   3.135   3.071
 1794SOL    MW4 7208   2.016   3.088   3.101
 1795SOL     OW 7209   1.803   3.225   2.996
 1795SOL    HW2 7210   1.716   3.191   3.015
 1795SOL    HW3 7211   1.803   3.240   2.902
 1795SOL    MW4 7212   1.792   3.223   2.986
 1796SOL     OW 7213   1.810   3.504   3.085
 1796SOL    HW2 7214   1.809   3.415   3.049
 1796SOL    HW3 7215   1.730   3.544   3.050
 1796SOL    MW4 7216   1.799   3.497   3.076
 1797SOL     OW 7217   2.042   3.619   2.974
 1797SOL    HW2 7218   2.040   3.714   2.990
 1797SOL    HW3 7219   1.961   3.587   3.014
 1797SOL    MW4 7220   2.031   3.628   2.981
 1798SOL     OW 7221   2.038   3.879   3.083
 1798SOL    HW2 7222   2.015   3.856   3.173
 1798SOL    HW3 7223   1.958   3.918   3.047
 1798SOL    MW4 7224   2.024   3.881   3.090
 1799SOL     OW 7225   1.799   3.978   2.978
 1799SOL    HW2 7226   1.810   4.071   2.999
 1799SOL    HW3 7227   1.791   3.976   2.882
 1799SOL    MW4 7228   1.800   3.990   2.968
 1800SOL     OW 7229   1.784   4.226   3.073
 1800SOL    HW2 7230   1.849   4.277   3.024
 1800SOL    HW3 7231   1.700   4.265   3.048
 1800SOL    MW4 7232   1.782   4.238   3.063
 1801SOL     OW 7233   1.984   4.397   2.926
 1801SOL    HW2 7234   2.001   4.475   2.977
 1801SOL    HW3 7235   2.017   4.417   2.838
 1801SOL    MW4 7236   1.991   4.410   2.921
 1802SOL     OW 7237   2.477   0.010   3.044
 1802SOL    HW2 7238   2.470  -0.082   3.016
 1802SOL    HW3 7239   2.400   0.052   3.006
 1802SOL    MW4 7240   2.466   0.003   3.035
 1803SOL     OW 7241   2.241   0.118   2.931
 1803SOL    HW2 7242   2.242   0.196   2.987
 1803SOL    HW3 7243   2.193   0.052   2.982
 1803SOL    MW4 7244   2.235   0.120   2.945
 1804SOL     OW 7245   2.249   0.367   3.053
 1804SOL    HW2 7246   2.244   0.397   3.144
 1804SOL    HW3 7247   2.175   0.409   3.010
 1804SOL    MW4 7248   2.239   0.377   3.059
 1805SOL     OW 7249   2.475   0.549   2.989
 1805SOL    HW2 7250   2.396   0.504   3.021
 1805SOL    HW3 7251   2.481   0.524   2.897
 1805SOL    MW4 7252   2.465   0.540   2.981
 1806SOL     OW 7253   2.476   0.806   3.100
 1806SOL    HW2 7254   2.544   0.849   3.049
 1806SOL    HW3 7255   2.477   0.715   3.071
 1806SOL    MW4 7256   2.485   0.800   3.090
 1807SOL     OW 7257   2.236   0.869   2.983
 1807SOL    HW2 7258   2.322   0.842   3.015
 1807SOL    HW3 7259   2.174   0.834   3.047
 1807SOL    MW4 7260   2.239   0.861   2.995
 1808SOL     OW 7261   2.248   1.125   3.077
 1808SOL    HW2 7262   2.233   1.138   3.170
 1808SOL    HW3 7263   2.239   1.030   3.064
 1808SOL    MW4 7264   2.245   1.114   3.087
 1809SOL     OW 7265   2.449   1.295   2.997
 1809SOL    HW2 7266   2.386   1.229   3.025
 1809SOL    HW3 7267   2.451   1.287   2.902
 1809SOL    MW4 7268   2.441   1.286   2.988
 1810SOL     OW 7269   2.496   1.560   3.098
 1810SOL    HW2 7270   2.419   1.612   3.076
 1810SOL    HW3 7271   2.474   1.471   3.072
 1810SOL    MW4 7272   2.483   1.555   3.092
 1811SOL     OW 7273   2.241   1.667   3.008
 1811SOL    HW2 7274   2.159   1.641   3.051
 1811SOL    HW3 7275   2.225   1.649   2.915
 1811SOL    MW4 7276   2.228   1.661   3.001
 1812SOL     OW 7277   2.272   1.908   3.146
 1812SOL    HW2 7278   2.336   1.953   3.090
 1812SOL    HW3 7279   2.268   1.819   3.110
 1812SOL    MW4 7280   2.280   1.902   3.134
 1813SOL     OW 7281   2.474   2.047   3.021
 1813SOL    HW2 7282   2.551   2.003   3.057
 1813SOL    HW3 7283   2.484   2.038   2.926
 1813SOL    MW4 7284   2.485   2.040   3.013
 1814SOL     OW 7285   2.458   2.320   3.136
 1814SOL    HW2 7286   2.486   2.321   3.228
 1814SOL    HW3 7287   2.439   2.229   3.118
 1814SOL    MW4 7288   2.459   2.308   3.146
 1815SOL     OW 7289   2.242   2.441   2.990
 1815SOL    HW2 7290   2.228   2.531   3.022
 1815SOL    HW3 7291   2.325   2.414   3.031
 1815SOL    MW4 7292   2.251   2.450   3.000
 1816SOL     OW 7293   2.214   2.693   3.115
 1816SOL    HW2 7294   2.288   2.739   3.075
 1816SOL    HW3 7295   2.137   2.741   3.084
 1816SOL    MW4 7296   2.214   2.706   3.105
 1817SOL     OW 7297   2.437   2.813   2.988
 1817SOL    HW2 7298   2.468   2.899   3.016
 1817SOL    HW3 7299   2.425   2.821   2.893
 1817SOL    MW4 7300   2.439   2.825   2.979
 1818SOL     OW 7301   2.487   3.056   3.067
 1818SOL    HW2 7302   2.553   3.120   3.038
 1818SOL    HW3 7303   2.403   3.101   3.056
 1818SOL    MW4 7304   2.485   3.070   3.061
 1819SOL     OW 7305   2.259   3.197   3.011
 1819SOL    HW2 7306   2.251   3.289   3.036
 1819SOL    HW3 7307   2.184   3.154   3.052
 1819SOL    MW4 7308   2.248   3.203   3.020
 1820SOL     OW 7309   2.240   3.468   3.097
 1820SOL    HW2 7310   2.321   3.495   3.054
 1820SOL    HW3 7311   2.171   3.520   3.055
 1820SOL    MW4 7312   2.241   3.478   3.086
 1821SOL     OW 7313   2.490   3.598   2.999
 1821SOL    HW2 7314   2.578   3.571   3.026
 1821SOL    HW3 7315   2.484   3.690   3.026
 1821SOL    MW4 7316   2.501   3.607   3.006
 1822SOL     OW 7317   2.479   3.869   3.078
 1822SOL    HW2 7318   2.472   3.862   3.174
 1822SOL    HW3 7319   2.555   3.926   3.064
 1822SOL    MW4 7320   2.488   3.876   3.089
 1823SOL     OW 7321   2.254   3.992   2.963
 1823SOL    HW2 7322   2.334   3.950   2.994
 1823SOL    HW3 7323   2.183   3.949   3.011
 1823SOL    MW4 7324   2.255   3.981   2.973
 1824SOL     OW 7325   2.212   4.266   3.041
 1824SOL    HW2 7326   2.218   4.174   3.016
 1824SOL    HW3 7327   2.127   4.294   3.007
 1824SOL    MW4 7328   2.201   4.257   3.033
 1825SOL     OW 7329   2.459   4.397   2.987
 1825SOL    HW2 7330   2.371   4.369   3.010
 1825SOL    HW3 7331   2.459   4.402   2.891
 1825SOL    MW4 7332   2.448   4.394   2.977
 1826SOL     OW 7333   2.924   0.009   3.093
 1826SOL    HW2 7334   3.013   0.040   3.076
 1826SOL    HW3 7335   2.928  -0.085   3.072
 1826SOL    MW4 7336   2.936   0.001   3.088
 1827SOL     OW 7337   2.718   0.159   3.005
 1827SOL    HW2 7338   2.800   0.112   3.018
 1827SOL    HW3 7339   2.651   0.099   3.038
 1827SOL    MW4 7340   2.720   0.145   3.011
 1828SOL     OW 7341   2.723   0.437   3.098
 1828SOL    HW2 7342   2.716   0.343   3.081
 1828SOL    HW3 7343   2.646   0.475   3.055
 1828SOL    MW4 7344   2.712   0.430   3.090
 1829SOL     OW 7345   2.956   0.536   2.996
 1829SOL    HW2 7346   2.877   0.501   3.036
 1829SOL    HW3 7347   2.942   0.529   2.902
 1829SOL    MW4 7348   2.944   0.531   2.989
 1830SOL     OW 7349   2.919   0.791   3.078
 1830SOL    HW2 7350   2.927   0.777   3.172
 1830SOL    HW3 7351   2.931   0.704   3.039
 1830SOL    MW4 7352   2.921   0.778   3.085
 1831SOL     OW 7353   2.700   0.914   2.958
 1831SOL    HW2 7354   2.698   1.003   2.993
 1831SOL    HW3 7355   2.775   0.873   3.001
 1831SOL    MW4 7356   2.709   0.920   2.968
 1832SOL     OW 7357   2.700   1.176   3.072
 1832SOL    HW2 7358   2.770   1.239   3.059
 1832SOL    HW3 7359   2.624   1.214   3.028
 1832SOL    MW4 7360   2.699   1.189   3.065
 1833SOL     OW 7361   2.919   1.333   2.989
 1833SOL    HW2 7362   2.994   1.282   3.019
 1833SOL    HW3 7363   2.928   1.418   3.032
 1833SOL    MW4 7364   2.930   1.337   2.998
 1834SOL     OW 7365   2.954   1.571   3.121
 1834SOL    HW2 7366   2.955   1.565   3.216
 1834SOL    HW3 7367   3.036   1.613   3.098
 1834SOL    MW4 7368   2.965   1.576   3.130
 1835SOL     OW 7369   2.730   1.680   2.973
 1835SOL    HW2 7370   2.808   1.650   3.019
 1835SOL    HW3 7371   2.658   1.633   3.015
 1835SOL    MW4 7372   2.731   1.670   2.984
 1836SOL     OW 7373   2.690   1.900   3.136
 1836SOL    HW2 7374   2.757   1.964   3.112
 1836SOL    HW3 7375   2.700   1.830   3.071
 1836SOL    MW4 7376   2.700   1.899   3.124
 1837SOL     OW 7377   2.910   2.026   3.055
 1837SOL    HW2 7378   2.922   2.115   3.088
 1837SOL    HW3 7379   2.913   2.035   2.960
 1837SOL    MW4 7380   2.912   2.039   3.047
 1838SOL     OW 7381   2.877   2.307   3.127
 1838SOL    HW2 7382   2.957   2.340   3.086
 1838SOL    HW3 7383   2.807   2.362   3.090
 1838SOL    MW4 7384   2.878   2.319   3.117
 1839SOL     OW 7385   2.672   2.432   3.002
 1839SOL    HW2 7386   2.672   2.509   3.059
 1839SOL    HW3 7387   2.609   2.372   3.042
 1839SOL    MW4 7388   2.664   2.434   3.015
 1840SOL     OW 7389   2.680   2.701   3.118
 1840SOL    HW2 7390   2.652   2.706   3.209
 1840SOL    HW3 7391   2.607   2.738   3.068
 1840SOL    MW4 7392   2.667   2.707   3.123
 1841SOL     OW 7393   2.908   2.836   2.991
 1841SOL    HW2 7394   2.994   2.813   3.027
 1841SOL    HW3 7395   2.846   2.791   3.048
 1841SOL    MW4 7396   2.911   2.827   3.003
 1842SOL     OW 7397   2.924   3.099   3.092
 1842SOL    HW2 7398   2.849   3.152   3.068
 1842SOL    HW3 7399   2.912   3.017   3.044
 1842SOL    MW4 7400   2.913   3.095   3.083
 1843SOL     OW 7401   2.690   3.210   3.011
 1843SOL    HW2 7402   2.678   3.303   3.026
 1843SOL    HW3 7403   2.706   3.202   2.917
 1843SOL    MW4 7404   2.690   3.221   3.000
 1844SOL     OW 7405   2.727   3.507   3.105
 1844SOL    HW2 7406   2.716   3.497   3.200
 1844SOL    HW3 7407   2.812   3.549   3.095
 1844SOL    MW4 7408   2.736   3.511   3.116
 1845SOL     OW 7409   2.956   3.637   3.029
 1845SOL    HW2 7410   3.033   3.584   3.049
 1845SOL    HW3 7411   2.962   3.712   3.089
 1845SOL    MW4 7412   2.967   3.640   3.039
 1846SOL     OW 7413   2.929   3.890   3.161
 1846SOL    HW2 7414   2.922   3.892   3.256
 1846SOL    HW3 7415   2.852   3.938   3.130
 1846SOL    MW4 7416   2.918   3.896   3.169
 1847SOL     OW 7417   2.733   4.004   3.000
 1847SOL    HW2 7418   2.732   4.098   3.022
 1847SOL    HW3 7419   2.753   4.002   2.906
 1847SOL    MW4 7420   2.735   4.016   2.990
 1848SOL     OW 7421   2.706   4.274   3.071
 1848SOL    HW2 7422   2.705   4.248   3.163
 1848SOL    HW3 7423   2.618   4.306   3.053
 1848SOL    MW4 7424   2.695   4.275   3.081
 1849SOL     OW 7425   2.960   4.408   3.021
 1849SOL    HW2 7426   3.040   4.362   3.047
 1849SOL    HW3 7427   2.889   4.357   3.060
 1849SOL    MW4 7428   2.961   4.395   3.029
 1850SOL     OW 7429   3.386   4.658   3.115
 1850SOL    HW2 7430   3.468   4.688   3.075
 1850SOL    HW3 7431   3.371   4.572   3.077
 1850SOL    MW4 7432   3.395   4.651   3.105
 1851SOL     OW 7433   3.150   0.103   2.989
 1851SOL    HW2 7434   3.139   0.193   3.020
 1851SOL    HW3 7435   3.229   0.073   3.034
 1851SOL    MW4 7436   3.159   0.111   2.999
 1852SOL     OW 7437   3.138   0.367   3.083
 1852SOL    HW2 7438   3.219   0.416   3.074
 1852SOL    HW3 7439   3.071   0.424   3.043
 1852SOL    MW4 7440   3.140   0.381   3.077
 1853SOL     OW 7441   3.376   0.509   3.026
 1853SOL    HW2 7442   3.450   0.455   3.052
 1853SOL    HW3 7443   3.367   0.495   2.931
 1853SOL    MW4 7444   3.384   0.500   3.017
 1854SOL     OW 7445   3.359   0.788   3.104
 1854SOL    HW2 7446   3.358   0.784   3.199
 1854SOL    HW3 7447   3.366   0.697   3.076
 1854SOL    MW4 7448   3.360   0.776   3.113
 1855SOL     OW 7449   3.139   0.932   2.980
 1855SOL    HW2 7450   3.211   0.871   2.999
 1855SOL    HW3 7451   3.061   0.887   3.013
 1855SOL    MW4 7452   3.138   0.918   2.987
 1856SOL     OW 7453   3.139   1.198   3.049
 1856SOL    HW2 7454   3.232   1.214   3.034
 1856SOL    HW3 7455   3.126   1.106   3.023
 1856SOL    MW4 7456   3.149   1.188   3.043
 1857SOL     OW 7457   3.415   1.234   3.003
 1857SOL    HW2 7458   3.487   1.187   3.043
 1857SOL    HW3 7459   3.412   1.318   3.051
 1857SOL    MW4 7460   3.424   1.239   3.015
 1858SOL     OW 7461   3.374   1.506   3.105
 1858SOL    HW2 7462   3.402   1.511   3.196
 1858SOL    HW3 7463   3.439   1.559   3.058
 1858SOL    MW4 7464   3.386   1.514   3.111
 1859SOL     OW 7465   3.186   1.688   3.038
 1859SOL    HW2 7466   3.254   1.623   3.058
 1859SOL    HW3 7467   3.182   1.689   2.942
 1859SOL    MW4 7468   3.195   1.680   3.028
 1860SOL     OW 7469   3.158   1.917   3.161
 1860SOL    HW2 7470   3.169   1.835   3.113
 1860SOL    HW3 7471   3.071   1.948   3.136
 1860SOL    MW4 7472   3.148   1.910   3.151
 1861SOL     OW 7473   3.345   2.050   3.021
 1861SOL    HW2 7474   3.428   2.016   3.054
 1861SOL    HW3 7475   3.278   1.999   3.068
 1861SOL    MW4 7476   3.347   2.039   3.031
 1862SOL     OW 7477   3.396   2.311   3.129
 1862SOL    HW2 7478   3.371   2.320   3.221
 1862SOL    HW3 7479   3.368   2.223   3.105
 1862SOL    MW4 7480   3.389   2.300   3.138
 1863SOL     OW 7481   3.136   2.427   3.029
 1863SOL    HW2 7482   3.221   2.387   3.048
 1863SOL    HW3 7483   3.126   2.420   2.935
 1863SOL    MW4 7484   3.146   2.421   3.019
 1864SOL     OW 7485   3.128   2.717   3.111
 1864SOL    HW2 7486   3.106   2.707   3.204
 1864SOL    HW3 7487   3.134   2.628   3.077
 1864SOL    MW4 7488   3.126   2.704   3.119
 1865SOL     OW 7489   3.364   2.826   3.014
 1865SOL    HW2 7490   3.368   2.919   3.035
 1865SOL    HW3 7491   3.289   2.794   3.064
 1865SOL    MW4 7492   3.354   2.834   3.024
 1866SOL     OW 7493   3.397   3.108   3.099
 1866SOL    HW2 7494   3.403   3.108   3.194
 1866SOL    HW3 7495   3.306   3.133   3.080
 1866SOL    MW4 7496   3.386   3.111   3.109
 1867SOL     OW 7497   3.151   3.222   2.995
 1867SOL    HW2 7498   3.074   3.190   3.041
 1867SOL    HW3 7499   3.128   3.216   2.902
 1867SOL    MW4 7500   3.138   3.217   2.989
 1868SOL     OW 7501   3.187   3.487   3.096
 1868SOL    HW2 7502   3.252   3.523   3.035
 1868SOL    HW3 7503   3.206   3.393   3.098
 1868SOL    MW4 7504   3.198   3.480   3.088
 1869SOL     OW 7505   3.383   3.623   2.952
 1869SOL    HW2 7506   3.456   3.581   2.997
 1869SOL    HW3 7507   3.374   3.708   2.996
 1869SOL    MW4 7508   3.392   3.629   2.964
 1870SOL     OW 7509   3.356   3.862   3.095
 1870SOL    HW2 7510   3.354   3.846   3.189
 1870SOL    HW3 7511   3.284   3.923   3.079
 1870SOL    MW4 7512   3.346   3.868   3.105
 1871SOL     OW 7513   3.136   4.030   3.021
 1871SOL    HW2 7514   3.069   3.982   3.069
 1871SOL    HW3 7515   3.126   4.002   2.931
 1871SOL    MW4 7516   3.126   4.020   3.016
 1872SOL     OW 7517   3.181   4.281   3.126
 1872SOL    HW2 7518   3.168   4.262   3.219
 1872SOL    HW3 7519   3.167   4.197   3.082
 1872SOL    MW4 7520   3.177   4.267   3.133
 1873SOL     OW 7521   3.387   4.396   2.983
 1873SOL    HW2 7522   3.465   4.358   3.024
 1873SOL    HW3 7523   3.313   4.357   3.029
 1873SOL    MW4 7524   3.388   4.386   2.994
 1874SOL     OW 7525   3.818   4.639   3.130
 1874SOL    HW2 7526   3.824   4.550   3.096
 1874SOL    HW3 7527   3.751   4.682   3.076
 1874SOL    MW4 7528   3.810   4.633   3.119
 1875SOL     OW 7529   3.610   0.092   2.987
 1875SOL    HW2 7530   3.595   0.180   3.020
 1875SOL    HW3 7531   3.586   0.097   2.894
 1875SOL    MW4 7532   3.605   0.104   2.979
 1876SOL     OW 7533   3.593   0.350   3.097
 1876SOL    HW2 7534   3.602   0.375   3.189
 1876SOL    HW3 7535   3.672   0.385   3.055
 1876SOL    MW4 7536   3.605   0.358   3.104
 1877SOL     OW 7537   3.794   0.487   2.989
 1877SOL    HW2 7538   3.860   0.447   3.045
 1877SOL    HW3 7539   3.783   0.575   3.025
 1877SOL    MW4 7540   3.801   0.494   3.001
 1878SOL     OW 7541   3.787   0.735   3.130
 1878SOL    HW2 7542   3.781   0.748   3.225
 1878SOL    HW3 7543   3.870   0.776   3.106
 1878SOL    MW4 7544   3.797   0.742   3.140
 1879SOL     OW 7545   3.593   0.873   3.013
 1879SOL    HW2 7546   3.670   0.831   3.052
 1879SOL    HW3 7547   3.520   0.842   3.066
 1879SOL    MW4 7548   3.594   0.863   3.025
 1880SOL     OW 7549   3.627   1.131   3.130
 1880SOL    HW2 7550   3.712   1.166   3.101
 1880SOL    HW3 7551   3.627   1.040   3.101
 1880SOL    MW4 7552   3.638   1.124   3.123
 1881SOL     OW 7553   3.821   1.285   3.022
 1881SOL    HW2 7554   3.827   1.379   3.039
 1881SOL    HW3 7555   3.826   1.278   2.927
 1881SOL    MW4 7556   3.822   1.296   3.012
 1882SOL     OW 7557   3.805   1.564   3.082
 1882SOL    HW2 7558   3.811   1.579   3.177
 1882SOL    HW3 7559   3.714   1.579   3.061
 1882SOL    MW4 7560   3.794   1.568   3.092
 1883SOL     OW 7561   3.575   1.679   2.987
 1883SOL    HW2 7562   3.571   1.771   3.012
 1883SOL    HW3 7563   3.585   1.680   2.891
 1883SOL    MW4 7564   3.575   1.691   2.977
 1884SOL     OW 7565   3.598   1.931   3.102
 1884SOL    HW2 7566   3.627   1.933   3.193
 1884SOL    HW3 7567   3.665   1.980   3.054
 1884SOL    MW4 7568   3.611   1.938   3.107
 1885SOL     OW 7569   3.815   2.085   3.017
 1885SOL    HW2 7570   3.816   2.174   3.053
 1885SOL    HW3 7571   3.814   2.098   2.922
 1885SOL    MW4 7572   3.815   2.099   3.009
 1886SOL     OW 7573   3.812   2.340   3.113
 1886SOL    HW2 7574   3.802   2.343   3.208
 1886SOL    HW3 7575   3.739   2.392   3.080
 1886SOL    MW4 7576   3.801   2.347   3.121
 1887SOL     OW 7577   3.616   2.455   3.001
 1887SOL    HW2 7578   3.608   2.545   3.034
 1887SOL    HW3 7579   3.537   2.411   3.032
 1887SOL    MW4 7580   3.604   2.461   3.009
 1888SOL     OW 7581   3.607   2.710   3.088
 1888SOL    HW2 7582   3.683   2.747   3.044
 1888SOL    HW3 7583   3.533   2.759   3.054
 1888SOL    MW4 7584   3.607   2.721   3.078
 1889SOL     OW 7585   3.832   2.842   2.996
 1889SOL    HW2 7586   3.831   2.934   3.020
 1889SOL    HW3 7587   3.813   2.841   2.902
 1889SOL    MW4 7588   3.829   2.854   2.987
 1890SOL     OW 7589   3.831   3.096   3.104
 1890SOL    HW2 7590   3.907   3.149   3.081
 1890SOL    HW3 7591   3.756   3.147   3.075
 1890SOL    MW4 7592   3.831   3.109   3.097
 1891SOL     OW 7593   3.624   3.250   3.007
 1891SOL    HW2 7594   3.552   3.201   3.047
 1891SOL    HW3 7595   3.596   3.263   2.917
 1891SOL    MW4 7596   3.610   3.245   3.001
 1892SOL     OW 7597   3.593   3.513   3.085
 1892SOL    HW2 7598   3.670   3.559   3.054
 1892SOL    HW3 7599   3.610   3.421   3.066
 1892SOL    MW4 7600   3.605   3.507   3.079
 1893SOL     OW 7601   3.808   3.649   2.986
 1893SOL    HW2 7602   3.815   3.739   3.020
 1893SOL    HW3 7603   3.806   3.660   2.891
 1893SOL    MW4 7604   3.809   3.663   2.978
 1894SOL     OW 7605   3.828   3.902   3.077
 1894SOL    HW2 7606   3.810   3.919   3.170
 1894SOL    HW3 7607   3.750   3.933   3.032
 1894SOL    MW4 7608   3.816   3.909   3.084
 1895SOL     OW 7609   3.546   4.030   3.026
 1895SOL    HW2 7610   3.471   3.978   3.055
 1895SOL    HW3 7611   3.547   4.019   2.930
 1895SOL    MW4 7612   3.536   4.022   3.017
 1896SOL     OW 7613   3.623   4.285   3.131
 1896SOL    HW2 7614   3.709   4.308   3.097
 1896SOL    HW3 7615   3.607   4.196   3.099
 1896SOL    MW4 7616   3.632   4.276   3.122
 1897SOL     OW 7617   3.864   4.376   3.025
 1897SOL    HW2 7618   3.937   4.321   3.052
 1897SOL    HW3 7619   3.882   4.397   2.933
 1897SOL    MW4 7620   3.876   4.372   3.017
 1898SOL     OW 7621   4.291   0.022   3.099
 1898SOL    HW2 7622   4.291   0.027   3.194
 1898SOL    HW3 7623   4.285  -0.072   3.080
 1898SOL    MW4 7624   4.290   0.010   3.109
 1899SOL     OW 7625   4.030   0.116   3.017
 1899SOL    HW2 7626   4.114   0.081   3.046
 1899SOL    HW3 7627   3.965   0.070   3.070
 1899SOL    MW4 7628   4.033   0.105   3.027
 1900SOL     OW 7629   4.017   0.374   3.126
 1900SOL    HW2 7630   4.084   0.425   3.081
 1900SOL    HW3 7631   4.025   0.286   3.090
 1900SOL    MW4 7632   4.027   0.370   3.115
 1901SOL     OW 7633   4.230   0.510   3.019
 1901SOL    HW2 7634   4.245   0.603   3.033
 1901SOL    HW3 7635   4.242   0.498   2.925
 1901SOL    MW4 7636   4.234   0.521   3.008
 1902SOL     OW 7637   4.250   0.766   3.119
 1902SOL    HW2 7638   4.168   0.816   3.109
 1902SOL    HW3 7639   4.317   0.824   3.083
 1902SOL    MW4 7640   4.248   0.780   3.113
 1903SOL     OW 7641   4.005   0.890   3.048
 1903SOL    HW2 7642   4.032   0.978   3.075
 1903SOL    HW3 7643   3.995   0.895   2.953
 1903SOL    MW4 7644   4.007   0.902   3.039
 1904SOL     OW 7645   4.065   1.168   3.110
 1904SOL    HW2 7646   4.075   1.169   3.206
 1904SOL    HW3 7647   3.988   1.223   3.094
 1904SOL    MW4 7648   4.056   1.175   3.121
 1905SOL     OW 7649   4.282   1.318   2.994
 1905SOL    HW2 7650   4.212   1.277   3.044
 1905SOL    HW3 7651   4.271   1.283   2.905
 1905SOL    MW4 7652   4.271   1.308   2.989
 1906SOL     OW 7653   4.279   1.573   3.097
 1906SOL    HW2 7654   4.201   1.614   3.058
 1906SOL    HW3 7655   4.286   1.488   3.053
 1906SOL    MW4 7656   4.270   1.568   3.086
 1907SOL     OW 7657   4.046   1.679   2.977
 1907SOL    HW2 7658   4.051   1.752   3.039
 1907SOL    HW3 7659   3.979   1.621   3.013
 1907SOL    MW4 7660   4.038   1.681   2.990
 1908SOL     OW 7661   4.020   1.922   3.113
 1908SOL    HW2 7662   4.094   1.962   3.069
 1908SOL    HW3 7663   3.944   1.970   3.080
 1908SOL    MW4 7664   4.020   1.934   3.103
 1909SOL     OW 7665   4.247   2.063   3.004
 1909SOL    HW2 7666   4.233   2.155   3.026
 1909SOL    HW3 7667   4.261   2.062   2.910
 1909SOL    MW4 7668   4.247   2.075   2.995
 1910SOL     OW 7669   4.241   2.352   3.084
 1910SOL    HW2 7670   4.179   2.408   3.039
 1910SOL    HW3 7671   4.326   2.374   3.046
 1910SOL    MW4 7672   4.244   2.362   3.073
 1911SOL     OW 7673   4.025   2.467   2.976
 1911SOL    HW2 7674   4.034   2.556   3.010
 1911SOL    HW3 7675   3.956   2.428   3.029
 1911SOL    MW4 7676   4.017   2.474   2.988
 1912SOL     OW 7677   4.062   2.726   3.084
 1912SOL    HW2 7678   4.062   2.730   3.179
 1912SOL    HW3 7679   3.982   2.771   3.058
 1912SOL    MW4 7680   4.051   2.732   3.093
 1913SOL     OW 7681   4.269   2.845   2.986
 1913SOL    HW2 7682   4.194   2.796   3.020
 1913SOL    HW3 7683   4.345   2.800   3.021
 1913SOL    MW4 7684   4.269   2.833   2.995
 1914SOL     OW 7685   4.269   3.085   3.099
 1914SOL    HW2 7686   4.187   3.128   3.073
 1914SOL    HW3 7687   4.258   2.994   3.071
 1914SOL    MW4 7688   4.257   3.079   3.092
 1915SOL     OW 7689   4.052   3.250   3.026
 1915SOL    HW2 7690   4.022   3.337   3.052
 1915SOL    HW3 7691   4.038   3.247   2.931
 1915SOL    MW4 7692   4.046   3.261   3.017
 1916SOL     OW 7693   4.033   3.519   3.076
 1916SOL    HW2 7694   4.027   3.515   3.171
 1916SOL    HW3 7695   3.953   3.564   3.048
 1916SOL    MW4 7696   4.022   3.525   3.085
 1917SOL     OW 7697   4.303   3.594   3.014
 1917SOL    HW2 7698   4.302   3.682   3.050
 1917SOL    HW3 7699   4.219   3.556   3.041
 1917SOL    MW4 7700   4.292   3.600   3.022
 1918SOL     OW 7701   4.293   3.857   3.103
 1918SOL    HW2 7702   4.210   3.887   3.068
 1918SOL    HW3 7703   4.359   3.900   3.048
 1918SOL    MW4 7704   4.291   3.867   3.091
 1919SOL     OW 7705   4.070   4.006   2.993
 1919SOL    HW2 7706   4.090   4.087   3.040
 1919SOL    HW3 7707   3.984   3.980   3.026
 1919SOL    MW4 7708   4.062   4.013   3.003
 1920SOL     OW 7709   4.092   4.242   3.128
 1920SOL    HW2 7710   4.057   4.251   3.216
 1920SOL    HW3 7711   4.158   4.310   3.121
 1920SOL    MW4 7712   4.096   4.252   3.138
 1921SOL     OW 7713   4.305   4.419   3.057
 1921SOL    HW2 7714   4.372   4.352   3.074
 1921SOL    HW3 7715   4.303   4.427   2.962
 1921SOL    MW4 7716   4.314   4.411   3.047
 1922SOL     OW 7717   0.207   4.657   3.336
 1922SOL    HW2 7718   0.292   4.698   3.354
 1922SOL    HW3 7719   0.211   4.572   3.379
 1922SOL    MW4 7720   0.218   4.652   3.344
 1923SOL     OW 7721   0.012   0.148   3.476
 1923SOL    HW2 7722   0.015   0.236   3.440
 1923SOL    HW3 7723   0.093   0.106   3.446
 1923SOL    MW4 7724   0.023   0.154   3.467
 1924SOL     OW 7725   0.006   0.413   3.394
 1924SOL    HW2 7726  -0.068   0.459   3.433
 1924SOL    HW3 7727   0.082   0.469   3.411
 1924SOL    MW4 7728   0.007   0.426   3.401
 1925SOL     OW 7729   0.241   0.548   3.469
 1925SOL    HW2 7730   0.324   0.512   3.438
 1925SOL    HW3 7731   0.231   0.630   3.421
 1925SOL    MW4 7732   0.251   0.554   3.459
 1926SOL     OW 7733   0.213   0.768   3.340
 1926SOL    HW2 7734   0.289   0.822   3.362
 1926SOL    HW3 7735   0.141   0.807   3.390
 1926SOL    MW4 7736   0.213   0.781   3.350
 1927SOL     OW 7737   0.010   0.898   3.476
 1927SOL    HW2 7738   0.017   0.908   3.571
 1927SOL    HW3 7739   0.008   0.987   3.442
 1927SOL    MW4 7740   0.011   0.911   3.484
 1928SOL     OW 7741   0.001   1.153   3.405
 1928SOL    HW2 7742   0.070   1.203   3.448
 1928SOL    HW3 7743   0.006   1.178   3.313
 1928SOL    MW4 7744   0.011   1.163   3.399
 1929SOL     OW 7745   0.240   1.267   3.510
 1929SOL    HW2 7746   0.327   1.240   3.479
 1929SOL    HW3 7747   0.228   1.355   3.474
 1929SOL    MW4 7748   0.250   1.275   3.501
 1930SOL     OW 7749   0.251   1.520   3.407
 1930SOL    HW2 7750   0.333   1.558   3.436
 1930SOL    HW3 7751   0.260   1.512   3.312
 1930SOL    MW4 7752   0.263   1.524   3.398
 1931SOL     OW 7753   0.022   1.669   3.452
 1931SOL    HW2 7754  -0.055   1.613   3.434
 1931SOL    HW3 7755   0.097   1.611   3.439
 1931SOL    MW4 7756   0.021   1.654   3.448
 1932SOL     OW 7757   4.483   1.925   3.353
 1932SOL    HW2 7758   4.493   1.840   3.394
 1932SOL    HW3 7759   4.486   1.907   3.259
 1932SOL    MW4 7760   4.485   1.912   3.346
 1933SOL     OW 7761   0.232   2.059   3.447
 1933SOL    HW2 7762   0.231   2.037   3.540
 1933SOL    HW3 7763   0.151   2.022   3.413
 1933SOL    MW4 7764   0.222   2.051   3.455
 1934SOL     OW 7765   0.190   2.309   3.329
 1934SOL    HW2 7766   0.120   2.352   3.379
 1934SOL    HW3 7767   0.203   2.225   3.373
 1934SOL    MW4 7768   0.182   2.304   3.341
 1935SOL     OW 7769   0.004   2.456   3.474
 1935SOL    HW2 7770   0.001   2.464   3.569
 1935SOL    HW3 7771  -0.082   2.420   3.450
 1935SOL    MW4 7772  -0.008   2.452   3.483
 1936SOL     OW 7773   4.483   2.697   3.362
 1936SOL    HW2 7774   4.558   2.745   3.398
 1936SOL    HW3 7775   4.482   2.614   3.409
 1936SOL    MW4 7776   4.493   2.692   3.373
 1937SOL     OW 7777   0.204   2.830   3.472
 1937SOL    HW2 7778   0.284   2.783   3.450
 1937SOL    HW3 7779   0.214   2.916   3.431
 1937SOL    MW4 7780   0.216   2.835   3.464
 1938SOL     OW 7781   0.204   3.086   3.372
 1938SOL    HW2 7782   0.136   3.138   3.415
 1938SOL    HW3 7783   0.182   3.089   3.279
 1938SOL    MW4 7784   0.192   3.093   3.365
 1939SOL     OW 7785   4.463   3.204   3.485
 1939SOL    HW2 7786   4.382   3.166   3.451
 1939SOL    HW3 7787   4.465   3.293   3.450
 1939SOL    MW4 7788   4.452   3.211   3.476
 1940SOL     OW 7789   4.476   3.462   3.403
 1940SOL    HW2 7790   4.407   3.521   3.431
 1940SOL    HW3 7791   4.475   3.467   3.307
 1940SOL    MW4 7792   4.467   3.470   3.394
 1941SOL     OW 7793   0.214   3.597   3.502
 1941SOL    HW2 7794   0.209   3.611   3.597
 1941SOL    HW3 7795   0.145   3.532   3.485
 1941SOL    MW4 7796   0.204   3.590   3.513
 1942SOL     OW 7797   0.255   3.860   3.365
 1942SOL    HW2 7798   0.192   3.921   3.403
 1942SOL    HW3 7799   0.232   3.775   3.402
 1942SOL    MW4 7800   0.244   3.857   3.375
 1943SOL     OW 7801   0.036   3.986   3.473
 1943SOL    HW2 7802   0.027   3.980   3.568
 1943SOL    HW3 7803   0.010   4.075   3.452
 1943SOL    MW4 7804   0.032   3.997   3.483
 1944SOL     OW 7805   4.475   4.248   3.398
 1944SOL    HW2 7806   4.405   4.310   3.422
 1944SOL    HW3 7807   4.556   4.295   3.418
 1944SOL    MW4 7808   4.476   4.263   3.404
 1945SOL     OW 7809   0.201   4.401   3.449
 1945SOL    HW2 7810   0.208   4.380   3.543
 1945SOL    HW3 7811   0.276   4.357   3.409
 1945SOL    MW4 7812   0.212   4.393   3.456
 1946SOL     OW 7813   0.668   0.003   3.407
 1946SOL    HW2 7814   0.753   0.045   3.419
 1946SOL    HW3 7815   0.663  -0.015   3.313
 1946SOL    MW4 7816   0.678   0.006   3.396
 1947SOL     OW 7817   0.427   0.165   3.435
 1947SOL    HW2 7818   0.404   0.179   3.527
 1947SOL    HW3 7819   0.509   0.115   3.439
 1947SOL    MW4 7820   0.435   0.160   3.448
 1948SOL     OW 7821   0.463   0.425   3.352
 1948SOL    HW2 7822   0.543   0.463   3.389
 1948SOL    HW3 7823   0.459   0.337   3.388
 1948SOL    MW4 7824   0.473   0.418   3.361
 1949SOL     OW 7825   0.687   0.542   3.450
 1949SOL    HW2 7826   0.681   0.532   3.545
 1949SOL    HW3 7827   0.755   0.481   3.423
 1949SOL    MW4 7828   0.695   0.533   3.459
 1950SOL     OW 7829   0.658   0.804   3.384
 1950SOL    HW2 7830   0.574   0.844   3.406
 1950SOL    HW3 7831   0.646   0.711   3.406
 1950SOL    MW4 7832   0.645   0.797   3.390
 1951SOL     OW 7833   0.416   0.913   3.442
 1951SOL    HW2 7834   0.413   0.887   3.534
 1951SOL    HW3 7835   0.444   1.004   3.444
 1951SOL    MW4 7836   0.419   0.922   3.454
 1952SOL     OW 7837   0.481   1.169   3.404
 1952SOL    HW2 7838   0.565   1.211   3.425
 1952SOL    HW3 7839   0.482   1.159   3.309
 1952SOL    MW4 7840   0.492   1.174   3.395
 1953SOL     OW 7841   0.718   1.281   3.475
 1953SOL    HW2 7842   0.790   1.240   3.427
 1953SOL    HW3 7843   0.711   1.369   3.437
 1953SOL    MW4 7844   0.727   1.287   3.464
 1954SOL     OW 7845   0.692   1.531   3.349
 1954SOL    HW2 7846   0.771   1.569   3.388
 1954SOL    HW3 7847   0.621   1.583   3.386
 1954SOL    MW4 7848   0.693   1.543   3.359
 1955SOL     OW 7849   0.487   1.646   3.477
 1955SOL    HW2 7850   0.490   1.650   3.573
 1955SOL    HW3 7851   0.453   1.732   3.451
 1955SOL    MW4 7852   0.483   1.658   3.486
 1956SOL     OW 7853   0.433   1.896   3.370
 1956SOL    HW2 7854   0.370   1.961   3.401
 1956SOL    HW3 7855   0.435   1.909   3.275
 1956SOL    MW4 7856   0.425   1.906   3.361
 1957SOL     OW 7857   0.650   2.051   3.468
 1957SOL    HW2 7858   0.655   2.048   3.563
 1957SOL    HW3 7859   0.578   1.991   3.446
 1957SOL    MW4 7860   0.641   2.043   3.477
 1958SOL     OW 7861   0.639   2.295   3.329
 1958SOL    HW2 7862   0.712   2.346   3.365
 1958SOL    HW3 7863   0.635   2.217   3.385
 1958SOL    MW4 7864   0.648   2.291   3.341
 1959SOL     OW 7865   0.428   2.428   3.444
 1959SOL    HW2 7866   0.496   2.391   3.387
 1959SOL    HW3 7867   0.346   2.396   3.407
 1959SOL    MW4 7868   0.426   2.419   3.432
 1960SOL     OW 7869   0.438   2.692   3.401
 1960SOL    HW2 7870   0.430   2.601   3.430
 1960SOL    HW3 7871   0.428   2.688   3.306
 1960SOL    MW4 7872   0.436   2.679   3.393
 1961SOL     OW 7873   0.666   2.845   3.457
 1961SOL    HW2 7874   0.746   2.802   3.427
 1961SOL    HW3 7875   0.595   2.787   3.427
 1961SOL    MW4 7876   0.667   2.831   3.449
 1962SOL     OW 7877   0.681   3.103   3.393
 1962SOL    HW2 7878   0.595   3.143   3.400
 1962SOL    HW3 7879   0.667   3.011   3.415
 1962SOL    MW4 7880   0.668   3.096   3.397
 1963SOL     OW 7881   0.437   3.234   3.426
 1963SOL    HW2 7882   0.431   3.239   3.521
 1963SOL    HW3 7883   0.361   3.181   3.400
 1963SOL    MW4 7884   0.426   3.227   3.435
 1964SOL     OW 7885   0.446   3.508   3.391
 1964SOL    HW2 7886   0.439   3.413   3.403
 1964SOL    HW3 7887   0.372   3.544   3.438
 1964SOL    MW4 7888   0.436   3.500   3.398
 1965SOL     OW 7889   0.692   3.650   3.502
 1965SOL    HW2 7890   0.761   3.598   3.461
 1965SOL    HW3 7891   0.610   3.605   3.479
 1965SOL    MW4 7892   0.690   3.637   3.493
 1966SOL     OW 7893   0.714   3.891   3.367
 1966SOL    HW2 7894   0.638   3.934   3.407
 1966SOL    HW3 7895   0.718   3.805   3.410
 1966SOL    MW4 7896   0.704   3.885   3.377
 1967SOL     OW 7897   0.476   3.994   3.475
 1967SOL    HW2 7898   0.449   4.085   3.463
 1967SOL    HW3 7899   0.406   3.942   3.435
 1967SOL    MW4 7900   0.463   3.999   3.468
 1968SOL     OW 7901   0.424   4.265   3.378
 1968SOL    HW2 7902   0.500   4.317   3.406
 1968SOL    HW3 7903   0.430   4.264   3.283
 1968SOL    MW4 7904   0.435   4.272   3.369
 1969SOL     OW 7905   0.655   4.396   3.484
 1969SOL    HW2 7906   0.734   4.370   3.438
 1969SOL    HW3 7907   0.655   4.492   3.480
 1969SOL    MW4 7908   0.665   4.405   3.478
 1970SOL     OW 7909   1.132   4.637   3.410
 1970SOL    HW2 7910   1.208   4.691   3.429
 1970SOL    HW3 7911   1.125   4.637   3.314
 1970SOL    MW4 7912   1.141   4.644   3.400
 1971SOL     OW 7913   0.914   0.109   3.451
 1971SOL    HW2 7914   0.918   0.139   3.542
 1971SOL    HW3 7915   0.996   0.061   3.438
 1971SOL    MW4 7916   0.925   0.107   3.461
 1972SOL     OW 7917   0.890   0.381   3.347
 1972SOL    HW2 7918   0.965   0.425   3.386
 1972SOL    HW3 7919   0.906   0.288   3.361
 1972SOL    MW4 7920   0.902   0.374   3.354
 1973SOL     OW 7921   1.116   0.531   3.434
 1973SOL    HW2 7922   1.104   0.538   3.529
 1973SOL    HW3 7923   1.102   0.621   3.403
 1973SOL    MW4 7924   1.112   0.544   3.443
 1974SOL     OW 7925   1.080   0.784   3.315
 1974SOL    HW2 7926   1.167   0.810   3.346
 1974SOL    HW3 7927   1.019   0.841   3.363
 1974SOL    MW4 7928   1.084   0.795   3.325
 1975SOL     OW 7929   0.886   0.933   3.472
 1975SOL    HW2 7930   0.896   1.011   3.418
 1975SOL    HW3 7931   0.823   0.879   3.423
 1975SOL    MW4 7932   0.879   0.936   3.458
 1976SOL     OW 7933   0.920   1.167   3.324
 1976SOL    HW2 7934   0.997   1.211   3.361
 1976SOL    HW3 7935   0.932   1.174   3.229
 1976SOL    MW4 7936   0.932   1.174   3.317
 1977SOL     OW 7937   1.148   1.263   3.429
 1977SOL    HW2 7938   1.114   1.262   3.519
 1977SOL    HW3 7939   1.155   1.356   3.407
 1977SOL    MW4 7940   1.144   1.275   3.438
 1978SOL     OW 7941   1.116   1.527   3.343
 1978SOL    HW2 7942   1.191   1.583   3.363
 1978SOL    HW3 7943   1.111   1.528   3.247
 1978SOL    MW4 7944   1.125   1.535   3.333
 1979SOL     OW 7945   0.898   1.656   3.469
 1979SOL    HW2 7946   0.910   1.747   3.442
 1979SOL    HW3 7947   0.972   1.609   3.429
 1979SOL    MW4 7948   0.910   1.661   3.460
 1980SOL     OW 7949   0.912   1.943   3.406
 1980SOL    HW2 7950   0.987   1.998   3.432
 1980SOL    HW3 7951   0.836   1.999   3.422
 1980SOL    MW4 7952   0.912   1.958   3.412
 1981SOL     OW 7953   1.124   2.084   3.498
 1981SOL    HW2 7954   1.200   2.046   3.454
 1981SOL    HW3 7955   1.108   2.166   3.451
 1981SOL    MW4 7956   1.132   2.090   3.486
 1982SOL     OW 7957   1.102   2.334   3.361
 1982SOL    HW2 7958   1.178   2.373   3.403
 1982SOL    HW3 7959   1.126   2.331   3.268
 1982SOL    MW4 7960   1.115   2.339   3.354
 1983SOL     OW 7961   0.854   2.425   3.469
 1983SOL    HW2 7962   0.862   2.432   3.564
 1983SOL    HW3 7963   0.939   2.392   3.441
 1983SOL    MW4 7964   0.866   2.422   3.478
 1984SOL     OW 7965   0.867   2.690   3.359
 1984SOL    HW2 7966   0.948   2.726   3.396
 1984SOL    HW3 7967   0.861   2.601   3.396
 1984SOL    MW4 7968   0.877   2.683   3.369
 1985SOL     OW 7969   1.088   2.814   3.456
 1985SOL    HW2 7970   1.082   2.826   3.551
 1985SOL    HW3 7971   1.180   2.791   3.440
 1985SOL    MW4 7972   1.099   2.812   3.466
 1986SOL     OW 7973   1.100   3.079   3.373
 1986SOL    HW2 7974   1.093   2.987   3.399
 1986SOL    HW3 7975   1.110   3.077   3.278
 1986SOL    MW4 7976   1.101   3.067   3.364
 1987SOL     OW 7977   0.895   3.250   3.496
 1987SOL    HW2 7978   0.971   3.198   3.470
 1987SOL    HW3 7979   0.820   3.204   3.457
 1987SOL    MW4 7980   0.895   3.237   3.488
 1988SOL     OW 7981   0.872   3.492   3.368
 1988SOL    HW2 7982   0.876   3.410   3.416
 1988SOL    HW3 7983   0.888   3.468   3.277
 1988SOL    MW4 7984   0.875   3.478   3.362
 1989SOL     OW 7985   1.088   3.621   3.452
 1989SOL    HW2 7986   1.092   3.615   3.547
 1989SOL    HW3 7987   1.007   3.575   3.428
 1989SOL    MW4 7988   1.078   3.614   3.461
 1990SOL     OW 7989   1.096   3.880   3.361
 1990SOL    HW2 7990   1.185   3.896   3.392
 1990SOL    HW3 7991   1.076   3.791   3.391
 1990SOL    MW4 7992   1.106   3.870   3.369
 1991SOL     OW 7993   0.898   4.045   3.482
 1991SOL    HW2 7994   0.979   4.000   3.461
 1991SOL    HW3 7995   0.829   3.990   3.445
 1991SOL    MW4 7996   0.899   4.032   3.475
 1992SOL     OW 7997   0.884   4.298   3.351
 1992SOL    HW2 7998   0.873   4.205   3.369
 1992SOL    HW3 7999   0.923   4.301   3.263
 1992SOL    MW4 8000   0.888   4.287   3.342
 1993SOL     OW 8001   1.148   4.356   3.489
 1993SOL    HW2 8002   1.064   4.322   3.459
 1993SOL    HW3 8003   1.145   4.449   3.468
 1993SOL    MW4 8004   1.136   4.364   3.482
 1994SOL     OW 8005   1.608   4.653   3.352
 1994SOL    HW2 8006   1.588   4.564   3.382
 1994SOL    HW3 8007   1.539   4.708   3.392
 1994SOL    MW4 8008   1.596   4.649   3.361
 1995SOL     OW 8009   1.374   0.127   3.464
 1995SOL    HW2 8010   1.367   0.124   3.560
 1995SOL    HW3 8011   1.357   0.218   3.442
 1995SOL    MW4 8012   1.371   0.138   3.474
 1996SOL     OW 8013   1.329   0.382   3.372
 1996SOL    HW2 8014   1.405   0.433   3.398
 1996SOL    HW3 8015   1.254   0.437   3.395
 1996SOL    MW4 8016   1.329   0.396   3.378
 1997SOL     OW 8017   1.560   0.513   3.460
 1997SOL    HW2 8018   1.546   0.515   3.555
 1997SOL    HW3 8019   1.641   0.464   3.449
 1997SOL    MW4 8020   1.569   0.507   3.471
 1998SOL     OW 8021   1.537   0.756   3.343
 1998SOL    HW2 8022   1.454   0.794   3.373
 1998SOL    HW3 8023   1.537   0.667   3.378
 1998SOL    MW4 8024   1.526   0.749   3.351
 1999SOL     OW 8025   1.311   0.872   3.428
 1999SOL    HW2 8026   1.304   0.890   3.522
 1999SOL    HW3 8027   1.315   0.958   3.387
 1999SOL    MW4 8028   1.310   0.886   3.435
 2000SOL     OW 8029   1.358   1.125   3.297
 2000SOL    HW2 8030   1.436   1.136   3.352
 2000SOL    HW3 8031   1.294   1.185   3.334
 2000SOL    MW4 8032   1.360   1.134   3.309
 2001SOL     OW 8033   1.581   1.210   3.452
 2001SOL    HW2 8034   1.604   1.236   3.542
 2001SOL    HW3 8035   1.663   1.177   3.415
 2001SOL    MW4 8036   1.595   1.209   3.459
 2002SOL     OW 8037   1.584   1.492   3.371
 2002SOL    HW2 8038   1.596   1.405   3.409
 2002SOL    HW3 8039   1.577   1.476   3.277
 2002SOL    MW4 8040   1.585   1.479   3.364
 2003SOL     OW 8041   1.350   1.656   3.456
 2003SOL    HW2 8042   1.365   1.652   3.551
 2003SOL    HW3 8043   1.419   1.601   3.419
 2003SOL    MW4 8044   1.361   1.649   3.464
 2004SOL     OW 8045   1.357   1.932   3.384
 2004SOL    HW2 8046   1.439   1.965   3.422
 2004SOL    HW3 8047   1.359   1.838   3.401
 2004SOL    MW4 8048   1.368   1.924   3.391
 2005SOL     OW 8049   1.581   2.021   3.502
 2005SOL    HW2 8050   1.642   1.962   3.457
 2005SOL    HW3 8051   1.587   2.103   3.453
 2005SOL    MW4 8052   1.590   2.024   3.490
 2006SOL     OW 8053   1.576   2.276   3.374
 2006SOL    HW2 8054   1.503   2.334   3.393
 2006SOL    HW3 8055   1.586   2.281   3.279
 2006SOL    MW4 8056   1.568   2.284   3.364
 2007SOL     OW 8057   1.356   2.429   3.456
 2007SOL    HW2 8058   1.355   2.420   3.551
 2007SOL    HW3 8059   1.345   2.522   3.441
 2007SOL    MW4 8060   1.354   2.440   3.466
 2008SOL     OW 8061   1.332   2.709   3.383
 2008SOL    HW2 8062   1.410   2.754   3.415
 2008SOL    HW3 8063   1.337   2.715   3.288
 2008SOL    MW4 8064   1.343   2.716   3.375
 2009SOL     OW 8065   1.556   2.828   3.472
 2009SOL    HW2 8066   1.630   2.778   3.438
 2009SOL    HW3 8067   1.556   2.909   3.422
 2009SOL    MW4 8068   1.566   2.832   3.461
 2010SOL     OW 8069   1.541   3.089   3.324
 2010SOL    HW2 8070   1.621   3.130   3.357
 2010SOL    HW3 8071   1.470   3.134   3.368
 2010SOL    MW4 8072   1.542   3.100   3.334
 2011SOL     OW 8073   1.342   3.214   3.472
 2011SOL    HW2 8074   1.343   3.231   3.566
 2011SOL    HW3 8075   1.263   3.161   3.459
 2011SOL    MW4 8076   1.331   3.209   3.483
 2012SOL     OW 8077   1.312   3.491   3.376
 2012SOL    HW2 8078   1.327   3.403   3.411
 2012SOL    HW3 8079   1.236   3.524   3.425
 2012SOL    MW4 8080   1.304   3.484   3.387
 2013SOL     OW 8081   1.542   3.593   3.457
 2013SOL    HW2 8082   1.555   3.592   3.551
 2013SOL    HW3 8083   1.453   3.558   3.444
 2013SOL    MW4 8084   1.532   3.588   3.467
 2014SOL     OW 8085   1.571   3.872   3.369
 2014SOL    HW2 8086   1.559   3.778   3.382
 2014SOL    HW3 8087   1.578   3.882   3.274
 2014SOL    MW4 8088   1.571   3.861   3.358
 2015SOL     OW 8089   1.326   3.990   3.456
 2015SOL    HW2 8090   1.328   4.076   3.415
 2015SOL    HW3 8091   1.408   3.949   3.430
 2015SOL    MW4 8092   1.337   3.996   3.447
 2016SOL     OW 8093   1.386   4.242   3.355
 2016SOL    HW2 8094   1.328   4.290   3.414
 2016SOL    HW3 8095   1.359   4.267   3.267
 2016SOL    MW4 8096   1.375   4.251   3.351
 2017SOL     OW 8097   1.598   4.408   3.462
 2017SOL    HW2 8098   1.685   4.370   3.459
 2017SOL    HW3 8099   1.544   4.350   3.408
 2017SOL    MW4 8100   1.602   4.396   3.454
 2018SOL     OW 8101   2.024   4.632   3.349
 2018SOL    HW2 8102   2.103   4.678   3.378
 2018SOL    HW3 8103   1.953   4.676   3.395
 2018SOL    MW4 8104   2.025   4.644   3.359
 2019SOL     OW 8105   1.823   0.120   3.487
 2019SOL    HW2 8106   1.802   0.124   3.580
 2019SOL    HW3 8107   1.759   0.059   3.450
 2019SOL    MW4 8108   1.812   0.113   3.494
 2020SOL     OW 8109   1.786   0.374   3.414
 2020SOL    HW2 8110   1.778   0.280   3.430
 2020SOL    HW3 8111   1.791   0.382   3.319
 2020SOL    MW4 8112   1.786   0.363   3.404
 2021SOL     OW 8113   2.025   0.481   3.485
 2021SOL    HW2 8114   1.996   0.565   3.450
 2021SOL    HW3 8115   1.951   0.422   3.468
 2021SOL    MW4 8116   2.011   0.484   3.478
 2022SOL     OW 8117   1.961   0.727   3.398
 2022SOL    HW2 8118   2.045   0.767   3.422
 2022SOL    HW3 8119   1.955   0.739   3.303
 2022SOL    MW4 8120   1.971   0.734   3.389
 2023SOL     OW 8121   1.743   0.864   3.519
 2023SOL    HW2 8122   1.823   0.817   3.493
 2023SOL    HW3 8123   1.675   0.830   3.462
 2023SOL    MW4 8124   1.745   0.853   3.508
 2024SOL     OW 8125   1.812   1.105   3.362
 2024SOL    HW2 8126   1.874   1.156   3.414
 2024SOL    HW3 8127   1.807   1.020   3.407
 2024SOL    MW4 8128   1.820   1.100   3.375
 2025SOL     OW 8129   2.015   1.251   3.488
 2025SOL    HW2 8130   2.020   1.239   3.583
 2025SOL    HW3 8131   2.019   1.345   3.476
 2025SOL    MW4 8132   2.016   1.261   3.499
 2026SOL     OW 8133   1.983   1.516   3.392
 2026SOL    HW2 8134   2.055   1.572   3.422
 2026SOL    HW3 8135   1.906   1.550   3.438
 2026SOL    MW4 8136   1.983   1.528   3.402
 2027SOL     OW 8137   1.770   1.657   3.508
 2027SOL    HW2 8138   1.781   1.737   3.457
 2027SOL    HW3 8139   1.718   1.599   3.453
 2027SOL    MW4 8140   1.765   1.660   3.494
 2028SOL     OW 8141   1.788   1.898   3.367
 2028SOL    HW2 8142   1.853   1.950   3.415
 2028SOL    HW3 8143   1.816   1.905   3.276
 2028SOL    MW4 8144   1.800   1.906   3.361
 2029SOL     OW 8145   1.992   2.052   3.518
 2029SOL    HW2 8146   2.070   2.011   3.482
 2029SOL    HW3 8147   1.992   2.140   3.479
 2029SOL    MW4 8148   2.002   2.058   3.508
 2030SOL     OW 8149   2.029   2.315   3.412
 2030SOL    HW2 8150   2.117   2.331   3.445
 2030SOL    HW3 8151   2.040   2.304   3.318
 2030SOL    MW4 8152   2.042   2.316   3.404
 2031SOL     OW 8153   1.789   2.422   3.489
 2031SOL    HW2 8154   1.873   2.387   3.459
 2031SOL    HW3 8155   1.724   2.363   3.451
 2031SOL    MW4 8156   1.792   2.410   3.480
 2032SOL     OW 8157   1.771   2.697   3.380
 2032SOL    HW2 8158   1.847   2.734   3.425
 2032SOL    HW3 8159   1.766   2.607   3.411
 2032SOL    MW4 8160   1.780   2.690   3.390
 2033SOL     OW 8161   2.027   2.805   3.469
 2033SOL    HW2 8162   2.020   2.804   3.565
 2033SOL    HW3 8163   2.031   2.898   3.447
 2033SOL    MW4 8164   2.027   2.817   3.479
 2034SOL     OW 8165   1.987   3.061   3.368
 2034SOL    HW2 8166   2.061   3.111   3.402
 2034SOL    HW3 8167   1.910   3.114   3.389
 2034SOL    MW4 8168   1.986   3.074   3.375
 2035SOL     OW 8169   1.772   3.218   3.459
 2035SOL    HW2 8170   1.758   3.229   3.553
 2035SOL    HW3 8171   1.771   3.307   3.423
 2035SOL    MW4 8172   1.770   3.231   3.466
 2036SOL     OW 8173   1.779   3.475   3.353
 2036SOL    HW2 8174   1.696   3.513   3.382
 2036SOL    HW3 8175   1.782   3.492   3.259
 2036SOL    MW4 8176   1.769   3.482   3.345
 2037SOL     OW 8177   2.018   3.534   3.502
 2037SOL    HW2 8178   2.091   3.513   3.444
 2037SOL    HW3 8179   1.940   3.502   3.456
 2037SOL    MW4 8180   2.017   3.527   3.488
 2038SOL     OW 8181   2.009   3.806   3.367
 2038SOL    HW2 8182   1.940   3.858   3.409
 2038SOL    HW3 8183   2.020   3.730   3.423
 2038SOL    MW4 8184   2.002   3.803   3.380
 2039SOL     OW 8185   1.816   3.988   3.447
 2039SOL    HW2 8186   1.823   3.992   3.543
 2039SOL    HW3 8187   1.732   3.945   3.431
 2039SOL    MW4 8188   1.806   3.983   3.458
 2040SOL     OW 8189   1.806   4.247   3.348
 2040SOL    HW2 8190   1.805   4.159   3.385
 2040SOL    HW3 8191   1.814   4.233   3.254
 2040SOL    MW4 8192   1.807   4.233   3.341
 2041SOL     OW 8193   2.028   4.359   3.468
 2041SOL    HW2 8194   1.955   4.307   3.435
 2041SOL    HW3 8195   2.025   4.439   3.416
 2041SOL    MW4 8196   2.018   4.363   3.457
 2042SOL     OW 8197   2.486   0.014   3.346
 2042SOL    HW2 8198   2.476  -0.077   3.373
 2042SOL    HW3 8199   2.501   0.009   3.252
 2042SOL    MW4 8200   2.487   0.001   3.337
 2043SOL     OW 8201   2.246   0.139   3.411
 2043SOL    HW2 8202   2.239   0.228   3.376
 2043SOL    HW3 8203   2.333   0.110   3.386
 2043SOL    MW4 8204   2.256   0.147   3.403
 2044SOL     OW 8205   2.241   0.401   3.339
 2044SOL    HW2 8206   2.317   0.434   3.387
 2044SOL    HW3 8207   2.165   0.434   3.387
 2044SOL    MW4 8208   2.241   0.410   3.351
 2045SOL     OW 8209   2.443   0.522   3.476
 2045SOL    HW2 8210   2.525   0.503   3.432
 2045SOL    HW3 8211   2.428   0.615   3.461
 2045SOL    MW4 8212   2.452   0.531   3.468
 2046SOL     OW 8213   2.457   0.778   3.376
 2046SOL    HW2 8214   2.541   0.816   3.403
 2046SOL    HW3 8215   2.458   0.786   3.280
 2046SOL    MW4 8216   2.468   0.784   3.367
 2047SOL     OW 8217   2.202   0.868   3.449
 2047SOL    HW2 8218   2.225   0.957   3.425
 2047SOL    HW3 8219   2.285   0.819   3.442
 2047SOL    MW4 8220   2.216   0.873   3.445
 2048SOL     OW 8221   2.233   1.145   3.340
 2048SOL    HW2 8222   2.302   1.190   3.389
 2048SOL    HW3 8223   2.152   1.185   3.372
 2048SOL    MW4 8224   2.231   1.156   3.351
 2049SOL     OW 8225   2.442   1.288   3.459
 2049SOL    HW2 8226   2.452   1.304   3.553
 2049SOL    HW3 8227   2.521   1.241   3.434
 2049SOL    MW4 8228   2.454   1.284   3.468
 2050SOL     OW 8229   2.481   1.548   3.376
 2050SOL    HW2 8230   2.474   1.453   3.389
 2050SOL    HW3 8231   2.489   1.557   3.281
 2050SOL    MW4 8232   2.481   1.536   3.365
 2051SOL     OW 8233   2.230   1.630   3.494
 2051SOL    HW2 8234   2.241   1.643   3.589
 2051SOL    HW3 8235   2.318   1.608   3.464
 2051SOL    MW4 8236   2.243   1.629   3.503
 2052SOL     OW 8237   2.239   1.908   3.428
 2052SOL    HW2 8238   2.227   1.815   3.445
 2052SOL    HW3 8239   2.269   1.913   3.337
 2052SOL    MW4 8240   2.242   1.897   3.418
 2053SOL     OW 8241   2.466   2.050   3.525
 2053SOL    HW2 8242   2.454   2.050   3.620
 2053SOL    HW3 8243   2.387   2.008   3.491
 2053SOL    MW4 8244   2.454   2.044   3.533
 2054SOL     OW 8245   2.502   2.308   3.430
 2054SOL    HW2 8246   2.578   2.354   3.466
 2054SOL    HW3 8247   2.504   2.222   3.472
 2054SOL    MW4 8248   2.513   2.303   3.440
 2055SOL     OW 8249   2.253   2.411   3.529
 2055SOL    HW2 8250   2.246   2.487   3.471
 2055SOL    HW3 8251   2.338   2.372   3.507
 2055SOL    MW4 8252   2.263   2.416   3.519
 2056SOL     OW 8253   2.231   2.639   3.384
 2056SOL    HW2 8254   2.171   2.703   3.421
 2056SOL    HW3 8255   2.220   2.648   3.289
 2056SOL    MW4 8256   2.222   2.648   3.376
 2057SOL     OW 8257   2.430   2.811   3.459
 2057SOL    HW2 8258   2.432   2.888   3.401
 2057SOL    HW3 8259   2.360   2.757   3.423
 2057SOL    MW4 8260   2.421   2.814   3.446
 2058SOL     OW 8261   2.463   3.059   3.340
 2058SOL    HW2 8262   2.532   3.106   3.387
 2058SOL    HW3 8263   2.494   3.052   3.250
 2058SOL    MW4 8264   2.476   3.064   3.335
 2059SOL     OW 8265   2.244   3.196   3.417
 2059SOL    HW2 8266   2.252   3.186   3.512
 2059SOL    HW3 8267   2.323   3.155   3.382
 2059SOL    MW4 8268   2.255   3.189   3.425
 2060SOL     OW 8269   2.266   3.465   3.381
 2060SOL    HW2 8270   2.264   3.375   3.413
 2060SOL    HW3 8271   2.245   3.458   3.287
 2060SOL    MW4 8272   2.263   3.453   3.373
 2061SOL     OW 8273   2.456   3.611   3.503
 2061SOL    HW2 8274   2.467   3.695   3.458
 2061SOL    HW3 8275   2.380   3.571   3.461
 2061SOL    MW4 8276   2.447   3.617   3.491
 2062SOL     OW 8277   2.493   3.845   3.368
 2062SOL    HW2 8278   2.564   3.897   3.405
 2062SOL    HW3 8279   2.413   3.890   3.394
 2062SOL    MW4 8280   2.492   3.858   3.376
 2063SOL     OW 8281   2.252   3.964   3.444
 2063SOL    HW2 8282   2.249   4.052   3.405
 2063SOL    HW3 8283   2.179   3.918   3.404
 2063SOL    MW4 8284   2.242   3.970   3.434
 2064SOL     OW 8285   2.256   4.232   3.353
 2064SOL    HW2 8286   2.172   4.269   3.382
 2064SOL    HW3 8287   2.258   4.249   3.259
 2064SOL    MW4 8288   2.245   4.239   3.344
 2065SOL     OW 8289   2.468   4.403   3.441
 2065SOL    HW2 8290   2.465   4.403   3.537
 2065SOL    HW3 8291   2.388   4.358   3.415
 2065SOL    MW4 8292   2.457   4.397   3.450
 2066SOL     OW 8293   2.965   4.656   3.364
 2066SOL    HW2 8294   2.880   4.692   3.388
 2066SOL    HW3 8295   2.959   4.641   3.269
 2066SOL    MW4 8296   2.953   4.659   3.354
 2067SOL     OW 8297   2.726   0.152   3.414
 2067SOL    HW2 8298   2.707   0.245   3.403
 2067SOL    HW3 8299   2.645   0.108   3.389
 2067SOL    MW4 8300   2.713   0.158   3.409
 2068SOL     OW 8301   2.695   0.441   3.368
 2068SOL    HW2 8302   2.780   0.461   3.408
 2068SOL    HW3 8303   2.715   0.433   3.275
 2068SOL    MW4 8304   2.709   0.442   3.361
 2069SOL     OW 8305   2.945   0.511   3.464
 2069SOL    HW2 8306   2.941   0.519   3.559
 2069SOL    HW3 8307   2.955   0.601   3.433
 2069SOL    MW4 8308   2.946   0.524   3.472
 2070SOL     OW 8309   2.923   0.754   3.358
 2070SOL    HW2 8310   3.002   0.790   3.400
 2070SOL    HW3 8311   2.852   0.811   3.388
 2070SOL    MW4 8312   2.924   0.766   3.368
 2071SOL     OW 8313   2.700   0.884   3.445
 2071SOL    HW2 8314   2.694   0.884   3.540
 2071SOL    HW3 8315   2.698   0.977   3.421
 2071SOL    MW4 8316   2.699   0.896   3.454
 2072SOL     OW 8317   2.671   1.165   3.342
 2072SOL    HW2 8318   2.743   1.208   3.389
 2072SOL    HW3 8319   2.692   1.177   3.250
 2072SOL    MW4 8320   2.684   1.173   3.336
 2073SOL     OW 8321   2.902   1.264   3.472
 2073SOL    HW2 8322   2.919   1.267   3.566
 2073SOL    HW3 8323   2.969   1.206   3.437
 2073SOL    MW4 8324   2.913   1.257   3.480
 2074SOL     OW 8325   2.945   1.555   3.403
 2074SOL    HW2 8326   2.864   1.595   3.436
 2074SOL    HW3 8327   2.933   1.461   3.416
 2074SOL    MW4 8328   2.933   1.548   3.409
 2075SOL     OW 8329   2.714   1.680   3.500
 2075SOL    HW2 8330   2.719   1.770   3.468
 2075SOL    HW3 8331   2.635   1.644   3.461
 2075SOL    MW4 8332   2.705   1.687   3.491
 2076SOL     OW 8333   2.709   1.936   3.407
 2076SOL    HW2 8334   2.621   1.965   3.434
 2076SOL    HW3 8335   2.704   1.931   3.311
 2076SOL    MW4 8336   2.696   1.939   3.398
 2077SOL     OW 8337   2.944   2.025   3.531
 2077SOL    HW2 8338   2.922   2.050   3.621
 2077SOL    HW3 8339   2.861   1.998   3.492
 2077SOL    MW4 8340   2.931   2.025   3.538
 2078SOL     OW 8341   2.903   2.284   3.415
 2078SOL    HW2 8342   2.917   2.200   3.459
 2078SOL    HW3 8343   2.884   2.261   3.324
 2078SOL    MW4 8344   2.902   2.270   3.409
 2079SOL     OW 8345   2.717   2.456   3.539
 2079SOL    HW2 8346   2.713   2.438   3.633
 2079SOL    HW3 8347   2.797   2.413   3.510
 2079SOL    MW4 8348   2.727   2.448   3.548
 2080SOL     OW 8349   2.670   2.701   3.404
 2080SOL    HW2 8350   2.677   2.616   3.447
 2080SOL    HW3 8351   2.582   2.731   3.424
 2080SOL    MW4 8352   2.660   2.694   3.412
 2081SOL     OW 8353   2.885   2.843   3.520
 2081SOL    HW2 8354   2.880   2.830   3.614
 2081SOL    HW3 8355   2.816   2.787   3.484
 2081SOL    MW4 8356   2.875   2.834   3.528
 2082SOL     OW 8357   2.900   3.092   3.380
 2082SOL    HW2 8358   2.883   3.010   3.426
 2082SOL    HW3 8359   2.905   3.067   3.287
 2082SOL    MW4 8360   2.898   3.078   3.374
 2083SOL     OW 8361   2.643   3.206   3.485
 2083SOL    HW2 8362   2.643   3.227   3.578
 2083SOL    HW3 8363   2.729   3.170   3.468
 2083SOL    MW4 8364   2.654   3.204   3.495
 2084SOL     OW 8365   2.675   3.472   3.388
 2084SOL    HW2 8366   2.667   3.383   3.423
 2084SOL    HW3 8367   2.600   3.518   3.424
 2084SOL    MW4 8368   2.664   3.466   3.397
 2085SOL     OW 8369   2.921   3.585   3.460
 2085SOL    HW2 8370   2.916   3.672   3.422
 2085SOL    HW3 8371   2.834   3.548   3.447
 2085SOL    MW4 8372   2.909   3.591   3.454
 2086SOL     OW 8373   2.928   3.864   3.415
 2086SOL    HW2 8374   3.006   3.903   3.454
 2086SOL    HW3 8375   2.856   3.923   3.441
 2086SOL    MW4 8376   2.929   3.877   3.424
 2087SOL     OW 8377   2.696   3.999   3.448
 2087SOL    HW2 8378   2.667   4.006   3.539
 2087SOL    HW3 8379   2.688   4.088   3.414
 2087SOL    MW4 8380   2.691   4.012   3.455
 2088SOL     OW 8381   2.687   4.260   3.363
 2088SOL    HW2 8382   2.757   4.319   3.392
 2088SOL    HW3 8383   2.606   4.304   3.391
 2088SOL    MW4 8384   2.685   4.274   3.370
 2089SOL     OW 8385   2.921   4.401   3.438
 2089SOL    HW2 8386   2.921   4.398   3.533
 2089SOL    HW3 8387   2.948   4.490   3.416
 2089SOL    MW4 8388   2.924   4.412   3.447
 2090SOL     OW 8389   3.403   0.007   3.387
 2090SOL    HW2 8390   3.332   0.044   3.438
 2090SOL    HW3 8391   3.377   0.020   3.295
 2090SOL    MW4 8392   3.391   0.013   3.381
 2091SOL     OW 8393   3.167   0.149   3.495
 2091SOL    HW2 8394   3.174   0.230   3.445
 2091SOL    HW3 8395   3.111   0.093   3.442
 2091SOL    MW4 8396   3.161   0.152   3.481
 2092SOL     OW 8397   3.163   0.378   3.355
 2092SOL    HW2 8398   3.096   0.442   3.378
 2092SOL    HW3 8399   3.163   0.376   3.259
 2092SOL    MW4 8400   3.154   0.386   3.345
 2093SOL     OW 8401   3.379   0.490   3.475
 2093SOL    HW2 8402   3.372   0.484   3.571
 2093SOL    HW3 8403   3.304   0.441   3.443
 2093SOL    MW4 8404   3.368   0.483   3.484
 2094SOL     OW 8405   3.396   0.750   3.376
 2094SOL    HW2 8406   3.459   0.795   3.432
 2094SOL    HW3 8407   3.397   0.660   3.408
 2094SOL    MW4 8408   3.405   0.744   3.388
 2095SOL     OW 8409   3.173   0.871   3.483
 2095SOL    HW2 8410   3.178   0.960   3.448
 2095SOL    HW3 8411   3.239   0.822   3.434
 2095SOL    MW4 8412   3.182   0.877   3.472
 2096SOL     OW 8413   3.151   1.121   3.322
 2096SOL    HW2 8414   3.239   1.150   3.346
 2096SOL    HW3 8415   3.140   1.152   3.232
 2096SOL    MW4 8416   3.161   1.129   3.313
 2097SOL     OW 8417   3.354   1.250   3.477
 2097SOL    HW2 8418   3.439   1.207   3.465
 2097SOL    HW3 8419   3.369   1.342   3.453
 2097SOL    MW4 8420   3.367   1.257   3.472
 2098SOL     OW 8421   3.410   1.554   3.394
 2098SOL    HW2 8422   3.486   1.610   3.413
 2098SOL    HW3 8423   3.336   1.601   3.431
 2098SOL    MW4 8424   3.410   1.568   3.402
 2099SOL     OW 8425   3.176   1.654   3.513
 2099SOL    HW2 8426   3.157   1.744   3.485
 2099SOL    HW3 8427   3.101   1.603   3.483
 2099SOL    MW4 8428   3.164   1.659   3.506
 2100SOL     OW 8429   3.189   1.919   3.436
 2100SOL    HW2 8430   3.106   1.958   3.462
 2100SOL    HW3 8431   3.189   1.924   3.340
 2100SOL    MW4 8432   3.178   1.924   3.427
 2101SOL     OW 8433   3.417   2.091   3.481
 2101SOL    HW2 8434   3.392   2.176   3.446
 2101SOL    HW3 8435   3.337   2.039   3.478
 2101SOL    MW4 8436   3.403   2.095   3.476
 2102SOL     OW 8437   3.342   2.351   3.401
 2102SOL    HW2 8438   3.422   2.397   3.429
 2102SOL    HW3 8439   3.275   2.383   3.462
 2102SOL    MW4 8440   3.344   2.362   3.413
 2103SOL     OW 8441   3.114   2.444   3.535
 2103SOL    HW2 8442   3.100   2.526   3.487
 2103SOL    HW3 8443   3.052   2.382   3.495
 2103SOL    MW4 8444   3.104   2.446   3.523
 2104SOL     OW 8445   3.088   2.715   3.383
 2104SOL    HW2 8446   3.166   2.759   3.417
 2104SOL    HW3 8447   3.015   2.757   3.429
 2104SOL    MW4 8448   3.089   2.727   3.393
 2105SOL     OW 8449   3.343   2.831   3.439
 2105SOL    HW2 8450   3.426   2.795   3.410
 2105SOL    HW3 8451   3.344   2.922   3.410
 2105SOL    MW4 8452   3.354   2.838   3.432
 2106SOL     OW 8453   3.385   3.102   3.374
 2106SOL    HW2 8454   3.454   3.150   3.418
 2106SOL    HW3 8455   3.306   3.119   3.426
 2106SOL    MW4 8456   3.384   3.111   3.387
 2107SOL     OW 8457   3.130   3.189   3.481
 2107SOL    HW2 8458   3.132   3.281   3.454
 2107SOL    HW3 8459   3.054   3.152   3.436
 2107SOL    MW4 8460   3.120   3.196   3.472
 2108SOL     OW 8461   3.149   3.462   3.387
 2108SOL    HW2 8462   3.074   3.507   3.427
 2108SOL    HW3 8463   3.149   3.493   3.296
 2108SOL    MW4 8464   3.139   3.472   3.380
 2109SOL     OW 8465   3.368   3.604   3.507
 2109SOL    HW2 8466   3.370   3.693   3.473
 2109SOL    HW3 8467   3.286   3.567   3.473
 2109SOL    MW4 8468   3.357   3.611   3.498
 2110SOL     OW 8469   3.378   3.855   3.382
 2110SOL    HW2 8470   3.455   3.905   3.408
 2110SOL    HW3 8471   3.309   3.883   3.442
 2110SOL    MW4 8472   3.379   3.865   3.393
 2111SOL     OW 8473   3.169   3.977   3.509
 2111SOL    HW2 8474   3.155   3.994   3.602
 2111SOL    HW3 8475   3.155   4.062   3.466
 2111SOL    MW4 8476   3.165   3.990   3.515
 2112SOL     OW 8477   3.144   4.243   3.392
 2112SOL    HW2 8478   3.198   4.320   3.411
 2112SOL    HW3 8479   3.054   4.274   3.399
 2112SOL    MW4 8480   3.140   4.257   3.395
 2113SOL     OW 8481   3.358   4.416   3.453
 2113SOL    HW2 8482   3.371   4.437   3.546
 2113SOL    HW3 8483   3.379   4.497   3.407
 2113SOL    MW4 8484   3.362   4.430   3.459
 2114SOL     OW 8485   3.812   4.645   3.398
 2114SOL    HW2 8486   3.748   4.710   3.426
 2114SOL    HW3 8487   3.812   4.651   3.303
 2114SOL    MW4 8488   3.804   4.655   3.389
 2115SOL     OW 8489   3.616   0.149   3.517
 2115SOL    HW2 8490   3.609   0.231   3.469
 2115SOL    HW3 8491   3.539   0.099   3.490
 2115SOL    MW4 8492   3.605   0.153   3.507
 2116SOL     OW 8493   3.612   0.393   3.360
 2116SOL    HW2 8494   3.688   0.435   3.400
 2116SOL    HW3 8495   3.537   0.435   3.403
 2116SOL    MW4 8496   3.612   0.404   3.371
 2117SOL     OW 8497   3.813   0.496   3.526
 2117SOL    HW2 8498   3.805   0.505   3.621
 2117SOL    HW3 8499   3.898   0.456   3.512
 2117SOL    MW4 8500   3.823   0.492   3.537
 2118SOL     OW 8501   3.792   0.757   3.401
 2118SOL    HW2 8502   3.868   0.811   3.424
 2118SOL    HW3 8503   3.809   0.672   3.442
 2118SOL    MW4 8504   3.804   0.753   3.410
 2119SOL     OW 8505   3.584   0.905   3.500
 2119SOL    HW2 8506   3.596   0.897   3.595
 2119SOL    HW3 8507   3.646   0.843   3.463
 2119SOL    MW4 8508   3.594   0.896   3.508
 2120SOL     OW 8509   3.605   1.156   3.411
 2120SOL    HW2 8510   3.586   1.066   3.439
 2120SOL    HW3 8511   3.634   1.147   3.320
 2120SOL    MW4 8512   3.607   1.143   3.403
 2121SOL     OW 8513   3.840   1.278   3.488
 2121SOL    HW2 8514   3.834   1.298   3.582
 2121SOL    HW3 8515   3.759   1.231   3.469
 2121SOL    MW4 8516   3.828   1.274   3.498
 2122SOL     OW 8517   3.841   1.535   3.370
 2122SOL    HW2 8518   3.907   1.583   3.421
 2122SOL    HW3 8519   3.835   1.449   3.412
 2122SOL    MW4 8520   3.849   1.530   3.382
 2123SOL     OW 8521   3.633   1.684   3.500
 2123SOL    HW2 8522   3.634   1.768   3.455
 2123SOL    HW3 8523   3.708   1.636   3.464
 2123SOL    MW4 8524   3.643   1.689   3.489
 2124SOL     OW 8525   3.627   1.946   3.392
 2124SOL    HW2 8526   3.699   1.990   3.438
 2124SOL    HW3 8527   3.552   2.004   3.403
 2124SOL    MW4 8528   3.627   1.959   3.399
 2125SOL     OW 8529   3.845   2.075   3.535
 2125SOL    HW2 8530   3.853   2.070   3.630
 2125SOL    HW3 8531   3.918   2.022   3.502
 2125SOL    MW4 8532   3.855   2.067   3.543
 2126SOL     OW 8533   3.812   2.341   3.397
 2126SOL    HW2 8534   3.898   2.374   3.425
 2126SOL    HW3 8535   3.808   2.252   3.432
 2126SOL    MW4 8536   3.823   2.334   3.405
 2127SOL     OW 8537   3.592   2.470   3.474
 2127SOL    HW2 8538   3.611   2.549   3.423
 2127SOL    HW3 8539   3.662   2.410   3.451
 2127SOL    MW4 8540   3.603   2.473   3.464
 2128SOL     OW 8541   3.594   2.723   3.366
 2128SOL    HW2 8542   3.666   2.769   3.408
 2128SOL    HW3 8543   3.616   2.725   3.273
 2128SOL    MW4 8544   3.606   2.730   3.359
 2129SOL     OW 8545   3.832   2.849   3.456
 2129SOL    HW2 8546   3.834   2.833   3.551
 2129SOL    HW3 8547   3.811   2.942   3.448
 2129SOL    MW4 8548   3.829   2.859   3.468
 2130SOL     OW 8549   3.782   3.102   3.377
 2130SOL    HW2 8550   3.844   3.167   3.410
 2130SOL    HW3 8551   3.804   3.093   3.284
 2130SOL    MW4 8552   3.793   3.109   3.369
 2131SOL     OW 8553   3.580   3.265   3.486
 2131SOL    HW2 8554   3.576   3.348   3.440
 2131SOL    HW3 8555   3.642   3.212   3.435
 2131SOL    MW4 8556   3.588   3.269   3.474
 2132SOL     OW 8557   3.579   3.516   3.353
 2132SOL    HW2 8558   3.498   3.546   3.394
 2132SOL    HW3 8559   3.560   3.514   3.260
 2132SOL    MW4 8560   3.566   3.519   3.346
 2133SOL     OW 8561   3.821   3.639   3.450
 2133SOL    HW2 8562   3.838   3.646   3.544
 2133SOL    HW3 8563   3.734   3.598   3.445
 2133SOL    MW4 8564   3.812   3.634   3.462
 2134SOL     OW 8565   3.822   3.899   3.366
 2134SOL    HW2 8566   3.752   3.936   3.420
 2134SOL    HW3 8567   3.819   3.805   3.383
 2134SOL    MW4 8568   3.812   3.892   3.375
 2135SOL     OW 8569   3.590   3.989   3.487
 2135SOL    HW2 8570   3.581   3.998   3.582
 2135SOL    HW3 8571   3.582   4.078   3.454
 2135SOL    MW4 8572   3.588   4.002   3.495
 2136SOL     OW 8573   3.585   4.262   3.397
 2136SOL    HW2 8574   3.507   4.315   3.412
 2136SOL    HW3 8575   3.594   4.258   3.302
 2136SOL    MW4 8576   3.576   4.269   3.386
 2137SOL     OW 8577   3.798   4.401   3.507
 2137SOL    HW2 8578   3.727   4.355   3.461
 2137SOL    HW3 8579   3.804   4.486   3.463
 2137SOL    MW4 8580   3.789   4.406   3.495
 2138SOL     OW 8581   4.292   0.013   3.376
 2138SOL    HW2 8582   4.291  -0.072   3.421
 2138SOL    HW3 8583   4.372   0.055   3.406
 2138SOL    MW4 8584   4.302   0.007   3.386
 2139SOL     OW 8585   4.051   0.127   3.467
 2139SOL    HW2 8586   4.128   0.082   3.431
 2139SOL    HW3 8587   3.977   0.077   3.432
 2139SOL    MW4 8588   4.051   0.114   3.458
 2140SOL     OW 8589   4.075   0.389   3.402
 2140SOL    HW2 8590   4.073   0.296   3.422
 2140SOL    HW3 8591   4.038   0.395   3.314
 2140SOL    MW4 8592   4.070   0.378   3.393
 2141SOL     OW 8593   4.296   0.529   3.544
 2141SOL    HW2 8594   4.265   0.604   3.492
 2141SOL    HW3 8595   4.227   0.463   3.534
 2141SOL    MW4 8596   4.283   0.530   3.536
 2142SOL     OW 8597   4.257   0.758   3.393
 2142SOL    HW2 8598   4.335   0.812   3.405
 2142SOL    HW3 8599   4.255   0.740   3.299
 2142SOL    MW4 8600   4.267   0.763   3.382
 2143SOL     OW 8601   4.029   0.909   3.433
 2143SOL    HW2 8602   4.047   0.999   3.406
 2143SOL    HW3 8603   4.110   0.862   3.414
 2143SOL    MW4 8604   4.042   0.915   3.427
 2144SOL     OW 8605   4.085   1.175   3.389
 2144SOL    HW2 8606   4.146   1.228   3.441
 2144SOL    HW3 8607   3.999   1.202   3.419
 2144SOL    MW4 8608   4.082   1.186   3.400
 2145SOL     OW 8609   4.280   1.308   3.516
 2145SOL    HW2 8610   4.270   1.386   3.461
 2145SOL    HW3 8611   4.358   1.265   3.482
 2145SOL    MW4 8612   4.289   1.313   3.504
 2146SOL     OW 8613   4.258   1.525   3.373
 2146SOL    HW2 8614   4.190   1.583   3.406
 2146SOL    HW3 8615   4.267   1.548   3.281
 2146SOL    MW4 8616   4.250   1.536   3.365
 2147SOL     OW 8617   4.044   1.674   3.495
 2147SOL    HW2 8618   4.062   1.683   3.588
 2147SOL    HW3 8619   4.010   1.760   3.469
 2147SOL    MW4 8620   4.042   1.687   3.504
 2148SOL     OW 8621   4.003   1.924   3.394
 2148SOL    HW2 8622   4.091   1.958   3.412
 2148SOL    HW3 8623   3.990   1.938   3.300
 2148SOL    MW4 8624   4.013   1.931   3.384
 2149SOL     OW 8625   4.234   2.061   3.424
 2149SOL    HW2 8626   4.256   2.154   3.433
 2149SOL    HW3 8627   4.319   2.018   3.409
 2149SOL    MW4 8628   4.248   2.067   3.423
 2150SOL     OW 8629   4.264   2.341   3.359
 2150SOL    HW2 8630   4.190   2.392   3.391
 2150SOL    HW3 8631   4.252   2.338   3.264
 2150SOL    MW4 8632   4.253   2.347   3.351
 2151SOL     OW 8633   4.047   2.479   3.435
 2151SOL    HW2 8634   4.046   2.490   3.530
 2151SOL    HW3 8635   4.042   2.568   3.400
 2151SOL    MW4 8636   4.046   2.493   3.443
 2152SOL     OW 8637   4.053   2.741   3.346
 2152SOL    HW2 8638   4.124   2.780   3.398
 2152SOL    HW3 8639   3.973   2.779   3.383
 2152SOL    MW4 8640   4.052   2.752   3.358
 2153SOL     OW 8641   4.269   2.838   3.475
 2153SOL    HW2 8642   4.292   2.863   3.564
 2153SOL    HW3 8643   4.337   2.777   3.448
 2153SOL    MW4 8644   4.281   2.833   3.483
 2154SOL     OW 8645   4.240   3.105   3.379
 2154SOL    HW2 8646   4.237   3.016   3.413
 2154SOL    HW3 8647   4.252   3.095   3.284
 2154SOL    MW4 8648   4.241   3.092   3.371
 2155SOL     OW 8649   4.000   3.244   3.448
 2155SOL    HW2 8650   4.012   3.325   3.398
 2155SOL    HW3 8651   4.077   3.191   3.427
 2155SOL    MW4 8652   4.012   3.248   3.439
 2156SOL     OW 8653   4.036   3.496   3.351
 2156SOL    HW2 8654   4.114   3.522   3.399
 2156SOL    HW3 8655   3.968   3.557   3.380
 2156SOL    MW4 8656   4.037   3.508   3.361
 2157SOL     OW 8657   4.260   3.615   3.466
 2157SOL    HW2 8658   4.261   3.616   3.561
 2157SOL    HW3 8659   4.274   3.706   3.440
 2157SOL    MW4 8660   4.262   3.627   3.475
 2158SOL     OW 8661   4.288   3.877   3.374
 2158SOL    HW2 8662   4.365   3.919   3.413
 2158SOL    HW3 8663   4.307   3.873   3.281
 2158SOL    MW4 8664   4.301   3.882   3.367
 2159SOL     OW 8665   4.042   4.027   3.463
 2159SOL    HW2 8666   4.115   3.973   3.434
 2159SOL    HW3 8667   3.964   3.981   3.431
 2159SOL    MW4 8668   4.041   4.014   3.455
 2160SOL     OW 8669   4.030   4.297   3.393
 2160SOL    HW2 8670   4.049   4.208   3.423
 2160SOL    HW3 8671   3.953   4.323   3.442
 2160SOL    MW4 8672   4.023   4.289   3.403
 2161SOL     OW 8673   4.267   4.426   3.481
 2161SOL    HW2 8674   4.270   4.414   3.576
 2161SOL    HW3 8675   4.183   4.390   3.455
 2161SOL    MW4 8676   4.257   4.420   3.490
 2162SOL     OW 8677   0.238   4.648   3.833
 2162SOL    HW2 8678   0.253   4.673   3.925
 2162SOL    HW3 8679   0.144   4.660   3.820
 2162SOL    MW4 8680   0.228   4.653   3.844
 2163SOL     OW 8681   4.460   0.101   3.757
 2163SOL    HW2 8682   4.470   0.185   3.800
 2163SOL    HW3 8683   4.487   0.116   3.666
 2163SOL    MW4 8684   4.465   0.114   3.750
 2164SOL     OW 8685   4.474   0.361   3.834
 2164SOL    HW2 8686   4.401   0.424   3.836
 2164SOL    HW3 8687   4.545   0.408   3.789
 2164SOL    MW4 8688   4.474   0.375   3.828
 2165SOL     OW 8689   0.190   0.529   3.740
 2165SOL    HW2 8690   0.191   0.619   3.773
 2165SOL    HW3 8691   0.190   0.538   3.645
 2165SOL    MW4 8692   0.190   0.542   3.732
 2166SOL     OW 8693   0.201   0.783   3.826
 2166SOL    HW2 8694   0.196   0.765   3.920
 2166SOL    HW3 8695   0.126   0.841   3.809
 2166SOL    MW4 8696   0.190   0.788   3.836
 2167SOL     OW 8697   4.481   0.955   3.752
 2167SOL    HW2 8698   4.409   0.904   3.790
 2167SOL    HW3 8699   4.503   1.019   3.820
 2167SOL    MW4 8700   4.474   0.956   3.766
 2168SOL     OW 8701   0.017   1.139   3.958
 2168SOL    HW2 8702  -0.071   1.156   3.923
 2168SOL    HW3 8703   0.074   1.197   3.908
 2168SOL    MW4 8704   0.013   1.149   3.947
 2169SOL     OW 8705   0.190   1.307   3.791
 2169SOL    HW2 8706   0.194   1.402   3.797
 2169SOL    HW3 8707   0.218   1.286   3.702
 2169SOL    MW4 8708   0.194   1.317   3.780
 2170SOL     OW 8709   0.250   1.568   3.851
 2170SOL    HW2 8710   0.238   1.567   3.946
 2170SOL    HW3 8711   0.179   1.623   3.818
 2170SOL    MW4 8712   0.239   1.575   3.859
 2171SOL     OW 8713   0.021   1.672   3.746
 2171SOL    HW2 8714  -0.008   1.762   3.764
 2171SOL    HW3 8715   0.028   1.667   3.651
 2171SOL    MW4 8716   0.018   1.683   3.736
 2172SOL     OW 8717   4.468   1.940   3.849
 2172SOL    HW2 8718   4.446   1.933   3.942
 2172SOL    HW3 8719   4.391   1.979   3.808
 2172SOL    MW4 8720   4.455   1.944   3.856
 2173SOL     OW 8721   0.220   2.015   3.745
 2173SOL    HW2 8722   0.230   2.110   3.755
 2173SOL    HW3 8723   0.132   1.996   3.779
 2173SOL    MW4 8724   0.210   2.025   3.751
 2174SOL     OW 8725   0.229   2.314   3.835
 2174SOL    HW2 8726   0.235   2.317   3.931
 2174SOL    HW3 8727   0.154   2.369   3.814
 2174SOL    MW4 8728   0.220   2.322   3.845
 2175SOL     OW 8729   0.026   2.488   3.749
 2175SOL    HW2 8730  -0.045   2.441   3.794
 2175SOL    HW3 8731   0.026   2.575   3.788
 2175SOL    MW4 8732   0.017   2.493   3.760
 2176SOL     OW 8733   0.009   2.753   3.847
 2176SOL    HW2 8734   0.007   2.757   3.943
 2176SOL    HW3 8735   0.096   2.785   3.824
 2176SOL    MW4 8736   0.020   2.758   3.857
 2177SOL     OW 8737   0.240   2.837   3.751
 2177SOL    HW2 8738   0.322   2.792   3.774
 2177SOL    HW3 8739   0.240   2.839   3.655
 2177SOL    MW4 8740   0.251   2.831   3.741
 2178SOL     OW 8741   0.197   3.101   3.811
 2178SOL    HW2 8742   0.231   3.115   3.899
 2178SOL    HW3 8743   0.191   3.006   3.802
 2178SOL    MW4 8744   0.201   3.091   3.821
 2179SOL     OW 8745   4.444   3.210   3.768
 2179SOL    HW2 8746   4.535   3.184   3.783
 2179SOL    HW3 8747   4.433   3.207   3.673
 2179SOL    MW4 8748   4.454   3.206   3.757
 2180SOL     OW 8749   4.457   3.479   3.835
 2180SOL    HW2 8750   4.541   3.509   3.799
 2180SOL    HW3 8751   4.444   3.392   3.797
 2180SOL    MW4 8752   4.467   3.471   3.826
 2181SOL     OW 8753   0.202   3.603   3.786
 2181SOL    HW2 8754   0.287   3.564   3.809
 2181SOL    HW3 8755   0.206   3.692   3.821
 2181SOL    MW4 8756   0.214   3.609   3.794
 2182SOL     OW 8757   0.227   3.866   3.870
 2182SOL    HW2 8758   0.230   3.881   3.965
 2182SOL    HW3 8759   0.301   3.917   3.836
 2182SOL    MW4 8760   0.237   3.875   3.878
 2183SOL     OW 8761   0.006   3.963   3.743
 2183SOL    HW2 8762  -0.078   3.940   3.783
 2183SOL    HW3 8763   0.070   3.911   3.791
 2183SOL    MW4 8764   0.003   3.954   3.755
 2184SOL     OW 8765   0.020   4.239   3.835
 2184SOL    HW2 8766   0.092   4.289   3.796
 2184SOL    HW3 8767   0.021   4.156   3.788
 2184SOL    MW4 8768   0.030   4.235   3.824
 2185SOL     OW 8769   0.221   4.395   3.740
 2185SOL    HW2 8770   0.288   4.338   3.778
 2185SOL    HW3 8771   0.238   4.481   3.779
 2185SOL    MW4 8772   0.232   4.399   3.750
 2186SOL     OW 8773   0.659   0.032   3.783
 2186SOL    HW2 8774   0.651  -0.060   3.760
 2186SOL    HW3 8775   0.578   0.072   3.751
 2186SOL    MW4 8776   0.647   0.025   3.776
 2187SOL     OW 8777   0.413   0.157   3.709
 2187SOL    HW2 8778   0.414   0.238   3.760
 2187SOL    HW3 8779   0.346   0.103   3.751
 2187SOL    MW4 8780   0.404   0.160   3.721
 2188SOL     OW 8781   0.419   0.410   3.830
 2188SOL    HW2 8782   0.498   0.446   3.789
 2188SOL    HW3 8783   0.347   0.445   3.779
 2188SOL    MW4 8784   0.420   0.419   3.818
 2189SOL     OW 8785   0.640   0.515   3.716
 2189SOL    HW2 8786   0.702   0.476   3.777
 2189SOL    HW3 8787   0.628   0.605   3.748
 2189SOL    MW4 8788   0.647   0.522   3.728
 2190SOL     OW 8789   0.627   0.763   3.841
 2190SOL    HW2 8790   0.714   0.793   3.812
 2190SOL    HW3 8791   0.566   0.821   3.795
 2190SOL    MW4 8792   0.631   0.775   3.831
 2191SOL     OW 8793   0.428   0.905   3.715
 2191SOL    HW2 8794   0.432   0.991   3.757
 2191SOL    HW3 8795   0.350   0.864   3.753
 2191SOL    MW4 8796   0.418   0.911   3.726
 2192SOL     OW 8797   0.428   1.150   3.818
 2192SOL    HW2 8798   0.508   1.191   3.784
 2192SOL    HW3 8799   0.365   1.222   3.825
 2192SOL    MW4 8800   0.430   1.165   3.815
 2193SOL     OW 8801   0.647   1.272   3.732
 2193SOL    HW2 8802   0.723   1.232   3.775
 2193SOL    HW3 8803   0.670   1.273   3.639
 2193SOL    MW4 8804   0.660   1.266   3.726
 2194SOL     OW 8805   0.678   1.521   3.843
 2194SOL    HW2 8806   0.752   1.560   3.798
 2194SOL    HW3 8807   0.673   1.432   3.809
 2194SOL    MW4 8808   0.687   1.515   3.832
 2195SOL     OW 8809   0.476   1.682   3.748
 2195SOL    HW2 8810   0.546   1.633   3.791
 2195SOL    HW3 8811   0.395   1.639   3.775
 2195SOL    MW4 8812   0.475   1.670   3.757
 2196SOL     OW 8813   0.455   1.922   3.887
 2196SOL    HW2 8814   0.468   1.843   3.834
 2196SOL    HW3 8815   0.383   1.967   3.845
 2196SOL    MW4 8816   0.447   1.917   3.875
 2197SOL     OW 8817   0.651   2.026   3.743
 2197SOL    HW2 8818   0.663   2.116   3.774
 2197SOL    HW3 8819   0.578   1.993   3.796
 2197SOL    MW4 8820   0.643   2.034   3.754
 2198SOL     OW 8821   0.687   2.283   3.838
 2198SOL    HW2 8822   0.762   2.327   3.798
 2198SOL    HW3 8823   0.611   2.328   3.802
 2198SOL    MW4 8824   0.687   2.295   3.828
 2199SOL     OW 8825   0.469   2.402   3.725
 2199SOL    HW2 8826   0.385   2.383   3.768
 2199SOL    HW3 8827   0.446   2.412   3.633
 2199SOL    MW4 8828   0.455   2.401   3.719
 2200SOL     OW 8829   0.460   2.687   3.870
 2200SOL    HW2 8830   0.531   2.740   3.833
 2200SOL    HW3 8831   0.467   2.603   3.824
 2200SOL    MW4 8832   0.471   2.683   3.859
 2201SOL     OW 8833   0.673   2.826   3.746
 2201SOL    HW2 8834   0.756   2.788   3.775
 2201SOL    HW3 8835   0.677   2.823   3.650
 2201SOL    MW4 8836   0.684   2.820   3.737
 2202SOL     OW 8837   0.649   3.081   3.839
 2202SOL    HW2 8838   0.679   3.079   3.930
 2202SOL    HW3 8839   0.657   2.991   3.809
 2202SOL    MW4 8840   0.654   3.069   3.847
 2203SOL     OW 8841   0.432   3.232   3.708
 2203SOL    HW2 8842   0.506   3.174   3.723
 2203SOL    HW3 8843   0.355   3.180   3.731
 2203SOL    MW4 8844   0.431   3.217   3.713
 2204SOL     OW 8845   0.435   3.478   3.854
 2204SOL    HW2 8846   0.510   3.528   3.824
 2204SOL    HW3 8847   0.432   3.402   3.796
 2204SOL    MW4 8848   0.445   3.474   3.843
 2205SOL     OW 8849   0.652   3.633   3.774
 2205SOL    HW2 8850   0.630   3.712   3.823
 2205SOL    HW3 8851   0.674   3.665   3.686
 2205SOL    MW4 8852   0.652   3.648   3.769
 2206SOL     OW 8853   0.674   3.896   3.863
 2206SOL    HW2 8854   0.688   3.912   3.956
 2206SOL    HW3 8855   0.757   3.921   3.821
 2206SOL    MW4 8856   0.687   3.902   3.870
 2207SOL     OW 8857   0.442   3.994   3.746
 2207SOL    HW2 8858   0.528   3.967   3.778
 2207SOL    HW3 8859   0.452   3.995   3.650
 2207SOL    MW4 8860   0.455   3.991   3.737
 2208SOL     OW 8861   0.440   4.238   3.868
 2208SOL    HW2 8862   0.514   4.291   3.837
 2208SOL    HW3 8863   0.461   4.149   3.840
 2208SOL    MW4 8864   0.453   4.233   3.860
 2209SOL     OW 8865   0.664   4.422   3.762
 2209SOL    HW2 8866   0.743   4.386   3.801
 2209SOL    HW3 8867   0.670   4.398   3.669
 2209SOL    MW4 8868   0.675   4.414   3.755
 2210SOL     OW 8869   1.087   0.002   3.840
 2210SOL    HW2 8870   1.166   0.049   3.813
 2210SOL    HW3 8871   1.096  -0.084   3.801
 2210SOL    MW4 8872   1.099  -0.003   3.832
 2211SOL     OW 8873   0.890   0.177   3.735
 2211SOL    HW2 8874   0.954   0.118   3.774
 2211SOL    HW3 8875   0.805   0.135   3.754
 2211SOL    MW4 8876   0.887   0.163   3.742
 2212SOL     OW 8877   0.855   0.413   3.857
 2212SOL    HW2 8878   0.839   0.395   3.949
 2212SOL    HW3 8879   0.874   0.327   3.818
 2212SOL    MW4 8880   0.856   0.399   3.864
 2213SOL     OW 8881   1.085   0.534   3.715
 2213SOL    HW2 8882   1.158   0.483   3.750
 2213SOL    HW3 8883   1.007   0.487   3.745
 2213SOL    MW4 8884   1.084   0.521   3.724
 2214SOL     OW 8885   1.110   0.797   3.791
 2214SOL    HW2 8886   1.115   0.800   3.886
 2214SOL    HW3 8887   1.116   0.704   3.769
 2214SOL    MW4 8888   1.112   0.785   3.801
 2215SOL     OW 8889   0.844   0.874   3.718
 2215SOL    HW2 8890   0.928   0.842   3.751
 2215SOL    HW3 8891   0.860   0.893   3.626
 2215SOL    MW4 8892   0.857   0.872   3.710
 2216SOL     OW 8893   0.862   1.146   3.860
 2216SOL    HW2 8894   0.853   1.139   3.956
 2216SOL    HW3 8895   0.857   1.055   3.829
 2216SOL    MW4 8896   0.860   1.133   3.869
 2217SOL     OW 8897   1.110   1.261   3.705
 2217SOL    HW2 8898   1.110   1.347   3.749
 2217SOL    HW3 8899   1.023   1.225   3.724
 2217SOL    MW4 8900   1.098   1.268   3.714
 2218SOL     OW 8901   1.151   1.539   3.802
 2218SOL    HW2 8902   1.139   1.540   3.897
 2218SOL    HW3 8903   1.238   1.577   3.789
 2218SOL    MW4 8904   1.161   1.544   3.813
 2219SOL     OW 8905   0.892   1.661   3.751
 2219SOL    HW2 8906   0.981   1.627   3.763
 2219SOL    HW3 8907   0.883   1.674   3.657
 2219SOL    MW4 8908   0.902   1.658   3.740
 2220SOL     OW 8909   0.889   1.923   3.841
 2220SOL    HW2 8910   0.896   1.834   3.808
 2220SOL    HW3 8911   0.811   1.959   3.799
 2220SOL    MW4 8912   0.880   1.916   3.831
 2221SOL     OW 8913   1.122   2.060   3.782
 2221SOL    HW2 8914   1.049   2.003   3.807
 2221SOL    HW3 8915   1.112   2.071   3.687
 2221SOL    MW4 8916   1.111   2.054   3.773
 2222SOL     OW 8917   1.113   2.313   3.864
 2222SOL    HW2 8918   1.113   2.316   3.960
 2222SOL    HW3 8919   1.114   2.219   3.844
 2222SOL    MW4 8920   1.113   2.301   3.874
 2223SOL     OW 8921   0.883   2.431   3.743
 2223SOL    HW2 8922   0.864   2.512   3.790
 2223SOL    HW3 8923   0.957   2.392   3.790
 2223SOL    MW4 8924   0.890   2.437   3.755
 2224SOL     OW 8925   0.893   2.699   3.871
 2224SOL    HW2 8926   0.917   2.699   3.964
 2224SOL    HW3 8927   0.971   2.730   3.826
 2224SOL    MW4 8928   0.907   2.703   3.877
 2225SOL     OW 8929   1.099   2.808   3.716
 2225SOL    HW2 8930   1.181   2.767   3.745
 2225SOL    HW3 8931   1.106   2.899   3.747
 2225SOL    MW4 8932   1.111   2.815   3.724
 2226SOL     OW 8933   1.111   3.067   3.793
 2226SOL    HW2 8934   1.181   3.126   3.764
 2226SOL    HW3 8935   1.037   3.125   3.812
 2226SOL    MW4 8936   1.111   3.083   3.791
 2227SOL     OW 8937   0.885   3.227   3.786
 2227SOL    HW2 8938   0.802   3.180   3.794
 2227SOL    HW3 8939   0.898   3.239   3.692
 2227SOL    MW4 8940   0.876   3.222   3.775
 2228SOL     OW 8941   0.900   3.488   3.831
 2228SOL    HW2 8942   0.888   3.394   3.817
 2228SOL    HW3 8943   0.819   3.528   3.799
 2228SOL    MW4 8944   0.888   3.481   3.825
 2229SOL     OW 8945   1.111   3.628   3.725
 2229SOL    HW2 8946   1.121   3.717   3.759
 2229SOL    HW3 8947   1.029   3.596   3.763
 2229SOL    MW4 8948   1.101   3.635   3.735
 2230SOL     OW 8949   1.128   3.876   3.851
 2230SOL    HW2 8950   1.137   3.832   3.936
 2230SOL    HW3 8951   1.213   3.918   3.837
 2230SOL    MW4 8952   1.141   3.876   3.860
 2231SOL     OW 8953   0.910   4.029   3.750
 2231SOL    HW2 8954   0.997   3.997   3.770
 2231SOL    HW3 8955   0.908   4.033   3.654
 2231SOL    MW4 8956   0.921   4.025   3.740
 2232SOL     OW 8957   0.865   4.278   3.859
 2232SOL    HW2 8958   0.863   4.256   3.952
 2232SOL    HW3 8959   0.879   4.194   3.815
 2232SOL    MW4 8960   0.866   4.264   3.865
 2233SOL     OW 8961   1.118   4.399   3.758
 2233SOL    HW2 8962   1.028   4.381   3.788
 2233SOL    HW3 8963   1.121   4.364   3.669
 2233SOL    MW4 8964   1.106   4.392   3.751
 2234SOL     OW 8965   1.522   0.011   3.853
 2234SOL    HW2 8966   1.534   0.015   3.948
 2234SOL    HW3 8967   1.532  -0.081   3.831
 2234SOL    MW4 8968   1.525  -0.001   3.863
 2235SOL     OW 8969   1.305   0.129   3.736
 2235SOL    HW2 8970   1.310   0.220   3.766
 2235SOL    HW3 8971   1.374   0.084   3.785
 2235SOL    MW4 8972   1.315   0.135   3.746
 2236SOL     OW 8973   1.302   0.384   3.862
 2236SOL    HW2 8974   1.298   0.380   3.957
 2236SOL    HW3 8975   1.386   0.426   3.843
 2236SOL    MW4 8976   1.313   0.389   3.872
 2237SOL     OW 8977   1.543   0.504   3.741
 2237SOL    HW2 8978   1.629   0.474   3.770
 2237SOL    HW3 8979   1.540   0.596   3.767
 2237SOL    MW4 8980   1.554   0.512   3.749
 2238SOL     OW 8981   1.510   0.781   3.830
 2238SOL    HW2 8982   1.597   0.817   3.810
 2238SOL    HW3 8983   1.449   0.837   3.782
 2238SOL    MW4 8984   1.514   0.793   3.821
 2239SOL     OW 8985   1.333   0.943   3.694
 2239SOL    HW2 8986   1.333   1.023   3.746
 2239SOL    HW3 8987   1.259   0.892   3.728
 2239SOL    MW4 8988   1.323   0.947   3.705
 2240SOL     OW 8989   1.343   1.169   3.839
 2240SOL    HW2 8990   1.421   1.203   3.796
 2240SOL    HW3 8991   1.271   1.217   3.798
 2240SOL    MW4 8992   1.344   1.180   3.828
 2241SOL     OW 8993   1.610   1.276   3.723
 2241SOL    HW2 8994   1.676   1.240   3.782
 2241SOL    HW3 8995   1.581   1.357   3.765
 2241SOL    MW4 8996   1.615   1.282   3.737
 2242SOL     OW 8997   1.567   1.515   3.887
 2242SOL    HW2 8998   1.561   1.527   3.982
 2242SOL    HW3 8999   1.640   1.571   3.860
 2242SOL    MW4 9000   1.576   1.524   3.896
 2243SOL     OW 9001   1.388   1.658   3.729
 2243SOL    HW2 9002   1.375   1.749   3.755
 2243SOL    HW3 9003   1.446   1.622   3.797
 2243SOL    MW4 9004   1.394   1.666   3.742
 2244SOL     OW 9005   1.332   1.885   3.849
 2244SOL    HW2 9006   1.328   1.897   3.944
 2244SOL    HW3 9007   1.262   1.941   3.815
 2244SOL    MW4 9008   1.322   1.894   3.857
 2245SOL     OW 9009   1.565   2.051   3.768
 2245SOL    HW2 9010   1.487   2.004   3.796
 2245SOL    HW3 9011   1.573   2.031   3.675
 2245SOL    MW4 9012   1.556   2.042   3.760
 2246SOL     OW 9013   1.585   2.316   3.850
 2246SOL    HW2 9014   1.660   2.360   3.810
 2246SOL    HW3 9015   1.595   2.224   3.824
 2246SOL    MW4 9016   1.596   2.309   3.841
 2247SOL     OW 9017   1.344   2.414   3.741
 2247SOL    HW2 9018   1.419   2.373   3.785
 2247SOL    HW3 9019   1.268   2.375   3.783
 2247SOL    MW4 9020   1.344   2.404   3.753
 2248SOL     OW 9021   1.333   2.685   3.819
 2248SOL    HW2 9022   1.327   2.696   3.914
 2248SOL    HW3 9023   1.338   2.590   3.807
 2248SOL    MW4 9024   1.333   2.674   3.830
 2249SOL     OW 9025   1.552   2.863   3.751
 2249SOL    HW2 9026   1.493   2.798   3.790
 2249SOL    HW3 9027   1.547   2.846   3.657
 2249SOL    MW4 9028   1.544   2.852   3.744
 2250SOL     OW 9029   1.545   3.120   3.864
 2250SOL    HW2 9030   1.564   3.101   3.956
 2250SOL    HW3 9031   1.543   3.034   3.822
 2250SOL    MW4 9032   1.547   3.106   3.871
 2251SOL     OW 9033   1.332   3.237   3.746
 2251SOL    HW2 9034   1.331   3.330   3.770
 2251SOL    HW3 9035   1.405   3.200   3.795
 2251SOL    MW4 9036   1.341   3.245   3.756
 2252SOL     OW 9037   1.346   3.505   3.816
 2252SOL    HW2 9038   1.433   3.537   3.792
 2252SOL    HW3 9039   1.285   3.563   3.771
 2252SOL    MW4 9040   1.349   3.517   3.807
 2253SOL     OW 9041   1.600   3.594   3.722
 2253SOL    HW2 9042   1.664   3.543   3.771
 2253SOL    HW3 9043   1.613   3.684   3.751
 2253SOL    MW4 9044   1.610   3.599   3.732
 2254SOL     OW 9045   1.629   3.864   3.822
 2254SOL    HW2 9046   1.628   3.876   3.917
 2254SOL    HW3 9047   1.545   3.898   3.792
 2254SOL    MW4 9048   1.618   3.870   3.830
 2255SOL     OW 9049   1.376   3.972   3.755
 2255SOL    HW2 9050   1.378   4.059   3.795
 2255SOL    HW3 9051   1.348   3.987   3.665
 2255SOL    MW4 9052   1.373   3.985   3.749
 2256SOL     OW 9053   1.351   4.247   3.808
 2256SOL    HW2 9054   1.429   4.295   3.781
 2256SOL    HW3 9055   1.279   4.309   3.797
 2256SOL    MW4 9056   1.351   4.261   3.803
 2257SOL     OW 9057   1.555   4.424   3.755
 2257SOL    HW2 9058   1.639   4.383   3.778
 2257SOL    HW3 9059   1.554   4.423   3.660
 2257SOL    MW4 9060   1.566   4.418   3.746
 2258SOL     OW 9061   2.045   4.654   3.846
 2258SOL    HW2 9062   2.117   4.682   3.789
 2258SOL    HW3 9063   2.022   4.567   3.814
 2258SOL    MW4 9064   2.051   4.646   3.834
 2259SOL     OW 9065   1.796   0.125   3.761
 2259SOL    HW2 9066   1.868   0.095   3.816
 2259SOL    HW3 9067   1.717   0.093   3.805
 2259SOL    MW4 9068   1.795   0.117   3.774
 2260SOL     OW 9069   1.772   0.394   3.834
 2260SOL    HW2 9070   1.753   0.401   3.928
 2260SOL    HW3 9071   1.777   0.300   3.818
 2260SOL    MW4 9072   1.770   0.383   3.845
 2261SOL     OW 9073   2.036   0.509   3.761
 2261SOL    HW2 9074   1.950   0.468   3.772
 2261SOL    HW3 9075   2.042   0.526   3.667
 2261SOL    MW4 9076   2.026   0.506   3.750
 2262SOL     OW 9077   2.038   0.783   3.842
 2262SOL    HW2 9078   2.014   0.788   3.934
 2262SOL    HW3 9079   2.042   0.689   3.823
 2262SOL    MW4 9080   2.035   0.771   3.852
 2263SOL     OW 9081   1.779   0.872   3.792
 2263SOL    HW2 9082   1.868   0.840   3.806
 2263SOL    HW3 9083   1.772   0.883   3.697
 2263SOL    MW4 9084   1.790   0.869   3.781
 2264SOL     OW 9085   1.801   1.139   3.874
 2264SOL    HW2 9086   1.776   1.142   3.967
 2264SOL    HW3 9087   1.770   1.053   3.844
 2264SOL    MW4 9088   1.793   1.128   3.882
 2265SOL     OW 9089   2.022   1.275   3.767
 2265SOL    HW2 9090   2.102   1.232   3.795
 2265SOL    HW3 9091   1.951   1.225   3.808
 2265SOL    MW4 9092   2.023   1.263   3.776
 2266SOL     OW 9093   2.029   1.536   3.920
 2266SOL    HW2 9094   1.955   1.591   3.894
 2266SOL    HW3 9095   2.013   1.452   3.876
 2266SOL    MW4 9096   2.017   1.532   3.911
 2267SOL     OW 9097   1.798   1.639   3.813
 2267SOL    HW2 9098   1.777   1.728   3.840
 2267SOL    HW3 9099   1.799   1.642   3.718
 2267SOL    MW4 9100   1.795   1.651   3.804
 2268SOL     OW 9101   1.778   1.918   3.875
 2268SOL    HW2 9102   1.769   1.923   3.970
 2268SOL    HW3 9103   1.705   1.970   3.841
 2268SOL    MW4 9104   1.767   1.926   3.883
 2269SOL     OW 9105   2.031   2.006   3.792
 2269SOL    HW2 9106   1.948   1.966   3.819
 2269SOL    HW3 9107   2.027   2.007   3.696
 2269SOL    MW4 9108   2.020   2.000   3.783
 2270SOL     OW 9109   2.028   2.262   3.879
 2270SOL    HW2 9110   1.959   2.304   3.828
 2270SOL    HW3 9111   2.032   2.173   3.845
 2270SOL    MW4 9112   2.019   2.256   3.868
 2271SOL     OW 9113   1.836   2.431   3.756
 2271SOL    HW2 9114   1.814   2.522   3.772
 2271SOL    HW3 9115   1.829   2.420   3.661
 2271SOL    MW4 9116   1.832   2.441   3.745
 2272SOL     OW 9117   1.780   2.700   3.775
 2272SOL    HW2 9118   1.792   2.704   3.870
 2272SOL    HW3 9119   1.713   2.766   3.757
 2272SOL    MW4 9120   1.773   2.709   3.785
 2273SOL     OW 9121   2.012   2.848   3.747
 2273SOL    HW2 9122   2.081   2.791   3.781
 2273SOL    HW3 9123   1.931   2.799   3.761
 2273SOL    MW4 9124   2.010   2.834   3.754
 2274SOL     OW 9125   2.010   3.120   3.779
 2274SOL    HW2 9126   2.023   3.028   3.760
 2274SOL    HW3 9127   2.092   3.162   3.751
 2274SOL    MW4 9128   2.023   3.114   3.773
 2275SOL     OW 9129   1.769   3.235   3.743
 2275SOL    HW2 9130   1.841   3.179   3.774
 2275SOL    HW3 9131   1.690   3.189   3.771
 2275SOL    MW4 9132   1.768   3.222   3.751
 2276SOL     OW 9133   1.798   3.478   3.876
 2276SOL    HW2 9134   1.879   3.520   3.847
 2276SOL    HW3 9135   1.793   3.397   3.826
 2276SOL    MW4 9136   1.808   3.473   3.866
 2277SOL     OW 9137   2.041   3.611   3.767
 2277SOL    HW2 9138   2.115   3.556   3.792
 2277SOL    HW3 9139   2.021   3.583   3.677
 2277SOL    MW4 9140   2.048   3.600   3.758
 2278SOL     OW 9141   2.062   3.911   3.835
 2278SOL    HW2 9142   2.146   3.938   3.798
 2278SOL    HW3 9143   2.054   3.818   3.811
 2278SOL    MW4 9144   2.072   3.902   3.827
 2279SOL     OW 9145   1.833   4.020   3.723
 2279SOL    HW2 9146   1.913   3.977   3.753
 2279SOL    HW3 9147   1.762   3.963   3.752
 2279SOL    MW4 9148   1.834   4.007   3.731
 2280SOL     OW 9149   1.784   4.276   3.818
 2280SOL    HW2 9150   1.872   4.311   3.806
 2280SOL    HW3 9151   1.790   4.185   3.790
 2280SOL    MW4 9152   1.796   4.269   3.813
 2281SOL     OW 9153   2.024   4.392   3.752
 2281SOL    HW2 9154   2.101   4.353   3.793
 2281SOL    HW3 9155   2.032   4.372   3.659
 2281SOL    MW4 9156   2.035   4.384   3.745
 2282SOL     OW 9157   2.458   0.011   3.815
 2282SOL    HW2 9158   2.500  -0.023   3.895
 2282SOL    HW3 9159   2.526   0.065   3.774
 2282SOL    MW4 9160   2.473   0.014   3.820
 2283SOL     OW 9161   2.237   0.133   3.693
 2283SOL    HW2 9162   2.320   0.094   3.719
 2283SOL    HW3 9163   2.242   0.136   3.597
 2283SOL    MW4 9164   2.248   0.128   3.684
 2284SOL     OW 9165   2.251   0.350   3.862
 2284SOL    HW2 9166   2.246   0.273   3.805
 2284SOL    HW3 9167   2.188   0.411   3.824
 2284SOL    MW4 9168   2.242   0.348   3.849
 2285SOL     OW 9169   2.461   0.521   3.762
 2285SOL    HW2 9170   2.388   0.468   3.793
 2285SOL    HW3 9171   2.449   0.525   3.667
 2285SOL    MW4 9172   2.450   0.515   3.754
 2286SOL     OW 9173   2.509   0.779   3.866
 2286SOL    HW2 9174   2.445   0.823   3.811
 2286SOL    HW3 9175   2.501   0.686   3.843
 2286SOL    MW4 9176   2.499   0.772   3.856
 2287SOL     OW 9177   2.265   0.888   3.731
 2287SOL    HW2 9178   2.185   0.850   3.767
 2287SOL    HW3 9179   2.246   0.899   3.637
 2287SOL    MW4 9180   2.252   0.884   3.723
 2288SOL     OW 9181   2.266   1.151   3.829
 2288SOL    HW2 9182   2.240   1.152   3.921
 2288SOL    HW3 9183   2.277   1.058   3.809
 2288SOL    MW4 9184   2.264   1.139   3.839
 2289SOL     OW 9185   2.471   1.309   3.734
 2289SOL    HW2 9186   2.472   1.390   3.785
 2289SOL    HW3 9187   2.397   1.260   3.769
 2289SOL    MW4 9188   2.461   1.314   3.745
 2290SOL     OW 9189   2.484   1.536   3.894
 2290SOL    HW2 9190   2.554   1.588   3.853
 2290SOL    HW3 9191   2.403   1.581   3.868
 2290SOL    MW4 9192   2.482   1.549   3.885
 2291SOL     OW 9193   2.252   1.651   3.780
 2291SOL    HW2 9194   2.253   1.734   3.827
 2291SOL    HW3 9195   2.173   1.607   3.810
 2291SOL    MW4 9196   2.242   1.656   3.790
 2292SOL     OW 9197   2.251   1.887   3.909
 2292SOL    HW2 9198   2.248   1.898   4.004
 2292SOL    HW3 9199   2.171   1.928   3.877
 2292SOL    MW4 9200   2.240   1.894   3.917
 2293SOL     OW 9201   2.450   2.073   3.813
 2293SOL    HW2 9202   2.450   2.159   3.854
 2293SOL    HW3 9203   2.379   2.026   3.857
 2293SOL    MW4 9204   2.440   2.078   3.824
 2294SOL     OW 9205   2.455   2.326   3.951
 2294SOL    HW2 9206   2.531   2.359   3.903
 2294SOL    HW3 9207   2.381   2.375   3.914
 2294SOL    MW4 9208   2.456   2.337   3.940
 2295SOL     OW 9209   2.244   2.426   3.810
 2295SOL    HW2 9210   2.160   2.384   3.827
 2295SOL    HW3 9211   2.249   2.431   3.715
 2295SOL    MW4 9212   2.234   2.421   3.800
 2296SOL     OW 9213   2.216   2.705   3.846
 2296SOL    HW2 9214   2.225   2.747   3.932
 2296SOL    HW3 9215   2.216   2.611   3.866
 2296SOL    MW4 9216   2.217   2.698   3.860
 2297SOL     OW 9217   2.451   2.813   3.737
 2297SOL    HW2 9218   2.374   2.769   3.772
 2297SOL    HW3 9219   2.432   2.824   3.643
 2297SOL    MW4 9220   2.438   2.809   3.729
 2298SOL     OW 9221   2.422   3.066   3.857
 2298SOL    HW2 9222   2.435   3.054   3.951
 2298SOL    HW3 9223   2.433   2.978   3.820
 2298SOL    MW4 9224   2.425   3.053   3.865
 2299SOL     OW 9225   2.253   3.191   3.686
 2299SOL    HW2 9226   2.253   3.279   3.724
 2299SOL    HW3 9227   2.305   3.139   3.747
 2299SOL    MW4 9228   2.260   3.196   3.699
 2300SOL     OW 9229   2.250   3.427   3.841
 2300SOL    HW2 9230   2.247   3.411   3.936
 2300SOL    HW3 9231   2.326   3.484   3.830
 2300SOL    MW4 9232   2.260   3.432   3.852
 2301SOL     OW 9233   2.450   3.604   3.769
 2301SOL    HW2 9234   2.540   3.582   3.792
 2301SOL    HW3 9235   2.448   3.599   3.673
 2301SOL    MW4 9236   2.462   3.600   3.759
 2302SOL     OW 9237   2.455   3.856   3.859
 2302SOL    HW2 9238   2.541   3.889   3.833
 2302SOL    HW3 9239   2.448   3.771   3.816
 2302SOL    MW4 9240   2.466   3.849   3.850
 2303SOL     OW 9241   2.279   4.032   3.717
 2303SOL    HW2 9242   2.345   3.966   3.738
 2303SOL    HW3 9243   2.269   4.026   3.622
 2303SOL    MW4 9244   2.286   4.022   3.707
 2304SOL     OW 9245   2.290   4.280   3.844
 2304SOL    HW2 9246   2.273   4.282   3.938
 2304SOL    HW3 9247   2.288   4.186   3.822
 2304SOL    MW4 9248   2.287   4.268   3.854
 2305SOL     OW 9249   2.486   4.419   3.718
 2305SOL    HW2 9250   2.408   4.384   3.760
 2305SOL    HW3 9251   2.490   4.510   3.747
 2305SOL    MW4 9252   2.476   4.427   3.727
 2306SOL     OW 9253   2.891   4.657   3.798
 2306SOL    HW2 9254   2.883   4.657   3.893
 2306SOL    HW3 9255   2.972   4.706   3.781
 2306SOL    MW4 9256   2.901   4.663   3.808
 2307SOL     OW 9257   2.664   0.154   3.684
 2307SOL    HW2 9258   2.728   0.100   3.731
 2307SOL    HW3 9259   2.694   0.154   3.593
 2307SOL    MW4 9260   2.677   0.147   3.678
 2308SOL     OW 9261   2.691   0.402   3.811
 2308SOL    HW2 9262   2.680   0.320   3.763
 2308SOL    HW3 9263   2.614   0.454   3.789
 2308SOL    MW4 9264   2.680   0.398   3.802
 2309SOL     OW 9265   2.935   0.544   3.744
 2309SOL    HW2 9266   3.010   0.489   3.767
 2309SOL    HW3 9267   2.861   0.507   3.793
 2309SOL    MW4 9268   2.935   0.532   3.753
 2310SOL     OW 9269   2.967   0.813   3.783
 2310SOL    HW2 9270   3.048   0.858   3.761
 2310SOL    HW3 9271   2.982   0.722   3.755
 2310SOL    MW4 9272   2.980   0.807   3.776
 2311SOL     OW 9273   2.708   0.904   3.721
 2311SOL    HW2 9274   2.795   0.865   3.724
 2311SOL    HW3 9275   2.656   0.852   3.781
 2311SOL    MW4 9276   2.713   0.892   3.729
 2312SOL     OW 9277   2.710   1.166   3.816
 2312SOL    HW2 9278   2.714   1.074   3.790
 2312SOL    HW3 9279   2.627   1.197   3.779
 2312SOL    MW4 9280   2.699   1.158   3.808
 2313SOL     OW 9281   2.960   1.260   3.740
 2313SOL    HW2 9282   2.954   1.343   3.787
 2313SOL    HW3 9283   2.882   1.211   3.766
 2313SOL    MW4 9284   2.949   1.264   3.749
 2314SOL     OW 9285   2.919   1.523   3.855
 2314SOL    HW2 9286   2.906   1.544   3.948
 2314SOL    HW3 9287   2.989   1.582   3.827
 2314SOL    MW4 9288   2.926   1.533   3.864
 2315SOL     OW 9289   2.702   1.673   3.786
 2315SOL    HW2 9290   2.773   1.612   3.805
 2315SOL    HW3 9291   2.701   1.679   3.690
 2315SOL    MW4 9292   2.711   1.666   3.775
 2316SOL     OW 9293   2.674   1.943   3.915
 2316SOL    HW2 9294   2.683   1.860   3.868
 2316SOL    HW3 9295   2.592   1.979   3.882
 2316SOL    MW4 9296   2.664   1.937   3.904
 2317SOL     OW 9297   2.876   2.101   3.785
 2317SOL    HW2 9298   2.884   2.181   3.838
 2317SOL    HW3 9299   2.816   2.046   3.835
 2317SOL    MW4 9300   2.869   2.104   3.799
 2318SOL     OW 9301   2.898   2.332   3.938
 2318SOL    HW2 9302   2.905   2.338   4.033
 2318SOL    HW3 9303   2.968   2.389   3.905
 2318SOL    MW4 9304   2.908   2.341   3.946
 2319SOL     OW 9305   2.683   2.416   3.807
 2319SOL    HW2 9306   2.674   2.511   3.820
 2319SOL    HW3 9307   2.745   2.389   3.874
 2319SOL    MW4 9308   2.690   2.425   3.818
 2320SOL     OW 9309   2.680   2.682   3.840
 2320SOL    HW2 9310   2.665   2.675   3.935
 2320SOL    HW3 9311   2.610   2.739   3.809
 2320SOL    MW4 9312   2.668   2.688   3.849
 2321SOL     OW 9313   2.908   2.804   3.779
 2321SOL    HW2 9314   2.897   2.891   3.817
 2321SOL    HW3 9315   2.827   2.758   3.800
 2321SOL    MW4 9316   2.896   2.809   3.787
 2322SOL     OW 9317   2.896   3.068   3.886
 2322SOL    HW2 9318   2.964   3.109   3.833
 2322SOL    HW3 9319   2.817   3.120   3.868
 2322SOL    MW4 9320   2.894   3.080   3.877
 2323SOL     OW 9321   2.662   3.211   3.761
 2323SOL    HW2 9322   2.679   3.297   3.800
 2323SOL    HW3 9323   2.594   3.173   3.817
 2323SOL    MW4 9324   2.655   3.217   3.774
 2324SOL     OW 9325   2.718   3.495   3.854
 2324SOL    HW2 9326   2.716   3.508   3.949
 2324SOL    HW3 9327   2.789   3.552   3.824
 2324SOL    MW4 9328   2.727   3.505   3.862
 2325SOL     OW 9329   2.921   3.644   3.732
 2325SOL    HW2 9330   2.995   3.591   3.762
 2325SOL    HW3 9331   2.906   3.616   3.642
 2325SOL    MW4 9332   2.929   3.634   3.724
 2326SOL     OW 9333   2.893   3.921   3.832
 2326SOL    HW2 9334   2.888   3.932   3.926
 2326SOL    HW3 9335   2.906   3.827   3.819
 2326SOL    MW4 9336   2.894   3.910   3.842
 2327SOL     OW 9337   2.657   4.012   3.713
 2327SOL    HW2 9338   2.629   4.089   3.762
 2327SOL    HW3 9339   2.740   3.987   3.752
 2327SOL    MW4 9340   2.664   4.019   3.725
 2328SOL     OW 9341   2.652   4.249   3.842
 2328SOL    HW2 9342   2.737   4.264   3.801
 2328SOL    HW3 9343   2.595   4.314   3.802
 2328SOL    MW4 9344   2.656   4.260   3.831
 2329SOL     OW 9345   2.888   4.381   3.720
 2329SOL    HW2 9346   2.975   4.354   3.751
 2329SOL    HW3 9347   2.884   4.475   3.739
 2329SOL    MW4 9348   2.899   4.390   3.727
 2330SOL     OW 9349   3.390   0.024   3.859
 2330SOL    HW2 9350   3.388   0.023   3.955
 2330SOL    HW3 9351   3.465   0.080   3.837
 2330SOL    MW4 9352   3.400   0.032   3.869
 2331SOL     OW 9353   3.131   0.124   3.784
 2331SOL    HW2 9354   3.213   0.086   3.817
 2331SOL    HW3 9355   3.143   0.131   3.690
 2331SOL    MW4 9356   3.143   0.120   3.776
 2332SOL     OW 9357   3.133   0.399   3.849
 2332SOL    HW2 9358   3.138   0.401   3.944
 2332SOL    HW3 9359   3.129   0.306   3.827
 2332SOL    MW4 9360   3.133   0.387   3.858
 2333SOL     OW 9361   3.390   0.510   3.741
 2333SOL    HW2 9362   3.454   0.459   3.790
 2333SOL    HW3 9363   3.305   0.476   3.770
 2333SOL    MW4 9364   3.387   0.499   3.752
 2334SOL     OW 9365   3.421   0.744   3.884
 2334SOL    HW2 9366   3.370   0.747   3.965
 2334SOL    HW3 9367   3.409   0.654   3.852
 2334SOL    MW4 9368   3.413   0.732   3.890
 2335SOL     OW 9369   3.234   0.916   3.750
 2335SOL    HW2 9370   3.301   0.856   3.783
 2335SOL    HW3 9371   3.219   0.887   3.659
 2335SOL    MW4 9372   3.240   0.904   3.742
 2336SOL     OW 9373   3.175   1.165   3.870
 2336SOL    HW2 9374   3.194   1.081   3.828
 2336SOL    HW3 9375   3.094   1.195   3.829
 2336SOL    MW4 9376   3.167   1.158   3.859
 2337SOL     OW 9377   3.393   1.325   3.750
 2337SOL    HW2 9378   3.318   1.275   3.781
 2337SOL    HW3 9379   3.399   1.306   3.657
 2337SOL    MW4 9380   3.384   1.316   3.742
 2338SOL     OW 9381   3.396   1.591   3.872
 2338SOL    HW2 9382   3.311   1.630   3.849
 2338SOL    HW3 9383   3.399   1.509   3.824
 2338SOL    MW4 9384   3.385   1.586   3.862
 2339SOL     OW 9385   3.140   1.681   3.788
 2339SOL    HW2 9386   3.146   1.776   3.797
 2339SOL    HW3 9387   3.146   1.666   3.693
 2339SOL    MW4 9388   3.142   1.691   3.776
 2340SOL     OW 9389   3.141   1.971   3.825
 2340SOL    HW2 9390   3.133   1.972   3.920
 2340SOL    HW3 9391   3.063   2.018   3.794
 2340SOL    MW4 9392   3.129   1.977   3.833
 2341SOL     OW 9393   3.378   2.107   3.768
 2341SOL    HW2 9394   3.295   2.059   3.768
 2341SOL    HW3 9395   3.415   2.090   3.681
 2341SOL    MW4 9396   3.372   2.099   3.756
 2342SOL     OW 9397   3.366   2.396   3.853
 2342SOL    HW2 9398   3.273   2.416   3.840
 2342SOL    HW3 9399   3.371   2.300   3.850
 2342SOL    MW4 9400   3.354   2.386   3.851
 2343SOL     OW 9401   3.095   2.463   3.814
 2343SOL    HW2 9402   3.120   2.555   3.824
 2343SOL    HW3 9403   3.098   2.448   3.720
 2343SOL    MW4 9404   3.099   2.473   3.803
 2344SOL     OW 9405   3.159   2.724   3.848
 2344SOL    HW2 9406   3.159   2.755   3.939
 2344SOL    HW3 9407   3.070   2.739   3.817
 2344SOL    MW4 9408   3.147   2.730   3.856
 2345SOL     OW 9409   3.385   2.808   3.734
 2345SOL    HW2 9410   3.305   2.784   3.782
 2345SOL    HW3 9411   3.362   2.798   3.642
 2345SOL    MW4 9412   3.371   2.803   3.728
 2346SOL     OW 9413   3.341   3.080   3.833
 2346SOL    HW2 9414   3.413   3.139   3.809
 2346SOL    HW3 9415   3.367   2.995   3.797
 2346SOL    MW4 9416   3.354   3.077   3.825
 2347SOL     OW 9417   3.113   3.218   3.752
 2347SOL    HW2 9418   3.187   3.159   3.766
 2347SOL    HW3 9419   3.096   3.214   3.658
 2347SOL    MW4 9420   3.121   3.210   3.742
 2348SOL     OW 9421   3.124   3.473   3.827
 2348SOL    HW2 9422   3.208   3.517   3.811
 2348SOL    HW3 9423   3.137   3.383   3.797
 2348SOL    MW4 9424   3.137   3.467   3.821
 2349SOL     OW 9425   3.357   3.619   3.788
 2349SOL    HW2 9426   3.358   3.704   3.832
 2349SOL    HW3 9427   3.347   3.640   3.695
 2349SOL    MW4 9428   3.356   3.633   3.781
 2350SOL     OW 9429   3.377   3.908   3.837
 2350SOL    HW2 9430   3.450   3.967   3.821
 2350SOL    HW3 9431   3.299   3.960   3.817
 2350SOL    MW4 9432   3.376   3.922   3.832
 2351SOL     OW 9433   3.143   4.033   3.768
 2351SOL    HW2 9434   3.139   4.129   3.767
 2351SOL    HW3 9435   3.058   4.006   3.802
 2351SOL    MW4 9436   3.131   4.043   3.773
 2352SOL     OW 9437   3.156   4.313   3.829
 2352SOL    HW2 9438   3.152   4.315   3.924
 2352SOL    HW3 9439   3.226   4.375   3.808
 2352SOL    MW4 9440   3.165   4.322   3.839
 2353SOL     OW 9441   3.394   4.445   3.726
 2353SOL    HW2 9442   3.465   4.397   3.769
 2353SOL    HW3 9443   3.394   4.530   3.769
 2353SOL    MW4 9444   3.403   4.450   3.737
 2354SOL     OW 9445   3.816   0.008   3.891
 2354SOL    HW2 9446   3.891   0.041   3.842
 2354SOL    HW3 9447   3.794  -0.075   3.848
 2354SOL    MW4 9448   3.823   0.001   3.879
 2355SOL     OW 9449   3.611   0.175   3.802
 2355SOL    HW2 9450   3.681   0.118   3.833
 2355SOL    HW3 9451   3.616   0.169   3.706
 2355SOL    MW4 9452   3.621   0.167   3.793
 2356SOL     OW 9453   3.593   0.413   3.910
 2356SOL    HW2 9454   3.663   0.467   3.872
 2356SOL    HW3 9455   3.610   0.325   3.875
 2356SOL    MW4 9456   3.605   0.408   3.900
 2357SOL     OW 9457   3.829   0.534   3.801
 2357SOL    HW2 9458   3.908   0.485   3.824
 2357SOL    HW3 9459   3.845   0.622   3.835
 2357SOL    MW4 9460   3.842   0.539   3.808
 2358SOL     OW 9461   3.855   0.790   3.898
 2358SOL    HW2 9462   3.929   0.807   3.839
 2358SOL    HW3 9463   3.778   0.818   3.849
 2358SOL    MW4 9464   3.855   0.796   3.884
 2359SOL     OW 9465   3.620   0.912   3.773
 2359SOL    HW2 9466   3.614   1.005   3.797
 2359SOL    HW3 9467   3.550   0.870   3.823
 2359SOL    MW4 9468   3.610   0.919   3.783
 2360SOL     OW 9469   3.612   1.166   3.887
 2360SOL    HW2 9470   3.691   1.210   3.856
 2360SOL    HW3 9471   3.540   1.220   3.854
 2360SOL    MW4 9472   3.613   1.179   3.879
 2361SOL     OW 9473   3.832   1.283   3.789
 2361SOL    HW2 9474   3.912   1.242   3.822
 2361SOL    HW3 9475   3.833   1.372   3.825
 2361SOL    MW4 9476   3.842   1.289   3.798
 2362SOL     OW 9477   3.833   1.549   3.856
 2362SOL    HW2 9478   3.814   1.548   3.950
 2362SOL    HW3 9479   3.761   1.600   3.818
 2362SOL    MW4 9480   3.821   1.556   3.864
 2363SOL     OW 9481   3.607   1.728   3.775
 2363SOL    HW2 9482   3.531   1.677   3.803
 2363SOL    HW3 9483   3.609   1.717   3.680
 2363SOL    MW4 9484   3.597   1.720   3.767
 2364SOL     OW 9485   3.580   1.981   3.899
 2364SOL    HW2 9486   3.599   1.900   3.852
 2364SOL    HW3 9487   3.503   2.017   3.854
 2364SOL    MW4 9488   3.572   1.975   3.887
 2365SOL     OW 9489   3.824   2.106   3.824
 2365SOL    HW2 9490   3.895   2.047   3.848
 2365SOL    HW3 9491   3.749   2.076   3.875
 2365SOL    MW4 9492   3.824   2.095   3.834
 2366SOL     OW 9493   3.835   2.361   3.895
 2366SOL    HW2 9494   3.757   2.392   3.849
 2366SOL    HW3 9495   3.834   2.266   3.883
 2366SOL    MW4 9496   3.824   2.353   3.887
 2367SOL     OW 9497   3.628   2.452   3.749
 2367SOL    HW2 9498   3.536   2.436   3.771
 2367SOL    HW3 9499   3.626   2.482   3.658
 2367SOL    MW4 9500   3.616   2.454   3.740
 2368SOL     OW 9501   3.615   2.720   3.846
 2368SOL    HW2 9502   3.609   2.627   3.823
 2368SOL    HW3 9503   3.544   2.761   3.798
 2368SOL    MW4 9504   3.605   2.713   3.837
 2369SOL     OW 9505   3.856   2.830   3.727
 2369SOL    HW2 9506   3.936   2.799   3.769
 2369SOL    HW3 9507   3.785   2.793   3.780
 2369SOL    MW4 9508   3.857   2.821   3.740
 2370SOL     OW 9509   3.813   3.079   3.829
 2370SOL    HW2 9510   3.723   3.107   3.811
 2370SOL    HW3 9511   3.820   2.993   3.787
 2370SOL    MW4 9512   3.802   3.071   3.821
 2371SOL     OW 9513   3.570   3.207   3.764
 2371SOL    HW2 9514   3.601   3.294   3.790
 2371SOL    HW3 9515   3.556   3.214   3.670
 2371SOL    MW4 9516   3.572   3.220   3.755
 2372SOL     OW 9517   3.599   3.496   3.846
 2372SOL    HW2 9518   3.606   3.484   3.941
 2372SOL    HW3 9519   3.508   3.520   3.831
 2372SOL    MW4 9520   3.588   3.498   3.856
 2373SOL     OW 9521   3.821   3.652   3.732
 2373SOL    HW2 9522   3.813   3.727   3.792
 2373SOL    HW3 9523   3.743   3.599   3.749
 2373SOL    MW4 9524   3.810   3.655   3.742
 2374SOL     OW 9525   3.827   3.894   3.860
 2374SOL    HW2 9526   3.850   3.886   3.953
 2374SOL    HW3 9527   3.905   3.932   3.820
 2374SOL    MW4 9528   3.840   3.898   3.867
 2375SOL     OW 9529   3.613   4.041   3.755
 2375SOL    HW2 9530   3.609   4.130   3.788
 2375SOL    HW3 9531   3.686   4.001   3.802
 2375SOL    MW4 9532   3.622   4.047   3.766
 2376SOL     OW 9533   3.592   4.308   3.851
 2376SOL    HW2 9534   3.597   4.293   3.945
 2376SOL    HW3 9535   3.678   4.341   3.827
 2376SOL    MW4 9536   3.604   4.310   3.860
 2377SOL     OW 9537   3.832   4.412   3.786
 2377SOL    HW2 9538   3.913   4.364   3.803
 2377SOL    HW3 9539   3.815   4.397   3.693
 2377SOL    MW4 9540   3.841   4.404   3.776
 2378SOL     OW 9541   4.238   4.649   3.886
 2378SOL    HW2 9542   4.243   4.666   3.980
 2378SOL    HW3 9543   4.318   4.689   3.850
 2378SOL    MW4 9544   4.250   4.656   3.893
 2379SOL     OW 9545   4.036   0.122   3.749
 2379SOL    HW2 9546   4.105   0.061   3.776
 2379SOL    HW3 9547   4.043   0.127   3.654
 2379SOL    MW4 9548   4.046   0.115   3.740
 2380SOL     OW 9549   4.051   0.382   3.854
 2380SOL    HW2 9550   4.041   0.386   3.949
 2380SOL    HW3 9551   4.042   0.290   3.833
 2380SOL    MW4 9552   4.049   0.371   3.864
 2381SOL     OW 9553   4.270   0.554   3.819
 2381SOL    HW2 9554   4.190   0.508   3.844
 2381SOL    HW3 9555   4.277   0.539   3.724
 2381SOL    MW4 9556   4.260   0.546   3.810
 2382SOL     OW 9557   4.253   0.811   3.856
 2382SOL    HW2 9558   4.168   0.818   3.813
 2382SOL    HW3 9559   4.275   0.718   3.850
 2382SOL    MW4 9560   4.245   0.800   3.849
 2383SOL     OW 9561   4.038   0.876   3.709
 2383SOL    HW2 9562   4.030   0.970   3.724
 2383SOL    HW3 9563   4.032   0.867   3.614
 2383SOL    MW4 9564   4.036   0.887   3.698
 2384SOL     OW 9565   4.082   1.137   3.848
 2384SOL    HW2 9566   4.082   1.125   3.943
 2384SOL    HW3 9567   4.165   1.180   3.829
 2384SOL    MW4 9568   4.093   1.141   3.858
 2385SOL     OW 9569   4.313   1.263   3.793
 2385SOL    HW2 9570   4.320   1.355   3.819
 2385SOL    HW3 9571   4.310   1.265   3.698
 2385SOL    MW4 9572   4.314   1.275   3.784
 2386SOL     OW 9573   4.302   1.537   3.870
 2386SOL    HW2 9574   4.225   1.579   3.831
 2386SOL    HW3 9575   4.376   1.574   3.822
 2386SOL    MW4 9576   4.301   1.548   3.859
 2387SOL     OW 9577   4.066   1.677   3.767
 2387SOL    HW2 9578   4.054   1.765   3.803
 2387SOL    HW3 9579   3.987   1.629   3.795
 2387SOL    MW4 9580   4.054   1.682   3.775
 2388SOL     OW 9581   4.042   1.941   3.863
 2388SOL    HW2 9582   4.060   1.936   3.956
 2388SOL    HW3 9583   4.112   1.996   3.828
 2388SOL    MW4 9584   4.054   1.947   3.870
 2389SOL     OW 9585   4.242   2.087   3.732
 2389SOL    HW2 9586   4.256   2.173   3.773
 2389SOL    HW3 9587   4.226   2.107   3.639
 2389SOL    MW4 9588   4.242   2.101   3.725
 2390SOL     OW 9589   4.272   2.339   3.841
 2390SOL    HW2 9590   4.255   2.338   3.935
 2390SOL    HW3 9591   4.199   2.389   3.804
 2390SOL    MW4 9592   4.261   2.346   3.848
 2391SOL     OW 9593   4.061   2.478   3.729
 2391SOL    HW2 9594   4.059   2.562   3.775
 2391SOL    HW3 9595   3.993   2.426   3.771
 2391SOL    MW4 9596   4.052   2.482   3.741
 2392SOL     OW 9597   4.075   2.740   3.837
 2392SOL    HW2 9598   4.073   2.750   3.933
 2392SOL    HW3 9599   4.149   2.795   3.809
 2392SOL    MW4 9600   4.085   2.749   3.846
 2393SOL     OW 9601   4.280   2.902   3.754
 2393SOL    HW2 9602   4.273   2.991   3.790
 2393SOL    HW3 9603   4.360   2.866   3.792
 2393SOL    MW4 9604   4.289   2.909   3.764
 2394SOL     OW 9605   4.212   3.144   3.906
 2394SOL    HW2 9606   4.135   3.167   3.854
 2394SOL    HW3 9607   4.284   3.191   3.864
 2394SOL    MW4 9608   4.211   3.153   3.894
 2395SOL     OW 9609   4.019   3.252   3.742
 2395SOL    HW2 9610   3.942   3.204   3.774
 2395SOL    HW3 9611   4.013   3.246   3.646
 2395SOL    MW4 9612   4.008   3.245   3.733
 2396SOL     OW 9613   4.031   3.507   3.851
 2396SOL    HW2 9614   4.017   3.428   3.799
 2396SOL    HW3 9615   3.957   3.564   3.829
 2396SOL    MW4 9616   4.020   3.504   3.841
 2397SOL     OW 9617   4.240   3.635   3.756
 2397SOL    HW2 9618   4.166   3.588   3.792
 2397SOL    HW3 9619   4.317   3.582   3.780
 2397SOL    MW4 9620   4.241   3.622   3.764
 2398SOL     OW 9621   4.265   3.874   3.882
 2398SOL    HW2 9622   4.197   3.922   3.835
 2398SOL    HW3 9623   4.260   3.785   3.847
 2398SOL    MW4 9624   4.255   3.868   3.871
 2399SOL     OW 9625   4.046   3.994   3.732
 2399SOL    HW2 9626   4.036   4.083   3.766
 2399SOL    HW3 9627   4.049   4.005   3.637
 2399SOL    MW4 9628   4.045   4.007   3.724
 2400SOL     OW 9629   4.045   4.249   3.845
 2400SOL    HW2 9630   4.043   4.244   3.940
 2400SOL    HW3 9631   4.130   4.288   3.825
 2400SOL    MW4 9632   4.056   4.253   3.855
 2401SOL     OW 9633   4.260   4.390   3.753
 2401SOL    HW2 9634   4.261   4.474   3.800
 2401SOL    HW3 9635   4.342   4.348   3.779
 2401SOL    MW4 9636   4.271   4.396   3.762
 2402SOL     OW 9637   0.258   0.011   4.133
 2402SOL    HW2 9638   0.348   0.029   4.162
 2402SOL    HW3 9639   0.234  -0.070   4.178
 2402SOL    MW4 9640   0.266   0.003   4.143
 2403SOL     OW 9641   0.027   0.147   4.224
 2403SOL    HW2 9642   0.034   0.144   4.319
 2403SOL    HW3 9643   0.111   0.115   4.192
 2403SOL    MW4 9644   0.039   0.143   4.232
 2404SOL     OW 9645   0.007   0.415   4.126
 2404SOL    HW2 9646   0.003   0.339   4.184
 2404SOL    HW3 9647   0.000   0.378   4.038
 2404SOL    MW4 9648   0.005   0.400   4.122
 2405SOL     OW 9649   0.242   0.521   4.238
 2405SOL    HW2 9650   0.310   0.470   4.195
 2405SOL    HW3 9651   0.160   0.481   4.207
 2405SOL    MW4 9652   0.240   0.509   4.228
 2406SOL     OW 9653   0.223   0.774   4.113
 2406SOL    HW2 9654   0.148   0.804   4.163
 2406SOL    HW3 9655   0.244   0.688   4.150
 2406SOL    MW4 9656   0.216   0.766   4.124
 2407SOL     OW 9657   0.034   0.853   4.290
 2407SOL    HW2 9658  -0.050   0.815   4.263
 2407SOL    HW3 9659   0.029   0.945   4.262
 2407SOL    MW4 9660   0.023   0.860   4.283
 2408SOL     OW 9661   0.021   1.125   4.239
 2408SOL    HW2 9662   0.098   1.175   4.265
 2408SOL    HW3 9663   0.013   1.141   4.145
 2408SOL    MW4 9664   0.030   1.134   4.230
 2409SOL     OW 9665   0.238   1.333   4.269
 2409SOL    HW2 9666   0.280   1.328   4.355
 2409SOL    HW3 9667   0.297   1.286   4.211
 2409SOL    MW4 9668   0.252   1.326   4.273
 2410SOL     OW 9669   0.395   1.874   4.687
 2410SOL    HW2 9670   0.406   1.962   4.652
 2410SOL    HW3 9671   0.356   1.823   4.616
 2410SOL    MW4 9672   0.392   1.879   4.673
 2411SOL     OW 9673   4.472   1.694   4.200
 2411SOL    HW2 9674   4.384   1.657   4.202
 2411SOL    HW3 9675   4.460   1.781   4.161
 2411SOL    MW4 9676   4.459   1.701   4.195
 2412SOL     OW 9677   0.164   2.086   4.212
 2412SOL    HW2 9678   0.138   2.074   4.303
 2412SOL    HW3 9679   0.250   2.044   4.206
 2412SOL    MW4 9680   0.172   2.079   4.223
 2413SOL     OW 9681   0.470   1.487   4.635
 2413SOL    HW2 9682   0.421   1.554   4.587
 2413SOL    HW3 9683   0.467   1.516   4.726
 2413SOL    MW4 9684   0.464   1.500   4.640
 2414SOL     OW 9685   0.247   2.333   4.106
 2414SOL    HW2 9686   0.319   2.367   4.159
 2414SOL    HW3 9687   0.214   2.258   4.157
 2414SOL    MW4 9688   0.252   2.328   4.120
 2415SOL     OW 9689   0.040   2.482   4.156
 2415SOL    HW2 9690  -0.037   2.427   4.143
 2415SOL    HW3 9691   0.113   2.430   4.124
 2415SOL    MW4 9692   0.039   2.468   4.150
 2416SOL     OW 9693   4.481   2.751   4.133
 2416SOL    HW2 9694   4.558   2.780   4.182
 2416SOL    HW3 9695   4.483   2.656   4.138
 2416SOL    MW4 9696   4.492   2.742   4.140
 2417SOL     OW 9697   0.217   2.878   4.247
 2417SOL    HW2 9698   0.298   2.826   4.239
 2417SOL    HW3 9699   0.228   2.949   4.184
 2417SOL    MW4 9700   0.229   2.880   4.238
 2418SOL     OW 9701   0.275   3.101   4.096
 2418SOL    HW2 9702   0.347   3.150   4.136
 2418SOL    HW3 9703   0.197   3.132   4.141
 2418SOL    MW4 9704   0.275   3.112   4.107
 2419SOL     OW 9705   0.045   3.236   4.209
 2419SOL    HW2 9706  -0.047   3.209   4.205
 2419SOL    HW3 9707   0.044   3.328   4.182
 2419SOL    MW4 9708   0.033   3.245   4.205
 2420SOL     OW 9709   0.018   3.489   4.142
 2420SOL    HW2 9710  -0.058   3.543   4.165
 2420SOL    HW3 9711   0.020   3.491   4.046
 2420SOL    MW4 9712   0.008   3.496   4.132
 2421SOL     OW 9713   0.238   3.649   4.211
 2421SOL    HW2 9714   0.307   3.584   4.199
 2421SOL    HW3 9715   0.158   3.603   4.187
 2421SOL    MW4 9716   0.237   3.634   4.206
 2422SOL     OW 9717   0.047   4.008   4.287
 2422SOL    HW2 9718  -0.031   3.962   4.254
 2422SOL    HW3 9719   0.082   3.950   4.354
 2422SOL    MW4 9720   0.041   3.994   4.291
 2423SOL     OW 9721   0.048   3.828   4.512
 2423SOL    HW2 9722   0.122   3.779   4.547
 2423SOL    HW3 9723  -0.029   3.772   4.531
 2423SOL    MW4 9724   0.047   3.814   4.519
 2424SOL     OW 9725   4.489   4.252   4.122
 2424SOL    HW2 9726   4.487   4.164   4.158
 2424SOL    HW3 9727   4.498   4.240   4.028
 2424SOL    MW4 9728   4.490   4.239   4.114
 2425SOL     OW 9729   0.193   4.426   4.241
 2425SOL    HW2 9730   0.162   4.462   4.324
 2425SOL    HW3 9731   0.116   4.380   4.205
 2425SOL    MW4 9732   0.179   4.424   4.247
 2426SOL     OW 9733   0.691   4.626   4.053
 2426SOL    HW2 9734   0.613   4.669   4.089
 2426SOL    HW3 9735   0.683   4.638   3.958
 2426SOL    MW4 9736   0.679   4.634   4.045
 2427SOL     OW 9737   0.513   0.094   4.202
 2427SOL    HW2 9738   0.546   0.098   4.292
 2427SOL    HW3 9739   0.484   0.184   4.183
 2427SOL    MW4 9740   0.514   0.107   4.211
 2428SOL     OW 9741   0.441   0.358   4.122
 2428SOL    HW2 9742   0.516   0.414   4.139
 2428SOL    HW3 9743   0.431   0.360   4.027
 2428SOL    MW4 9744   0.450   0.366   4.112
 2429SOL     OW 9745   0.630   0.517   4.256
 2429SOL    HW2 9746   0.714   0.476   4.236
 2429SOL    HW3 9747   0.633   0.600   4.208
 2429SOL    MW4 9748   0.642   0.523   4.247
 2430SOL     OW 9749   0.627   0.764   4.127
 2430SOL    HW2 9750   0.544   0.805   4.149
 2430SOL    HW3 9751   0.628   0.760   4.031
 2430SOL    MW4 9752   0.616   0.769   4.117
 2431SOL     OW 9753   0.407   0.931   4.219
 2431SOL    HW2 9754   0.408   1.013   4.170
 2431SOL    HW3 9755   0.329   0.885   4.189
 2431SOL    MW4 9756   0.397   0.936   4.209
 2432SOL     OW 9757   0.409   1.185   4.088
 2432SOL    HW2 9758   0.492   1.210   4.129
 2432SOL    HW3 9759   0.433   1.167   3.997
 2432SOL    MW4 9760   0.423   1.186   4.082
 2433SOL     OW 9761   0.617   1.286   4.250
 2433SOL    HW2 9762   0.621   1.296   4.345
 2433SOL    HW3 9763   0.634   1.374   4.216
 2433SOL    MW4 9764   0.620   1.299   4.258
 2434SOL     OW 9765   0.642   1.550   4.142
 2434SOL    HW2 9766   0.720   1.602   4.158
 2434SOL    HW3 9767   0.633   1.549   4.047
 2434SOL    MW4 9768   0.651   1.557   4.132
 2435SOL     OW 9769   0.196   1.561   4.114
 2435SOL    HW2 9770   0.202   1.477   4.161
 2435SOL    HW3 9771   0.112   1.598   4.140
 2435SOL    MW4 9772   0.186   1.554   4.123
 2436SOL     OW 9773   0.407   1.952   4.151
 2436SOL    HW2 9774   0.416   1.864   4.187
 2436SOL    HW3 9775   0.427   1.943   4.058
 2436SOL    MW4 9776   0.411   1.939   4.144
 2437SOL     OW 9777   0.651   2.077   4.243
 2437SOL    HW2 9778   0.657   2.049   4.334
 2437SOL    HW3 9779   0.570   2.037   4.211
 2437SOL    MW4 9780   0.641   2.068   4.251
 2438SOL     OW 9781   0.687   2.332   4.121
 2438SOL    HW2 9782   0.672   2.254   4.175
 2438SOL    HW3 9783   0.688   2.300   4.031
 2438SOL    MW4 9784   0.685   2.317   4.117
 2439SOL     OW 9785   0.468   2.444   4.244
 2439SOL    HW2 9786   0.464   2.539   4.233
 2439SOL    HW3 9787   0.531   2.414   4.178
 2439SOL    MW4 9788   0.476   2.452   4.234
 2440SOL     OW 9789   0.441   2.725   4.165
 2440SOL    HW2 9790   0.534   2.739   4.180
 2440SOL    HW3 9791   0.435   2.704   4.071
 2440SOL    MW4 9792   0.452   2.724   4.155
 2441SOL     OW 9793   0.714   2.793   4.215
 2441SOL    HW2 9794   0.717   2.813   4.309
 2441SOL    HW3 9795   0.721   2.877   4.171
 2441SOL    MW4 9796   0.715   2.807   4.222
 2442SOL     OW 9797   0.714   3.057   4.121
 2442SOL    HW2 9798   0.787   3.113   4.146
 2442SOL    HW3 9799   0.637   3.104   4.154
 2442SOL    MW4 9800   0.713   3.071   4.128
 2443SOL     OW 9801   0.509   3.217   4.198
 2443SOL    HW2 9802   0.521   3.229   4.292
 2443SOL    HW3 9803   0.488   3.305   4.166
 2443SOL    MW4 9804   0.507   3.230   4.206
 2444SOL     OW 9805   0.461   3.489   4.154
 2444SOL    HW2 9806   0.541   3.530   4.185
 2444SOL    HW3 9807   0.473   3.483   4.059
 2444SOL    MW4 9808   0.473   3.493   4.145
 2445SOL     OW 9809   0.987   3.585   4.352
 2445SOL    HW2 9810   0.914   3.559   4.408
 2445SOL    HW3 9811   0.960   3.559   4.264
 2445SOL    MW4 9812   0.974   3.578   4.348
 2446SOL     OW 9813   0.683   3.653   4.199
 2446SOL    HW2 9814   0.707   3.734   4.154
 2446SOL    HW3 9815   0.749   3.590   4.172
 2446SOL    MW4 9816   0.695   3.655   4.190
 2447SOL     OW 9817   0.484   4.027   4.252
 2447SOL    HW2 9818   0.470   4.115   4.217
 2447SOL    HW3 9819   0.403   3.980   4.232
 2447SOL    MW4 9820   0.471   4.032   4.245
 2448SOL     OW 9821   0.420   4.285   4.147
 2448SOL    HW2 9822   0.339   4.326   4.178
 2448SOL    HW3 9823   0.407   4.278   4.052
 2448SOL    MW4 9824   0.408   4.290   4.138
 2449SOL     OW 9825   0.669   4.373   4.201
 2449SOL    HW2 9826   0.576   4.351   4.195
 2449SOL    HW3 9827   0.674   4.462   4.167
 2449SOL    MW4 9828   0.657   4.382   4.196
 2450SOL     OW 9829   1.150   0.014   4.118
 2450SOL    HW2 9830   1.127  -0.072   4.151
 2450SOL    HW3 9831   1.132   0.009   4.024
 2450SOL    MW4 9832   1.145   0.002   4.110
 2451SOL     OW 9833   0.891   0.131   4.184
 2451SOL    HW2 9834   0.972   0.091   4.153
 2451SOL    HW3 9835   0.822   0.088   4.133
 2451SOL    MW4 9836   0.892   0.120   4.173
 2452SOL     OW 9837   0.857   0.394   4.139
 2452SOL    HW2 9838   0.939   0.443   4.137
 2452SOL    HW3 9839   0.883   0.304   4.157
 2452SOL    MW4 9840   0.872   0.389   4.141
 2453SOL     OW 9841   1.100   0.525   4.200
 2453SOL    HW2 9842   1.109   0.527   4.295
 2453SOL    HW3 9843   1.167   0.463   4.171
 2453SOL    MW4 9844   1.110   0.517   4.209
 2454SOL     OW 9845   1.086   0.780   4.074
 2454SOL    HW2 9846   1.154   0.836   4.112
 2454SOL    HW3 9847   1.089   0.700   4.126
 2454SOL    MW4 9848   1.096   0.777   4.086
 2455SOL     OW 9849   0.856   0.863   4.230
 2455SOL    HW2 9850   0.920   0.825   4.170
 2455SOL    HW3 9851   0.771   0.833   4.197
 2455SOL    MW4 9852   0.853   0.854   4.218
 2456SOL     OW 9853   0.835   1.137   4.141
 2456SOL    HW2 9854   0.839   1.055   4.190
 2456SOL    HW3 9855   0.774   1.191   4.191
 2456SOL    MW4 9856   0.827   1.133   4.154
 2457SOL     OW 9857   1.058   1.294   4.194
 2457SOL    HW2 9858   1.098   1.278   4.280
 2457SOL    HW3 9859   0.981   1.237   4.191
 2457SOL    MW4 9860   1.053   1.285   4.205
 2458SOL     OW 9861   1.080   1.544   4.079
 2458SOL    HW2 9862   1.011   1.608   4.096
 2458SOL    HW3 9863   1.047   1.462   4.115
 2458SOL    MW4 9864   1.067   1.542   4.086
 2459SOL     OW 9865   0.876   1.696   4.190
 2459SOL    HW2 9866   0.872   1.692   4.286
 2459SOL    HW3 9867   0.888   1.788   4.170
 2459SOL    MW4 9868   0.877   1.707   4.200
 2460SOL     OW 9869   0.880   1.960   4.136
 2460SOL    HW2 9870   0.795   1.996   4.163
 2460SOL    HW3 9871   0.884   1.977   4.042
 2460SOL    MW4 9872   0.869   1.967   4.127
 2461SOL     OW 9873   1.123   2.057   4.232
 2461SOL    HW2 9874   1.135   2.021   4.320
 2461SOL    HW3 9875   1.032   2.038   4.210
 2461SOL    MW4 9876   1.113   2.050   4.241
 2462SOL     OW 9877   1.160   2.326   4.140
 2462SOL    HW2 9878   1.210   2.385   4.196
 2462SOL    HW3 9879   1.169   2.240   4.182
 2462SOL    MW4 9880   1.168   2.323   4.153
 2463SOL     OW 9881   0.910   2.454   4.242
 2463SOL    HW2 9882   0.980   2.396   4.212
 2463SOL    HW3 9883   0.833   2.425   4.192
 2463SOL    MW4 9884   0.909   2.442   4.231
 2464SOL     OW 9885   0.973   2.705   4.158
 2464SOL    HW2 9886   0.977   2.612   4.181
 2464SOL    HW3 9887   0.883   2.730   4.176
 2464SOL    MW4 9888   0.962   2.696   4.164
 2465SOL     OW 9889   1.201   2.885   4.278
 2465SOL    HW2 9890   1.188   2.955   4.214
 2465SOL    HW3 9891   1.121   2.832   4.273
 2465SOL    MW4 9892   1.189   2.887   4.269
 2466SOL     OW 9893   1.156   3.072   4.067
 2466SOL    HW2 9894   1.210   3.151   4.071
 2466SOL    HW3 9895   1.137   3.061   3.974
 2466SOL    MW4 9896   1.160   3.081   4.055
 2467SOL     OW 9897   0.944   3.217   4.165
 2467SOL    HW2 9898   0.948   3.194   4.258
 2467SOL    HW3 9899   1.013   3.165   4.125
 2467SOL    MW4 9900   0.953   3.207   4.172
 2468SOL     OW 9901   0.885   3.485   4.109
 2468SOL    HW2 9902   0.900   3.392   4.129
 2468SOL    HW3 9903   0.894   3.491   4.014
 2468SOL    MW4 9904   0.888   3.473   4.099
 2469SOL     OW 9905   0.982   3.853   4.280
 2469SOL    HW2 9906   0.901   3.866   4.231
 2469SOL    HW3 9907   0.976   3.763   4.312
 2469SOL    MW4 9908   0.970   3.843   4.278
 2470SOL     OW 9909   1.196   3.774   4.118
 2470SOL    HW2 9910   1.244   3.856   4.116
 2470SOL    HW3 9911   1.120   3.792   4.174
 2470SOL    MW4 9912   1.192   3.787   4.125
 2471SOL     OW 9913   0.728   3.928   4.143
 2471SOL    HW2 9914   0.780   4.008   4.139
 2471SOL    HW3 9915   0.650   3.952   4.192
 2471SOL    MW4 9916   0.725   3.942   4.149
 2472SOL     OW 9917   1.057   4.394   4.181
 2472SOL    HW2 9918   1.147   4.364   4.190
 2472SOL    HW3 9919   1.031   4.420   4.269
 2472SOL    MW4 9920   1.065   4.394   4.194
 2473SOL     OW 9921   0.958   4.412   4.454
 2473SOL    HW2 9922   1.050   4.412   4.478
 2473SOL    HW3 9923   0.923   4.330   4.489
 2473SOL    MW4 9924   0.965   4.401   4.461
 2474SOL     OW 9925   1.598   0.005   4.136
 2474SOL    HW2 9926   1.678   0.045   4.169
 2474SOL    HW3 9927   1.528   0.050   4.184
 2474SOL    MW4 9928   1.599   0.016   4.147
 2475SOL     OW 9929   1.368   0.104   4.248
 2475SOL    HW2 9930   1.335   0.115   4.338
 2475SOL    HW3 9931   1.290   0.081   4.197
 2475SOL    MW4 9932   1.353   0.102   4.253
 2476SOL     OW 9933   1.307   0.359   4.161
 2476SOL    HW2 9934   1.370   0.418   4.201
 2476SOL    HW3 9935   1.325   0.273   4.200
 2476SOL    MW4 9936   1.318   0.355   4.171
 2477SOL     OW 9937   1.518   0.546   4.265
 2477SOL    HW2 9938   1.497   0.574   4.354
 2477SOL    HW3 9939   1.516   0.626   4.213
 2477SOL    MW4 9940   1.515   0.560   4.269
 2478SOL     OW 9941   1.497   0.786   4.124
 2478SOL    HW2 9942   1.582   0.805   4.165
 2478SOL    HW3 9943   1.517   0.778   4.031
 2478SOL    MW4 9944   1.511   0.788   4.117
 2479SOL     OW 9945   1.281   0.934   4.230
 2479SOL    HW2 9946   1.288   1.027   4.210
 2479SOL    HW3 9947   1.353   0.894   4.181
 2479SOL    MW4 9948   1.291   0.941   4.221
 2480SOL     OW 9949   1.315   1.198   4.142
 2480SOL    HW2 9950   1.229   1.236   4.162
 2480SOL    HW3 9951   1.317   1.192   4.047
 2480SOL    MW4 9952   1.304   1.203   4.132
 2481SOL     OW 9953   1.544   1.320   4.226
 2481SOL    HW2 9954   1.537   1.308   4.321
 2481SOL    HW3 9955   1.462   1.282   4.191
 2481SOL    MW4 9956   1.532   1.313   4.234
 2482SOL     OW 9957   1.562   1.574   4.152
 2482SOL    HW2 9958   1.475   1.600   4.183
 2482SOL    HW3 9959   1.568   1.481   4.174
 2482SOL    MW4 9960   1.551   1.565   4.159
 2483SOL     OW 9961   1.303   1.644   4.199
 2483SOL    HW2 9962   1.311   1.738   4.183
 2483SOL    HW3 9963   1.228   1.617   4.145
 2483SOL    MW4 9964   1.294   1.653   4.189
 2484SOL     OW 9965   1.338   1.922   4.130
 2484SOL    HW2 9966   1.415   1.965   4.167
 2484SOL    HW3 9967   1.264   1.971   4.165
 2484SOL    MW4 9968   1.338   1.934   4.139
 2485SOL     OW 9969   1.555   2.057   4.232
 2485SOL    HW2 9970   1.642   2.023   4.213
 2485SOL    HW3 9971   1.554   2.144   4.191
 2485SOL    MW4 9972   1.566   2.064   4.224
 2486SOL     OW 9973   1.563   2.351   4.145
 2486SOL    HW2 9974   1.639   2.383   4.194
 2486SOL    HW3 9975   1.590   2.359   4.053
 2486SOL    MW4 9976   1.577   2.357   4.139
 2487SOL     OW 9977   1.568   2.848   4.103
 2487SOL    HW2 9978   1.571   2.789   4.179
 2487SOL    HW3 9979   1.657   2.848   4.069
 2487SOL    MW4 9980   1.580   2.840   4.109
 2488SOL     OW 9981   1.325   2.719   4.110
 2488SOL    HW2 9982   1.409   2.764   4.100
 2488SOL    HW3 9983   1.273   2.776   4.165
 2488SOL    MW4 9984   1.329   2.732   4.116
 2489SOL     OW 9985   1.562   2.363   4.502
 2489SOL    HW2 9986   1.561   2.425   4.574
 2489SOL    HW3 9987   1.618   2.291   4.532
 2489SOL    MW4 9988   1.569   2.362   4.515
 2490SOL     OW 9989   1.526   3.125   4.146
 2490SOL    HW2 9990   1.601   3.154   4.198
 2490SOL    HW3 9991   1.530   3.029   4.149
 2490SOL    MW4 9992   1.537   3.116   4.153
 2491SOL     OW 9993   1.288   3.290   4.160
 2491SOL    HW2 9994   1.374   3.248   4.157
 2491SOL    HW3 9995   1.304   3.380   4.132
 2491SOL    MW4 9996   1.302   3.296   4.156
 2492SOL     OW 9997   1.362   3.544   4.085
 2492SOL    HW2 9998   1.308   3.615   4.119
 2492SOL    HW3 9999   1.356   3.552   3.990
 2492SOL    MW410000   1.354   3.554   4.077
 2493SOL     OW10001   1.569   3.649   4.230
 2493SOL    HW210002   1.534   3.626   4.316
 2493SOL    HW310003   1.516   3.598   4.169
 2493SOL    MW410004   1.558   3.639   4.233
 2494SOL     OW10005   1.588   3.878   4.087
 2494SOL    HW210006   1.513   3.928   4.118
 2494SOL    HW310007   1.596   3.806   4.150
 2494SOL    MW410008   1.579   3.875   4.100
 2495SOL     OW10009   1.335   4.001   4.171
 2495SOL    HW210010   1.314   4.002   4.264
 2495SOL    HW310011   1.312   4.088   4.139
 2495SOL    MW410012   1.329   4.013   4.179
 2496SOL     OW10013   1.317   4.281   4.116
 2496SOL    HW210014   1.389   4.327   4.160
 2496SOL    HW310015   1.333   4.295   4.023
 2496SOL    MW410016   1.328   4.289   4.110
 2497SOL     OW10017   1.531   4.406   4.230
 2497SOL    HW210018   1.531   4.500   4.212
 2497SOL    HW310019   1.604   4.371   4.179
 2497SOL    MW410020   1.541   4.414   4.221
 2498SOL     OW10021   2.040   4.632   4.132
 2498SOL    HW210022   1.979   4.698   4.166
 2498SOL    HW310023   2.033   4.639   4.036
 2498SOL    MW410024   2.031   4.642   4.124
 2499SOL     OW10025   1.838   0.150   4.196
 2499SOL    HW210026   1.847   0.141   4.291
 2499SOL    HW310027   1.828   0.244   4.182
 2499SOL    MW410028   1.838   0.161   4.207
 2500SOL     OW10029   1.765   0.421   4.152
 2500SOL    HW210030   1.841   0.454   4.200
 2500SOL    HW310031   1.692   0.475   4.182
 2500SOL    MW410032   1.766   0.432   4.163
 2501SOL     OW10033   1.978   0.510   4.282
 2501SOL    HW210034   1.951   0.470   4.365
 2501SOL    HW310035   2.048   0.454   4.250
 2501SOL    MW410036   1.983   0.497   4.289
 2502SOL     OW10037   1.994   0.739   4.113
 2502SOL    HW210038   2.059   0.797   4.151
 2502SOL    HW310039   1.999   0.659   4.165
 2502SOL    MW410040   2.003   0.736   4.125
 2503SOL     OW10041   1.747   0.850   4.215
 2503SOL    HW210042   1.770   0.943   4.219
 2503SOL    HW310043   1.821   0.809   4.170
 2503SOL    MW410044   1.760   0.857   4.209
 2504SOL     OW10045   1.775   1.142   4.172
 2504SOL    HW210046   1.854   1.191   4.198
 2504SOL    HW310047   1.704   1.205   4.184
 2504SOL    MW410048   1.776   1.157   4.177
 2505SOL     OW10049   2.012   1.255   4.301
 2505SOL    HW210050   2.074   1.216   4.240
 2505SOL    HW310051   2.009   1.347   4.277
 2505SOL    MW410052   2.020   1.262   4.290
 2506SOL     OW10053   1.994   1.511   4.192
 2506SOL    HW210054   2.068   1.555   4.233
 2506SOL    HW310055   2.012   1.515   4.098
 2506SOL    MW410056   2.006   1.517   4.185
 2507SOL     OW10057   1.782   1.695   4.253
 2507SOL    HW210058   1.852   1.635   4.230
 2507SOL    HW310059   1.703   1.656   4.215
 2507SOL    MW410060   1.781   1.682   4.245
 2508SOL     OW10061   1.786   1.939   4.136
 2508SOL    HW210062   1.756   1.852   4.162
 2508SOL    HW310063   1.855   1.960   4.199
 2508SOL    MW410064   1.791   1.930   4.148
 2509SOL     OW10065   1.735   2.484   4.309
 2509SOL    HW210066   1.701   2.454   4.393
 2509SOL    HW310067   1.816   2.530   4.331
 2509SOL    MW410068   1.742   2.486   4.323
 2510SOL     OW10069   2.486   2.359   4.265
 2510SOL    HW210070   2.451   2.364   4.176
 2510SOL    HW310071   2.446   2.434   4.310
 2510SOL    MW410072   2.476   2.370   4.259
 2511SOL     OW10073   1.707   2.960   4.443
 2511SOL    HW210074   1.688   2.873   4.409
 2511SOL    HW310075   1.788   2.986   4.398
 2511SOL    MW410076   1.715   2.952   4.432
 2512SOL     OW10077   1.830   2.774   4.046
 2512SOL    HW210078   1.881   2.726   4.111
 2512SOL    HW310079   1.870   2.861   4.043
 2512SOL    MW410080   1.842   2.779   4.055
 2513SOL     OW10081   1.945   3.082   4.322
 2513SOL    HW210082   2.026   3.046   4.358
 2513SOL    HW310083   1.955   3.071   4.227
 2513SOL    MW410084   1.957   3.076   4.314
 2514SOL     OW10085   2.209   2.882   4.092
 2514SOL    HW210086   2.280   2.947   4.094
 2514SOL    HW310087   2.210   2.844   4.180
 2514SOL    MW410088   2.218   2.886   4.104
 2515SOL     OW10089   1.721   3.244   4.296
 2515SOL    HW210090   1.757   3.317   4.247
 2515SOL    HW310091   1.798   3.196   4.327
 2515SOL    MW410092   1.736   3.247   4.294
 2516SOL     OW10093   1.801   3.487   4.165
 2516SOL    HW210094   1.733   3.552   4.184
 2516SOL    HW310095   1.800   3.478   4.070
 2516SOL    MW410096   1.792   3.494   4.155
 2517SOL     OW10097   2.044   3.605   4.203
 2517SOL    HW210098   2.030   3.691   4.162
 2517SOL    HW310099   1.959   3.561   4.195
 2517SOL    MW410100   2.031   3.610   4.197
 2518SOL     OW10101   1.985   3.874   4.097
 2518SOL    HW210102   1.915   3.937   4.115
 2518SOL    HW310103   2.010   3.892   4.006
 2518SOL    MW410104   1.979   3.885   4.087
 2519SOL     OW10105   1.779   4.029   4.229
 2519SOL    HW210106   1.769   4.121   4.204
 2519SOL    HW310107   1.705   3.985   4.188
 2519SOL    MW410108   1.768   4.035   4.220
 2520SOL     OW10109   1.752   4.291   4.110
 2520SOL    HW210110   1.837   4.321   4.144
 2520SOL    HW310111   1.767   4.277   4.017
 2520SOL    MW410112   1.766   4.293   4.102
 2521SOL     OW10113   1.990   4.373   4.221
 2521SOL    HW210114   1.982   4.380   4.316
 2521SOL    HW310115   1.984   4.463   4.189
 2521SOL    MW410116   1.988   4.386   4.229
 2522SOL     OW10117   2.447   4.564   4.310
 2522SOL    HW210118   2.483   4.578   4.222
 2522SOL    HW310119   2.428   4.470   4.313
 2522SOL    MW410120   2.449   4.553   4.299
 2523SOL     OW10121   2.263   0.092   4.250
 2523SOL    HW210122   2.330   0.026   4.266
 2523SOL    HW310123   2.184   0.043   4.229
 2523SOL    MW410124   2.261   0.077   4.249
 2524SOL     OW10125   2.167   0.352   4.149
 2524SOL    HW210126   2.212   0.269   4.169
 2524SOL    HW310127   2.157   0.352   4.054
 2524SOL    MW410128   2.172   0.341   4.139
 2525SOL     OW10129   2.392   0.515   4.169
 2525SOL    HW210130   2.471   0.468   4.143
 2525SOL    HW310131   2.320   0.459   4.140
 2525SOL    MW410132   2.393   0.501   4.162
 2526SOL     OW10133   2.383   0.805   4.132
 2526SOL    HW210134   2.377   0.712   4.155
 2526SOL    HW310135   2.418   0.805   4.043
 2526SOL    MW410136   2.387   0.793   4.123
 2527SOL     OW10137   2.154   0.914   4.230
 2527SOL    HW210138   2.156   0.908   4.326
 2527SOL    HW310139   2.240   0.885   4.202
 2527SOL    MW410140   2.165   0.909   4.239
 2528SOL     OW10141   2.172   1.157   4.103
 2528SOL    HW210142   2.253   1.201   4.132
 2528SOL    HW310143   2.172   1.075   4.151
 2528SOL    MW410144   2.183   1.152   4.113
 2529SOL     OW10145   2.416   1.261   4.202
 2529SOL    HW210146   2.429   1.249   4.296
 2529SOL    HW310147   2.499   1.234   4.163
 2529SOL    MW410148   2.428   1.256   4.210
 2530SOL     OW10149   2.438   1.550   4.202
 2530SOL    HW210150   2.444   1.456   4.215
 2530SOL    HW310151   2.417   1.560   4.109
 2530SOL    MW410152   2.436   1.539   4.191
 2531SOL     OW10153   2.185   1.626   4.339
 2531SOL    HW210154   2.275   1.597   4.328
 2531SOL    HW310155   2.184   1.715   4.303
 2531SOL    MW410156   2.197   1.634   4.333
 2532SOL     OW10157   2.236   1.881   4.194
 2532SOL    HW210158   2.300   1.938   4.237
 2532SOL    HW310159   2.152   1.908   4.230
 2532SOL    MW410160   2.234   1.892   4.205
 2533SOL     OW10161   2.398   2.092   4.313
 2533SOL    HW210162   2.408   2.186   4.297
 2533SOL    HW310163   2.478   2.053   4.277
 2533SOL    MW410164   2.410   2.099   4.306
 2534SOL     OW10165   2.572   2.628   4.108
 2534SOL    HW210166   2.477   2.618   4.112
 2534SOL    HW310167   2.605   2.565   4.172
 2534SOL    MW410168   2.564   2.618   4.117
 2535SOL     OW10169   2.382   2.550   4.444
 2535SOL    HW210170   2.343   2.628   4.404
 2535SOL    HW310171   2.429   2.584   4.520
 2535SOL    MW410172   2.383   2.565   4.449
 2536SOL     OW10173   1.991   2.651   4.235
 2536SOL    HW210174   2.067   2.687   4.279
 2536SOL    HW310175   2.026   2.580   4.180
 2536SOL    MW410176   2.005   2.646   4.233
 2537SOL     OW10177   2.539   2.847   4.294
 2537SOL    HW210178   2.536   2.762   4.250
 2537SOL    HW310179   2.465   2.845   4.355
 2537SOL    MW410180   2.529   2.836   4.296
 2538SOL     OW10181   2.244   3.207   4.307
 2538SOL    HW210182   2.221   3.123   4.347
 2538SOL    HW310183   2.281   3.258   4.378
 2538SOL    MW410184   2.246   3.202   4.322
 2539SOL     OW10185   1.968   3.039   4.058
 2539SOL    HW210186   1.977   3.083   3.973
 2539SOL    HW310187   2.046   2.985   4.065
 2539SOL    MW410188   1.980   3.038   4.048
 2540SOL     OW10189   2.235   3.417   4.132
 2540SOL    HW210190   2.215   3.345   4.192
 2540SOL    HW310191   2.165   3.481   4.147
 2540SOL    MW410192   2.223   3.416   4.142
 2541SOL     OW10193   2.441   3.556   4.261
 2541SOL    HW210194   2.369   3.512   4.215
 2541SOL    HW310195   2.436   3.646   4.232
 2541SOL    MW410196   2.431   3.562   4.251
 2542SOL     OW10197   2.446   3.832   4.145
 2542SOL    HW210198   2.498   3.912   4.159
 2542SOL    HW310199   2.438   3.825   4.050
 2542SOL    MW410200   2.452   3.842   4.134
 2543SOL     OW10201   2.212   3.978   4.217
 2543SOL    HW210202   2.283   3.929   4.175
 2543SOL    HW310203   2.133   3.949   4.172
 2543SOL    MW410204   2.211   3.967   4.206
 2544SOL     OW10205   2.221   4.240   4.123
 2544SOL    HW210206   2.197   4.155   4.160
 2544SOL    HW310207   2.157   4.301   4.158
 2544SOL    MW410208   2.210   4.237   4.132
 2545SOL     OW10209   2.571   4.590   4.065
 2545SOL    HW210210   2.604   4.500   4.077
 2545SOL    HW310211   2.617   4.641   4.131
 2545SOL    MW410212   2.581   4.585   4.075
 2546SOL     OW10213   2.910   4.658   4.079
 2546SOL    HW210214   2.980   4.700   4.130
 2546SOL    HW310215   2.910   4.567   4.110
 2546SOL    MW410216   2.919   4.652   4.090
 2547SOL     OW10217   2.711   0.089   4.217
 2547SOL    HW210218   2.689   0.170   4.171
 2547SOL    HW310219   2.783   0.051   4.166
 2547SOL    MW410220   2.717   0.094   4.204
 2548SOL     OW10221   2.628   0.364   4.097
 2548SOL    HW210222   2.642   0.389   4.006
 2548SOL    HW310223   2.694   0.412   4.146
 2548SOL    MW410224   2.639   0.374   4.092
 2549SOL     OW10225   3.261   0.765   4.105
 2549SOL    HW210226   3.290   0.764   4.196
 2549SOL    HW310227   3.166   0.776   4.110
 2549SOL    MW410228   3.252   0.767   4.117
 2550SOL     OW10229   2.974   0.841   4.069
 2550SOL    HW210230   2.990   0.933   4.089
 2550SOL    HW310231   2.955   0.840   3.975
 2550SOL    MW410232   2.973   0.853   4.060
 2551SOL     OW10233   2.605   0.945   4.243
 2551SOL    HW210234   2.676   0.881   4.249
 2551SOL    HW310235   2.533   0.896   4.203
 2551SOL    MW410236   2.605   0.930   4.239
 2552SOL     OW10237   2.665   1.183   4.097
 2552SOL    HW210238   2.642   1.100   4.138
 2552SOL    HW310239   2.663   1.165   4.003
 2552SOL    MW410240   2.662   1.170   4.090
 2553SOL     OW10241   2.905   1.301   4.246
 2553SOL    HW210242   2.965   1.242   4.201
 2553SOL    HW310243   2.818   1.263   4.234
 2553SOL    MW410244   2.902   1.289   4.238
 2554SOL     OW10245   2.889   1.566   4.136
 2554SOL    HW210246   2.964   1.615   4.168
 2554SOL    HW310247   2.896   1.480   4.177
 2554SOL    MW410248   2.900   1.561   4.145
 2555SOL     OW10249   2.666   1.711   4.260
 2555SOL    HW210250   2.739   1.655   4.235
 2555SOL    HW310251   2.588   1.666   4.228
 2555SOL    MW410252   2.666   1.698   4.252
 2556SOL     OW10253   2.649   1.974   4.192
 2556SOL    HW210254   2.658   1.881   4.211
 2556SOL    HW310255   2.657   1.981   4.097
 2556SOL    MW410256   2.651   1.963   4.182
 2557SOL     OW10257   2.907   2.102   4.279
 2557SOL    HW210258   2.899   2.195   4.257
 2557SOL    HW310259   2.824   2.064   4.249
 2557SOL    MW410260   2.895   2.109   4.272
 2558SOL     OW10261   2.915   2.389   4.247
 2558SOL    HW210262   2.989   2.450   4.253
 2558SOL    HW310263   2.842   2.437   4.287
 2558SOL    MW410264   2.915   2.404   4.253
 2559SOL     OW10265   2.733   3.230   4.406
 2559SOL    HW210266   2.723   3.306   4.462
 2559SOL    HW310267   2.664   3.170   4.434
 2559SOL    MW410268   2.722   3.232   4.417
 2560SOL     OW10269   2.426   3.051   4.137
 2560SOL    HW210270   2.461   2.985   4.197
 2560SOL    HW310271   2.384   3.115   4.195
 2560SOL    MW410272   2.425   3.051   4.153
 2561SOL     OW10273   2.979   3.002   4.154
 2561SOL    HW210274   2.972   3.078   4.212
 2561SOL    HW310275   2.933   3.029   4.074
 2561SOL    MW410276   2.972   3.016   4.151
 2562SOL     OW10277   3.039   3.179   4.409
 2562SOL    HW210278   3.022   3.100   4.461
 2562SOL    HW310279   2.953   3.221   4.401
 2562SOL    MW410280   3.025   3.174   4.415
 2563SOL     OW10281   2.655   3.217   4.128
 2563SOL    HW210282   2.690   3.216   4.217
 2563SOL    HW310283   2.571   3.171   4.135
 2563SOL    MW410284   2.648   3.211   4.140
 2564SOL     OW10285   2.682   3.485   4.140
 2564SOL    HW210286   2.675   3.390   4.137
 2564SOL    HW310287   2.610   3.513   4.196
 2564SOL    MW410288   2.672   3.476   4.147
 2565SOL     OW10289   2.908   3.643   4.212
 2565SOL    HW210290   2.919   3.625   4.306
 2565SOL    HW310291   2.827   3.598   4.188
 2565SOL    MW410292   2.899   3.635   4.222
 2566SOL     OW10293   2.869   3.919   4.114
 2566SOL    HW210294   2.945   3.963   4.153
 2566SOL    HW310295   2.877   3.828   4.144
 2566SOL    MW410296   2.880   3.913   4.123
 2567SOL     OW10297   2.647   4.057   4.203
 2567SOL    HW210298   2.652   4.150   4.180
 2567SOL    HW310299   2.724   4.017   4.161
 2567SOL    MW410300   2.658   4.064   4.195
 2568SOL     OW10301   2.647   4.328   4.106
 2568SOL    HW210302   2.740   4.349   4.118
 2568SOL    HW310303   2.639   4.303   4.014
 2568SOL    MW410304   2.659   4.328   4.096
 2569SOL     OW10305   2.905   4.411   4.202
 2569SOL    HW210306   2.922   4.423   4.295
 2569SOL    HW310307   2.973   4.351   4.172
 2569SOL    MW410308   2.916   4.404   4.210
 2570SOL     OW10309   3.343   0.013   4.120
 2570SOL    HW210310   3.416   0.055   4.165
 2570SOL    HW310311   3.357  -0.081   4.134
 2570SOL    MW410312   3.354   0.006   4.128
 2571SOL     OW10313   3.103   0.119   4.206
 2571SOL    HW210314   3.115   0.113   4.300
 2571SOL    HW310315   3.183   0.081   4.169
 2571SOL    MW410316   3.115   0.113   4.213
 2572SOL     OW10317   3.116   0.399   4.130
 2572SOL    HW210318   3.194   0.433   4.174
 2572SOL    HW310319   3.101   0.313   4.171
 2572SOL    MW410320   3.124   0.392   4.141
 2573SOL     OW10321   3.372   0.463   4.277
 2573SOL    HW210322   3.449   0.431   4.230
 2573SOL    HW310323   3.397   0.552   4.305
 2573SOL    MW410324   3.385   0.471   4.275
 2574SOL     OW10325   3.407   0.740   4.342
 2574SOL    HW210326   3.435   0.831   4.335
 2574SOL    HW310327   3.333   0.742   4.403
 2574SOL    MW410328   3.401   0.752   4.349
 2575SOL     OW10329   3.184   1.097   4.643
 2575SOL    HW210330   3.207   1.171   4.699
 2575SOL    HW310331   3.090   1.085   4.656
 2575SOL    MW410332   3.175   1.105   4.652
 2576SOL     OW10333   3.061   1.093   4.123
 2576SOL    HW210334   3.124   1.100   4.195
 2576SOL    HW310335   3.107   1.130   4.048
 2576SOL    MW410336   3.075   1.099   4.123
 2577SOL     OW10337   3.480   1.009   4.346
 2577SOL    HW210338   3.518   1.005   4.434
 2577SOL    HW310339   3.394   1.050   4.359
 2577SOL    MW410340   3.474   1.014   4.360
 2578SOL     OW10341   3.312   1.411   4.381
 2578SOL    HW210342   3.339   1.453   4.299
 2578SOL    HW310343   3.387   1.419   4.438
 2578SOL    MW410344   3.325   1.418   4.378
 2579SOL     OW10345   3.119   1.717   4.190
 2579SOL    HW210346   3.146   1.714   4.282
 2579SOL    HW310347   3.118   1.810   4.168
 2579SOL    MW410348   3.122   1.729   4.199
 2580SOL     OW10349   3.124   1.996   4.119
 2580SOL    HW210350   3.193   2.033   4.175
 2580SOL    HW310351   3.042   2.024   4.160
 2580SOL    MW410352   3.123   2.005   4.132
 2581SOL     OW10353   3.322   2.119   4.278
 2581SOL    HW210354   3.390   2.062   4.243
 2581SOL    HW310355   3.327   2.198   4.225
 2581SOL    MW410356   3.331   2.122   4.266
 2582SOL     OW10357   3.341   2.370   4.139
 2582SOL    HW210358   3.430   2.390   4.169
 2582SOL    HW310359   3.340   2.395   4.047
 2582SOL    MW410360   3.353   2.376   4.131
 2583SOL     OW10361   3.151   2.548   4.267
 2583SOL    HW210362   3.142   2.630   4.218
 2583SOL    HW310363   3.225   2.503   4.225
 2583SOL    MW410364   3.160   2.553   4.255
 2584SOL     OW10365   3.164   2.788   4.125
 2584SOL    HW210366   3.247   2.818   4.159
 2584SOL    HW310367   3.104   2.862   4.137
 2584SOL    MW410368   3.167   2.802   4.131
 2585SOL     OW10369   3.384   2.882   4.257
 2585SOL    HW210370   3.410   2.973   4.243
 2585SOL    HW310371   3.459   2.831   4.227
 2585SOL    MW410372   3.397   2.887   4.251
 2586SOL     OW10373   3.422   3.127   4.117
 2586SOL    HW210374   3.353   3.181   4.156
 2586SOL    HW310375   3.387   3.103   4.031
 2586SOL    MW410376   3.408   3.131   4.111
 2587SOL     OW10377   3.239   3.295   4.247
 2587SOL    HW210378   3.188   3.354   4.192
 2587SOL    HW310379   3.176   3.256   4.307
 2587SOL    MW410380   3.224   3.297   4.248
 2588SOL     OW10381   3.119   3.498   4.113
 2588SOL    HW210382   3.039   3.538   4.145
 2588SOL    HW310383   3.107   3.492   4.018
 2588SOL    MW410384   3.107   3.502   4.105
 2589SOL     OW10385   3.355   3.636   4.191
 2589SOL    HW210386   3.370   3.589   4.272
 2589SOL    HW310387   3.268   3.608   4.162
 2589SOL    MW410388   3.345   3.626   4.198
 2590SOL     OW10389   3.348   3.898   4.149
 2590SOL    HW210390   3.350   3.807   4.179
 2590SOL    HW310391   3.361   3.892   4.055
 2590SOL    MW410392   3.350   3.885   4.141
 2591SOL     OW10393   3.107   4.017   4.227
 2591SOL    HW210394   3.106   4.023   4.323
 2591SOL    HW310395   3.189   3.973   4.206
 2591SOL    MW410396   3.117   4.012   4.237
 2592SOL     OW10397   3.136   4.274   4.106
 2592SOL    HW210398   3.216   4.316   4.137
 2592SOL    HW310399   3.144   4.183   4.132
 2592SOL    MW410400   3.147   4.268   4.113
 2593SOL     OW10401   3.368   4.394   4.183
 2593SOL    HW210402   3.357   4.406   4.278
 2593SOL    HW310403   3.444   4.337   4.174
 2593SOL    MW410404   3.376   4.388   4.194
 2594SOL     OW10405   3.810   4.667   4.175
 2594SOL    HW210406   3.882   4.724   4.201
 2594SOL    HW310407   3.805   4.675   4.080
 2594SOL    MW410408   3.819   4.676   4.166
 2595SOL     OW10409   3.572   0.095   4.261
 2595SOL    HW210410   3.589   0.186   4.238
 2595SOL    HW310411   3.650   0.048   4.233
 2595SOL    MW410412   3.584   0.101   4.254
 2596SOL     OW10413   3.613   0.364   4.175
 2596SOL    HW210414   3.703   0.373   4.209
 2596SOL    HW310415   3.621   0.380   4.081
 2596SOL    MW410416   3.626   0.367   4.167
 2597SOL     OW10417   3.829   0.452   4.311
 2597SOL    HW210418   3.883   0.433   4.389
 2597SOL    HW310419   3.786   0.535   4.332
 2597SOL    MW410420   3.831   0.460   4.324
 2598SOL     OW10421   3.823   0.859   4.162
 2598SOL    HW210422   3.769   0.938   4.152
 2598SOL    HW310423   3.836   0.828   4.073
 2598SOL    MW410424   3.817   0.865   4.149
 2599SOL     OW10425   3.716   0.685   4.364
 2599SOL    HW210426   3.621   0.684   4.360
 2599SOL    HW310427   3.743   0.741   4.291
 2599SOL    MW410428   3.707   0.692   4.354
 2600SOL     OW10429   3.674   1.093   4.153
 2600SOL    HW210430   3.600   1.070   4.209
 2600SOL    HW310431   3.637   1.098   4.065
 2600SOL    MW410432   3.659   1.091   4.149
 2601SOL     OW10433   3.873   1.267   4.229
 2601SOL    HW210434   3.805   1.213   4.187
 2601SOL    HW310435   3.845   1.275   4.320
 2601SOL    MW410436   3.861   1.261   4.235
 2602SOL     OW10437   3.796   1.531   4.129
 2602SOL    HW210438   3.823   1.448   4.168
 2602SOL    HW310439   3.862   1.595   4.158
 2602SOL    MW410440   3.808   1.529   4.138
 2603SOL     OW10441   3.531   1.979   4.163
 2603SOL    HW210442   3.545   1.957   4.070
 2603SOL    HW310443   3.568   1.905   4.211
 2603SOL    MW410444   3.538   1.966   4.157
 2604SOL     OW10445   3.359   1.564   4.149
 2604SOL    HW210446   3.384   1.540   4.059
 2604SOL    HW310447   3.292   1.631   4.138
 2604SOL    MW410448   3.353   1.569   4.135
 2605SOL     OW10449   3.774   2.086   4.226
 2605SOL    HW210450   3.783   2.108   4.318
 2605SOL    HW310451   3.684   2.056   4.216
 2605SOL    MW410452   3.763   2.085   4.237
 2606SOL     OW10453   3.829   2.362   4.168
 2606SOL    HW210454   3.818   2.267   4.176
 2606SOL    HW310455   3.822   2.380   4.075
 2606SOL    MW410456   3.827   2.352   4.157
 2607SOL     OW10457   3.596   2.477   4.260
 2607SOL    HW210458   3.602   2.468   4.356
 2607SOL    HW310459   3.681   2.447   4.228
 2607SOL    MW410460   3.608   2.472   4.269
 2608SOL     OW10461   3.584   2.744   4.123
 2608SOL    HW210462   3.572   2.654   4.153
 2608SOL    HW310463   3.584   2.739   4.028
 2608SOL    MW410464   3.582   2.732   4.115
 2609SOL     OW10465   3.822   2.868   4.210
 2609SOL    HW210466   3.840   2.870   4.304
 2609SOL    HW310467   3.732   2.836   4.204
 2609SOL    MW410468   3.812   2.864   4.222
 2610SOL     OW10469   3.831   3.120   4.098
 2610SOL    HW210470   3.829   3.030   4.130
 2610SOL    HW310471   3.821   3.111   4.003
 2610SOL    MW410472   3.829   3.107   4.089
 2611SOL     OW10473   3.636   3.242   4.247
 2611SOL    HW210474   3.711   3.204   4.201
 2611SOL    HW310475   3.560   3.196   4.211
 2611SOL    MW410476   3.636   3.231   4.236
 2612SOL     OW10477   3.589   3.483   4.111
 2612SOL    HW210478   3.605   3.395   4.147
 2612SOL    HW310479   3.497   3.499   4.128
 2612SOL    MW410480   3.579   3.473   4.118
 2613SOL     OW10481   3.819   3.596   4.245
 2613SOL    HW210482   3.874   3.550   4.182
 2613SOL    HW310483   3.730   3.585   4.211
 2613SOL    MW410484   3.814   3.588   4.233
 2614SOL     OW10485   3.837   3.861   4.133
 2614SOL    HW210486   3.747   3.894   4.143
 2614SOL    HW310487   3.833   3.771   4.163
 2614SOL    MW410488   3.825   3.854   4.138
 2615SOL     OW10489   3.602   3.986   4.214
 2615SOL    HW210490   3.615   3.963   4.307
 2615SOL    HW310491   3.517   3.948   4.192
 2615SOL    MW410492   3.592   3.978   4.224
 2616SOL     OW10493   3.619   4.252   4.137
 2616SOL    HW210494   3.696   4.293   4.175
 2616SOL    HW310495   3.617   4.164   4.175
 2616SOL    MW410496   3.629   4.246   4.147
 2617SOL     OW10497   3.853   4.398   4.263
 2617SOL    HW210498   3.917   4.367   4.199
 2617SOL    HW310499   3.858   4.494   4.256
 2617SOL    MW410500   3.862   4.407   4.254
 2618SOL     OW10501   4.258   0.021   4.160
 2618SOL    HW210502   4.271  -0.066   4.199
 2618SOL    HW310503   4.333   0.072   4.191
 2618SOL    MW410504   4.270   0.016   4.169
 2619SOL     OW10505   4.034   0.131   4.290
 2619SOL    HW210506   4.027   0.215   4.245
 2619SOL    HW310507   4.118   0.095   4.260
 2619SOL    MW410508   4.045   0.137   4.280
 2620SOL     OW10509   4.035   0.386   4.125
 2620SOL    HW210510   4.107   0.444   4.150
 2620SOL    HW310511   3.963   0.411   4.182
 2620SOL    MW410512   4.035   0.397   4.136
 2621SOL     OW10513   4.260   0.530   4.173
 2621SOL    HW210514   4.277   0.622   4.154
 2621SOL    HW310515   4.346   0.488   4.168
 2621SOL    MW410516   4.274   0.536   4.170
 2622SOL     OW10517   4.297   0.800   4.137
 2622SOL    HW210518   4.208   0.808   4.171
 2622SOL    HW310519   4.289   0.820   4.044
 2622SOL    MW410520   4.284   0.804   4.129
 2623SOL     OW10521   4.073   0.892   4.274
 2623SOL    HW210522   4.086   0.978   4.236
 2623SOL    HW310523   3.988   0.863   4.241
 2623SOL    MW410524   4.063   0.899   4.265
 2624SOL     OW10525   4.097   1.149   4.139
 2624SOL    HW210526   4.167   1.198   4.182
 2624SOL    HW310527   4.016   1.188   4.172
 2624SOL    MW410528   4.095   1.161   4.149
 2625SOL     OW10529   4.313   1.321   4.237
 2625SOL    HW210530   4.299   1.340   4.330
 2625SOL    HW310531   4.385   1.258   4.236
 2625SOL    MW410532   4.321   1.315   4.249
 2626SOL     OW10533   4.230   1.577   4.143
 2626SOL    HW210534   4.226   1.487   4.176
 2626SOL    HW310535   4.247   1.567   4.049
 2626SOL    MW410536   4.232   1.564   4.135
 2627SOL     OW10537   4.084   1.800   4.658
 2627SOL    HW210538   4.002   1.788   4.609
 2627SOL    HW310539   4.147   1.746   4.611
 2627SOL    MW410540   4.081   1.791   4.645
 2628SOL     OW10541   4.010   1.970   4.151
 2628SOL    HW210542   4.010   1.878   4.179
 2628SOL    HW310543   3.923   2.002   4.176
 2628SOL    MW410544   3.998   1.962   4.158
 2629SOL     OW10545   4.437   1.952   4.127
 2629SOL    HW210546   4.520   1.989   4.156
 2629SOL    HW310547   4.371   2.012   4.161
 2629SOL    MW410548   4.439   1.965   4.135
 2630SOL     OW10549   4.270   2.370   4.126
 2630SOL    HW210550   4.201   2.428   4.161
 2630SOL    HW310551   4.262   2.290   4.178
 2630SOL    MW410552   4.260   2.367   4.138
 2631SOL     OW10553   4.056   2.498   4.259
 2631SOL    HW210554   4.053   2.503   4.354
 2631SOL    HW310555   3.990   2.432   4.236
 2631SOL    MW410556   4.047   2.490   4.268
 2632SOL     OW10557   4.049   2.736   4.111
 2632SOL    HW210558   4.065   2.657   4.161
 2632SOL    HW310559   3.959   2.761   4.133
 2632SOL    MW410560   4.039   2.729   4.120
 2633SOL     OW10561   4.260   2.871   4.244
 2633SOL    HW210562   4.184   2.834   4.198
 2633SOL    HW310563   4.336   2.839   4.195
 2633SOL    MW410564   4.260   2.862   4.231
 2634SOL     OW10565   4.260   3.135   4.180
 2634SOL    HW210566   4.270   3.044   4.206
 2634SOL    HW310567   4.259   3.132   4.084
 2634SOL    MW410568   4.261   3.123   4.171
 2635SOL     OW10569   4.030   3.262   4.246
 2635SOL    HW210570   4.104   3.204   4.234
 2635SOL    HW310571   3.956   3.215   4.207
 2635SOL    MW410572   4.030   3.248   4.239
 2636SOL     OW10573   4.055   3.515   4.141
 2636SOL    HW210574   4.047   3.426   4.174
 2636SOL    HW310575   4.039   3.508   4.047
 2636SOL    MW410576   4.051   3.503   4.133
 2637SOL     OW10577   4.302   3.626   4.232
 2637SOL    HW210578   4.295   3.721   4.225
 2637SOL    HW310579   4.214   3.594   4.212
 2637SOL    MW410580   4.290   3.635   4.228
 2638SOL     OW10581   4.290   3.918   4.171
 2638SOL    HW210582   4.209   3.958   4.204
 2638SOL    HW310583   4.283   3.923   4.076
 2638SOL    MW410584   4.279   3.924   4.163
 2639SOL     OW10585   4.047   3.997   4.271
 2639SOL    HW210586   4.067   3.932   4.339
 2639SOL    HW310587   3.971   3.960   4.225
 2639SOL    MW410588   4.039   3.983   4.274
 2640SOL     OW10589   4.076   4.271   4.122
 2640SOL    HW210590   4.152   4.315   4.158
 2640SOL    HW310591   4.080   4.182   4.158
 2640SOL    MW410592   4.086   4.265   4.131
 2641SOL     OW10593   0.008   4.288   4.559
 2641SOL    HW210594   0.044   4.235   4.488
 2641SOL    HW310595  -0.024   4.224   4.623
 2641SOL    MW410596   0.009   4.272   4.558
 2642SOL     OW10597   4.071   4.190   4.506
 2642SOL    HW210598   4.047   4.128   4.437
 2642SOL    HW310599   3.988   4.229   4.533
 2642SOL    MW410600   4.057   4.187   4.501
 2643SOL     OW10601   4.279   0.006   4.567
 2643SOL    HW210602   4.193   0.048   4.573
 2643SOL    HW310603   4.260  -0.088   4.568
 2643SOL    MW410604   4.265  -0.001   4.568
 2644SOL     OW10605   4.005   0.125   4.566
 2644SOL    HW210606   3.939   0.066   4.601
 2644SOL    HW310607   3.990   0.124   4.471
 2644SOL    MW410608   3.994   0.117   4.558
 2645SOL     OW10609   3.882   1.659   4.493
 2645SOL    HW210610   3.787   1.664   4.486
 2645SOL    HW310611   3.899   1.568   4.519
 2645SOL    MW410612   3.872   1.648   4.495
 2646SOL     OW10613   0.604   0.119   4.455
 2646SOL    HW210614   0.549   0.050   4.493
 2646SOL    HW310615   0.692   0.083   4.456
 2646SOL    MW410616   0.608   0.106   4.461
 2647SOL     OW10617   0.353   0.761   4.596
 2647SOL    HW210618   0.445   0.744   4.618
 2647SOL    HW310619   0.322   0.678   4.560
 2647SOL    MW410620   0.361   0.748   4.594
 2648SOL     OW10621   4.313   0.791   4.633
 2648SOL    HW210622   4.302   0.719   4.571
 2648SOL    HW310623   4.401   0.825   4.615
 2648SOL    MW410624   4.323   0.786   4.622
 2649SOL     OW10625   0.706   1.423   4.476
 2649SOL    HW210626   0.753   1.506   4.464
 2649SOL    HW310627   0.636   1.444   4.537
 2649SOL    MW410628   0.703   1.437   4.482
 2650SOL     OW10629   1.141   2.024   4.498
 2650SOL    HW210630   1.226   2.066   4.510
 2650SOL    HW310631   1.077   2.093   4.516
 2650SOL    MW410632   1.144   2.039   4.502
 2651SOL     OW10633   4.112   1.187   4.708
 2651SOL    HW210634   4.156   1.205   4.791
 2651SOL    HW310635   4.135   1.096   4.688
 2651SOL    MW410636   4.121   1.177   4.716
 2652SOL     OW10637   0.035   1.750   4.479
 2652SOL    HW210638   0.040   1.737   4.384
 2652SOL    HW310639   0.064   1.840   4.493
 2652SOL    MW410640   0.040   1.760   4.468
 2653SOL     OW10641   0.419   1.688   4.239
 2653SOL    HW210642   0.345   1.645   4.196
 2653SOL    HW310643   0.495   1.636   4.214
 2653SOL    MW410644   0.419   1.676   4.230
 2654SOL     OW10645   4.301   1.964   4.500
 2654SOL    HW210646   4.352   2.018   4.559
 2654SOL    HW310647   4.311   1.875   4.533
 2654SOL    MW410648   4.309   1.960   4.512
 2655SOL     OW10649   4.208   2.334   4.626
 2655SOL    HW210650   4.155   2.255   4.637
 2655SOL    HW310651   4.145   2.405   4.619
 2655SOL    MW410652   4.193   2.333   4.626
 2656SOL     OW10653   0.602   3.050   4.609
 2656SOL    HW210654   0.632   2.988   4.543
 2656SOL    HW310655   0.680   3.066   4.663
 2656SOL    MW410656   0.616   3.044   4.608
 2657SOL     OW10657   0.370   2.866   4.595
 2657SOL    HW210658   0.291   2.911   4.567
 2657SOL    HW310659   0.431   2.937   4.616
 2657SOL    MW410660   0.368   2.881   4.594
 2658SOL     OW10661   0.093   2.491   4.432
 2658SOL    HW210662   0.067   2.474   4.341
 2658SOL    HW310663   0.049   2.573   4.455
 2658SOL    MW410664   0.084   2.499   4.423
 2659SOL     OW10665   3.628   3.530   4.600
 2659SOL    HW210666   3.682   3.452   4.616
 2659SOL    HW310667   3.563   3.501   4.536
 2659SOL    MW410668   3.627   3.516   4.594
 2660SOL     OW10669   0.567   3.294   4.461
 2660SOL    HW210670   0.479   3.330   4.475
 2660SOL    HW310671   0.571   3.218   4.520
 2660SOL    MW410672   0.556   3.289   4.471
 2661SOL     OW10673   4.087   3.831   4.501
 2661SOL    HW210674   4.003   3.785   4.505
 2661SOL    HW310675   4.099   3.868   4.588
 2661SOL    MW410676   4.078   3.830   4.513
 2662SOL     OW10677   0.021   0.133   4.493
 2662SOL    HW210678  -0.063   0.096   4.521
 2662SOL    HW310679   0.020   0.223   4.526
 2662SOL    MW410680   0.010   0.140   4.501
 2663SOL     OW10681   3.238   0.408   4.533
 2663SOL    HW210682   3.279   0.406   4.447
 2663SOL    HW310683   3.156   0.360   4.521
 2663SOL    MW410684   3.233   0.401   4.520
 2664SOL     OW10685   4.102   4.016   4.718
 2664SOL    HW210686   4.016   4.018   4.761
 2664SOL    HW310687   4.097   4.085   4.652
 2664SOL    MW410688   4.090   4.026   4.715
 2665SOL     OW10689   3.841   3.953   4.832
 2665SOL    HW210690   3.753   3.929   4.804
 2665SOL    HW310691   3.845   3.929   4.925
 2665SOL    MW410692   3.830   3.946   4.841
 2666SOL     OW10693   0.431   4.568   4.466
 2666SOL    HW210694   0.479   4.486   4.471
 2666SOL    HW310695   0.346   4.550   4.505
 2666SOL    MW410696   0.426   4.555   4.472
 2667SOL     OW10697   3.916   0.577   4.780
 2667SOL    HW210698   3.878   0.652   4.732
 2667SOL    HW310699   4.002   0.608   4.808
 2667SOL    MW410700   3.922   0.591   4.777
 2668SOL     OW10701   1.109   0.599   4.474
 2668SOL    HW210702   1.018   0.627   4.467
 2668SOL    HW310703   1.107   0.525   4.535
 2668SOL    MW410704   1.097   0.593   4.481
 2669SOL     OW10705   1.094   0.381   4.684
 2669SOL    HW210706   1.098   0.286   4.687
 2669SOL    HW310707   1.020   0.403   4.741
 2669SOL    MW410708   1.084   0.372   4.692
 2670SOL     OW10709   0.845   0.759   4.474
 2670SOL    HW210710   0.854   0.788   4.383
 2670SOL    HW310711   0.816   0.838   4.520
 2670SOL    MW410712   0.842   0.773   4.468
 2671SOL     OW10713   0.456   0.999   4.482
 2671SOL    HW210714   0.444   0.979   4.389
 2671SOL    HW310715   0.401   0.936   4.527
 2671SOL    MW410716   0.447   0.988   4.475
 2672SOL     OW10717   2.221   1.159   4.545
 2672SOL    HW210718   2.169   1.203   4.477
 2672SOL    HW310719   2.309   1.195   4.535
 2672SOL    MW410720   2.225   1.169   4.534
 2673SOL     OW10721   0.315   1.678   4.507
 2673SOL    HW210722   0.220   1.676   4.492
 2673SOL    HW310723   0.353   1.663   4.421
 2673SOL    MW410724   0.308   1.676   4.494
 2674SOL     OW10725   1.373   1.122   4.579
 2674SOL    HW210726   1.359   1.034   4.544
 2674SOL    HW310727   1.314   1.177   4.528
 2674SOL    MW410728   1.363   1.118   4.567
 2675SOL     OW10729   0.832   1.675   4.475
 2675SOL    HW210730   0.770   1.712   4.537
 2675SOL    HW310731   0.915   1.672   4.523
 2675SOL    MW410732   0.835   1.679   4.490
 2676SOL     OW10733   0.627   2.036   4.513
 2676SOL    HW210734   0.689   2.099   4.548
 2676SOL    HW310735   0.664   1.950   4.536
 2676SOL    MW410736   0.640   2.033   4.520
 2677SOL     OW10737   1.071   1.749   4.578
 2677SOL    HW210738   1.138   1.698   4.534
 2677SOL    HW310739   1.089   1.840   4.554
 2677SOL    MW410740   1.082   1.754   4.569
 2678SOL     OW10741   0.371   2.148   4.531
 2678SOL    HW210742   0.463   2.129   4.511
 2678SOL    HW310743   0.366   2.244   4.532
 2678SOL    MW410744   0.383   2.158   4.528
 2679SOL     OW10745   1.052   2.652   4.486
 2679SOL    HW210746   1.041   2.728   4.543
 2679SOL    HW310747   0.964   2.614   4.480
 2679SOL    MW410748   1.039   2.657   4.492
 2680SOL     OW10749   0.794   2.497   4.501
 2680SOL    HW210750   0.711   2.539   4.522
 2680SOL    HW310751   0.799   2.498   4.406
 2680SOL    MW410752   0.783   2.502   4.492
 2681SOL     OW10753   0.988   3.132   4.424
 2681SOL    HW210754   1.081   3.154   4.420
 2681SOL    HW310755   0.950   3.203   4.477
 2681SOL    MW410756   0.995   3.144   4.431
 2682SOL     OW10757   0.923   3.352   4.615
 2682SOL    HW210758   0.863   3.413   4.574
 2682SOL    HW310759   1.004   3.402   4.627
 2682SOL    MW410760   0.926   3.367   4.611
 2683SOL     OW10761   1.225   4.491   4.482
 2683SOL    HW210762   1.257   4.578   4.505
 2683SOL    HW310763   1.299   4.433   4.495
 2683SOL    MW410764   1.239   4.495   4.487
 2684SOL     OW10765   0.344   2.414   4.500
 2684SOL    HW210766   0.379   2.414   4.411
 2684SOL    HW310767   0.250   2.432   4.489
 2684SOL    MW410768   0.336   2.417   4.487
 2685SOL     OW10769   0.051   3.263   4.510
 2685SOL    HW210770  -0.031   3.285   4.556
 2685SOL    HW310771   0.032   3.282   4.418
 2685SOL    MW410772   0.037   3.268   4.504
 2686SOL     OW10773   1.537   3.645   4.510
 2686SOL    HW210774   1.565   3.567   4.557
 2686SOL    HW310775   1.608   3.708   4.523
 2686SOL    MW410776   1.550   3.643   4.518
 2687SOL     OW10777   4.410   4.033   4.662
 2687SOL    HW210778   4.320   4.003   4.674
 2687SOL    HW310779   4.448   3.969   4.602
 2687SOL    MW410780   4.403   4.021   4.656
 2688SOL     OW10781   0.263   3.920   4.128
 2688SOL    HW210782   0.249   3.831   4.159
 2688SOL    HW310783   0.189   3.970   4.162
 2688SOL    MW410784   0.251   3.915   4.136
 2689SOL     OW10785   0.126   4.541   4.497
 2689SOL    HW210786   0.073   4.486   4.554
 2689SOL    HW310787   0.080   4.625   4.496
 2689SOL    MW410788   0.113   4.545   4.505
 2690SOL     OW10789   0.533   0.401   4.513
 2690SOL    HW210790   0.568   0.437   4.431
 2690SOL    HW310791   0.543   0.306   4.503
 2690SOL    MW410792   0.539   0.393   4.501
 2691SOL     OW10793   0.639   4.003   4.514
 2691SOL    HW210794   0.601   4.052   4.441
 2691SOL    HW310795   0.583   4.025   4.589
 2691SOL    MW410796   0.626   4.013   4.514
 2692SOL     OW10797   0.739   0.779   4.820
 2692SOL    HW210798   0.783   0.703   4.858
 2692SOL    HW310799   0.673   0.742   4.761
 2692SOL    MW410800   0.736   0.764   4.818
 2693SOL     OW10801   1.295   0.823   4.492
 2693SOL    HW210802   1.280   0.868   4.409
 2693SOL    HW310803   1.231   0.751   4.491
 2693SOL    MW410804   1.285   0.819   4.481
 2694SOL     OW10805   1.818   1.171   4.499
 2694SOL    HW210806   1.841   1.079   4.508
 2694SOL    HW310807   1.862   1.199   4.419
 2694SOL    MW410808   1.827   1.163   4.490
 2695SOL     OW10809   0.343   1.263   4.518
 2695SOL    HW210810   0.395   1.183   4.514
 2695SOL    HW310811   0.392   1.320   4.578
 2695SOL    MW410812   0.356   1.260   4.525
 2696SOL     OW10813   0.904   1.913   4.793
 2696SOL    HW210814   0.938   2.002   4.795
 2696SOL    HW310815   0.979   1.859   4.767
 2696SOL    MW410816   0.918   1.917   4.789
 2697SOL     OW10817   0.938   1.209   4.539
 2697SOL    HW210818   0.874   1.280   4.536
 2697SOL    HW310819   0.893   1.137   4.582
 2697SOL    MW410820   0.924   1.209   4.544
 2698SOL     OW10821   2.001   1.343   4.635
 2698SOL    HW210822   1.923   1.294   4.610
 2698SOL    HW310823   2.066   1.277   4.657
 2698SOL    MW410824   1.999   1.328   4.635
 2699SOL     OW10825   1.194   1.279   4.435
 2699SOL    HW210826   1.110   1.255   4.475
 2699SOL    HW310827   1.209   1.369   4.462
 2699SOL    MW410828   1.185   1.288   4.444
 2700SOL     OW10829   0.998   2.188   4.830
 2700SOL    HW210830   0.998   2.224   4.919
 2700SOL    HW310831   1.090   2.193   4.802
 2700SOL    MW410832   1.010   2.193   4.838
 2701SOL     OW10833   1.588   2.516   4.727
 2701SOL    HW210834   1.652   2.564   4.779
 2701SOL    HW310835   1.528   2.583   4.695
 2701SOL    MW410836   1.589   2.531   4.729
 2702SOL     OW10837   1.473   3.089   4.550
 2702SOL    HW210838   1.509   3.174   4.574
 2702SOL    HW310839   1.542   3.048   4.498
 2702SOL    MW410840   1.487   3.095   4.546
 2703SOL     OW10841   1.633   3.336   4.555
 2703SOL    HW210842   1.690   3.277   4.604
 2703SOL    HW310843   1.659   3.325   4.464
 2703SOL    MW410844   1.644   3.327   4.549
 2704SOL     OW10845   0.715   2.829   4.497
 2704SOL    HW210846   0.789   2.810   4.554
 2704SOL    HW310847   0.644   2.774   4.530
 2704SOL    MW410848   0.716   2.819   4.509
 2705SOL     OW10849   0.596   4.333   4.467
 2705SOL    HW210850   0.672   4.313   4.521
 2705SOL    HW310851   0.631   4.344   4.379
 2705SOL    MW410852   0.610   4.332   4.463
 2706SOL     OW10853   1.255   2.905   4.548
 2706SOL    HW210854   1.257   2.891   4.453
 2706SOL    HW310855   1.310   2.982   4.562
 2706SOL    MW410856   1.263   2.913   4.537
 2707SOL     OW10857   0.984   2.896   4.601
 2707SOL    HW210858   0.956   2.969   4.546
 2707SOL    HW310859   1.078   2.889   4.587
 2707SOL    MW410860   0.993   2.905   4.592
 2708SOL     OW10861   1.993   3.665   4.455
 2708SOL    HW210862   2.022   3.651   4.365
 2708SOL    HW310863   1.964   3.579   4.484
 2708SOL    MW410864   1.993   3.652   4.447
 2709SOL     OW10865   0.596   3.732   4.448
 2709SOL    HW210866   0.623   3.724   4.356
 2709SOL    HW310867   0.617   3.822   4.472
 2709SOL    MW410868   0.602   3.743   4.439
 2710SOL     OW10869   0.305   3.404   4.481
 2710SOL    HW210870   0.284   3.489   4.520
 2710SOL    HW310871   0.243   3.344   4.523
 2710SOL    MW410872   0.294   3.407   4.492
 2711SOL     OW10873   0.860   0.008   4.441
 2711SOL    HW210874   0.880   0.043   4.354
 2711SOL    HW310875   0.887  -0.084   4.435
 2711SOL    MW410876   0.866   0.000   4.428
 2712SOL     OW10877   0.860   4.192   4.134
 2712SOL    HW210878   0.937   4.235   4.170
 2712SOL    HW310879   0.787   4.248   4.159
 2712SOL    MW410880   0.861   4.205   4.142
 2713SOL     OW10881   2.119   3.905   4.510
 2713SOL    HW210882   2.142   3.906   4.417
 2713SOL    HW310883   2.072   3.822   4.522
 2713SOL    MW410884   2.116   3.894   4.499
 2714SOL     OW10885   1.425   4.308   4.492
 2714SOL    HW210886   1.461   4.312   4.403
 2714SOL    HW310887   1.389   4.220   4.499
 2714SOL    MW410888   1.425   4.297   4.481
 2715SOL     OW10889   1.307   4.038   4.455
 2715SOL    HW210890   1.354   3.961   4.486
 2715SOL    HW310891   1.216   4.022   4.479
 2715SOL    MW410892   1.301   4.026   4.462
 2716SOL     OW10893   0.612   0.652   4.616
 2716SOL    HW210894   0.681   0.683   4.557
 2716SOL    HW310895   0.592   0.563   4.584
 2716SOL    MW410896   0.619   0.644   4.604
 2717SOL     OW10897   1.570   4.581   4.554
 2717SOL    HW210898   1.576   4.491   4.523
 2717SOL    HW310899   1.649   4.624   4.520
 2717SOL    MW410900   1.581   4.575   4.545
 2718SOL     OW10901   1.363   0.356   4.583
 2718SOL    HW210902   1.269   0.359   4.604
 2718SOL    HW310903   1.386   0.447   4.565
 2718SOL    MW410904   1.354   0.369   4.584
 2719SOL     OW10905   1.817   1.741   4.531
 2719SOL    HW210906   1.898   1.699   4.556
 2719SOL    HW310907   1.812   1.729   4.436
 2719SOL    MW410908   1.827   1.734   4.521
 2720SOL     OW10909   0.769   0.981   4.619
 2720SOL    HW210910   0.681   1.012   4.598
 2720SOL    HW310911   0.759   0.933   4.701
 2720SOL    MW410912   0.756   0.979   4.627
 2721SOL     OW10913   1.617   0.336   4.443
 2721SOL    HW210914   1.539   0.325   4.498
 2721SOL    HW310915   1.589   0.394   4.373
 2721SOL    MW410916   1.603   0.342   4.441
 2722SOL     OW10917   1.570   1.309   4.525
 2722SOL    HW210918   1.506   1.253   4.568
 2722SOL    HW310919   1.647   1.253   4.513
 2722SOL    MW410920   1.572   1.295   4.529
 2723SOL     OW10921   1.261   1.557   4.462
 2723SOL    HW210922   1.349   1.572   4.496
 2723SOL    HW310923   1.266   1.582   4.370
 2723SOL    MW410924   1.273   1.562   4.454
 2724SOL     OW10925   1.438   2.694   4.585
 2724SOL    HW210926   1.390   2.776   4.597
 2724SOL    HW310927   1.371   2.626   4.582
 2724SOL    MW410928   1.423   2.696   4.586
 2725SOL     OW10929   2.301   2.586   4.126
 2725SOL    HW210930   2.252   2.506   4.108
 2725SOL    HW310931   2.264   2.618   4.208
 2725SOL    MW410932   2.289   2.580   4.134
 2726SOL     OW10933   0.836   2.230   4.568
 2726SOL    HW210934   0.869   2.239   4.657
 2726SOL    HW310935   0.834   2.320   4.534
 2726SOL    MW410936   0.840   2.243   4.575
 2727SOL     OW10937   1.054   3.981   4.534
 2727SOL    HW210938   1.008   3.932   4.466
 2727SOL    HW310939   1.095   3.914   4.589
 2727SOL    MW410940   1.054   3.966   4.532
 2728SOL     OW10941   1.340   2.480   4.284
 2728SOL    HW210942   1.331   2.561   4.233
 2728SOL    HW310943   1.405   2.429   4.237
 2728SOL    MW410944   1.348   2.484   4.271
 2729SOL     OW10945   1.263   2.471   4.575
 2729SOL    HW210946   1.188   2.521   4.545
 2729SOL    HW310947   1.310   2.448   4.494
 2729SOL    MW410948   1.260   2.474   4.560
 2730SOL     OW10949   1.245   3.235   4.426
 2730SOL    HW210950   1.329   3.195   4.447
 2730SOL    HW310951   1.254   3.264   4.335
 2730SOL    MW410952   1.257   3.233   4.417
 2731SOL     OW10953   0.846   3.114   4.745
 2731SOL    HW210954   0.905   3.043   4.719
 2731SOL    HW310955   0.889   3.194   4.714
 2731SOL    MW410956   0.860   3.115   4.737
 2732SOL     OW10957   0.748   3.502   4.473
 2732SOL    HW210958   0.684   3.430   4.467
 2732SOL    HW310959   0.697   3.576   4.507
 2732SOL    MW410960   0.733   3.502   4.477
 2733SOL     OW10961   2.345   3.314   4.545
 2733SOL    HW210962   2.398   3.237   4.527
 2733SOL    HW310963   2.273   3.282   4.600
 2733SOL    MW410964   2.343   3.300   4.550
 2734SOL     OW10965   1.946   3.382   4.483
 2734SOL    HW210966   1.897   3.322   4.538
 2734SOL    HW310967   1.997   3.326   4.425
 2734SOL    MW410968   1.946   3.367   4.483
 2735SOL     OW10969   2.501   3.098   4.498
 2735SOL    HW210970   2.434   3.030   4.484
 2735SOL    HW310971   2.533   3.081   4.586
 2735SOL    MW410972   2.496   3.087   4.508
 2736SOL     OW10973   1.170   3.481   4.545
 2736SOL    HW210974   1.120   3.506   4.467
 2736SOL    HW310975   1.215   3.401   4.520
 2736SOL    MW410976   1.170   3.474   4.531
 2737SOL     OW10977   1.860   4.042   4.506
 2737SOL    HW210978   1.841   4.032   4.413
 2737SOL    HW310979   1.951   4.016   4.515
 2737SOL    MW410980   1.869   4.037   4.495
 2738SOL     OW10981   1.857   0.437   4.528
 2738SOL    HW210982   1.786   0.376   4.507
 2738SOL    HW310983   1.914   0.389   4.587
 2738SOL    MW410984   1.855   0.423   4.533
 2739SOL     OW10985   1.039   0.088   4.648
 2739SOL    HW210986   1.105   0.019   4.655
 2739SOL    HW310987   0.989   0.066   4.570
 2739SOL    MW410988   1.041   0.076   4.638
 2740SOL     OW10989   1.349   0.068   4.572
 2740SOL    HW210990   1.421   0.010   4.599
 2740SOL    HW310991   1.366   0.150   4.618
 2740SOL    MW410992   1.361   0.071   4.582
 2741SOL     OW10993   2.187   4.344   4.546
 2741SOL    HW210994   2.143   4.279   4.600
 2741SOL    HW310995   2.266   4.367   4.595
 2741SOL    MW410996   2.191   4.338   4.559
 2742SOL     OW10997   1.852   0.871   4.492
 2742SOL    HW210998   1.801   0.816   4.551
 2742SOL    HW310999   1.818   0.851   4.405
 2742SOL    MW411000   1.840   0.861   4.488
 2743SOL     OW11001   1.468   0.606   4.523
 2743SOL    HW211002   1.420   0.688   4.509
 2743SOL    HW311003   1.555   0.633   4.552
 2743SOL    MW411004   1.473   0.620   4.525
 2744SOL     OW11005   2.329   1.811   4.559
 2744SOL    HW211006   2.295   1.896   4.588
 2744SOL    HW311007   2.251   1.756   4.549
 2744SOL    MW411008   2.315   1.815   4.562
 2745SOL     OW11009   0.661   1.792   4.657
 2745SOL    HW211010   0.726   1.824   4.720
 2745SOL    HW311011   0.580   1.839   4.680
 2745SOL    MW411012   0.659   1.802   4.669
 2746SOL     OW11013   1.519   1.594   4.556
 2746SOL    HW211014   1.552   1.504   4.555
 2746SOL    HW311015   1.596   1.648   4.574
 2746SOL    MW411016   1.533   1.589   4.558
 2747SOL     OW11017   1.255   2.223   4.697
 2747SOL    HW211018   1.248   2.311   4.662
 2747SOL    HW311019   1.295   2.171   4.626
 2747SOL    MW411020   1.259   2.228   4.683
 2748SOL     OW11021   1.383   2.153   4.460
 2748SOL    HW211022   1.418   2.103   4.387
 2748SOL    HW311023   1.430   2.236   4.458
 2748SOL    MW411024   1.393   2.157   4.450
 2749SOL     OW11025   2.083   2.403   4.121
 2749SOL    HW211026   2.048   2.361   4.043
 2749SOL    HW311027   2.092   2.333   4.185
 2749SOL    MW411028   2.080   2.388   4.119
 2750SOL     OW11029   1.511   2.236   4.779
 2750SOL    HW211030   1.538   2.327   4.792
 2750SOL    HW311031   1.418   2.242   4.756
 2750SOL    MW411032   1.502   2.249   4.778
 2751SOL     OW11033   2.904   3.137   4.749
 2751SOL    HW211034   2.913   3.067   4.685
 2751SOL    HW311035   2.981   3.193   4.736
 2751SOL    MW411036   2.915   3.135   4.739
 2752SOL     OW11037   1.808   3.151   4.641
 2752SOL    HW211038   1.783   3.070   4.596
 2752SOL    HW311039   1.902   3.141   4.658
 2752SOL    MW411040   1.818   3.139   4.637
 2753SOL     OW11041   1.767   3.782   4.549
 2753SOL    HW211042   1.789   3.875   4.541
 2753SOL    HW311043   1.829   3.737   4.491
 2753SOL    MW411044   1.778   3.788   4.540
 2754SOL     OW11045   2.736   2.758   4.777
 2754SOL    HW211046   2.656   2.716   4.746
 2754SOL    HW311047   2.737   2.741   4.871
 2754SOL    MW411048   2.726   2.751   4.786
 2755SOL     OW11049   2.353   2.431   4.735
 2755SOL    HW211050   2.333   2.442   4.642
 2755SOL    HW311051   2.286   2.370   4.767
 2755SOL    MW411052   2.341   2.425   4.727
 2756SOL     OW11053   2.867   3.851   4.584
 2756SOL    HW211054   2.874   3.858   4.680
 2756SOL    HW311055   2.799   3.915   4.560
 2756SOL    MW411056   2.859   3.860   4.594
 2757SOL     OW11057   2.660   4.012   4.486
 2757SOL    HW211058   2.652   4.046   4.397
 2757SOL    HW311059   2.582   3.959   4.499
 2757SOL    MW411060   2.649   4.010   4.476
 2758SOL     OW11061   2.484   3.580   4.530
 2758SOL    HW211062   2.452   3.491   4.546
 2758SOL    HW311063   2.480   3.591   4.435
 2758SOL    MW411064   2.479   3.570   4.520
 2759SOL     OW11065   2.423   3.848   4.551
 2759SOL    HW211066   2.421   3.754   4.572
 2759SOL    HW311067   2.330   3.874   4.549
 2759SOL    MW411068   2.410   3.839   4.553
 2760SOL     OW11069   1.761   4.309   4.556
 2760SOL    HW211070   1.778   4.219   4.528
 2760SOL    HW311071   1.678   4.304   4.604
 2760SOL    MW411072   1.753   4.296   4.559
 2761SOL     OW11073   1.283   3.750   4.581
 2761SOL    HW211074   1.376   3.725   4.578
 2761SOL    HW311075   1.236   3.668   4.568
 2761SOL    MW411076   1.289   3.736   4.579
 2762SOL     OW11077   2.039   0.241   4.644
 2762SOL    HW211078   2.068   0.247   4.735
 2762SOL    HW311079   2.120   0.245   4.593
 2762SOL    MW411080   2.054   0.242   4.649
 2763SOL     OW11081   1.848   0.089   4.469
 2763SOL    HW211082   1.890   0.003   4.465
 2763SOL    HW311083   1.896   0.135   4.538
 2763SOL    MW411084   1.860   0.083   4.478
 2764SOL     OW11085   2.048   1.612   4.577
 2764SOL    HW211086   2.102   1.599   4.500
 2764SOL    HW311087   2.018   1.524   4.601
 2764SOL    MW411088   2.051   1.598   4.570
 2765SOL     OW11089   2.712   0.646   4.603
 2765SOL    HW211090   2.627   0.689   4.596
 2765SOL    HW311091   2.696   0.556   4.574
 2765SOL    MW411092   2.698   0.640   4.598
 2766SOL     OW11093   2.793   0.753   4.243
 2766SOL    HW211094   2.831   0.766   4.330
 2766SOL    HW311095   2.857   0.791   4.183
 2766SOL    MW411096   2.806   0.760   4.246
 2767SOL     OW11097   3.232   1.131   4.367
 2767SOL    HW211098   3.236   1.115   4.461
 2767SOL    HW311099   3.250   1.224   4.357
 2767SOL    MW411100   3.235   1.141   4.378
 2768SOL     OW11101   2.156   0.899   4.490
 2768SOL    HW211102   2.173   0.986   4.525
 2768SOL    HW311103   2.063   0.884   4.508
 2768SOL    MW411104   2.146   0.908   4.497
 2769SOL     OW11105   2.628   1.459   4.556
 2769SOL    HW211106   2.615   1.554   4.555
 2769SOL    HW311107   2.722   1.447   4.561
 2769SOL    MW411108   2.638   1.470   4.556
 2770SOL     OW11109   2.610   1.755   4.544
 2770SOL    HW211110   2.622   1.737   4.451
 2770SOL    HW311111   2.515   1.754   4.557
 2770SOL    MW411112   2.599   1.753   4.533
 2771SOL     OW11113   2.297   2.080   4.574
 2771SOL    HW211114   2.385   2.104   4.602
 2771SOL    HW311115   2.299   2.084   4.479
 2771SOL    MW411116   2.309   2.084   4.565
 2772SOL     OW11117   1.913   2.194   4.894
 2772SOL    HW211118   1.871   2.255   4.834
 2772SOL    HW311119   1.844   2.166   4.954
 2772SOL    MW411120   1.899   2.198   4.894
 2773SOL     OW11121   2.170   2.230   4.785
 2773SOL    HW211122   2.192   2.162   4.723
 2773SOL    HW311123   2.102   2.191   4.840
 2773SOL    MW411124   2.164   2.216   4.784
 2774SOL     OW11125   2.725   2.581   4.341
 2774SOL    HW211126   2.672   2.555   4.417
 2774SOL    HW311127   2.752   2.671   4.361
 2774SOL    MW411128   2.721   2.590   4.354
 2775SOL     OW11129   1.580   2.719   4.341
 2775SOL    HW211130   1.616   2.630   4.342
 2775SOL    HW311131   1.518   2.720   4.415
 2775SOL    MW411132   1.577   2.707   4.351
 2776SOL     OW11133   2.310   2.945   4.770
 2776SOL    HW211134   2.400   2.976   4.776
 2776SOL    HW311135   2.301   2.913   4.680
 2776SOL    MW411136   2.320   2.945   4.759
 2777SOL     OW11137   2.734   3.467   4.552
 2777SOL    HW211138   2.749   3.444   4.644
 2777SOL    HW311139   2.651   3.513   4.552
 2777SOL    MW411140   2.725   3.470   4.564
 2778SOL     OW11141   2.631   3.023   4.736
 2778SOL    HW211142   2.712   3.072   4.727
 2778SOL    HW311143   2.658   2.931   4.742
 2778SOL    MW411144   2.645   3.017   4.736
 2779SOL     OW11145   0.839   4.190   4.545
 2779SOL    HW211146   0.912   4.130   4.564
 2779SOL    HW311147   0.762   4.133   4.544
 2779SOL    MW411148   0.839   4.174   4.547
 2780SOL     OW11149   3.097   3.987   4.510
 2780SOL    HW211150   3.021   3.930   4.522
 2780SOL    HW311151   3.172   3.932   4.533
 2780SOL    MW411152   3.097   3.972   4.515
 2781SOL     OW11153   2.131   3.117   4.636
 2781SOL    HW211154   2.147   3.069   4.554
 2781SOL    HW311155   2.187   3.073   4.700
 2781SOL    MW411156   2.141   3.105   4.633
 2782SOL     OW11157   3.372   3.878   4.565
 2782SOL    HW211158   3.368   3.950   4.627
 2782SOL    HW311159   3.399   3.803   4.619
 2782SOL    MW411160   3.375   3.877   4.581
 2783SOL     OW11161   2.942   4.638   4.578
 2783SOL    HW211162   2.859   4.686   4.578
 2783SOL    HW311163   2.917   4.549   4.551
 2783SOL    MW411164   2.927   4.632   4.574
 2784SOL     OW11165   2.036   4.195   4.697
 2784SOL    HW211166   1.994   4.264   4.748
 2784SOL    HW311167   1.964   4.139   4.668
 2784SOL    MW411168   2.021   4.196   4.700
 2785SOL     OW11169   2.386   4.286   4.355
 2785SOL    HW211170   2.322   4.292   4.425
 2785SOL    HW311171   2.335   4.271   4.276
 2785SOL    MW411172   2.371   4.285   4.354
 2786SOL     OW11173   2.842   0.471   4.231
 2786SOL    HW211174   2.836   0.566   4.244
 2786SOL    HW311175   2.933   0.455   4.209
 2786SOL    MW411176   2.853   0.481   4.230
 2787SOL     OW11177   2.924   4.379   4.480
 2787SOL    HW211178   2.997   4.340   4.528
 2787SOL    HW311179   2.847   4.333   4.512
 2787SOL    MW411180   2.924   4.368   4.490
 2788SOL     OW11181   2.630   4.290   4.545
 2788SOL    HW211182   2.581   4.294   4.462
 2788SOL    HW311183   2.635   4.197   4.565
 2788SOL    MW411184   2.624   4.278   4.537
 2789SOL     OW11185   2.913   1.032   4.594
 2789SOL    HW211186   2.929   0.946   4.553
 2789SOL    HW311187   2.819   1.035   4.608
 2789SOL    MW411188   2.903   1.021   4.591
 2790SOL     OW11189   2.732   0.123   4.506
 2790SOL    HW211190   2.644   0.103   4.538
 2790SOL    HW311191   2.728   0.108   4.412
 2790SOL    MW411192   2.720   0.118   4.498
 2791SOL     OW11193   1.720   0.677   4.639
 2791SOL    HW211194   1.729   0.650   4.731
 2791SOL    HW311195   1.775   0.615   4.591
 2791SOL    MW411196   1.729   0.665   4.645
 2792SOL     OW11197   2.606   0.998   4.501
 2792SOL    HW211198   2.557   0.922   4.534
 2792SOL    HW311199   2.619   0.979   4.408
 2792SOL    MW411200   2.601   0.985   4.493
 2793SOL     OW11201   3.140   1.491   4.573
 2793SOL    HW211202   3.054   1.453   4.557
 2793SOL    HW311203   3.199   1.443   4.514
 2793SOL    MW411204   3.136   1.479   4.563
 2794SOL     OW11205   3.159   1.742   4.460
 2794SOL    HW211206   3.076   1.782   4.483
 2794SOL    HW311207   3.156   1.655   4.500
 2794SOL    MW411208   3.148   1.736   4.468
 2795SOL     OW11209   2.727   1.996   4.665
 2795SOL    HW211210   2.663   2.058   4.702
 2795SOL    HW311211   2.674   1.922   4.636
 2795SOL    MW411212   2.711   1.994   4.666
 2796SOL     OW11213   2.694   2.279   4.461
 2796SOL    HW211214   2.755   2.213   4.427
 2796SOL    HW311215   2.639   2.303   4.387
 2796SOL    MW411216   2.695   2.274   4.447
 2797SOL     OW11217   2.527   2.205   4.671
 2797SOL    HW211218   2.576   2.219   4.590
 2797SOL    HW311219   2.482   2.288   4.687
 2797SOL    MW411220   2.528   2.218   4.663
 2798SOL     OW11221   2.996   1.984   4.521
 2798SOL    HW211222   2.925   1.989   4.585
 2798SOL    HW311223   2.956   2.012   4.439
 2798SOL    MW411224   2.981   1.989   4.519
 2799SOL     OW11225   2.492   2.678   4.680
 2799SOL    HW211226   2.431   2.621   4.728
 2799SOL    HW311227   2.436   2.744   4.640
 2799SOL    MW411228   2.477   2.679   4.681
 2800SOL     OW11229   3.558   3.928   4.811
 2800SOL    HW211230   3.533   3.839   4.785
 2800SOL    HW311231   3.477   3.978   4.808
 2800SOL    MW411232   3.544   3.923   4.807
 2801SOL     OW11233   2.829   2.843   4.341
 2801SOL    HW211234   2.879   2.890   4.275
 2801SOL    HW311235   2.738   2.865   4.321
 2801SOL    MW411236   2.823   2.852   4.330
 2802SOL     OW11237   2.731   3.366   4.811
 2802SOL    HW211238   2.664   3.339   4.874
 2802SOL    HW311239   2.777   3.285   4.788
 2802SOL    MW411240   2.728   3.352   4.816
 2803SOL     OW11241   2.997   2.946   4.545
 2803SOL    HW211242   3.084   2.907   4.537
 2803SOL    HW311243   2.940   2.889   4.493
 2803SOL    MW411244   3.001   2.934   4.537
 2804SOL     OW11245   2.274   0.252   4.495
 2804SOL    HW211246   2.317   0.337   4.485
 2804SOL    HW311247   2.260   0.221   4.406
 2804SOL    MW411248   2.278   0.259   4.482
 2805SOL     OW11249   3.363   4.124   4.700
 2805SOL    HW211250   3.289   4.181   4.678
 2805SOL    HW311251   3.437   4.162   4.651
 2805SOL    MW411252   3.363   4.137   4.690
 2806SOL     OW11253   3.832   3.712   4.488
 2806SOL    HW211254   3.828   3.670   4.402
 2806SOL    HW311255   3.777   3.657   4.544
 2806SOL    MW411256   3.824   3.699   4.484
 2807SOL     OW11257   2.969   3.601   4.485
 2807SOL    HW211258   2.903   3.540   4.518
 2807SOL    HW311259   2.944   3.686   4.521
 2807SOL    MW411260   2.957   3.604   4.494
 2808SOL     OW11261   3.134   4.248   4.595
 2808SOL    HW211262   3.143   4.157   4.567
 2808SOL    HW311263   3.196   4.297   4.541
 2808SOL    MW411264   3.143   4.243   4.584
 2809SOL     OW11265   2.684   0.406   4.465
 2809SOL    HW211266   2.704   0.320   4.502
 2809SOL    HW311267   2.741   0.414   4.389
 2809SOL    MW411268   2.694   0.396   4.460
 2810SOL     OW11269   2.935   0.767   4.480
 2810SOL    HW211270   3.015   0.724   4.509
 2810SOL    HW311271   2.865   0.723   4.529
 2810SOL    MW411272   2.936   0.755   4.490
 2811SOL     OW11273   2.430   0.773   4.566
 2811SOL    HW211274   2.429   0.685   4.527
 2811SOL    HW311275   2.340   0.804   4.558
 2811SOL    MW411276   2.418   0.765   4.560
 2812SOL     OW11277   2.477   1.237   4.471
 2812SOL    HW211278   2.527   1.155   4.477
 2812SOL    HW311279   2.536   1.303   4.508
 2812SOL    MW411280   2.491   1.235   4.477
 2813SOL     OW11281   2.424   4.427   4.685
 2813SOL    HW211282   2.507   4.386   4.661
 2813SOL    HW311283   2.440   4.521   4.675
 2813SOL    MW411284   2.437   4.434   4.680
 2814SOL     OW11285   2.474   0.050   4.557
 2814SOL    HW211286   2.464  -0.016   4.488
 2814SOL    HW311287   2.401   0.110   4.544
 2814SOL    MW411288   2.463   0.049   4.546
 2815SOL     OW11289   3.294   1.348   4.752
 2815SOL    HW211290   3.291   1.368   4.846
 2815SOL    HW311291   3.227   1.404   4.714
 2815SOL    MW411292   3.285   1.358   4.760
 2816SOL     OW11293   2.904   1.339   4.529
 2816SOL    HW211294   2.915   1.246   4.552
 2816SOL    HW311295   2.916   1.341   4.434
 2816SOL    MW411296   2.907   1.327   4.519
 2817SOL     OW11297   4.072   0.939   4.555
 2817SOL    HW211298   4.080   0.930   4.460
 2817SOL    HW311299   4.152   0.901   4.590
 2817SOL    MW411300   4.083   0.933   4.547
 2818SOL     OW11301   3.512   1.423   4.570
 2818SOL    HW211302   3.538   1.514   4.583
 2818SOL    HW311303   3.471   1.397   4.652
 2818SOL    MW411304   3.510   1.431   4.582
 2819SOL     OW11305   3.355   1.923   4.562
 2819SOL    HW211306   3.285   1.988   4.557
 2819SOL    HW311307   3.319   1.846   4.518
 2819SOL    MW411308   3.341   1.921   4.556
 2820SOL     OW11309   3.231   2.174   4.538
 2820SOL    HW211310   3.140   2.145   4.547
 2820SOL    HW311311   3.251   2.162   4.445
 2820SOL    MW411312   3.222   2.169   4.527
 2821SOL     OW11313   3.615   1.695   4.520
 2821SOL    HW211314   3.614   1.777   4.571
 2821SOL    HW311315   3.591   1.722   4.431
 2821SOL    MW411316   3.612   1.710   4.515
 2822SOL     OW11317   2.984   2.616   4.703
 2822SOL    HW211318   2.933   2.536   4.689
 2822SOL    HW311319   2.919   2.684   4.717
 2822SOL    MW411320   2.969   2.615   4.703
 2823SOL     OW11321   3.232   2.594   4.527
 2823SOL    HW211322   3.162   2.625   4.584
 2823SOL    HW311323   3.190   2.587   4.440
 2823SOL    MW411324   3.217   2.597   4.523
 2824SOL     OW11325   2.842   2.371   4.675
 2824SOL    HW211326   2.807   2.358   4.586
 2824SOL    HW311327   2.819   2.290   4.721
 2824SOL    MW411328   2.834   2.358   4.669
 2825SOL     OW11329   3.643   3.092   4.467
 2825SOL    HW211330   3.658   3.139   4.385
 2825SOL    HW311331   3.715   3.029   4.472
 2825SOL    MW411332   3.654   3.090   4.457
 2826SOL     OW11333   3.388   3.474   4.416
 2826SOL    HW211334   3.322   3.498   4.480
 2826SOL    HW311335   3.361   3.389   4.383
 2826SOL    MW411336   3.376   3.466   4.420
 2827SOL     OW11337   3.373   3.131   4.583
 2827SOL    HW211338   3.326   3.053   4.555
 2827SOL    HW311339   3.466   3.107   4.576
 2827SOL    MW411340   3.379   3.118   4.579
 2828SOL     OW11341   3.830   2.866   4.487
 2828SOL    HW211342   3.820   2.780   4.526
 2828SOL    HW311343   3.919   2.893   4.511
 2828SOL    MW411344   3.841   2.858   4.495
 2829SOL     OW11345   3.772   3.299   4.622
 2829SOL    HW211346   3.723   3.230   4.577
 2829SOL    HW311347   3.864   3.279   4.603
 2829SOL    MW411348   3.778   3.287   4.614
 2830SOL     OW11349   3.566   4.197   4.499
 2830SOL    HW211350   3.651   4.242   4.502
 2830SOL    HW311351   3.587   4.104   4.511
 2830SOL    MW411352   3.580   4.191   4.501
 2831SOL     OW11353   3.148   0.131   4.477
 2831SOL    HW211354   3.076   0.079   4.513
 2831SOL    HW311355   3.211   0.138   4.549
 2831SOL    MW411356   3.146   0.125   4.491
 2832SOL     OW11357   3.108   0.084   4.807
 2832SOL    HW211358   3.057   0.115   4.883
 2832SOL    HW311359   3.048   0.026   4.761
 2832SOL    MW411360   3.093   0.081   4.811
 2833SOL     OW11361   3.333   4.392   4.465
 2833SOL    HW211362   3.419   4.353   4.481
 2833SOL    HW311363   3.338   4.480   4.502
 2833SOL    MW411364   3.345   4.398   4.472
 2834SOL     OW11365   3.643   3.929   4.482
 2834SOL    HW211366   3.708   3.872   4.523
 2834SOL    HW311367   3.560   3.883   4.495
 2834SOL    MW411368   3.640   3.915   4.489
 2835SOL     OW11369   3.497   4.641   4.532
 2835SOL    HW211370   3.450   4.700   4.592
 2835SOL    HW311371   3.506   4.692   4.451
 2835SOL    MW411372   3.492   4.656   4.529
 2836SOL     OW11373   3.347   0.880   4.633
 2836SOL    HW211374   3.300   0.949   4.681
 2836SOL    HW311375   3.439   0.906   4.637
 2836SOL    MW411376   3.353   0.892   4.640
 2837SOL     OW11377   1.954   4.501   4.473
 2837SOL    HW211378   2.032   4.463   4.515
 2837SOL    HW311379   1.882   4.447   4.504
 2837SOL    MW411380   1.955   4.489   4.483
 2838SOL     OW11381   4.268   1.629   4.542
 2838SOL    HW211382   4.286   1.536   4.551
 2838SOL    HW311383   4.352   1.669   4.522
 2838SOL    MW411384   4.281   1.622   4.540
 2839SOL     OW11385   3.824   0.803   4.603
 2839SOL    HW211386   3.803   0.766   4.518
 2839SOL    HW311387   3.897   0.862   4.587
 2839SOL    MW411388   3.830   0.806   4.590
 2840SOL     OW11389   0.131   0.936   4.551
 2840SOL    HW211390   0.109   0.898   4.466
 2840SOL    HW311391   0.196   0.876   4.588
 2840SOL    MW411392   0.137   0.923   4.545
 2841SOL     OW11393   4.254   0.552   4.475
 2841SOL    HW211394   4.246   0.532   4.381
 2841SOL    HW311395   4.170   0.524   4.512
 2841SOL    MW411396   4.242   0.545   4.467
 2842SOL     OW11397   3.591   1.711   4.244
 2842SOL    HW211398   3.658   1.657   4.201
 2842SOL    HW311399   3.508   1.680   4.206
 2842SOL    MW411400   3.589   1.700   4.233
 2843SOL     OW11401   4.006   1.701   4.239
 2843SOL    HW211402   4.095   1.668   4.229
 2843SOL    HW311403   3.981   1.677   4.328
 2843SOL    MW411404   4.014   1.694   4.249
 2844SOL     OW11405   3.656   2.386   4.515
 2844SOL    HW211406   3.561   2.377   4.522
 2844SOL    HW311407   3.689   2.297   4.509
 2844SOL    MW411408   3.648   2.373   4.515
 2845SOL     OW11409   3.621   1.937   4.644
 2845SOL    HW211410   3.646   1.963   4.733
 2845SOL    HW311411   3.527   1.955   4.640
 2845SOL    MW411412   3.612   1.943   4.655
 2846SOL     OW11413   0.132   2.035   4.486
 2846SOL    HW211414   0.221   2.071   4.495
 2846SOL    HW311415   0.075   2.111   4.492
 2846SOL    MW411416   0.136   2.050   4.488
 2847SOL     OW11417   3.767   2.126   4.510
 2847SOL    HW211418   3.856   2.115   4.544
 2847SOL    HW311419   3.715   2.060   4.556
 2847SOL    MW411420   3.772   2.116   4.521
 2848SOL     OW11421   3.791   2.600   4.632
 2848SOL    HW211422   3.761   2.519   4.591
 2848SOL    HW311423   3.725   2.619   4.698
 2848SOL    MW411424   3.778   2.591   4.635
 2849SOL     OW11425   4.076   2.562   4.544
 2849SOL    HW211426   3.992   2.579   4.588
 2849SOL    HW311427   4.136   2.626   4.582
 2849SOL    MW411428   4.073   2.573   4.555
 2850SOL     OW11429   4.238   2.782   4.658
 2850SOL    HW211430   4.287   2.799   4.739
 2850SOL    HW311431   4.304   2.752   4.596
 2850SOL    MW411432   4.254   2.780   4.661
 2851SOL     OW11433   3.129   3.269   4.668
 2851SOL    HW211434   3.105   3.261   4.576
 2851SOL    HW311435   3.223   3.248   4.670
 2851SOL    MW411436   3.138   3.265   4.656
 2852SOL     OW11437   3.440   3.671   4.744
 2852SOL    HW211438   3.354   3.628   4.739
 2852SOL    HW311439   3.500   3.609   4.703
 2852SOL    MW411440   3.436   3.657   4.738
 2853SOL     OW11441   3.194   3.550   4.627
 2853SOL    HW211442   3.120   3.575   4.572
 2853SOL    HW311443   3.173   3.462   4.658
 2853SOL    MW411444   3.182   3.542   4.624
 2854SOL     OW11445   4.296   3.369   4.605
 2854SOL    HW211446   4.286   3.464   4.602
 2854SOL    HW311447   4.215   3.335   4.566
 2854SOL    MW411448   4.284   3.377   4.599
 2855SOL     OW11449   0.118   2.981   4.482
 2855SOL    HW211450   0.159   2.975   4.396
 2855SOL    HW311451   0.078   3.068   4.484
 2855SOL    MW411452   0.118   2.992   4.471
 2856SOL     OW11453   4.302   3.649   4.508
 2856SOL    HW211454   4.223   3.702   4.520
 2856SOL    HW311455   4.297   3.618   4.418
 2856SOL    MW411456   4.291   3.652   4.498
 2857SOL     OW11457   3.810   4.334   4.533
 2857SOL    HW211458   3.834   4.359   4.444
 2857SOL    HW311459   3.792   4.417   4.577
 2857SOL    MW411460   3.811   4.348   4.527
 2858SOL     OW11461   3.342   0.153   4.682
 2858SOL    HW211462   3.276   0.127   4.746
 2858SOL    HW311463   3.324   0.245   4.665
 2858SOL    MW411464   3.331   0.161   4.688
 2859SOL     OW11465   3.612   0.989   4.595
 2859SOL    HW211466   3.659   1.070   4.575
 2859SOL    HW311467   3.679   0.932   4.634
 2859SOL    MW411468   3.627   0.992   4.598
 2860SOL     OW11469   3.201   0.681   4.541
 2860SOL    HW211470   3.226   0.592   4.564
 2860SOL    HW311471   3.269   0.736   4.580
 2860SOL    MW411472   3.213   0.677   4.549
 2861SOL     OW11473   4.473   0.389   4.538
 2861SOL    HW211474   4.548   0.447   4.523
 2861SOL    HW311475   4.397   0.447   4.535
 2861SOL    MW411476   4.473   0.405   4.535
 2862SOL     OW11477   0.253   0.514   4.518
 2862SOL    HW211478   0.324   0.454   4.539
 2862SOL    HW311479   0.243   0.507   4.423
 2862SOL    MW411480   0.261   0.505   4.508
 2863SOL     OW11481   3.985   0.420   4.549
 2863SOL    HW211482   3.955   0.468   4.625
 2863SOL    HW311483   3.986   0.328   4.577
 2863SOL    MW411484   3.981   0.414   4.563
 2864SOL     OW11485   3.746   1.238   4.522
 2864SOL    HW211486   3.671   1.298   4.528
 2864SOL    HW311487   3.819   1.288   4.559
 2864SOL    MW411488   3.746   1.253   4.527
 2865SOL     OW11489   0.058   1.215   4.572
 2865SOL    HW211490   0.149   1.244   4.566
 2865SOL    HW311491   0.062   1.121   4.557
 2865SOL    MW411492   0.071   1.207   4.569
 2866SOL     OW11493   4.296   1.333   4.507
 2866SOL    HW211494   4.254   1.280   4.574
 2866SOL    HW311495   4.387   1.304   4.507
 2866SOL    MW411496   4.302   1.322   4.516
 2867SOL     OW11497   3.955   1.394   4.617
 2867SOL    HW211498   3.957   1.459   4.687
 2867SOL    HW311499   3.999   1.317   4.654
 2867SOL    MW411500   3.961   1.393   4.631
 2868SOL     OW11501   3.281   2.877   4.501
 2868SOL    HW211502   3.260   2.787   4.525
 2868SOL    HW311503   3.327   2.869   4.417
 2868SOL    MW411504   3.284   2.864   4.493
 2869SOL     OW11505   4.250   2.108   4.262
 2869SOL    HW211506   4.172   2.063   4.230
 2869SOL    HW311507   4.266   2.071   4.348
 2869SOL    MW411508   4.242   2.097   4.269
 2870SOL     OW11509   4.446   2.244   4.532
 2870SOL    HW211510   4.361   2.274   4.564
 2870SOL    HW311511   4.492   2.324   4.507
 2870SOL    MW411512   4.441   2.259   4.533
 2871SOL     OW11513   4.041   2.077   4.588
 2871SOL    HW211514   4.051   1.997   4.639
 2871SOL    HW311515   4.099   2.065   4.513
 2871SOL    MW411516   4.050   2.064   4.585
 2872SOL     OW11517   3.391   2.388   4.596
 2872SOL    HW211518   3.332   2.460   4.573
 2872SOL    HW311519   3.336   2.310   4.592
 2872SOL    MW411520   3.376   2.387   4.592
 2873SOL     OW11521   0.529   2.608   4.593
 2873SOL    HW211522   0.471   2.536   4.566
 2873SOL    HW311523   0.468   2.677   4.619
 2873SOL    MW411524   0.513   2.607   4.593
 2874SOL     OW11525   4.105   2.971   4.512
 2874SOL    HW211526   4.152   2.923   4.580
 2874SOL    HW311527   4.142   2.938   4.430
 2874SOL    MW411528   4.116   2.960   4.510
 2875SOL     OW11529   4.438   2.726   4.463
 2875SOL    HW211530   4.386   2.746   4.385
 2875SOL    HW311531   4.481   2.808   4.485
 2875SOL    MW411532   4.437   2.739   4.455
 2876SOL     OW11533   0.295   3.694   4.482
 2876SOL    HW211534   0.390   3.700   4.476
 2876SOL    HW311535   0.268   3.654   4.399
 2876SOL    MW411536   0.304   3.689   4.471
 2877SOL     OW11537   3.765   4.585   4.663
 2877SOL    HW211538   3.754   4.601   4.757
 2877SOL    HW311539   3.677   4.595   4.627
 2877SOL    MW411540   3.752   4.588   4.671
 2878SOL     OW11541   4.257   4.403   4.519
 2878SOL    HW211542   4.193   4.332   4.523
 2878SOL    HW311543   4.341   4.359   4.536
 2878SOL    MW411544   4.260   4.388   4.522
 2879SOL     OW11545   4.044   3.259   4.527
 2879SOL    HW211546   4.071   3.167   4.535
 2879SOL    HW311547   4.037   3.274   4.433
 2879SOL    MW411548   4.047   3.249   4.516
 2880SOL     OW11549   2.422   0.479   4.446
 2880SOL    HW211550   2.513   0.450   4.447
 2880SOL    HW311551   2.403   0.495   4.354
 2880SOL    MW411552   2.432   0.477   4.434
 2881SOL     OW11553   4.291   4.429   4.238
 2881SOL    HW211554   4.354   4.362   4.212
 2881SOL    HW311555   4.281   4.418   4.332
 2881SOL    MW411556   4.298   4.418   4.247
 2882NA      NA11557   2.688   4.236   0.605
 2883NA      NA11558   0.815   1.897   0.437
   4.49070   4.66690  10.00000
