Gromacs Runs On Most of All Computer Systems in water t= 180.00000 step= 180000
11558
    1RG35     P    1   2.208   2.830   4.516
    1RG35   O1P    2   2.239   2.754   4.393
    1RG35   O2P    3   2.106   2.931   4.491
    1RG35   O5'    4   2.157   2.725   4.621
    1RG35   C5'    5   2.117   2.774   4.748
    1RG35  H5'1    6   2.028   2.837   4.741
    1RG35  H5'2    7   2.191   2.832   4.803
    1RG35   C4'    8   2.088   2.666   4.851
    1RG35   H4'    9   2.042   2.714   4.937
    1RG35   O4'   10   2.001   2.568   4.799
    1RG35   C1'   11   2.064   2.444   4.812
    1RG35   H1'   12   2.036   2.399   4.908
    1RG35    N9   13   2.014   2.371   4.698
    1RG35    C8   14   1.976   2.425   4.573
    1RG35    H8   15   1.998   2.528   4.548
    1RG35    N7   16   1.908   2.342   4.494
    1RG35    C5   17   1.896   2.229   4.575
    1RG35    C6   18   1.831   2.102   4.557
    1RG35    O6   19   1.759   2.062   4.463
    1RG35    N1   20   1.855   2.009   4.654
    1RG35    H1   21   1.805   1.923   4.638
    1RG35    C2   22   1.934   2.028   4.762
    1RG35    N2   23   1.956   1.926   4.840
    1RG35   H21   24   1.957   1.831   4.808
    1RG35   H22   25   2.000   1.941   4.930
    1RG35    N3   26   1.989   2.145   4.792
    1RG35    C4   27   1.971   2.242   4.697
    1RG35   C3'   28   2.218   2.598   4.898
    1RG35   H3'   29   2.301   2.664   4.872
    1RG35   C2'   30   2.216   2.480   4.804
    1RG35  H2'1   31   2.237   2.500   4.699
    1RG35   O2'   32   2.298   2.380   4.844
    1RG35  HO'2   33   2.385   2.401   4.809
    1RG35   O3'   34   2.222   2.557   5.034
    1RG35   H3T   35   2.286   2.486   5.036
    1RG35   O3P   36   2.327   2.888   4.575
    2SOL     OW   37   0.465   0.091   0.449
    2SOL    HW2   38   0.487  -0.002   0.454
    2SOL    HW3   39   0.540   0.131   0.405
    2SOL    MW4   40   0.477   0.084   0.444
    3SOL     OW   41   4.009   0.130   0.437
    3SOL    HW2   42   4.096   0.142   0.401
    3SOL    HW3   43   3.979   0.047   0.402
    3SOL    MW4   44   4.016   0.121   0.428
    4SOL     OW   45   3.851   0.569   0.452
    4SOL    HW2   46   3.777   0.627   0.429
    4SOL    HW3   47   3.826   0.531   0.536
    4SOL    MW4   48   3.838   0.572   0.460
    5SOL     OW   49   0.110   1.600   0.472
    5SOL    HW2   50   0.053   1.620   0.546
    5SOL    HW3   51   0.087   1.511   0.448
    5SOL    MW4   52   0.100   1.591   0.479
    6SOL     OW   53   1.433   0.847   0.494
    6SOL    HW2   54   1.402   0.881   0.579
    6SOL    HW3   55   1.387   0.901   0.429
    6SOL    MW4   56   1.423   0.859   0.497
    7SOL     OW   57   0.257   0.514   0.402
    7SOL    HW2   58   0.235   0.514   0.495
    7SOL    HW3   59   0.249   0.423   0.375
    7SOL    MW4   60   0.253   0.502   0.410
    8SOL     OW   61   0.576   0.912   0.466
    8SOL    HW2   62   0.535   0.913   0.552
    8SOL    HW3   63   0.554   0.826   0.430
    8SOL    MW4   64   0.567   0.901   0.472
    9SOL     OW   65   0.982   0.876   0.438
    9SOL    HW2   66   0.947   0.877   0.528
    9SOL    HW3   67   0.937   0.948   0.395
    9SOL    MW4   68   0.972   0.886   0.444
   10SOL     OW   69   0.791   1.054   0.349
   10SOL    HW2   70   0.740   1.067   0.269
   10SOL    HW3   71   0.734   1.001   0.405
   10SOL    MW4   72   0.777   1.049   0.345
   11SOL     OW   73   0.633   1.597   0.167
   11SOL    HW2   74   0.569   1.598   0.095
   11SOL    HW3   75   0.597   1.534   0.229
   11SOL    MW4   76   0.619   1.589   0.165
   12SOL     OW   77   4.012   2.079   0.504
   12SOL    HW2   78   3.976   1.995   0.476
   12SOL    HW3   79   3.952   2.110   0.572
   12SOL    MW4   80   3.999   2.072   0.509
   13SOL     OW   81   0.073   1.839   0.286
   13SOL    HW2   82   0.104   1.766   0.339
   13SOL    HW3   83  -0.017   1.854   0.317
   13SOL    MW4   84   0.065   1.831   0.297
   14SOL     OW   85   0.347   2.372   0.521
   14SOL    HW2   86   0.295   2.453   0.519
   14SOL    HW3   87   0.288   2.305   0.486
   14SOL    MW4   88   0.332   2.374   0.516
   15SOL     OW   89   0.196   2.758   0.470
   15SOL    HW2   90   0.276   2.788   0.426
   15SOL    HW3   91   0.125   2.789   0.415
   15SOL    MW4   92   0.197   2.766   0.457
   16SOL     OW   93   4.171   3.165   0.462
   16SOL    HW2   94   4.162   3.184   0.555
   16SOL    HW3   95   4.258   3.127   0.453
   16SOL    MW4   96   4.181   3.162   0.473
   17SOL     OW   97   4.408   2.807   0.305
   17SOL    HW2   98   4.356   2.831   0.229
   17SOL    HW3   99   4.346   2.765   0.365
   17SOL    MW4  100   4.393   2.804   0.303
   18SOL     OW  101   0.233   3.424   0.325
   18SOL    HW2  102   0.289   3.373   0.384
   18SOL    HW3  103   0.294   3.461   0.261
   18SOL    MW4  104   0.249   3.422   0.324
   19SOL     OW  105   0.550   3.726   0.376
   19SOL    HW2  106   0.620   3.759   0.320
   19SOL    HW3  107   0.506   3.804   0.409
   19SOL    MW4  108   0.554   3.740   0.373
   20SOL     OW  109   3.793   3.478   0.364
   20SOL    HW2  110   3.815   3.551   0.423
   20SOL    HW3  111   3.876   3.455   0.323
   20SOL    MW4  112   3.807   3.485   0.367
   21SOL     OW  113   4.389   3.913   0.208
   21SOL    HW2  114   4.383   3.828   0.251
   21SOL    HW3  115   4.482   3.927   0.195
   21SOL    MW4  116   4.400   3.904   0.212
   22SOL     OW  117   4.437   4.480   0.469
   22SOL    HW2  118   4.366   4.439   0.421
   22SOL    HW3  119   4.409   4.478   0.560
   22SOL    MW4  120   4.424   4.474   0.475
   23SOL     OW  121   4.170   4.341   0.426
   23SOL    HW2  122   4.193   4.361   0.517
   23SOL    HW3  123   4.201   4.252   0.412
   23SOL    MW4  124   4.177   4.332   0.436
   24SOL     OW  125   4.253   4.064   0.383
   24SOL    HW2  126   4.296   4.020   0.309
   24SOL    HW3  127   4.169   4.019   0.392
   24SOL    MW4  128   4.248   4.052   0.375
   25SOL     OW  129   0.460   3.284   0.475
   25SOL    HW2  130   0.422   3.261   0.560
   25SOL    HW3  131   0.535   3.340   0.497
   25SOL    MW4  132   0.465   3.288   0.489
   26SOL     OW  133   0.455   4.489   0.363
   26SOL    HW2  134   0.368   4.454   0.384
   26SOL    HW3  135   0.442   4.540   0.284
   26SOL    MW4  136   0.442   4.491   0.356
   27SOL     OW  137   0.244   0.224   0.348
   27SOL    HW2  138   0.169   0.188   0.397
   27SOL    HW3  139   0.320   0.182   0.388
   27SOL    MW4  140   0.244   0.213   0.360
   28SOL     OW  141   0.013   0.652   0.357
   28SOL    HW2  142   0.006   0.647   0.262
   28SOL    HW3  143   0.093   0.604   0.378
   28SOL    MW4  144   0.022   0.645   0.347
   29SOL     OW  145   0.906   4.401   0.361
   29SOL    HW2  146   0.955   4.324   0.391
   29SOL    HW3  147   0.819   4.391   0.401
   29SOL    MW4  148   0.901   4.390   0.370
   30SOL     OW  149   1.231   1.010   0.339
   30SOL    HW2  150   1.240   0.978   0.249
   30SOL    HW3  151   1.158   0.961   0.375
   30SOL    MW4  152   1.223   1.000   0.332
   31SOL     OW  153   0.697   0.470   0.461
   31SOL    HW2  154   0.774   0.510   0.422
   31SOL    HW3  155   0.718   0.377   0.467
   31SOL    MW4  156   0.710   0.463   0.456
   32SOL     OW  157   0.438   1.135   0.392
   32SOL    HW2  158   0.345   1.112   0.385
   32SOL    HW3  159   0.481   1.055   0.420
   32SOL    MW4  160   0.431   1.121   0.395
   33SOL     OW  161   0.495   1.853   0.380
   33SOL    HW2  162   0.587   1.828   0.371
   33SOL    HW3  163   0.449   1.771   0.397
   33SOL    MW4  164   0.501   1.839   0.381
   34SOL     OW  165   0.302   1.989   0.237
   34SOL    HW2  166   0.374   1.933   0.268
   34SOL    HW3  167   0.227   1.930   0.232
   34SOL    MW4  168   0.302   1.973   0.241
   35SOL     OW  169   0.796   2.669   0.332
   35SOL    HW2  170   0.879   2.628   0.357
   35SOL    HW3  171   0.815   2.763   0.333
   35SOL    MW4  172   0.810   2.676   0.335
   36SOL     OW  173   0.771   2.308   0.275
   36SOL    HW2  174   0.804   2.225   0.310
   36SOL    HW3  175   0.850   2.357   0.252
   36SOL    MW4  176   0.786   2.303   0.276
   37SOL     OW  177   3.964   2.278   0.304
   37SOL    HW2  178   3.982   2.211   0.370
   37SOL    HW3  179   3.999   2.359   0.342
   37SOL    MW4  180   3.971   2.280   0.318
   38SOL     OW  181   1.238   2.656   0.484
   38SOL    HW2  182   1.209   2.747   0.479
   38SOL    HW3  183   1.161   2.605   0.459
   38SOL    MW4  184   1.224   2.661   0.480
   39SOL     OW  185   0.519   2.556   0.295
   39SOL    HW2  186   0.611   2.570   0.272
   39SOL    HW3  187   0.477   2.640   0.278
   39SOL    MW4  188   0.525   2.569   0.290
   40SOL     OW  189   4.437   3.052   0.442
   40SOL    HW2  190   4.469   3.110   0.373
   40SOL    HW3  191   4.449   2.964   0.408
   40SOL    MW4  192   4.443   3.048   0.429
   41SOL     OW  193   0.417   2.833   0.314
   41SOL    HW2  194   0.404   2.898   0.245
   41SOL    HW3  195   0.461   2.881   0.385
   41SOL    MW4  196   0.421   2.848   0.315
   42SOL     OW  197   0.952   0.373   0.225
   42SOL    HW2  198   0.960   0.399   0.133
   42SOL    HW3  199   0.938   0.455   0.272
   42SOL    MW4  200   0.951   0.387   0.219
   43SOL     OW  201   0.122   3.630   0.481
   43SOL    HW2  202   0.159   3.714   0.454
   43SOL    HW3  203   0.165   3.565   0.424
   43SOL    MW4  204   0.133   3.632   0.470
   44SOL     OW  205   0.658   3.490   0.485
   44SOL    HW2  206   0.622   3.564   0.436
   44SOL    HW3  207   0.653   3.517   0.577
   44SOL    MW4  208   0.653   3.503   0.491
   45SOL     OW  209   1.149   3.636   0.490
   45SOL    HW2  210   1.058   3.625   0.463
   45SOL    HW3  211   1.182   3.547   0.501
   45SOL    MW4  212   1.141   3.623   0.488
   46SOL     OW  213   0.219   4.363   0.446
   46SOL    HW2  214   0.138   4.411   0.430
   46SOL    HW3  215   0.194   4.270   0.441
   46SOL    MW4  216   0.205   4.357   0.443
   47SOL     OW  217   0.903   3.624   0.385
   47SOL    HW2  218   0.887   3.701   0.330
   47SOL    HW3  219   0.815   3.595   0.411
   47SOL    MW4  220   0.889   3.630   0.381
   48SOL     OW  221   0.657   4.333   0.468
   48SOL    HW2  222   0.577   4.358   0.422
   48SOL    HW3  223   0.647   4.369   0.556
   48SOL    MW4  224   0.645   4.341   0.474
   49SOL     OW  225   0.759   0.203   0.362
   49SOL    HW2  226   0.824   0.136   0.383
   49SOL    HW3  227   0.803   0.261   0.300
   49SOL    MW4  228   0.773   0.202   0.357
   50SOL     OW  229   0.924   0.605   0.375
   50SOL    HW2  230   0.925   0.699   0.393
   50SOL    HW3  231   0.991   0.569   0.433
   50SOL    MW4  232   0.933   0.613   0.385
   51SOL     OW  233   0.491   0.653   0.412
   51SOL    HW2  234   0.412   0.602   0.391
   51SOL    HW3  235   0.560   0.588   0.424
   51SOL    MW4  236   0.489   0.638   0.411
   52SOL     OW  237   1.406   0.570   0.506
   52SOL    HW2  238   1.431   0.659   0.483
   52SOL    HW3  239   1.452   0.552   0.588
   52SOL    MW4  240   1.415   0.579   0.514
   53SOL     OW  241   1.782   0.643   0.502
   53SOL    HW2  242   1.756   0.735   0.496
   53SOL    HW3  243   1.782   0.612   0.412
   53SOL    MW4  244   1.779   0.651   0.490
   54SOL     OW  245   1.691   0.899   0.523
   54SOL    HW2  246   1.597   0.891   0.537
   54SOL    HW3  247   1.728   0.910   0.610
   54SOL    MW4  248   1.684   0.900   0.536
   55SOL     OW  249   0.494   1.412   0.348
   55SOL    HW2  250   0.571   1.404   0.405
   55SOL    HW3  251   0.453   1.326   0.351
   55SOL    MW4  252   0.499   1.400   0.356
   56SOL     OW  253   0.734   1.324   0.488
   56SOL    HW2  254   0.744   1.241   0.442
   56SOL    HW3  255   0.823   1.356   0.499
   56SOL    MW4  256   0.747   1.317   0.483
   57SOL     OW  257   1.261   1.447   0.324
   57SOL    HW2  258   1.275   1.522   0.382
   57SOL    HW3  259   1.279   1.480   0.236
   57SOL    MW4  260   1.265   1.461   0.320
   58SOL     OW  261   1.000   1.416   0.506
   58SOL    HW2  262   1.053   1.376   0.438
   58SOL    HW3  263   0.984   1.505   0.475
   58SOL    MW4  264   1.005   1.423   0.493
   59SOL     OW  265   0.967   1.689   0.460
   59SOL    HW2  266   1.062   1.686   0.452
   59SOL    HW3  267   0.950   1.677   0.554
   59SOL    MW4  268   0.977   1.687   0.471
   60SOL     OW  269   0.164   2.152   0.439
   60SOL    HW2  270   0.078   2.191   0.425
   60SOL    HW3  271   0.174   2.088   0.368
   60SOL    MW4  272   0.154   2.149   0.427
   61SOL     OW  273   0.768   1.795   0.304
   61SOL    HW2  274   0.738   1.717   0.258
   61SOL    HW3  275   0.836   1.762   0.363
   61SOL    MW4  276   0.773   1.781   0.306
   62SOL     OW  277   0.657   2.448   0.547
   62SOL    HW2  278   0.746   2.468   0.576
   62SOL    HW3  279   0.636   2.517   0.484
   62SOL    MW4  280   0.666   2.460   0.542
   63SOL     OW  281   0.600   2.103   0.494
   63SOL    HW2  282   0.686   2.078   0.460
   63SOL    HW3  283   0.540   2.037   0.460
   63SOL    MW4  284   0.603   2.091   0.485
   64SOL     OW  285   1.008   2.516   0.442
   64SOL    HW2  286   1.071   2.447   0.420
   64SOL    HW3  287   0.985   2.499   0.534
   64SOL    MW4  288   1.013   2.505   0.451
   65SOL     OW  289   0.413   2.228   0.216
   65SOL    HW2  290   0.411   2.256   0.125
   65SOL    HW3  291   0.369   2.142   0.216
   65SOL    MW4  292   0.407   2.220   0.204
   66SOL     OW  293   0.557   2.996   0.478
   66SOL    HW2  294   0.541   3.090   0.485
   66SOL    HW3  295   0.579   2.970   0.567
   66SOL    MW4  296   0.558   3.005   0.491
   67SOL     OW  297   0.846   3.255   0.491
   67SOL    HW2  298   0.849   3.250   0.586
   67SOL    HW3  299   0.789   3.329   0.472
   67SOL    MW4  300   0.839   3.264   0.501
   68SOL     OW  301   1.935   3.590   0.297
   68SOL    HW2  302   1.945   3.538   0.377
   68SOL    HW3  303   1.867   3.545   0.247
   68SOL    MW4  304   1.927   3.577   0.301
   69SOL     OW  305   0.716   4.071   0.407
   69SOL    HW2  306   0.719   4.165   0.423
   69SOL    HW3  307   0.770   4.033   0.476
   69SOL    MW4  308   0.723   4.078   0.418
   70SOL     OW  309   0.431   3.976   0.471
   70SOL    HW2  310   0.439   3.977   0.566
   70SOL    HW3  311   0.484   4.049   0.441
   70SOL    MW4  312   0.439   3.985   0.479
   71SOL     OW  313   1.047   4.191   0.478
   71SOL    HW2  314   0.998   4.117   0.513
   71SOL    HW3  315   1.070   4.243   0.555
   71SOL    MW4  316   1.043   4.188   0.492
   72SOL     OW  317   1.129   0.485   0.533
   72SOL    HW2  318   1.137   0.399   0.490
   72SOL    HW3  319   1.217   0.523   0.525
   72SOL    MW4  320   1.142   0.479   0.526
   73SOL     OW  321   0.951   0.024   0.438
   73SOL    HW2  322   0.945  -0.071   0.426
   73SOL    HW3  323   0.937   0.037   0.532
   73SOL    MW4  324   0.948   0.013   0.449
   74SOL     OW  325   1.391   0.143   0.477
   74SOL    HW2  326   1.299   0.163   0.463
   74SOL    HW3  327   1.438   0.216   0.437
   74SOL    MW4  328   1.385   0.155   0.470
   75SOL     OW  329   1.990   4.351   0.199
   75SOL    HW2  330   1.967   4.307   0.117
   75SOL    HW3  331   1.912   4.402   0.222
   75SOL    MW4  332   1.977   4.352   0.191
   76SOL     OW  333   1.130   0.244   0.404
   76SOL    HW2  334   1.083   0.161   0.399
   76SOL    HW3  335   1.097   0.295   0.330
   76SOL    MW4  336   1.120   0.240   0.394
   77SOL     OW  337   2.045   0.567   0.503
   77SOL    HW2  338   1.966   0.621   0.496
   77SOL    HW3  339   2.014   0.477   0.494
   77SOL    MW4  340   2.030   0.562   0.501
   78SOL     OW  341   2.717   0.873   0.490
   78SOL    HW2  342   2.793   0.839   0.443
   78SOL    HW3  343   2.646   0.813   0.467
   78SOL    MW4  344   2.717   0.861   0.481
   79SOL     OW  345   1.954   1.283   0.492
   79SOL    HW2  346   1.869   1.240   0.482
   79SOL    HW3  347   1.940   1.373   0.462
   79SOL    MW4  348   1.941   1.289   0.487
   80SOL     OW  349   1.686   1.186   0.490
   80SOL    HW2  350   1.691   1.091   0.492
   80SOL    HW3  351   1.613   1.205   0.431
   80SOL    MW4  352   1.677   1.176   0.482
   81SOL     OW  353   1.410   1.223   0.387
   81SOL    HW2  354   1.340   1.160   0.373
   81SOL    HW3  355   1.370   1.308   0.367
   81SOL    MW4  356   1.395   1.226   0.383
   82SOL     OW  357   1.258   1.701   0.451
   82SOL    HW2  358   1.297   1.707   0.539
   82SOL    HW3  359   1.301   1.771   0.402
   82SOL    MW4  360   1.269   1.711   0.456
   83SOL     OW  361   1.183   2.326   0.356
   83SOL    HW2  362   1.277   2.340   0.368
   83SOL    HW3  363   1.169   2.234   0.380
   83SOL    MW4  364   1.193   2.316   0.361
   84SOL     OW  365   1.465   2.603   0.317
   84SOL    HW2  366   1.430   2.613   0.229
   84SOL    HW3  367   1.396   2.637   0.375
   84SOL    MW4  368   1.451   2.609   0.313
   85SOL     OW  369   1.942   2.036   0.285
   85SOL    HW2  370   1.972   2.040   0.194
   85SOL    HW3  371   2.022   2.024   0.336
   85SOL    MW4  372   1.957   2.035   0.279
   86SOL     OW  373   1.608   2.027   0.490
   86SOL    HW2  374   1.649   2.100   0.444
   86SOL    HW3  375   1.657   1.950   0.464
   86SOL    MW4  376   1.620   2.027   0.481
   87SOL     OW  377   0.849   2.057   0.368
   87SOL    HW2  378   0.938   2.052   0.403
   87SOL    HW3  379   0.832   1.969   0.334
   87SOL    MW4  380   0.859   2.045   0.368
   88SOL     OW  381   0.811   2.954   0.389
   88SOL    HW2  382   0.716   2.958   0.401
   88SOL    HW3  383   0.837   3.046   0.380
   88SOL    MW4  384   0.802   2.967   0.389
   89SOL     OW  385   2.078   2.525   0.396
   89SOL    HW2  386   2.083   2.621   0.395
   89SOL    HW3  387   2.166   2.497   0.423
   89SOL    MW4  388   2.090   2.534   0.399
   90SOL     OW  389   1.778   0.443   0.264
   90SOL    HW2  390   1.701   0.416   0.314
   90SOL    HW3  391   1.744   0.467   0.178
   90SOL    MW4  392   1.763   0.443   0.259
   91SOL     OW  393   1.358   3.789   0.418
   91SOL    HW2  394   1.281   3.735   0.432
   91SOL    HW3  395   1.326   3.879   0.426
   91SOL    MW4  396   1.344   3.794   0.421
   92SOL     OW  397   1.670   2.735   0.463
   92SOL    HW2  398   1.634   2.787   0.535
   92SOL    HW3  399   1.594   2.694   0.422
   92SOL    MW4  400   1.655   2.737   0.467
   93SOL     OW  401   1.502   3.717   0.187
   93SOL    HW2  402   1.449   3.746   0.261
   93SOL    HW3  403   1.457   3.752   0.110
   93SOL    MW4  404   1.489   3.725   0.187
   94SOL     OW  405   1.097   3.216   0.379
   94SOL    HW2  406   1.077   3.226   0.286
   94SOL    HW3  407   1.021   3.253   0.424
   94SOL    MW4  408   1.084   3.222   0.372
   95SOL     OW  409   2.187   3.782   0.362
   95SOL    HW2  410   2.123   3.737   0.307
   95SOL    HW3  411   2.248   3.714   0.389
   95SOL    MW4  412   2.186   3.767   0.358
   96SOL     OW  413   0.763   3.862   0.234
   96SOL    HW2  414   0.728   3.941   0.275
   96SOL    HW3  415   0.756   3.878   0.140
   96SOL    MW4  416   0.757   3.874   0.227
   97SOL     OW  417   1.712   4.435   0.303
   97SOL    HW2  418   1.664   4.508   0.341
   97SOL    HW3  419   1.660   4.358   0.323
   97SOL    MW4  420   1.699   4.434   0.311
   98SOL     OW  421   1.766   0.006   0.689
   98SOL    HW2  422   1.688  -0.018   0.739
   98SOL    HW3  423   1.745  -0.018   0.599
   98SOL    MW4  424   1.753  -0.001   0.684
   99SOL     OW  425   1.944   0.309   0.447
   99SOL    HW2  426   1.873   0.301   0.511
   99SOL    HW3  427   1.904   0.350   0.371
   99SOL    MW4  428   1.930   0.313   0.446
  100SOL     OW  429   1.319   4.073   0.445
  100SOL    HW2  430   1.242   4.130   0.437
  100SOL    HW3  431   1.393   4.133   0.436
  100SOL    MW4  432   1.318   4.089   0.443
  101SOL     OW  433   2.303   0.589   0.360
  101SOL    HW2  434   2.237   0.582   0.429
  101SOL    HW3  435   2.251   0.600   0.280
  101SOL    MW4  436   2.287   0.589   0.358
  102SOL     OW  437   1.790   1.840   0.413
  102SOL    HW2  438   1.826   1.815   0.498
  102SOL    HW3  439   1.849   1.907   0.379
  102SOL    MW4  440   1.802   1.845   0.419
  103SOL     OW  441   2.207   1.107   0.536
  103SOL    HW2  442   2.292   1.150   0.546
  103SOL    HW3  443   2.149   1.175   0.502
  103SOL    MW4  444   2.210   1.122   0.533
  104SOL     OW  445   2.450   1.268   0.564
  104SOL    HW2  446   2.534   1.236   0.530
  104SOL    HW3  447   2.440   1.354   0.523
  104SOL    MW4  448   2.460   1.275   0.554
  105SOL     OW  449   2.196   1.699   0.474
  105SOL    HW2  450   2.174   1.792   0.475
  105SOL    HW3  451   2.116   1.655   0.444
  105SOL    MW4  452   2.183   1.705   0.470
  106SOL     OW  453   1.845   1.697   0.660
  106SOL    HW2  454   1.917   1.686   0.722
  106SOL    HW3  455   1.769   1.660   0.705
  106SOL    MW4  456   1.844   1.690   0.674
  107SOL     OW  457   1.380   1.937   0.349
  107SOL    HW2  458   1.453   1.975   0.398
  107SOL    HW3  459   1.395   1.965   0.259
  107SOL    MW4  460   1.392   1.946   0.343
  108SOL     OW  461   2.335   2.421   0.485
  108SOL    HW2  462   2.404   2.484   0.462
  108SOL    HW3  463   2.316   2.438   0.577
  108SOL    MW4  464   2.342   2.432   0.494
  109SOL     OW  465   1.781   3.256   0.482
  109SOL    HW2  466   1.711   3.305   0.438
  109SOL    HW3  467   1.855   3.317   0.485
  109SOL    MW4  468   1.781   3.270   0.477
  110SOL     OW  469   1.092   2.915   0.476
  110SOL    HW2  470   1.109   3.009   0.465
  110SOL    HW3  471   1.000   2.904   0.452
  110SOL    MW4  472   1.082   2.926   0.472
  111SOL     OW  473   1.525   3.403   0.410
  111SOL    HW2  474   1.556   3.430   0.324
  111SOL    HW3  475   1.531   3.482   0.464
  111SOL    MW4  476   1.530   3.417   0.406
  112SOL     OW  477   1.134   2.056   0.434
  112SOL    HW2  478   1.133   2.059   0.530
  112SOL    HW3  479   1.212   2.006   0.413
  112SOL    MW4  480   1.144   2.050   0.444
  113SOL     OW  481   3.617   1.769   0.241
  113SOL    HW2  482   3.667   1.844   0.273
  113SOL    HW3  483   3.668   1.692   0.268
  113SOL    MW4  484   3.630   1.769   0.249
  114SOL     OW  485   1.821   2.495   0.485
  114SOL    HW2  486   1.910   2.491   0.449
  114SOL    HW3  487   1.791   2.583   0.463
  114SOL    MW4  488   1.829   2.506   0.477
  115SOL     OW  489   1.449   2.351   0.427
  115SOL    HW2  490   1.531   2.306   0.409
  115SOL    HW3  491   1.463   2.440   0.392
  115SOL    MW4  492   1.462   2.357   0.420
  116SOL     OW  493   1.259   3.385   0.516
  116SOL    HW2  494   1.347   3.372   0.481
  116SOL    HW3  495   1.205   3.323   0.466
  116SOL    MW4  496   1.263   3.375   0.505
  117SOL     OW  497   2.221   3.280   0.520
  117SOL    HW2  498   2.171   3.201   0.499
  117SOL    HW3  499   2.239   3.272   0.614
  117SOL    MW4  500   2.217   3.269   0.530
  118SOL     OW  501   1.755   4.041   0.497
  118SOL    HW2  502   1.755   3.956   0.451
  118SOL    HW3  503   1.839   4.080   0.473
  118SOL    MW4  504   1.766   4.035   0.487
  119SOL     OW  505   1.568   3.689   0.551
  119SOL    HW2  506   1.488   3.728   0.516
  119SOL    HW3  507   1.639   3.727   0.499
  119SOL    MW4  508   1.567   3.699   0.540
  120SOL     OW  509   1.545   4.220   0.415
  120SOL    HW2  510   1.523   4.270   0.493
  120SOL    HW3  511   1.616   4.162   0.443
  120SOL    MW4  512   1.552   4.219   0.429
  121SOL     OW  513   1.595   4.615   0.483
  121SOL    HW2  514   1.514   4.664   0.467
  121SOL    HW3  515   1.569   4.546   0.544
  121SOL    MW4  516   1.581   4.612   0.489
  122SOL     OW  517   2.169   4.539   0.550
  122SOL    HW2  518   2.250   4.509   0.592
  122SOL    HW3  519   2.100   4.499   0.602
  122SOL    MW4  520   2.171   4.530   0.562
  123SOL     OW  521   2.192   0.134   0.490
  123SOL    HW2  522   2.187   0.039   0.498
  123SOL    HW3  523   2.111   0.158   0.444
  123SOL    MW4  524   2.181   0.124   0.485
  124SOL     OW  525   2.825   1.433   0.366
  124SOL    HW2  526   2.778   1.513   0.390
  124SOL    HW3  527   2.768   1.362   0.394
  124SOL    MW4  528   2.811   1.434   0.373
  125SOL     OW  529   2.770   0.551   0.380
  125SOL    HW2  530   2.835   0.621   0.373
  125SOL    HW3  531   2.691   0.595   0.413
  125SOL    MW4  532   2.768   0.566   0.384
  126SOL     OW  533   2.537   0.664   0.474
  126SOL    HW2  534   2.519   0.621   0.558
  126SOL    HW3  535   2.460   0.645   0.421
  126SOL    MW4  536   2.525   0.656   0.478
  127SOL     OW  537   2.705   1.177   0.496
  127SOL    HW2  538   2.698   1.082   0.511
  127SOL    HW3  539   2.769   1.206   0.561
  127SOL    MW4  540   2.713   1.168   0.507
  128SOL     OW  541   2.686   1.653   0.433
  128SOL    HW2  542   2.734   1.734   0.414
  128SOL    HW3  543   2.670   1.656   0.527
  128SOL    MW4  544   2.690   1.664   0.443
  129SOL     OW  545   3.102   1.849   0.354
  129SOL    HW2  546   3.128   1.904   0.428
  129SOL    HW3  547   3.185   1.823   0.314
  129SOL    MW4  548   3.117   1.853   0.359
  130SOL     OW  549   2.986   4.528   0.504
  130SOL    HW2  550   3.048   4.594   0.534
  130SOL    HW3  551   2.960   4.481   0.584
  130SOL    MW4  552   2.991   4.530   0.519
  131SOL     OW  553   2.151   1.971   0.470
  131SOL    HW2  554   2.126   1.998   0.558
  131SOL    HW3  555   2.236   2.012   0.455
  131SOL    MW4  556   2.159   1.980   0.479
  132SOL     OW  557   1.613   1.543   0.741
  132SOL    HW2  558   1.617   1.582   0.829
  132SOL    HW3  559   1.533   1.580   0.703
  132SOL    MW4  560   1.603   1.553   0.748
  133SOL     OW  561   2.413   2.144   0.457
  133SOL    HW2  562   2.418   2.240   0.464
  133SOL    HW3  563   2.472   2.123   0.384
  133SOL    MW4  564   2.422   2.154   0.448
  134SOL     OW  565   2.668   2.118   0.298
  134SOL    HW2  566   2.725   2.187   0.333
  134SOL    HW3  567   2.701   2.037   0.337
  134SOL    MW4  568   2.680   2.117   0.308
  135SOL     OW  569   2.620   2.907   0.510
  135SOL    HW2  570   2.628   3.002   0.511
  135SOL    HW3  571   2.562   2.887   0.583
  135SOL    MW4  572   2.613   2.917   0.520
  136SOL     OW  573   1.736   2.238   0.377
  136SOL    HW2  574   1.804   2.190   0.331
  136SOL    HW3  575   1.776   2.322   0.399
  136SOL    MW4  576   1.750   2.243   0.374
  137SOL     OW  577   1.970   2.807   0.490
  137SOL    HW2  578   1.970   2.798   0.586
  137SOL    HW3  579   1.878   2.804   0.465
  137SOL    MW4  580   1.958   2.806   0.500
  138SOL     OW  581   2.230   4.058   0.497
  138SOL    HW2  582   2.295   4.118   0.461
  138SOL    HW3  583   2.211   3.998   0.425
  138SOL    MW4  584   2.236   4.058   0.483
  139SOL     OW  585   2.493   4.121   0.191
  139SOL    HW2  586   2.505   4.031   0.220
  139SOL    HW3  587   2.512   4.119   0.097
  139SOL    MW4  588   2.497   4.109   0.182
  140SOL     OW  589   1.747   3.793   0.350
  140SOL    HW2  590   1.701   3.768   0.271
  140SOL    HW3  591   1.819   3.730   0.357
  140SOL    MW4  592   1.750   3.781   0.341
  141SOL     OW  593   1.988   3.431   0.513
  141SOL    HW2  594   2.071   3.384   0.515
  141SOL    HW3  595   1.990   3.488   0.590
  141SOL    MW4  596   1.999   3.432   0.524
  142SOL     OW  597   2.226   4.465   0.290
  142SOL    HW2  598   2.143   4.443   0.246
  142SOL    HW3  599   2.201   4.481   0.381
  142SOL    MW4  600   2.212   4.464   0.296
  143SOL     OW  601   1.977   4.189   0.447
  143SOL    HW2  602   2.062   4.150   0.466
  143SOL    HW3  603   1.994   4.254   0.379
  143SOL    MW4  604   1.990   4.192   0.441
  144SOL     OW  605   3.190   0.058   0.556
  144SOL    HW2  606   3.155   0.127   0.500
  144SOL    HW3  607   3.177   0.090   0.645
  144SOL    MW4  608   3.184   0.071   0.561
  145SOL     OW  609   2.506   3.844   0.255
  145SOL    HW2  610   2.580   3.788   0.279
  145SOL    HW3  611   2.433   3.811   0.308
  145SOL    MW4  612   2.506   3.832   0.265
  146SOL     OW  613   2.403   4.272   0.411
  146SOL    HW2  614   2.337   4.329   0.371
  146SOL    HW3  615   2.439   4.222   0.338
  146SOL    MW4  616   2.399   4.273   0.396
  147SOL     OW  617   2.379   0.327   0.458
  147SOL    HW2  618   2.355   0.389   0.389
  147SOL    HW3  619   2.306   0.265   0.460
  147SOL    MW4  620   2.366   0.327   0.449
  148SOL     OW  621   1.560   0.368   0.402
  148SOL    HW2  622   1.514   0.449   0.422
  148SOL    HW3  623   1.610   0.349   0.481
  148SOL    MW4  624   1.560   0.376   0.415
  149SOL     OW  625   3.309   0.451   0.481
  149SOL    HW2  626   3.295   0.546   0.476
  149SOL    HW3  627   3.379   0.434   0.419
  149SOL    MW4  628   3.316   0.462   0.472
  150SOL     OW  629   2.435   1.523   0.455
  150SOL    HW2  630   2.370   1.591   0.435
  150SOL    HW3  631   2.519   1.570   0.453
  150SOL    MW4  632   2.437   1.538   0.452
  151SOL     OW  633   2.962   0.747   0.395
  151SOL    HW2  634   3.040   0.698   0.421
  151SOL    HW3  635   2.994   0.813   0.334
  151SOL    MW4  636   2.977   0.749   0.390
  152SOL     OW  637   3.079   1.553   0.426
  152SOL    HW2  638   3.015   1.496   0.383
  152SOL    HW3  639   3.044   1.642   0.415
  152SOL    MW4  640   3.066   1.557   0.419
  153SOL     OW  641   3.590   1.467   0.291
  153SOL    HW2  642   3.606   1.383   0.247
  153SOL    HW3  643   3.518   1.450   0.351
  153SOL    MW4  644   3.583   1.454   0.293
  154SOL     OW  645   3.801   1.564   0.448
  154SOL    HW2  646   3.753   1.517   0.380
  154SOL    HW3  647   3.747   1.554   0.527
  154SOL    MW4  648   3.787   1.557   0.449
  155SOL     OW  649   2.671   0.143   0.752
  155SOL    HW2  650   2.676   0.236   0.774
  155SOL    HW3  651   2.674   0.141   0.656
  155SOL    MW4  652   2.672   0.155   0.742
  156SOL     OW  653   3.160   1.988   0.598
  156SOL    HW2  654   3.067   1.973   0.615
  156SOL    HW3  655   3.205   1.941   0.669
  156SOL    MW4  656   3.153   1.980   0.610
  157SOL     OW  657   2.788   2.331   0.429
  157SOL    HW2  658   2.850   2.404   0.422
  157SOL    HW3  659   2.750   2.340   0.516
  157SOL    MW4  660   2.791   2.342   0.439
  158SOL     OW  661   2.832   1.899   0.414
  158SOL    HW2  662   2.844   1.954   0.491
  158SOL    HW3  663   2.915   1.904   0.367
  158SOL    MW4  664   2.844   1.907   0.418
  159SOL     OW  665   2.588   2.609   0.427
  159SOL    HW2  666   2.589   2.704   0.432
  159SOL    HW3  667   2.627   2.588   0.343
  159SOL    MW4  668   2.593   2.618   0.417
  160SOL     OW  669   2.703   3.191   0.503
  160SOL    HW2  670   2.773   3.223   0.446
  160SOL    HW3  671   2.721   3.231   0.588
  160SOL    MW4  672   2.715   3.200   0.507
  161SOL     OW  673   2.932   3.297   0.386
  161SOL    HW2  674   3.017   3.253   0.382
  161SOL    HW3  675   2.952   3.383   0.423
  161SOL    MW4  676   2.946   3.303   0.390
  162SOL     OW  677   3.199   3.160   0.431
  162SOL    HW2  678   3.213   3.065   0.427
  162SOL    HW3  679   3.214   3.183   0.522
  162SOL    MW4  680   3.202   3.150   0.442
  163SOL     OW  681   2.459   3.328   0.380
  163SOL    HW2  682   2.513   3.281   0.443
  163SOL    HW3  683   2.369   3.319   0.413
  163SOL    MW4  684   2.454   3.320   0.392
  164SOL     OW  685   1.708   3.459   0.183
  164SOL    HW2  686   1.708   3.380   0.130
  164SOL    HW3  687   1.639   3.513   0.145
  164SOL    MW4  688   1.699   3.456   0.171
  165SOL     OW  689   3.440   3.644   0.286
  165SOL    HW2  690   3.424   3.622   0.194
  165SOL    HW3  691   3.464   3.561   0.327
  165SOL    MW4  692   3.441   3.630   0.279
  166SOL     OW  693   2.680   3.638   0.380
  166SOL    HW2  694   2.593   3.628   0.418
  166SOL    HW3  695   2.688   3.564   0.320
  166SOL    MW4  696   2.670   3.627   0.377
  167SOL     OW  697   2.391   3.596   0.443
  167SOL    HW2  698   2.402   3.604   0.538
  167SOL    HW3  699   2.413   3.505   0.424
  167SOL    MW4  700   2.396   3.585   0.453
  168SOL     OW  701   3.374   3.897   0.404
  168SOL    HW2  702   3.394   3.819   0.352
  168SOL    HW3  703   3.333   3.862   0.484
  168SOL    MW4  704   3.371   3.882   0.408
  169SOL     OW  705   3.127   4.375   0.297
  169SOL    HW2  706   3.087   4.298   0.336
  169SOL    HW3  707   3.081   4.449   0.336
  169SOL    MW4  708   3.116   4.375   0.307
  170SOL     OW  709   3.447   0.093   0.473
  170SOL    HW2  710   3.476   0.009   0.436
  170SOL    HW3  711   3.362   0.074   0.512
  170SOL    MW4  712   3.440   0.080   0.473
  171SOL     OW  713   3.357   4.350   0.470
  171SOL    HW2  714   3.282   4.337   0.411
  171SOL    HW3  715   3.411   4.415   0.425
  171SOL    MW4  716   3.354   4.357   0.456
  172SOL     OW  717   2.716   4.183   0.469
  172SOL    HW2  718   2.812   4.186   0.469
  172SOL    HW3  719   2.694   4.092   0.448
  172SOL    MW4  720   2.726   4.171   0.466
  173SOL     OW  721   2.630   0.152   0.468
  173SOL    HW2  722   2.543   0.190   0.454
  173SOL    HW3  723   2.689   0.227   0.475
  173SOL    MW4  724   2.626   0.167   0.467
  174SOL     OW  725   3.234   0.719   0.491
  174SOL    HW2  726   3.193   0.756   0.570
  174SOL    HW3  727   3.235   0.791   0.428
  174SOL    MW4  728   3.228   0.733   0.493
  175SOL     OW  729   3.113   0.262   0.386
  175SOL    HW2  730   3.159   0.241   0.304
  175SOL    HW3  731   3.151   0.345   0.414
  175SOL    MW4  732   3.124   0.270   0.379
  176SOL     OW  733   3.565   0.970   0.472
  176SOL    HW2  734   3.564   0.882   0.433
  176SOL    HW3  735   3.559   0.955   0.566
  176SOL    MW4  736   3.564   0.956   0.479
  177SOL     OW  737   2.843   0.336   0.514
  177SOL    HW2  738   2.918   0.298   0.468
  177SOL    HW3  739   2.814   0.408   0.458
  177SOL    MW4  740   2.849   0.340   0.501
  178SOL     OW  741   3.402   1.714   0.600
  178SOL    HW2  742   3.395   1.728   0.505
  178SOL    HW3  743   3.314   1.686   0.626
  178SOL    MW4  744   3.389   1.713   0.591
  179SOL     OW  745   3.349   1.726   0.327
  179SOL    HW2  746   3.343   1.631   0.321
  179SOL    HW3  747   3.433   1.748   0.286
  179SOL    MW4  748   3.360   1.716   0.321
  180SOL     OW  749   3.381   1.182   0.508
  180SOL    HW2  750   3.410   1.222   0.590
  180SOL    HW3  751   3.444   1.112   0.491
  180SOL    MW4  752   3.393   1.178   0.516
  181SOL     OW  753   3.854   1.841   0.479
  181SOL    HW2  754   3.833   1.750   0.455
  181SOL    HW3  755   3.790   1.863   0.547
  181SOL    MW4  756   3.843   1.832   0.485
  182SOL     OW  757   3.307   2.242   0.607
  182SOL    HW2  758   3.254   2.163   0.619
  182SOL    HW3  759   3.384   2.227   0.663
  182SOL    MW4  760   3.310   2.230   0.616
  183SOL     OW  761   3.528   2.668   0.572
  183SOL    HW2  762   3.563   2.625   0.650
  183SOL    HW3  763   3.463   2.607   0.538
  183SOL    MW4  764   3.524   2.654   0.578
  184SOL     OW  765   2.015   3.078   0.511
  184SOL    HW2  766   1.927   3.114   0.500
  184SOL    HW3  767   2.005   2.984   0.494
  184SOL    MW4  768   2.002   3.070   0.507
  185SOL     OW  769   3.227   2.674   0.303
  185SOL    HW2  770   3.247   2.674   0.209
  185SOL    HW3  771   3.278   2.601   0.338
  185SOL    MW4  772   3.236   2.664   0.295
  186SOL     OW  773   2.929   2.848   0.779
  186SOL    HW2  774   2.908   2.848   0.685
  186SOL    HW3  775   2.997   2.781   0.788
  186SOL    MW4  776   2.935   2.839   0.767
  187SOL     OW  777   3.514   0.338   0.316
  187SOL    HW2  778   3.494   0.263   0.371
  187SOL    HW3  779   3.609   0.335   0.303
  187SOL    MW4  780   3.524   0.328   0.321
  188SOL     OW  781   3.004   4.151   0.476
  188SOL    HW2  782   3.052   4.117   0.400
  188SOL    HW3  783   3.034   4.096   0.549
  188SOL    MW4  784   3.014   4.139   0.476
  189SOL     OW  785   3.414   3.549   0.652
  189SOL    HW2  786   3.416   3.486   0.580
  189SOL    HW3  787   3.350   3.513   0.713
  189SOL    MW4  788   3.406   3.536   0.650
  190SOL     OW  789   3.689   3.225   0.428
  190SOL    HW2  790   3.746   3.299   0.406
  190SOL    HW3  791   3.746   3.149   0.426
  190SOL    MW4  792   3.704   3.225   0.425
  191SOL     OW  793   3.422   3.343   0.417
  191SOL    HW2  794   3.344   3.291   0.402
  191SOL    HW3  795   3.490   3.279   0.438
  191SOL    MW4  796   3.421   3.328   0.418
  192SOL     OW  797   2.758   3.881   0.512
  192SOL    HW2  798   2.852   3.863   0.503
  192SOL    HW3  799   2.715   3.803   0.477
  192SOL    MW4  800   2.765   3.868   0.506
  193SOL     OW  801   2.711   3.416   0.217
  193SOL    HW2  802   2.630   3.368   0.232
  193SOL    HW3  803   2.780   3.357   0.247
  193SOL    MW4  804   2.709   3.402   0.223
  194SOL     OW  805   4.294   0.241   0.337
  194SOL    HW2  806   4.372   0.198   0.372
  194SOL    HW3  807   4.307   0.241   0.242
  194SOL    MW4  808   4.306   0.235   0.329
  195SOL     OW  809   3.839   0.324   0.317
  195SOL    HW2  810   3.866   0.409   0.351
  195SOL    HW3  811   3.893   0.261   0.365
  195SOL    MW4  812   3.850   0.327   0.328
  196SOL     OW  813   3.643   0.710   0.323
  196SOL    HW2  814   3.660   0.621   0.291
  196SOL    HW3  815   3.708   0.764   0.277
  196SOL    MW4  816   3.654   0.705   0.313
  197SOL     OW  817   3.849   0.880   0.215
  197SOL    HW2  818   3.870   0.941   0.286
  197SOL    HW3  819   3.922   0.818   0.213
  197SOL    MW4  820   3.862   0.880   0.224
  198SOL     OW  821   4.083   0.685   0.379
  198SOL    HW2  822   4.139   0.609   0.393
  198SOL    HW3  823   3.997   0.658   0.412
  198SOL    MW4  824   4.079   0.671   0.385
  199SOL     OW  825   4.443   0.895   0.497
  199SOL    HW2  826   4.347   0.901   0.504
  199SOL    HW3  827   4.458   0.811   0.454
  199SOL    MW4  828   4.432   0.884   0.492
  200SOL     OW  829   3.878   1.037   0.436
  200SOL    HW2  830   3.881   1.132   0.442
  200SOL    HW3  831   3.785   1.015   0.450
  200SOL    MW4  832   3.866   1.047   0.438
  201SOL     OW  833   4.133   1.684   0.505
  201SOL    HW2  834   4.072   1.727   0.446
  201SOL    HW3  835   4.207   1.744   0.511
  201SOL    MW4  836   4.135   1.698   0.498
  202SOL     OW  837   3.928   1.314   0.487
  202SOL    HW2  838   4.023   1.320   0.479
  202SOL    HW3  839   3.897   1.405   0.481
  202SOL    MW4  840   3.936   1.327   0.485
  203SOL     OW  841   3.345   1.447   0.422
  203SOL    HW2  842   3.350   1.355   0.445
  203SOL    HW3  843   3.254   1.472   0.441
  203SOL    MW4  844   3.334   1.438   0.428
  204SOL     OW  845   3.167   0.970   0.369
  204SOL    HW2  846   3.228   1.044   0.371
  204SOL    HW3  847   3.126   0.972   0.456
  204SOL    MW4  848   3.170   0.980   0.381
  205SOL     OW  849   3.615   2.352   0.301
  205SOL    HW2  850   3.696   2.344   0.251
  205SOL    HW3  851   3.603   2.267   0.343
  205SOL    MW4  852   3.624   2.340   0.300
  206SOL     OW  853   4.206   2.693   0.481
  206SOL    HW2  854   4.191   2.601   0.459
  206SOL    HW3  855   4.119   2.732   0.483
  206SOL    MW4  856   4.192   2.686   0.478
  207SOL     OW  857   2.973   2.539   0.439
  207SOL    HW2  858   3.024   2.520   0.518
  207SOL    HW3  859   3.035   2.583   0.381
  207SOL    MW4  860   2.988   2.542   0.442
  208SOL     OW  861   2.920   3.586   0.524
  208SOL    HW2  862   2.979   3.649   0.482
  208SOL    HW3  863   2.832   3.612   0.496
  208SOL    MW4  864   2.916   3.598   0.515
  209SOL     OW  865   3.187   2.884   0.487
  209SOL    HW2  866   3.213   2.820   0.420
  209SOL    HW3  867   3.092   2.873   0.494
  209SOL    MW4  868   3.178   2.874   0.479
  210SOL     OW  869   3.946   2.779   0.541
  210SOL    HW2  870   3.893   2.733   0.475
  210SOL    HW3  871   3.948   2.870   0.512
  210SOL    MW4  872   3.939   2.785   0.529
  211SOL     OW  873   3.749   2.630   0.400
  211SOL    HW2  874   3.723   2.546   0.364
  211SOL    HW3  875   3.685   2.648   0.469
  211SOL    MW4  876   3.737   2.621   0.404
  212SOL     OW  877   4.138   3.617   0.466
  212SOL    HW2  878   4.116   3.535   0.421
  212SOL    HW3  879   4.058   3.669   0.462
  212SOL    MW4  880   4.125   3.613   0.459
  213SOL     OW  881   3.391   2.467   0.429
  213SOL    HW2  882   3.368   2.402   0.496
  213SOL    HW3  883   3.452   2.421   0.371
  213SOL    MW4  884   3.396   2.452   0.430
  214SOL     OW  885   3.040   3.817   0.472
  214SOL    HW2  886   3.078   3.872   0.403
  214SOL    HW3  887   3.057   3.865   0.553
  214SOL    MW4  888   3.047   3.830   0.473
  215SOL     OW  889   4.379   3.674   0.333
  215SOL    HW2  890   4.315   3.680   0.404
  215SOL    HW3  891   4.464   3.675   0.377
  215SOL    MW4  892   4.382   3.675   0.349
  216SOL     OW  893   3.524   4.137   0.427
  216SOL    HW2  894   3.468   4.212   0.449
  216SOL    HW3  895   3.463   4.068   0.400
  216SOL    MW4  896   3.508   4.138   0.427
  217SOL     OW  897   3.730   4.352   0.476
  217SOL    HW2  898   3.677   4.278   0.447
  217SOL    HW3  899   3.713   4.357   0.570
  217SOL    MW4  900   3.721   4.343   0.485
  218SOL     OW  901   0.013   0.109   0.467
  218SOL    HW2  902  -0.001   0.015   0.451
  218SOL    HW3  903   0.013   0.117   0.562
  218SOL    MW4  904   0.011   0.098   0.478
  219SOL     OW  905   4.162   0.907   0.513
  219SOL    HW2  906   4.104   0.976   0.481
  219SOL    HW3  907   4.141   0.831   0.459
  219SOL    MW4  908   4.151   0.906   0.502
  220SOL     OW  909   0.399   1.617   0.491
  220SOL    HW2  910   0.417   1.531   0.453
  220SOL    HW3  911   0.304   1.619   0.502
  220SOL    MW4  912   0.389   1.606   0.487
  221SOL     OW  913   4.282   0.508   0.433
  221SOL    HW2  914   4.290   0.414   0.415
  221SOL    HW3  915   4.369   0.543   0.416
  221SOL    MW4  916   4.295   0.500   0.428
  222SOL     OW  917   0.129   1.137   0.448
  222SOL    HW2  918   0.081   1.058   0.471
  222SOL    HW3  919   0.065   1.193   0.404
  222SOL    MW4  920   0.115   1.134   0.445
  223SOL     OW  921   3.558   4.524   0.346
  223SOL    HW2  922   3.632   4.473   0.378
  223SOL    HW3  923   3.568   4.525   0.251
  223SOL    MW4  924   3.569   4.517   0.337
  224SOL     OW  925   4.192   1.407   0.471
  224SOL    HW2  926   4.233   1.384   0.555
  224SOL    HW3  927   4.178   1.501   0.476
  224SOL    MW4  928   4.196   1.416   0.483
  225SOL     OW  929   4.452   1.334   0.331
  225SOL    HW2  930   4.361   1.361   0.346
  225SOL    HW3  931   4.463   1.340   0.236
  225SOL    MW4  932   4.441   1.338   0.321
  226SOL     OW  933   4.265   2.329   0.159
  226SOL    HW2  934   4.174   2.298   0.163
  226SOL    HW3  935   4.269   2.382   0.080
  226SOL    MW4  936   4.253   2.332   0.149
  227SOL     OW  937   4.372   1.839   0.529
  227SOL    HW2  938   4.350   1.929   0.554
  227SOL    HW3  939   4.431   1.809   0.598
  227SOL    MW4  940   4.377   1.847   0.541
  228SOL     OW  941   4.406   2.287   0.426
  228SOL    HW2  942   4.438   2.375   0.446
  228SOL    HW3  943   4.382   2.290   0.334
  228SOL    MW4  944   4.407   2.299   0.417
  229SOL     OW  945   4.270   2.104   0.582
  229SOL    HW2  946   4.179   2.111   0.555
  229SOL    HW3  947   4.315   2.172   0.532
  229SOL    MW4  948   4.264   2.114   0.572
  230SOL     OW  949   0.015   2.524   0.516
  230SOL    HW2  950   0.082   2.593   0.514
  230SOL    HW3  951   0.014   2.494   0.607
  230SOL    MW4  952   0.024   2.529   0.528
  231SOL     OW  953   4.091   3.388   0.288
  231SOL    HW2  954   4.168   3.411   0.236
  231SOL    HW3  955   4.113   3.303   0.327
  231SOL    MW4  956   4.104   3.380   0.287
  232SOL     OW  957   4.156   2.425   0.454
  232SOL    HW2  958   4.111   2.412   0.538
  232SOL    HW3  959   4.243   2.385   0.467
  232SOL    MW4  960   4.162   2.418   0.467
  233SOL     OW  961   0.171   3.878   0.387
  233SOL    HW2  962   0.113   3.939   0.432
  233SOL    HW3  963   0.259   3.902   0.415
  233SOL    MW4  964   0.175   3.889   0.396
  234SOL     OW  965   4.351   3.448   0.175
  234SOL    HW2  966   4.338   3.488   0.089
  234SOL    HW3  967   4.358   3.522   0.235
  234SOL    MW4  968   4.350   3.463   0.172
  235SOL     OW  969   0.043   3.242   0.259
  235SOL    HW2  970  -0.025   3.308   0.241
  235SOL    HW3  971   0.124   3.292   0.267
  235SOL    MW4  972   0.045   3.258   0.257
  236SOL     OW  973   3.879   3.715   0.496
  236SOL    HW2  974   3.794   3.760   0.492
  236SOL    HW3  975   3.891   3.696   0.589
  236SOL    MW4  976   3.870   3.718   0.508
  237SOL     OW  977   3.920   3.065   0.490
  237SOL    HW2  978   3.907   3.117   0.570
  237SOL    HW3  979   4.011   3.084   0.464
  237SOL    MW4  980   3.930   3.074   0.497
  238SOL     OW  981   0.029   4.087   0.499
  238SOL    HW2  982   0.021   4.075   0.594
  238SOL    HW3  983  -0.061   4.082   0.467
  238SOL    MW4  984   0.016   4.085   0.507
  239SOL     OW  985   3.965   4.002   0.445
  239SOL    HW2  986   3.920   3.918   0.446
  239SOL    HW3  987   3.912   4.058   0.389
  239SOL    MW4  988   3.952   3.999   0.438
  240SOL     OW  989   3.682   3.918   0.521
  240SOL    HW2  990   3.665   3.896   0.613
  240SOL    HW3  991   3.610   3.977   0.497
  240SOL    MW4  992   3.670   3.923   0.530
  241SOL     OW  993   3.951   4.522   0.375
  241SOL    HW2  994   4.031   4.469   0.377
  241SOL    HW3  995   3.880   4.459   0.391
  241SOL    MW4  996   3.952   4.507   0.377
  242SOL     OW  997   0.272   4.659   0.822
  242SOL    HW2  998   0.252   4.569   0.797
  242SOL    HW3  999   0.197   4.709   0.789
  242SOL    MW4 1000   0.259   4.654   0.815
  243SOL     OW 1001   0.020   0.102   0.744
  243SOL    HW2 1002  -0.060   0.062   0.777
  243SOL    HW3 1003   0.015   0.194   0.773
  243SOL    MW4 1004   0.009   0.109   0.752
  244SOL     OW 1005   4.470   0.380   0.783
  244SOL    HW2 1006   4.457   0.377   0.878
  244SOL    HW3 1007   4.551   0.430   0.771
  244SOL    MW4 1008   4.479   0.386   0.794
  245SOL     OW 1009   0.216   0.530   0.726
  245SOL    HW2 1010   0.302   0.505   0.758
  245SOL    HW3 1011   0.204   0.620   0.755
  245SOL    MW4 1012   0.225   0.538   0.734
  246SOL     OW 1013   0.261   0.800   0.836
  246SOL    HW2 1014   0.250   0.797   0.931
  246SOL    HW3 1015   0.175   0.828   0.803
  246SOL    MW4 1016   0.248   0.804   0.844
  247SOL     OW 1017   0.011   0.901   0.766
  247SOL    HW2 1018  -0.066   0.861   0.807
  247SOL    HW3 1019  -0.004   0.889   0.672
  247SOL    MW4 1020  -0.001   0.894   0.759
  248SOL     OW 1021   0.007   1.181   0.849
  248SOL    HW2 1022  -0.002   1.190   0.944
  248SOL    HW3 1023  -0.009   1.088   0.832
  248SOL    MW4 1024   0.003   1.170   0.859
  249SOL     OW 1025   0.226   1.284   0.700
  249SOL    HW2 1026   0.174   1.228   0.759
  249SOL    HW3 1027   0.194   1.262   0.613
  249SOL    MW4 1028   0.215   1.273   0.696
  250SOL     OW 1029   0.230   1.547   0.812
  250SOL    HW2 1030   0.312   1.594   0.797
  250SOL    HW3 1031   0.245   1.460   0.776
  250SOL    MW4 1032   0.243   1.542   0.806
  251SOL     OW 1033   0.010   1.697   0.726
  251SOL    HW2 1034  -0.062   1.652   0.771
  251SOL    HW3 1035   0.090   1.657   0.762
  251SOL    MW4 1036   0.011   1.686   0.737
  252SOL     OW 1037   0.016   1.943   0.857
  252SOL    HW2 1038   0.082   1.985   0.802
  252SOL    HW3 1039   0.017   1.851   0.831
  252SOL    MW4 1040   0.025   1.936   0.846
  253SOL     OW 1041   0.223   2.068   0.710
  253SOL    HW2 1042   0.245   2.154   0.745
  253SOL    HW3 1043   0.223   2.080   0.615
  253SOL    MW4 1044   0.226   2.081   0.702
  254SOL     OW 1045   0.245   2.333   0.855
  254SOL    HW2 1046   0.249   2.321   0.950
  254SOL    HW3 1047   0.316   2.395   0.837
  254SOL    MW4 1048   0.255   2.340   0.866
  255SOL     OW 1049   4.484   2.405   0.776
  255SOL    HW2 1050   4.408   2.368   0.821
  255SOL    HW3 1051   4.559   2.357   0.813
  255SOL    MW4 1052   4.484   2.393   0.787
  256SOL     OW 1053   4.485   2.655   0.842
  256SOL    HW2 1054   4.494   2.676   0.935
  256SOL    HW3 1055   4.500   2.561   0.837
  256SOL    MW4 1056   4.488   2.645   0.854
  257SOL     OW 1057   0.188   2.801   0.736
  257SOL    HW2 1058   0.124   2.739   0.771
  257SOL    HW3 1059   0.193   2.781   0.643
  257SOL    MW4 1060   0.181   2.790   0.729
  258SOL     OW 1061   0.183   3.065   0.839
  258SOL    HW2 1062   0.204   3.055   0.932
  258SOL    HW3 1063   0.180   2.975   0.805
  258SOL    MW4 1064   0.185   3.052   0.847
  259SOL     OW 1065   4.434   3.148   0.699
  259SOL    HW2 1066   4.513   3.129   0.750
  259SOL    HW3 1067   4.454   3.114   0.611
  259SOL    MW4 1068   4.447   3.141   0.694
  260SOL     OW 1069   4.437   3.434   0.848
  260SOL    HW2 1070   4.371   3.488   0.803
  260SOL    HW3 1071   4.417   3.345   0.822
  260SOL    MW4 1072   4.426   3.430   0.839
  261SOL     OW 1073   0.156   3.556   0.745
  261SOL    HW2 1074   0.075   3.512   0.772
  261SOL    HW3 1075   0.141   3.582   0.654
  261SOL    MW4 1076   0.144   3.554   0.737
  262SOL     OW 1077   0.215   3.824   0.832
  262SOL    HW2 1078   0.218   3.850   0.924
  262SOL    HW3 1079   0.171   3.739   0.832
  262SOL    MW4 1080   0.209   3.816   0.844
  263SOL     OW 1081   4.485   3.996   0.752
  263SOL    HW2 1082   4.407   3.941   0.767
  263SOL    HW3 1083   4.559   3.938   0.772
  263SOL    MW4 1084   4.484   3.981   0.757
  264SOL     OW 1085   0.009   4.271   0.823
  264SOL    HW2 1086   0.008   4.281   0.918
  264SOL    HW3 1087  -0.004   4.177   0.809
  264SOL    MW4 1088   0.007   4.260   0.834
  265SOL     OW 1089   0.231   4.401   0.723
  265SOL    HW2 1090   0.157   4.354   0.761
  265SOL    HW3 1091   0.225   4.384   0.629
  265SOL    MW4 1092   0.221   4.393   0.716
  266SOL     OW 1093   0.677   4.644   0.861
  266SOL    HW2 1094   0.662   4.648   0.955
  266SOL    HW3 1095   0.612   4.703   0.823
  266SOL    MW4 1096   0.667   4.652   0.868
  267SOL     OW 1097   0.473   0.141   0.726
  267SOL    HW2 1098   0.403   0.084   0.759
  267SOL    HW3 1099   0.473   0.126   0.632
  267SOL    MW4 1100   0.464   0.131   0.718
  268SOL     OW 1101   0.445   0.414   0.819
  268SOL    HW2 1102   0.529   0.450   0.789
  268SOL    HW3 1103   0.456   0.319   0.809
  268SOL    MW4 1104   0.458   0.406   0.814
  269SOL     OW 1105   0.684   0.521   0.748
  269SOL    HW2 1106   0.770   0.489   0.777
  269SOL    HW3 1107   0.680   0.498   0.656
  269SOL    MW4 1108   0.695   0.514   0.740
  270SOL     OW 1109   0.677   0.806   0.836
  270SOL    HW2 1110   0.596   0.843   0.802
  270SOL    HW3 1111   0.673   0.713   0.814
  270SOL    MW4 1112   0.666   0.799   0.829
  271SOL     OW 1113   0.470   0.942   0.719
  271SOL    HW2 1114   0.459   1.034   0.744
  271SOL    HW3 1115   0.394   0.897   0.755
  271SOL    MW4 1116   0.459   0.948   0.727
  272SOL     OW 1117   0.452   1.198   0.846
  272SOL    HW2 1118   0.530   1.234   0.804
  272SOL    HW3 1119   0.379   1.240   0.801
  272SOL    MW4 1120   0.453   1.208   0.835
  273SOL     OW 1121   0.703   1.309   0.760
  273SOL    HW2 1122   0.725   1.395   0.795
  273SOL    HW3 1123   0.705   1.320   0.665
  273SOL    MW4 1124   0.706   1.322   0.752
  274SOL     OW 1125   0.709   1.573   0.858
  274SOL    HW2 1126   0.712   1.556   0.952
  274SOL    HW3 1127   0.621   1.607   0.842
  274SOL    MW4 1128   0.697   1.575   0.868
  275SOL     OW 1129   0.470   1.684   0.742
  275SOL    HW2 1130   0.471   1.780   0.743
  275SOL    HW3 1131   0.462   1.661   0.649
  275SOL    MW4 1132   0.469   1.694   0.730
  276SOL     OW 1133   0.488   1.952   0.825
  276SOL    HW2 1134   0.481   1.957   0.920
  276SOL    HW3 1135   0.409   1.995   0.793
  276SOL    MW4 1136   0.476   1.958   0.833
  277SOL     OW 1137   0.682   2.113   0.752
  277SOL    HW2 1138   0.626   2.040   0.778
  277SOL    HW3 1139   0.667   2.124   0.659
  277SOL    MW4 1140   0.673   2.105   0.743
  278SOL     OW 1141   0.717   2.365   0.885
  278SOL    HW2 1142   0.736   2.344   0.977
  278SOL    HW3 1143   0.681   2.284   0.849
  278SOL    MW4 1144   0.715   2.352   0.893
  279SOL     OW 1145   0.500   2.503   0.771
  279SOL    HW2 1146   0.571   2.464   0.822
  279SOL    HW3 1147   0.528   2.495   0.680
  279SOL    MW4 1148   0.513   2.496   0.766
  280SOL     OW 1149   0.429   2.751   0.891
  280SOL    HW2 1150   0.463   2.668   0.858
  280SOL    HW3 1151   0.348   2.764   0.842
  280SOL    MW4 1152   0.423   2.742   0.880
  281SOL     OW 1153   0.616   2.879   0.730
  281SOL    HW2 1154   0.691   2.822   0.743
  281SOL    HW3 1155   0.546   2.839   0.782
  281SOL    MW4 1156   0.616   2.867   0.739
  282SOL     OW 1157   0.625   3.122   0.884
  282SOL    HW2 1158   0.552   3.158   0.834
  282SOL    HW3 1159   0.634   3.032   0.851
  282SOL    MW4 1160   0.617   3.115   0.873
  283SOL     OW 1161   0.404   3.208   0.732
  283SOL    HW2 1162   0.400   3.295   0.773
  283SOL    HW3 1163   0.320   3.169   0.752
  283SOL    MW4 1164   0.393   3.215   0.740
  284SOL     OW 1165   0.410   3.469   0.820
  284SOL    HW2 1166   0.397   3.460   0.914
  284SOL    HW3 1167   0.326   3.498   0.786
  284SOL    MW4 1168   0.397   3.472   0.828
  285SOL     OW 1169   0.663   3.581   0.770
  285SOL    HW2 1170   0.572   3.569   0.798
  285SOL    HW3 1171   0.675   3.676   0.768
  285SOL    MW4 1172   0.653   3.592   0.773
  286SOL     OW 1173   0.682   3.855   0.826
  286SOL    HW2 1174   0.759   3.893   0.784
  286SOL    HW3 1175   0.608   3.904   0.790
  286SOL    MW4 1176   0.682   3.866   0.816
  287SOL     OW 1177   0.450   3.982   0.739
  287SOL    HW2 1178   0.431   4.071   0.769
  287SOL    HW3 1179   0.381   3.928   0.778
  287SOL    MW4 1180   0.439   3.987   0.748
  288SOL     OW 1181   0.432   4.254   0.825
  288SOL    HW2 1182   0.442   4.273   0.919
  288SOL    HW3 1183   0.366   4.316   0.796
  288SOL    MW4 1184   0.425   4.264   0.834
  289SOL     OW 1185   0.659   4.386   0.735
  289SOL    HW2 1186   0.580   4.336   0.755
  289SOL    HW3 1187   0.655   4.462   0.793
  289SOL    MW4 1188   0.648   4.389   0.745
  290SOL     OW 1189   1.142   4.592   0.802
  290SOL    HW2 1190   1.207   4.658   0.776
  290SOL    HW3 1191   1.057   4.632   0.780
  290SOL    MW4 1192   1.139   4.606   0.796
  291SOL     OW 1193   0.902   0.075   0.730
  291SOL    HW2 1194   0.897   0.164   0.762
  291SOL    HW3 1195   0.829   0.030   0.772
  291SOL    MW4 1196   0.892   0.080   0.739
  292SOL     OW 1197   0.913   0.328   0.818
  292SOL    HW2 1198   0.900   0.320   0.913
  292SOL    HW3 1199   0.986   0.389   0.809
  292SOL    MW4 1200   0.921   0.335   0.830
  293SOL     OW 1201   1.142   0.493   0.807
  293SOL    HW2 1202   1.221   0.446   0.834
  293SOL    HW3 1203   1.143   0.487   0.711
  293SOL    MW4 1204   1.152   0.486   0.798
  294SOL     OW 1205   1.083   0.763   0.870
  294SOL    HW2 1206   1.092   0.761   0.966
  294SOL    HW3 1207   1.106   0.674   0.842
  294SOL    MW4 1208   1.087   0.751   0.879
  295SOL     OW 1209   0.906   0.912   0.706
  295SOL    HW2 1210   0.982   0.864   0.739
  295SOL    HW3 1211   0.833   0.880   0.758
  295SOL    MW4 1212   0.906   0.901   0.718
  296SOL     OW 1213   0.930   1.161   0.794
  296SOL    HW2 1214   0.925   1.070   0.767
  296SOL    HW3 1215   0.843   1.197   0.772
  296SOL    MW4 1216   0.918   1.154   0.787
  297SOL     OW 1217   1.134   1.313   0.708
  297SOL    HW2 1218   1.071   1.255   0.749
  297SOL    HW3 1219   1.089   1.347   0.630
  297SOL    MW4 1220   1.120   1.310   0.703
  298SOL     OW 1221   1.160   1.531   0.876
  298SOL    HW2 1222   1.089   1.592   0.859
  298SOL    HW3 1223   1.143   1.457   0.818
  298SOL    MW4 1224   1.148   1.529   0.866
  299SOL     OW 1225   0.953   1.691   0.757
  299SOL    HW2 1226   0.941   1.784   0.775
  299SOL    HW3 1227   0.872   1.650   0.786
  299SOL    MW4 1228   0.941   1.698   0.763
  300SOL     OW 1229   0.918   1.960   0.814
  300SOL    HW2 1230   0.920   1.948   0.909
  300SOL    HW3 1231   0.836   2.007   0.797
  300SOL    MW4 1232   0.907   1.965   0.824
  301SOL     OW 1233   1.156   2.043   0.702
  301SOL    HW2 1234   1.149   2.135   0.726
  301SOL    HW3 1235   1.075   2.003   0.733
  301SOL    MW4 1236   1.145   2.050   0.709
  302SOL     OW 1237   1.142   2.314   0.770
  302SOL    HW2 1238   1.137   2.321   0.865
  302SOL    HW3 1239   1.232   2.337   0.749
  302SOL    MW4 1240   1.153   2.318   0.780
  303SOL     OW 1241   0.919   2.460   0.712
  303SOL    HW2 1242   1.000   2.414   0.736
  303SOL    HW3 1243   0.853   2.424   0.772
  303SOL    MW4 1244   0.921   2.449   0.723
  304SOL     OW 1245   0.842   2.707   0.783
  304SOL    HW2 1246   0.857   2.713   0.877
  304SOL    HW3 1247   0.874   2.620   0.759
  304SOL    MW4 1248   0.848   2.697   0.792
  305SOL     OW 1249   1.094   2.841   0.753
  305SOL    HW2 1250   1.011   2.793   0.765
  305SOL    HW3 1251   1.103   2.849   0.658
  305SOL    MW4 1252   1.084   2.836   0.742
  306SOL     OW 1253   1.108   3.101   0.820
  306SOL    HW2 1254   1.021   3.134   0.794
  306SOL    HW3 1255   1.109   3.010   0.790
  306SOL    MW4 1256   1.096   3.094   0.812
  307SOL     OW 1257   0.854   3.201   0.782
  307SOL    HW2 1258   0.862   3.290   0.816
  307SOL    HW3 1259   0.769   3.170   0.814
  307SOL    MW4 1260   0.844   3.208   0.791
  308SOL     OW 1261   0.895   3.470   0.846
  308SOL    HW2 1262   0.967   3.528   0.818
  308SOL    HW3 1263   0.817   3.524   0.836
  308SOL    MW4 1264   0.894   3.485   0.841
  309SOL     OW 1265   1.094   3.632   0.776
  309SOL    HW2 1266   1.167   3.593   0.823
  309SOL    HW3 1267   1.120   3.631   0.684
  309SOL    MW4 1268   1.107   3.627   0.770
  310SOL     OW 1269   1.065   3.904   0.821
  310SOL    HW2 1270   1.084   3.908   0.915
  310SOL    HW3 1271   1.057   3.811   0.802
  310SOL    MW4 1272   1.066   3.893   0.831
  311SOL     OW 1273   0.876   4.016   0.633
  311SOL    HW2 1274   0.867   4.098   0.682
  311SOL    HW3 1275   0.933   3.962   0.687
  311SOL    MW4 1276   0.882   4.020   0.646
  312SOL     OW 1277   0.879   4.232   0.795
  312SOL    HW2 1278   0.954   4.286   0.771
  312SOL    HW3 1279   0.803   4.287   0.777
  312SOL    MW4 1280   0.879   4.246   0.789
  313SOL     OW 1281   1.121   4.340   0.713
  313SOL    HW2 1282   1.192   4.294   0.757
  313SOL    HW3 1283   1.128   4.430   0.744
  313SOL    MW4 1284   1.131   4.346   0.723
  314SOL     OW 1285   1.529   4.583   0.836
  314SOL    HW2 1286   1.544   4.606   0.928
  314SOL    HW3 1287   1.445   4.623   0.815
  314SOL    MW4 1288   1.520   4.591   0.845
  315SOL     OW 1289   1.337   0.098   0.749
  315SOL    HW2 1290   1.376   0.171   0.796
  315SOL    HW3 1291   1.359   0.113   0.657
  315SOL    MW4 1292   1.345   0.109   0.743
  316SOL     OW 1293   1.380   0.353   0.846
  316SOL    HW2 1294   1.399   0.335   0.938
  316SOL    HW3 1295   1.454   0.405   0.815
  316SOL    MW4 1296   1.392   0.358   0.854
  317SOL     OW 1297   1.576   0.542   0.727
  317SOL    HW2 1298   1.576   0.625   0.774
  317SOL    HW3 1299   1.651   0.547   0.668
  317SOL    MW4 1300   1.586   0.553   0.726
  318SOL     OW 1301   1.577   0.775   0.859
  318SOL    HW2 1302   1.653   0.824   0.826
  318SOL    HW3 1303   1.502   0.830   0.835
  318SOL    MW4 1304   1.577   0.789   0.851
  319SOL     OW 1305   1.328   0.894   0.767
  319SOL    HW2 1306   1.336   0.988   0.782
  319SOL    HW3 1307   1.258   0.865   0.825
  319SOL    MW4 1308   1.320   0.902   0.776
  320SOL     OW 1309   1.353   1.165   0.850
  320SOL    HW2 1310   1.432   1.211   0.819
  320SOL    HW3 1311   1.281   1.221   0.823
  320SOL    MW4 1312   1.354   1.179   0.842
  321SOL     OW 1313   1.576   1.282   0.739
  321SOL    HW2 1314   1.585   1.378   0.735
  321SOL    HW3 1315   1.590   1.253   0.649
  321SOL    MW4 1316   1.579   1.291   0.727
  322SOL     OW 1317   1.718   1.695   0.956
  322SOL    HW2 1318   1.688   1.663   1.042
  322SOL    HW3 1319   1.810   1.670   0.952
  322SOL    MW4 1320   1.726   1.688   0.967
  323SOL     OW 1321   1.363   1.669   0.705
  323SOL    HW2 1322   1.357   1.752   0.753
  323SOL    HW3 1323   1.306   1.609   0.753
  323SOL    MW4 1324   1.354   1.672   0.718
  324SOL     OW 1325   1.368   1.907   0.837
  324SOL    HW2 1326   1.351   1.918   0.931
  324SOL    HW3 1327   1.294   1.951   0.795
  324SOL    MW4 1328   1.356   1.914   0.844
  325SOL     OW 1329   1.585   2.090   0.766
  325SOL    HW2 1330   1.509   2.035   0.782
  325SOL    HW3 1331   1.605   2.076   0.673
  325SOL    MW4 1332   1.578   2.081   0.756
  326SOL     OW 1333   1.593   2.347   0.851
  326SOL    HW2 1334   1.518   2.390   0.811
  326SOL    HW3 1335   1.587   2.255   0.824
  326SOL    MW4 1336   1.583   2.340   0.842
  327SOL     OW 1337   1.375   2.429   0.695
  327SOL    HW2 1338   1.344   2.520   0.697
  327SOL    HW3 1339   1.400   2.414   0.604
  327SOL    MW4 1340   1.374   2.439   0.684
  328SOL     OW 1341   1.310   2.682   0.820
  328SOL    HW2 1342   1.314   2.673   0.915
  328SOL    HW3 1343   1.236   2.740   0.804
  328SOL    MW4 1344   1.301   2.689   0.831
  329SOL     OW 1345   1.555   2.791   0.722
  329SOL    HW2 1346   1.560   2.881   0.754
  329SOL    HW3 1347   1.470   2.760   0.753
  329SOL    MW4 1348   1.544   2.799   0.730
  330SOL     OW 1349   1.561   3.061   0.826
  330SOL    HW2 1350   1.569   3.060   0.922
  330SOL    HW3 1351   1.497   3.130   0.808
  330SOL    MW4 1352   1.554   3.070   0.837
  331SOL     OW 1353   1.345   3.242   0.772
  331SOL    HW2 1354   1.263   3.195   0.788
  331SOL    HW3 1355   1.336   3.278   0.684
  331SOL    MW4 1356   1.333   3.241   0.763
  332SOL     OW 1357   1.321   3.493   0.865
  332SOL    HW2 1358   1.404   3.528   0.833
  332SOL    HW3 1359   1.326   3.400   0.846
  332SOL    MW4 1360   1.332   3.486   0.858
  333SOL     OW 1361   1.568   3.592   0.803
  333SOL    HW2 1362   1.646   3.538   0.821
  333SOL    HW3 1363   1.577   3.616   0.711
  333SOL    MW4 1364   1.579   3.588   0.793
  334SOL     OW 1365   1.526   3.857   0.872
  334SOL    HW2 1366   1.460   3.884   0.808
  334SOL    HW3 1367   1.526   3.762   0.866
  334SOL    MW4 1368   1.517   3.848   0.863
  335SOL     OW 1369   1.319   3.939   0.697
  335SOL    HW2 1370   1.231   3.926   0.732
  335SOL    HW3 1371   1.305   3.978   0.610
  335SOL    MW4 1372   1.306   3.942   0.690
  336SOL     OW 1373   1.325   4.207   0.849
  336SOL    HW2 1374   1.405   4.245   0.814
  336SOL    HW3 1375   1.326   4.116   0.819
  336SOL    MW4 1376   1.336   4.200   0.841
  337SOL     OW 1377   1.531   4.334   0.685
  337SOL    HW2 1378   1.617   4.296   0.705
  337SOL    HW3 1379   1.526   4.412   0.740
  337SOL    MW4 1380   1.542   4.339   0.695
  338SOL     OW 1381   1.916   0.115   0.887
  338SOL    HW2 1382   1.999   0.132   0.843
  338SOL    HW3 1383   1.865   0.064   0.824
  338SOL    MW4 1384   1.920   0.110   0.873
  339SOL     OW 1385   1.705   0.280   0.611
  339SOL    HW2 1386   1.685   0.188   0.629
  339SOL    HW3 1387   1.727   0.317   0.696
  339SOL    MW4 1388   1.706   0.272   0.624
  340SOL     OW 1389   1.811   0.361   0.866
  340SOL    HW2 1390   1.844   0.277   0.896
  340SOL    HW3 1391   1.887   0.404   0.827
  340SOL    MW4 1392   1.825   0.356   0.865
  341SOL     OW 1393   2.015   0.528   0.783
  341SOL    HW2 1394   2.023   0.538   0.688
  341SOL    HW3 1395   2.094   0.482   0.809
  341SOL    MW4 1396   2.026   0.523   0.774
  342SOL     OW 1397   1.997   0.793   0.855
  342SOL    HW2 1398   2.055   0.843   0.797
  342SOL    HW3 1399   2.020   0.702   0.840
  342SOL    MW4 1400   2.007   0.788   0.845
  343SOL     OW 1401   1.784   0.931   0.781
  343SOL    HW2 1402   1.809   1.022   0.798
  343SOL    HW3 1403   1.858   0.880   0.812
  343SOL    MW4 1404   1.797   0.936   0.787
  344SOL     OW 1405   1.825   1.205   0.846
  344SOL    HW2 1406   1.900   1.254   0.812
  344SOL    HW3 1407   1.749   1.247   0.806
  344SOL    MW4 1408   1.825   1.217   0.836
  345SOL     OW 1409   2.033   1.350   0.744
  345SOL    HW2 1410   2.083   1.277   0.780
  345SOL    HW3 1411   2.018   1.326   0.653
  345SOL    MW4 1412   2.037   1.337   0.737
  346SOL     OW 1413   2.005   1.583   0.873
  346SOL    HW2 1414   2.098   1.604   0.874
  346SOL    HW3 1415   2.000   1.499   0.827
  346SOL    MW4 1416   2.016   1.575   0.867
  347SOL     OW 1417   1.941   1.552   0.435
  347SOL    HW2 1418   1.891   1.580   0.358
  347SOL    HW3 1419   1.896   1.594   0.509
  347SOL    MW4 1420   1.928   1.562   0.435
  348SOL     OW 1421   1.805   1.959   0.870
  348SOL    HW2 1422   1.766   1.872   0.871
  348SOL    HW3 1423   1.731   2.018   0.853
  348SOL    MW4 1424   1.790   1.956   0.868
  349SOL     OW 1425   2.020   2.037   0.707
  349SOL    HW2 1426   2.030   2.122   0.749
  349SOL    HW3 1427   1.943   1.998   0.748
  349SOL    MW4 1428   2.011   2.043   0.718
  350SOL     OW 1429   2.071   2.293   0.816
  350SOL    HW2 1430   2.074   2.283   0.911
  350SOL    HW3 1431   1.987   2.337   0.800
  350SOL    MW4 1432   2.060   2.298   0.827
  351SOL     OW 1433   1.840   2.442   0.756
  351SOL    HW2 1434   1.759   2.406   0.794
  351SOL    HW3 1435   1.817   2.461   0.665
  351SOL    MW4 1436   1.826   2.440   0.749
  352SOL     OW 1437   1.777   2.679   0.883
  352SOL    HW2 1438   1.810   2.606   0.831
  352SOL    HW3 1439   1.693   2.701   0.842
  352SOL    MW4 1440   1.770   2.673   0.871
  353SOL     OW 1441   1.984   2.811   0.750
  353SOL    HW2 1442   2.063   2.770   0.786
  353SOL    HW3 1443   1.913   2.780   0.806
  353SOL    MW4 1444   1.985   2.801   0.762
  354SOL     OW 1445   2.039   3.073   0.827
  354SOL    HW2 1446   1.956   3.103   0.792
  354SOL    HW3 1447   2.047   2.983   0.797
  354SOL    MW4 1448   2.029   3.065   0.819
  355SOL     OW 1449   1.790   3.196   0.749
  355SOL    HW2 1450   1.711   3.156   0.785
  355SOL    HW3 1451   1.770   3.210   0.656
  355SOL    MW4 1452   1.777   3.193   0.741
  356SOL     OW 1453   1.808   3.445   0.849
  356SOL    HW2 1454   1.787   3.442   0.943
  356SOL    HW3 1455   1.795   3.355   0.818
  356SOL    MW4 1456   1.804   3.433   0.857
  357SOL     OW 1457   2.002   3.604   0.730
  357SOL    HW2 1458   2.009   3.685   0.781
  357SOL    HW3 1459   1.943   3.548   0.781
  357SOL    MW4 1460   1.996   3.607   0.744
  358SOL     OW 1461   2.001   3.879   0.853
  358SOL    HW2 1462   1.996   3.881   0.949
  358SOL    HW3 1463   1.911   3.898   0.824
  358SOL    MW4 1464   1.988   3.882   0.862
  359SOL     OW 1465   1.745   3.966   0.756
  359SOL    HW2 1466   1.661   3.938   0.793
  359SOL    HW3 1467   1.727   3.980   0.663
  359SOL    MW4 1468   1.731   3.964   0.749
  360SOL     OW 1469   1.766   4.232   0.810
  360SOL    HW2 1470   1.746   4.261   0.899
  360SOL    HW3 1471   1.763   4.137   0.814
  360SOL    MW4 1472   1.763   4.223   0.822
  361SOL     OW 1473   1.985   4.358   0.663
  361SOL    HW2 1474   1.909   4.355   0.721
  361SOL    HW3 1475   1.966   4.295   0.594
  361SOL    MW4 1476   1.973   4.350   0.662
  362SOL     OW 1477   2.435   0.025   0.841
  362SOL    HW2 1478   2.452   0.014   0.935
  362SOL    HW3 1479   2.515   0.064   0.807
  362SOL    MW4 1480   2.448   0.028   0.849
  363SOL     OW 1481   2.167   0.161   0.769
  363SOL    HW2 1482   2.246   0.118   0.800
  363SOL    HW3 1483   2.170   0.150   0.674
  363SOL    MW4 1484   2.178   0.154   0.760
  364SOL     OW 1485   2.264   0.409   0.859
  364SOL    HW2 1486   2.329   0.453   0.804
  364SOL    HW3 1487   2.259   0.320   0.825
  364SOL    MW4 1488   2.272   0.403   0.847
  365SOL     OW 1489   2.475   0.498   0.690
  365SOL    HW2 1490   2.456   0.432   0.623
  365SOL    HW3 1491   2.542   0.458   0.746
  365SOL    MW4 1492   2.482   0.484   0.688
  366SOL     OW 1493   2.447   0.771   0.836
  366SOL    HW2 1494   2.537   0.798   0.816
  366SOL    HW3 1495   2.437   0.686   0.793
  366SOL    MW4 1496   2.458   0.763   0.828
  367SOL     OW 1497   2.204   0.937   0.759
  367SOL    HW2 1498   2.296   0.910   0.759
  367SOL    HW3 1499   2.194   0.988   0.679
  367SOL    MW4 1500   2.215   0.940   0.748
  368SOL     OW 1501   2.175   1.172   0.906
  368SOL    HW2 1502   2.161   1.165   1.000
  368SOL    HW3 1503   2.171   1.082   0.873
  368SOL    MW4 1504   2.173   1.160   0.914
  369SOL     OW 1505   2.448   1.238   0.844
  369SOL    HW2 1506   2.359   1.213   0.869
  369SOL    HW3 1507   2.446   1.240   0.748
  369SOL    MW4 1508   2.436   1.235   0.834
  370SOL     OW 1509   2.462   1.517   0.868
  370SOL    HW2 1510   2.526   1.538   0.801
  370SOL    HW3 1511   2.466   1.421   0.876
  370SOL    MW4 1512   2.471   1.507   0.860
  371SOL     OW 1513   2.244   1.649   0.775
  371SOL    HW2 1514   2.306   1.584   0.809
  371SOL    HW3 1515   2.226   1.621   0.685
  371SOL    MW4 1516   2.250   1.637   0.768
  372SOL     OW 1517   2.241   1.917   0.838
  372SOL    HW2 1518   2.234   1.830   0.799
  372SOL    HW3 1519   2.159   1.960   0.815
  372SOL    MW4 1520   2.229   1.911   0.830
  373SOL     OW 1521   2.444   2.067   0.725
  373SOL    HW2 1522   2.377   2.008   0.762
  373SOL    HW3 1523   2.422   2.073   0.632
  373SOL    MW4 1524   2.432   2.060   0.718
  374SOL     OW 1525   2.483   2.330   0.850
  374SOL    HW2 1526   2.553   2.382   0.811
  374SOL    HW3 1527   2.466   2.261   0.786
  374SOL    MW4 1528   2.490   2.328   0.837
  375SOL     OW 1529   2.279   2.483   0.756
  375SOL    HW2 1530   2.345   2.423   0.791
  375SOL    HW3 1531   2.197   2.434   0.760
  375SOL    MW4 1532   2.277   2.469   0.761
  376SOL     OW 1533   2.252   2.757   0.847
  376SOL    HW2 1534   2.245   2.760   0.942
  376SOL    HW3 1535   2.265   2.664   0.826
  376SOL    MW4 1536   2.253   2.745   0.857
  377SOL     OW 1537   2.480   2.890   0.739
  377SOL    HW2 1538   2.552   2.845   0.784
  377SOL    HW3 1539   2.401   2.846   0.770
  377SOL    MW4 1540   2.479   2.878   0.749
  378SOL     OW 1541   2.485   3.143   0.841
  378SOL    HW2 1542   2.495   3.131   0.936
  378SOL    HW3 1543   2.489   3.054   0.805
  378SOL    MW4 1544   2.487   3.130   0.849
  379SOL     OW 1545   2.241   3.252   0.778
  379SOL    HW2 1546   2.181   3.184   0.809
  379SOL    HW3 1547   2.328   3.219   0.799
  379SOL    MW4 1548   2.244   3.239   0.785
  380SOL     OW 1549   2.244   3.522   0.823
  380SOL    HW2 1550   2.245   3.428   0.811
  380SOL    HW3 1551   2.176   3.554   0.763
  380SOL    MW4 1552   2.235   3.514   0.813
  381SOL     OW 1553   2.465   3.630   0.714
  381SOL    HW2 1554   2.543   3.597   0.758
  381SOL    HW3 1555   2.392   3.586   0.758
  381SOL    MW4 1556   2.465   3.619   0.725
  382SOL     OW 1557   2.489   3.870   0.878
  382SOL    HW2 1558   2.405   3.911   0.860
  382SOL    HW3 1559   2.491   3.794   0.820
  382SOL    MW4 1560   2.478   3.865   0.868
  383SOL     OW 1561   2.248   3.982   0.782
  383SOL    HW2 1562   2.169   3.937   0.813
  383SOL    HW3 1563   2.238   3.987   0.687
  383SOL    MW4 1564   2.236   3.977   0.773
  384SOL     OW 1565   2.226   4.268   0.815
  384SOL    HW2 1566   2.228   4.172   0.810
  384SOL    HW3 1567   2.139   4.292   0.783
  384SOL    MW4 1568   2.214   4.258   0.810
  385SOL     OW 1569   2.410   4.467   0.672
  385SOL    HW2 1570   2.440   4.529   0.739
  385SOL    HW3 1571   2.371   4.395   0.722
  385SOL    MW4 1572   2.409   4.466   0.687
  386SOL     OW 1573   2.882   0.005   0.853
  386SOL    HW2 1574   2.891  -0.078   0.804
  386SOL    HW3 1575   2.813   0.052   0.807
  386SOL    MW4 1576   2.874   0.000   0.840
  387SOL     OW 1577   2.708   4.563   0.510
  387SOL    HW2 1578   2.804   4.565   0.508
  387SOL    HW3 1579   2.682   4.650   0.480
  387SOL    MW4 1580   2.717   4.575   0.506
  388SOL     OW 1581   2.706   0.404   0.853
  388SOL    HW2 1582   2.710   0.416   0.948
  388SOL    HW3 1583   2.782   0.450   0.819
  388SOL    MW4 1584   2.716   0.412   0.861
  389SOL     OW 1585   2.928   0.500   0.729
  389SOL    HW2 1586   3.006   0.458   0.764
  389SOL    HW3 1587   2.897   0.441   0.661
  389SOL    MW4 1588   2.934   0.487   0.725
  390SOL     OW 1589   2.942   0.758   0.850
  390SOL    HW2 1590   2.920   0.739   0.941
  390SOL    HW3 1591   2.939   0.673   0.807
  390SOL    MW4 1592   2.939   0.744   0.857
  391SOL     OW 1593   2.707   0.884   0.778
  391SOL    HW2 1594   2.796   0.851   0.789
  391SOL    HW3 1595   2.692   0.879   0.683
  391SOL    MW4 1596   2.716   0.879   0.767
  392SOL     OW 1597   2.692   1.124   0.911
  392SOL    HW2 1598   2.707   1.036   0.876
  392SOL    HW3 1599   2.606   1.148   0.877
  392SOL    MW4 1600   2.682   1.115   0.902
  393SOL     OW 1601   2.874   1.264   0.742
  393SOL    HW2 1602   2.958   1.222   0.761
  393SOL    HW3 1603   2.812   1.222   0.802
  393SOL    MW4 1604   2.877   1.253   0.752
  394SOL     OW 1605   2.939   1.523   0.824
  394SOL    HW2 1606   3.005   1.573   0.775
  394SOL    HW3 1607   2.941   1.436   0.784
  394SOL    MW4 1608   2.948   1.518   0.812
  395SOL     OW 1609   2.678   1.631   0.724
  395SOL    HW2 1610   2.686   1.722   0.753
  395SOL    HW3 1611   2.765   1.594   0.738
  395SOL    MW4 1612   2.691   1.638   0.730
  396SOL     OW 1613   2.671   1.900   0.804
  396SOL    HW2 1614   2.681   1.899   0.899
  396SOL    HW3 1615   2.603   1.965   0.788
  396SOL    MW4 1616   2.664   1.909   0.814
  397SOL     OW 1617   2.892   2.024   0.689
  397SOL    HW2 1618   2.889   2.116   0.716
  397SOL    HW3 1619   2.825   1.981   0.740
  397SOL    MW4 1620   2.883   2.031   0.699
  398SOL     OW 1621   2.868   2.312   0.747
  398SOL    HW2 1622   2.881   2.324   0.841
  398SOL    HW3 1623   2.792   2.366   0.726
  398SOL    MW4 1624   2.860   2.321   0.757
  399SOL     OW 1625   2.667   2.475   0.672
  399SOL    HW2 1626   2.640   2.515   0.589
  399SOL    HW3 1627   2.673   2.548   0.733
  399SOL    MW4 1628   2.664   2.490   0.669
  400SOL     OW 1629   2.701   2.713   0.820
  400SOL    HW2 1630   2.681   2.722   0.914
  400SOL    HW3 1631   2.779   2.767   0.807
  400SOL    MW4 1632   2.708   2.722   0.831
  401SOL     OW 1633   2.898   2.835   0.497
  401SOL    HW2 1634   2.892   2.742   0.473
  401SOL    HW3 1635   2.809   2.867   0.491
  401SOL    MW4 1636   2.886   2.827   0.493
  402SOL     OW 1637   2.990   3.142   0.812
  402SOL    HW2 1638   2.909   3.187   0.792
  402SOL    HW3 1639   2.977   3.052   0.782
  402SOL    MW4 1640   2.978   3.136   0.805
  403SOL     OW 1641   2.761   3.264   0.772
  403SOL    HW2 1642   2.744   3.356   0.793
  403SOL    HW3 1643   2.680   3.218   0.796
  403SOL    MW4 1644   2.748   3.270   0.778
  404SOL     OW 1645   2.686   3.519   0.837
  404SOL    HW2 1646   2.685   3.516   0.932
  404SOL    HW3 1647   2.773   3.552   0.815
  404SOL    MW4 1648   2.697   3.523   0.847
  405SOL     OW 1649   2.949   3.590   0.813
  405SOL    HW2 1650   2.948   3.679   0.846
  405SOL    HW3 1651   2.951   3.600   0.717
  405SOL    MW4 1652   2.949   3.603   0.805
  406SOL     OW 1653   2.929   3.859   0.857
  406SOL    HW2 1654   2.929   3.872   0.952
  406SOL    HW3 1655   2.855   3.910   0.826
  406SOL    MW4 1656   2.919   3.867   0.866
  407SOL     OW 1657   2.683   4.019   0.749
  407SOL    HW2 1658   2.619   3.973   0.804
  407SOL    HW3 1659   2.683   3.971   0.667
  407SOL    MW4 1660   2.674   4.007   0.746
  408SOL     OW 1661   2.670   4.292   0.780
  408SOL    HW2 1662   2.671   4.305   0.875
  408SOL    HW3 1663   2.671   4.196   0.769
  408SOL    MW4 1664   2.671   4.281   0.791
  409SOL     OW 1665   2.917   4.420   0.740
  409SOL    HW2 1666   2.976   4.353   0.773
  409SOL    HW3 1667   2.829   4.384   0.752
  409SOL    MW4 1668   2.913   4.406   0.746
  410SOL     OW 1669   3.349   4.638   0.872
  410SOL    HW2 1670   3.356   4.638   0.967
  410SOL    HW3 1671   3.266   4.682   0.854
  410SOL    MW4 1672   3.339   4.644   0.882
  411SOL     OW 1673   3.133   0.115   0.816
  411SOL    HW2 1674   3.134   0.211   0.820
  411SOL    HW3 1675   3.047   0.091   0.852
  411SOL    MW4 1676   3.122   0.125   0.821
  412SOL     OW 1677   3.139   0.389   0.859
  412SOL    HW2 1678   3.150   0.396   0.954
  412SOL    HW3 1679   3.221   0.423   0.823
  412SOL    MW4 1680   3.152   0.394   0.867
  413SOL     OW 1681   3.386   0.469   0.742
  413SOL    HW2 1682   3.465   0.425   0.774
  413SOL    HW3 1683   3.397   0.472   0.647
  413SOL    MW4 1684   3.398   0.464   0.733
  414SOL     OW 1685   3.349   0.742   0.832
  414SOL    HW2 1686   3.261   0.765   0.801
  414SOL    HW3 1687   3.365   0.654   0.799
  414SOL    MW4 1688   3.339   0.733   0.824
  415SOL     OW 1689   3.139   0.900   0.716
  415SOL    HW2 1690   3.146   0.987   0.756
  415SOL    HW3 1691   3.078   0.852   0.771
  415SOL    MW4 1692   3.132   0.905   0.728
  416SOL     OW 1693   3.129   1.169   0.818
  416SOL    HW2 1694   3.105   1.162   0.910
  416SOL    HW3 1695   3.191   1.243   0.815
  416SOL    MW4 1696   3.134   1.178   0.830
  417SOL     OW 1697   3.487   1.313   0.734
  417SOL    HW2 1698   3.555   1.262   0.779
  417SOL    HW3 1699   3.531   1.394   0.709
  417SOL    MW4 1700   3.502   1.317   0.737
  418SOL     OW 1701   3.266   1.423   0.828
  418SOL    HW2 1702   3.302   1.451   0.912
  418SOL    HW3 1703   3.341   1.383   0.782
  418SOL    MW4 1704   3.281   1.421   0.833
  419SOL     OW 1705   3.153   1.630   0.682
  419SOL    HW2 1706   3.186   1.551   0.726
  419SOL    HW3 1707   3.123   1.598   0.596
  419SOL    MW4 1708   3.154   1.615   0.676
  420SOL     OW 1709   3.233   1.845   0.870
  420SOL    HW2 1710   3.220   1.862   0.963
  420SOL    HW3 1711   3.213   1.751   0.860
  420SOL    MW4 1712   3.229   1.835   0.881
  421SOL     OW 1713   3.512   1.927   0.873
  421SOL    HW2 1714   3.497   2.021   0.857
  421SOL    HW3 1715   3.427   1.887   0.856
  421SOL    MW4 1716   3.498   1.934   0.869
  422SOL     OW 1717   3.459   2.187   0.825
  422SOL    HW2 1718   3.411   2.229   0.896
  422SOL    HW3 1719   3.548   2.223   0.832
  422SOL    MW4 1720   3.464   2.198   0.835
  423SOL     OW 1721   3.105   2.441   0.671
  423SOL    HW2 1722   3.152   2.362   0.646
  423SOL    HW3 1723   3.022   2.409   0.707
  423SOL    MW4 1724   3.100   2.426   0.673
  424SOL     OW 1725   3.143   2.658   0.841
  424SOL    HW2 1726   3.141   2.576   0.792
  424SOL    HW3 1727   3.222   2.703   0.811
  424SOL    MW4 1728   3.153   2.654   0.831
  425SOL     OW 1729   3.341   2.815   0.738
  425SOL    HW2 1730   3.285   2.833   0.662
  425SOL    HW3 1731   3.410   2.758   0.704
  425SOL    MW4 1732   3.342   2.810   0.723
  426SOL     OW 1733   3.428   3.074   0.805
  426SOL    HW2 1734   3.413   3.091   0.898
  426SOL    HW3 1735   3.410   2.981   0.795
  426SOL    MW4 1736   3.423   3.064   0.816
  427SOL     OW 1737   3.224   3.233   0.689
  427SOL    HW2 1738   3.295   3.185   0.732
  427SOL    HW3 1739   3.144   3.195   0.725
  427SOL    MW4 1740   3.223   3.222   0.699
  428SOL     OW 1741   3.200   3.466   0.826
  428SOL    HW2 1742   3.186   3.384   0.778
  428SOL    HW3 1743   3.119   3.515   0.814
  428SOL    MW4 1744   3.187   3.462   0.818
  429SOL     OW 1745   3.311   3.802   0.673
  429SOL    HW2 1746   3.385   3.839   0.721
  429SOL    HW3 1747   3.328   3.708   0.672
  429SOL    MW4 1748   3.323   3.795   0.679
  430SOL     OW 1749   3.546   3.905   0.809
  430SOL    HW2 1750   3.549   4.001   0.806
  430SOL    HW3 1751   3.506   3.885   0.893
  430SOL    MW4 1752   3.541   3.915   0.819
  431SOL     OW 1753   3.112   3.979   0.684
  431SOL    HW2 1754   3.193   3.928   0.680
  431SOL    HW3 1755   3.060   3.936   0.752
  431SOL    MW4 1756   3.115   3.967   0.693
  432SOL     OW 1757   3.097   4.233   0.823
  432SOL    HW2 1758   3.178   4.270   0.788
  432SOL    HW3 1759   3.099   4.141   0.795
  432SOL    MW4 1760   3.108   4.226   0.815
  433SOL     OW 1761   3.327   4.374   0.745
  433SOL    HW2 1762   3.327   4.466   0.771
  433SOL    HW3 1763   3.339   4.375   0.650
  433SOL    MW4 1764   3.328   4.386   0.736
  434SOL     OW 1765   3.777   4.639   0.803
  434SOL    HW2 1766   3.850   4.693   0.773
  434SOL    HW3 1767   3.700   4.680   0.763
  434SOL    MW4 1768   3.776   4.652   0.793
  435SOL     OW 1769   3.546   0.109   0.728
  435SOL    HW2 1770   3.475   0.073   0.782
  435SOL    HW3 1771   3.515   0.097   0.638
  435SOL    MW4 1772   3.532   0.102   0.723
  436SOL     OW 1773   3.624   0.352   0.841
  436SOL    HW2 1774   3.629   0.345   0.936
  436SOL    HW3 1775   3.609   0.262   0.811
  436SOL    MW4 1776   3.623   0.339   0.849
  437SOL     OW 1777   3.813   0.509   0.725
  437SOL    HW2 1778   3.812   0.592   0.773
  437SOL    HW3 1779   3.740   0.459   0.760
  437SOL    MW4 1780   3.804   0.513   0.736
  438SOL     OW 1781   3.822   0.756   0.859
  438SOL    HW2 1782   3.840   0.746   0.952
  438SOL    HW3 1783   3.898   0.805   0.826
  438SOL    MW4 1784   3.835   0.761   0.867
  439SOL     OW 1785   3.596   0.896   0.754
  439SOL    HW2 1786   3.668   0.837   0.778
  439SOL    HW3 1787   3.517   0.850   0.783
  439SOL    MW4 1788   3.595   0.882   0.761
  440SOL     OW 1789   3.661   1.135   0.870
  440SOL    HW2 1790   3.629   1.133   0.961
  440SOL    HW3 1791   3.637   1.049   0.835
  440SOL    MW4 1792   3.653   1.123   0.878
  441SOL     OW 1793   3.891   1.245   0.758
  441SOL    HW2 1794   3.820   1.182   0.772
  441SOL    HW3 1795   3.889   1.263   0.664
  441SOL    MW4 1796   3.881   1.239   0.748
  442SOL     OW 1797   3.843   1.512   0.833
  442SOL    HW2 1798   3.913   1.566   0.797
  442SOL    HW3 1799   3.865   1.423   0.805
  442SOL    MW4 1800   3.855   1.507   0.825
  443SOL     OW 1801   3.618   1.551   0.650
  443SOL    HW2 1802   3.548   1.615   0.642
  443SOL    HW3 1803   3.667   1.578   0.728
  443SOL    MW4 1804   3.615   1.563   0.659
  444SOL     OW 1805   3.632   1.911   0.620
  444SOL    HW2 1806   3.619   1.926   0.714
  444SOL    HW3 1807   3.569   1.843   0.597
  444SOL    MW4 1808   3.622   1.904   0.629
  445SOL     OW 1809   3.886   2.175   0.721
  445SOL    HW2 1810   3.813   2.225   0.758
  445SOL    HW3 1811   3.909   2.111   0.789
  445SOL    MW4 1812   3.879   2.173   0.735
  446SOL     OW 1813   3.515   2.120   0.413
  446SOL    HW2 1814   3.424   2.141   0.433
  446SOL    HW3 1815   3.541   2.055   0.479
  446SOL    MW4 1816   3.507   2.114   0.424
  447SOL     OW 1817   3.709   2.319   0.856
  447SOL    HW2 1818   3.697   2.411   0.836
  447SOL    HW3 1819   3.741   2.318   0.947
  447SOL    MW4 1820   3.712   2.331   0.866
  448SOL     OW 1821   3.646   2.610   0.835
  448SOL    HW2 1822   3.578   2.639   0.896
  448SOL    HW3 1823   3.711   2.681   0.836
  448SOL    MW4 1824   3.646   2.623   0.843
  449SOL     OW 1825   3.821   2.817   0.777
  449SOL    HW2 1826   3.829   2.908   0.806
  449SOL    HW3 1827   3.864   2.815   0.692
  449SOL    MW4 1828   3.828   2.829   0.770
  450SOL     OW 1829   3.838   3.083   0.876
  450SOL    HW2 1830   3.898   3.133   0.822
  450SOL    HW3 1831   3.751   3.109   0.846
  450SOL    MW4 1832   3.834   3.093   0.865
  451SOL     OW 1833   3.643   3.212   0.725
  451SOL    HW2 1834   3.562   3.162   0.728
  451SOL    HW3 1835   3.657   3.230   0.632
  451SOL    MW4 1836   3.634   3.208   0.713
  452SOL     OW 1837   3.600   3.454   0.859
  452SOL    HW2 1838   3.617   3.373   0.812
  452SOL    HW3 1839   3.534   3.499   0.806
  452SOL    MW4 1840   3.593   3.450   0.846
  453SOL     OW 1841   3.843   3.626   0.767
  453SOL    HW2 1842   3.918   3.576   0.797
  453SOL    HW3 1843   3.767   3.579   0.802
  453SOL    MW4 1844   3.843   3.613   0.776
  454SOL     OW 1845   3.831   3.884   0.863
  454SOL    HW2 1846   3.740   3.912   0.855
  454SOL    HW3 1847   3.831   3.794   0.829
  454SOL    MW4 1848   3.819   3.876   0.857
  455SOL     OW 1849   3.134   4.002   0.287
  455SOL    HW2 1850   3.121   4.015   0.193
  455SOL    HW3 1851   3.224   3.969   0.294
  455SOL    MW4 1852   3.144   3.999   0.276
  456SOL     OW 1853   3.578   4.186   0.816
  456SOL    HW2 1854   3.654   4.239   0.793
  456SOL    HW3 1855   3.503   4.238   0.786
  456SOL    MW4 1856   3.578   4.200   0.809
  457SOL     OW 1857   3.779   4.367   0.757
  457SOL    HW2 1858   3.861   4.323   0.782
  457SOL    HW3 1859   3.794   4.459   0.778
  457SOL    MW4 1860   3.792   4.373   0.763
  458SOL     OW 1861   4.261   4.641   0.826
  458SOL    HW2 1862   4.274   4.659   0.920
  458SOL    HW3 1863   4.178   4.683   0.805
  458SOL    MW4 1864   4.252   4.649   0.836
  459SOL     OW 1865   4.014   0.112   0.738
  459SOL    HW2 1866   3.997   0.202   0.767
  459SOL    HW3 1867   4.015   0.118   0.642
  459SOL    MW4 1868   4.012   0.125   0.729
  460SOL     OW 1869   4.023   0.370   0.833
  460SOL    HW2 1870   4.099   0.400   0.782
  460SOL    HW3 1871   3.952   0.429   0.807
  460SOL    MW4 1872   4.024   0.382   0.823
  461SOL     OW 1873   4.234   0.495   0.703
  461SOL    HW2 1874   4.310   0.441   0.727
  461SOL    HW3 1875   4.237   0.498   0.607
  461SOL    MW4 1876   4.244   0.488   0.693
  462SOL     OW 1877   4.276   0.750   0.846
  462SOL    HW2 1878   4.194   0.793   0.823
  462SOL    HW3 1879   4.271   0.665   0.803
  462SOL    MW4 1880   4.264   0.744   0.838
  463SOL     OW 1881   4.050   0.872   0.766
  463SOL    HW2 1882   4.074   0.956   0.803
  463SOL    HW3 1883   4.078   0.877   0.675
  463SOL    MW4 1884   4.057   0.884   0.759
  464SOL     OW 1885   4.123   1.136   0.863
  464SOL    HW2 1886   4.125   1.152   0.958
  464SOL    HW3 1887   4.035   1.164   0.837
  464SOL    MW4 1888   4.112   1.142   0.872
  465SOL     OW 1889   4.289   1.334   0.746
  465SOL    HW2 1890   4.226   1.269   0.778
  465SOL    HW3 1891   4.375   1.297   0.768
  465SOL    MW4 1892   4.292   1.320   0.753
  466SOL     OW 1893   4.300   1.579   0.859
  466SOL    HW2 1894   4.311   1.571   0.954
  466SOL    HW3 1895   4.275   1.491   0.830
  466SOL    MW4 1896   4.298   1.566   0.868
  467SOL     OW 1897   4.055   1.680   0.764
  467SOL    HW2 1898   4.130   1.640   0.807
  467SOL    HW3 1899   4.078   1.680   0.671
  467SOL    MW4 1900   4.068   1.675   0.757
  468SOL     OW 1901   3.995   1.943   0.868
  468SOL    HW2 1902   3.988   1.855   0.830
  468SOL    HW3 1903   4.086   1.969   0.853
  468SOL    MW4 1904   4.006   1.935   0.861
  469SOL     OW 1905   4.249   2.040   0.840
  469SOL    HW2 1906   4.317   1.973   0.853
  469SOL    HW3 1907   4.263   2.071   0.750
  469SOL    MW4 1908   4.260   2.035   0.830
  470SOL     OW 1909   4.259   2.318   0.882
  470SOL    HW2 1910   4.187   2.353   0.829
  470SOL    HW3 1911   4.247   2.223   0.879
  470SOL    MW4 1912   4.248   2.310   0.875
  471SOL     OW 1913   4.063   2.422   0.730
  471SOL    HW2 1914   4.028   2.495   0.782
  471SOL    HW3 1915   3.988   2.363   0.719
  471SOL    MW4 1916   4.048   2.424   0.736
  472SOL     OW 1917   4.051   2.668   0.897
  472SOL    HW2 1918   4.123   2.719   0.859
  472SOL    HW3 1919   3.972   2.714   0.870
  472SOL    MW4 1920   4.050   2.681   0.888
  473SOL     OW 1921   4.242   2.782   0.742
  473SOL    HW2 1922   4.324   2.757   0.784
  473SOL    HW3 1923   4.247   2.743   0.655
  473SOL    MW4 1924   4.254   2.774   0.736
  474SOL     OW 1925   4.226   3.039   0.864
  474SOL    HW2 1926   4.212   2.950   0.831
  474SOL    HW3 1927   4.293   3.075   0.806
  474SOL    MW4 1928   4.233   3.032   0.852
  475SOL     OW 1929   4.044   3.207   0.726
  475SOL    HW2 1930   4.044   3.293   0.767
  475SOL    HW3 1931   4.099   3.153   0.783
  475SOL    MW4 1932   4.051   3.211   0.739
  476SOL     OW 1933   4.057   3.441   0.843
  476SOL    HW2 1934   4.056   3.463   0.936
  476SOL    HW3 1935   4.129   3.493   0.807
  476SOL    MW4 1936   4.066   3.451   0.851
  477SOL     OW 1937   4.245   3.578   0.709
  477SOL    HW2 1938   4.265   3.664   0.746
  477SOL    HW3 1939   4.215   3.597   0.620
  477SOL    MW4 1940   4.244   3.592   0.702
  478SOL     OW 1941   4.277   3.832   0.835
  478SOL    HW2 1942   4.292   3.860   0.925
  478SOL    HW3 1943   4.195   3.875   0.810
  478SOL    MW4 1944   4.268   3.841   0.844
  479SOL     OW 1945   4.051   3.986   0.719
  479SOL    HW2 1946   3.971   3.983   0.770
  479SOL    HW3 1947   4.023   4.009   0.631
  479SOL    MW4 1948   4.037   3.989   0.714
  480SOL     OW 1949   4.042   4.263   0.812
  480SOL    HW2 1950   4.112   4.313   0.770
  480SOL    HW3 1951   4.064   4.171   0.794
  480SOL    MW4 1952   4.054   4.257   0.804
  481SOL     OW 1953   4.275   4.390   0.697
  481SOL    HW2 1954   4.269   4.472   0.746
  481SOL    HW3 1955   4.358   4.351   0.724
  481SOL    MW4 1956   4.285   4.396   0.707
  482SOL     OW 1957   0.209   0.023   1.084
  482SOL    HW2 1958   0.287   0.064   1.122
  482SOL    HW3 1959   0.223   0.025   0.990
  482SOL    MW4 1960   0.221   0.029   1.077
  483SOL     OW 1961   4.490   0.136   1.225
  483SOL    HW2 1962   4.417   0.085   1.192
  483SOL    HW3 1963   4.568   0.097   1.184
  483SOL    MW4 1964   4.491   0.124   1.215
  484SOL     OW 1965   4.481   0.371   1.072
  484SOL    HW2 1966   4.406   0.415   1.112
  484SOL    HW3 1967   4.492   0.291   1.123
  484SOL    MW4 1968   4.472   0.367   1.084
  485SOL     OW 1969   0.196   0.497   1.208
  485SOL    HW2 1970   0.201   0.586   1.173
  485SOL    HW3 1971   0.142   0.449   1.145
  485SOL    MW4 1972   0.189   0.502   1.195
  486SOL     OW 1973   0.240   0.763   1.113
  486SOL    HW2 1974   0.316   0.806   1.151
  486SOL    HW3 1975   0.165   0.813   1.145
  486SOL    MW4 1976   0.240   0.775   1.122
  487SOL     OW 1977   0.017   0.897   1.203
  487SOL    HW2 1978   0.019   0.872   1.295
  487SOL    HW3 1979  -0.065   0.861   1.169
  487SOL    MW4 1980   0.006   0.889   1.211
  488SOL     OW 1981   4.480   1.171   1.144
  488SOL    HW2 1982   4.397   1.206   1.179
  488SOL    HW3 1983   4.476   1.077   1.162
  488SOL    MW4 1984   4.468   1.163   1.151
  489SOL     OW 1985   0.224   1.295   1.231
  489SOL    HW2 1986   0.293   1.241   1.192
  489SOL    HW3 1987   0.145   1.241   1.226
  489SOL    MW4 1988   0.223   1.280   1.225
  490SOL     OW 1989   0.236   1.551   1.100
  490SOL    HW2 1990   0.242   1.466   1.143
  490SOL    HW3 1991   0.245   1.531   1.006
  490SOL    MW4 1992   0.238   1.537   1.093
  491SOL     OW 1993   0.017   1.691   1.212
  491SOL    HW2 1994  -0.002   1.783   1.194
  491SOL    HW3 1995   0.092   1.670   1.157
  491SOL    MW4 1996   0.024   1.700   1.202
  492SOL     OW 1997   4.471   1.950   1.132
  492SOL    HW2 1998   4.386   1.989   1.155
  492SOL    HW3 1999   4.477   1.961   1.037
  492SOL    MW4 2000   4.460   1.957   1.123
  493SOL     OW 2001   0.206   2.041   1.240
  493SOL    HW2 2002   0.229   2.117   1.187
  493SOL    HW3 2003   0.122   2.012   1.204
  493SOL    MW4 2004   0.198   2.048   1.228
  494SOL     OW 2005   0.239   2.288   1.129
  494SOL    HW2 2006   0.303   2.341   1.177
  494SOL    HW3 2007   0.155   2.331   1.145
  494SOL    MW4 2008   0.237   2.301   1.138
  495SOL     OW 2009   0.004   2.412   1.208
  495SOL    HW2 2010   0.009   2.422   1.303
  495SOL    HW3 2011  -0.087   2.389   1.190
  495SOL    MW4 2012  -0.007   2.411   1.218
  496SOL     OW 2013   0.053   2.703   1.125
  496SOL    HW2 2014  -0.020   2.749   1.168
  496SOL    HW3 2015   0.051   2.615   1.163
  496SOL    MW4 2016   0.043   2.698   1.136
  497SOL     OW 2017   0.256   2.847   1.282
  497SOL    HW2 2018   0.241   2.853   1.377
  497SOL    HW3 2019   0.180   2.799   1.249
  497SOL    MW4 2020   0.244   2.841   1.291
  498SOL     OW 2021   0.229   3.077   1.139
  498SOL    HW2 2022   0.286   3.141   1.182
  498SOL    HW3 2023   0.241   2.996   1.189
  498SOL    MW4 2024   0.238   3.075   1.151
  499SOL     OW 2025   0.018   3.237   1.233
  499SOL    HW2 2026  -0.062   3.196   1.201
  499SOL    HW3 2027   0.089   3.188   1.192
  499SOL    MW4 2028   0.017   3.225   1.224
  500SOL     OW 2029   4.469   3.491   1.128
  500SOL    HW2 2030   4.482   3.407   1.172
  500SOL    HW3 2031   4.450   3.468   1.037
  500SOL    MW4 2032   4.468   3.477   1.122
  501SOL     OW 2033   0.209   3.653   1.242
  501SOL    HW2 2034   0.226   3.657   1.336
  501SOL    HW3 2035   0.136   3.592   1.233
  501SOL    MW4 2036   0.202   3.645   1.253
  502SOL     OW 2037   0.241   3.897   1.107
  502SOL    HW2 2038   0.190   3.962   1.156
  502SOL    HW3 2039   0.239   3.819   1.162
  502SOL    MW4 2040   0.234   3.896   1.121
  503SOL     OW 2041   0.030   4.039   1.194
  503SOL    HW2 2042   0.020   4.032   1.289
  503SOL    HW3 2043  -0.044   3.989   1.158
  503SOL    MW4 2044   0.019   4.031   1.202
  504SOL     OW 2045   4.489   4.312   1.113
  504SOL    HW2 2046   4.562   4.360   1.152
  504SOL    HW3 2047   4.499   4.223   1.146
  504SOL    MW4 2048   4.500   4.307   1.123
  505SOL     OW 2049   0.229   4.438   1.192
  505SOL    HW2 2050   0.232   4.442   1.288
  505SOL    HW3 2051   0.206   4.527   1.165
  505SOL    MW4 2052   0.226   4.450   1.201
  506SOL     OW 2053   0.653   4.628   1.121
  506SOL    HW2 2054   0.739   4.661   1.146
  506SOL    HW3 2055   0.656   4.534   1.140
  506SOL    MW4 2056   0.665   4.620   1.127
  507SOL     OW 2057   0.435   0.111   1.205
  507SOL    HW2 2058   0.447   0.197   1.165
  507SOL    HW3 2059   0.520   0.068   1.196
  507SOL    MW4 2060   0.447   0.117   1.198
  508SOL     OW 2061   0.431   0.382   1.100
  508SOL    HW2 2062   0.353   0.411   1.146
  508SOL    HW3 2063   0.422   0.417   1.011
  508SOL    MW4 2064   0.420   0.390   1.094
  509SOL     OW 2065   0.675   0.500   1.181
  509SOL    HW2 2066   0.682   0.593   1.158
  509SOL    HW3 2067   0.589   0.474   1.149
  509SOL    MW4 2068   0.665   0.509   1.173
  510SOL     OW 2069   0.692   0.758   1.103
  510SOL    HW2 2070   0.610   0.789   1.142
  510SOL    HW3 2071   0.686   0.785   1.011
  510SOL    MW4 2072   0.680   0.766   1.096
  511SOL     OW 2073   0.475   0.889   1.205
  511SOL    HW2 2074   0.484   0.890   1.301
  511SOL    HW3 2075   0.448   0.977   1.182
  511SOL    MW4 2076   0.473   0.901   1.215
  512SOL     OW 2077   0.441   1.150   1.140
  512SOL    HW2 2078   0.529   1.175   1.167
  512SOL    HW3 2079   0.442   1.159   1.045
  512SOL    MW4 2080   0.453   1.154   1.131
  513SOL     OW 2081   0.692   1.283   1.222
  513SOL    HW2 2082   0.767   1.254   1.170
  513SOL    HW3 2083   0.676   1.372   1.193
  513SOL    MW4 2084   0.700   1.291   1.211
  514SOL     OW 2085   0.684   1.548   1.121
  514SOL    HW2 2086   0.763   1.581   1.164
  514SOL    HW3 2087   0.615   1.609   1.147
  514SOL    MW4 2088   0.685   1.560   1.130
  515SOL     OW 2089   0.457   1.712   1.166
  515SOL    HW2 2090   0.457   1.707   1.261
  515SOL    HW3 2091   0.386   1.655   1.138
  515SOL    MW4 2092   0.448   1.704   1.174
  516SOL     OW 2093   0.459   1.994   1.123
  516SOL    HW2 2094   0.467   1.900   1.141
  516SOL    HW3 2095   0.370   2.016   1.149
  516SOL    MW4 2096   0.449   1.984   1.129
  517SOL     OW 2097   0.699   2.052   1.223
  517SOL    HW2 2098   0.683   2.031   1.315
  517SOL    HW3 2099   0.618   2.029   1.179
  517SOL    MW4 2100   0.686   2.046   1.230
  518SOL     OW 2101   0.711   2.333   1.169
  518SOL    HW2 2102   0.629   2.379   1.185
  518SOL    HW3 2103   0.703   2.251   1.218
  518SOL    MW4 2104   0.699   2.328   1.178
  519SOL     OW 2105   0.453   2.425   1.262
  519SOL    HW2 2106   0.472   2.411   1.355
  519SOL    HW3 2107   0.451   2.520   1.252
  519SOL    MW4 2108   0.455   2.435   1.273
  520SOL     OW 2109   0.463   2.698   1.175
  520SOL    HW2 2110   0.390   2.737   1.222
  520SOL    HW3 2111   0.444   2.714   1.083
  520SOL    MW4 2112   0.451   2.705   1.169
  521SOL     OW 2113   0.679   2.851   1.234
  521SOL    HW2 2114   0.659   2.942   1.214
  521SOL    HW3 2115   0.601   2.802   1.207
  521SOL    MW4 2116   0.666   2.856   1.228
  522SOL     OW 2117   0.607   3.107   1.158
  522SOL    HW2 2118   0.696   3.140   1.172
  522SOL    HW3 2119   0.596   3.109   1.063
  522SOL    MW4 2120   0.618   3.112   1.148
  523SOL     OW 2121   0.396   3.275   1.271
  523SOL    HW2 2122   0.389   3.357   1.221
  523SOL    HW3 2123   0.481   3.239   1.246
  523SOL    MW4 2124   0.406   3.281   1.261
  524SOL     OW 2125   0.390   3.488   1.105
  524SOL    HW2 2126   0.469   3.525   1.144
  524SOL    HW3 2127   0.318   3.540   1.142
  524SOL    MW4 2128   0.391   3.500   1.115
  525SOL     OW 2129   0.613   3.592   1.237
  525SOL    HW2 2130   0.632   3.602   1.330
  525SOL    HW3 2131   0.617   3.681   1.202
  525SOL    MW4 2132   0.616   3.605   1.245
  526SOL     OW 2133   0.692   3.836   1.105
  526SOL    HW2 2134   0.621   3.897   1.125
  526SOL    HW3 2135   0.696   3.835   1.009
  526SOL    MW4 2136   0.683   3.844   1.095
  527SOL     OW 2137   0.483   4.012   1.150
  527SOL    HW2 2138   0.469   4.100   1.114
  527SOL    HW3 2139   0.407   3.962   1.119
  527SOL    MW4 2140   0.471   4.017   1.141
  528SOL     OW 2141   0.447   4.287   1.080
  528SOL    HW2 2142   0.518   4.340   1.117
  528SOL    HW3 2143   0.367   4.325   1.116
  528SOL    MW4 2144   0.446   4.299   1.090
  529SOL     OW 2145   0.667   4.373   1.221
  529SOL    HW2 2146   0.657   4.351   1.314
  529SOL    HW3 2147   0.743   4.322   1.193
  529SOL    MW4 2148   0.676   4.363   1.230
  530SOL     OW 2149   1.140   4.658   1.084
  530SOL    HW2 2150   1.110   4.579   1.129
  530SOL    HW3 2151   1.152   4.630   0.993
  530SOL    MW4 2152   1.137   4.644   1.078
  531SOL     OW 2153   0.895   0.080   1.191
  531SOL    HW2 2154   0.908   0.090   1.285
  531SOL    HW3 2155   0.979   0.051   1.157
  531SOL    MW4 2156   0.908   0.077   1.199
  532SOL     OW 2157   0.900   0.364   1.091
  532SOL    HW2 2158   0.909   0.282   1.139
  532SOL    HW3 2159   0.814   0.398   1.116
  532SOL    MW4 2160   0.890   0.358   1.100
  533SOL     OW 2161   1.140   0.481   1.178
  533SOL    HW2 2162   1.130   0.477   1.273
  533SOL    HW3 2163   1.056   0.450   1.144
  533SOL    MW4 2164   1.127   0.476   1.186
  534SOL     OW 2165   1.186   0.746   1.122
  534SOL    HW2 2166   1.112   0.789   1.166
  534SOL    HW3 2167   1.171   0.652   1.137
  534SOL    MW4 2168   1.174   0.739   1.130
  535SOL     OW 2169   0.955   0.894   1.173
  535SOL    HW2 2170   0.944   0.986   1.151
  535SOL    HW3 2171   0.872   0.853   1.148
  535SOL    MW4 2172   0.943   0.900   1.167
  536SOL     OW 2173   0.910   1.162   1.083
  536SOL    HW2 2174   0.982   1.215   1.117
  536SOL    HW3 2175   0.906   1.184   0.990
  536SOL    MW4 2176   0.919   1.172   1.075
  537SOL     OW 2177   1.103   1.259   1.256
  537SOL    HW2 2178   1.105   1.279   1.350
  537SOL    HW3 2179   1.185   1.210   1.241
  537SOL    MW4 2180   1.114   1.255   1.267
  538SOL     OW 2181   1.158   1.505   1.155
  538SOL    HW2 2182   1.143   1.416   1.187
  538SOL    HW3 2183   1.171   1.495   1.061
  538SOL    MW4 2184   1.158   1.492   1.147
  539SOL     OW 2185   0.910   1.670   1.229
  539SOL    HW2 2186   0.922   1.759   1.195
  539SOL    HW3 2187   0.994   1.627   1.214
  539SOL    MW4 2188   0.923   1.676   1.223
  540SOL     OW 2189   0.912   1.922   1.104
  540SOL    HW2 2190   0.991   1.968   1.132
  540SOL    HW3 2191   0.841   1.966   1.150
  540SOL    MW4 2192   0.913   1.934   1.114
  541SOL     OW 2193   1.129   2.066   1.200
  541SOL    HW2 2194   1.115   2.078   1.294
  541SOL    HW3 2195   1.113   2.152   1.161
  541SOL    MW4 2196   1.125   2.079   1.207
  542SOL     OW 2197   1.141   2.316   1.062
  542SOL    HW2 2198   1.225   2.348   1.095
  542SOL    HW3 2199   1.076   2.366   1.111
  542SOL    MW4 2200   1.144   2.326   1.073
  543SOL     OW 2201   0.936   2.485   1.199
  543SOL    HW2 2202   0.937   2.490   1.295
  543SOL    HW3 2203   0.862   2.426   1.180
  543SOL    MW4 2204   0.926   2.478   1.209
  544SOL     OW 2205   0.850   2.711   1.060
  544SOL    HW2 2206   0.881   2.634   1.108
  544SOL    HW3 2207   0.794   2.758   1.122
  544SOL    MW4 2208   0.847   2.707   1.074
  545SOL     OW 2209   1.101   2.845   1.171
  545SOL    HW2 2210   1.088   2.830   1.265
  545SOL    HW3 2211   1.014   2.836   1.133
  545SOL    MW4 2212   1.088   2.842   1.179
  546SOL     OW 2213   1.116   3.120   1.110
  546SOL    HW2 2214   1.139   3.030   1.134
  546SOL    HW3 2215   1.129   3.123   1.015
  546SOL    MW4 2216   1.121   3.108   1.101
  547SOL     OW 2217   0.852   3.213   1.186
  547SOL    HW2 2218   0.855   3.305   1.161
  547SOL    HW3 2219   0.934   3.176   1.155
  547SOL    MW4 2220   0.863   3.220   1.179
  548SOL     OW 2221   0.855   3.481   1.139
  548SOL    HW2 2222   0.788   3.536   1.180
  548SOL    HW3 2223   0.829   3.478   1.047
  548SOL    MW4 2224   0.843   3.488   1.132
  549SOL     OW 2225   1.094   3.634   1.211
  549SOL    HW2 2226   1.167   3.572   1.204
  549SOL    HW3 2227   1.020   3.588   1.173
  549SOL    MW4 2228   1.094   3.620   1.205
  550SOL     OW 2229   1.137   3.877   1.091
  550SOL    HW2 2230   1.070   3.931   1.133
  550SOL    HW3 2231   1.128   3.791   1.133
  550SOL    MW4 2232   1.127   3.873   1.102
  551SOL     OW 2233   0.913   3.984   1.205
  551SOL    HW2 2234   0.901   4.000   1.299
  551SOL    HW3 2235   0.849   3.916   1.184
  551SOL    MW4 2236   0.903   3.977   1.215
  552SOL     OW 2237   0.877   4.241   1.089
  552SOL    HW2 2238   0.892   4.153   1.124
  552SOL    HW3 2239   0.883   4.229   0.994
  552SOL    MW4 2240   0.880   4.228   1.081
  553SOL     OW 2241   1.079   4.418   1.202
  553SOL    HW2 2242   1.073   4.417   1.297
  553SOL    HW3 2243   1.005   4.364   1.172
  553SOL    MW4 2244   1.068   4.411   1.210
  554SOL     OW 2245   1.575   4.628   1.106
  554SOL    HW2 2246   1.648   4.670   1.152
  554SOL    HW3 2247   1.571   4.540   1.143
  554SOL    MW4 2248   1.584   4.622   1.117
  555SOL     OW 2249   1.363   0.094   1.228
  555SOL    HW2 2250   1.442   0.057   1.189
  555SOL    HW3 2251   1.291   0.048   1.185
  555SOL    MW4 2252   1.364   0.083   1.217
  556SOL     OW 2253   1.378   0.355   1.125
  556SOL    HW2 2254   1.366   0.267   1.162
  556SOL    HW3 2255   1.296   0.400   1.144
  556SOL    MW4 2256   1.366   0.349   1.133
  557SOL     OW 2257   1.575   0.516   1.226
  557SOL    HW2 2258   1.570   0.602   1.183
  557SOL    HW3 2259   1.501   0.467   1.191
  557SOL    MW4 2260   1.565   0.521   1.215
  558SOL     OW 2261   1.585   0.783   1.142
  558SOL    HW2 2262   1.666   0.832   1.153
  558SOL    HW3 2263   1.581   0.761   1.049
  558SOL    MW4 2264   1.595   0.786   1.131
  559SOL     OW 2265   1.364   0.922   1.241
  559SOL    HW2 2266   1.449   0.883   1.217
  559SOL    HW3 2267   1.300   0.866   1.198
  559SOL    MW4 2268   1.367   0.909   1.232
  560SOL     OW 2269   1.348   1.178   1.128
  560SOL    HW2 2270   1.352   1.088   1.158
  560SOL    HW3 2271   1.342   1.171   1.032
  560SOL    MW4 2272   1.347   1.165   1.119
  561SOL     OW 2273   1.565   1.304   1.245
  561SOL    HW2 2274   1.643   1.264   1.208
  561SOL    HW3 2275   1.492   1.265   1.196
  561SOL    MW4 2276   1.566   1.294   1.234
  562SOL     OW 2277   1.599   1.578   1.174
  562SOL    HW2 2278   1.659   1.619   1.236
  562SOL    HW3 2279   1.589   1.488   1.206
  562SOL    MW4 2280   1.606   1.572   1.187
  563SOL     OW 2281   1.356   1.647   1.267
  563SOL    HW2 2282   1.434   1.623   1.217
  563SOL    HW3 2283   1.286   1.595   1.228
  563SOL    MW4 2284   1.357   1.637   1.255
  564SOL     OW 2285   1.343   1.919   1.120
  564SOL    HW2 2286   1.341   1.833   1.161
  564SOL    HW3 2287   1.276   1.969   1.166
  564SOL    MW4 2288   1.334   1.914   1.131
  565SOL     OW 2289   1.561   2.038   1.230
  565SOL    HW2 2290   1.577   2.120   1.183
  565SOL    HW3 2291   1.490   1.996   1.182
  565SOL    MW4 2292   1.554   2.043   1.217
  566SOL     OW 2293   1.615   2.284   1.120
  566SOL    HW2 2294   1.530   2.316   1.151
  566SOL    HW3 2295   1.616   2.306   1.027
  566SOL    MW4 2296   1.604   2.291   1.112
  567SOL     OW 2297   1.375   2.413   1.197
  567SOL    HW2 2298   1.364   2.419   1.292
  567SOL    HW3 2299   1.354   2.501   1.166
  567SOL    MW4 2300   1.371   2.426   1.206
  568SOL     OW 2301   1.315   2.674   1.118
  568SOL    HW2 2302   1.387   2.732   1.144
  568SOL    HW3 2303   1.237   2.718   1.151
  568SOL    MW4 2304   1.314   2.687   1.126
  569SOL     OW 2305   1.513   2.834   1.205
  569SOL    HW2 2306   1.598   2.794   1.191
  569SOL    HW3 2307   1.526   2.926   1.183
  569SOL    MW4 2308   1.526   2.841   1.201
  570SOL     OW 2309   1.557   3.099   1.095
  570SOL    HW2 2310   1.645   3.116   1.129
  570SOL    HW3 2311   1.500   3.158   1.144
  570SOL    MW4 2312   1.561   3.109   1.106
  571SOL     OW 2313   1.354   3.249   1.200
  571SOL    HW2 2314   1.350   3.242   1.295
  571SOL    HW3 2315   1.277   3.201   1.170
  571SOL    MW4 2316   1.344   3.242   1.208
  572SOL     OW 2317   1.338   3.507   1.142
  572SOL    HW2 2318   1.348   3.415   1.165
  572SOL    HW3 2319   1.354   3.510   1.047
  572SOL    MW4 2320   1.341   3.495   1.132
  573SOL     OW 2321   1.557   3.617   1.254
  573SOL    HW2 2322   1.566   3.704   1.216
  573SOL    HW3 2323   1.475   3.583   1.218
  573SOL    MW4 2324   1.547   3.624   1.244
  574SOL     OW 2325   1.556   3.887   1.157
  574SOL    HW2 2326   1.478   3.936   1.186
  574SOL    HW3 2327   1.555   3.895   1.062
  574SOL    MW4 2328   1.545   3.895   1.149
  575SOL     OW 2329   1.334   4.000   1.240
  575SOL    HW2 2330   1.317   4.085   1.198
  575SOL    HW3 2331   1.280   3.938   1.191
  575SOL    MW4 2332   1.324   4.003   1.228
  576SOL     OW 2333   1.297   4.239   1.132
  576SOL    HW2 2334   1.222   4.296   1.151
  576SOL    HW3 2335   1.307   4.242   1.037
  576SOL    MW4 2336   1.288   4.247   1.122
  577SOL     OW 2337   1.551   4.353   1.213
  577SOL    HW2 2338   1.552   4.359   1.308
  577SOL    HW3 2339   1.463   4.320   1.192
  577SOL    MW4 2340   1.539   4.349   1.223
  578SOL     OW 2341   2.003   0.021   1.143
  578SOL    HW2 2342   2.028  -0.071   1.144
  578SOL    HW3 2343   1.975   0.037   1.053
  578SOL    MW4 2344   2.002   0.011   1.131
  579SOL     OW 2345   1.763   0.097   1.246
  579SOL    HW2 2346   1.766   0.181   1.200
  579SOL    HW3 2347   1.843   0.052   1.219
  579SOL    MW4 2348   1.774   0.102   1.237
  580SOL     OW 2349   1.773   0.347   1.132
  580SOL    HW2 2350   1.693   0.397   1.148
  580SOL    HW3 2351   1.797   0.367   1.042
  580SOL    MW4 2352   1.766   0.356   1.123
  581SOL     OW 2353   1.980   0.517   1.224
  581SOL    HW2 2354   2.004   0.525   1.317
  581SOL    HW3 2355   1.911   0.450   1.223
  581SOL    MW4 2356   1.974   0.509   1.236
  582SOL     OW 2357   1.981   0.779   1.136
  582SOL    HW2 2358   1.963   0.689   1.164
  582SOL    HW3 2359   1.974   0.776   1.041
  582SOL    MW4 2360   1.978   0.767   1.127
  583SOL     OW 2361   1.771   0.957   1.236
  583SOL    HW2 2362   1.771   0.954   1.332
  583SOL    HW3 2363   1.847   0.905   1.210
  583SOL    MW4 2364   1.781   0.950   1.245
  584SOL     OW 2365   1.801   1.216   1.135
  584SOL    HW2 2366   1.795   1.122   1.153
  584SOL    HW3 2367   1.816   1.223   1.041
  584SOL    MW4 2368   1.802   1.205   1.125
  585SOL     OW 2369   2.006   1.326   1.272
  585SOL    HW2 2370   2.075   1.262   1.256
  585SOL    HW3 2371   1.931   1.292   1.224
  585SOL    MW4 2372   2.006   1.313   1.264
  586SOL     OW 2373   2.013   1.576   1.148
  586SOL    HW2 2374   2.026   1.488   1.183
  586SOL    HW3 2375   1.990   1.563   1.056
  586SOL    MW4 2376   2.012   1.563   1.141
  587SOL     OW 2377   1.822   1.712   1.281
  587SOL    HW2 2378   1.830   1.801   1.246
  587SOL    HW3 2379   1.888   1.661   1.233
  587SOL    MW4 2380   1.832   1.717   1.270
  588SOL     OW 2381   1.833   1.970   1.142
  588SOL    HW2 2382   1.739   1.977   1.158
  588SOL    HW3 2383   1.840   1.969   1.047
  588SOL    MW4 2384   1.821   1.971   1.132
  589SOL     OW 2385   2.076   2.090   1.216
  589SOL    HW2 2386   2.079   2.090   1.311
  589SOL    HW3 2387   1.994   2.046   1.194
  589SOL    MW4 2388   2.066   2.084   1.225
  590SOL     OW 2389   2.050   2.337   1.099
  590SOL    HW2 2390   2.114   2.399   1.133
  590SOL    HW3 2391   2.065   2.256   1.149
  590SOL    MW4 2392   2.060   2.334   1.111
  591SOL     OW 2393   1.822   2.433   1.215
  591SOL    HW2 2394   1.902   2.393   1.182
  591SOL    HW3 2395   1.753   2.371   1.191
  591SOL    MW4 2396   1.823   2.419   1.208
  592SOL     OW 2397   1.746   2.693   1.159
  592SOL    HW2 2398   1.773   2.606   1.188
  592SOL    HW3 2399   1.761   2.692   1.065
  592SOL    MW4 2400   1.751   2.682   1.151
  593SOL     OW 2401   1.987   2.809   1.219
  593SOL    HW2 2402   1.985   2.897   1.182
  593SOL    HW3 2403   1.901   2.772   1.197
  593SOL    MW4 2404   1.975   2.815   1.211
  594SOL     OW 2405   2.023   3.073   1.101
  594SOL    HW2 2406   1.945   3.128   1.113
  594SOL    HW3 2407   2.031   3.063   1.006
  594SOL    MW4 2408   2.014   3.079   1.090
  595SOL     OW 2409   1.799   3.200   1.187
  595SOL    HW2 2410   1.814   3.197   1.281
  595SOL    HW3 2411   1.794   3.293   1.166
  595SOL    MW4 2412   1.800   3.212   1.196
  596SOL     OW 2413   1.767   3.471   1.147
  596SOL    HW2 2414   1.840   3.519   1.187
  596SOL    HW3 2415   1.691   3.493   1.201
  596SOL    MW4 2416   1.767   3.480   1.159
  597SOL     OW 2417   1.976   3.647   1.221
  597SOL    HW2 2418   1.991   3.622   1.312
  597SOL    HW3 2419   2.054   3.616   1.174
  597SOL    MW4 2420   1.988   3.639   1.227
  598SOL     OW 2421   2.011   3.910   1.145
  598SOL    HW2 2422   1.930   3.951   1.176
  598SOL    HW3 2423   2.001   3.818   1.167
  598SOL    MW4 2424   1.999   3.904   1.152
  599SOL     OW 2425   1.772   4.031   1.247
  599SOL    HW2 2426   1.791   4.017   1.339
  599SOL    HW3 2427   1.692   3.980   1.231
  599SOL    MW4 2428   1.764   4.022   1.257
  600SOL     OW 2429   1.787   4.268   1.095
  600SOL    HW2 2430   1.802   4.188   1.145
  600SOL    HW3 2431   1.712   4.309   1.138
  600SOL    MW4 2432   1.779   4.263   1.107
  601SOL     OW 2433   2.019   4.404   1.196
  601SOL    HW2 2434   2.017   4.404   1.291
  601SOL    HW3 2435   1.937   4.362   1.170
  601SOL    MW4 2436   2.008   4.399   1.205
  602SOL     OW 2437   2.450   0.029   1.129
  602SOL    HW2 2438   2.529   0.070   1.163
  602SOL    HW3 2439   2.378   0.079   1.170
  602SOL    MW4 2440   2.451   0.041   1.139
  603SOL     OW 2441   2.236   0.140   1.250
  603SOL    HW2 2442   2.208   0.222   1.210
  603SOL    HW3 2443   2.177   0.074   1.213
  603SOL    MW4 2444   2.224   0.142   1.240
  604SOL     OW 2445   2.206   0.387   1.140
  604SOL    HW2 2446   2.131   0.439   1.170
  604SOL    HW3 2447   2.229   0.424   1.055
  604SOL    MW4 2448   2.199   0.398   1.133
  605SOL     OW 2449   2.450   0.507   1.220
  605SOL    HW2 2450   2.460   0.518   1.315
  605SOL    HW3 2451   2.372   0.451   1.211
  605SOL    MW4 2452   2.441   0.501   1.232
  606SOL     OW 2453   2.433   0.763   1.123
  606SOL    HW2 2454   2.453   0.673   1.149
  606SOL    HW3 2455   2.415   0.758   1.030
  606SOL    MW4 2456   2.433   0.750   1.114
  607SOL     OW 2457   2.218   0.865   1.274
  607SOL    HW2 2458   2.284   0.827   1.217
  607SOL    HW3 2459   2.134   0.840   1.235
  607SOL    MW4 2460   2.215   0.857   1.262
  608SOL     OW 2461   2.185   1.124   1.192
  608SOL    HW2 2462   2.271   1.166   1.197
  608SOL    HW3 2463   2.200   1.035   1.225
  608SOL    MW4 2464   2.199   1.118   1.197
  609SOL     OW 2465   2.419   1.278   1.193
  609SOL    HW2 2466   2.507   1.243   1.185
  609SOL    HW3 2467   2.423   1.363   1.148
  609SOL    MW4 2468   2.431   1.285   1.186
  610SOL     OW 2469   2.478   1.548   1.143
  610SOL    HW2 2470   2.399   1.597   1.166
  610SOL    HW3 2471   2.477   1.545   1.047
  610SOL    MW4 2472   2.467   1.554   1.133
  611SOL     OW 2473   2.247   1.688   1.244
  611SOL    HW2 2474   2.255   1.777   1.211
  611SOL    HW3 2475   2.167   1.654   1.202
  611SOL    MW4 2476   2.237   1.695   1.234
  612SOL     OW 2477   2.268   1.937   1.129
  612SOL    HW2 2478   2.198   1.993   1.163
  612SOL    HW3 2479   2.260   1.944   1.033
  612SOL    MW4 2480   2.257   1.945   1.121
  613SOL     OW 2481   2.492   2.039   1.234
  613SOL    HW2 2482   2.574   1.998   1.207
  613SOL    HW3 2483   2.424   1.989   1.189
  613SOL    MW4 2484   2.493   2.027   1.224
  614SOL     OW 2485   2.460   2.312   1.132
  614SOL    HW2 2486   2.477   2.224   1.167
  614SOL    HW3 2487   2.451   2.300   1.038
  614SOL    MW4 2488   2.461   2.299   1.124
  615SOL     OW 2489   2.263   2.476   1.228
  615SOL    HW2 2490   2.269   2.478   1.324
  615SOL    HW3 2491   2.340   2.426   1.200
  615SOL    MW4 2492   2.274   2.470   1.237
  616SOL     OW 2493   2.245   2.746   1.124
  616SOL    HW2 2494   2.250   2.653   1.148
  616SOL    HW3 2495   2.161   2.775   1.157
  616SOL    MW4 2496   2.235   2.737   1.131
  617SOL     OW 2497   2.459   2.886   1.215
  617SOL    HW2 2498   2.459   2.879   1.310
  617SOL    HW3 2499   2.382   2.836   1.187
  617SOL    MW4 2500   2.449   2.879   1.224
  618SOL     OW 2501   2.476   3.138   1.108
  618SOL    HW2 2502   2.398   3.192   1.122
  618SOL    HW3 2503   2.451   3.052   1.142
  618SOL    MW4 2504   2.462   3.134   1.114
  619SOL     OW 2505   2.221   3.242   1.198
  619SOL    HW2 2506   2.188   3.324   1.162
  619SOL    HW3 2507   2.152   3.178   1.177
  619SOL    MW4 2508   2.207   3.244   1.190
  620SOL     OW 2509   2.199   3.523   1.098
  620SOL    HW2 2510   2.280   3.562   1.131
  620SOL    HW3 2511   2.208   3.525   1.003
  620SOL    MW4 2512   2.211   3.528   1.090
  621SOL     OW 2513   2.443   3.613   1.220
  621SOL    HW2 2514   2.429   3.602   1.315
  621SOL    HW3 2515   2.468   3.705   1.210
  621SOL    MW4 2516   2.445   3.623   1.232
  622SOL     OW 2517   2.484   3.888   1.141
  622SOL    HW2 2518   2.418   3.955   1.157
  622SOL    HW3 2519   2.484   3.875   1.046
  622SOL    MW4 2520   2.476   3.895   1.131
  623SOL     OW 2521   2.257   4.036   1.195
  623SOL    HW2 2522   2.266   4.123   1.156
  623SOL    HW3 2523   2.165   4.013   1.181
  623SOL    MW4 2524   2.246   4.044   1.188
  624SOL     OW 2525   2.263   4.308   1.078
  624SOL    HW2 2526   2.177   4.329   1.114
  624SOL    HW3 2527   2.248   4.291   0.985
  624SOL    MW4 2528   2.250   4.308   1.071
  625SOL     OW 2529   2.494   4.432   1.197
  625SOL    HW2 2530   2.422   4.390   1.150
  625SOL    HW3 2531   2.485   4.525   1.176
  625SOL    MW4 2532   2.483   4.439   1.188
  626SOL     OW 2533   2.928   4.651   1.122
  626SOL    HW2 2534   2.926   4.559   1.149
  626SOL    HW3 2535   2.922   4.648   1.027
  626SOL    MW4 2536   2.927   4.638   1.113
  627SOL     OW 2537   2.704   0.123   1.227
  627SOL    HW2 2538   2.712   0.102   1.320
  627SOL    HW3 2539   2.772   0.070   1.184
  627SOL    MW4 2540   2.714   0.113   1.233
  628SOL     OW 2541   2.707   0.380   1.131
  628SOL    HW2 2542   2.725   0.295   1.170
  628SOL    HW3 2543   2.632   0.414   1.179
  628SOL    MW4 2544   2.700   0.373   1.142
  629SOL     OW 2545   2.924   0.512   1.255
  629SOL    HW2 2546   2.937   0.603   1.226
  629SOL    HW3 2547   2.842   0.486   1.214
  629SOL    MW4 2548   2.915   0.521   1.246
  630SOL     OW 2549   2.916   0.769   1.120
  630SOL    HW2 2550   2.997   0.810   1.150
  630SOL    HW3 2551   2.846   0.820   1.161
  630SOL    MW4 2552   2.918   0.781   1.129
  631SOL     OW 2553   2.668   0.907   1.203
  631SOL    HW2 2554   2.657   1.000   1.225
  631SOL    HW3 2555   2.582   0.880   1.170
  631SOL    MW4 2556   2.655   0.916   1.202
  632SOL     OW 2557   2.692   1.176   1.188
  632SOL    HW2 2558   2.776   1.217   1.210
  632SOL    HW3 2559   2.699   1.158   1.094
  632SOL    MW4 2560   2.704   1.179   1.178
  633SOL     OW 2561   2.932   1.310   1.213
  633SOL    HW2 2562   2.923   1.322   1.307
  633SOL    HW3 2563   2.904   1.393   1.175
  633SOL    MW4 2564   2.927   1.322   1.220
  634SOL     OW 2565   2.893   1.551   1.095
  634SOL    HW2 2566   2.961   1.594   1.148
  634SOL    HW3 2567   2.920   1.565   1.005
  634SOL    MW4 2568   2.905   1.558   1.090
  635SOL     OW 2569   2.694   1.658   1.254
  635SOL    HW2 2570   2.756   1.609   1.201
  635SOL    HW3 2571   2.608   1.627   1.225
  635SOL    MW4 2572   2.691   1.648   1.243
  636SOL     OW 2573   2.708   1.889   1.093
  636SOL    HW2 2574   2.785   1.936   1.124
  636SOL    HW3 2575   2.704   1.810   1.147
  636SOL    MW4 2576   2.718   1.885   1.104
  637SOL     OW 2577   2.899   2.081   1.163
  637SOL    HW2 2578   2.909   2.098   1.256
  637SOL    HW3 2579   2.911   2.166   1.121
  637SOL    MW4 2580   2.902   2.094   1.170
  638SOL     OW 2581   2.906   2.335   1.050
  638SOL    HW2 2582   2.978   2.370   1.102
  638SOL    HW3 2583   2.827   2.366   1.094
  638SOL    MW4 2584   2.905   2.344   1.062
  639SOL     OW 2585   2.685   2.485   1.193
  639SOL    HW2 2586   2.686   2.485   1.289
  639SOL    HW3 2587   2.610   2.432   1.169
  639SOL    MW4 2588   2.675   2.478   1.202
  640SOL     OW 2589   2.638   2.744   1.086
  640SOL    HW2 2590   2.642   2.657   1.125
  640SOL    HW3 2591   2.585   2.796   1.147
  640SOL    MW4 2592   2.631   2.740   1.099
  641SOL     OW 2593   2.890   2.829   1.159
  641SOL    HW2 2594   2.892   2.832   1.255
  641SOL    HW3 2595   2.810   2.782   1.138
  641SOL    MW4 2596   2.880   2.823   1.169
  642SOL     OW 2597   2.912   3.103   1.083
  642SOL    HW2 2598   2.899   3.010   1.105
  642SOL    HW3 2599   2.930   3.102   0.989
  642SOL    MW4 2600   2.913   3.090   1.073
  643SOL     OW 2601   2.714   3.237   1.223
  643SOL    HW2 2602   2.776   3.197   1.163
  643SOL    HW3 2603   2.631   3.193   1.205
  643SOL    MW4 2604   2.711   3.226   1.212
  644SOL     OW 2605   2.681   3.512   1.125
  644SOL    HW2 2606   2.676   3.419   1.145
  644SOL    HW3 2607   2.606   3.551   1.171
  644SOL    MW4 2608   2.670   3.505   1.134
  645SOL     OW 2609   2.933   3.598   1.242
  645SOL    HW2 2610   3.008   3.570   1.190
  645SOL    HW3 2611   2.859   3.550   1.205
  645SOL    MW4 2612   2.933   3.588   1.230
  646SOL     OW 2613   2.939   3.862   1.124
  646SOL    HW2 2614   3.023   3.898   1.153
  646SOL    HW3 2615   2.942   3.770   1.153
  646SOL    MW4 2616   2.951   3.855   1.132
  647SOL     OW 2617   2.712   4.034   1.185
  647SOL    HW2 2618   2.793   3.984   1.177
  647SOL    HW3 2619   2.642   3.971   1.170
  647SOL    MW4 2620   2.713   4.019   1.182
  648SOL     OW 2621   2.685   4.278   1.066
  648SOL    HW2 2622   2.682   4.187   1.095
  648SOL    HW3 2623   2.611   4.320   1.110
  648SOL    MW4 2624   2.675   4.271   1.076
  649SOL     OW 2625   2.884   4.376   1.201
  649SOL    HW2 2626   2.952   4.316   1.171
  649SOL    HW3 2627   2.804   4.344   1.160
  649SOL    MW4 2628   2.882   4.364   1.191
  650SOL     OW 2629   3.373   4.648   1.157
  650SOL    HW2 2630   3.438   4.710   1.190
  650SOL    HW3 2631   3.290   4.695   1.165
  650SOL    MW4 2632   3.370   4.662   1.163
  651SOL     OW 2633   3.156   0.137   1.193
  651SOL    HW2 2634   3.156   0.142   1.288
  651SOL    HW3 2635   3.079   0.085   1.172
  651SOL    MW4 2636   3.146   0.131   1.202
  652SOL     OW 2637   3.153   0.410   1.117
  652SOL    HW2 2638   3.147   0.317   1.138
  652SOL    HW3 2639   3.079   0.450   1.163
  652SOL    MW4 2640   3.143   0.403   1.126
  653SOL     OW 2641   3.400   0.514   1.243
  653SOL    HW2 2642   3.404   0.595   1.192
  653SOL    HW3 2643   3.316   0.475   1.219
  653SOL    MW4 2644   3.389   0.519   1.233
  654SOL     OW 2645   3.423   0.781   1.122
  654SOL    HW2 2646   3.334   0.814   1.138
  654SOL    HW3 2647   3.429   0.772   1.027
  654SOL    MW4 2648   3.412   0.784   1.112
  655SOL     OW 2649   3.173   0.879   1.181
  655SOL    HW2 2650   3.180   0.878   1.277
  655SOL    HW3 2651   3.164   0.971   1.158
  655SOL    MW4 2652   3.173   0.891   1.191
  656SOL     OW 2653   3.121   1.143   1.100
  656SOL    HW2 2654   3.200   1.194   1.117
  656SOL    HW3 2655   3.051   1.193   1.141
  656SOL    MW4 2656   3.123   1.156   1.108
  657SOL     OW 2657   3.360   1.311   1.210
  657SOL    HW2 2658   3.343   1.308   1.304
  657SOL    HW3 2659   3.361   1.404   1.188
  657SOL    MW4 2660   3.358   1.323   1.220
  658SOL     OW 2661   3.341   1.568   1.075
  658SOL    HW2 2662   3.415   1.616   1.110
  658SOL    HW3 2663   3.266   1.596   1.127
  658SOL    MW4 2664   3.341   1.578   1.086
  659SOL     OW 2665   3.118   1.665   1.209
  659SOL    HW2 2666   3.104   1.667   1.304
  659SOL    HW3 2667   3.113   1.756   1.181
  659SOL    MW4 2668   3.116   1.677   1.218
  660SOL     OW 2669   3.155   1.933   1.115
  660SOL    HW2 2670   3.209   1.971   1.185
  660SOL    HW3 2671   3.070   1.975   1.124
  660SOL    MW4 2672   3.151   1.943   1.126
  661SOL     OW 2673   3.363   2.048   1.262
  661SOL    HW2 2674   3.437   2.000   1.226
  661SOL    HW3 2675   3.367   2.134   1.218
  661SOL    MW4 2676   3.373   2.053   1.251
  662SOL     OW 2677   3.349   2.292   1.076
  662SOL    HW2 2678   3.419   2.329   1.131
  662SOL    HW3 2679   3.269   2.327   1.114
  662SOL    MW4 2680   3.348   2.302   1.089
  663SOL     OW 2681   3.144   2.453   1.198
  663SOL    HW2 2682   3.143   2.463   1.293
  663SOL    HW3 2683   3.178   2.537   1.166
  663SOL    MW4 2684   3.148   2.466   1.206
  664SOL     OW 2685   3.143   2.731   1.102
  664SOL    HW2 2686   3.059   2.775   1.113
  664SOL    HW3 2687   3.144   2.704   1.011
  664SOL    MW4 2688   3.132   2.733   1.092
  665SOL     OW 2689   3.377   2.866   1.187
  665SOL    HW2 2690   3.376   2.953   1.146
  665SOL    HW3 2691   3.298   2.823   1.153
  665SOL    MW4 2692   3.367   2.872   1.177
  666SOL     OW 2693   3.364   3.113   1.075
  666SOL    HW2 2694   3.423   3.163   1.131
  666SOL    HW3 2695   3.276   3.137   1.106
  666SOL    MW4 2696   3.360   3.123   1.087
  667SOL     OW 2697   3.141   3.232   1.205
  667SOL    HW2 2698   3.139   3.324   1.180
  667SOL    HW3 2699   3.056   3.198   1.176
  667SOL    MW4 2700   3.130   3.240   1.198
  668SOL     OW 2701   3.158   3.487   1.090
  668SOL    HW2 2702   3.244   3.508   1.126
  668SOL    HW3 2703   3.173   3.477   0.996
  668SOL    MW4 2704   3.172   3.488   1.082
  669SOL     OW 2705   3.386   3.604   1.198
  669SOL    HW2 2706   3.403   3.623   1.290
  669SOL    HW3 2707   3.463   3.556   1.168
  669SOL    MW4 2708   3.398   3.601   1.206
  670SOL     OW 2709   3.419   3.856   1.057
  670SOL    HW2 2710   3.341   3.902   1.086
  670SOL    HW3 2711   3.414   3.771   1.101
  670SOL    MW4 2712   3.408   3.851   1.067
  671SOL     OW 2713   3.205   3.984   1.182
  671SOL    HW2 2714   3.207   3.968   1.276
  671SOL    HW3 2715   3.195   4.079   1.174
  671SOL    MW4 2716   3.204   3.994   1.193
  672SOL     OW 2717   3.123   4.261   1.122
  672SOL    HW2 2718   3.202   4.314   1.126
  672SOL    HW3 2719   3.101   4.256   1.029
  672SOL    MW4 2720   3.130   4.267   1.110
  673SOL     OW 2721   3.366   4.382   1.185
  673SOL    HW2 2722   3.438   4.338   1.140
  673SOL    HW3 2723   3.382   4.475   1.171
  673SOL    MW4 2724   3.378   4.388   1.177
  674SOL     OW 2725   3.807   4.655   1.112
  674SOL    HW2 2726   3.806   4.560   1.118
  674SOL    HW3 2727   3.792   4.674   1.019
  674SOL    MW4 2728   3.805   4.645   1.100
  675SOL     OW 2729   3.606   0.131   1.256
  675SOL    HW2 2730   3.610   0.219   1.219
  675SOL    HW3 2731   3.675   0.083   1.210
  675SOL    MW4 2732   3.616   0.137   1.245
  676SOL     OW 2733   3.615   0.382   1.126
  676SOL    HW2 2734   3.684   0.439   1.160
  676SOL    HW3 2735   3.534   0.419   1.161
  676SOL    MW4 2736   3.613   0.394   1.135
  677SOL     OW 2737   3.830   0.539   1.224
  677SOL    HW2 2738   3.907   0.497   1.185
  677SOL    HW3 2739   3.846   0.633   1.210
  677SOL    MW4 2740   3.843   0.546   1.217
  678SOL     OW 2741   3.875   0.795   1.127
  678SOL    HW2 2742   3.952   0.825   1.174
  678SOL    HW3 2743   3.805   0.854   1.155
  678SOL    MW4 2744   3.876   0.807   1.137
  679SOL     OW 2745   3.646   0.903   1.248
  679SOL    HW2 2746   3.635   0.995   1.224
  679SOL    HW3 2747   3.578   0.857   1.198
  679SOL    MW4 2748   3.636   0.909   1.238
  680SOL     OW 2749   3.581   1.134   1.129
  680SOL    HW2 2750   3.655   1.189   1.152
  680SOL    HW3 2751   3.505   1.182   1.162
  680SOL    MW4 2752   3.580   1.148   1.136
  681SOL     OW 2753   3.811   1.262   1.198
  681SOL    HW2 2754   3.814   1.262   1.294
  681SOL    HW3 2755   3.799   1.354   1.174
  681SOL    MW4 2756   3.810   1.274   1.208
  682SOL     OW 2757   3.824   1.519   1.117
  682SOL    HW2 2758   3.901   1.571   1.139
  682SOL    HW3 2759   3.825   1.513   1.021
  682SOL    MW4 2760   3.835   1.525   1.107
  683SOL     OW 2761   3.594   1.627   1.252
  683SOL    HW2 2762   3.590   1.717   1.218
  683SOL    HW3 2763   3.669   1.588   1.207
  683SOL    MW4 2764   3.603   1.634   1.241
  684SOL     OW 2765   3.568   1.898   1.157
  684SOL    HW2 2766   3.653   1.937   1.177
  684SOL    HW3 2767   3.565   1.894   1.062
  684SOL    MW4 2768   3.579   1.903   1.147
  685SOL     OW 2769   3.803   2.055   1.246
  685SOL    HW2 2770   3.813   2.052   1.341
  685SOL    HW3 2771   3.890   2.032   1.212
  685SOL    MW4 2772   3.816   2.051   1.254
  686SOL     OW 2773   3.791   2.325   1.139
  686SOL    HW2 2774   3.863   2.378   1.173
  686SOL    HW3 2775   3.792   2.246   1.194
  686SOL    MW4 2776   3.801   2.322   1.151
  687SOL     OW 2777   3.554   2.448   1.238
  687SOL    HW2 2778   3.560   2.428   1.332
  687SOL    HW3 2779   3.642   2.427   1.205
  687SOL    MW4 2780   3.567   2.443   1.246
  688SOL     OW 2781   3.582   2.697   1.124
  688SOL    HW2 2782   3.563   2.626   1.185
  688SOL    HW3 2783   3.516   2.763   1.143
  688SOL    MW4 2784   3.571   2.696   1.134
  689SOL     OW 2785   3.833   2.780   1.220
  689SOL    HW2 2786   3.827   2.805   1.312
  689SOL    HW3 2787   3.748   2.742   1.200
  689SOL    MW4 2788   3.821   2.778   1.230
  690SOL     OW 2789   3.794   3.064   1.145
  690SOL    HW2 2790   3.807   2.970   1.149
  690SOL    HW3 2791   3.810   3.087   1.054
  690SOL    MW4 2792   3.798   3.055   1.134
  691SOL     OW 2793   3.567   3.209   1.247
  691SOL    HW2 2794   3.586   3.300   1.225
  691SOL    HW3 2795   3.636   3.158   1.205
  691SOL    MW4 2796   3.579   3.214   1.239
  692SOL     OW 2797   3.615   3.467   1.127
  692SOL    HW2 2798   3.688   3.526   1.148
  692SOL    HW3 2799   3.619   3.456   1.032
  692SOL    MW4 2800   3.625   3.473   1.118
  693SOL     OW 2801   3.854   3.632   1.191
  693SOL    HW2 2802   3.840   3.623   1.286
  693SOL    HW3 2803   3.839   3.724   1.174
  693SOL    MW4 2804   3.850   3.643   1.201
  694SOL     OW 2805   3.856   3.899   1.139
  694SOL    HW2 2806   3.773   3.933   1.171
  694SOL    HW3 2807   3.850   3.907   1.044
  694SOL    MW4 2808   3.844   3.904   1.131
  695SOL     OW 2809   3.615   4.010   1.209
  695SOL    HW2 2810   3.583   4.005   1.300
  695SOL    HW3 2811   3.550   3.963   1.158
  695SOL    MW4 2812   3.602   4.003   1.214
  696SOL     OW 2813   3.579   4.265   1.076
  696SOL    HW2 2814   3.592   4.184   1.125
  696SOL    HW3 2815   3.578   4.238   0.984
  696SOL    MW4 2816   3.581   4.251   1.070
  697SOL     OW 2817   3.807   4.388   1.179
  697SOL    HW2 2818   3.800   4.390   1.275
  697SOL    HW3 2819   3.723   4.353   1.149
  697SOL    MW4 2820   3.795   4.383   1.188
  698SOL     OW 2821   4.279   4.662   1.100
  698SOL    HW2 2822   4.269   4.579   1.145
  698SOL    HW3 2823   4.207   4.716   1.133
  698SOL    MW4 2824   4.268   4.658   1.110
  699SOL     OW 2825   4.042   0.107   1.208
  699SOL    HW2 2826   4.057   0.107   1.303
  699SOL    HW3 2827   3.955   0.067   1.197
  699SOL    MW4 2828   4.032   0.101   1.219
  700SOL     OW 2829   4.020   0.372   1.113
  700SOL    HW2 2830   4.028   0.286   1.153
  700SOL    HW3 2831   4.030   0.356   1.019
  700SOL    MW4 2832   4.023   0.359   1.105
  701SOL     OW 2833   4.266   0.494   1.177
  701SOL    HW2 2834   4.263   0.488   1.272
  701SOL    HW3 2835   4.197   0.436   1.146
  701SOL    MW4 2836   4.257   0.485   1.185
  702SOL     OW 2837   4.261   0.775   1.123
  702SOL    HW2 2838   4.240   0.690   1.161
  702SOL    HW3 2839   4.252   0.762   1.029
  702SOL    MW4 2840   4.257   0.762   1.116
  703SOL     OW 2841   4.089   0.929   1.261
  703SOL    HW2 2842   4.083   0.910   1.355
  703SOL    HW3 2843   4.154   0.867   1.228
  703SOL    MW4 2844   4.097   0.918   1.269
  704SOL     OW 2845   4.057   1.160   1.123
  704SOL    HW2 2846   4.047   1.075   1.164
  704SOL    HW3 2847   3.992   1.216   1.165
  704SOL    MW4 2848   4.047   1.156   1.134
  705SOL     OW 2849   4.270   1.296   1.258
  705SOL    HW2 2850   4.262   1.299   1.353
  705SOL    HW3 2851   4.189   1.254   1.228
  705SOL    MW4 2852   4.258   1.291   1.267
  706SOL     OW 2853   4.292   1.559   1.132
  706SOL    HW2 2854   4.275   1.479   1.181
  706SOL    HW3 2855   4.372   1.595   1.170
  706SOL    MW4 2856   4.300   1.554   1.143
  707SOL     OW 2857   4.043   1.668   1.214
  707SOL    HW2 2858   4.062   1.624   1.296
  707SOL    HW3 2859   4.123   1.661   1.163
  707SOL    MW4 2860   4.056   1.662   1.218
  708SOL     OW 2861   4.055   1.944   1.146
  708SOL    HW2 2862   4.031   1.856   1.175
  708SOL    HW3 2863   4.027   1.947   1.054
  708SOL    MW4 2864   4.048   1.933   1.138
  709SOL     OW 2865   4.259   2.086   1.234
  709SOL    HW2 2866   4.229   2.176   1.226
  709SOL    HW3 2867   4.186   2.033   1.204
  709SOL    MW4 2868   4.246   2.091   1.229
  710SOL     OW 2869   4.227   2.349   1.147
  710SOL    HW2 2870   4.150   2.402   1.169
  710SOL    HW3 2871   4.220   2.336   1.052
  710SOL    MW4 2872   4.216   2.354   1.137
  711SOL     OW 2873   3.999   2.489   1.255
  711SOL    HW2 2874   4.018   2.480   1.348
  711SOL    HW3 2875   4.010   2.583   1.237
  711SOL    MW4 2876   4.003   2.501   1.265
  712SOL     OW 2877   4.093   2.756   1.159
  712SOL    HW2 2878   4.001   2.772   1.178
  712SOL    HW3 2879   4.095   2.726   1.068
  712SOL    MW4 2880   4.081   2.754   1.150
  713SOL     OW 2881   4.337   2.860   1.217
  713SOL    HW2 2882   4.331   2.946   1.174
  713SOL    HW3 2883   4.249   2.823   1.207
  713SOL    MW4 2884   4.324   2.867   1.210
  714SOL     OW 2885   4.269   3.117   1.141
  714SOL    HW2 2886   4.184   3.149   1.171
  714SOL    HW3 2887   4.256   3.099   1.048
  714SOL    MW4 2888   4.256   3.119   1.133
  715SOL     OW 2889   4.001   3.235   1.239
  715SOL    HW2 2890   4.013   3.219   1.333
  715SOL    HW3 2891   3.932   3.173   1.213
  715SOL    MW4 2892   3.994   3.225   1.248
  716SOL     OW 2893   4.062   3.488   1.101
  716SOL    HW2 2894   4.044   3.404   1.142
  716SOL    HW3 2895   3.985   3.542   1.123
  716SOL    MW4 2896   4.049   3.484   1.109
  717SOL     OW 2897   4.260   3.636   1.220
  717SOL    HW2 2898   4.180   3.592   1.194
  717SOL    HW3 2899   4.330   3.587   1.176
  717SOL    MW4 2900   4.259   3.624   1.211
  718SOL     OW 2901   4.295   3.912   1.108
  718SOL    HW2 2902   4.224   3.953   1.156
  718SOL    HW3 2903   4.303   3.825   1.147
  718SOL    MW4 2904   4.287   3.906   1.120
  719SOL     OW 2905   4.087   4.050   1.220
  719SOL    HW2 2906   4.071   4.137   1.183
  719SOL    HW3 2907   4.013   3.997   1.188
  719SOL    MW4 2908   4.075   4.054   1.211
  720SOL     OW 2909   4.060   4.315   1.101
  720SOL    HW2 2910   3.969   4.334   1.125
  720SOL    HW3 2911   4.059   4.312   1.006
  720SOL    MW4 2912   4.048   4.317   1.092
  721SOL     OW 2913   4.276   4.416   1.236
  721SOL    HW2 2914   4.200   4.383   1.188
  721SOL    HW3 2915   4.351   4.380   1.189
  721SOL    MW4 2916   4.276   4.407   1.223
  722SOL     OW 2917   0.252   0.006   1.620
  722SOL    HW2 2918   0.329   0.035   1.571
  722SOL    HW3 2919   0.178   0.046   1.575
  722SOL    MW4 2920   0.252   0.015   1.608
  723SOL     OW 2921   0.023   0.117   1.504
  723SOL    HW2 2922  -0.047   0.078   1.556
  723SOL    HW3 2923  -0.006   0.105   1.413
  723SOL    MW4 2924   0.010   0.110   1.499
  724SOL     OW 2925   0.028   0.392   1.565
  724SOL    HW2 2926   0.027   0.386   1.661
  724SOL    HW3 2927   0.028   0.300   1.536
  724SOL    MW4 2928   0.028   0.379   1.574
  725SOL     OW 2929   0.264   0.509   1.469
  725SOL    HW2 2930   0.193   0.461   1.510
  725SOL    HW3 2931   0.244   0.506   1.375
  725SOL    MW4 2932   0.252   0.502   1.462
  726SOL     OW 2933   0.256   0.749   1.619
  726SOL    HW2 2934   0.334   0.799   1.593
  726SOL    HW3 2935   0.266   0.664   1.576
  726SOL    MW4 2936   0.268   0.744   1.610
  727SOL     OW 2937   0.046   0.851   1.480
  727SOL    HW2 2938   0.029   0.943   1.503
  727SOL    HW3 2939   0.126   0.829   1.526
  727SOL    MW4 2940   0.054   0.860   1.489
  728SOL     OW 2941   4.443   1.117   1.570
  728SOL    HW2 2942   4.436   1.136   1.664
  728SOL    HW3 2943   4.523   1.162   1.542
  728SOL    MW4 2944   4.452   1.125   1.579
  729SOL     OW 2945   0.213   1.247   1.520
  729SOL    HW2 2946   0.208   1.336   1.557
  729SOL    HW3 2947   0.231   1.261   1.427
  729SOL    MW4 2948   0.215   1.261   1.513
  730SOL     OW 2949   0.222   1.517   1.584
  730SOL    HW2 2950   0.212   1.511   1.679
  730SOL    HW3 2951   0.152   1.576   1.556
  730SOL    MW4 2952   0.211   1.524   1.593
  731SOL     OW 2953   0.005   1.683   1.513
  731SOL    HW2 2954   0.016   1.775   1.536
  731SOL    HW3 2955  -0.003   1.682   1.417
  731SOL    MW4 2956   0.006   1.695   1.503
  732SOL     OW 2957   0.029   1.956   1.587
  732SOL    HW2 2958   0.025   1.961   1.682
  732SOL    HW3 2959  -0.051   2.000   1.557
  732SOL    MW4 2960   0.018   1.962   1.595
  733SOL     OW 2961   0.263   2.073   1.506
  733SOL    HW2 2962   0.177   2.032   1.513
  733SOL    HW3 2963   0.276   2.087   1.412
  733SOL    MW4 2964   0.254   2.070   1.494
  734SOL     OW 2965   0.213   2.322   1.636
  734SOL    HW2 2966   0.232   2.316   1.730
  734SOL    HW3 2967   0.234   2.235   1.602
  734SOL    MW4 2968   0.219   2.310   1.644
  735SOL     OW 2969   0.011   2.447   1.486
  735SOL    HW2 2970  -0.070   2.408   1.519
  735SOL    HW3 2971   0.078   2.421   1.548
  735SOL    MW4 2972   0.009   2.439   1.498
  736SOL     OW 2973   4.464   2.694   1.639
  736SOL    HW2 2974   4.411   2.756   1.589
  736SOL    HW3 2975   4.468   2.616   1.583
  736SOL    MW4 2976   4.457   2.692   1.625
  737SOL     OW 2977   0.188   2.860   1.563
  737SOL    HW2 2978   0.274   2.825   1.583
  737SOL    HW3 2979   0.126   2.793   1.592
  737SOL    MW4 2980   0.191   2.847   1.569
  738SOL     OW 2981   0.191   3.104   1.689
  738SOL    HW2 2982   0.126   3.151   1.636
  738SOL    HW3 2983   0.203   3.021   1.642
  738SOL    MW4 2984   0.184   3.099   1.676
  739SOL     OW 2985   0.007   3.242   1.509
  739SOL    HW2 2986   0.001   3.333   1.538
  739SOL    HW3 2987   0.009   3.246   1.414
  739SOL    MW4 2988   0.006   3.255   1.500
  740SOL     OW 2989   0.003   3.509   1.593
  740SOL    HW2 2990  -0.005   3.490   1.686
  740SOL    HW3 2991  -0.083   3.547   1.569
  740SOL    MW4 2992  -0.010   3.512   1.602
  741SOL     OW 2993   0.250   3.633   1.515
  741SOL    HW2 2994   0.245   3.727   1.536
  741SOL    HW3 2995   0.170   3.596   1.552
  741SOL    MW4 2996   0.239   3.641   1.522
  742SOL     OW 2997   0.235   3.910   1.573
  742SOL    HW2 2998   0.233   3.903   1.668
  742SOL    HW3 2999   0.325   3.933   1.551
  742SOL    MW4 3000   0.246   3.912   1.582
  743SOL     OW 3001   4.474   4.031   1.479
  743SOL    HW2 3002   4.486   4.121   1.510
  743SOL    HW3 3003   4.546   3.982   1.519
  743SOL    MW4 3004   4.485   4.037   1.488
  744SOL     OW 3005   0.015   4.278   1.588
  744SOL    HW2 3006   0.022   4.265   1.682
  744SOL    HW3 3007  -0.060   4.338   1.577
  744SOL    MW4 3008   0.006   4.284   1.599
  745SOL     OW 3009   0.235   4.431   1.475
  745SOL    HW2 3010   0.157   4.383   1.501
  745SOL    HW3 3011   0.244   4.500   1.539
  745SOL    MW4 3012   0.226   4.433   1.487
  746SOL     OW 3013   0.676   4.623   1.590
  746SOL    HW2 3014   0.758   4.653   1.549
  746SOL    HW3 3015   0.612   4.691   1.568
  746SOL    MW4 3016   0.679   4.636   1.582
  747SOL     OW 3017   0.461   0.114   1.487
  747SOL    HW2 3018   0.465   0.209   1.499
  747SOL    HW3 3019   0.435   0.103   1.395
  747SOL    MW4 3020   0.458   0.125   1.476
  748SOL     OW 3021   0.495   0.384   1.580
  748SOL    HW2 3022   0.565   0.438   1.542
  748SOL    HW3 3023   0.415   0.433   1.560
  748SOL    MW4 3024   0.494   0.398   1.572
  749SOL     OW 3025   0.706   0.501   1.459
  749SOL    HW2 3026   0.705   0.588   1.498
  749SOL    HW3 3027   0.695   0.517   1.365
  749SOL    MW4 3028   0.704   0.515   1.452
  750SOL     OW 3029   0.692   0.745   1.578
  750SOL    HW2 3030   0.682   0.768   1.670
  750SOL    HW3 3031   0.772   0.790   1.551
  750SOL    MW4 3032   0.701   0.754   1.587
  751SOL     OW 3033   0.473   0.908   1.500
  751SOL    HW2 3034   0.487   0.991   1.545
  751SOL    HW3 3035   0.545   0.852   1.530
  751SOL    MW4 3036   0.484   0.911   1.510
  752SOL     OW 3037   0.452   1.158   1.623
  752SOL    HW2 3038   0.524   1.195   1.572
  752SOL    HW3 3039   0.373   1.200   1.588
  752SOL    MW4 3040   0.451   1.168   1.612
  753SOL     OW 3041   0.681   1.262   1.496
  753SOL    HW2 3042   0.672   1.354   1.523
  753SOL    HW3 3043   0.682   1.266   1.400
  753SOL    MW4 3044   0.680   1.275   1.487
  754SOL     OW 3045   0.648   1.516   1.593
  754SOL    HW2 3046   0.726   1.561   1.559
  754SOL    HW3 3047   0.575   1.552   1.543
  754SOL    MW4 3048   0.649   1.527   1.582
  755SOL     OW 3049   0.428   1.652   1.435
  755SOL    HW2 3050   0.449   1.729   1.488
  755SOL    HW3 3051   0.350   1.615   1.476
  755SOL    MW4 3052   0.421   1.657   1.448
  756SOL     OW 3053   0.443   1.872   1.631
  756SOL    HW2 3054   0.430   1.862   1.725
  756SOL    HW3 3055   0.386   1.945   1.606
  756SOL    MW4 3056   0.434   1.880   1.640
  757SOL     OW 3057   0.665   2.021   1.511
  757SOL    HW2 3058   0.747   1.979   1.534
  757SOL    HW3 3059   0.598   1.970   1.557
  757SOL    MW4 3060   0.667   2.009   1.520
  758SOL     OW 3061   0.724   2.299   1.581
  758SOL    HW2 3062   0.635   2.333   1.580
  758SOL    HW3 3063   0.715   2.208   1.551
  758SOL    MW4 3064   0.711   2.291   1.577
  759SOL     OW 3065   0.465   2.402   1.564
  759SOL    HW2 3066   0.473   2.493   1.594
  759SOL    HW3 3067   0.376   2.376   1.589
  759SOL    MW4 3068   0.454   2.410   1.572
  760SOL     OW 3069   0.427   2.719   1.602
  760SOL    HW2 3070   0.416   2.743   1.694
  760SOL    HW3 3071   0.518   2.742   1.582
  760SOL    MW4 3072   0.438   2.725   1.611
  761SOL     OW 3073   0.672   2.822   1.541
  761SOL    HW2 3074   0.677   2.911   1.576
  761SOL    HW3 3075   0.683   2.833   1.447
  761SOL    MW4 3076   0.674   2.835   1.533
  762SOL     OW 3077   0.672   3.089   1.615
  762SOL    HW2 3078   0.734   3.147   1.570
  762SOL    HW3 3079   0.586   3.119   1.587
  762SOL    MW4 3080   0.669   3.101   1.605
  763SOL     OW 3081   0.419   3.205   1.552
  763SOL    HW2 3082   0.340   3.178   1.600
  763SOL    HW3 3083   0.389   3.218   1.462
  763SOL    MW4 3084   0.404   3.203   1.546
  764SOL     OW 3085   0.458   3.482   1.609
  764SOL    HW2 3086   0.445   3.387   1.607
  764SOL    HW3 3087   0.384   3.517   1.559
  764SOL    MW4 3088   0.446   3.474   1.602
  765SOL     OW 3089   0.656   3.624   1.499
  765SOL    HW2 3090   0.739   3.583   1.524
  765SOL    HW3 3091   0.590   3.576   1.548
  765SOL    MW4 3092   0.658   3.612   1.508
  766SOL     OW 3093   0.656   3.879   1.604
  766SOL    HW2 3094   0.734   3.923   1.569
  766SOL    HW3 3095   0.668   3.787   1.579
  766SOL    MW4 3096   0.668   3.873   1.596
  767SOL     OW 3097   0.470   4.014   1.460
  767SOL    HW2 3098   0.539   3.972   1.511
  767SOL    HW3 3099   0.476   3.973   1.373
  767SOL    MW4 3100   0.480   4.003   1.455
  768SOL     OW 3101   0.389   4.242   1.607
  768SOL    HW2 3102   0.392   4.167   1.547
  768SOL    HW3 3103   0.331   4.304   1.564
  768SOL    MW4 3104   0.382   4.240   1.594
  769SOL     OW 3105   0.625   4.344   1.503
  769SOL    HW2 3106   0.544   4.309   1.540
  769SOL    HW3 3107   0.625   4.436   1.527
  769SOL    MW4 3108   0.614   4.351   1.511
  770SOL     OW 3109   1.139   4.632   1.637
  770SOL    HW2 3110   1.125   4.671   1.724
  770SOL    HW3 3111   1.217   4.676   1.603
  770SOL    MW4 3112   1.147   4.643   1.644
  771SOL     OW 3113   0.924   0.065   1.499
  771SOL    HW2 3114   0.929   0.156   1.527
  771SOL    HW3 3115   0.994   0.021   1.547
  771SOL    MW4 3116   0.934   0.071   1.509
  772SOL     OW 3117   0.903   0.326   1.568
  772SOL    HW2 3118   0.899   0.360   1.657
  772SOL    HW3 3119   0.841   0.381   1.519
  772SOL    MW4 3120   0.894   0.338   1.573
  773SOL     OW 3121   1.107   0.485   1.452
  773SOL    HW2 3122   1.110   0.571   1.494
  773SOL    HW3 3123   1.036   0.439   1.497
  773SOL    MW4 3124   1.098   0.490   1.464
  774SOL     OW 3125   1.153   0.742   1.567
  774SOL    HW2 3126   1.143   0.752   1.662
  774SOL    HW3 3127   1.220   0.806   1.543
  774SOL    MW4 3128   1.161   0.752   1.577
  775SOL     OW 3129   0.915   0.882   1.477
  775SOL    HW2 3130   1.001   0.844   1.496
  775SOL    HW3 3131   0.915   0.893   1.382
  775SOL    MW4 3132   0.927   0.879   1.467
  776SOL     OW 3133   0.892   1.124   1.635
  776SOL    HW2 3134   0.902   1.043   1.586
  776SOL    HW3 3135   0.816   1.167   1.596
  776SOL    MW4 3136   0.884   1.119   1.624
  777SOL     OW 3137   1.087   1.295   1.545
  777SOL    HW2 3138   1.169   1.248   1.560
  777SOL    HW3 3139   1.019   1.236   1.576
  777SOL    MW4 3140   1.089   1.281   1.551
  778SOL     OW 3141   1.098   1.550   1.634
  778SOL    HW2 3142   1.183   1.584   1.606
  778SOL    HW3 3143   1.094   1.462   1.595
  778SOL    MW4 3144   1.109   1.543   1.625
  779SOL     OW 3145   0.870   1.669   1.510
  779SOL    HW2 3146   0.939   1.649   1.572
  779SOL    HW3 3147   0.909   1.654   1.424
  779SOL    MW4 3148   0.884   1.664   1.507
  780SOL     OW 3149   0.905   1.915   1.631
  780SOL    HW2 3150   0.986   1.938   1.586
  780SOL    HW3 3151   0.876   1.834   1.590
  780SOL    MW4 3152   0.912   1.908   1.619
  781SOL     OW 3153   1.145   2.038   1.482
  781SOL    HW2 3154   1.226   1.999   1.516
  781SOL    HW3 3155   1.141   2.124   1.524
  781SOL    MW4 3156   1.156   2.044   1.492
  782SOL     OW 3157   1.146   2.316   1.531
  782SOL    HW2 3158   1.220   2.376   1.518
  782SOL    HW3 3159   1.069   2.372   1.526
  782SOL    MW4 3160   1.146   2.331   1.529
  783SOL     OW 3161   0.928   2.459   1.487
  783SOL    HW2 3162   0.916   2.550   1.516
  783SOL    HW3 3163   0.858   2.411   1.530
  783SOL    MW4 3164   0.917   2.465   1.496
  784SOL     OW 3165   0.901   2.695   1.620
  784SOL    HW2 3166   0.888   2.700   1.715
  784SOL    HW3 3167   0.822   2.734   1.583
  784SOL    MW4 3168   0.889   2.701   1.628
  785SOL     OW 3169   1.089   2.833   1.467
  785SOL    HW2 3170   1.093   2.922   1.502
  785SOL    HW3 3171   1.025   2.789   1.523
  785SOL    MW4 3172   1.081   2.839   1.479
  786SOL     OW 3173   1.123   3.083   1.571
  786SOL    HW2 3174   1.130   3.083   1.666
  786SOL    HW3 3175   1.194   3.140   1.541
  786SOL    MW4 3176   1.134   3.091   1.579
  787SOL     OW 3177   0.885   3.213   1.497
  787SOL    HW2 3178   0.962   3.161   1.518
  787SOL    HW3 3179   0.881   3.214   1.402
  787SOL    MW4 3180   0.895   3.207   1.487
  788SOL     OW 3181   0.884   3.474   1.608
  788SOL    HW2 3182   0.963   3.523   1.585
  788SOL    HW3 3183   0.889   3.394   1.555
  788SOL    MW4 3184   0.895   3.470   1.598
  789SOL     OW 3185   1.117   3.612   1.502
  789SOL    HW2 3186   1.198   3.565   1.524
  789SOL    HW3 3187   1.101   3.590   1.410
  789SOL    MW4 3188   1.126   3.603   1.493
  790SOL     OW 3189   1.112   3.885   1.564
  790SOL    HW2 3190   1.198   3.914   1.535
  790SOL    HW3 3191   1.111   3.791   1.544
  790SOL    MW4 3192   1.123   3.876   1.558
  791SOL     OW 3193   0.868   4.006   1.488
  791SOL    HW2 3194   0.887   4.100   1.496
  791SOL    HW3 3195   0.950   3.963   1.511
  791SOL    MW4 3196   0.881   4.013   1.492
  792SOL     OW 3197   0.884   4.268   1.579
  792SOL    HW2 3198   0.902   4.280   1.672
  792SOL    HW3 3199   0.802   4.316   1.565
  792SOL    MW4 3200   0.875   4.276   1.590
  793SOL     OW 3201   1.103   4.392   1.486
  793SOL    HW2 3202   1.024   4.347   1.516
  793SOL    HW3 3203   1.118   4.460   1.552
  793SOL    MW4 3204   1.094   4.395   1.499
  794SOL     OW 3205   1.552   4.641   1.603
  794SOL    HW2 3206   1.551   4.649   1.699
  794SOL    HW3 3207   1.473   4.687   1.575
  794SOL    MW4 3208   1.541   4.648   1.612
  795SOL     OW 3209   1.338   0.101   1.500
  795SOL    HW2 3210   1.346   0.193   1.526
  795SOL    HW3 3211   1.338   0.103   1.404
  795SOL    MW4 3212   1.339   0.113   1.490
  796SOL     OW 3213   1.348   0.365   1.588
  796SOL    HW2 3214   1.417   0.428   1.565
  796SOL    HW3 3215   1.269   0.400   1.546
  796SOL    MW4 3216   1.347   0.378   1.580
  797SOL     OW 3217   1.563   0.564   1.508
  797SOL    HW2 3218   1.635   0.513   1.545
  797SOL    HW3 3219   1.578   0.561   1.413
  797SOL    MW4 3220   1.575   0.557   1.500
  798SOL     OW 3221   1.548   0.818   1.618
  798SOL    HW2 3222   1.537   0.809   1.712
  798SOL    HW3 3223   1.547   0.728   1.585
  798SOL    MW4 3224   1.547   0.805   1.626
  799SOL     OW 3225   1.331   0.935   1.502
  799SOL    HW2 3226   1.410   0.896   1.540
  799SOL    HW3 3227   1.340   0.920   1.408
  799SOL    MW4 3228   1.342   0.927   1.494
  800SOL     OW 3229   1.322   1.180   1.617
  800SOL    HW2 3230   1.340   1.176   1.711
  800SOL    HW3 3231   1.321   1.089   1.589
  800SOL    MW4 3232   1.325   1.168   1.626
  801SOL     OW 3233   1.560   1.309   1.558
  801SOL    HW2 3234   1.474   1.273   1.580
  801SOL    HW3 3235   1.568   1.296   1.464
  801SOL    MW4 3236   1.550   1.302   1.549
  802SOL     OW 3237   1.577   1.569   1.644
  802SOL    HW2 3238   1.574   1.573   1.740
  802SOL    HW3 3239   1.570   1.476   1.624
  802SOL    MW4 3240   1.576   1.558   1.654
  803SOL     OW 3241   1.325   1.654   1.546
  803SOL    HW2 3242   1.410   1.623   1.577
  803SOL    HW3 3243   1.331   1.648   1.450
  803SOL    MW4 3244   1.337   1.649   1.537
  804SOL     OW 3245   1.370   1.925   1.601
  804SOL    HW2 3246   1.350   1.940   1.693
  804SOL    HW3 3247   1.358   1.831   1.588
  804SOL    MW4 3248   1.366   1.914   1.611
  805SOL     OW 3249   1.570   2.090   1.497
  805SOL    HW2 3250   1.500   2.028   1.518
  805SOL    HW3 3251   1.589   2.074   1.404
  805SOL    MW4 3252   1.564   2.080   1.487
  806SOL     OW 3253   1.553   2.345   1.594
  806SOL    HW2 3254   1.631   2.388   1.559
  806SOL    HW3 3255   1.551   2.260   1.551
  806SOL    MW4 3256   1.563   2.340   1.584
  807SOL     OW 3257   1.355   2.469   1.470
  807SOL    HW2 3258   1.344   2.557   1.505
  807SOL    HW3 3259   1.432   2.435   1.515
  807SOL    MW4 3260   1.363   2.476   1.481
  808SOL     OW 3261   1.329   2.719   1.593
  808SOL    HW2 3262   1.405   2.771   1.567
  808SOL    HW3 3263   1.254   2.764   1.553
  808SOL    MW4 3264   1.329   2.732   1.585
  809SOL     OW 3265   1.542   2.864   1.485
  809SOL    HW2 3266   1.605   2.800   1.518
  809SOL    HW3 3267   1.540   2.849   1.391
  809SOL    MW4 3268   1.550   2.853   1.477
  810SOL     OW 3269   1.580   3.132   1.556
  810SOL    HW2 3270   1.674   3.152   1.553
  810SOL    HW3 3271   1.575   3.039   1.537
  810SOL    MW4 3272   1.592   3.122   1.553
  811SOL     OW 3273   1.334   3.224   1.456
  811SOL    HW2 3274   1.340   3.315   1.486
  811SOL    HW3 3275   1.413   3.183   1.491
  811SOL    MW4 3276   1.345   3.231   1.464
  812SOL     OW 3277   1.332   3.475   1.568
  812SOL    HW2 3278   1.340   3.469   1.663
  812SOL    HW3 3279   1.411   3.521   1.539
  812SOL    MW4 3280   1.343   3.480   1.576
  813SOL     OW 3281   1.565   3.622   1.529
  813SOL    HW2 3282   1.542   3.705   1.572
  813SOL    HW3 3283   1.553   3.640   1.435
  813SOL    MW4 3284   1.560   3.635   1.522
  814SOL     OW 3285   1.575   3.888   1.629
  814SOL    HW2 3286   1.559   3.883   1.723
  814SOL    HW3 3287   1.495   3.927   1.593
  814SOL    MW4 3288   1.562   3.892   1.637
  815SOL     OW 3289   1.344   4.011   1.515
  815SOL    HW2 3290   1.336   4.103   1.538
  815SOL    HW3 3291   1.355   4.011   1.419
  815SOL    MW4 3292   1.345   4.023   1.505
  816SOL     OW 3293   1.346   4.290   1.612
  816SOL    HW2 3294   1.408   4.347   1.568
  816SOL    HW3 3295   1.263   4.304   1.566
  816SOL    MW4 3296   1.343   4.299   1.600
  817SOL     OW 3297   1.575   4.396   1.478
  817SOL    HW2 3298   1.651   4.350   1.514
  817SOL    HW3 3299   1.573   4.479   1.525
  817SOL    MW4 3300   1.585   4.400   1.489
  818SOL     OW 3301   2.016   4.649   1.612
  818SOL    HW2 3302   1.999   4.648   1.706
  818SOL    HW3 3303   1.945   4.703   1.576
  818SOL    MW4 3304   2.004   4.656   1.620
  819SOL     OW 3305   1.796   0.129   1.512
  819SOL    HW2 3306   1.719   0.085   1.549
  819SOL    HW3 3307   1.780   0.130   1.418
  819SOL    MW4 3308   1.784   0.123   1.504
  820SOL     OW 3309   1.768   0.396   1.607
  820SOL    HW2 3310   1.848   0.435   1.573
  820SOL    HW3 3311   1.768   0.307   1.572
  820SOL    MW4 3312   1.778   0.390   1.598
  821SOL     OW 3313   2.009   0.514   1.510
  821SOL    HW2 3314   2.092   0.480   1.544
  821SOL    HW3 3315   2.001   0.601   1.548
  821SOL    MW4 3316   2.019   0.521   1.520
  822SOL     OW 3317   1.989   0.764   1.639
  822SOL    HW2 3318   2.063   0.806   1.594
  822SOL    HW3 3319   1.915   0.823   1.623
  822SOL    MW4 3320   1.989   0.778   1.631
  823SOL     OW 3321   1.784   0.927   1.518
  823SOL    HW2 3322   1.785   1.004   1.575
  823SOL    HW3 3323   1.719   0.868   1.558
  823SOL    MW4 3324   1.776   0.929   1.531
  824SOL     OW 3325   1.791   1.154   1.671
  824SOL    HW2 3326   1.873   1.189   1.636
  824SOL    HW3 3327   1.725   1.219   1.648
  824SOL    MW4 3328   1.793   1.167   1.664
  825SOL     OW 3329   1.992   1.322   1.567
  825SOL    HW2 3330   1.987   1.404   1.616
  825SOL    HW3 3331   1.996   1.349   1.476
  825SOL    MW4 3332   1.992   1.336   1.562
  826SOL     OW 3333   1.999   1.596   1.672
  826SOL    HW2 3334   2.085   1.626   1.644
  826SOL    HW3 3335   1.937   1.656   1.629
  826SOL    MW4 3336   2.002   1.608   1.663
  827SOL     OW 3337   1.777   1.721   1.552
  827SOL    HW2 3338   1.713   1.657   1.586
  827SOL    HW3 3339   1.784   1.700   1.459
  827SOL    MW4 3340   1.769   1.710   1.545
  828SOL     OW 3341   1.802   1.977   1.635
  828SOL    HW2 3342   1.789   1.886   1.610
  828SOL    HW3 3343   1.725   2.023   1.602
  828SOL    MW4 3344   1.790   1.971   1.627
  829SOL     OW 3345   2.032   2.104   1.512
  829SOL    HW2 3346   2.102   2.040   1.523
  829SOL    HW3 3347   1.954   2.060   1.546
  829SOL    MW4 3348   2.031   2.090   1.518
  830SOL     OW 3349   2.010   2.363   1.605
  830SOL    HW2 3350   2.040   2.364   1.696
  830SOL    HW3 3351   2.008   2.270   1.581
  830SOL    MW4 3352   2.014   2.351   1.614
  831SOL     OW 3353   1.787   2.473   1.484
  831SOL    HW2 3354   1.862   2.443   1.535
  831SOL    HW3 3355   1.813   2.460   1.393
  831SOL    MW4 3356   1.800   2.467   1.479
  832SOL     OW 3357   1.747   2.716   1.611
  832SOL    HW2 3358   1.828   2.754   1.580
  832SOL    HW3 3359   1.741   2.631   1.567
  832SOL    MW4 3360   1.757   2.710   1.601
  833SOL     OW 3361   1.963   2.830   1.492
  833SOL    HW2 3362   2.006   2.916   1.495
  833SOL    HW3 3363   1.969   2.804   1.400
  833SOL    MW4 3364   1.970   2.838   1.480
  834SOL     OW 3365   2.029   3.089   1.553
  834SOL    HW2 3366   2.030   3.075   1.647
  834SOL    HW3 3367   2.109   3.139   1.535
  834SOL    MW4 3368   2.040   3.093   1.563
  835SOL     OW 3369   1.805   3.216   1.457
  835SOL    HW2 3370   1.779   3.304   1.484
  835SOL    HW3 3371   1.894   3.205   1.490
  835SOL    MW4 3372   1.813   3.226   1.465
  836SOL     OW 3373   1.775   3.465   1.574
  836SOL    HW2 3374   1.794   3.473   1.667
  836SOL    HW3 3375   1.696   3.518   1.561
  836SOL    MW4 3376   1.767   3.473   1.584
  837SOL     OW 3377   1.994   3.612   1.495
  837SOL    HW2 3378   2.065   3.560   1.533
  837SOL    HW3 3379   1.914   3.566   1.521
  837SOL    MW4 3380   1.993   3.599   1.504
  838SOL     OW 3381   2.046   3.867   1.624
  838SOL    HW2 3382   2.116   3.912   1.577
  838SOL    HW3 3383   2.032   3.786   1.575
  838SOL    MW4 3384   2.053   3.862   1.611
  839SOL     OW 3385   1.821   4.007   1.536
  839SOL    HW2 3386   1.892   3.951   1.568
  839SOL    HW3 3387   1.741   3.969   1.573
  839SOL    MW4 3388   1.820   3.995   1.545
  840SOL     OW 3389   1.798   4.275   1.577
  840SOL    HW2 3390   1.869   4.313   1.526
  840SOL    HW3 3391   1.807   4.180   1.564
  840SOL    MW4 3392   1.808   4.267   1.569
  841SOL     OW 3393   2.036   4.401   1.470
  841SOL    HW2 3394   2.109   4.349   1.502
  841SOL    HW3 3395   2.045   4.485   1.515
  841SOL    MW4 3396   2.047   4.406   1.480
  842SOL     OW 3397   2.472   4.655   1.591
  842SOL    HW2 3398   2.479   4.642   1.686
  842SOL    HW3 3399   2.386   4.696   1.579
  842SOL    MW4 3400   2.461   4.659   1.602
  843SOL     OW 3401   2.238   0.151   1.531
  843SOL    HW2 3402   2.167   0.088   1.536
  843SOL    HW3 3403   2.252   0.165   1.437
  843SOL    MW4 3404   2.231   0.144   1.519
  844SOL     OW 3405   2.235   0.408   1.627
  844SOL    HW2 3406   2.222   0.404   1.722
  844SOL    HW3 3407   2.233   0.317   1.599
  844SOL    MW4 3408   2.233   0.395   1.636
  845SOL     OW 3409   2.495   0.506   1.513
  845SOL    HW2 3410   2.564   0.447   1.544
  845SOL    HW3 3411   2.416   0.474   1.557
  845SOL    MW4 3412   2.494   0.494   1.523
  846SOL     OW 3413   2.477   0.772   1.644
  846SOL    HW2 3414   2.391   0.799   1.613
  846SOL    HW3 3415   2.487   0.682   1.613
  846SOL    MW4 3416   2.467   0.763   1.636
  847SOL     OW 3417   2.240   0.891   1.549
  847SOL    HW2 3418   2.246   0.985   1.567
  847SOL    HW3 3419   2.236   0.884   1.454
  847SOL    MW4 3420   2.240   0.902   1.539
  848SOL     OW 3421   2.245   1.193   1.598
  848SOL    HW2 3422   2.243   1.172   1.691
  848SOL    HW3 3423   2.169   1.249   1.584
  848SOL    MW4 3424   2.235   1.198   1.608
  849SOL     OW 3425   2.477   1.279   1.487
  849SOL    HW2 3426   2.397   1.238   1.520
  849SOL    HW3 3427   2.460   1.293   1.394
  849SOL    MW4 3428   2.464   1.275   1.479
  850SOL     OW 3429   2.484   1.532   1.610
  850SOL    HW2 3430   2.553   1.589   1.577
  850SOL    HW3 3431   2.479   1.461   1.546
  850SOL    MW4 3432   2.492   1.530   1.597
  851SOL     OW 3433   2.245   1.648   1.532
  851SOL    HW2 3434   2.316   1.599   1.574
  851SOL    HW3 3435   2.264   1.644   1.438
  851SOL    MW4 3436   2.257   1.641   1.525
  852SOL     OW 3437   2.235   1.926   1.561
  852SOL    HW2 3438   2.245   1.938   1.656
  852SOL    HW3 3439   2.221   1.833   1.550
  852SOL    MW4 3440   2.235   1.916   1.572
  853SOL     OW 3441   2.474   2.059   1.513
  853SOL    HW2 3442   2.411   1.989   1.527
  853SOL    HW3 3443   2.484   2.064   1.417
  853SOL    MW4 3444   2.467   2.051   1.502
  854SOL     OW 3445   2.476   2.324   1.589
  854SOL    HW2 3446   2.484   2.322   1.684
  854SOL    HW3 3447   2.466   2.232   1.564
  854SOL    MW4 3448   2.475   2.312   1.598
  855SOL     OW 3449   2.255   2.464   1.513
  855SOL    HW2 3450   2.331   2.409   1.533
  855SOL    HW3 3451   2.180   2.407   1.529
  855SOL    MW4 3452   2.255   2.449   1.518
  856SOL     OW 3453   2.216   2.739   1.584
  856SOL    HW2 3454   2.227   2.645   1.569
  856SOL    HW3 3455   2.124   2.756   1.565
  856SOL    MW4 3456   2.205   2.729   1.580
  857SOL     OW 3457   2.476   2.863   1.488
  857SOL    HW2 3458   2.491   2.945   1.535
  857SOL    HW3 3459   2.391   2.832   1.518
  857SOL    MW4 3460   2.467   2.869   1.498
  858SOL     OW 3461   2.491   3.119   1.591
  858SOL    HW2 3462   2.570   3.165   1.564
  858SOL    HW3 3463   2.421   3.158   1.538
  858SOL    MW4 3464   2.492   3.130   1.581
  859SOL     OW 3465   2.255   3.231   1.480
  859SOL    HW2 3466   2.237   3.321   1.509
  859SOL    HW3 3467   2.241   3.233   1.385
  859SOL    MW4 3468   2.251   3.243   1.471
  860SOL     OW 3469   2.218   3.468   1.580
  860SOL    HW2 3470   2.243   3.472   1.672
  860SOL    HW3 3471   2.280   3.526   1.536
  860SOL    MW4 3472   2.230   3.476   1.586
  861SOL     OW 3473   2.455   3.614   1.496
  861SOL    HW2 3474   2.521   3.565   1.546
  861SOL    HW3 3475   2.479   3.706   1.506
  861SOL    MW4 3476   2.467   3.619   1.504
  862SOL     OW 3477   2.472   3.897   1.552
  862SOL    HW2 3478   2.473   3.908   1.647
  862SOL    HW3 3479   2.560   3.926   1.524
  862SOL    MW4 3480   2.484   3.902   1.561
  863SOL     OW 3481   2.241   4.007   1.480
  863SOL    HW2 3482   2.319   3.959   1.509
  863SOL    HW3 3483   2.248   4.008   1.385
  863SOL    MW4 3484   2.252   4.001   1.471
  864SOL     OW 3485   2.245   4.261   1.573
  864SOL    HW2 3486   2.324   4.300   1.534
  864SOL    HW3 3487   2.239   4.174   1.534
  864SOL    MW4 3488   2.255   4.255   1.563
  865SOL     OW 3489   2.470   4.389   1.475
  865SOL    HW2 3490   2.464   4.478   1.511
  865SOL    HW3 3491   2.476   4.403   1.380
  865SOL    MW4 3492   2.470   4.403   1.467
  866SOL     OW 3493   2.909   4.654   1.579
  866SOL    HW2 3494   2.924   4.654   1.674
  866SOL    HW3 3495   2.827   4.702   1.568
  866SOL    MW4 3496   2.900   4.660   1.590
  867SOL     OW 3497   2.694   0.121   1.505
  867SOL    HW2 3498   2.699   0.212   1.534
  867SOL    HW3 3499   2.617   0.086   1.549
  867SOL    MW4 3500   2.685   0.129   1.514
  868SOL     OW 3501   2.723   0.381   1.615
  868SOL    HW2 3502   2.721   0.361   1.709
  868SOL    HW3 3503   2.810   0.419   1.601
  868SOL    MW4 3504   2.734   0.383   1.626
  869SOL     OW 3505   2.970   0.508   1.534
  869SOL    HW2 3506   2.968   0.598   1.568
  869SOL    HW3 3507   2.948   0.517   1.441
  869SOL    MW4 3508   2.967   0.521   1.526
  870SOL     OW 3509   2.960   0.776   1.628
  870SOL    HW2 3510   2.973   0.783   1.722
  870SOL    HW3 3511   2.874   0.816   1.613
  870SOL    MW4 3512   2.950   0.782   1.638
  871SOL     OW 3513   2.719   0.872   1.512
  871SOL    HW2 3514   2.650   0.853   1.575
  871SOL    HW3 3515   2.677   0.863   1.426
  871SOL    MW4 3516   2.704   0.868   1.509
  872SOL     OW 3517   2.674   1.124   1.599
  872SOL    HW2 3518   2.684   1.045   1.545
  872SOL    HW3 3519   2.604   1.173   1.557
  872SOL    MW4 3520   2.666   1.120   1.586
  873SOL     OW 3521   2.892   1.275   1.504
  873SOL    HW2 3522   2.968   1.222   1.529
  873SOL    HW3 3523   2.817   1.229   1.542
  873SOL    MW4 3524   2.892   1.262   1.512
  874SOL     OW 3525   2.909   1.531   1.606
  874SOL    HW2 3526   2.833   1.579   1.572
  874SOL    HW3 3527   2.903   1.444   1.567
  874SOL    MW4 3528   2.898   1.526   1.597
  875SOL     OW 3529   2.689   1.686   1.532
  875SOL    HW2 3530   2.707   1.778   1.547
  875SOL    HW3 3531   2.678   1.678   1.438
  875SOL    MW4 3532   2.690   1.697   1.522
  876SOL     OW 3533   2.723   1.944   1.605
  876SOL    HW2 3534   2.720   1.943   1.700
  876SOL    HW3 3535   2.640   1.984   1.578
  876SOL    MW4 3536   2.712   1.949   1.614
  877SOL     OW 3537   2.946   2.076   1.463
  877SOL    HW2 3538   2.951   2.165   1.495
  877SOL    HW3 3539   2.874   2.036   1.512
  877SOL    MW4 3540   2.937   2.082   1.473
  878SOL     OW 3541   2.915   2.335   1.570
  878SOL    HW2 3542   2.904   2.363   1.661
  878SOL    HW3 3543   2.845   2.380   1.522
  878SOL    MW4 3544   2.904   2.345   1.576
  879SOL     OW 3545   2.684   2.452   1.467
  879SOL    HW2 3546   2.680   2.540   1.504
  879SOL    HW3 3547   2.607   2.407   1.501
  879SOL    MW4 3548   2.673   2.457   1.476
  880SOL     OW 3549   2.683   2.710   1.561
  880SOL    HW2 3550   2.758   2.749   1.516
  880SOL    HW3 3551   2.609   2.766   1.537
  880SOL    MW4 3552   2.683   2.723   1.552
  881SOL     OW 3553   2.907   2.862   1.440
  881SOL    HW2 3554   2.988   2.818   1.466
  881SOL    HW3 3555   2.914   2.950   1.479
  881SOL    MW4 3556   2.919   2.868   1.449
  882SOL     OW 3557   2.925   3.111   1.588
  882SOL    HW2 3558   2.933   3.097   1.682
  882SOL    HW3 3559   3.000   3.165   1.564
  882SOL    MW4 3560   2.936   3.116   1.597
  883SOL     OW 3561   2.712   3.251   1.505
  883SOL    HW2 3562   2.793   3.211   1.537
  883SOL    HW3 3563   2.722   3.254   1.410
  883SOL    MW4 3564   2.724   3.246   1.497
  884SOL     OW 3565   2.675   3.494   1.635
  884SOL    HW2 3566   2.693   3.494   1.729
  884SOL    HW3 3567   2.701   3.406   1.606
  884SOL    MW4 3568   2.681   3.482   1.643
  885SOL     OW 3569   2.886   3.616   1.521
  885SOL    HW2 3570   2.798   3.582   1.536
  885SOL    HW3 3571   2.906   3.594   1.431
  885SOL    MW4 3572   2.877   3.609   1.511
  886SOL     OW 3573   2.943   3.887   1.608
  886SOL    HW2 3574   2.869   3.934   1.570
  886SOL    HW3 3575   2.931   3.796   1.580
  886SOL    MW4 3576   2.932   3.881   1.599
  887SOL     OW 3577   2.722   4.017   1.510
  887SOL    HW2 3578   2.686   4.092   1.557
  887SOL    HW3 3579   2.717   4.042   1.418
  887SOL    MW4 3580   2.717   4.030   1.504
  888SOL     OW 3581   2.691   4.275   1.606
  888SOL    HW2 3582   2.774   4.283   1.560
  888SOL    HW3 3583   2.627   4.318   1.549
  888SOL    MW4 3584   2.693   4.281   1.592
  889SOL     OW 3585   2.911   4.381   1.480
  889SOL    HW2 3586   2.904   4.476   1.492
  889SOL    HW3 3587   2.897   4.368   1.386
  889SOL    MW4 3588   2.908   4.392   1.469
  890SOL     OW 3589   3.338   4.630   1.608
  890SOL    HW2 3590   3.427   4.659   1.591
  890SOL    HW3 3591   3.326   4.553   1.552
  890SOL    MW4 3592   3.348   4.624   1.598
  891SOL     OW 3593   3.143   0.124   1.476
  891SOL    HW2 3594   3.208   0.078   1.528
  891SOL    HW3 3595   3.059   0.086   1.503
  891SOL    MW4 3596   3.140   0.113   1.486
  892SOL     OW 3597   3.196   0.379   1.581
  892SOL    HW2 3598   3.183   0.290   1.548
  892SOL    HW3 3599   3.115   0.425   1.559
  892SOL    MW4 3600   3.183   0.373   1.574
  893SOL     OW 3601   3.401   0.547   1.513
  893SOL    HW2 3602   3.322   0.499   1.538
  893SOL    HW3 3603   3.397   0.550   1.418
  893SOL    MW4 3604   3.390   0.541   1.504
  894SOL     OW 3605   3.412   0.814   1.613
  894SOL    HW2 3606   3.393   0.807   1.707
  894SOL    HW3 3607   3.411   0.724   1.581
  894SOL    MW4 3608   3.409   0.801   1.621
  895SOL     OW 3609   3.178   0.890   1.484
  895SOL    HW2 3610   3.253   0.862   1.537
  895SOL    HW3 3611   3.102   0.853   1.528
  895SOL    MW4 3612   3.178   0.881   1.497
  896SOL     OW 3613   3.149   1.145   1.574
  896SOL    HW2 3614   3.143   1.135   1.669
  896SOL    HW3 3615   3.149   1.055   1.541
  896SOL    MW4 3616   3.148   1.132   1.582
  897SOL     OW 3617   3.365   1.294   1.482
  897SOL    HW2 3618   3.449   1.253   1.499
  897SOL    HW3 3619   3.300   1.225   1.497
  897SOL    MW4 3620   3.368   1.280   1.486
  898SOL     OW 3621   3.342   1.558   1.576
  898SOL    HW2 3622   3.346   1.567   1.671
  898SOL    HW3 3623   3.342   1.463   1.561
  898SOL    MW4 3624   3.343   1.546   1.587
  899SOL     OW 3625   3.117   1.664   1.484
  899SOL    HW2 3626   3.200   1.634   1.519
  899SOL    HW3 3627   3.051   1.615   1.533
  899SOL    MW4 3628   3.119   1.653   1.495
  900SOL     OW 3629   3.138   1.906   1.603
  900SOL    HW2 3630   3.122   1.821   1.563
  900SOL    HW3 3631   3.091   1.968   1.548
  900SOL    MW4 3632   3.129   1.903   1.590
  901SOL     OW 3633   3.388   2.020   1.538
  901SOL    HW2 3634   3.305   1.981   1.565
  901SOL    HW3 3635   3.381   2.028   1.443
  901SOL    MW4 3636   3.376   2.016   1.529
  902SOL     OW 3637   3.371   2.299   1.598
  902SOL    HW2 3638   3.456   2.340   1.582
  902SOL    HW3 3639   3.385   2.207   1.574
  902SOL    MW4 3640   3.384   2.292   1.592
  903SOL     OW 3641   3.157   2.432   1.474
  903SOL    HW2 3642   3.232   2.393   1.520
  903SOL    HW3 3643   3.081   2.396   1.519
  903SOL    MW4 3644   3.157   2.422   1.486
  904SOL     OW 3645   3.122   2.719   1.527
  904SOL    HW2 3646   3.205   2.756   1.498
  904SOL    HW3 3647   3.131   2.625   1.509
  904SOL    MW4 3648   3.134   2.711   1.520
  905SOL     OW 3649   3.389   2.823   1.469
  905SOL    HW2 3650   3.373   2.913   1.496
  905SOL    HW3 3651   3.405   2.829   1.375
  905SOL    MW4 3652   3.389   2.836   1.460
  906SOL     OW 3653   3.371   3.084   1.582
  906SOL    HW2 3654   3.357   3.077   1.677
  906SOL    HW3 3655   3.426   3.162   1.572
  906SOL    MW4 3656   3.376   3.093   1.593
  907SOL     OW 3657   3.161   3.222   1.485
  907SOL    HW2 3658   3.227   3.159   1.512
  907SOL    HW3 3659   3.161   3.217   1.390
  907SOL    MW4 3660   3.169   3.213   1.476
  908SOL     OW 3661   3.155   3.505   1.574
  908SOL    HW2 3662   3.144   3.411   1.560
  908SOL    HW3 3663   3.068   3.542   1.557
  908SOL    MW4 3664   3.142   3.498   1.570
  909SOL     OW 3665   3.391   3.664   1.465
  909SOL    HW2 3666   3.457   3.610   1.509
  909SOL    HW3 3667   3.308   3.625   1.489
  909SOL    MW4 3668   3.389   3.652   1.474
  910SOL     OW 3669   3.382   3.879   1.617
  910SOL    HW2 3670   3.315   3.934   1.577
  910SOL    HW3 3671   3.373   3.795   1.572
  910SOL    MW4 3672   3.372   3.875   1.606
  911SOL     OW 3673   3.160   3.968   1.476
  911SOL    HW2 3674   3.153   4.061   1.496
  911SOL    HW3 3675   3.089   3.926   1.524
  911SOL    MW4 3676   3.150   3.975   1.485
  912SOL     OW 3677   3.134   4.229   1.559
  912SOL    HW2 3678   3.141   4.244   1.653
  912SOL    HW3 3679   3.052   4.273   1.534
  912SOL    MW4 3680   3.124   4.237   1.568
  913SOL     OW 3681   3.325   4.390   1.466
  913SOL    HW2 3682   3.257   4.329   1.497
  913SOL    HW3 3683   3.325   4.381   1.371
  913SOL    MW4 3684   3.316   4.380   1.458
  914SOL     OW 3685   3.821   4.640   1.596
  914SOL    HW2 3686   3.812   4.629   1.690
  914SOL    HW3 3687   3.903   4.689   1.585
  914SOL    MW4 3688   3.831   4.645   1.607
  915SOL     OW 3689   3.583   0.116   1.531
  915SOL    HW2 3690   3.666   0.082   1.563
  915SOL    HW3 3691   3.598   0.132   1.438
  915SOL    MW4 3692   3.596   0.113   1.523
  916SOL     OW 3693   3.600   0.379   1.609
  916SOL    HW2 3694   3.595   0.285   1.590
  916SOL    HW3 3695   3.519   0.415   1.574
  916SOL    MW4 3696   3.589   0.372   1.602
  917SOL     OW 3697   3.815   0.525   1.503
  917SOL    HW2 3698   3.732   0.487   1.530
  917SOL    HW3 3699   3.811   0.526   1.407
  917SOL    MW4 3700   3.803   0.520   1.494
  918SOL     OW 3701   3.848   0.775   1.609
  918SOL    HW2 3702   3.775   0.827   1.575
  918SOL    HW3 3703   3.832   0.687   1.575
  918SOL    MW4 3704   3.836   0.770   1.600
  919SOL     OW 3705   3.630   0.927   1.516
  919SOL    HW2 3706   3.553   0.885   1.555
  919SOL    HW3 3707   3.622   0.908   1.423
  919SOL    MW4 3708   3.619   0.919   1.509
  920SOL     OW 3709   3.604   1.201   1.576
  920SOL    HW2 3710   3.673   1.249   1.531
  920SOL    HW3 3711   3.614   1.110   1.548
  920SOL    MW4 3712   3.614   1.195   1.567
  921SOL     OW 3713   3.836   1.296   1.464
  921SOL    HW2 3714   3.902   1.255   1.520
  921SOL    HW3 3715   3.826   1.384   1.500
  921SOL    MW4 3716   3.844   1.303   1.476
  922SOL     OW 3717   3.827   1.531   1.606
  922SOL    HW2 3718   3.828   1.532   1.702
  922SOL    HW3 3719   3.743   1.568   1.582
  922SOL    MW4 3720   3.816   1.536   1.616
  923SOL     OW 3721   3.587   1.630   1.528
  923SOL    HW2 3722   3.496   1.607   1.548
  923SOL    HW3 3723   3.591   1.625   1.432
  923SOL    MW4 3724   3.575   1.627   1.518
  924SOL     OW 3725   3.634   1.908   1.578
  924SOL    HW2 3726   3.629   1.816   1.551
  924SOL    HW3 3727   3.545   1.941   1.568
  924SOL    MW4 3728   3.622   1.900   1.573
  925SOL     OW 3729   3.870   2.040   1.517
  925SOL    HW2 3730   3.869   2.128   1.554
  925SOL    HW3 3731   3.792   1.998   1.553
  925SOL    MW4 3732   3.860   2.046   1.527
  926SOL     OW 3733   3.812   2.306   1.628
  926SOL    HW2 3734   3.817   2.306   1.723
  926SOL    HW3 3735   3.878   2.370   1.600
  926SOL    MW4 3736   3.821   2.315   1.637
  927SOL     OW 3737   3.590   2.423   1.537
  927SOL    HW2 3738   3.597   2.512   1.571
  927SOL    HW3 3739   3.663   2.376   1.579
  927SOL    MW4 3740   3.601   2.428   1.547
  928SOL     OW 3741   3.609   2.720   1.577
  928SOL    HW2 3742   3.610   2.739   1.671
  928SOL    HW3 3743   3.523   2.748   1.548
  928SOL    MW4 3744   3.598   2.726   1.586
  929SOL     OW 3745   3.855   2.831   1.491
  929SOL    HW2 3746   3.929   2.801   1.544
  929SOL    HW3 3747   3.783   2.774   1.517
  929SOL    MW4 3748   3.855   2.819   1.501
  930SOL     OW 3749   3.808   3.088   1.619
  930SOL    HW2 3750   3.889   3.136   1.604
  930SOL    HW3 3751   3.823   3.002   1.579
  930SOL    MW4 3752   3.821   3.083   1.611
  931SOL     OW 3753   3.587   3.232   1.517
  931SOL    HW2 3754   3.668   3.186   1.539
  931SOL    HW3 3755   3.577   3.220   1.423
  931SOL    MW4 3756   3.596   3.225   1.507
  932SOL     OW 3757   3.606   3.525   1.574
  932SOL    HW2 3758   3.692   3.556   1.545
  932SOL    HW3 3759   3.613   3.430   1.571
  932SOL    MW4 3760   3.618   3.517   1.570
  933SOL     OW 3761   3.836   3.612   1.467
  933SOL    HW2 3762   3.907   3.556   1.499
  933SOL    HW3 3763   3.859   3.700   1.498
  933SOL    MW4 3764   3.848   3.616   1.476
  934SOL     OW 3765   3.828   3.866   1.581
  934SOL    HW2 3766   3.903   3.922   1.559
  934SOL    HW3 3767   3.751   3.916   1.554
  934SOL    MW4 3768   3.828   3.880   1.575
  935SOL     OW 3769   3.615   4.001   1.491
  935SOL    HW2 3770   3.609   4.095   1.504
  935SOL    HW3 3771   3.535   3.965   1.530
  935SOL    MW4 3772   3.604   4.008   1.498
  936SOL     OW 3773   3.570   4.271   1.567
  936SOL    HW2 3774   3.555   4.291   1.659
  936SOL    HW3 3775   3.498   4.314   1.521
  936SOL    MW4 3776   3.559   4.279   1.573
  937SOL     OW 3777   3.806   4.381   1.465
  937SOL    HW2 3778   3.733   4.339   1.511
  937SOL    HW3 3779   3.816   4.465   1.509
  937SOL    MW4 3780   3.798   4.386   1.477
  938SOL     OW 3781   4.286   0.002   1.610
  938SOL    HW2 3782   4.268   0.008   1.703
  938SOL    HW3 3783   4.294  -0.092   1.592
  938SOL    MW4 3784   4.285  -0.009   1.620
  939SOL     OW 3785   4.047   0.094   1.497
  939SOL    HW2 3786   4.030   0.182   1.530
  939SOL    HW3 3787   4.135   0.073   1.528
  939SOL    MW4 3788   4.056   0.103   1.506
  940SOL     OW 3789   4.016   0.362   1.571
  940SOL    HW2 3790   4.003   0.364   1.666
  940SOL    HW3 3791   3.947   0.418   1.536
  940SOL    MW4 3792   4.005   0.369   1.579
  941SOL     OW 3793   4.278   0.475   1.461
  941SOL    HW2 3794   4.207   0.434   1.510
  941SOL    HW3 3795   4.357   0.430   1.492
  941SOL    MW4 3796   4.279   0.463   1.471
  942SOL     OW 3797   4.290   0.732   1.595
  942SOL    HW2 3798   4.297   0.642   1.561
  942SOL    HW3 3799   4.368   0.776   1.561
  942SOL    MW4 3800   4.301   0.726   1.586
  943SOL     OW 3801   4.086   0.901   1.545
  943SOL    HW2 3802   4.163   0.846   1.562
  943SOL    HW3 3803   4.012   0.843   1.562
  943SOL    MW4 3804   4.087   0.886   1.549
  944SOL     OW 3805   4.000   1.153   1.635
  944SOL    HW2 3806   4.007   1.148   1.731
  944SOL    HW3 3807   4.029   1.067   1.605
  944SOL    MW4 3808   4.005   1.141   1.644
  945SOL     OW 3809   4.238   1.301   1.526
  945SOL    HW2 3810   4.161   1.255   1.559
  945SOL    HW3 3811   4.310   1.241   1.539
  945SOL    MW4 3812   4.237   1.287   1.532
  946SOL     OW 3813   4.278   1.555   1.637
  946SOL    HW2 3814   4.270   1.466   1.605
  946SOL    HW3 3815   4.354   1.590   1.591
  946SOL    MW4 3816   4.287   1.548   1.626
  947SOL     OW 3817   4.062   1.646   1.494
  947SOL    HW2 3818   4.136   1.627   1.551
  947SOL    HW3 3819   3.988   1.599   1.534
  947SOL    MW4 3820   4.062   1.637   1.507
  948SOL     OW 3821   4.087   1.901   1.592
  948SOL    HW2 3822   4.077   1.817   1.548
  948SOL    HW3 3823   4.012   1.952   1.565
  948SOL    MW4 3824   4.076   1.897   1.583
  949SOL     OW 3825   4.288   2.083   1.501
  949SOL    HW2 3826   4.236   2.010   1.534
  949SOL    HW3 3827   4.286   2.073   1.406
  949SOL    MW4 3828   4.281   2.072   1.493
  950SOL     OW 3829   4.262   2.341   1.573
  950SOL    HW2 3830   4.265   2.343   1.668
  950SOL    HW3 3831   4.253   2.248   1.552
  950SOL    MW4 3832   4.261   2.329   1.583
  951SOL     OW 3833   4.024   2.478   1.521
  951SOL    HW2 3834   4.027   2.568   1.553
  951SOL    HW3 3835   4.113   2.445   1.535
  951SOL    MW4 3836   4.036   2.485   1.527
  952SOL     OW 3837   4.068   2.743   1.626
  952SOL    HW2 3838   4.060   2.753   1.721
  952SOL    HW3 3839   4.149   2.787   1.603
  952SOL    MW4 3840   4.077   2.750   1.635
  953SOL     OW 3841   4.310   2.863   1.503
  953SOL    HW2 3842   4.300   2.952   1.535
  953SOL    HW3 3843   4.332   2.872   1.410
  953SOL    MW4 3844   4.312   2.876   1.495
  954SOL     OW 3845   4.268   3.115   1.616
  954SOL    HW2 3846   4.265   3.119   1.711
  954SOL    HW3 3847   4.351   3.157   1.593
  954SOL    MW4 3848   4.279   3.121   1.625
  955SOL     OW 3849   4.023   3.212   1.517
  955SOL    HW2 3850   4.021   3.301   1.554
  955SOL    HW3 3851   4.103   3.173   1.553
  955SOL    MW4 3852   4.033   3.219   1.527
  956SOL     OW 3853   4.040   3.480   1.597
  956SOL    HW2 3854   4.036   3.509   1.688
  956SOL    HW3 3855   4.119   3.521   1.562
  956SOL    MW4 3856   4.050   3.489   1.605
  957SOL     OW 3857   4.252   3.621   1.496
  957SOL    HW2 3858   4.261   3.711   1.526
  957SOL    HW3 3859   4.279   3.623   1.404
  957SOL    MW4 3860   4.257   3.633   1.488
  958SOL     OW 3861   4.264   3.881   1.581
  958SOL    HW2 3862   4.181   3.920   1.556
  958SOL    HW3 3863   4.330   3.939   1.542
  958SOL    MW4 3864   4.262   3.894   1.572
  959SOL     OW 3865   4.041   4.015   1.488
  959SOL    HW2 3866   4.030   4.101   1.528
  959SOL    HW3 3867   4.049   4.032   1.395
  959SOL    MW4 3868   4.040   4.028   1.481
  960SOL     OW 3869   4.057   4.278   1.567
  960SOL    HW2 3870   4.036   4.269   1.660
  960SOL    HW3 3871   3.975   4.304   1.526
  960SOL    MW4 3872   4.043   4.280   1.574
  961SOL     OW 3873   4.283   4.417   1.510
  961SOL    HW2 3874   4.201   4.373   1.527
  961SOL    HW3 3875   4.284   4.431   1.415
  961SOL    MW4 3876   4.273   4.413   1.500
  962SOL     OW 3877   0.211   4.662   1.905
  962SOL    HW2 3878   0.287   4.711   1.934
  962SOL    HW3 3879   0.219   4.659   1.810
  962SOL    MW4 3880   0.222   4.668   1.896
  963SOL     OW 3881   4.478   0.126   1.982
  963SOL    HW2 3882   4.479   0.206   1.929
  963SOL    HW3 3883   4.559   0.080   1.958
  963SOL    MW4 3884   4.489   0.131   1.972
  964SOL     OW 3885   4.481   0.378   1.850
  964SOL    HW2 3886   4.398   0.417   1.876
  964SOL    HW3 3887   4.547   0.424   1.902
  964SOL    MW4 3888   4.479   0.389   1.860
  965SOL     OW 3889   0.206   0.527   1.944
  965SOL    HW2 3890   0.291   0.492   1.916
  965SOL    HW3 3891   0.209   0.619   1.918
  965SOL    MW4 3892   0.218   0.535   1.937
  966SOL     OW 3893   0.203   0.790   1.873
  966SOL    HW2 3894   0.281   0.837   1.903
  966SOL    HW3 3895   0.221   0.769   1.781
  966SOL    MW4 3896   0.216   0.793   1.865
  967SOL     OW 3897   4.474   0.915   2.003
  967SOL    HW2 3898   4.410   0.854   1.965
  967SOL    HW3 3899   4.558   0.887   1.966
  967SOL    MW4 3900   4.476   0.903   1.993
  968SOL     OW 3901   4.448   1.162   1.870
  968SOL    HW2 3902   4.396   1.219   1.926
  968SOL    HW3 3903   4.459   1.081   1.921
  968SOL    MW4 3904   4.443   1.159   1.884
  969SOL     OW 3905   0.151   1.276   2.011
  969SOL    HW2 3906   0.159   1.368   1.986
  969SOL    HW3 3907   0.088   1.239   1.948
  969SOL    MW4 3908   0.143   1.283   2.000
  970SOL     OW 3909   0.212   1.526   1.858
  970SOL    HW2 3910   0.294   1.550   1.902
  970SOL    HW3 3911   0.147   1.584   1.897
  970SOL    MW4 3912   0.215   1.537   1.869
  971SOL     OW 3913   4.487   1.711   1.951
  971SOL    HW2 3914   4.509   1.699   2.043
  971SOL    HW3 3915   4.407   1.660   1.938
  971SOL    MW4 3916   4.479   1.703   1.961
  972SOL     OW 3917   0.015   1.974   1.865
  972SOL    HW2 3918  -0.064   2.010   1.906
  972SOL    HW3 3919   0.030   1.892   1.912
  972SOL    MW4 3920   0.007   1.968   1.877
  973SOL     OW 3921   0.233   2.039   2.006
  973SOL    HW2 3922   0.254   2.130   1.986
  973SOL    HW3 3923   0.155   2.020   1.953
  973SOL    MW4 3924   0.225   2.049   1.996
  974SOL     OW 3925   0.259   2.298   1.922
  974SOL    HW2 3926   0.324   2.368   1.926
  974SOL    HW3 3927   0.175   2.342   1.937
  974SOL    MW4 3928   0.256   2.313   1.925
  975SOL     OW 3929   0.019   2.428   1.963
  975SOL    HW2 3930   0.007   2.412   2.057
  975SOL    HW3 3931   0.012   2.523   1.953
  975SOL    MW4 3932   0.016   2.438   1.974
  976SOL     OW 3933   0.025   2.714   1.905
  976SOL    HW2 3934  -0.053   2.755   1.943
  976SOL    HW3 3935   0.005   2.704   1.812
  976SOL    MW4 3936   0.012   2.718   1.898
  977SOL     OW 3937   0.231   2.832   2.055
  977SOL    HW2 3938   0.215   2.924   2.034
  977SOL    HW3 3939   0.167   2.784   2.002
  977SOL    MW4 3940   0.220   2.838   2.045
  978SOL     OW 3941   0.195   3.090   1.993
  978SOL    HW2 3942   0.281   3.131   2.001
  978SOL    HW3 3943   0.181   3.081   1.899
  978SOL    MW4 3944   0.204   3.095   1.982
  979SOL     OW 3945   4.434   3.212   2.039
  979SOL    HW2 3946   4.368   3.161   1.992
  979SOL    HW3 3947   4.516   3.162   2.028
  979SOL    MW4 3948   4.436   3.198   2.031
  980SOL     OW 3949   4.480   3.458   1.896
  980SOL    HW2 3950   4.549   3.505   1.943
  980SOL    HW3 3951   4.475   3.373   1.940
  980SOL    MW4 3952   4.489   3.453   1.908
  981SOL     OW 3953   0.220   3.622   1.968
  981SOL    HW2 3954   0.216   3.633   2.063
  981SOL    HW3 3955   0.299   3.570   1.953
  981SOL    MW4 3956   0.230   3.617   1.978
  982SOL     OW 3957   0.231   3.854   1.845
  982SOL    HW2 3958   0.292   3.906   1.897
  982SOL    HW3 3959   0.232   3.768   1.886
  982SOL    MW4 3960   0.239   3.850   1.857
  983SOL     OW 3961   0.008   3.994   1.940
  983SOL    HW2 3962   0.018   4.081   1.901
  983SOL    HW3 3963   0.086   3.946   1.911
  983SOL    MW4 3964   0.020   3.999   1.931
  984SOL     OW 3965   0.028   4.273   1.859
  984SOL    HW2 3966  -0.053   4.320   1.878
  984SOL    HW3 3967   0.096   4.321   1.905
  984SOL    MW4 3968   0.027   4.285   1.867
  985SOL     OW 3969   0.230   4.390   1.991
  985SOL    HW2 3970   0.215   4.389   2.086
  985SOL    HW3 3971   0.224   4.483   1.967
  985SOL    MW4 3972   0.227   4.402   2.001
  986SOL     OW 3973   0.639   0.004   1.873
  986SOL    HW2 3974   0.641  -0.088   1.899
  986SOL    HW3 3975   0.641   0.002   1.778
  986SOL    MW4 3976   0.639  -0.009   1.864
  987SOL     OW 3977   0.420   0.160   1.976
  987SOL    HW2 3978   0.425   0.255   1.968
  987SOL    HW3 3979   0.509   0.129   1.956
  987SOL    MW4 3980   0.432   0.168   1.973
  988SOL     OW 3981   0.459   0.415   1.868
  988SOL    HW2 3982   0.545   0.454   1.887
  988SOL    HW3 3983   0.469   0.379   1.780
  988SOL    MW4 3984   0.472   0.415   1.859
  989SOL     OW 3985   0.686   0.543   1.930
  989SOL    HW2 3986   0.682   0.536   2.026
  989SOL    HW3 3987   0.753   0.480   1.905
  989SOL    MW4 3988   0.694   0.534   1.939
  990SOL     OW 3989   0.689   0.812   1.856
  990SOL    HW2 3990   0.757   0.846   1.914
  990SOL    HW3 3991   0.674   0.723   1.886
  990SOL    MW4 3992   0.696   0.805   1.868
  991SOL     OW 3993   0.441   0.886   1.961
  991SOL    HW2 3994   0.426   0.978   1.938
  991SOL    HW3 3995   0.528   0.867   1.924
  991SOL    MW4 3996   0.451   0.896   1.953
  992SOL     OW 3997   0.398   1.145   1.905
  992SOL    HW2 3998   0.318   1.190   1.932
  992SOL    HW3 3999   0.397   1.149   1.809
  992SOL    MW4 4000   0.387   1.151   1.896
  993SOL     OW 4001   0.647   1.298   1.954
  993SOL    HW2 4002   0.667   1.298   2.047
  993SOL    HW3 4003   0.568   1.244   1.946
  993SOL    MW4 4004   0.639   1.291   1.965
  994SOL     OW 4005   0.662   1.559   1.864
  994SOL    HW2 4006   0.652   1.470   1.899
  994SOL    HW3 4007   0.661   1.548   1.769
  994SOL    MW4 4008   0.661   1.546   1.856
  995SOL     OW 4009   0.427   1.601   1.997
  995SOL    HW2 4010   0.449   1.598   2.090
  995SOL    HW3 4011   0.511   1.594   1.952
  995SOL    MW4 4012   0.441   1.600   2.004
  996SOL     OW 4013   0.444   1.866   1.918
  996SOL    HW2 4014   0.442   1.781   1.962
  996SOL    HW3 4015   0.371   1.914   1.956
  996SOL    MW4 4016   0.434   1.861   1.929
  997SOL     OW 4017   0.662   2.082   1.956
  997SOL    HW2 4018   0.660   2.092   2.051
  997SOL    HW3 4019   0.606   2.006   1.939
  997SOL    MW4 4020   0.654   2.073   1.966
  998SOL     OW 4021   0.685   2.341   1.848
  998SOL    HW2 4022   0.671   2.256   1.888
  998SOL    HW3 4023   0.712   2.321   1.758
  998SOL    MW4 4024   0.687   2.327   1.841
  999SOL     OW 4025   0.464   2.467   1.953
  999SOL    HW2 4026   0.478   2.475   2.047
  999SOL    HW3 4027   0.541   2.420   1.921
  999SOL    MW4 4028   0.476   2.462   1.961
 1000SOL     OW 4029   0.410   2.745   1.875
 1000SOL    HW2 4030   0.438   2.658   1.904
 1000SOL    HW3 4031   0.346   2.772   1.940
 1000SOL    MW4 4032   0.405   2.737   1.887
 1001SOL     OW 4033   0.656   2.844   1.957
 1001SOL    HW2 4034   0.652   2.859   2.052
 1001SOL    HW3 4035   0.571   2.807   1.935
 1001SOL    MW4 4036   0.644   2.841   1.967
 1002SOL     OW 4037   0.675   3.102   1.895
 1002SOL    HW2 4038   0.664   3.010   1.920
 1002SOL    HW3 4039   0.673   3.101   1.799
 1002SOL    MW4 4040   0.673   3.090   1.885
 1003SOL     OW 4041   0.454   3.218   2.004
 1003SOL    HW2 4042   0.462   3.304   1.963
 1003SOL    HW3 4043   0.529   3.168   1.971
 1003SOL    MW4 4044   0.465   3.222   1.994
 1004SOL     OW 4045   0.453   3.493   1.893
 1004SOL    HW2 4046   0.537   3.537   1.907
 1004SOL    HW3 4047   0.446   3.485   1.798
 1004SOL    MW4 4048   0.463   3.497   1.882
 1005SOL     OW 4049   0.692   3.612   2.017
 1005SOL    HW2 4050   0.764   3.572   1.970
 1005SOL    HW3 4051   0.687   3.702   1.985
 1005SOL    MW4 4052   0.701   3.618   2.007
 1006SOL     OW 4053   0.652   3.860   1.894
 1006SOL    HW2 4054   0.717   3.928   1.912
 1006SOL    HW3 4055   0.642   3.860   1.799
 1006SOL    MW4 4056   0.659   3.869   1.884
 1007SOL     OW 4057   0.419   4.001   1.981
 1007SOL    HW2 4058   0.438   4.089   1.948
 1007SOL    HW3 4059   0.493   3.948   1.950
 1007SOL    MW4 4060   0.431   4.005   1.973
 1008SOL     OW 4061   0.446   4.267   1.885
 1008SOL    HW2 4062   0.366   4.301   1.925
 1008SOL    HW3 4063   0.422   4.250   1.794
 1008SOL    MW4 4064   0.432   4.269   1.878
 1009SOL     OW 4065   0.678   4.406   1.929
 1009SOL    HW2 4066   0.753   4.366   1.886
 1009SOL    HW3 4067   0.604   4.349   1.908
 1009SOL    MW4 4068   0.678   4.393   1.921
 1010SOL     OW 4069   1.089   0.009   1.919
 1010SOL    HW2 4070   1.171   0.056   1.937
 1010SOL    HW3 4071   1.104  -0.079   1.954
 1010SOL    MW4 4072   1.102   0.003   1.926
 1011SOL     OW 4073   0.869   0.115   2.000
 1011SOL    HW2 4074   0.946   0.073   1.962
 1011SOL    HW3 4075   0.795   0.075   1.955
 1011SOL    MW4 4076   0.870   0.104   1.989
 1012SOL     OW 4077   0.905   0.379   1.866
 1012SOL    HW2 4078   0.954   0.428   1.932
 1012SOL    HW3 4079   0.893   0.292   1.904
 1012SOL    MW4 4080   0.910   0.374   1.879
 1013SOL     OW 4081   1.106   0.541   1.969
 1013SOL    HW2 4082   1.183   0.498   1.932
 1013SOL    HW3 4083   1.110   0.631   1.935
 1013SOL    MW4 4084   1.116   0.547   1.960
 1014SOL     OW 4085   1.102   0.805   1.852
 1014SOL    HW2 4086   1.170   0.844   1.908
 1014SOL    HW3 4087   1.020   0.829   1.895
 1014SOL    MW4 4088   1.100   0.814   1.865
 1015SOL     OW 4089   0.894   0.921   1.999
 1015SOL    HW2 4090   0.904   0.921   2.094
 1015SOL    HW3 4091   0.889   1.014   1.975
 1015SOL    MW4 4092   0.895   0.933   2.008
 1016SOL     OW 4093   0.893   1.182   1.911
 1016SOL    HW2 4094   0.809   1.227   1.916
 1016SOL    HW3 4095   0.894   1.144   1.823
 1016SOL    MW4 4096   0.882   1.183   1.900
 1017SOL     OW 4097   1.117   1.325   2.001
 1017SOL    HW2 4098   1.091   1.409   1.964
 1017SOL    HW3 4099   1.042   1.267   1.986
 1017SOL    MW4 4100   1.104   1.328   1.994
 1018SOL     OW 4101   1.095   1.576   1.905
 1018SOL    HW2 4102   1.014   1.615   1.939
 1018SOL    HW3 4103   1.075   1.557   1.813
 1018SOL    MW4 4104   1.082   1.578   1.897
 1019SOL     OW 4105   0.883   1.703   2.001
 1019SOL    HW2 4106   0.888   1.786   1.954
 1019SOL    HW3 4107   0.805   1.660   1.965
 1019SOL    MW4 4108   0.874   1.708   1.990
 1020SOL     OW 4109   0.910   1.962   1.894
 1020SOL    HW2 4110   0.832   2.015   1.908
 1020SOL    HW3 4111   0.918   1.956   1.798
 1020SOL    MW4 4112   0.901   1.968   1.883
 1021SOL     OW 4113   1.120   2.098   1.990
 1021SOL    HW2 4114   1.132   2.172   1.930
 1021SOL    HW3 4115   1.050   2.046   1.951
 1021SOL    MW4 4116   1.112   2.101   1.977
 1022SOL     OW 4117   1.149   2.301   1.821
 1022SOL    HW2 4118   1.237   2.321   1.852
 1022SOL    HW3 4119   1.154   2.308   1.726
 1022SOL    MW4 4120   1.161   2.305   1.812
 1023SOL     OW 4121   0.916   2.442   1.957
 1023SOL    HW2 4122   0.987   2.406   1.905
 1023SOL    HW3 4123   0.838   2.398   1.925
 1023SOL    MW4 4124   0.915   2.431   1.946
 1024SOL     OW 4125   0.893   2.708   1.892
 1024SOL    HW2 4126   0.874   2.623   1.931
 1024SOL    HW3 4127   0.814   2.760   1.908
 1024SOL    MW4 4128   0.880   2.704   1.899
 1025SOL     OW 4129   1.136   2.818   1.958
 1025SOL    HW2 4130   1.133   2.829   2.053
 1025SOL    HW3 4131   1.050   2.785   1.934
 1025SOL    MW4 4132   1.124   2.815   1.968
 1026SOL     OW 4133   1.127   3.080   1.861
 1026SOL    HW2 4134   1.042   3.106   1.899
 1026SOL    HW3 4135   1.136   2.988   1.885
 1026SOL    MW4 4136   1.117   3.071   1.869
 1027SOL     OW 4137   0.905   3.208   1.979
 1027SOL    HW2 4138   0.916   3.199   2.074
 1027SOL    HW3 4139   0.817   3.173   1.962
 1027SOL    MW4 4140   0.895   3.202   1.989
 1028SOL     OW 4141   0.877   3.462   1.881
 1028SOL    HW2 4142   0.883   3.374   1.919
 1028SOL    HW3 4143   0.866   3.447   1.787
 1028SOL    MW4 4144   0.877   3.449   1.874
 1029SOL     OW 4145   1.072   3.637   1.929
 1029SOL    HW2 4146   1.088   3.615   2.021
 1029SOL    HW3 4147   1.000   3.580   1.902
 1029SOL    MW4 4148   1.065   3.627   1.937
 1030SOL     OW 4149   1.097   3.919   1.844
 1030SOL    HW2 4150   1.092   3.827   1.872
 1030SOL    HW3 4151   1.099   3.914   1.748
 1030SOL    MW4 4152   1.096   3.906   1.835
 1031SOL     OW 4153   0.843   4.034   1.972
 1031SOL    HW2 4154   0.851   4.028   2.067
 1031SOL    HW3 4155   0.926   4.002   1.939
 1031SOL    MW4 4156   0.855   4.029   1.980
 1032SOL     OW 4157   0.930   4.285   1.851
 1032SOL    HW2 4158   0.989   4.335   1.908
 1032SOL    HW3 4159   0.900   4.212   1.905
 1032SOL    MW4 4160   0.934   4.282   1.866
 1033SOL     OW 4161   1.137   4.415   2.000
 1033SOL    HW2 4162   1.140   4.378   2.089
 1033SOL    HW3 4163   1.215   4.378   1.957
 1033SOL    MW4 4164   1.148   4.405   2.006
 1034SOL     OW 4165   1.538   0.001   1.888
 1034SOL    HW2 4166   1.616   0.048   1.917
 1034SOL    HW3 4167   1.536  -0.079   1.940
 1034SOL    MW4 4168   1.548  -0.003   1.899
 1035SOL     OW 4169   1.306   0.167   1.964
 1035SOL    HW2 4170   1.299   0.161   2.059
 1035SOL    HW3 4171   1.380   0.112   1.941
 1035SOL    MW4 4172   1.315   0.159   1.973
 1036SOL     OW 4173   1.341   0.426   1.870
 1036SOL    HW2 4174   1.340   0.333   1.894
 1036SOL    HW3 4175   1.339   0.426   1.774
 1036SOL    MW4 4176   1.340   0.413   1.860
 1037SOL     OW 4177   1.560   0.516   2.022
 1037SOL    HW2 4178   1.637   0.490   1.972
 1037SOL    HW3 4179   1.486   0.480   1.972
 1037SOL    MW4 4180   1.560   0.508   2.009
 1038SOL     OW 4181   1.541   0.784   1.892
 1038SOL    HW2 4182   1.616   0.834   1.923
 1038SOL    HW3 4183   1.553   0.697   1.931
 1038SOL    MW4 4184   1.552   0.779   1.902
 1039SOL     OW 4185   1.316   0.929   1.997
 1039SOL    HW2 4186   1.334   0.923   2.090
 1039SOL    HW3 4187   1.367   0.859   1.957
 1039SOL    MW4 4188   1.325   0.919   2.004
 1040SOL     OW 4189   1.323   1.188   1.888
 1040SOL    HW2 4190   1.310   1.103   1.928
 1040SOL    HW3 4191   1.265   1.247   1.936
 1040SOL    MW4 4192   1.313   1.185   1.900
 1041SOL     OW 4193   1.548   1.275   2.013
 1041SOL    HW2 4194   1.533   1.366   1.985
 1041SOL    HW3 4195   1.470   1.229   1.985
 1041SOL    MW4 4196   1.536   1.281   2.005
 1042SOL     OW 4197   1.555   1.559   1.938
 1042SOL    HW2 4198   1.626   1.617   1.967
 1042SOL    HW3 4199   1.475   1.603   1.965
 1042SOL    MW4 4200   1.554   1.572   1.946
 1043SOL     OW 4201   1.327   1.708   1.986
 1043SOL    HW2 4202   1.339   1.685   2.078
 1043SOL    HW3 4203   1.247   1.663   1.960
 1043SOL    MW4 4204   1.318   1.699   1.995
 1044SOL     OW 4205   1.301   1.950   1.862
 1044SOL    HW2 4206   1.308   1.871   1.916
 1044SOL    HW3 4207   1.233   2.002   1.904
 1044SOL    MW4 4208   1.293   1.947   1.875
 1045SOL     OW 4209   1.524   2.072   2.028
 1045SOL    HW2 4210   1.548   2.124   1.951
 1045SOL    HW3 4211   1.453   2.016   1.998
 1045SOL    MW4 4212   1.518   2.072   2.014
 1046SOL     OW 4213   1.601   2.261   1.844
 1046SOL    HW2 4214   1.680   2.311   1.865
 1046SOL    HW3 4215   1.581   2.286   1.754
 1046SOL    MW4 4216   1.609   2.271   1.835
 1047SOL     OW 4217   1.388   2.390   1.971
 1047SOL    HW2 4218   1.391   2.482   1.946
 1047SOL    HW3 4219   1.462   2.350   1.926
 1047SOL    MW4 4220   1.398   2.397   1.962
 1048SOL     OW 4221   1.338   2.647   1.878
 1048SOL    HW2 4222   1.261   2.699   1.902
 1048SOL    HW3 4223   1.338   2.647   1.783
 1048SOL    MW4 4224   1.328   2.654   1.869
 1049SOL     OW 4225   1.551   2.872   1.931
 1049SOL    HW2 4226   1.635   2.825   1.932
 1049SOL    HW3 4227   1.492   2.814   1.883
 1049SOL    MW4 4228   1.554   2.858   1.925
 1050SOL     OW 4229   1.525   3.128   1.835
 1050SOL    HW2 4230   1.520   3.034   1.851
 1050SOL    HW3 4231   1.553   3.135   1.744
 1050SOL    MW4 4232   1.528   3.116   1.825
 1051SOL     OW 4233   1.323   3.241   1.979
 1051SOL    HW2 4234   1.394   3.201   1.930
 1051SOL    HW3 4235   1.243   3.199   1.946
 1051SOL    MW4 4236   1.321   3.230   1.968
 1052SOL     OW 4237   1.331   3.476   1.842
 1052SOL    HW2 4238   1.323   3.405   1.906
 1052SOL    HW3 4239   1.264   3.540   1.868
 1052SOL    MW4 4240   1.321   3.475   1.853
 1053SOL     OW 4241   1.547   3.590   1.990
 1053SOL    HW2 4242   1.539   3.589   2.086
 1053SOL    HW3 4243   1.465   3.551   1.959
 1053SOL    MW4 4244   1.535   3.584   1.999
 1054SOL     OW 4245   1.575   3.857   1.907
 1054SOL    HW2 4246   1.653   3.892   1.951
 1054SOL    HW3 4247   1.572   3.765   1.934
 1054SOL    MW4 4248   1.585   3.850   1.916
 1055SOL     OW 4249   1.334   4.011   1.981
 1055SOL    HW2 4250   1.412   3.960   1.960
 1055SOL    HW3 4251   1.262   3.964   1.939
 1055SOL    MW4 4252   1.335   3.998   1.973
 1056SOL     OW 4253   1.347   4.267   1.897
 1056SOL    HW2 4254   1.346   4.175   1.922
 1056SOL    HW3 4255   1.354   4.266   1.801
 1056SOL    MW4 4256   1.347   4.255   1.887
 1057SOL     OW 4257   1.599   4.383   1.986
 1057SOL    HW2 4258   1.602   4.365   2.080
 1057SOL    HW3 4259   1.513   4.353   1.959
 1057SOL    MW4 4260   1.588   4.377   1.995
 1058SOL     OW 4261   1.984   4.636   1.897
 1058SOL    HW2 4262   2.070   4.673   1.916
 1058SOL    HW3 4263   1.985   4.549   1.938
 1058SOL    MW4 4264   1.995   4.629   1.905
 1059SOL     OW 4265   1.766   0.154   1.971
 1059SOL    HW2 4266   1.772   0.159   2.067
 1059SOL    HW3 4267   1.836   0.093   1.947
 1059SOL    MW4 4268   1.776   0.147   1.981
 1060SOL     OW 4269   1.782   0.420   1.881
 1060SOL    HW2 4270   1.778   0.327   1.904
 1060SOL    HW3 4271   1.774   0.421   1.786
 1060SOL    MW4 4272   1.780   0.408   1.872
 1061SOL     OW 4273   2.012   0.499   2.016
 1061SOL    HW2 4274   2.010   0.590   1.988
 1061SOL    HW3 4275   1.932   0.461   1.978
 1061SOL    MW4 4276   2.001   0.506   2.007
 1062SOL     OW 4277   2.013   0.763   1.918
 1062SOL    HW2 4278   2.100   0.797   1.936
 1062SOL    HW3 4279   2.008   0.759   1.822
 1062SOL    MW4 4280   2.023   0.767   1.908
 1063SOL     OW 4281   1.759   0.887   2.011
 1063SOL    HW2 4282   1.775   0.977   1.985
 1063SOL    HW3 4283   1.836   0.839   1.982
 1063SOL    MW4 4284   1.771   0.892   2.004
 1064SOL     OW 4285   1.792   1.149   1.955
 1064SOL    HW2 4286   1.724   1.209   1.984
 1064SOL    HW3 4287   1.777   1.138   1.861
 1064SOL    MW4 4288   1.781   1.155   1.946
 1065SOL     OW 4289   2.052   1.285   1.990
 1065SOL    HW2 4290   2.132   1.250   1.951
 1065SOL    HW3 4291   1.991   1.212   1.990
 1065SOL    MW4 4292   2.055   1.271   1.985
 1066SOL     OW 4293   2.013   1.581   1.948
 1066SOL    HW2 4294   2.022   1.488   1.968
 1066SOL    HW3 4295   2.021   1.587   1.853
 1066SOL    MW4 4296   2.015   1.570   1.938
 1067SOL     OW 4297   1.781   1.704   2.036
 1067SOL    HW2 4298   1.784   1.794   2.004
 1067SOL    HW3 4299   1.867   1.667   2.014
 1067SOL    MW4 4300   1.793   1.711   2.029
 1068SOL     OW 4301   1.769   1.963   1.923
 1068SOL    HW2 4302   1.699   2.018   1.958
 1068SOL    HW3 4303   1.763   1.974   1.828
 1068SOL    MW4 4304   1.759   1.972   1.915
 1069SOL     OW 4305   2.021   2.068   2.000
 1069SOL    HW2 4306   2.109   2.044   1.970
 1069SOL    HW3 4307   1.962   2.019   1.942
 1069SOL    MW4 4308   2.025   2.058   1.988
 1070SOL     OW 4309   2.036   2.322   1.880
 1070SOL    HW2 4310   2.111   2.372   1.912
 1070SOL    HW3 4311   2.038   2.240   1.931
 1070SOL    MW4 4312   2.046   2.318   1.891
 1071SOL     OW 4313   1.793   2.462   1.947
 1071SOL    HW2 4314   1.799   2.465   2.043
 1071SOL    HW3 4315   1.877   2.426   1.919
 1071SOL    MW4 4316   1.805   2.457   1.956
 1072SOL     OW 4317   1.790   2.738   1.883
 1072SOL    HW2 4318   1.786   2.649   1.918
 1072SOL    HW3 4319   1.783   2.728   1.788
 1072SOL    MW4 4320   1.789   2.725   1.875
 1073SOL     OW 4321   2.027   2.835   1.952
 1073SOL    HW2 4322   2.019   2.834   2.047
 1073SOL    HW3 4323   1.948   2.793   1.920
 1073SOL    MW4 4324   2.016   2.829   1.960
 1074SOL     OW 4325   2.019   3.089   1.838
 1074SOL    HW2 4326   1.938   3.135   1.859
 1074SOL    HW3 4327   2.013   3.006   1.885
 1074SOL    MW4 4328   2.008   3.084   1.847
 1075SOL     OW 4329   1.775   3.218   1.939
 1075SOL    HW2 4330   1.769   3.217   2.034
 1075SOL    HW3 4331   1.692   3.179   1.910
 1075SOL    MW4 4332   1.763   3.213   1.948
 1076SOL     OW 4333   1.800   3.490   1.879
 1076SOL    HW2 4334   1.778   3.400   1.900
 1076SOL    HW3 4335   1.733   3.543   1.921
 1076SOL    MW4 4336   1.789   3.485   1.887
 1077SOL     OW 4337   2.048   3.589   1.969
 1077SOL    HW2 4338   2.046   3.680   1.939
 1077SOL    HW3 4339   1.968   3.550   1.934
 1077SOL    MW4 4340   2.038   3.596   1.960
 1078SOL     OW 4341   2.028   3.858   1.900
 1078SOL    HW2 4342   2.101   3.913   1.929
 1078SOL    HW3 4343   2.037   3.853   1.805
 1078SOL    MW4 4344   2.039   3.864   1.891
 1079SOL     OW 4345   1.803   3.980   1.991
 1079SOL    HW2 4346   1.806   4.063   1.943
 1079SOL    HW3 4347   1.881   3.933   1.961
 1079SOL    MW4 4348   1.814   3.985   1.980
 1080SOL     OW 4349   1.798   4.232   1.871
 1080SOL    HW2 4350   1.724   4.276   1.914
 1080SOL    HW3 4351   1.786   4.251   1.778
 1080SOL    MW4 4352   1.787   4.240   1.864
 1081SOL     OW 4353   1.992   4.390   2.009
 1081SOL    HW2 4354   2.072   4.357   1.966
 1081SOL    HW3 4355   1.921   4.345   1.963
 1081SOL    MW4 4356   1.993   4.380   1.997
 1082SOL     OW 4357   2.454   4.654   1.871
 1082SOL    HW2 4358   2.538   4.691   1.897
 1082SOL    HW3 4359   2.457   4.563   1.902
 1082SOL    MW4 4360   2.465   4.647   1.879
 1083SOL     OW 4361   2.210   0.090   1.968
 1083SOL    HW2 4362   2.202   0.072   2.062
 1083SOL    HW3 4363   2.299   0.063   1.946
 1083SOL    MW4 4364   2.221   0.084   1.978
 1084SOL     OW 4365   2.232   0.360   1.906
 1084SOL    HW2 4366   2.221   0.267   1.922
 1084SOL    HW3 4367   2.171   0.403   1.966
 1084SOL    MW4 4368   2.223   0.354   1.916
 1085SOL     OW 4369   2.505   0.496   1.987
 1085SOL    HW2 4370   2.579   0.447   1.952
 1085SOL    HW3 4371   2.428   0.456   1.946
 1085SOL    MW4 4372   2.504   0.484   1.977
 1086SOL     OW 4373   2.488   0.767   1.927
 1086SOL    HW2 4374   2.500   0.677   1.956
 1086SOL    HW3 4375   2.478   0.761   1.832
 1086SOL    MW4 4376   2.488   0.755   1.918
 1087SOL     OW 4377   2.249   0.851   1.999
 1087SOL    HW2 4378   2.246   0.841   2.095
 1087SOL    HW3 4379   2.339   0.828   1.976
 1087SOL    MW4 4380   2.260   0.846   2.009
 1088SOL     OW 4381   2.253   1.105   1.900
 1088SOL    HW2 4382   2.330   1.136   1.948
 1088SOL    HW3 4383   2.233   1.020   1.940
 1088SOL    MW4 4384   2.261   1.098   1.911
 1089SOL     OW 4385   2.484   1.285   1.990
 1089SOL    HW2 4386   2.504   1.291   2.083
 1089SOL    HW3 4387   2.475   1.376   1.962
 1089SOL    MW4 4388   2.486   1.298   1.999
 1090SOL     OW 4389   2.439   1.536   1.895
 1090SOL    HW2 4390   2.365   1.595   1.909
 1090SOL    HW3 4391   2.454   1.538   1.801
 1090SOL    MW4 4392   2.431   1.544   1.884
 1091SOL     OW 4393   2.240   1.719   1.960
 1091SOL    HW2 4394   2.263   1.731   2.052
 1091SOL    HW3 4395   2.159   1.669   1.962
 1091SOL    MW4 4396   2.233   1.714   1.972
 1092SOL     OW 4397   2.236   1.970   1.846
 1092SOL    HW2 4398   2.316   2.014   1.875
 1092SOL    HW3 4399   2.245   1.881   1.878
 1092SOL    MW4 4400   2.248   1.964   1.854
 1093SOL     OW 4401   2.455   2.053   1.968
 1093SOL    HW2 4402   2.536   2.007   1.949
 1093SOL    HW3 4403   2.470   2.142   1.935
 1093SOL    MW4 4404   2.468   2.059   1.961
 1094SOL     OW 4405   2.488   2.290   1.854
 1094SOL    HW2 4406   2.556   2.351   1.881
 1094SOL    HW3 4407   2.407   2.328   1.889
 1094SOL    MW4 4408   2.486   2.303   1.862
 1095SOL     OW 4409   2.269   2.450   1.945
 1095SOL    HW2 4410   2.254   2.461   2.039
 1095SOL    HW3 4411   2.260   2.537   1.908
 1095SOL    MW4 4412   2.266   2.463   1.953
 1096SOL     OW 4413   2.236   2.694   1.853
 1096SOL    HW2 4414   2.173   2.753   1.894
 1096SOL    HW3 4415   2.232   2.714   1.760
 1096SOL    MW4 4416   2.227   2.704   1.846
 1097SOL     OW 4417   2.455   2.844   1.955
 1097SOL    HW2 4418   2.438   2.933   1.925
 1097SOL    HW3 4419   2.386   2.792   1.915
 1097SOL    MW4 4420   2.444   2.849   1.946
 1098SOL     OW 4421   2.462   3.114   1.884
 1098SOL    HW2 4422   2.389   3.169   1.912
 1098SOL    HW3 4423   2.461   3.119   1.788
 1098SOL    MW4 4424   2.452   3.122   1.875
 1099SOL     OW 4425   2.235   3.245   1.958
 1099SOL    HW2 4426   2.203   3.266   2.045
 1099SOL    HW3 4427   2.168   3.188   1.921
 1099SOL    MW4 4428   2.222   3.240   1.964
 1100SOL     OW 4429   2.276   3.494   1.852
 1100SOL    HW2 4430   2.280   3.402   1.878
 1100SOL    HW3 4431   2.193   3.525   1.888
 1100SOL    MW4 4432   2.265   3.486   1.860
 1101SOL     OW 4433   2.491   3.651   1.923
 1101SOL    HW2 4434   2.471   3.666   2.016
 1101SOL    HW3 4435   2.419   3.597   1.892
 1101SOL    MW4 4436   2.479   3.646   1.931
 1102SOL     OW 4437   2.472   3.908   1.836
 1102SOL    HW2 4438   2.394   3.928   1.887
 1102SOL    HW3 4439   2.500   3.821   1.866
 1102SOL    MW4 4440   2.465   3.899   1.846
 1103SOL     OW 4441   2.256   4.021   1.995
 1103SOL    HW2 4442   2.258   4.030   2.091
 1103SOL    HW3 4443   2.236   4.109   1.963
 1103SOL    MW4 4444   2.254   4.034   2.004
 1104SOL     OW 4445   2.215   4.281   1.840
 1104SOL    HW2 4446   2.294   4.326   1.870
 1104SOL    HW3 4447   2.223   4.281   1.745
 1104SOL    MW4 4448   2.227   4.287   1.831
 1105SOL     OW 4449   2.451   4.377   1.957
 1105SOL    HW2 4450   2.447   4.380   2.053
 1105SOL    HW3 4451   2.540   4.347   1.938
 1105SOL    MW4 4452   2.462   4.373   1.967
 1106SOL     OW 4453   2.915   4.657   1.850
 1106SOL    HW2 4454   2.984   4.700   1.900
 1106SOL    HW3 4455   2.923   4.564   1.873
 1106SOL    MW4 4456   2.925   4.650   1.860
 1107SOL     OW 4457   2.696   0.085   1.994
 1107SOL    HW2 4458   2.714   0.081   2.088
 1107SOL    HW3 4459   2.779   0.060   1.953
 1107SOL    MW4 4460   2.710   0.081   2.001
 1108SOL     OW 4461   2.711   0.327   1.892
 1108SOL    HW2 4462   2.797   0.360   1.918
 1108SOL    HW3 4463   2.704   0.243   1.939
 1108SOL    MW4 4464   2.722   0.320   1.902
 1109SOL     OW 4465   2.940   0.478   1.944
 1109SOL    HW2 4466   3.016   0.432   1.909
 1109SOL    HW3 4467   2.959   0.570   1.931
 1109SOL    MW4 4468   2.952   0.484   1.937
 1110SOL     OW 4469   2.982   0.746   1.905
 1110SOL    HW2 4470   3.050   0.803   1.942
 1110SOL    HW3 4471   2.900   0.792   1.924
 1110SOL    MW4 4472   2.980   0.760   1.913
 1111SOL     OW 4473   2.736   0.868   1.982
 1111SOL    HW2 4474   2.733   0.961   1.958
 1111SOL    HW3 4475   2.648   0.835   1.960
 1111SOL    MW4 4476   2.724   0.876   1.976
 1112SOL     OW 4477   2.715   1.124   1.890
 1112SOL    HW2 4478   2.638   1.170   1.925
 1112SOL    HW3 4479   2.698   1.117   1.796
 1112SOL    MW4 4480   2.702   1.129   1.882
 1113SOL     OW 4481   2.906   1.303   1.977
 1113SOL    HW2 4482   2.894   1.392   1.942
 1113SOL    HW3 4483   2.837   1.252   1.936
 1113SOL    MW4 4484   2.895   1.308   1.967
 1114SOL     OW 4485   2.880   1.567   1.874
 1114SOL    HW2 4486   2.961   1.611   1.899
 1114SOL    HW3 4487   2.885   1.560   1.778
 1114SOL    MW4 4488   2.891   1.572   1.864
 1115SOL     OW 4489   2.657   1.672   2.006
 1115SOL    HW2 4490   2.732   1.636   1.959
 1115SOL    HW3 4491   2.583   1.619   1.976
 1115SOL    MW4 4492   2.657   1.660   1.996
 1116SOL     OW 4493   2.694   1.921   1.874
 1116SOL    HW2 4494   2.765   1.972   1.912
 1116SOL    HW3 4495   2.685   1.844   1.931
 1116SOL    MW4 4496   2.702   1.917   1.886
 1117SOL     OW 4497   2.889   2.103   1.966
 1117SOL    HW2 4498   2.883   2.115   2.060
 1117SOL    HW3 4499   2.975   2.063   1.952
 1117SOL    MW4 4500   2.899   2.099   1.976
 1118SOL     OW 4501   2.891   2.346   1.857
 1118SOL    HW2 4502   2.982   2.365   1.882
 1118SOL    HW3 4503   2.878   2.254   1.880
 1118SOL    MW4 4504   2.901   2.337   1.863
 1119SOL     OW 4505   2.665   2.473   1.960
 1119SOL    HW2 4506   2.673   2.564   1.929
 1119SOL    HW3 4507   2.746   2.431   1.930
 1119SOL    MW4 4508   2.677   2.480   1.952
 1120SOL     OW 4509   2.709   2.718   1.855
 1120SOL    HW2 4510   2.634   2.770   1.884
 1120SOL    HW3 4511   2.708   2.724   1.760
 1120SOL    MW4 4512   2.699   2.726   1.847
 1121SOL     OW 4513   2.966   2.823   1.993
 1121SOL    HW2 4514   2.957   2.910   1.955
 1121SOL    HW3 4515   2.890   2.774   1.961
 1121SOL    MW4 4516   2.955   2.828   1.984
 1122SOL     OW 4517   2.950   3.084   1.866
 1122SOL    HW2 4518   3.029   3.128   1.899
 1122SOL    HW3 4519   2.878   3.140   1.894
 1122SOL    MW4 4520   2.951   3.097   1.874
 1123SOL     OW 4521   2.721   3.213   1.965
 1123SOL    HW2 4522   2.712   3.308   1.957
 1123SOL    HW3 4523   2.633   3.179   1.945
 1123SOL    MW4 4524   2.708   3.221   1.961
 1124SOL     OW 4525   2.720   3.497   1.899
 1124SOL    HW2 4526   2.797   3.540   1.935
 1124SOL    HW3 4527   2.649   3.560   1.910
 1124SOL    MW4 4528   2.721   3.511   1.905
 1125SOL     OW 4529   2.962   3.622   1.980
 1125SOL    HW2 4530   2.964   3.606   2.074
 1125SOL    HW3 4531   3.034   3.570   1.945
 1125SOL    MW4 4532   2.972   3.613   1.987
 1126SOL     OW 4533   2.892   3.875   1.872
 1126SOL    HW2 4534   2.902   3.782   1.894
 1126SOL    HW3 4535   2.915   3.881   1.780
 1126SOL    MW4 4536   2.896   3.863   1.863
 1127SOL     OW 4537   2.687   4.007   1.989
 1127SOL    HW2 4538   2.752   3.955   1.942
 1127SOL    HW3 4539   2.603   3.977   1.954
 1127SOL    MW4 4540   2.684   3.996   1.978
 1128SOL     OW 4541   2.714   4.276   1.888
 1128SOL    HW2 4542   2.696   4.188   1.922
 1128SOL    HW3 4543   2.704   4.268   1.794
 1128SOL    MW4 4544   2.711   4.264   1.880
 1129SOL     OW 4545   2.944   4.407   1.943
 1129SOL    HW2 4546   2.952   4.419   2.037
 1129SOL    HW3 4547   2.856   4.372   1.930
 1129SOL    MW4 4548   2.934   4.404   1.953
 1130SOL     OW 4549   3.335   4.609   1.872
 1130SOL    HW2 4550   3.343   4.520   1.908
 1130SOL    HW3 4551   3.345   4.597   1.778
 1130SOL    MW4 4552   3.338   4.595   1.865
 1131SOL     OW 4553   3.131   0.103   1.971
 1131SOL    HW2 4554   3.136   0.114   2.066
 1131SOL    HW3 4555   3.202   0.043   1.950
 1131SOL    MW4 4556   3.141   0.097   1.981
 1132SOL     OW 4557   3.165   0.356   1.865
 1132SOL    HW2 4558   3.149   0.268   1.898
 1132SOL    HW3 4559   3.202   0.343   1.777
 1132SOL    MW4 4560   3.168   0.343   1.857
 1133SOL     OW 4561   3.376   0.482   2.005
 1133SOL    HW2 4562   3.457   0.440   1.975
 1133SOL    HW3 4563   3.306   0.425   1.975
 1133SOL    MW4 4564   3.378   0.469   1.997
 1134SOL     OW 4565   3.360   0.756   1.900
 1134SOL    HW2 4566   3.293   0.808   1.945
 1134SOL    HW3 4567   3.362   0.673   1.948
 1134SOL    MW4 4568   3.351   0.752   1.913
 1135SOL     OW 4569   3.171   0.939   2.005
 1135SOL    HW2 4570   3.151   0.974   2.092
 1135SOL    HW3 4571   3.164   1.014   1.946
 1135SOL    MW4 4572   3.167   0.954   2.009
 1136SOL     OW 4573   3.142   1.175   1.850
 1136SOL    HW2 4574   3.217   1.223   1.884
 1136SOL    HW3 4575   3.071   1.196   1.912
 1136SOL    MW4 4576   3.142   1.184   1.863
 1137SOL     OW 4577   3.382   1.323   1.922
 1137SOL    HW2 4578   3.395   1.328   2.017
 1137SOL    HW3 4579   3.376   1.415   1.895
 1137SOL    MW4 4580   3.383   1.336   1.931
 1138SOL     OW 4581   3.353   1.594   1.864
 1138SOL    HW2 4582   3.424   1.612   1.926
 1138SOL    HW3 4583   3.279   1.643   1.898
 1138SOL    MW4 4584   3.353   1.603   1.877
 1139SOL     OW 4585   3.101   1.707   1.962
 1139SOL    HW2 4586   3.113   1.698   2.057
 1139SOL    HW3 4587   3.095   1.802   1.949
 1139SOL    MW4 4588   3.102   1.719   1.973
 1140SOL     OW 4589   3.122   1.970   1.901
 1140SOL    HW2 4590   3.208   1.998   1.931
 1140SOL    HW3 4591   3.128   1.970   1.805
 1140SOL    MW4 4592   3.134   1.974   1.892
 1141SOL     OW 4593   3.367   2.043   1.993
 1141SOL    HW2 4594   3.442   1.995   1.958
 1141SOL    HW3 4595   3.373   2.130   1.954
 1141SOL    MW4 4596   3.378   2.048   1.983
 1142SOL     OW 4597   3.377   2.306   1.864
 1142SOL    HW2 4598   3.289   2.344   1.865
 1142SOL    HW3 4599   3.402   2.304   1.772
 1142SOL    MW4 4600   3.368   2.310   1.852
 1143SOL     OW 4601   3.139   2.432   1.919
 1143SOL    HW2 4602   3.140   2.454   2.012
 1143SOL    HW3 4603   3.142   2.516   1.874
 1143SOL    MW4 4604   3.139   2.446   1.925
 1144SOL     OW 4605   3.156   2.679   1.802
 1144SOL    HW2 4606   3.087   2.711   1.860
 1144SOL    HW3 4607   3.132   2.712   1.715
 1144SOL    MW4 4608   3.144   2.688   1.798
 1145SOL     OW 4609   3.364   2.814   1.934
 1145SOL    HW2 4610   3.345   2.811   2.028
 1145SOL    HW3 4611   3.293   2.763   1.894
 1145SOL    MW4 4612   3.352   2.807   1.941
 1146SOL     OW 4613   3.342   3.080   1.846
 1146SOL    HW2 4614   3.415   3.126   1.887
 1146SOL    HW3 4615   3.347   2.991   1.880
 1146SOL    MW4 4616   3.352   3.074   1.856
 1147SOL     OW 4617   3.158   3.232   1.975
 1147SOL    HW2 4618   3.148   3.314   1.926
 1147SOL    HW3 4619   3.224   3.184   1.927
 1147SOL    MW4 4620   3.165   3.237   1.962
 1148SOL     OW 4621   3.152   3.476   1.847
 1148SOL    HW2 4622   3.224   3.520   1.893
 1148SOL    HW3 4623   3.154   3.512   1.759
 1148SOL    MW4 4624   3.162   3.486   1.841
 1149SOL     OW 4625   3.359   3.614   1.987
 1149SOL    HW2 4626   3.436   3.575   1.945
 1149SOL    HW3 4627   3.359   3.705   1.959
 1149SOL    MW4 4628   3.369   3.621   1.978
 1150SOL     OW 4629   3.365   3.879   1.897
 1150SOL    HW2 4630   3.290   3.937   1.911
 1150SOL    HW3 4631   3.366   3.865   1.802
 1150SOL    MW4 4632   3.355   3.885   1.886
 1151SOL     OW 4633   3.110   4.010   1.977
 1151SOL    HW2 4634   3.129   4.000   2.071
 1151SOL    HW3 4635   3.036   3.952   1.961
 1151SOL    MW4 4636   3.103   4.001   1.988
 1152SOL     OW 4637   3.145   4.247   1.834
 1152SOL    HW2 4638   3.134   4.165   1.883
 1152SOL    HW3 4639   3.075   4.303   1.866
 1152SOL    MW4 4640   3.134   4.243   1.844
 1153SOL     OW 4641   3.339   4.362   1.981
 1153SOL    HW2 4642   3.413   4.331   1.928
 1153SOL    HW3 4643   3.262   4.329   1.935
 1153SOL    MW4 4644   3.339   4.353   1.968
 1154SOL     OW 4645   3.796   0.009   1.877
 1154SOL    HW2 4646   3.806  -0.080   1.912
 1154SOL    HW3 4647   3.712   0.038   1.912
 1154SOL    MW4 4648   3.786   0.001   1.886
 1155SOL     OW 4649   3.549   0.104   1.964
 1155SOL    HW2 4650   3.538   0.131   2.056
 1155SOL    HW3 4651   3.472   0.052   1.944
 1155SOL    MW4 4652   3.538   0.101   1.974
 1156SOL     OW 4653   3.604   0.352   1.899
 1156SOL    HW2 4654   3.592   0.260   1.924
 1156SOL    HW3 4655   3.607   0.350   1.803
 1156SOL    MW4 4656   3.603   0.340   1.889
 1157SOL     OW 4657   3.807   0.506   2.011
 1157SOL    HW2 4658   3.823   0.590   1.969
 1157SOL    HW3 4659   3.733   0.469   1.964
 1157SOL    MW4 4660   3.800   0.512   1.999
 1158SOL     OW 4661   3.847   0.770   1.890
 1158SOL    HW2 4662   3.757   0.789   1.915
 1158SOL    HW3 4663   3.844   0.760   1.794
 1158SOL    MW4 4664   3.835   0.771   1.880
 1159SOL     OW 4665   3.611   0.878   1.958
 1159SOL    HW2 4666   3.602   0.952   1.899
 1159SOL    HW3 4667   3.534   0.824   1.942
 1159SOL    MW4 4668   3.600   0.881   1.948
 1160SOL     OW 4669   3.596   1.148   1.849
 1160SOL    HW2 4670   3.527   1.203   1.887
 1160SOL    HW3 4671   3.605   1.179   1.759
 1160SOL    MW4 4672   3.588   1.159   1.842
 1161SOL     OW 4673   3.820   1.295   1.965
 1161SOL    HW2 4674   3.812   1.308   2.060
 1161SOL    HW3 4675   3.756   1.227   1.945
 1161SOL    MW4 4676   3.810   1.288   1.975
 1162SOL     OW 4677   3.821   1.555   1.889
 1162SOL    HW2 4678   3.885   1.613   1.931
 1162SOL    HW3 4679   3.849   1.467   1.912
 1162SOL    MW4 4680   3.833   1.551   1.898
 1163SOL     OW 4681   3.591   1.674   2.000
 1163SOL    HW2 4682   3.611   1.757   1.956
 1163SOL    HW3 4683   3.660   1.614   1.971
 1163SOL    MW4 4684   3.603   1.677   1.990
 1164SOL     OW 4685   3.604   1.915   1.875
 1164SOL    HW2 4686   3.677   1.965   1.912
 1164SOL    HW3 4687   3.629   1.899   1.784
 1164SOL    MW4 4688   3.617   1.919   1.868
 1165SOL     OW 4689   3.789   2.068   1.985
 1165SOL    HW2 4690   3.868   2.041   1.938
 1165SOL    HW3 4691   3.778   2.160   1.961
 1165SOL    MW4 4692   3.798   2.077   1.975
 1166SOL     OW 4693   3.809   2.340   1.914
 1166SOL    HW2 4694   3.886   2.385   1.947
 1166SOL    HW3 4695   3.738   2.403   1.924
 1166SOL    MW4 4696   3.809   2.354   1.920
 1167SOL     OW 4697   3.560   2.466   2.000
 1167SOL    HW2 4698   3.575   2.536   1.936
 1167SOL    HW3 4699   3.506   2.403   1.953
 1167SOL    MW4 4700   3.555   2.467   1.985
 1168SOL     OW 4701   3.605   2.706   1.860
 1168SOL    HW2 4702   3.674   2.757   1.902
 1168SOL    HW3 4703   3.524   2.749   1.886
 1168SOL    MW4 4704   3.604   2.718   1.869
 1169SOL     OW 4705   3.806   2.830   1.989
 1169SOL    HW2 4706   3.778   2.828   2.081
 1169SOL    HW3 4707   3.786   2.919   1.960
 1169SOL    MW4 4708   3.799   2.841   1.998
 1170SOL     OW 4709   3.790   3.083   1.890
 1170SOL    HW2 4710   3.712   3.135   1.912
 1170SOL    HW3 4711   3.799   3.091   1.796
 1170SOL    MW4 4712   3.781   3.091   1.881
 1171SOL     OW 4713   3.551   3.236   1.957
 1171SOL    HW2 4714   3.555   3.246   2.052
 1171SOL    HW3 4715   3.559   3.325   1.923
 1171SOL    MW4 4716   3.553   3.249   1.965
 1172SOL     OW 4717   3.576   3.492   1.861
 1172SOL    HW2 4718   3.647   3.542   1.900
 1172SOL    HW3 4719   3.583   3.510   1.767
 1172SOL    MW4 4720   3.586   3.501   1.854
 1173SOL     OW 4721   3.773   3.612   1.995
 1173SOL    HW2 4722   3.844   3.558   1.962
 1173SOL    HW3 4723   3.795   3.701   1.968
 1173SOL    MW4 4724   3.785   3.617   1.987
 1174SOL     OW 4725   3.821   3.850   1.876
 1174SOL    HW2 4726   3.741   3.900   1.891
 1174SOL    HW3 4727   3.832   3.850   1.781
 1174SOL    MW4 4728   3.812   3.857   1.865
 1175SOL     OW 4729   3.594   4.005   1.929
 1175SOL    HW2 4730   3.597   4.029   2.022
 1175SOL    HW3 4731   3.505   3.971   1.917
 1175SOL    MW4 4732   3.582   4.004   1.940
 1176SOL     OW 4733   3.562   4.272   1.851
 1176SOL    HW2 4734   3.635   4.317   1.895
 1176SOL    HW3 4735   3.570   4.181   1.879
 1176SOL    MW4 4736   3.573   4.266   1.861
 1177SOL     OW 4737   3.807   4.385   1.962
 1177SOL    HW2 4738   3.822   4.371   2.056
 1177SOL    HW3 4739   3.876   4.335   1.919
 1177SOL    MW4 4740   3.818   4.377   1.969
 1178SOL     OW 4741   4.263   4.659   1.874
 1178SOL    HW2 4742   4.193   4.697   1.927
 1178SOL    HW3 4743   4.340   4.712   1.893
 1178SOL    MW4 4744   4.264   4.671   1.884
 1179SOL     OW 4745   4.045   0.120   1.983
 1179SOL    HW2 4746   4.039   0.124   2.079
 1179SOL    HW3 4747   3.962   0.081   1.956
 1179SOL    MW4 4748   4.033   0.115   1.992
 1180SOL     OW 4749   4.013   0.382   1.848
 1180SOL    HW2 4750   4.015   0.293   1.882
 1180SOL    HW3 4751   3.968   0.433   1.915
 1180SOL    MW4 4752   4.008   0.377   1.861
 1181SOL     OW 4753   4.261   0.497   1.964
 1181SOL    HW2 4754   4.276   0.471   2.055
 1181SOL    HW3 4755   4.177   0.457   1.942
 1181SOL    MW4 4756   4.252   0.488   1.973
 1182SOL     OW 4757   4.286   0.745   1.896
 1182SOL    HW2 4758   4.281   0.653   1.923
 1182SOL    HW3 4759   4.294   0.741   1.801
 1182SOL    MW4 4760   4.286   0.732   1.887
 1183SOL     OW 4761   4.065   0.867   2.023
 1183SOL    HW2 4762   4.133   0.833   1.965
 1183SOL    HW3 4763   3.983   0.840   1.983
 1183SOL    MW4 4764   4.063   0.859   2.010
 1184SOL     OW 4765   4.035   1.159   1.909
 1184SOL    HW2 4766   4.024   1.078   1.959
 1184SOL    HW3 4767   3.961   1.214   1.935
 1184SOL    MW4 4768   4.024   1.155   1.919
 1185SOL     OW 4769   4.260   1.301   2.002
 1185SOL    HW2 4770   4.253   1.312   2.097
 1185SOL    HW3 4771   4.187   1.243   1.980
 1185SOL    MW4 4772   4.250   1.295   2.012
 1186SOL     OW 4773   4.249   1.564   1.905
 1186SOL    HW2 4774   4.263   1.480   1.947
 1186SOL    HW3 4775   4.263   1.547   1.812
 1186SOL    MW4 4776   4.253   1.551   1.898
 1187SOL     OW 4777   4.048   1.696   2.013
 1187SOL    HW2 4778   4.048   1.694   2.109
 1187SOL    HW3 4779   4.122   1.639   1.989
 1187SOL    MW4 4780   4.058   1.688   2.023
 1188SOL     OW 4781   4.024   1.947   1.867
 1188SOL    HW2 4782   4.019   1.860   1.906
 1188SOL    HW3 4783   4.044   1.931   1.775
 1188SOL    MW4 4784   4.026   1.934   1.860
 1189SOL     OW 4785   4.262   2.088   1.975
 1189SOL    HW2 4786   4.252   2.092   2.070
 1189SOL    HW3 4787   4.196   2.026   1.946
 1189SOL    MW4 4788   4.252   2.080   1.984
 1190SOL     OW 4789   4.262   2.349   1.864
 1190SOL    HW2 4790   4.265   2.261   1.903
 1190SOL    HW3 4791   4.341   2.392   1.896
 1190SOL    MW4 4792   4.273   2.343   1.874
 1191SOL     OW 4793   4.042   2.453   2.005
 1191SOL    HW2 4794   4.068   2.439   2.096
 1191SOL    HW3 4795   4.117   2.423   1.953
 1191SOL    MW4 4796   4.055   2.447   2.010
 1192SOL     OW 4797   4.049   2.720   1.917
 1192SOL    HW2 4798   4.041   2.630   1.949
 1192SOL    HW3 4799   3.967   2.762   1.942
 1192SOL    MW4 4800   4.037   2.714   1.925
 1193SOL     OW 4801   4.282   2.835   1.992
 1193SOL    HW2 4802   4.282   2.832   2.088
 1193SOL    HW3 4803   4.201   2.791   1.967
 1193SOL    MW4 4804   4.271   2.829   2.002
 1194SOL     OW 4805   4.243   3.088   1.896
 1194SOL    HW2 4806   4.171   3.122   1.950
 1194SOL    HW3 4807   4.250   2.996   1.920
 1194SOL    MW4 4808   4.234   3.080   1.906
 1195SOL     OW 4809   4.019   3.191   2.011
 1195SOL    HW2 4810   4.013   3.179   2.106
 1195SOL    HW3 4811   3.939   3.151   1.977
 1195SOL    MW4 4812   4.007   3.184   2.019
 1196SOL     OW 4813   3.992   3.471   1.901
 1196SOL    HW2 4814   4.078   3.509   1.917
 1196SOL    HW3 4815   4.000   3.381   1.931
 1196SOL    MW4 4816   4.005   3.464   1.907
 1197SOL     OW 4817   4.252   3.599   1.914
 1197SOL    HW2 4818   4.266   3.691   1.890
 1197SOL    HW3 4819   4.336   3.557   1.898
 1197SOL    MW4 4820   4.265   3.606   1.909
 1198SOL     OW 4821   4.265   3.864   1.860
 1198SOL    HW2 4822   4.342   3.912   1.892
 1198SOL    HW3 4823   4.269   3.872   1.765
 1198SOL    MW4 4824   4.276   3.871   1.852
 1199SOL     OW 4825   4.038   3.999   1.983
 1199SOL    HW2 4826   4.100   3.950   1.929
 1199SOL    HW3 4827   3.953   3.961   1.962
 1199SOL    MW4 4828   4.035   3.987   1.973
 1200SOL     OW 4829   4.027   4.264   1.861
 1200SOL    HW2 4830   4.110   4.309   1.877
 1200SOL    HW3 4831   4.041   4.175   1.894
 1200SOL    MW4 4832   4.040   4.258   1.867
 1201SOL     OW 4833   4.264   4.392   1.943
 1201SOL    HW2 4834   4.250   4.392   2.038
 1201SOL    HW3 4835   4.265   4.484   1.918
 1201SOL    MW4 4836   4.262   4.404   1.952
 1202SOL     OW 4837   0.201   4.635   2.337
 1202SOL    HW2 4838   0.203   4.650   2.432
 1202SOL    HW3 4839   0.267   4.695   2.302
 1202SOL    MW4 4840   0.210   4.645   2.345
 1203SOL     OW 4841   0.005   0.134   2.279
 1203SOL    HW2 4842   0.073   0.070   2.301
 1203SOL    HW3 4843  -0.006   0.126   2.184
 1203SOL    MW4 4844   0.012   0.124   2.269
 1204SOL     OW 4845   0.003   0.380   2.397
 1204SOL    HW2 4846   0.068   0.418   2.338
 1204SOL    HW3 4847   0.006   0.286   2.378
 1204SOL    MW4 4848   0.012   0.372   2.387
 1205SOL     OW 4849   0.197   0.524   2.221
 1205SOL    HW2 4850   0.278   0.476   2.235
 1205SOL    HW3 4851   0.190   0.535   2.126
 1205SOL    MW4 4852   0.206   0.519   2.211
 1206SOL     OW 4853   0.207   0.771   2.349
 1206SOL    HW2 4854   0.210   0.751   2.442
 1206SOL    HW3 4855   0.206   0.685   2.306
 1206SOL    MW4 4856   0.207   0.757   2.355
 1207SOL     OW 4857   4.448   0.906   2.295
 1207SOL    HW2 4858   4.532   0.867   2.318
 1207SOL    HW3 4859   4.455   0.923   2.201
 1207SOL    MW4 4860   4.460   0.903   2.285
 1208SOL     OW 4861   4.451   1.172   2.401
 1208SOL    HW2 4862   4.465   1.167   2.496
 1208SOL    HW3 4863   4.445   1.081   2.373
 1208SOL    MW4 4864   4.452   1.160   2.410
 1209SOL     OW 4865   0.192   1.244   2.276
 1209SOL    HW2 4866   0.105   1.224   2.310
 1209SOL    HW3 4867   0.179   1.264   2.183
 1209SOL    MW4 4868   0.179   1.244   2.268
 1210SOL     OW 4869   0.218   1.516   2.335
 1210SOL    HW2 4870   0.219   1.528   2.430
 1210SOL    HW3 4871   0.188   1.426   2.323
 1210SOL    MW4 4872   0.214   1.506   2.346
 1211SOL     OW 4873   0.017   1.664   2.225
 1211SOL    HW2 4874   0.011   1.745   2.275
 1211SOL    HW3 4875   0.097   1.622   2.257
 1211SOL    MW4 4876   0.027   1.669   2.236
 1212SOL     OW 4877   0.017   1.899   2.353
 1212SOL    HW2 4878  -0.056   1.951   2.321
 1212SOL    HW3 4879   0.095   1.951   2.333
 1212SOL    MW4 4880   0.018   1.912   2.347
 1213SOL     OW 4881   0.250   2.048   2.280
 1213SOL    HW2 4882   0.323   1.990   2.301
 1213SOL    HW3 4883   0.241   2.042   2.185
 1213SOL    MW4 4884   0.258   2.039   2.270
 1214SOL     OW 4885   0.238   2.333   2.336
 1214SOL    HW2 4886   0.222   2.335   2.431
 1214SOL    HW3 4887   0.255   2.241   2.317
 1214SOL    MW4 4888   0.238   2.321   2.346
 1215SOL     OW 4889   0.006   2.433   2.246
 1215SOL    HW2 4890   0.007   2.518   2.289
 1215SOL    HW3 4891   0.093   2.396   2.264
 1215SOL    MW4 4892   0.018   2.439   2.254
 1216SOL     OW 4893   4.486   2.658   2.365
 1216SOL    HW2 4894   4.464   2.658   2.458
 1216SOL    HW3 4895   4.568   2.707   2.360
 1216SOL    MW4 4896   4.494   2.665   2.377
 1217SOL     OW 4897   0.219   2.799   2.339
 1217SOL    HW2 4898   0.305   2.780   2.377
 1217SOL    HW3 4899   0.234   2.797   2.244
 1217SOL    MW4 4900   0.232   2.796   2.332
 1218SOL     OW 4901   0.237   3.081   2.360
 1218SOL    HW2 4902   0.149   3.119   2.354
 1218SOL    HW3 4903   0.223   2.987   2.352
 1218SOL    MW4 4904   0.224   3.074   2.358
 1219SOL     OW 4905   4.467   3.191   2.332
 1219SOL    HW2 4906   4.480   3.281   2.362
 1219SOL    HW3 4907   4.459   3.199   2.237
 1219SOL    MW4 4908   4.467   3.204   2.323
 1220SOL     OW 4909   4.477   3.497   2.358
 1220SOL    HW2 4910   4.468   3.505   2.453
 1220SOL    HW3 4911   4.402   3.546   2.323
 1220SOL    MW4 4912   4.466   3.505   2.366
 1221SOL     OW 4913   0.232   3.625   2.259
 1221SOL    HW2 4914   0.309   3.580   2.296
 1221SOL    HW3 4915   0.157   3.578   2.297
 1221SOL    MW4 4916   0.232   3.612   2.269
 1222SOL     OW 4917   0.191   3.860   2.386
 1222SOL    HW2 4918   0.115   3.892   2.336
 1222SOL    HW3 4919   0.218   3.780   2.341
 1222SOL    MW4 4920   0.184   3.854   2.374
 1223SOL     OW 4921   4.489   3.965   2.223
 1223SOL    HW2 4922   4.470   4.056   2.247
 1223SOL    HW3 4923   4.485   3.965   2.127
 1223SOL    MW4 4924   4.486   3.977   2.214
 1224SOL     OW 4925   4.453   4.227   2.357
 1224SOL    HW2 4926   4.431   4.248   2.448
 1224SOL    HW3 4927   4.531   4.281   2.338
 1224SOL    MW4 4928   4.461   4.237   2.366
 1225SOL     OW 4929   0.191   4.371   2.280
 1225SOL    HW2 4930   0.273   4.322   2.284
 1225SOL    HW3 4931   0.211   4.455   2.322
 1225SOL    MW4 4932   0.204   4.376   2.286
 1226SOL     OW 4933   0.658   4.664   2.305
 1226SOL    HW2 4934   0.651   4.651   2.400
 1226SOL    HW3 4935   0.747   4.697   2.292
 1226SOL    MW4 4936   0.669   4.667   2.316
 1227SOL     OW 4937   0.416   0.121   2.254
 1227SOL    HW2 4938   0.499   0.077   2.274
 1227SOL    HW3 4939   0.412   0.121   2.158
 1227SOL    MW4 4940   0.426   0.115   2.244
 1228SOL     OW 4941   0.421   0.387   2.308
 1228SOL    HW2 4942   0.425   0.396   2.403
 1228SOL    HW3 4943   0.423   0.293   2.292
 1228SOL    MW4 4944   0.421   0.376   2.319
 1229SOL     OW 4945   0.662   0.484   2.201
 1229SOL    HW2 4946   0.675   0.567   2.247
 1229SOL    HW3 4947   0.573   0.457   2.226
 1229SOL    MW4 4948   0.652   0.491   2.211
 1230SOL     OW 4949   0.672   0.749   2.329
 1230SOL    HW2 4950   0.665   0.740   2.424
 1230SOL    HW3 4951   0.593   0.796   2.303
 1230SOL    MW4 4952   0.661   0.754   2.338
 1231SOL     OW 4953   0.455   0.878   2.247
 1231SOL    HW2 4954   0.365   0.854   2.269
 1231SOL    HW3 4955   0.451   0.905   2.155
 1231SOL    MW4 4956   0.443   0.878   2.237
 1232SOL     OW 4957   0.435   1.142   2.395
 1232SOL    HW2 4958   0.436   1.056   2.352
 1232SOL    HW3 4959   0.363   1.189   2.353
 1232SOL    MW4 4960   0.426   1.137   2.384
 1233SOL     OW 4961   0.662   1.259   2.243
 1233SOL    HW2 4962   0.672   1.345   2.285
 1233SOL    HW3 4963   0.587   1.220   2.287
 1233SOL    MW4 4964   0.654   1.265   2.254
 1234SOL     OW 4965   0.713   1.511   2.385
 1234SOL    HW2 4966   0.705   1.518   2.480
 1234SOL    HW3 4967   0.767   1.586   2.360
 1234SOL    MW4 4968   0.719   1.522   2.394
 1235SOL     OW 4969   0.488   1.612   2.258
 1235SOL    HW2 4970   0.554   1.562   2.306
 1235SOL    HW3 4971   0.404   1.576   2.287
 1235SOL    MW4 4972   0.485   1.601   2.269
 1236SOL     OW 4973   0.460   1.868   2.342
 1236SOL    HW2 4974   0.527   1.919   2.296
 1236SOL    HW3 4975   0.477   1.778   2.317
 1236SOL    MW4 4976   0.471   1.863   2.333
 1237SOL     OW 4977   0.663   2.098   2.241
 1237SOL    HW2 4978   0.733   2.057   2.291
 1237SOL    HW3 4979   0.651   2.184   2.282
 1237SOL    MW4 4980   0.671   2.104   2.253
 1238SOL     OW 4981   0.666   2.341   2.371
 1238SOL    HW2 4982   0.684   2.340   2.465
 1238SOL    HW3 4983   0.739   2.392   2.334
 1238SOL    MW4 4984   0.678   2.348   2.378
 1239SOL     OW 4985   0.449   2.482   2.239
 1239SOL    HW2 4986   0.512   2.426   2.285
 1239SOL    HW3 4987   0.363   2.446   2.262
 1239SOL    MW4 4988   0.446   2.470   2.248
 1240SOL     OW 4989   0.484   2.719   2.377
 1240SOL    HW2 4990   0.490   2.703   2.471
 1240SOL    HW3 4991   0.459   2.635   2.339
 1240SOL    MW4 4992   0.481   2.706   2.384
 1241SOL     OW 4993   0.676   2.842   2.233
 1241SOL    HW2 4994   0.752   2.792   2.262
 1241SOL    HW3 4995   0.603   2.805   2.283
 1241SOL    MW4 4996   0.677   2.830   2.243
 1242SOL     OW 4997   0.690   3.087   2.406
 1242SOL    HW2 4998   0.610   3.129   2.375
 1242SOL    HW3 4999   0.695   3.005   2.357
 1242SOL    MW4 5000   0.680   3.082   2.396
 1243SOL     OW 5001   0.462   3.236   2.285
 1243SOL    HW2 5002   0.383   3.185   2.305
 1243SOL    HW3 5003   0.476   3.222   2.191
 1243SOL    MW4 5004   0.453   3.228   2.275
 1244SOL     OW 5005   0.444   3.492   2.387
 1244SOL    HW2 5006   0.520   3.546   2.362
 1244SOL    HW3 5007   0.463   3.406   2.349
 1244SOL    MW4 5008   0.457   3.488   2.379
 1245SOL     OW 5009   0.666   3.624   2.285
 1245SOL    HW2 5010   0.663   3.718   2.301
 1245SOL    HW3 5011   0.667   3.615   2.190
 1245SOL    MW4 5012   0.666   3.635   2.275
 1246SOL     OW 5013   0.644   3.885   2.357
 1246SOL    HW2 5014   0.644   3.881   2.452
 1246SOL    HW3 5015   0.565   3.934   2.335
 1246SOL    MW4 5016   0.633   3.891   2.366
 1247SOL     OW 5017   0.420   4.001   2.275
 1247SOL    HW2 5018   0.345   3.961   2.320
 1247SOL    HW3 5019   0.410   3.976   2.184
 1247SOL    MW4 5020   0.409   3.993   2.269
 1248SOL     OW 5021   0.440   4.266   2.327
 1248SOL    HW2 5022   0.516   4.301   2.281
 1248SOL    HW3 5023   0.443   4.172   2.312
 1248SOL    MW4 5024   0.450   4.258   2.319
 1249SOL     OW 5025   0.663   4.395   2.227
 1249SOL    HW2 5026   0.655   4.483   2.265
 1249SOL    HW3 5027   0.665   4.409   2.133
 1249SOL    MW4 5028   0.662   4.408   2.220
 1250SOL     OW 5029   1.144   4.626   2.376
 1250SOL    HW2 5030   1.155   4.632   2.471
 1250SOL    HW3 5031   1.062   4.672   2.358
 1250SOL    MW4 5032   1.135   4.633   2.386
 1251SOL     OW 5033   0.921   0.079   2.278
 1251SOL    HW2 5034   0.902   0.166   2.312
 1251SOL    HW3 5035   0.921   0.089   2.183
 1251SOL    MW4 5036   0.918   0.092   2.270
 1252SOL     OW 5037   0.856   0.339   2.341
 1252SOL    HW2 5038   0.928   0.391   2.304
 1252SOL    HW3 5039   0.777   0.374   2.300
 1252SOL    MW4 5040   0.855   0.350   2.331
 1253SOL     OW 5041   1.083   0.493   2.247
 1253SOL    HW2 5042   1.163   0.445   2.270
 1253SOL    HW3 5043   1.091   0.509   2.153
 1253SOL    MW4 5044   1.095   0.489   2.238
 1254SOL     OW 5045   1.132   0.765   2.375
 1254SOL    HW2 5046   1.052   0.807   2.343
 1254SOL    HW3 5047   1.115   0.672   2.366
 1254SOL    MW4 5048   1.119   0.759   2.369
 1255SOL     OW 5049   0.908   0.896   2.271
 1255SOL    HW2 5050   0.884   0.979   2.312
 1255SOL    HW3 5051   0.831   0.841   2.281
 1255SOL    MW4 5052   0.895   0.900   2.278
 1256SOL     OW 5053   0.875   1.147   2.372
 1256SOL    HW2 5054   0.945   1.201   2.338
 1256SOL    HW3 5055   0.796   1.181   2.330
 1256SOL    MW4 5056   0.873   1.159   2.362
 1257SOL     OW 5057   1.090   1.296   2.271
 1257SOL    HW2 5058   1.169   1.267   2.316
 1257SOL    HW3 5059   1.119   1.318   2.183
 1257SOL    MW4 5060   1.104   1.295   2.266
 1258SOL     OW 5061   1.098   1.556   2.370
 1258SOL    HW2 5062   1.019   1.604   2.348
 1258SOL    HW3 5063   1.080   1.465   2.345
 1258SOL    MW4 5064   1.085   1.550   2.364
 1259SOL     OW 5065   0.872   1.706   2.285
 1259SOL    HW2 5066   0.851   1.790   2.325
 1259SOL    HW3 5067   0.868   1.722   2.191
 1259SOL    MW4 5068   0.869   1.719   2.278
 1260SOL     OW 5069   0.870   1.970   2.368
 1260SOL    HW2 5070   0.871   1.978   2.463
 1260SOL    HW3 5071   0.951   2.011   2.339
 1260SOL    MW4 5072   0.880   1.977   2.376
 1261SOL     OW 5073   1.103   2.081   2.289
 1261SOL    HW2 5074   1.173   2.025   2.323
 1261SOL    HW3 5075   1.115   2.079   2.194
 1261SOL    MW4 5076   1.114   2.074   2.281
 1262SOL     OW 5077   1.097   2.359   2.347
 1262SOL    HW2 5078   1.183   2.399   2.330
 1262SOL    HW3 5079   1.105   2.270   2.313
 1262SOL    MW4 5080   1.110   2.353   2.340
 1263SOL     OW 5081   0.879   2.460   2.232
 1263SOL    HW2 5082   0.961   2.425   2.268
 1263SOL    HW3 5083   0.881   2.436   2.139
 1263SOL    MW4 5084   0.890   2.452   2.224
 1264SOL     OW 5085   0.907   2.715   2.349
 1264SOL    HW2 5086   0.903   2.716   2.445
 1264SOL    HW3 5087   0.894   2.623   2.325
 1264SOL    MW4 5088   0.904   2.703   2.358
 1265SOL     OW 5089   1.123   2.859   2.241
 1265SOL    HW2 5090   1.194   2.803   2.271
 1265SOL    HW3 5091   1.044   2.822   2.280
 1265SOL    MW4 5092   1.122   2.847   2.250
 1266SOL     OW 5093   1.154   3.109   2.386
 1266SOL    HW2 5094   1.078   3.144   2.341
 1266SOL    HW3 5095   1.169   3.023   2.347
 1266SOL    MW4 5096   1.146   3.103   2.375
 1267SOL     OW 5097   0.919   3.219   2.255
 1267SOL    HW2 5098   0.907   3.312   2.276
 1267SOL    HW3 5099   0.849   3.175   2.303
 1267SOL    MW4 5100   0.908   3.226   2.264
 1268SOL     OW 5101   0.903   3.494   2.349
 1268SOL    HW2 5102   0.908   3.485   2.444
 1268SOL    HW3 5103   0.817   3.535   2.334
 1268SOL    MW4 5104   0.892   3.499   2.359
 1269SOL     OW 5105   1.103   3.590   2.198
 1269SOL    HW2 5106   1.181   3.549   2.236
 1269SOL    HW3 5107   1.030   3.557   2.251
 1269SOL    MW4 5108   1.104   3.580   2.210
 1270SOL     OW 5109   1.090   3.848   2.310
 1270SOL    HW2 5110   1.174   3.885   2.281
 1270SOL    HW3 5111   1.090   3.759   2.275
 1270SOL    MW4 5112   1.101   3.842   2.301
 1271SOL     OW 5113   0.882   4.009   2.255
 1271SOL    HW2 5114   0.947   3.940   2.271
 1271SOL    HW3 5115   0.801   3.976   2.295
 1271SOL    MW4 5116   0.880   3.996   2.262
 1272SOL     OW 5117   0.872   4.259   2.358
 1272SOL    HW2 5118   0.878   4.175   2.311
 1272SOL    HW3 5119   0.809   4.310   2.307
 1272SOL    MW4 5120   0.864   4.254   2.345
 1273SOL     OW 5121   1.131   4.348   2.297
 1273SOL    HW2 5122   1.044   4.325   2.332
 1273SOL    HW3 5123   1.146   4.437   2.327
 1273SOL    MW4 5124   1.121   4.356   2.305
 1274SOL     OW 5125   1.516   4.654   2.362
 1274SOL    HW2 5126   1.596   4.689   2.321
 1274SOL    HW3 5127   1.445   4.694   2.312
 1274SOL    MW4 5128   1.517   4.664   2.350
 1275SOL     OW 5129   1.313   0.136   2.259
 1275SOL    HW2 5130   1.308   0.215   2.311
 1275SOL    HW3 5131   1.260   0.072   2.307
 1275SOL    MW4 5132   1.305   0.138   2.272
 1276SOL     OW 5133   1.310   0.383   2.368
 1276SOL    HW2 5134   1.306   0.368   2.463
 1276SOL    HW3 5135   1.396   0.423   2.354
 1276SOL    MW4 5136   1.321   0.386   2.379
 1277SOL     OW 5137   1.540   0.514   2.316
 1277SOL    HW2 5138   1.625   0.474   2.335
 1277SOL    HW3 5139   1.534   0.511   2.220
 1277SOL    MW4 5140   1.551   0.508   2.305
 1278SOL     OW 5141   1.551   0.779   2.371
 1278SOL    HW2 5142   1.629   0.814   2.328
 1278SOL    HW3 5143   1.554   0.685   2.355
 1278SOL    MW4 5144   1.562   0.771   2.364
 1279SOL     OW 5145   1.342   0.915   2.271
 1279SOL    HW2 5146   1.423   0.873   2.300
 1279SOL    HW3 5147   1.273   0.855   2.298
 1279SOL    MW4 5148   1.344   0.901   2.278
 1280SOL     OW 5149   1.316   1.175   2.382
 1280SOL    HW2 5150   1.330   1.152   2.473
 1280SOL    HW3 5151   1.297   1.092   2.338
 1280SOL    MW4 5152   1.316   1.161   2.388
 1281SOL     OW 5153   1.564   1.275   2.293
 1281SOL    HW2 5154   1.494   1.230   2.339
 1281SOL    HW3 5155   1.541   1.267   2.200
 1281SOL    MW4 5156   1.552   1.268   2.287
 1282SOL     OW 5157   1.545   1.554   2.385
 1282SOL    HW2 5158   1.629   1.586   2.351
 1282SOL    HW3 5159   1.536   1.466   2.347
 1282SOL    MW4 5160   1.555   1.546   2.376
 1283SOL     OW 5161   1.340   1.667   2.257
 1283SOL    HW2 5162   1.413   1.622   2.300
 1283SOL    HW3 5163   1.261   1.628   2.297
 1283SOL    MW4 5164   1.339   1.656   2.268
 1284SOL     OW 5165   1.310   1.920   2.382
 1284SOL    HW2 5166   1.380   1.979   2.354
 1284SOL    HW3 5167   1.331   1.837   2.341
 1284SOL    MW4 5168   1.322   1.917   2.373
 1285SOL     OW 5169   1.532   2.095   2.303
 1285SOL    HW2 5170   1.593   2.032   2.341
 1285SOL    HW3 5171   1.541   2.082   2.208
 1285SOL    MW4 5172   1.541   2.085   2.296
 1286SOL     OW 5173   1.557   2.361   2.366
 1286SOL    HW2 5174   1.535   2.366   2.460
 1286SOL    HW3 5175   1.553   2.268   2.346
 1286SOL    MW4 5176   1.554   2.350   2.376
 1287SOL     OW 5177   1.351   2.455   2.235
 1287SOL    HW2 5178   1.430   2.427   2.282
 1287SOL    HW3 5179   1.369   2.434   2.143
 1287SOL    MW4 5180   1.364   2.449   2.229
 1288SOL     OW 5181   1.343   2.719   2.327
 1288SOL    HW2 5182   1.414   2.759   2.277
 1288SOL    HW3 5183   1.328   2.635   2.285
 1288SOL    MW4 5184   1.350   2.714   2.315
 1289SOL     OW 5185   1.571   2.837   2.205
 1289SOL    HW2 5186   1.568   2.927   2.238
 1289SOL    HW3 5187   1.566   2.846   2.110
 1289SOL    MW4 5188   1.570   2.850   2.197
 1290SOL     OW 5189   1.566   3.084   2.332
 1290SOL    HW2 5190   1.562   3.075   2.427
 1290SOL    HW3 5191   1.491   3.140   2.311
 1290SOL    MW4 5192   1.556   3.091   2.342
 1291SOL     OW 5193   1.355   3.254   2.250
 1291SOL    HW2 5194   1.294   3.198   2.298
 1291SOL    HW3 5195   1.334   3.239   2.158
 1291SOL    MW4 5196   1.344   3.245   2.244
 1292SOL     OW 5197   1.328   3.486   2.363
 1292SOL    HW2 5198   1.329   3.464   2.456
 1292SOL    HW3 5199   1.330   3.401   2.319
 1292SOL    MW4 5200   1.328   3.472   2.370
 1293SOL     OW 5201   1.555   3.602   2.261
 1293SOL    HW2 5202   1.557   3.694   2.290
 1293SOL    HW3 5203   1.481   3.564   2.309
 1293SOL    MW4 5204   1.546   3.609   2.271
 1294SOL     OW 5205   1.551   3.866   2.360
 1294SOL    HW2 5206   1.543   3.883   2.454
 1294SOL    HW3 5207   1.635   3.906   2.335
 1294SOL    MW4 5208   1.561   3.874   2.369
 1295SOL     OW 5209   1.327   3.991   2.240
 1295SOL    HW2 5210   1.396   3.928   2.260
 1295SOL    HW3 5211   1.326   3.997   2.144
 1295SOL    MW4 5212   1.336   3.984   2.230
 1296SOL     OW 5213   1.359   4.229   2.366
 1296SOL    HW2 5214   1.358   4.143   2.324
 1296SOL    HW3 5215   1.278   4.271   2.336
 1296SOL    MW4 5216   1.348   4.223   2.356
 1297SOL     OW 5217   1.573   4.380   2.255
 1297SOL    HW2 5218   1.507   4.321   2.290
 1297SOL    HW3 5219   1.557   4.463   2.301
 1297SOL    MW4 5220   1.562   4.383   2.266
 1298SOL     OW 5221   1.992   4.655   2.334
 1298SOL    HW2 5222   2.077   4.695   2.311
 1298SOL    HW3 5223   2.005   4.561   2.321
 1298SOL    MW4 5224   2.005   4.648   2.329
 1299SOL     OW 5225   1.755   0.112   2.251
 1299SOL    HW2 5226   1.769   0.199   2.286
 1299SOL    HW3 5227   1.834   0.063   2.274
 1299SOL    MW4 5228   1.768   0.117   2.258
 1300SOL     OW 5229   1.786   0.366   2.365
 1300SOL    HW2 5230   1.799   0.350   2.459
 1300SOL    HW3 5231   1.865   0.413   2.338
 1300SOL    MW4 5232   1.799   0.370   2.374
 1301SOL     OW 5233   2.008   0.491   2.302
 1301SOL    HW2 5234   2.013   0.582   2.329
 1301SOL    HW3 5235   1.998   0.495   2.206
 1301SOL    MW4 5236   2.007   0.503   2.293
 1302SOL     OW 5237   2.001   0.763   2.371
 1302SOL    HW2 5238   2.077   0.810   2.336
 1302SOL    HW3 5239   1.926   0.816   2.343
 1302SOL    MW4 5240   2.001   0.776   2.363
 1303SOL     OW 5241   1.777   0.903   2.290
 1303SOL    HW2 5242   1.778   0.995   2.318
 1303SOL    HW3 5243   1.772   0.908   2.194
 1303SOL    MW4 5244   1.777   0.916   2.281
 1304SOL     OW 5245   1.811   1.164   2.386
 1304SOL    HW2 5246   1.878   1.205   2.330
 1304SOL    HW3 5247   1.728   1.199   2.354
 1304SOL    MW4 5248   1.809   1.174   2.374
 1305SOL     OW 5249   2.021   1.321   2.272
 1305SOL    HW2 5250   2.042   1.412   2.294
 1305SOL    HW3 5251   2.047   1.311   2.181
 1305SOL    MW4 5252   2.027   1.332   2.263
 1306SOL     OW 5253   2.047   1.586   2.380
 1306SOL    HW2 5254   2.053   1.562   2.473
 1306SOL    HW3 5255   1.958   1.620   2.369
 1306SOL    MW4 5256   2.036   1.587   2.391
 1307SOL     OW 5257   1.795   1.680   2.315
 1307SOL    HW2 5258   1.766   1.764   2.351
 1307SOL    HW3 5259   1.781   1.688   2.221
 1307SOL    MW4 5260   1.790   1.692   2.307
 1308SOL     OW 5261   1.747   1.945   2.406
 1308SOL    HW2 5262   1.774   1.967   2.495
 1308SOL    HW3 5263   1.810   1.990   2.350
 1308SOL    MW4 5264   1.759   1.954   2.410
 1309SOL     OW 5265   1.958   2.091   2.273
 1309SOL    HW2 5266   2.045   2.083   2.311
 1309SOL    HW3 5267   1.973   2.085   2.179
 1309SOL    MW4 5268   1.972   2.089   2.265
 1310SOL     OW 5269   1.980   2.364   2.334
 1310SOL    HW2 5270   2.054   2.384   2.277
 1310SOL    HW3 5271   1.960   2.272   2.317
 1310SOL    MW4 5272   1.987   2.355   2.325
 1311SOL     OW 5273   1.754   2.468   2.221
 1311SOL    HW2 5274   1.835   2.430   2.256
 1311SOL    HW3 5275   1.684   2.424   2.269
 1311SOL    MW4 5276   1.756   2.457   2.232
 1312SOL     OW 5277   1.759   2.734   2.346
 1312SOL    HW2 5278   1.772   2.644   2.317
 1312SOL    HW3 5279   1.684   2.765   2.297
 1312SOL    MW4 5280   1.751   2.726   2.336
 1313SOL     OW 5281   1.983   2.849   2.228
 1313SOL    HW2 5282   2.059   2.809   2.269
 1313SOL    HW3 5283   1.908   2.808   2.271
 1313SOL    MW4 5284   1.983   2.838   2.239
 1314SOL     OW 5285   2.018   3.092   2.368
 1314SOL    HW2 5286   2.070   3.154   2.317
 1314SOL    HW3 5287   2.004   3.019   2.309
 1314SOL    MW4 5288   2.023   3.091   2.353
 1315SOL     OW 5289   1.801   3.204   2.223
 1315SOL    HW2 5290   1.869   3.177   2.285
 1315SOL    HW3 5291   1.723   3.156   2.250
 1315SOL    MW4 5292   1.800   3.194   2.235
 1316SOL     OW 5293   1.781   3.481   2.321
 1316SOL    HW2 5294   1.770   3.390   2.294
 1316SOL    HW3 5295   1.697   3.522   2.303
 1316SOL    MW4 5296   1.769   3.474   2.315
 1317SOL     OW 5297   2.022   3.612   2.259
 1317SOL    HW2 5298   1.938   3.568   2.271
 1317SOL    HW3 5299   2.048   3.591   2.170
 1317SOL    MW4 5300   2.014   3.604   2.249
 1318SOL     OW 5301   2.009   3.867   2.389
 1318SOL    HW2 5302   2.013   3.858   2.484
 1318SOL    HW3 5303   2.014   3.778   2.356
 1318SOL    MW4 5304   2.010   3.854   2.397
 1319SOL     OW 5305   1.778   3.980   2.273
 1319SOL    HW2 5306   1.858   3.947   2.314
 1319SOL    HW3 5307   1.798   3.977   2.179
 1319SOL    MW4 5308   1.791   3.975   2.266
 1320SOL     OW 5309   1.782   4.235   2.385
 1320SOL    HW2 5310   1.764   4.150   2.346
 1320SOL    HW3 5311   1.713   4.293   2.352
 1320SOL    MW4 5312   1.771   4.232   2.376
 1321SOL     OW 5313   2.004   4.370   2.286
 1321SOL    HW2 5314   1.934   4.316   2.322
 1321SOL    HW3 5315   1.985   4.376   2.193
 1321SOL    MW4 5316   1.992   4.364   2.279
 1322SOL     OW 5317   2.472   0.003   2.338
 1322SOL    HW2 5318   2.556   0.033   2.302
 1322SOL    HW3 5319   2.469  -0.090   2.316
 1322SOL    MW4 5320   2.483  -0.006   2.330
 1323SOL     OW 5321   2.244   0.107   2.242
 1323SOL    HW2 5322   2.236   0.187   2.294
 1323SOL    HW3 5323   2.326   0.068   2.270
 1323SOL    MW4 5324   2.254   0.113   2.252
 1324SOL     OW 5325   2.233   0.348   2.361
 1324SOL    HW2 5326   2.306   0.396   2.322
 1324SOL    HW3 5327   2.155   0.397   2.336
 1324SOL    MW4 5328   2.232   0.361   2.353
 1325SOL     OW 5329   2.440   0.490   2.273
 1325SOL    HW2 5330   2.521   0.446   2.299
 1325SOL    HW3 5331   2.447   0.499   2.178
 1325SOL    MW4 5332   2.452   0.485   2.264
 1326SOL     OW 5333   2.436   0.766   2.324
 1326SOL    HW2 5334   2.512   0.811   2.287
 1326SOL    HW3 5335   2.457   0.673   2.318
 1326SOL    MW4 5336   2.449   0.760   2.318
 1327SOL     OW 5337   2.206   0.884   2.256
 1327SOL    HW2 5338   2.214   0.974   2.288
 1327SOL    HW3 5339   2.283   0.840   2.291
 1327SOL    MW4 5340   2.217   0.890   2.265
 1328SOL     OW 5341   2.256   1.149   2.366
 1328SOL    HW2 5342   2.336   1.190   2.334
 1328SOL    HW3 5343   2.186   1.211   2.344
 1328SOL    MW4 5344   2.257   1.163   2.359
 1329SOL     OW 5345   2.480   1.280   2.279
 1329SOL    HW2 5346   2.561   1.246   2.318
 1329SOL    HW3 5347   2.472   1.369   2.314
 1329SOL    MW4 5348   2.490   1.287   2.289
 1330SOL     OW 5349   2.442   1.562   2.358
 1330SOL    HW2 5350   2.445   1.557   2.453
 1330SOL    HW3 5351   2.522   1.610   2.334
 1330SOL    MW4 5352   2.453   1.568   2.367
 1331SOL     OW 5353   2.237   1.744   2.250
 1331SOL    HW2 5354   2.318   1.712   2.288
 1331SOL    HW3 5355   2.168   1.696   2.296
 1331SOL    MW4 5356   2.238   1.734   2.261
 1332SOL     OW 5357   2.218   1.982   2.366
 1332SOL    HW2 5358   2.285   2.031   2.319
 1332SOL    HW3 5359   2.207   1.902   2.316
 1332SOL    MW4 5360   2.225   1.978   2.353
 1333SOL     OW 5361   2.438   2.098   2.236
 1333SOL    HW2 5362   2.504   2.043   2.279
 1333SOL    HW3 5363   2.454   2.084   2.142
 1333SOL    MW4 5364   2.449   2.089   2.229
 1334SOL     OW 5365   2.432   2.335   2.353
 1334SOL    HW2 5366   2.508   2.381   2.317
 1334SOL    HW3 5367   2.423   2.256   2.300
 1334SOL    MW4 5368   2.440   2.331   2.341
 1335SOL     OW 5369   2.214   2.455   2.212
 1335SOL    HW2 5370   2.198   2.537   2.258
 1335SOL    HW3 5371   2.295   2.421   2.249
 1335SOL    MW4 5372   2.222   2.461   2.223
 1336SOL     OW 5373   2.190   2.703   2.351
 1336SOL    HW2 5374   2.210   2.689   2.444
 1336SOL    HW3 5375   2.266   2.748   2.316
 1336SOL    MW4 5376   2.203   2.707   2.359
 1337SOL     OW 5377   2.412   2.848   2.232
 1337SOL    HW2 5378   2.494   2.818   2.270
 1337SOL    HW3 5379   2.432   2.863   2.139
 1337SOL    MW4 5380   2.425   2.846   2.225
 1338SOL     OW 5381   2.404   3.113   2.330
 1338SOL    HW2 5382   2.484   3.159   2.303
 1338SOL    HW3 5383   2.403   3.033   2.276
 1338SOL    MW4 5384   2.414   3.109   2.319
 1339SOL     OW 5385   2.186   3.280   2.242
 1339SOL    HW2 5386   2.208   3.369   2.268
 1339SOL    HW3 5387   2.255   3.226   2.282
 1339SOL    MW4 5388   2.198   3.284   2.251
 1340SOL     OW 5389   2.282   3.517   2.334
 1340SOL    HW2 5390   2.283   3.499   2.428
 1340SOL    HW3 5391   2.200   3.564   2.319
 1340SOL    MW4 5392   2.271   3.521   2.344
 1341SOL     OW 5393   2.481   3.650   2.206
 1341SOL    HW2 5394   2.482   3.740   2.239
 1341SOL    HW3 5395   2.413   3.607   2.258
 1341SOL    MW4 5396   2.472   3.656   2.217
 1342SOL     OW 5397   2.478   3.888   2.339
 1342SOL    HW2 5398   2.467   3.894   2.434
 1342SOL    HW3 5399   2.414   3.949   2.303
 1342SOL    MW4 5400   2.468   3.897   2.347
 1343SOL     OW 5401   2.262   4.035   2.255
 1343SOL    HW2 5402   2.256   4.119   2.300
 1343SOL    HW3 5403   2.201   3.978   2.300
 1343SOL    MW4 5404   2.253   4.038   2.267
 1344SOL     OW 5405   2.249   4.300   2.350
 1344SOL    HW2 5406   2.243   4.301   2.446
 1344SOL    HW3 5407   2.164   4.332   2.320
 1344SOL    MW4 5408   2.237   4.304   2.359
 1345SOL     OW 5409   2.480   4.420   2.235
 1345SOL    HW2 5410   2.556   4.377   2.274
 1345SOL    HW3 5411   2.405   4.379   2.276
 1345SOL    MW4 5412   2.480   4.409   2.245
 1346SOL     OW 5413   2.954   4.657   2.367
 1346SOL    HW2 5414   3.026   4.703   2.323
 1346SOL    HW3 5415   2.963   4.566   2.340
 1346SOL    MW4 5416   2.964   4.651   2.358
 1347SOL     OW 5417   2.714   0.107   2.278
 1347SOL    HW2 5418   2.714   0.200   2.301
 1347SOL    HW3 5419   2.793   0.072   2.318
 1347SOL    MW4 5420   2.724   0.114   2.287
 1348SOL     OW 5421   2.693   0.396   2.345
 1348SOL    HW2 5422   2.703   0.421   2.436
 1348SOL    HW3 5423   2.762   0.444   2.299
 1348SOL    MW4 5424   2.704   0.405   2.351
 1349SOL     OW 5425   2.901   0.504   2.204
 1349SOL    HW2 5426   2.909   0.597   2.225
 1349SOL    HW3 5427   2.909   0.500   2.109
 1349SOL    MW4 5428   2.903   0.515   2.195
 1350SOL     OW 5429   2.900   0.757   2.335
 1350SOL    HW2 5430   2.906   0.760   2.431
 1350SOL    HW3 5431   2.833   0.823   2.314
 1350SOL    MW4 5432   2.892   0.766   2.345
 1351SOL     OW 5433   2.682   0.918   2.274
 1351SOL    HW2 5434   2.689   1.002   2.319
 1351SOL    HW3 5435   2.688   0.940   2.181
 1351SOL    MW4 5436   2.683   0.932   2.267
 1352SOL     OW 5437   2.707   1.181   2.379
 1352SOL    HW2 5438   2.704   1.184   2.474
 1352SOL    HW3 5439   2.791   1.222   2.356
 1352SOL    MW4 5440   2.718   1.187   2.388
 1353SOL     OW 5441   2.924   1.314   2.273
 1353SOL    HW2 5442   3.016   1.301   2.298
 1353SOL    HW3 5443   2.926   1.313   2.177
 1353SOL    MW4 5444   2.937   1.312   2.264
 1354SOL     OW 5445   2.925   1.575   2.382
 1354SOL    HW2 5446   2.940   1.564   2.476
 1354SOL    HW3 5447   2.935   1.488   2.345
 1354SOL    MW4 5448   2.928   1.562   2.389
 1355SOL     OW 5449   2.667   1.701   2.286
 1355SOL    HW2 5450   2.749   1.657   2.308
 1355SOL    HW3 5451   2.662   1.698   2.191
 1355SOL    MW4 5452   2.677   1.695   2.277
 1356SOL     OW 5453   2.669   1.969   2.346
 1356SOL    HW2 5454   2.666   1.970   2.442
 1356SOL    HW3 5455   2.667   1.876   2.323
 1356SOL    MW4 5456   2.669   1.957   2.356
 1357SOL     OW 5457   2.897   2.093   2.252
 1357SOL    HW2 5458   2.963   2.032   2.285
 1357SOL    HW3 5459   2.814   2.059   2.285
 1357SOL    MW4 5460   2.895   2.081   2.261
 1358SOL     OW 5461   2.907   2.377   2.296
 1358SOL    HW2 5462   2.905   2.360   2.390
 1358SOL    HW3 5463   2.907   2.290   2.256
 1358SOL    MW4 5464   2.907   2.363   2.303
 1359SOL     OW 5465   2.652   2.475   2.244
 1359SOL    HW2 5466   2.735   2.434   2.270
 1359SOL    HW3 5467   2.651   2.469   2.148
 1359SOL    MW4 5468   2.663   2.469   2.235
 1360SOL     OW 5469   2.638   2.731   2.342
 1360SOL    HW2 5470   2.720   2.776   2.320
 1360SOL    HW3 5471   2.645   2.645   2.300
 1360SOL    MW4 5472   2.650   2.726   2.334
 1361SOL     OW 5473   2.892   2.839   2.252
 1361SOL    HW2 5474   2.884   2.929   2.283
 1361SOL    HW3 5475   2.927   2.848   2.163
 1361SOL    MW4 5476   2.896   2.852   2.244
 1362SOL     OW 5477   2.887   3.113   2.371
 1362SOL    HW2 5478   2.966   3.163   2.352
 1362SOL    HW3 5479   2.816   3.162   2.329
 1362SOL    MW4 5480   2.888   3.126   2.363
 1363SOL     OW 5481   2.662   3.219   2.237
 1363SOL    HW2 5482   2.656   3.312   2.256
 1363SOL    HW3 5483   2.682   3.215   2.143
 1363SOL    MW4 5484   2.664   3.231   2.227
 1364SOL     OW 5485   2.678   3.473   2.321
 1364SOL    HW2 5486   2.760   3.518   2.303
 1364SOL    HW3 5487   2.610   3.536   2.297
 1364SOL    MW4 5488   2.680   3.487   2.316
 1365SOL     OW 5489   2.915   3.620   2.261
 1365SOL    HW2 5490   2.995   3.577   2.292
 1365SOL    HW3 5491   2.923   3.710   2.294
 1365SOL    MW4 5492   2.927   3.626   2.270
 1366SOL     OW 5493   2.923   3.884   2.357
 1366SOL    HW2 5494   2.909   3.866   2.450
 1366SOL    HW3 5495   2.847   3.935   2.330
 1366SOL    MW4 5496   2.911   3.888   2.366
 1367SOL     OW 5497   2.713   4.038   2.261
 1367SOL    HW2 5498   2.640   3.988   2.296
 1367SOL    HW3 5499   2.703   4.032   2.166
 1367SOL    MW4 5500   2.702   4.031   2.253
 1368SOL     OW 5501   2.664   4.281   2.385
 1368SOL    HW2 5502   2.671   4.257   2.477
 1368SOL    HW3 5503   2.694   4.203   2.337
 1368SOL    MW4 5504   2.669   4.267   2.391
 1369SOL     OW 5505   2.929   4.379   2.261
 1369SOL    HW2 5506   3.008   4.335   2.294
 1369SOL    HW3 5507   2.857   4.338   2.309
 1369SOL    MW4 5508   2.930   4.368   2.272
 1370SOL     OW 5509   3.370   4.646   2.358
 1370SOL    HW2 5510   3.378   4.650   2.453
 1370SOL    HW3 5511   3.447   4.693   2.325
 1370SOL    MW4 5512   3.381   4.653   2.366
 1371SOL     OW 5513   3.161   0.150   2.237
 1371SOL    HW2 5514   3.157   0.228   2.291
 1371SOL    HW3 5515   3.228   0.096   2.277
 1371SOL    MW4 5516   3.169   0.153   2.249
 1372SOL     OW 5517   3.144   0.397   2.346
 1372SOL    HW2 5518   3.225   0.443   2.324
 1372SOL    HW3 5519   3.076   0.441   2.296
 1372SOL    MW4 5520   3.146   0.409   2.337
 1373SOL     OW 5521   3.379   0.557   2.264
 1373SOL    HW2 5522   3.449   0.501   2.298
 1373SOL    HW3 5523   3.376   0.537   2.171
 1373SOL    MW4 5524   3.388   0.547   2.257
 1374SOL     OW 5525   3.357   0.813   2.355
 1374SOL    HW2 5526   3.433   0.859   2.320
 1374SOL    HW3 5527   3.365   0.724   2.322
 1374SOL    MW4 5528   3.368   0.808   2.346
 1375SOL     OW 5529   3.097   0.947   2.283
 1375SOL    HW2 5530   3.180   0.914   2.316
 1375SOL    HW3 5531   3.031   0.891   2.326
 1375SOL    MW4 5532   3.099   0.935   2.293
 1376SOL     OW 5533   3.174   1.234   2.349
 1376SOL    HW2 5534   3.247   1.256   2.291
 1376SOL    HW3 5535   3.166   1.139   2.343
 1376SOL    MW4 5536   3.183   1.224   2.341
 1377SOL     OW 5537   3.397   1.346   2.205
 1377SOL    HW2 5538   3.476   1.304   2.238
 1377SOL    HW3 5539   3.396   1.432   2.247
 1377SOL    MW4 5540   3.407   1.352   2.215
 1378SOL     OW 5541   3.374   1.572   2.330
 1378SOL    HW2 5542   3.355   1.564   2.423
 1378SOL    HW3 5543   3.299   1.617   2.293
 1378SOL    MW4 5544   3.362   1.577   2.337
 1379SOL     OW 5545   3.146   1.686   2.246
 1379SOL    HW2 5546   3.145   1.774   2.285
 1379SOL    HW3 5547   3.076   1.639   2.291
 1379SOL    MW4 5548   3.137   1.691   2.257
 1380SOL     OW 5549   3.104   1.948   2.351
 1380SOL    HW2 5550   3.106   1.953   2.447
 1380SOL    HW3 5551   3.189   1.983   2.324
 1380SOL    MW4 5552   3.116   1.954   2.360
 1381SOL     OW 5553   3.365   2.085   2.263
 1381SOL    HW2 5554   3.441   2.044   2.304
 1381SOL    HW3 5555   3.373   2.064   2.170
 1381SOL    MW4 5556   3.376   2.077   2.256
 1382SOL     OW 5557   3.337   2.353   2.344
 1382SOL    HW2 5558   3.282   2.394   2.277
 1382SOL    HW3 5559   3.347   2.262   2.314
 1382SOL    MW4 5560   3.331   2.346   2.331
 1383SOL     OW 5561   3.140   2.494   2.178
 1383SOL    HW2 5562   3.145   2.581   2.218
 1383SOL    HW3 5563   3.062   2.454   2.216
 1383SOL    MW4 5564   3.130   2.500   2.188
 1384SOL     OW 5565   3.136   2.746   2.327
 1384SOL    HW2 5566   3.140   2.732   2.422
 1384SOL    HW3 5567   3.047   2.776   2.310
 1384SOL    MW4 5568   3.125   2.748   2.337
 1385SOL     OW 5569   3.390   2.848   2.225
 1385SOL    HW2 5570   3.393   2.937   2.260
 1385SOL    HW3 5571   3.310   2.810   2.263
 1385SOL    MW4 5572   3.380   2.855   2.235
 1386SOL     OW 5573   3.388   3.091   2.333
 1386SOL    HW2 5574   3.460   3.144   2.299
 1386SOL    HW3 5575   3.311   3.148   2.328
 1386SOL    MW4 5576   3.387   3.105   2.328
 1387SOL     OW 5577   3.141   3.225   2.253
 1387SOL    HW2 5578   3.138   3.318   2.274
 1387SOL    HW3 5579   3.162   3.221   2.160
 1387SOL    MW4 5580   3.143   3.236   2.243
 1388SOL     OW 5581   3.132   3.488   2.336
 1388SOL    HW2 5582   3.150   3.486   2.430
 1388SOL    HW3 5583   3.201   3.543   2.300
 1388SOL    MW4 5584   3.143   3.495   2.344
 1389SOL     OW 5585   3.336   3.631   2.264
 1389SOL    HW2 5586   3.404   3.577   2.305
 1389SOL    HW3 5587   3.341   3.609   2.171
 1389SOL    MW4 5588   3.346   3.621   2.257
 1390SOL     OW 5589   3.407   3.884   2.348
 1390SOL    HW2 5590   3.469   3.925   2.288
 1390SOL    HW3 5591   3.389   3.799   2.310
 1390SOL    MW4 5592   3.413   3.878   2.335
 1391SOL     OW 5593   3.166   3.979   2.250
 1391SOL    HW2 5594   3.244   3.945   2.294
 1391SOL    HW3 5595   3.093   3.942   2.300
 1391SOL    MW4 5596   3.167   3.969   2.263
 1392SOL     OW 5597   3.147   4.246   2.344
 1392SOL    HW2 5598   3.231   4.286   2.323
 1392SOL    HW3 5599   3.158   4.153   2.325
 1392SOL    MW4 5600   3.159   4.239   2.339
 1393SOL     OW 5601   3.373   4.384   2.271
 1393SOL    HW2 5602   3.364   4.474   2.305
 1393SOL    HW3 5603   3.353   4.392   2.178
 1393SOL    MW4 5604   3.369   4.397   2.263
 1394SOL     OW 5605   3.774   4.621   2.361
 1394SOL    HW2 5606   3.781   4.622   2.456
 1394SOL    HW3 5607   3.857   4.659   2.331
 1394SOL    MW4 5608   3.786   4.626   2.370
 1395SOL     OW 5609   3.575   0.134   2.238
 1395SOL    HW2 5610   3.593   0.224   2.265
 1395SOL    HW3 5611   3.651   0.084   2.269
 1395SOL    MW4 5612   3.588   0.139   2.246
 1396SOL     OW 5613   3.591   0.390   2.347
 1396SOL    HW2 5614   3.607   0.365   2.438
 1396SOL    HW3 5615   3.665   0.447   2.325
 1396SOL    MW4 5616   3.603   0.394   2.356
 1397SOL     OW 5617   3.793   0.543   2.274
 1397SOL    HW2 5618   3.782   0.634   2.302
 1397SOL    HW3 5619   3.790   0.546   2.179
 1397SOL    MW4 5620   3.791   0.555   2.266
 1398SOL     OW 5621   3.790   0.805   2.365
 1398SOL    HW2 5622   3.783   0.792   2.459
 1398SOL    HW3 5623   3.882   0.825   2.350
 1398SOL    MW4 5624   3.801   0.806   2.375
 1399SOL     OW 5625   3.567   0.933   2.232
 1399SOL    HW2 5626   3.636   0.877   2.267
 1399SOL    HW3 5627   3.568   0.917   2.138
 1399SOL    MW4 5628   3.576   0.924   2.224
 1400SOL     OW 5629   3.572   1.196   2.350
 1400SOL    HW2 5630   3.561   1.197   2.445
 1400SOL    HW3 5631   3.563   1.103   2.326
 1400SOL    MW4 5632   3.569   1.184   2.360
 1401SOL     OW 5633   3.808   1.311   2.250
 1401SOL    HW2 5634   3.820   1.399   2.286
 1401SOL    HW3 5635   3.722   1.284   2.279
 1401SOL    MW4 5636   3.798   1.319   2.258
 1402SOL     OW 5637   3.816   1.572   2.358
 1402SOL    HW2 5638   3.800   1.579   2.452
 1402SOL    HW3 5639   3.741   1.614   2.317
 1402SOL    MW4 5640   3.804   1.578   2.365
 1403SOL     OW 5641   3.588   1.717   2.261
 1403SOL    HW2 5642   3.504   1.681   2.289
 1403SOL    HW3 5643   3.587   1.710   2.166
 1403SOL    MW4 5644   3.577   1.712   2.252
 1404SOL     OW 5645   3.595   1.974   2.363
 1404SOL    HW2 5646   3.664   2.035   2.335
 1404SOL    HW3 5647   3.610   1.895   2.311
 1404SOL    MW4 5648   3.606   1.972   2.353
 1405SOL     OW 5649   3.831   2.108   2.258
 1405SOL    HW2 5650   3.909   2.054   2.270
 1405SOL    HW3 5651   3.816   2.110   2.164
 1405SOL    MW4 5652   3.839   2.101   2.247
 1406SOL     OW 5653   3.835   2.350   2.371
 1406SOL    HW2 5654   3.760   2.387   2.324
 1406SOL    HW3 5655   3.835   2.257   2.347
 1406SOL    MW4 5656   3.825   2.342   2.362
 1407SOL     OW 5657   3.608   2.445   2.278
 1407SOL    HW2 5658   3.522   2.410   2.302
 1407SOL    HW3 5659   3.602   2.459   2.183
 1407SOL    MW4 5660   3.596   2.442   2.269
 1408SOL     OW 5661   3.543   2.689   2.403
 1408SOL    HW2 5662   3.571   2.609   2.359
 1408SOL    HW3 5663   3.481   2.729   2.342
 1408SOL    MW4 5664   3.539   2.684   2.389
 1409SOL     OW 5665   3.765   2.824   2.265
 1409SOL    HW2 5666   3.778   2.910   2.305
 1409SOL    HW3 5667   3.681   2.794   2.299
 1409SOL    MW4 5668   3.756   2.831   2.274
 1410SOL     OW 5669   3.801   3.080   2.370
 1410SOL    HW2 5670   3.801   3.070   2.465
 1410SOL    HW3 5671   3.884   3.122   2.350
 1410SOL    MW4 5672   3.812   3.084   2.380
 1411SOL     OW 5673   3.600   3.236   2.233
 1411SOL    HW2 5674   3.596   3.327   2.264
 1411SOL    HW3 5675   3.670   3.197   2.285
 1411SOL    MW4 5676   3.609   3.243   2.244
 1412SOL     OW 5677   3.571   3.492   2.374
 1412SOL    HW2 5678   3.567   3.490   2.469
 1412SOL    HW3 5679   3.654   3.534   2.354
 1412SOL    MW4 5680   3.581   3.497   2.384
 1413SOL     OW 5681   3.808   3.633   2.273
 1413SOL    HW2 5682   3.805   3.726   2.296
 1413SOL    HW3 5683   3.794   3.631   2.178
 1413SOL    MW4 5684   3.806   3.645   2.263
 1414SOL     OW 5685   3.808   3.902   2.321
 1414SOL    HW2 5686   3.816   3.910   2.416
 1414SOL    HW3 5687   3.892   3.934   2.287
 1414SOL    MW4 5688   3.820   3.908   2.329
 1415SOL     OW 5689   3.610   4.048   2.201
 1415SOL    HW2 5690   3.595   4.124   2.258
 1415SOL    HW3 5691   3.687   4.006   2.238
 1415SOL    MW4 5692   3.618   4.052   2.213
 1416SOL     OW 5693   3.585   4.245   2.393
 1416SOL    HW2 5694   3.658   4.298   2.360
 1416SOL    HW3 5695   3.507   4.288   2.360
 1416SOL    MW4 5696   3.585   4.258   2.384
 1417SOL     OW 5697   3.792   4.366   2.243
 1417SOL    HW2 5698   3.867   4.323   2.285
 1417SOL    HW3 5699   3.789   4.453   2.283
 1417SOL    MW4 5700   3.802   4.372   2.254
 1418SOL     OW 5701   4.266   0.000   2.351
 1418SOL    HW2 5702   4.267  -0.013   2.446
 1418SOL    HW3 5703   4.349   0.045   2.332
 1418SOL    MW4 5704   4.277   0.005   2.361
 1419SOL     OW 5705   4.003   0.083   2.268
 1419SOL    HW2 5706   4.007   0.176   2.291
 1419SOL    HW3 5707   4.086   0.047   2.300
 1419SOL    MW4 5708   4.015   0.090   2.276
 1420SOL     OW 5709   4.007   0.359   2.334
 1420SOL    HW2 5710   4.092   0.396   2.310
 1420SOL    HW3 5711   3.944   0.427   2.311
 1420SOL    MW4 5712   4.010   0.373   2.328
 1421SOL     OW 5713   4.256   0.449   2.254
 1421SOL    HW2 5714   4.249   0.540   2.283
 1421SOL    HW3 5715   4.336   0.416   2.293
 1421SOL    MW4 5716   4.265   0.457   2.263
 1422SOL     OW 5717   4.251   0.701   2.357
 1422SOL    HW2 5718   4.175   0.750   2.327
 1422SOL    HW3 5719   4.325   0.759   2.342
 1422SOL    MW4 5720   4.250   0.715   2.351
 1423SOL     OW 5721   4.059   0.880   2.296
 1423SOL    HW2 5722   4.056   0.976   2.300
 1423SOL    HW3 5723   4.054   0.861   2.202
 1423SOL    MW4 5724   4.058   0.890   2.284
 1424SOL     OW 5725   4.029   1.154   2.327
 1424SOL    HW2 5726   4.034   1.148   2.422
 1424SOL    HW3 5727   3.946   1.199   2.310
 1424SOL    MW4 5728   4.019   1.159   2.337
 1425SOL     OW 5729   4.247   1.304   2.280
 1425SOL    HW2 5730   4.167   1.254   2.290
 1425SOL    HW3 5731   4.315   1.250   2.320
 1425SOL    MW4 5732   4.245   1.291   2.287
 1426SOL     OW 5733   4.292   1.557   2.373
 1426SOL    HW2 5734   4.273   1.471   2.335
 1426SOL    HW3 5735   4.369   1.587   2.326
 1426SOL    MW4 5736   4.300   1.549   2.362
 1427SOL     OW 5737   4.055   1.688   2.291
 1427SOL    HW2 5738   4.126   1.647   2.339
 1427SOL    HW3 5739   3.977   1.639   2.317
 1427SOL    MW4 5740   4.054   1.676   2.301
 1428SOL     OW 5741   4.043   1.957   2.355
 1428SOL    HW2 5742   4.030   1.960   2.450
 1428SOL    HW3 5743   4.032   1.865   2.332
 1428SOL    MW4 5744   4.040   1.945   2.364
 1429SOL     OW 5745   4.295   2.038   2.250
 1429SOL    HW2 5746   4.285   2.124   2.290
 1429SOL    HW3 5747   4.223   1.986   2.285
 1429SOL    MW4 5748   4.284   2.042   2.260
 1430SOL     OW 5749   4.307   2.304   2.393
 1430SOL    HW2 5750   4.226   2.345   2.362
 1430SOL    HW3 5751   4.377   2.350   2.346
 1430SOL    MW4 5752   4.306   2.315   2.382
 1431SOL     OW 5753   4.080   2.446   2.288
 1431SOL    HW2 5754   4.067   2.538   2.309
 1431SOL    HW3 5755   3.997   2.404   2.312
 1431SOL    MW4 5756   4.067   2.452   2.294
 1432SOL     OW 5757   4.031   2.716   2.336
 1432SOL    HW2 5758   4.032   2.705   2.431
 1432SOL    HW3 5759   3.942   2.745   2.316
 1432SOL    MW4 5760   4.020   2.719   2.346
 1433SOL     OW 5761   4.271   2.834   2.267
 1433SOL    HW2 5762   4.185   2.796   2.286
 1433SOL    HW3 5763   4.333   2.771   2.304
 1433SOL    MW4 5764   4.268   2.820   2.274
 1434SOL     OW 5765   4.239   3.066   2.412
 1434SOL    HW2 5766   4.238   2.983   2.363
 1434SOL    HW3 5767   4.323   3.106   2.389
 1434SOL    MW4 5768   4.250   3.060   2.403
 1435SOL     OW 5769   4.022   3.218   2.292
 1435SOL    HW2 5770   4.047   3.311   2.294
 1435SOL    HW3 5771   4.102   3.171   2.315
 1435SOL    MW4 5772   4.036   3.224   2.295
 1436SOL     OW 5773   4.042   3.493   2.347
 1436SOL    HW2 5774   4.112   3.536   2.298
 1436SOL    HW3 5775   3.964   3.546   2.328
 1436SOL    MW4 5776   4.041   3.506   2.338
 1437SOL     OW 5777   4.260   3.607   2.211
 1437SOL    HW2 5778   4.260   3.696   2.246
 1437SOL    HW3 5779   4.258   3.618   2.116
 1437SOL    MW4 5780   4.260   3.620   2.203
 1438SOL     OW 5781   4.269   3.848   2.340
 1438SOL    HW2 5782   4.274   3.867   2.434
 1438SOL    HW3 5783   4.345   3.894   2.303
 1438SOL    MW4 5784   4.280   3.856   2.348
 1439SOL     OW 5785   4.063   4.006   2.271
 1439SOL    HW2 5786   4.131   3.942   2.294
 1439SOL    HW3 5787   4.060   4.004   2.175
 1439SOL    MW4 5788   4.072   3.997   2.261
 1440SOL     OW 5789   4.033   4.275   2.361
 1440SOL    HW2 5790   4.097   4.320   2.305
 1440SOL    HW3 5791   4.036   4.183   2.333
 1440SOL    MW4 5792   4.042   4.269   2.350
 1441SOL     OW 5793   4.260   4.403   2.217
 1441SOL    HW2 5794   4.270   4.493   2.246
 1441SOL    HW3 5795   4.328   4.355   2.264
 1441SOL    MW4 5796   4.270   4.408   2.227
 1442SOL     OW 5797   0.166   0.016   2.628
 1442SOL    HW2 5798   0.162  -0.068   2.674
 1442SOL    HW3 5799   0.088   0.063   2.659
 1442SOL    MW4 5800   0.155   0.011   2.638
 1443SOL     OW 5801   4.445   0.130   2.763
 1443SOL    HW2 5802   4.471   0.131   2.856
 1443SOL    HW3 5803   4.446   0.222   2.738
 1443SOL    MW4 5804   4.449   0.142   2.772
 1444SOL     OW 5805   4.479   0.384   2.677
 1444SOL    HW2 5806   4.569   0.397   2.705
 1444SOL    HW3 5807   4.482   0.391   2.581
 1444SOL    MW4 5808   4.491   0.386   2.668
 1445SOL     OW 5809   0.257   0.456   2.719
 1445SOL    HW2 5810   0.260   0.440   2.813
 1445SOL    HW3 5811   0.341   0.424   2.687
 1445SOL    MW4 5812   0.268   0.450   2.727
 1446SOL     OW 5813   0.212   0.713   2.619
 1446SOL    HW2 5814   0.297   0.748   2.644
 1446SOL    HW3 5815   0.213   0.623   2.651
 1446SOL    MW4 5816   0.223   0.706   2.626
 1447SOL     OW 5817   0.003   0.880   2.747
 1447SOL    HW2 5818  -0.072   0.837   2.705
 1447SOL    HW3 5819   0.079   0.847   2.699
 1447SOL    MW4 5820   0.003   0.870   2.735
 1448SOL     OW 5821   4.450   1.166   2.675
 1448SOL    HW2 5822   4.539   1.195   2.692
 1448SOL    HW3 5823   4.448   1.075   2.704
 1448SOL    MW4 5824   4.461   1.158   2.681
 1449SOL     OW 5825   0.208   1.274   2.747
 1449SOL    HW2 5826   0.279   1.219   2.714
 1449SOL    HW3 5827   0.212   1.353   2.693
 1449SOL    MW4 5828   0.218   1.277   2.735
 1450SOL     OW 5829   0.235   1.532   2.626
 1450SOL    HW2 5830   0.312   1.565   2.673
 1450SOL    HW3 5831   0.165   1.594   2.646
 1450SOL    MW4 5832   0.236   1.544   2.635
 1451SOL     OW 5833   0.028   1.685   2.723
 1451SOL    HW2 5834   0.027   1.697   2.817
 1451SOL    HW3 5835   0.005   1.771   2.687
 1451SOL    MW4 5836   0.025   1.698   2.730
 1452SOL     OW 5837   4.449   1.941   2.636
 1452SOL    HW2 5838   4.531   1.958   2.683
 1452SOL    HW3 5839   4.474   1.939   2.543
 1452SOL    MW4 5840   4.463   1.943   2.630
 1453SOL     OW 5841   0.230   2.051   2.741
 1453SOL    HW2 5842   0.311   2.000   2.739
 1453SOL    HW3 5843   0.248   2.128   2.688
 1453SOL    MW4 5844   0.243   2.054   2.734
 1454SOL     OW 5845   0.224   2.289   2.621
 1454SOL    HW2 5846   0.299   2.325   2.668
 1454SOL    HW3 5847   0.148   2.335   2.659
 1454SOL    MW4 5848   0.224   2.300   2.632
 1455SOL     OW 5849   0.028   2.444   2.761
 1455SOL    HW2 5850   0.032   2.432   2.855
 1455SOL    HW3 5851  -0.050   2.395   2.733
 1455SOL    MW4 5852   0.018   2.436   2.769
 1456SOL     OW 5853   0.010   2.699   2.649
 1456SOL    HW2 5854  -0.055   2.743   2.704
 1456SOL    HW3 5855   0.027   2.616   2.694
 1456SOL    MW4 5856   0.004   2.694   2.662
 1457SOL     OW 5857   0.246   2.847   2.688
 1457SOL    HW2 5858   0.248   2.940   2.665
 1457SOL    HW3 5859   0.161   2.816   2.656
 1457SOL    MW4 5860   0.235   2.855   2.681
 1458SOL     OW 5861   0.217   3.109   2.637
 1458SOL    HW2 5862   0.291   3.160   2.671
 1458SOL    HW3 5863   0.228   3.111   2.542
 1458SOL    MW4 5864   0.229   3.116   2.629
 1459SOL     OW 5865   4.489   3.235   2.758
 1459SOL    HW2 5866   4.411   3.189   2.726
 1459SOL    HW3 5867   4.562   3.177   2.733
 1459SOL    MW4 5868   4.488   3.221   2.750
 1460SOL     OW 5869   4.469   3.489   2.633
 1460SOL    HW2 5870   4.549   3.532   2.666
 1460SOL    HW3 5871   4.469   3.403   2.676
 1460SOL    MW4 5872   4.480   3.483   2.643
 1461SOL     OW 5873   0.214   3.589   2.733
 1461SOL    HW2 5874   0.206   3.582   2.828
 1461SOL    HW3 5875   0.299   3.551   2.713
 1461SOL    MW4 5876   0.224   3.583   2.742
 1462SOL     OW 5877   0.212   3.874   2.661
 1462SOL    HW2 5878   0.197   3.782   2.682
 1462SOL    HW3 5879   0.213   3.877   2.566
 1462SOL    MW4 5880   0.210   3.862   2.652
 1463SOL     OW 5881   4.464   4.020   2.726
 1463SOL    HW2 5882   4.470   4.112   2.703
 1463SOL    HW3 5883   4.553   3.986   2.714
 1463SOL    MW4 5884   4.476   4.027   2.722
 1464SOL     OW 5885   4.446   4.280   2.625
 1464SOL    HW2 5886   4.368   4.316   2.667
 1464SOL    HW3 5887   4.518   4.333   2.659
 1464SOL    MW4 5888   4.445   4.292   2.635
 1465SOL     OW 5889   0.176   4.419   2.724
 1465SOL    HW2 5890   0.188   4.416   2.819
 1465SOL    HW3 5891   0.253   4.374   2.689
 1465SOL    MW4 5892   0.188   4.412   2.732
 1466SOL     OW 5893   0.659   4.645   2.575
 1466SOL    HW2 5894   0.738   4.670   2.624
 1466SOL    HW3 5895   0.587   4.682   2.626
 1466SOL    MW4 5896   0.660   4.653   2.588
 1467SOL     OW 5897   0.424   0.092   2.670
 1467SOL    HW2 5898   0.423   0.085   2.765
 1467SOL    HW3 5899   0.334   0.075   2.643
 1467SOL    MW4 5900   0.412   0.089   2.679
 1468SOL     OW 5901   0.470   0.357   2.583
 1468SOL    HW2 5902   0.551   0.383   2.627
 1468SOL    HW3 5903   0.455   0.267   2.613
 1468SOL    MW4 5904   0.479   0.349   2.593
 1469SOL     OW 5905   0.713   0.479   2.684
 1469SOL    HW2 5906   0.683   0.484   2.775
 1469SOL    HW3 5907   0.796   0.434   2.688
 1469SOL    MW4 5908   0.720   0.474   2.696
 1470SOL     OW 5909   0.673   0.748   2.591
 1470SOL    HW2 5910   0.751   0.788   2.629
 1470SOL    HW3 5911   0.678   0.656   2.618
 1470SOL    MW4 5912   0.684   0.741   2.600
 1471SOL     OW 5913   0.444   0.844   2.699
 1471SOL    HW2 5914   0.451   0.938   2.680
 1471SOL    HW3 5915   0.522   0.806   2.659
 1471SOL    MW4 5916   0.455   0.851   2.691
 1472SOL     OW 5917   0.442   1.110   2.670
 1472SOL    HW2 5918   0.518   1.167   2.686
 1472SOL    HW3 5919   0.434   1.109   2.574
 1472SOL    MW4 5920   0.451   1.118   2.659
 1473SOL     OW 5921   0.648   1.262   2.717
 1473SOL    HW2 5922   0.644   1.273   2.813
 1473SOL    HW3 5923   0.732   1.220   2.702
 1473SOL    MW4 5924   0.658   1.258   2.728
 1474SOL     OW 5925   0.703   1.538   2.660
 1474SOL    HW2 5926   0.630   1.588   2.698
 1474SOL    HW3 5927   0.681   1.447   2.677
 1474SOL    MW4 5928   0.690   1.533   2.667
 1475SOL     OW 5929   0.458   1.653   2.736
 1475SOL    HW2 5930   0.448   1.670   2.829
 1475SOL    HW3 5931   0.471   1.740   2.697
 1475SOL    MW4 5932   0.458   1.667   2.743
 1476SOL     OW 5933   0.461   1.921   2.652
 1476SOL    HW2 5934   0.533   1.969   2.693
 1476SOL    HW3 5935   0.487   1.913   2.560
 1476SOL    MW4 5936   0.474   1.926   2.645
 1477SOL     OW 5937   0.655   2.069   2.773
 1477SOL    HW2 5938   0.664   2.072   2.869
 1477SOL    HW3 5939   0.726   2.012   2.744
 1477SOL    MW4 5940   0.665   2.062   2.782
 1478SOL     OW 5941   0.678   2.298   2.649
 1478SOL    HW2 5942   0.754   2.341   2.688
 1478SOL    HW3 5943   0.666   2.219   2.701
 1478SOL    MW4 5944   0.686   2.293   2.661
 1479SOL     OW 5945   0.465   2.424   2.751
 1479SOL    HW2 5946   0.459   2.509   2.708
 1479SOL    HW3 5947   0.535   2.378   2.704
 1479SOL    MW4 5948   0.473   2.429   2.739
 1480SOL     OW 5949   0.463   2.686   2.655
 1480SOL    HW2 5950   0.525   2.745   2.697
 1480SOL    HW3 5951   0.378   2.729   2.666
 1480SOL    MW4 5952   0.460   2.699   2.662
 1481SOL     OW 5953   0.660   2.842   2.770
 1481SOL    HW2 5954   0.650   2.831   2.864
 1481SOL    HW3 5955   0.690   2.932   2.759
 1481SOL    MW4 5956   0.663   2.853   2.781
 1482SOL     OW 5957   0.690   3.096   2.677
 1482SOL    HW2 5958   0.775   3.136   2.699
 1482SOL    HW3 5959   0.690   3.093   2.581
 1482SOL    MW4 5960   0.701   3.101   2.667
 1483SOL     OW 5961   0.446   3.220   2.760
 1483SOL    HW2 5962   0.455   3.237   2.854
 1483SOL    HW3 5963   0.525   3.170   2.737
 1483SOL    MW4 5964   0.458   3.215   2.769
 1484SOL     OW 5965   0.460   3.476   2.663
 1484SOL    HW2 5966   0.438   3.391   2.699
 1484SOL    HW3 5967   0.470   3.460   2.569
 1484SOL    MW4 5968   0.458   3.463   2.655
 1485SOL     OW 5969   0.676   3.632   2.724
 1485SOL    HW2 5970   0.676   3.649   2.818
 1485SOL    HW3 5971   0.598   3.579   2.709
 1485SOL    MW4 5972   0.666   3.628   2.735
 1486SOL     OW 5973   0.668   3.898   2.630
 1486SOL    HW2 5974   0.591   3.933   2.675
 1486SOL    HW3 5975   0.681   3.812   2.670
 1486SOL    MW4 5976   0.659   3.892   2.641
 1487SOL     OW 5977   0.440   4.023   2.731
 1487SOL    HW2 5978   0.439   4.113   2.699
 1487SOL    HW3 5979   0.350   3.992   2.721
 1487SOL    MW4 5980   0.428   4.030   2.726
 1488SOL     OW 5981   0.425   4.267   2.635
 1488SOL    HW2 5982   0.497   4.324   2.660
 1488SOL    HW3 5983   0.425   4.269   2.539
 1488SOL    MW4 5984   0.434   4.275   2.625
 1489SOL     OW 5985   0.656   4.384   2.719
 1489SOL    HW2 5986   0.739   4.341   2.702
 1489SOL    HW3 5987   0.666   4.472   2.682
 1489SOL    MW4 5988   0.668   4.390   2.712
 1490SOL     OW 5989   1.152   4.609   2.654
 1490SOL    HW2 5990   1.218   4.661   2.699
 1490SOL    HW3 5991   1.168   4.519   2.683
 1490SOL    MW4 5992   1.163   4.604   2.664
 1491SOL     OW 5993   0.892   0.052   2.719
 1491SOL    HW2 5994   0.895   0.083   2.810
 1491SOL    HW3 5995   0.976   0.008   2.706
 1491SOL    MW4 5996   0.904   0.050   2.729
 1492SOL     OW 5997   0.936   0.308   2.623
 1492SOL    HW2 5998   0.928   0.214   2.639
 1492SOL    HW3 5999   0.894   0.321   2.538
 1492SOL    MW4 6000   0.930   0.297   2.614
 1493SOL     OW 6001   1.101   0.462   2.766
 1493SOL    HW2 6002   1.096   0.545   2.719
 1493SOL    HW3 6003   1.038   0.405   2.722
 1493SOL    MW4 6004   1.092   0.465   2.754
 1494SOL     OW 6005   1.101   0.703   2.642
 1494SOL    HW2 6006   1.166   0.758   2.686
 1494SOL    HW3 6007   1.108   0.726   2.550
 1494SOL    MW4 6008   1.110   0.714   2.636
 1495SOL     OW 6009   0.883   0.870   2.719
 1495SOL    HW2 6010   0.868   0.861   2.814
 1495SOL    HW3 6011   0.953   0.808   2.700
 1495SOL    MW4 6012   0.890   0.861   2.729
 1496SOL     OW 6013   0.873   1.125   2.662
 1496SOL    HW2 6014   0.880   1.034   2.691
 1496SOL    HW3 6015   0.876   1.120   2.566
 1496SOL    MW4 6016   0.874   1.113   2.653
 1497SOL     OW 6017   1.082   1.271   2.769
 1497SOL    HW2 6018   1.086   1.345   2.708
 1497SOL    HW3 6019   1.008   1.218   2.739
 1497SOL    MW4 6020   1.073   1.274   2.757
 1498SOL     OW 6021   1.129   1.507   2.643
 1498SOL    HW2 6022   1.075   1.565   2.697
 1498SOL    HW3 6023   1.120   1.541   2.554
 1498SOL    MW4 6024   1.120   1.519   2.639
 1499SOL     OW 6025   0.921   1.684   2.774
 1499SOL    HW2 6026   0.912   1.680   2.869
 1499SOL    HW3 6027   0.843   1.639   2.741
 1499SOL    MW4 6028   0.910   1.677   2.782
 1500SOL     OW 6029   0.873   1.935   2.651
 1500SOL    HW2 6030   0.938   1.996   2.685
 1500SOL    HW3 6031   0.899   1.849   2.686
 1500SOL    MW4 6032   0.885   1.931   2.660
 1501SOL     OW 6033   1.076   2.079   2.760
 1501SOL    HW2 6034   1.146   2.021   2.728
 1501SOL    HW3 6035   1.103   2.167   2.734
 1501SOL    MW4 6036   1.088   2.083   2.752
 1502SOL     OW 6037   1.110   2.329   2.629
 1502SOL    HW2 6038   1.183   2.382   2.659
 1502SOL    HW3 6039   1.099   2.353   2.536
 1502SOL    MW4 6040   1.118   2.339   2.620
 1503SOL     OW 6041   0.887   2.439   2.744
 1503SOL    HW2 6042   0.887   2.528   2.710
 1503SOL    HW3 6043   0.960   2.396   2.700
 1503SOL    MW4 6044   0.897   2.445   2.734
 1504SOL     OW 6045   0.872   2.694   2.639
 1504SOL    HW2 6046   0.953   2.734   2.670
 1504SOL    HW3 6047   0.803   2.739   2.687
 1504SOL    MW4 6048   0.874   2.706   2.649
 1505SOL     OW 6049   1.083   2.832   2.736
 1505SOL    HW2 6050   1.106   2.825   2.829
 1505SOL    HW3 6051   1.159   2.795   2.690
 1505SOL    MW4 6052   1.096   2.826   2.742
 1506SOL     OW 6053   1.148   3.096   2.661
 1506SOL    HW2 6054   1.122   3.007   2.684
 1506SOL    HW3 6055   1.136   3.101   2.566
 1506SOL    MW4 6056   1.143   3.085   2.652
 1507SOL     OW 6057   0.919   3.208   2.781
 1507SOL    HW2 6058   0.903   3.286   2.729
 1507SOL    HW3 6059   1.006   3.179   2.753
 1507SOL    MW4 6060   0.928   3.215   2.771
 1508SOL     OW 6061   0.887   3.462   2.642
 1508SOL    HW2 6062   0.961   3.508   2.684
 1508SOL    HW3 6063   0.810   3.512   2.671
 1508SOL    MW4 6064   0.887   3.475   2.652
 1509SOL     OW 6065   1.102   3.599   2.731
 1509SOL    HW2 6066   1.101   3.626   2.823
 1509SOL    HW3 6067   1.100   3.681   2.682
 1509SOL    MW4 6068   1.102   3.613   2.737
 1510SOL     OW 6069   1.098   3.851   2.586
 1510SOL    HW2 6070   1.178   3.889   2.624
 1510SOL    HW3 6071   1.110   3.859   2.492
 1510SOL    MW4 6072   1.110   3.857   2.579
 1511SOL     OW 6073   0.893   4.008   2.745
 1511SOL    HW2 6074   0.958   3.963   2.691
 1511SOL    HW3 6075   0.809   3.970   2.718
 1511SOL    MW4 6076   0.890   3.997   2.735
 1512SOL     OW 6077   0.888   4.266   2.657
 1512SOL    HW2 6078   0.892   4.174   2.682
 1512SOL    HW3 6079   0.884   4.265   2.561
 1512SOL    MW4 6080   0.888   4.254   2.648
 1513SOL     OW 6081   1.144   4.351   2.744
 1513SOL    HW2 6082   1.137   4.378   2.836
 1513SOL    HW3 6083   1.055   4.327   2.719
 1513SOL    MW4 6084   1.131   4.351   2.753
 1514SOL     OW 6085   1.601   4.645   2.621
 1514SOL    HW2 6086   1.601   4.551   2.641
 1514SOL    HW3 6087   1.581   4.649   2.527
 1514SOL    MW4 6088   1.599   4.633   2.611
 1515SOL     OW 6089   1.370   0.086   2.721
 1515SOL    HW2 6090   1.373   0.175   2.688
 1515SOL    HW3 6091   1.452   0.046   2.690
 1515SOL    MW4 6092   1.381   0.092   2.713
 1516SOL     OW 6093   1.329   0.353   2.645
 1516SOL    HW2 6094   1.404   0.405   2.675
 1516SOL    HW3 6095   1.255   0.388   2.695
 1516SOL    MW4 6096   1.329   0.365   2.656
 1517SOL     OW 6097   1.573   0.471   2.733
 1517SOL    HW2 6098   1.653   0.427   2.703
 1517SOL    HW3 6099   1.581   0.561   2.699
 1517SOL    MW4 6100   1.585   0.477   2.724
 1518SOL     OW 6101   1.541   0.746   2.648
 1518SOL    HW2 6102   1.459   0.780   2.684
 1518SOL    HW3 6103   1.535   0.762   2.554
 1518SOL    MW4 6104   1.529   0.753   2.641
 1519SOL     OW 6105   1.315   0.868   2.752
 1519SOL    HW2 6106   1.337   0.861   2.845
 1519SOL    HW3 6107   1.317   0.962   2.734
 1519SOL    MW4 6108   1.318   0.879   2.762
 1520SOL     OW 6109   1.318   1.131   2.666
 1520SOL    HW2 6110   1.391   1.190   2.683
 1520SOL    HW3 6111   1.241   1.177   2.700
 1520SOL    MW4 6112   1.317   1.145   2.673
 1521SOL     OW 6113   1.550   1.292   2.729
 1521SOL    HW2 6114   1.553   1.301   2.825
 1521SOL    HW3 6115   1.619   1.229   2.709
 1521SOL    MW4 6116   1.560   1.285   2.739
 1522SOL     OW 6117   1.582   1.555   2.667
 1522SOL    HW2 6118   1.574   1.463   2.692
 1522SOL    HW3 6119   1.584   1.554   2.572
 1522SOL    MW4 6120   1.581   1.543   2.658
 1523SOL     OW 6121   1.341   1.662   2.741
 1523SOL    HW2 6122   1.426   1.623   2.719
 1523SOL    HW3 6123   1.277   1.602   2.704
 1523SOL    MW4 6124   1.344   1.649   2.733
 1524SOL     OW 6125   1.314   1.941   2.671
 1524SOL    HW2 6126   1.333   1.854   2.705
 1524SOL    HW3 6127   1.311   1.931   2.576
 1524SOL    MW4 6128   1.316   1.928   2.663
 1525SOL     OW 6129   1.552   2.078   2.762
 1525SOL    HW2 6130   1.627   2.028   2.728
 1525SOL    HW3 6131   1.476   2.030   2.730
 1525SOL    MW4 6132   1.552   2.065   2.753
 1526SOL     OW 6133   1.547   2.330   2.654
 1526SOL    HW2 6134   1.627   2.372   2.686
 1526SOL    HW3 6135   1.550   2.242   2.691
 1526SOL    MW4 6136   1.558   2.324   2.663
 1527SOL     OW 6137   1.306   2.474   2.737
 1527SOL    HW2 6138   1.305   2.561   2.697
 1527SOL    HW3 6139   1.385   2.432   2.702
 1527SOL    MW4 6140   1.316   2.480   2.727
 1528SOL     OW 6141   1.307   2.727   2.600
 1528SOL    HW2 6142   1.383   2.771   2.638
 1528SOL    HW3 6143   1.332   2.709   2.509
 1528SOL    MW4 6144   1.320   2.730   2.593
 1529SOL     OW 6145   1.536   2.870   2.736
 1529SOL    HW2 6146   1.544   2.867   2.832
 1529SOL    HW3 6147   1.604   2.810   2.705
 1529SOL    MW4 6148   1.546   2.862   2.745
 1530SOL     OW 6149   1.574   3.098   2.595
 1530SOL    HW2 6150   1.649   3.149   2.627
 1530SOL    HW3 6151   1.573   3.020   2.651
 1530SOL    MW4 6152   1.584   3.095   2.607
 1531SOL     OW 6153   1.363   3.209   2.779
 1531SOL    HW2 6154   1.438   3.166   2.737
 1531SOL    HW3 6155   1.287   3.176   2.731
 1531SOL    MW4 6156   1.363   3.199   2.767
 1532SOL     OW 6157   1.302   3.445   2.641
 1532SOL    HW2 6158   1.327   3.377   2.703
 1532SOL    HW3 6159   1.226   3.487   2.681
 1532SOL    MW4 6160   1.295   3.442   2.655
 1533SOL     OW 6161   1.524   3.615   2.703
 1533SOL    HW2 6162   1.607   3.573   2.684
 1533SOL    HW3 6163   1.458   3.549   2.679
 1533SOL    MW4 6164   1.526   3.601   2.697
 1534SOL     OW 6165   1.556   3.893   2.634
 1534SOL    HW2 6166   1.473   3.933   2.659
 1534SOL    HW3 6167   1.546   3.800   2.657
 1534SOL    MW4 6168   1.544   3.886   2.641
 1535SOL     OW 6169   1.308   3.971   2.713
 1535SOL    HW2 6170   1.310   3.963   2.809
 1535SOL    HW3 6171   1.337   4.061   2.696
 1535SOL    MW4 6172   1.313   3.982   2.724
 1536SOL     OW 6173   1.387   4.232   2.642
 1536SOL    HW2 6174   1.301   4.266   2.666
 1536SOL    HW3 6175   1.392   4.243   2.547
 1536SOL    MW4 6176   1.377   4.238   2.633
 1537SOL     OW 6177   1.606   4.378   2.728
 1537SOL    HW2 6178   1.601   4.399   2.822
 1537SOL    HW3 6179   1.532   4.320   2.712
 1537SOL    MW4 6180   1.596   4.374   2.739
 1538SOL     OW 6181   2.063   4.597   2.601
 1538SOL    HW2 6182   2.133   4.649   2.638
 1538SOL    HW3 6183   2.052   4.631   2.512
 1538SOL    MW4 6184   2.070   4.608   2.594
 1539SOL     OW 6185   1.829   0.074   2.744
 1539SOL    HW2 6186   1.903   0.037   2.696
 1539SOL    HW3 6187   1.753   0.052   2.691
 1539SOL    MW4 6188   1.829   0.066   2.730
 1540SOL     OW 6189   1.799   0.344   2.639
 1540SOL    HW2 6190   1.872   0.392   2.677
 1540SOL    HW3 6191   1.817   0.252   2.662
 1540SOL    MW4 6192   1.811   0.338   2.647
 1541SOL     OW 6193   2.024   0.509   2.738
 1541SOL    HW2 6194   2.087   0.471   2.678
 1541SOL    HW3 6195   2.022   0.602   2.715
 1541SOL    MW4 6196   2.032   0.516   2.727
 1542SOL     OW 6197   1.987   0.773   2.647
 1542SOL    HW2 6198   1.896   0.803   2.652
 1542SOL    HW3 6199   2.004   0.764   2.554
 1542SOL    MW4 6200   1.977   0.776   2.635
 1543SOL     OW 6201   1.737   0.894   2.779
 1543SOL    HW2 6202   1.739   0.972   2.724
 1543SOL    HW3 6203   1.663   0.843   2.747
 1543SOL    MW4 6204   1.728   0.897   2.768
 1544SOL     OW 6205   1.770   1.143   2.659
 1544SOL    HW2 6206   1.837   1.196   2.702
 1544SOL    HW3 6207   1.787   1.155   2.566
 1544SOL    MW4 6208   1.781   1.152   2.652
 1545SOL     OW 6209   1.979   1.303   2.777
 1545SOL    HW2 6210   1.997   1.312   2.871
 1545SOL    HW3 6211   2.053   1.251   2.744
 1545SOL    MW4 6212   1.991   1.297   2.785
 1546SOL     OW 6213   2.038   1.545   2.665
 1546SOL    HW2 6214   1.970   1.595   2.711
 1546SOL    HW3 6215   2.022   1.454   2.689
 1546SOL    MW4 6216   2.027   1.540   2.674
 1547SOL     OW 6217   1.814   1.665   2.773
 1547SOL    HW2 6218   1.795   1.664   2.867
 1547SOL    HW3 6219   1.739   1.621   2.733
 1547SOL    MW4 6220   1.802   1.659   2.780
 1548SOL     OW 6221   1.790   1.931   2.683
 1548SOL    HW2 6222   1.868   1.976   2.716
 1548SOL    HW3 6223   1.802   1.840   2.711
 1548SOL    MW4 6224   1.802   1.925   2.691
 1549SOL     OW 6225   2.010   2.090   2.738
 1549SOL    HW2 6226   2.011   2.123   2.828
 1549SOL    HW3 6227   2.004   2.169   2.684
 1549SOL    MW4 6228   2.009   2.105   2.743
 1550SOL     OW 6229   1.988   2.350   2.621
 1550SOL    HW2 6230   2.056   2.391   2.675
 1550SOL    HW3 6231   1.999   2.389   2.535
 1550SOL    MW4 6232   1.998   2.360   2.617
 1551SOL     OW 6233   1.769   2.476   2.721
 1551SOL    HW2 6234   1.775   2.482   2.816
 1551SOL    HW3 6235   1.848   2.427   2.695
 1551SOL    MW4 6236   1.781   2.470   2.730
 1552SOL     OW 6237   1.748   2.728   2.636
 1552SOL    HW2 6238   1.747   2.636   2.661
 1552SOL    HW3 6239   1.745   2.726   2.540
 1552SOL    MW4 6240   1.748   2.715   2.626
 1553SOL     OW 6241   1.986   2.817   2.751
 1553SOL    HW2 6242   2.057   2.767   2.712
 1553SOL    HW3 6243   1.906   2.778   2.715
 1553SOL    MW4 6244   1.985   2.805   2.741
 1554SOL     OW 6245   2.031   3.089   2.641
 1554SOL    HW2 6246   2.017   3.004   2.681
 1554SOL    HW3 6247   2.039   3.071   2.547
 1554SOL    MW4 6248   2.030   3.076   2.634
 1555SOL     OW 6249   1.805   3.220   2.718
 1555SOL    HW2 6250   1.820   3.310   2.688
 1555SOL    HW3 6251   1.889   3.176   2.706
 1555SOL    MW4 6252   1.818   3.226   2.712
 1556SOL     OW 6253   1.773   3.503   2.612
 1556SOL    HW2 6254   1.857   3.544   2.632
 1556SOL    HW3 6255   1.771   3.500   2.516
 1556SOL    MW4 6256   1.784   3.508   2.602
 1557SOL     OW 6257   2.031   3.609   2.722
 1557SOL    HW2 6258   2.048   3.607   2.817
 1557SOL    HW3 6259   2.109   3.570   2.684
 1557SOL    MW4 6260   2.044   3.604   2.730
 1558SOL     OW 6261   2.065   3.883   2.646
 1558SOL    HW2 6262   1.988   3.928   2.680
 1558SOL    HW3 6263   2.059   3.795   2.682
 1558SOL    MW4 6264   2.054   3.877   2.655
 1559SOL     OW 6265   1.817   3.963   2.740
 1559SOL    HW2 6266   1.812   4.052   2.706
 1559SOL    HW3 6267   1.733   3.924   2.715
 1559SOL    MW4 6268   1.805   3.970   2.732
 1560SOL     OW 6269   1.827   4.221   2.657
 1560SOL    HW2 6270   1.746   4.259   2.691
 1560SOL    HW3 6271   1.823   4.237   2.563
 1560SOL    MW4 6272   1.816   4.228   2.649
 1561SOL     OW 6273   2.029   4.373   2.750
 1561SOL    HW2 6274   1.958   4.321   2.713
 1561SOL    HW3 6275   2.038   4.447   2.689
 1561SOL    MW4 6276   2.021   4.376   2.737
 1562SOL     OW 6277   2.483   4.654   2.630
 1562SOL    HW2 6278   2.553   4.715   2.651
 1562SOL    HW3 6279   2.478   4.654   2.535
 1562SOL    MW4 6280   2.491   4.662   2.620
 1563SOL     OW 6281   2.255   0.089   2.706
 1563SOL    HW2 6282   2.234   0.053   2.792
 1563SOL    HW3 6283   2.336   0.046   2.681
 1563SOL    MW4 6284   2.263   0.079   2.714
 1564SOL     OW 6285   2.261   0.370   2.637
 1564SOL    HW2 6286   2.258   0.282   2.676
 1564SOL    HW3 6287   2.250   0.356   2.543
 1564SOL    MW4 6288   2.259   0.357   2.630
 1565SOL     OW 6289   2.473   0.522   2.743
 1565SOL    HW2 6290   2.485   0.612   2.714
 1565SOL    HW3 6291   2.404   0.487   2.686
 1565SOL    MW4 6292   2.465   0.529   2.732
 1566SOL     OW 6293   2.469   0.779   2.622
 1566SOL    HW2 6294   2.386   0.818   2.651
 1566SOL    HW3 6295   2.461   0.776   2.527
 1566SOL    MW4 6296   2.457   0.784   2.613
 1567SOL     OW 6297   2.225   0.891   2.735
 1567SOL    HW2 6298   2.246   0.867   2.825
 1567SOL    HW3 6299   2.136   0.860   2.722
 1567SOL    MW4 6300   2.216   0.884   2.745
 1568SOL     OW 6301   2.177   1.153   2.651
 1568SOL    HW2 6302   2.201   1.066   2.683
 1568SOL    HW3 6303   2.195   1.149   2.557
 1568SOL    MW4 6304   2.183   1.141   2.643
 1569SOL     OW 6305   2.424   1.277   2.698
 1569SOL    HW2 6306   2.501   1.231   2.665
 1569SOL    HW3 6307   2.350   1.226   2.664
 1569SOL    MW4 6308   2.424   1.264   2.689
 1570SOL     OW 6309   2.450   1.562   2.627
 1570SOL    HW2 6310   2.381   1.608   2.676
 1570SOL    HW3 6311   2.448   1.473   2.662
 1570SOL    MW4 6312   2.441   1.557   2.638
 1571SOL     OW 6313   2.275   1.689   2.786
 1571SOL    HW2 6314   2.272   1.774   2.741
 1571SOL    HW3 6315   2.196   1.644   2.757
 1571SOL    MW4 6316   2.264   1.694   2.776
 1572SOL     OW 6317   2.224   1.921   2.653
 1572SOL    HW2 6318   2.168   1.979   2.705
 1572SOL    HW3 6319   2.208   1.946   2.562
 1572SOL    MW4 6320   2.215   1.932   2.648
 1573SOL     OW 6321   2.460   2.035   2.770
 1573SOL    HW2 6322   2.472   2.112   2.714
 1573SOL    HW3 6323   2.399   1.980   2.722
 1573SOL    MW4 6324   2.454   2.038   2.756
 1574SOL     OW 6325   2.457   2.283   2.612
 1574SOL    HW2 6326   2.531   2.339   2.636
 1574SOL    HW3 6327   2.455   2.286   2.516
 1574SOL    MW4 6328   2.466   2.291   2.602
 1575SOL     OW 6329   2.237   2.448   2.718
 1575SOL    HW2 6330   2.265   2.439   2.809
 1575SOL    HW3 6331   2.287   2.381   2.671
 1575SOL    MW4 6332   2.247   2.438   2.724
 1576SOL     OW 6333   2.203   2.710   2.621
 1576SOL    HW2 6334   2.264   2.770   2.663
 1576SOL    HW3 6335   2.228   2.623   2.653
 1576SOL    MW4 6336   2.214   2.706   2.631
 1577SOL     OW 6337   2.435   2.831   2.726
 1577SOL    HW2 6338   2.505   2.774   2.695
 1577SOL    HW3 6339   2.452   2.915   2.684
 1577SOL    MW4 6340   2.446   2.835   2.716
 1578SOL     OW 6341   2.476   3.076   2.591
 1578SOL    HW2 6342   2.396   3.105   2.634
 1578SOL    HW3 6343   2.456   3.079   2.497
 1578SOL    MW4 6344   2.463   3.080   2.584
 1579SOL     OW 6345   2.248   3.232   2.708
 1579SOL    HW2 6346   2.258   3.233   2.803
 1579SOL    HW3 6347   2.162   3.193   2.692
 1579SOL    MW4 6348   2.238   3.227   2.718
 1580SOL     OW 6349   2.266   3.500   2.612
 1580SOL    HW2 6350   2.346   3.547   2.634
 1580SOL    HW3 6351   2.266   3.424   2.670
 1580SOL    MW4 6352   2.276   3.496   2.623
 1581SOL     OW 6353   2.495   3.611   2.703
 1581SOL    HW2 6354   2.490   3.606   2.798
 1581SOL    HW3 6355   2.493   3.705   2.683
 1581SOL    MW4 6356   2.494   3.623   2.713
 1582SOL     OW 6357   2.485   3.872   2.617
 1582SOL    HW2 6358   2.566   3.911   2.651
 1582SOL    HW3 6359   2.416   3.925   2.655
 1582SOL    MW4 6360   2.487   3.884   2.627
 1583SOL     OW 6361   2.299   4.027   2.733
 1583SOL    HW2 6362   2.300   4.009   2.827
 1583SOL    HW3 6363   2.217   3.990   2.702
 1583SOL    MW4 6364   2.289   4.020   2.741
 1584SOL     OW 6365   2.258   4.286   2.632
 1584SOL    HW2 6366   2.264   4.203   2.679
 1584SOL    HW3 6367   2.178   4.326   2.665
 1584SOL    MW4 6368   2.248   4.280   2.643
 1585SOL     OW 6369   2.465   4.397   2.776
 1585SOL    HW2 6370   2.391   4.353   2.736
 1585SOL    HW3 6371   2.471   4.481   2.731
 1585SOL    MW4 6372   2.456   4.402   2.765
 1586SOL     OW 6373   2.899   4.655   2.652
 1586SOL    HW2 6374   2.985   4.693   2.670
 1586SOL    HW3 6375   2.893   4.655   2.556
 1586SOL    MW4 6376   2.910   4.660   2.641
 1587SOL     OW 6377   2.698   0.161   2.718
 1587SOL    HW2 6378   2.678   0.153   2.812
 1587SOL    HW3 6379   2.777   0.108   2.707
 1587SOL    MW4 6380   2.706   0.153   2.729
 1588SOL     OW 6381   2.705   0.422   2.630
 1588SOL    HW2 6382   2.714   0.330   2.655
 1588SOL    HW3 6383   2.628   0.453   2.677
 1588SOL    MW4 6384   2.696   0.414   2.640
 1589SOL     OW 6385   2.936   0.531   2.738
 1589SOL    HW2 6386   2.947   0.621   2.707
 1589SOL    HW3 6387   2.846   0.510   2.716
 1589SOL    MW4 6388   2.926   0.540   2.731
 1590SOL     OW 6389   2.968   0.777   2.623
 1590SOL    HW2 6390   3.043   0.825   2.657
 1590SOL    HW3 6391   2.892   0.817   2.667
 1590SOL    MW4 6392   2.968   0.789   2.633
 1591SOL     OW 6393   2.725   0.896   2.722
 1591SOL    HW2 6394   2.719   0.904   2.817
 1591SOL    HW3 6395   2.646   0.850   2.696
 1591SOL    MW4 6396   2.714   0.891   2.731
 1592SOL     OW 6397   2.671   1.163   2.655
 1592SOL    HW2 6398   2.726   1.220   2.708
 1592SOL    HW3 6399   2.683   1.075   2.692
 1592SOL    MW4 6400   2.679   1.159   2.667
 1593SOL     OW 6401   2.876   1.321   2.779
 1593SOL    HW2 6402   2.883   1.290   2.869
 1593SOL    HW3 6403   2.939   1.268   2.730
 1593SOL    MW4 6404   2.885   1.310   2.785
 1594SOL     OW 6405   2.912   1.570   2.648
 1594SOL    HW2 6406   2.831   1.621   2.644
 1594SOL    HW3 6407   2.895   1.503   2.714
 1594SOL    MW4 6408   2.899   1.568   2.656
 1595SOL     OW 6409   2.666   1.701   2.699
 1595SOL    HW2 6410   2.663   1.687   2.794
 1595SOL    HW3 6411   2.602   1.639   2.664
 1595SOL    MW4 6412   2.657   1.691   2.707
 1596SOL     OW 6413   2.696   1.973   2.631
 1596SOL    HW2 6414   2.692   1.878   2.639
 1596SOL    HW3 6415   2.619   2.004   2.678
 1596SOL    MW4 6416   2.685   1.964   2.638
 1597SOL     OW 6417   2.896   2.114   2.740
 1597SOL    HW2 6418   2.894   2.191   2.684
 1597SOL    HW3 6419   2.831   2.055   2.703
 1597SOL    MW4 6420   2.887   2.116   2.728
 1598SOL     OW 6421   2.896   2.327   2.562
 1598SOL    HW2 6422   2.984   2.358   2.584
 1598SOL    HW3 6423   2.838   2.383   2.612
 1598SOL    MW4 6424   2.900   2.338   2.572
 1599SOL     OW 6425   2.671   2.436   2.711
 1599SOL    HW2 6426   2.657   2.445   2.805
 1599SOL    HW3 6427   2.669   2.526   2.678
 1599SOL    MW4 6428   2.669   2.449   2.719
 1600SOL     OW 6429   2.649   2.694   2.628
 1600SOL    HW2 6430   2.736   2.724   2.655
 1600SOL    HW3 6431   2.648   2.704   2.533
 1600SOL    MW4 6432   2.660   2.699   2.619
 1601SOL     OW 6433   2.893   2.795   2.721
 1601SOL    HW2 6434   2.892   2.805   2.816
 1601SOL    HW3 6435   2.898   2.885   2.687
 1601SOL    MW4 6436   2.893   2.809   2.729
 1602SOL     OW 6437   2.885   3.065   2.645
 1602SOL    HW2 6438   2.806   3.111   2.675
 1602SOL    HW3 6439   2.883   3.075   2.550
 1602SOL    MW4 6440   2.874   3.072   2.637
 1603SOL     OW 6441   2.669   3.223   2.717
 1603SOL    HW2 6442   2.675   3.305   2.668
 1603SOL    HW3 6443   2.601   3.174   2.672
 1603SOL    MW4 6444   2.661   3.228   2.704
 1604SOL     OW 6445   2.705   3.479   2.584
 1604SOL    HW2 6446   2.640   3.542   2.616
 1604SOL    HW3 6447   2.695   3.481   2.489
 1604SOL    MW4 6448   2.695   3.488   2.576
 1605SOL     OW 6449   2.938   3.595   2.679
 1605SOL    HW2 6450   2.916   3.589   2.773
 1605SOL    HW3 6451   2.867   3.549   2.635
 1605SOL    MW4 6452   2.926   3.588   2.686
 1606SOL     OW 6453   2.944   3.854   2.644
 1606SOL    HW2 6454   3.020   3.895   2.683
 1606SOL    HW3 6455   2.957   3.760   2.658
 1606SOL    MW4 6456   2.955   3.847   2.651
 1607SOL     OW 6457   2.715   3.964   2.727
 1607SOL    HW2 6458   2.719   4.056   2.699
 1607SOL    HW3 6459   2.797   3.926   2.696
 1607SOL    MW4 6460   2.726   3.971   2.719
 1608SOL     OW 6461   2.683   4.241   2.663
 1608SOL    HW2 6462   2.756   4.294   2.692
 1608SOL    HW3 6463   2.606   4.280   2.705
 1608SOL    MW4 6464   2.682   4.253   2.672
 1609SOL     OW 6465   2.923   4.385   2.703
 1609SOL    HW2 6466   2.916   4.392   2.798
 1609SOL    HW3 6467   2.919   4.476   2.672
 1609SOL    MW4 6468   2.922   4.398   2.711
 1610SOL     OW 6469   3.359   4.630   2.638
 1610SOL    HW2 6470   3.356   4.542   2.673
 1610SOL    HW3 6471   3.275   4.669   2.664
 1610SOL    MW4 6472   3.347   4.624   2.646
 1611SOL     OW 6473   3.126   0.111   2.729
 1611SOL    HW2 6474   3.119   0.118   2.824
 1611SOL    HW3 6475   3.135   0.202   2.699
 1611SOL    MW4 6476   3.126   0.124   2.738
 1612SOL     OW 6477   3.129   0.366   2.643
 1612SOL    HW2 6478   3.060   0.425   2.675
 1612SOL    HW3 6479   3.130   0.378   2.548
 1612SOL    MW4 6480   3.120   0.375   2.635
 1613SOL     OW 6481   3.384   0.480   2.738
 1613SOL    HW2 6482   3.373   0.566   2.697
 1613SOL    HW3 6483   3.297   0.439   2.729
 1613SOL    MW4 6484   3.371   0.486   2.731
 1614SOL     OW 6485   3.363   0.758   2.641
 1614SOL    HW2 6486   3.427   0.820   2.678
 1614SOL    HW3 6487   3.362   0.777   2.548
 1614SOL    MW4 6488   3.372   0.769   2.634
 1615SOL     OW 6489   3.175   0.940   2.703
 1615SOL    HW2 6490   3.168   0.939   2.798
 1615SOL    HW3 6491   3.240   0.872   2.682
 1615SOL    MW4 6492   3.183   0.931   2.713
 1616SOL     OW 6493   3.110   1.213   2.637
 1616SOL    HW2 6494   3.132   1.121   2.645
 1616SOL    HW3 6495   3.123   1.233   2.544
 1616SOL    MW4 6496   3.115   1.204   2.626
 1617SOL     OW 6497   3.338   1.327   2.728
 1617SOL    HW2 6498   3.340   1.323   2.823
 1617SOL    HW3 6499   3.249   1.299   2.704
 1617SOL    MW4 6500   3.327   1.323   2.737
 1618SOL     OW 6501   3.329   1.567   2.612
 1618SOL    HW2 6502   3.261   1.620   2.653
 1618SOL    HW3 6503   3.328   1.484   2.660
 1618SOL    MW4 6504   3.320   1.563   2.624
 1619SOL     OW 6505   3.124   1.683   2.776
 1619SOL    HW2 6506   3.116   1.775   2.750
 1619SOL    HW3 6507   3.046   1.641   2.739
 1619SOL    MW4 6508   3.113   1.690   2.767
 1620SOL     OW 6509   3.119   1.949   2.645
 1620SOL    HW2 6510   3.194   2.007   2.658
 1620SOL    HW3 6511   3.044   2.000   2.676
 1620SOL    MW4 6512   3.119   1.963   2.651
 1621SOL     OW 6513   3.370   2.049   2.731
 1621SOL    HW2 6514   3.355   2.044   2.826
 1621SOL    HW3 6515   3.377   2.143   2.713
 1621SOL    MW4 6516   3.369   2.061   2.741
 1622SOL     OW 6517   3.370   2.318   2.624
 1622SOL    HW2 6518   3.455   2.349   2.653
 1622SOL    HW3 6519   3.372   2.328   2.528
 1622SOL    MW4 6520   3.381   2.324   2.615
 1623SOL     OW 6521   3.123   2.445   2.700
 1623SOL    HW2 6522   3.124   2.533   2.662
 1623SOL    HW3 6523   3.211   2.411   2.684
 1623SOL    MW4 6524   3.135   2.452   2.693
 1624SOL     OW 6525   3.128   2.695   2.608
 1624SOL    HW2 6526   3.204   2.733   2.652
 1624SOL    HW3 6527   3.053   2.721   2.661
 1624SOL    MW4 6528   3.128   2.703   2.621
 1625SOL     OW 6529   3.340   2.811   2.741
 1625SOL    HW2 6530   3.330   2.817   2.836
 1625SOL    HW3 6531   3.417   2.756   2.728
 1625SOL    MW4 6532   3.349   2.805   2.752
 1626SOL     OW 6533   3.348   3.064   2.617
 1626SOL    HW2 6534   3.346   2.971   2.636
 1626SOL    HW3 6535   3.352   3.069   2.521
 1626SOL    MW4 6536   3.348   3.053   2.607
 1627SOL     OW 6537   3.136   3.196   2.728
 1627SOL    HW2 6538   3.200   3.140   2.684
 1627SOL    HW3 6539   3.053   3.152   2.717
 1627SOL    MW4 6540   3.134   3.183   2.721
 1628SOL     OW 6541   3.174   3.461   2.623
 1628SOL    HW2 6542   3.163   3.372   2.656
 1628SOL    HW3 6543   3.096   3.508   2.654
 1628SOL    MW4 6544   3.162   3.456   2.632
 1629SOL     OW 6545   3.380   3.610   2.731
 1629SOL    HW2 6546   3.370   3.633   2.823
 1629SOL    HW3 6547   3.301   3.560   2.710
 1629SOL    MW4 6548   3.368   3.606   2.740
 1630SOL     OW 6549   3.412   3.856   2.625
 1630SOL    HW2 6550   3.417   3.764   2.650
 1630SOL    HW3 6551   3.412   3.856   2.530
 1630SOL    MW4 6552   3.413   3.844   2.616
 1631SOL     OW 6553   3.177   3.968   2.735
 1631SOL    HW2 6554   3.174   4.059   2.705
 1631SOL    HW3 6555   3.254   3.931   2.693
 1631SOL    MW4 6556   3.187   3.975   2.725
 1632SOL     OW 6557   3.165   4.233   2.624
 1632SOL    HW2 6558   3.085   4.275   2.655
 1632SOL    HW3 6559   3.160   4.239   2.528
 1632SOL    MW4 6560   3.154   4.239   2.615
 1633SOL     OW 6561   3.362   4.378   2.746
 1633SOL    HW2 6562   3.349   4.378   2.841
 1633SOL    HW3 6563   3.287   4.329   2.712
 1633SOL    MW4 6564   3.350   4.372   2.754
 1634SOL     OW 6565   3.783   4.643   2.624
 1634SOL    HW2 6566   3.798   4.562   2.671
 1634SOL    HW3 6567   3.709   4.684   2.670
 1634SOL    MW4 6568   3.775   4.638   2.636
 1635SOL     OW 6569   3.587   0.107   2.765
 1635SOL    HW2 6570   3.594   0.188   2.714
 1635SOL    HW3 6571   3.498   0.075   2.747
 1635SOL    MW4 6572   3.576   0.114   2.756
 1636SOL     OW 6573   3.622   0.365   2.617
 1636SOL    HW2 6574   3.700   0.401   2.660
 1636SOL    HW3 6575   3.549   0.414   2.655
 1636SOL    MW4 6576   3.623   0.376   2.628
 1637SOL     OW 6577   3.824   0.493   2.745
 1637SOL    HW2 6578   3.815   0.470   2.837
 1637SOL    HW3 6579   3.906   0.452   2.717
 1637SOL    MW4 6580   3.834   0.485   2.753
 1638SOL     OW 6581   3.798   0.773   2.647
 1638SOL    HW2 6582   3.724   0.810   2.696
 1638SOL    HW3 6583   3.802   0.682   2.675
 1638SOL    MW4 6584   3.788   0.766   2.657
 1639SOL     OW 6585   3.550   0.925   2.755
 1639SOL    HW2 6586   3.550   0.941   2.849
 1639SOL    HW3 6587   3.523   1.009   2.717
 1639SOL    MW4 6588   3.547   0.939   2.762
 1640SOL     OW 6589   3.546   1.171   2.634
 1640SOL    HW2 6590   3.618   1.222   2.671
 1640SOL    HW3 6591   3.467   1.219   2.660
 1640SOL    MW4 6592   3.545   1.184   2.642
 1641SOL     OW 6593   3.780   1.299   2.725
 1641SOL    HW2 6594   3.849   1.250   2.681
 1641SOL    HW3 6595   3.794   1.390   2.697
 1641SOL    MW4 6596   3.791   1.305   2.715
 1642SOL     OW 6597   3.809   1.554   2.636
 1642SOL    HW2 6598   3.876   1.612   2.671
 1642SOL    HW3 6599   3.726   1.592   2.666
 1642SOL    MW4 6600   3.807   1.566   2.645
 1643SOL     OW 6601   3.580   1.663   2.740
 1643SOL    HW2 6602   3.583   1.751   2.700
 1643SOL    HW3 6603   3.497   1.626   2.710
 1643SOL    MW4 6604   3.570   1.670   2.731
 1644SOL     OW 6605   3.600   1.917   2.631
 1644SOL    HW2 6606   3.519   1.954   2.665
 1644SOL    HW3 6607   3.598   1.936   2.537
 1644SOL    MW4 6608   3.589   1.924   2.623
 1645SOL     OW 6609   3.796   2.070   2.753
 1645SOL    HW2 6610   3.881   2.030   2.736
 1645SOL    HW3 6611   3.733   2.013   2.708
 1645SOL    MW4 6612   3.799   2.057   2.745
 1646SOL     OW 6613   3.866   2.309   2.640
 1646SOL    HW2 6614   3.837   2.219   2.659
 1646SOL    HW3 6615   3.840   2.323   2.549
 1646SOL    MW4 6616   3.858   2.299   2.630
 1647SOL     OW 6617   3.617   2.385   2.724
 1647SOL    HW2 6618   3.620   2.410   2.816
 1647SOL    HW3 6619   3.708   2.366   2.701
 1647SOL    MW4 6620   3.629   2.386   2.733
 1648SOL     OW 6621   3.590   2.673   2.675
 1648SOL    HW2 6622   3.609   2.581   2.694
 1648SOL    HW3 6623   3.568   2.673   2.582
 1648SOL    MW4 6624   3.590   2.661   2.665
 1649SOL     OW 6625   3.805   2.838   2.724
 1649SOL    HW2 6626   3.886   2.808   2.681
 1649SOL    HW3 6627   3.739   2.775   2.696
 1649SOL    MW4 6628   3.807   2.826   2.715
 1650SOL     OW 6629   3.801   3.103   2.651
 1650SOL    HW2 6630   3.714   3.127   2.680
 1650SOL    HW3 6631   3.810   3.010   2.675
 1650SOL    MW4 6632   3.791   3.094   2.658
 1651SOL     OW 6633   3.540   3.208   2.749
 1651SOL    HW2 6634   3.530   3.293   2.706
 1651SOL    HW3 6635   3.469   3.155   2.713
 1651SOL    MW4 6636   3.529   3.212   2.739
 1652SOL     OW 6637   3.594   3.466   2.652
 1652SOL    HW2 6638   3.675   3.515   2.666
 1652SOL    HW3 6639   3.525   3.525   2.681
 1652SOL    MW4 6640   3.596   3.480   2.658
 1653SOL     OW 6641   3.827   3.629   2.686
 1653SOL    HW2 6642   3.906   3.579   2.663
 1653SOL    HW3 6643   3.843   3.716   2.648
 1653SOL    MW4 6644   3.840   3.634   2.678
 1654SOL     OW 6645   3.823   3.890   2.590
 1654SOL    HW2 6646   3.897   3.928   2.638
 1654SOL    HW3 6647   3.745   3.923   2.636
 1654SOL    MW4 6648   3.822   3.900   2.603
 1655SOL     OW 6649   3.611   3.978   2.736
 1655SOL    HW2 6650   3.594   4.070   2.718
 1655SOL    HW3 6651   3.544   3.931   2.686
 1655SOL    MW4 6652   3.600   3.984   2.727
 1656SOL     OW 6653   3.596   4.256   2.676
 1656SOL    HW2 6654   3.511   4.296   2.694
 1656SOL    HW3 6655   3.604   4.254   2.581
 1656SOL    MW4 6656   3.586   4.261   2.666
 1657SOL     OW 6657   3.806   4.414   2.791
 1657SOL    HW2 6658   3.882   4.369   2.754
 1657SOL    HW3 6659   3.730   4.372   2.750
 1657SOL    MW4 6660   3.806   4.403   2.781
 1658SOL     OW 6661   4.243   4.661   2.623
 1658SOL    HW2 6662   4.160   4.691   2.659
 1658SOL    HW3 6663   4.308   4.723   2.656
 1658SOL    MW4 6664   4.241   4.673   2.632
 1659SOL     OW 6665   4.002   0.105   2.730
 1659SOL    HW2 6666   3.992   0.108   2.825
 1659SOL    HW3 6667   3.924   0.059   2.699
 1659SOL    MW4 6668   3.990   0.099   2.738
 1660SOL     OW 6669   4.032   0.366   2.611
 1660SOL    HW2 6670   4.020   0.279   2.648
 1660SOL    HW3 6671   4.020   0.354   2.517
 1660SOL    MW4 6672   4.029   0.353   2.604
 1661SOL     OW 6673   4.238   0.504   2.755
 1661SOL    HW2 6674   4.176   0.453   2.704
 1661SOL    HW3 6675   4.324   0.467   2.735
 1661SOL    MW4 6676   4.241   0.493   2.746
 1662SOL     OW 6677   4.256   0.753   2.654
 1662SOL    HW2 6678   4.248   0.672   2.704
 1662SOL    HW3 6679   4.254   0.724   2.563
 1662SOL    MW4 6680   4.254   0.738   2.648
 1663SOL     OW 6681   4.050   0.918   2.706
 1663SOL    HW2 6682   4.123   0.869   2.669
 1663SOL    HW3 6683   3.973   0.881   2.664
 1663SOL    MW4 6684   4.050   0.907   2.696
 1664SOL     OW 6685   3.991   1.174   2.601
 1664SOL    HW2 6686   4.055   1.232   2.643
 1664SOL    HW3 6687   4.011   1.087   2.635
 1664SOL    MW4 6688   4.002   1.170   2.611
 1665SOL     OW 6689   4.205   1.295   2.733
 1665SOL    HW2 6690   4.232   1.383   2.708
 1665SOL    HW3 6691   4.287   1.245   2.734
 1665SOL    MW4 6692   4.219   1.300   2.730
 1666SOL     OW 6693   4.282   1.577   2.655
 1666SOL    HW2 6694   4.363   1.622   2.682
 1666SOL    HW3 6695   4.296   1.555   2.564
 1666SOL    MW4 6696   4.294   1.580   2.647
 1667SOL     OW 6697   4.031   1.674   2.735
 1667SOL    HW2 6698   4.039   1.681   2.830
 1667SOL    HW3 6699   4.115   1.640   2.705
 1667SOL    MW4 6700   4.043   1.671   2.743
 1668SOL     OW 6701   4.015   1.950   2.635
 1668SOL    HW2 6702   4.081   2.007   2.676
 1668SOL    HW3 6703   4.025   1.866   2.680
 1668SOL    MW4 6704   4.025   1.946   2.646
 1669SOL     OW 6705   4.227   2.085   2.734
 1669SOL    HW2 6706   4.243   2.175   2.708
 1669SOL    HW3 6707   4.293   2.034   2.687
 1669SOL    MW4 6708   4.238   2.090   2.724
 1670SOL     OW 6709   4.283   2.340   2.678
 1670SOL    HW2 6710   4.217   2.406   2.703
 1670SOL    HW3 6711   4.279   2.337   2.583
 1670SOL    MW4 6712   4.274   2.348   2.669
 1671SOL     OW 6713   4.051   2.488   2.748
 1671SOL    HW2 6714   4.031   2.484   2.842
 1671SOL    HW3 6715   3.991   2.425   2.708
 1671SOL    MW4 6716   4.040   2.479   2.755
 1672SOL     OW 6717   4.044   2.719   2.608
 1672SOL    HW2 6718   4.121   2.772   2.630
 1672SOL    HW3 6719   4.054   2.640   2.661
 1672SOL    MW4 6720   4.056   2.716   2.618
 1673SOL     OW 6721   4.273   2.844   2.736
 1673SOL    HW2 6722   4.264   2.828   2.830
 1673SOL    HW3 6723   4.260   2.939   2.727
 1673SOL    MW4 6724   4.270   2.855   2.747
 1674SOL     OW 6725   4.242   3.111   2.676
 1674SOL    HW2 6726   4.181   3.182   2.693
 1674SOL    HW3 6727   4.239   3.097   2.582
 1674SOL    MW4 6728   4.234   3.119   2.666
 1675SOL     OW 6729   4.014   3.265   2.774
 1675SOL    HW2 6730   4.025   3.355   2.744
 1675SOL    HW3 6731   3.936   3.234   2.728
 1675SOL    MW4 6732   4.005   3.273   2.764
 1676SOL     OW 6733   4.050   3.495   2.622
 1676SOL    HW2 6734   4.125   3.550   2.647
 1676SOL    HW3 6735   4.055   3.490   2.526
 1676SOL    MW4 6736   4.061   3.502   2.613
 1677SOL     OW 6737   4.274   3.662   2.734
 1677SOL    HW2 6738   4.260   3.684   2.826
 1677SOL    HW3 6739   4.345   3.598   2.735
 1677SOL    MW4 6740   4.282   3.656   2.746
 1678SOL     OW 6741   4.226   3.903   2.623
 1678SOL    HW2 6742   4.240   3.813   2.653
 1678SOL    HW3 6743   4.296   3.953   2.664
 1678SOL    MW4 6744   4.237   3.898   2.632
 1679SOL     OW 6745   4.014   4.027   2.736
 1679SOL    HW2 6746   4.039   4.046   2.827
 1679SOL    HW3 6747   4.085   3.972   2.703
 1679SOL    MW4 6748   4.027   4.022   2.744
 1680SOL     OW 6749   4.033   4.290   2.651
 1680SOL    HW2 6750   4.017   4.196   2.663
 1680SOL    HW3 6751   4.021   4.305   2.557
 1680SOL    MW4 6752   4.029   4.279   2.640
 1681SOL     OW 6753   4.241   4.425   2.774
 1681SOL    HW2 6754   4.170   4.367   2.745
 1681SOL    HW3 6755   4.232   4.503   2.719
 1681SOL    MW4 6756   4.230   4.428   2.763
 1682SOL     OW 6757   0.233   4.656   3.128
 1682SOL    HW2 6758   0.246   4.670   3.222
 1682SOL    HW3 6759   0.151   4.701   3.108
 1682SOL    MW4 6760   0.224   4.664   3.138
 1683SOL     OW 6761   4.477   0.105   3.045
 1683SOL    HW2 6762   4.399   0.072   3.091
 1683SOL    HW3 6763   4.486   0.196   3.075
 1683SOL    MW4 6764   4.468   0.113   3.055
 1684SOL     OW 6765   4.471   0.364   3.176
 1684SOL    HW2 6766   4.477   0.367   3.272
 1684SOL    HW3 6767   4.386   0.403   3.157
 1684SOL    MW4 6768   4.460   0.369   3.186
 1685SOL     OW 6769   0.181   0.422   2.991
 1685SOL    HW2 6770   0.261   0.399   3.039
 1685SOL    HW3 6771   0.110   0.399   3.050
 1685SOL    MW4 6772   0.182   0.416   3.005
 1686SOL     OW 6773   0.188   0.713   3.058
 1686SOL    HW2 6774   0.202   0.727   3.152
 1686SOL    HW3 6775   0.179   0.618   3.050
 1686SOL    MW4 6776   0.189   0.702   3.069
 1687SOL     OW 6777   4.471   0.887   3.024
 1687SOL    HW2 6778   4.542   0.831   3.055
 1687SOL    HW3 6779   4.486   0.895   2.929
 1687SOL    MW4 6780   4.482   0.881   3.015
 1688SOL     OW 6781   4.445   1.170   3.118
 1688SOL    HW2 6782   4.369   1.215   3.082
 1688SOL    HW3 6783   4.434   1.079   3.092
 1688SOL    MW4 6784   4.434   1.164   3.110
 1689SOL     OW 6785   0.201   1.250   3.027
 1689SOL    HW2 6786   0.111   1.230   3.054
 1689SOL    HW3 6787   0.200   1.236   2.932
 1689SOL    MW4 6788   0.189   1.245   3.018
 1690SOL     OW 6789   0.214   1.523   3.091
 1690SOL    HW2 6790   0.136   1.574   3.068
 1690SOL    HW3 6791   0.195   1.434   3.061
 1690SOL    MW4 6792   0.201   1.518   3.084
 1691SOL     OW 6793   4.490   1.678   3.024
 1691SOL    HW2 6794   4.409   1.632   3.045
 1691SOL    HW3 6795   4.484   1.761   3.070
 1691SOL    MW4 6796   4.479   1.683   3.033
 1692SOL     OW 6797   0.006   1.959   3.107
 1692SOL    HW2 6798  -0.069   2.007   3.072
 1692SOL    HW3 6799   0.083   2.003   3.070
 1692SOL    MW4 6800   0.007   1.971   3.098
 1693SOL     OW 6801   0.245   2.069   3.012
 1693SOL    HW2 6802   0.230   2.156   3.049
 1693SOL    HW3 6803   0.237   2.082   2.918
 1693SOL    MW4 6804   0.242   2.082   3.005
 1694SOL     OW 6805   0.247   2.319   3.157
 1694SOL    HW2 6806   0.254   2.332   3.251
 1694SOL    HW3 6807   0.307   2.384   3.119
 1694SOL    MW4 6808   0.256   2.329   3.164
 1695SOL     OW 6809   0.000   2.444   3.034
 1695SOL    HW2 6810   0.006   2.537   3.056
 1695SOL    HW3 6811   0.082   2.407   3.067
 1695SOL    MW4 6812   0.012   2.451   3.042
 1696SOL     OW 6813   0.002   2.726   3.116
 1696SOL    HW2 6814   0.016   2.747   3.208
 1696SOL    HW3 6815   0.058   2.787   3.068
 1696SOL    MW4 6816   0.011   2.737   3.121
 1697SOL     OW 6817   0.195   2.872   2.962
 1697SOL    HW2 6818   0.272   2.835   3.005
 1697SOL    HW3 6819   0.216   2.872   2.869
 1697SOL    MW4 6820   0.208   2.867   2.955
 1698SOL     OW 6821   0.197   3.125   3.112
 1698SOL    HW2 6822   0.123   3.182   3.090
 1698SOL    HW3 6823   0.181   3.044   3.065
 1698SOL    MW4 6824   0.185   3.122   3.103
 1699SOL     OW 6825   4.455   3.248   3.024
 1699SOL    HW2 6826   4.401   3.171   3.038
 1699SOL    HW3 6827   4.476   3.247   2.931
 1699SOL    MW4 6828   4.451   3.238   3.014
 1700SOL     OW 6829   4.486   3.498   3.138
 1700SOL    HW2 6830   4.416   3.553   3.104
 1700SOL    HW3 6831   4.463   3.409   3.111
 1700SOL    MW4 6832   4.474   3.494   3.130
 1701SOL     OW 6833   0.222   3.597   3.007
 1701SOL    HW2 6834   0.225   3.692   3.022
 1701SOL    HW3 6835   0.143   3.568   3.053
 1701SOL    MW4 6836   0.212   3.606   3.015
 1702SOL     OW 6837   0.218   3.856   3.117
 1702SOL    HW2 6838   0.242   3.854   3.209
 1702SOL    HW3 6839   0.289   3.904   3.074
 1702SOL    MW4 6840   0.230   3.862   3.123
 1703SOL     OW 6841   4.476   4.000   3.008
 1703SOL    HW2 6842   4.549   3.944   3.036
 1703SOL    HW3 6843   4.472   3.988   2.913
 1703SOL    MW4 6844   4.485   3.991   2.999
 1704SOL     OW 6845   4.468   4.267   3.114
 1704SOL    HW2 6846   4.475   4.260   3.209
 1704SOL    HW3 6847   4.450   4.177   3.085
 1704SOL    MW4 6848   4.466   4.254   3.123
 1705SOL     OW 6849   0.210   4.416   3.001
 1705SOL    HW2 6850   0.148   4.367   3.055
 1705SOL    HW3 6851   0.217   4.501   3.044
 1705SOL    MW4 6852   0.203   4.421   3.014
 1706SOL     OW 6853   0.665   4.664   3.052
 1706SOL    HW2 6854   0.657   4.569   3.051
 1706SOL    HW3 6855   0.587   4.695   3.006
 1706SOL    MW4 6856   0.654   4.655   3.046
 1707SOL     OW 6857   0.413   0.114   2.943
 1707SOL    HW2 6858   0.421   0.189   3.002
 1707SOL    HW3 6859   0.361   0.051   2.992
 1707SOL    MW4 6860   0.407   0.116   2.957
 1708SOL     OW 6861   0.430   0.348   3.084
 1708SOL    HW2 6862   0.431   0.346   3.180
 1708SOL    HW3 6863   0.502   0.408   3.061
 1708SOL    MW4 6864   0.440   0.356   3.094
 1709SOL     OW 6865   0.648   0.486   2.964
 1709SOL    HW2 6866   0.717   0.443   3.015
 1709SOL    HW3 6867   0.656   0.579   2.986
 1709SOL    MW4 6868   0.658   0.493   2.974
 1710SOL     OW 6869   0.684   0.739   3.058
 1710SOL    HW2 6870   0.680   0.720   3.152
 1710SOL    HW3 6871   0.593   0.760   3.035
 1710SOL    MW4 6872   0.671   0.739   3.068
 1711SOL     OW 6873   0.437   0.809   2.972
 1711SOL    HW2 6874   0.349   0.777   2.992
 1711SOL    HW3 6875   0.432   0.840   2.882
 1711SOL    MW4 6876   0.425   0.809   2.962
 1712SOL     OW 6877   0.426   1.104   3.121
 1712SOL    HW2 6878   0.402   1.019   3.084
 1712SOL    HW3 6879   0.353   1.161   3.097
 1712SOL    MW4 6880   0.413   1.100   3.113
 1713SOL     OW 6881   0.634   1.263   2.987
 1713SOL    HW2 6882   0.717   1.237   3.028
 1713SOL    HW3 6883   0.568   1.213   3.034
 1713SOL    MW4 6884   0.636   1.253   2.999
 1714SOL     OW 6885   0.657   1.533   3.096
 1714SOL    HW2 6886   0.636   1.532   3.189
 1714SOL    HW3 6887   0.633   1.446   3.065
 1714SOL    MW4 6888   0.651   1.521   3.104
 1715SOL     OW 6889   0.432   1.681   3.009
 1715SOL    HW2 6890   0.512   1.631   3.029
 1715SOL    HW3 6891   0.361   1.624   3.037
 1715SOL    MW4 6892   0.433   1.667   3.016
 1716SOL     OW 6893   0.478   1.927   3.126
 1716SOL    HW2 6894   0.459   1.841   3.090
 1716SOL    HW3 6895   0.402   1.980   3.101
 1716SOL    MW4 6896   0.465   1.923   3.118
 1717SOL     OW 6897   0.672   2.083   3.040
 1717SOL    HW2 6898   0.754   2.044   3.072
 1717SOL    HW3 6899   0.605   2.020   3.067
 1717SOL    MW4 6900   0.674   2.069   3.048
 1718SOL     OW 6901   0.665   2.354   3.135
 1718SOL    HW2 6902   0.646   2.356   3.229
 1718SOL    HW3 6903   0.650   2.263   3.110
 1718SOL    MW4 6904   0.660   2.342   3.144
 1719SOL     OW 6905   0.434   2.494   3.026
 1719SOL    HW2 6906   0.522   2.475   3.058
 1719SOL    HW3 6907   0.432   2.457   2.937
 1719SOL    MW4 6908   0.445   2.486   3.018
 1720SOL     OW 6909   0.401   2.760   3.089
 1720SOL    HW2 6910   0.490   2.786   3.065
 1720SOL    HW3 6911   0.395   2.668   3.061
 1720SOL    MW4 6912   0.412   2.751   3.082
 1721SOL     OW 6913   0.657   2.825   3.030
 1721SOL    HW2 6914   0.731   2.775   3.065
 1721SOL    HW3 6915   0.663   2.910   3.073
 1721SOL    MW4 6916   0.668   2.830   3.040
 1722SOL     OW 6917   0.644   3.097   3.143
 1722SOL    HW2 6918   0.640   3.114   3.237
 1722SOL    HW3 6919   0.568   3.144   3.108
 1722SOL    MW4 6920   0.633   3.106   3.151
 1723SOL     OW 6921   0.419   3.258   3.039
 1723SOL    HW2 6922   0.435   3.333   3.095
 1723SOL    HW3 6923   0.341   3.216   3.077
 1723SOL    MW4 6924   0.411   3.262   3.051
 1724SOL     OW 6925   0.452   3.502   3.155
 1724SOL    HW2 6926   0.444   3.526   3.247
 1724SOL    HW3 6927   0.366   3.522   3.117
 1724SOL    MW4 6928   0.440   3.508   3.162
 1725SOL     OW 6929   0.647   3.647   3.007
 1725SOL    HW2 6930   0.721   3.587   3.007
 1725SOL    HW3 6931   0.576   3.598   3.048
 1725SOL    MW4 6932   0.647   3.633   3.012
 1726SOL     OW 6933   0.661   3.896   3.113
 1726SOL    HW2 6934   0.662   3.888   3.208
 1726SOL    HW3 6935   0.648   3.807   3.081
 1726SOL    MW4 6936   0.659   3.883   3.121
 1727SOL     OW 6937   0.450   4.026   3.011
 1727SOL    HW2 6938   0.528   3.976   3.036
 1727SOL    HW3 6939   0.448   4.021   2.915
 1727SOL    MW4 6940   0.460   4.019   3.002
 1728SOL     OW 6941   0.406   4.271   3.129
 1728SOL    HW2 6942   0.415   4.179   3.102
 1728SOL    HW3 6943   0.334   4.304   3.076
 1728SOL    MW4 6944   0.398   4.263   3.119
 1729SOL     OW 6945   0.630   4.388   2.994
 1729SOL    HW2 6946   0.547   4.345   3.012
 1729SOL    HW3 6947   0.634   4.392   2.898
 1729SOL    MW4 6948   0.620   4.383   2.984
 1730SOL     OW 6949   1.112   4.640   3.079
 1730SOL    HW2 6950   1.184   4.693   3.044
 1730SOL    HW3 6951   1.034   4.694   3.067
 1730SOL    MW4 6952   1.112   4.654   3.073
 1731SOL     OW 6953   0.893   0.123   2.973
 1731SOL    HW2 6954   0.868   0.205   3.016
 1731SOL    HW3 6955   0.819   0.064   2.988
 1731SOL    MW4 6956   0.880   0.126   2.980
 1732SOL     OW 6957   0.861   0.375   3.099
 1732SOL    HW2 6958   0.839   0.337   3.184
 1732SOL    HW3 6959   0.939   0.428   3.115
 1732SOL    MW4 6960   0.868   0.377   3.112
 1733SOL     OW 6961   1.092   0.505   3.041
 1733SOL    HW2 6962   1.175   0.462   3.059
 1733SOL    HW3 6963   1.075   0.485   2.949
 1733SOL    MW4 6964   1.100   0.497   3.031
 1734SOL     OW 6965   1.115   0.766   3.098
 1734SOL    HW2 6966   1.104   0.770   3.193
 1734SOL    HW3 6967   1.089   0.677   3.074
 1734SOL    MW4 6968   1.110   0.755   3.107
 1735SOL     OW 6969   0.876   0.920   3.007
 1735SOL    HW2 6970   0.961   0.883   3.033
 1735SOL    HW3 6971   0.812   0.855   3.037
 1735SOL    MW4 6972   0.879   0.906   3.014
 1736SOL     OW 6973   0.870   1.170   3.115
 1736SOL    HW2 6974   0.958   1.196   3.087
 1736SOL    HW3 6975   0.862   1.079   3.086
 1736SOL    MW4 6976   0.881   1.161   3.108
 1737SOL     OW 6977   1.103   1.295   3.024
 1737SOL    HW2 6978   1.170   1.229   3.039
 1737SOL    HW3 6979   1.087   1.294   2.930
 1737SOL    MW4 6980   1.109   1.286   3.014
 1738SOL     OW 6981   1.089   1.545   3.146
 1738SOL    HW2 6982   1.166   1.585   3.107
 1738SOL    HW3 6983   1.073   1.466   3.094
 1738SOL    MW4 6984   1.097   1.540   3.134
 1739SOL     OW 6985   0.881   1.693   3.060
 1739SOL    HW2 6986   0.955   1.636   3.081
 1739SOL    HW3 6987   0.804   1.645   3.089
 1739SOL    MW4 6988   0.881   1.679   3.066
 1740SOL     OW 6989   0.904   1.954   3.131
 1740SOL    HW2 6990   0.872   1.955   3.221
 1740SOL    HW3 6991   0.887   1.865   3.100
 1740SOL    MW4 6992   0.898   1.943   3.138
 1741SOL     OW 6993   1.127   2.089   3.044
 1741SOL    HW2 6994   1.047   2.044   3.072
 1741SOL    HW3 6995   1.113   2.107   2.951
 1741SOL    MW4 6996   1.115   2.086   3.035
 1742SOL     OW 6997   1.133   2.339   3.150
 1742SOL    HW2 6998   1.046   2.372   3.126
 1742SOL    HW3 6999   1.138   2.253   3.110
 1742SOL    MW4 7000   1.122   2.332   3.142
 1743SOL     OW 7001   0.913   2.439   3.030
 1743SOL    HW2 7002   0.831   2.414   3.071
 1743SOL    HW3 7003   0.892   2.451   2.937
 1743SOL    MW4 7004   0.900   2.437   3.023
 1744SOL     OW 7005   0.885   2.717   3.136
 1744SOL    HW2 7006   0.882   2.719   3.232
 1744SOL    HW3 7007   0.903   2.626   3.115
 1744SOL    MW4 7008   0.887   2.705   3.146
 1745SOL     OW 7009   1.108   2.832   3.008
 1745SOL    HW2 7010   1.115   2.922   3.039
 1745SOL    HW3 7011   1.030   2.797   3.051
 1745SOL    MW4 7012   1.099   2.839   3.017
 1746SOL     OW 7013   1.121   3.066   3.156
 1746SOL    HW2 7014   1.204   3.105   3.130
 1746SOL    HW3 7015   1.054   3.118   3.111
 1746SOL    MW4 7016   1.123   3.078   3.147
 1747SOL     OW 7017   0.913   3.230   3.067
 1747SOL    HW2 7018   0.843   3.171   3.095
 1747SOL    HW3 7019   0.918   3.220   2.972
 1747SOL    MW4 7020   0.905   3.221   3.058
 1748SOL     OW 7021   0.876   3.503   3.095
 1748SOL    HW2 7022   0.963   3.541   3.081
 1748SOL    HW3 7023   0.891   3.408   3.091
 1748SOL    MW4 7024   0.890   3.495   3.093
 1749SOL     OW 7025   1.119   3.634   3.007
 1749SOL    HW2 7026   1.184   3.576   3.046
 1749SOL    HW3 7027   1.119   3.712   3.063
 1749SOL    MW4 7028   1.127   3.637   3.020
 1750SOL     OW 7029   1.161   3.874   3.127
 1750SOL    HW2 7030   1.149   3.871   3.221
 1750SOL    HW3 7031   1.081   3.916   3.094
 1750SOL    MW4 7032   1.149   3.879   3.135
 1751SOL     OW 7033   0.929   3.951   3.030
 1751SOL    HW2 7034   0.844   3.916   3.058
 1751SOL    HW3 7035   0.918   3.970   2.937
 1751SOL    MW4 7036   0.916   3.949   3.021
 1752SOL     OW 7037   0.896   4.231   3.132
 1752SOL    HW2 7038   0.898   4.137   3.115
 1752SOL    HW3 7039   0.813   4.260   3.093
 1752SOL    MW4 7040   0.885   4.222   3.124
 1753SOL     OW 7041   1.136   4.367   3.022
 1753SOL    HW2 7042   1.067   4.320   3.070
 1753SOL    HW3 7043   1.124   4.458   3.047
 1753SOL    MW4 7044   1.125   4.373   3.032
 1754SOL     OW 7045   1.577   0.005   3.123
 1754SOL    HW2 7046   1.575  -0.001   3.218
 1754SOL    HW3 7047   1.494   0.046   3.100
 1754SOL    MW4 7048   1.566   0.010   3.132
 1755SOL     OW 7049   1.347   0.110   2.995
 1755SOL    HW2 7050   1.343   0.205   3.010
 1755SOL    HW3 7051   1.352   0.102   2.900
 1755SOL    MW4 7052   1.347   0.122   2.984
 1756SOL     OW 7053   1.342   0.369   3.099
 1756SOL    HW2 7054   1.339   0.368   3.195
 1756SOL    HW3 7055   1.426   0.411   3.079
 1756SOL    MW4 7056   1.353   0.375   3.109
 1757SOL     OW 7057   1.572   0.460   3.007
 1757SOL    HW2 7058   1.583   0.552   3.033
 1757SOL    HW3 7059   1.581   0.461   2.912
 1757SOL    MW4 7060   1.575   0.473   2.998
 1758SOL     OW 7061   1.581   0.706   3.125
 1758SOL    HW2 7062   1.572   0.714   3.220
 1758SOL    HW3 7063   1.503   0.748   3.089
 1758SOL    MW4 7064   1.570   0.712   3.133
 1759SOL     OW 7065   1.367   0.858   3.016
 1759SOL    HW2 7066   1.366   0.953   3.030
 1759SOL    HW3 7067   1.281   0.828   3.048
 1759SOL    MW4 7068   1.355   0.866   3.022
 1760SOL     OW 7069   1.323   1.129   3.085
 1760SOL    HW2 7070   1.325   1.114   3.179
 1760SOL    HW3 7071   1.408   1.168   3.064
 1760SOL    MW4 7072   1.334   1.132   3.094
 1761SOL     OW 7073   1.563   1.243   3.004
 1761SOL    HW2 7074   1.645   1.203   3.034
 1761SOL    HW3 7075   1.553   1.320   3.059
 1761SOL    MW4 7076   1.572   1.248   3.016
 1762SOL     OW 7077   1.540   1.496   3.109
 1762SOL    HW2 7078   1.613   1.551   3.080
 1762SOL    HW3 7079   1.462   1.547   3.090
 1762SOL    MW4 7080   1.540   1.510   3.103
 1763SOL     OW 7081   1.320   1.639   3.023
 1763SOL    HW2 7082   1.329   1.727   3.059
 1763SOL    HW3 7083   1.324   1.652   2.928
 1763SOL    MW4 7084   1.322   1.652   3.015
 1764SOL     OW 7085   1.335   1.910   3.135
 1764SOL    HW2 7086   1.341   1.924   3.229
 1764SOL    HW3 7087   1.266   1.969   3.106
 1764SOL    MW4 7088   1.327   1.919   3.143
 1765SOL     OW 7089   1.565   2.069   3.045
 1765SOL    HW2 7090   1.481   2.029   3.068
 1765SOL    HW3 7091   1.567   2.069   2.950
 1765SOL    MW4 7092   1.554   2.064   3.036
 1766SOL     OW 7093   1.559   2.332   3.122
 1766SOL    HW2 7094   1.479   2.376   3.093
 1766SOL    HW3 7095   1.551   2.243   3.087
 1766SOL    MW4 7096   1.547   2.326   3.113
 1767SOL     OW 7097   1.336   2.470   3.015
 1767SOL    HW2 7098   1.260   2.423   3.050
 1767SOL    HW3 7099   1.329   2.461   2.920
 1767SOL    MW4 7100   1.325   2.462   3.007
 1768SOL     OW 7101   1.319   2.709   3.145
 1768SOL    HW2 7102   1.318   2.628   3.093
 1768SOL    HW3 7103   1.234   2.750   3.126
 1768SOL    MW4 7104   1.308   2.704   3.136
 1769SOL     OW 7105   1.547   2.853   3.014
 1769SOL    HW2 7106   1.625   2.806   3.045
 1769SOL    HW3 7107   1.474   2.810   3.058
 1769SOL    MW4 7108   1.548   2.841   3.024
 1770SOL     OW 7109   1.593   3.103   3.090
 1770SOL    HW2 7110   1.599   3.078   3.182
 1770SOL    HW3 7111   1.587   3.020   3.043
 1770SOL    MW4 7112   1.593   3.089   3.096
 1771SOL     OW 7113   1.344   3.215   3.059
 1771SOL    HW2 7114   1.430   3.181   3.086
 1771SOL    HW3 7115   1.340   3.200   2.965
 1771SOL    MW4 7116   1.355   3.208   3.050
 1772SOL     OW 7117   1.324   3.479   3.122
 1772SOL    HW2 7118   1.330   3.464   3.216
 1772SOL    HW3 7119   1.332   3.392   3.083
 1772SOL    MW4 7120   1.326   3.466   3.129
 1773SOL     OW 7121   1.571   3.559   3.004
 1773SOL    HW2 7122   1.487   3.548   3.048
 1773SOL    HW3 7123   1.549   3.574   2.912
 1773SOL    MW4 7124   1.557   3.559   2.997
 1774SOL     OW 7125   1.580   3.810   3.125
 1774SOL    HW2 7126   1.663   3.844   3.090
 1774SOL    HW3 7127   1.578   3.718   3.098
 1774SOL    MW4 7128   1.591   3.802   3.117
 1775SOL     OW 7129   1.384   3.969   3.000
 1775SOL    HW2 7130   1.457   3.921   3.038
 1775SOL    HW3 7131   1.306   3.930   3.040
 1775SOL    MW4 7132   1.383   3.957   3.010
 1776SOL     OW 7133   1.364   4.228   3.129
 1776SOL    HW2 7134   1.377   4.144   3.086
 1776SOL    HW3 7135   1.294   4.270   3.079
 1776SOL    MW4 7136   1.357   4.223   3.117
 1777SOL     OW 7137   1.570   4.407   3.033
 1777SOL    HW2 7138   1.492   4.379   3.081
 1777SOL    HW3 7139   1.579   4.500   3.055
 1777SOL    MW4 7140   1.561   4.416   3.043
 1778SOL     OW 7141   2.019   4.587   3.123
 1778SOL    HW2 7142   2.015   4.602   3.217
 1778SOL    HW3 7143   1.947   4.638   3.087
 1778SOL    MW4 7144   2.009   4.596   3.131
 1779SOL     OW 7145   1.815   0.111   3.037
 1779SOL    HW2 7146   1.732   0.073   3.067
 1779SOL    HW3 7147   1.811   0.104   2.942
 1779SOL    MW4 7148   1.803   0.105   3.029
 1780SOL     OW 7149   1.777   0.361   3.156
 1780SOL    HW2 7150   1.788   0.273   3.119
 1780SOL    HW3 7151   1.709   0.401   3.102
 1780SOL    MW4 7152   1.770   0.355   3.144
 1781SOL     OW 7153   2.001   0.448   3.013
 1781SOL    HW2 7154   1.920   0.405   3.040
 1781SOL    HW3 7155   1.995   0.451   2.917
 1781SOL    MW4 7156   1.989   0.442   3.004
 1782SOL     OW 7157   2.015   0.716   3.098
 1782SOL    HW2 7158   1.928   0.752   3.085
 1782SOL    HW3 7159   2.005   0.622   3.086
 1782SOL    MW4 7160   2.002   0.708   3.095
 1783SOL     OW 7161   1.800   0.869   3.048
 1783SOL    HW2 7162   1.730   0.810   3.076
 1783SOL    HW3 7163   1.799   0.864   2.952
 1783SOL    MW4 7164   1.791   0.860   3.039
 1784SOL     OW 7165   1.795   1.134   3.134
 1784SOL    HW2 7166   1.783   1.146   3.228
 1784SOL    HW3 7167   1.795   1.039   3.122
 1784SOL    MW4 7168   1.794   1.123   3.145
 1785SOL     OW 7169   2.027   1.271   3.060
 1785SOL    HW2 7170   2.101   1.238   3.111
 1785SOL    HW3 7171   1.955   1.213   3.084
 1785SOL    MW4 7172   2.027   1.259   3.070
 1786SOL     OW 7173   2.015   1.537   3.135
 1786SOL    HW2 7174   2.008   1.546   3.230
 1786SOL    HW3 7175   2.017   1.442   3.121
 1786SOL    MW4 7176   2.014   1.525   3.146
 1787SOL     OW 7177   1.772   1.630   3.032
 1787SOL    HW2 7178   1.779   1.718   3.070
 1787SOL    HW3 7179   1.848   1.583   3.066
 1787SOL    MW4 7180   1.783   1.635   3.042
 1788SOL     OW 7181   1.787   1.902   3.109
 1788SOL    HW2 7182   1.863   1.959   3.099
 1788SOL    HW3 7183   1.712   1.957   3.084
 1788SOL    MW4 7184   1.787   1.916   3.104
 1789SOL     OW 7185   1.998   2.093   3.020
 1789SOL    HW2 7186   2.079   2.058   3.058
 1789SOL    HW3 7187   1.984   2.176   3.066
 1789SOL    MW4 7188   2.007   2.099   3.031
 1790SOL     OW 7189   2.005   2.353   3.111
 1790SOL    HW2 7190   2.085   2.363   3.060
 1790SOL    HW3 7191   1.940   2.407   3.066
 1790SOL    MW4 7192   2.007   2.362   3.099
 1791SOL     OW 7193   1.768   2.467   2.993
 1791SOL    HW2 7194   1.753   2.547   3.043
 1791SOL    HW3 7195   1.698   2.408   3.020
 1791SOL    MW4 7196   1.757   2.470   3.003
 1792SOL     OW 7197   1.771   2.729   3.116
 1792SOL    HW2 7198   1.772   2.738   3.211
 1792SOL    HW3 7199   1.853   2.770   3.087
 1792SOL    MW4 7200   1.782   2.736   3.125
 1793SOL     OW 7201   2.023   2.812   3.038
 1793SOL    HW2 7202   2.033   2.898   3.080
 1793SOL    HW3 7203   2.016   2.832   2.944
 1793SOL    MW4 7204   2.024   2.826   3.031
 1794SOL     OW 7205   2.061   3.057   3.129
 1794SOL    HW2 7206   2.058   3.088   3.220
 1794SOL    HW3 7207   1.991   3.107   3.085
 1794SOL    MW4 7208   2.051   3.068   3.135
 1795SOL     OW 7209   1.855   3.171   2.986
 1795SOL    HW2 7210   1.767   3.146   3.014
 1795SOL    HW3 7211   1.844   3.198   2.895
 1795SOL    MW4 7212   1.842   3.171   2.978
 1796SOL     OW 7213   1.798   3.449   3.139
 1796SOL    HW2 7214   1.803   3.362   3.098
 1796SOL    HW3 7215   1.717   3.487   3.105
 1796SOL    MW4 7216   1.788   3.442   3.129
 1797SOL     OW 7217   2.014   3.560   2.988
 1797SOL    HW2 7218   2.026   3.650   3.019
 1797SOL    HW3 7219   1.933   3.531   3.029
 1797SOL    MW4 7220   2.004   3.568   2.997
 1798SOL     OW 7221   2.038   3.821   3.107
 1798SOL    HW2 7222   2.042   3.830   3.202
 1798SOL    HW3 7223   1.953   3.858   3.083
 1798SOL    MW4 7224   2.027   3.827   3.116
 1799SOL     OW 7225   1.812   3.961   3.025
 1799SOL    HW2 7226   1.794   4.051   3.052
 1799SOL    HW3 7227   1.802   3.961   2.930
 1799SOL    MW4 7228   1.808   3.973   3.016
 1800SOL     OW 7229   1.772   4.223   3.100
 1800SOL    HW2 7230   1.851   4.265   3.065
 1800SOL    HW3 7231   1.701   4.283   3.077
 1800SOL    MW4 7232   1.773   4.237   3.092
 1801SOL     OW 7233   2.006   4.330   3.023
 1801SOL    HW2 7234   2.017   4.421   3.051
 1801SOL    HW3 7235   2.018   4.333   2.928
 1801SOL    MW4 7236   2.009   4.343   3.014
 1802SOL     OW 7237   2.453   4.626   3.114
 1802SOL    HW2 7238   2.441   4.533   3.093
 1802SOL    HW3 7239   2.381   4.670   3.068
 1802SOL    MW4 7240   2.442   4.620   3.105
 1803SOL     OW 7241   2.224   0.051   2.983
 1803SOL    HW2 7242   2.219   0.142   3.012
 1803SOL    HW3 7243   2.159   0.005   3.036
 1803SOL    MW4 7244   2.215   0.057   2.994
 1804SOL     OW 7245   2.227   0.303   3.089
 1804SOL    HW2 7246   2.219   0.298   3.184
 1804SOL    HW3 7247   2.159   0.365   3.063
 1804SOL    MW4 7248   2.217   0.311   3.098
 1805SOL     OW 7249   2.444   0.484   3.024
 1805SOL    HW2 7250   2.368   0.435   3.056
 1805SOL    HW3 7251   2.425   0.499   2.932
 1805SOL    MW4 7252   2.431   0.479   3.016
 1806SOL     OW 7253   2.485   0.748   3.149
 1806SOL    HW2 7254   2.547   0.774   3.080
 1806SOL    HW3 7255   2.459   0.659   3.125
 1806SOL    MW4 7256   2.490   0.740   3.137
 1807SOL     OW 7257   2.258   0.859   3.027
 1807SOL    HW2 7258   2.329   0.828   3.083
 1807SOL    HW3 7259   2.179   0.823   3.067
 1807SOL    MW4 7260   2.257   0.850   3.040
 1808SOL     OW 7261   2.261   1.126   3.116
 1808SOL    HW2 7262   2.252   1.117   3.211
 1808SOL    HW3 7263   2.237   1.040   3.082
 1808SOL    MW4 7264   2.257   1.113   3.124
 1809SOL     OW 7265   2.463   1.273   2.970
 1809SOL    HW2 7266   2.406   1.206   3.009
 1809SOL    HW3 7267   2.444   1.269   2.877
 1809SOL    MW4 7268   2.453   1.264   2.963
 1810SOL     OW 7269   2.431   1.522   3.116
 1810SOL    HW2 7270   2.365   1.584   3.085
 1810SOL    HW3 7271   2.424   1.448   3.056
 1810SOL    MW4 7272   2.421   1.520   3.104
 1811SOL     OW 7273   2.228   1.693   3.057
 1811SOL    HW2 7274   2.147   1.644   3.073
 1811SOL    HW3 7275   2.240   1.687   2.962
 1811SOL    MW4 7276   2.219   1.686   3.046
 1812SOL     OW 7277   2.225   1.956   3.131
 1812SOL    HW2 7278   2.313   1.989   3.113
 1812SOL    HW3 7279   2.225   1.866   3.098
 1812SOL    MW4 7280   2.236   1.949   3.125
 1813SOL     OW 7281   2.499   2.035   3.065
 1813SOL    HW2 7282   2.580   1.986   3.078
 1813SOL    HW3 7283   2.486   2.035   2.970
 1813SOL    MW4 7284   2.508   2.029   3.054
 1814SOL     OW 7285   2.479   2.304   3.127
 1814SOL    HW2 7286   2.461   2.323   3.219
 1814SOL    HW3 7287   2.485   2.209   3.122
 1814SOL    MW4 7288   2.478   2.294   3.138
 1815SOL     OW 7289   2.263   2.395   2.996
 1815SOL    HW2 7290   2.260   2.474   3.050
 1815SOL    HW3 7291   2.342   2.349   3.025
 1815SOL    MW4 7292   2.273   2.399   3.007
 1816SOL     OW 7293   2.248   2.655   3.095
 1816SOL    HW2 7294   2.324   2.702   3.060
 1816SOL    HW3 7295   2.173   2.703   3.060
 1816SOL    MW4 7296   2.248   2.668   3.086
 1817SOL     OW 7297   2.475   2.800   3.002
 1817SOL    HW2 7298   2.457   2.885   3.042
 1817SOL    HW3 7299   2.466   2.816   2.908
 1817SOL    MW4 7300   2.472   2.813   2.995
 1818SOL     OW 7301   2.458   3.056   3.086
 1818SOL    HW2 7302   2.532   3.115   3.072
 1818SOL    HW3 7303   2.383   3.103   3.048
 1818SOL    MW4 7304   2.458   3.070   3.079
 1819SOL     OW 7305   2.246   3.219   2.994
 1819SOL    HW2 7306   2.243   3.303   3.040
 1819SOL    HW3 7307   2.178   3.166   3.037
 1819SOL    MW4 7308   2.236   3.223   3.006
 1820SOL     OW 7309   2.254   3.459   3.132
 1820SOL    HW2 7310   2.322   3.509   3.087
 1820SOL    HW3 7311   2.172   3.489   3.094
 1820SOL    MW4 7312   2.252   3.469   3.121
 1821SOL     OW 7313   2.458   3.598   2.984
 1821SOL    HW2 7314   2.536   3.557   3.020
 1821SOL    HW3 7315   2.457   3.686   3.022
 1821SOL    MW4 7316   2.468   3.604   2.994
 1822SOL     OW 7317   2.449   3.828   3.121
 1822SOL    HW2 7318   2.448   3.850   3.214
 1822SOL    HW3 7319   2.528   3.869   3.087
 1822SOL    MW4 7320   2.459   3.836   3.129
 1823SOL     OW 7321   2.258   3.983   3.010
 1823SOL    HW2 7322   2.334   3.938   3.049
 1823SOL    HW3 7323   2.185   3.923   3.025
 1823SOL    MW4 7324   2.259   3.969   3.017
 1824SOL     OW 7325   2.230   4.230   3.144
 1824SOL    HW2 7326   2.237   4.142   3.108
 1824SOL    HW3 7327   2.152   4.267   3.102
 1824SOL    MW4 7328   2.221   4.224   3.134
 1825SOL     OW 7329   2.475   4.358   3.060
 1825SOL    HW2 7330   2.392   4.321   3.090
 1825SOL    HW3 7331   2.468   4.357   2.964
 1825SOL    MW4 7332   2.463   4.353   3.051
 1826SOL     OW 7333   2.894   4.636   3.109
 1826SOL    HW2 7334   2.979   4.677   3.091
 1826SOL    HW3 7335   2.895   4.555   3.058
 1826SOL    MW4 7336   2.906   4.631   3.100
 1827SOL     OW 7337   2.688   0.115   3.017
 1827SOL    HW2 7338   2.757   0.054   3.041
 1827SOL    HW3 7339   2.607   0.072   3.043
 1827SOL    MW4 7340   2.686   0.102   3.023
 1828SOL     OW 7341   2.699   0.377   3.089
 1828SOL    HW2 7342   2.699   0.281   3.084
 1828SOL    HW3 7343   2.609   0.402   3.068
 1828SOL    MW4 7344   2.687   0.367   3.085
 1829SOL     OW 7345   2.927   0.501   3.011
 1829SOL    HW2 7346   2.844   0.460   3.033
 1829SOL    HW3 7347   2.926   0.507   2.915
 1829SOL    MW4 7348   2.916   0.497   3.001
 1830SOL     OW 7349   2.935   0.762   3.099
 1830SOL    HW2 7350   2.933   0.767   3.195
 1830SOL    HW3 7351   2.955   0.671   3.080
 1830SOL    MW4 7352   2.938   0.751   3.109
 1831SOL     OW 7353   2.690   0.887   2.985
 1831SOL    HW2 7354   2.675   0.968   3.034
 1831SOL    HW3 7355   2.761   0.843   3.032
 1831SOL    MW4 7356   2.698   0.892   2.998
 1832SOL     OW 7357   2.656   1.142   3.117
 1832SOL    HW2 7358   2.743   1.179   3.098
 1832SOL    HW3 7359   2.597   1.192   3.061
 1832SOL    MW4 7360   2.660   1.154   3.107
 1833SOL     OW 7361   2.902   1.237   3.051
 1833SOL    HW2 7362   2.989   1.205   3.073
 1833SOL    HW3 7363   2.899   1.326   3.085
 1833SOL    MW4 7364   2.913   1.244   3.058
 1834SOL     OW 7365   2.884   1.513   3.128
 1834SOL    HW2 7366   2.892   1.519   3.223
 1834SOL    HW3 7367   2.955   1.567   3.094
 1834SOL    MW4 7368   2.894   1.521   3.136
 1835SOL     OW 7369   2.658   1.630   2.993
 1835SOL    HW2 7370   2.720   1.568   3.031
 1835SOL    HW3 7371   2.574   1.609   3.034
 1835SOL    MW4 7372   2.655   1.619   3.003
 1836SOL     OW 7373   2.720   1.884   3.135
 1836SOL    HW2 7374   2.780   1.928   3.075
 1836SOL    HW3 7375   2.697   1.803   3.090
 1836SOL    MW4 7376   2.725   1.879   3.121
 1837SOL     OW 7377   2.897   2.060   3.001
 1837SOL    HW2 7378   2.912   2.146   3.042
 1837SOL    HW3 7379   2.897   2.079   2.907
 1837SOL    MW4 7380   2.899   2.074   2.994
 1838SOL     OW 7381   2.897   2.322   3.102
 1838SOL    HW2 7382   2.980   2.357   3.071
 1838SOL    HW3 7383   2.831   2.358   3.042
 1838SOL    MW4 7384   2.899   2.331   3.090
 1839SOL     OW 7385   2.675   2.455   2.982
 1839SOL    HW2 7386   2.702   2.537   3.024
 1839SOL    HW3 7387   2.607   2.420   3.039
 1839SOL    MW4 7388   2.670   2.461   2.995
 1840SOL     OW 7389   2.678   2.685   3.128
 1840SOL    HW2 7390   2.664   2.692   3.223
 1840SOL    HW3 7391   2.604   2.732   3.090
 1840SOL    MW4 7392   2.666   2.692   3.136
 1841SOL     OW 7393   2.879   2.846   3.004
 1841SOL    HW2 7394   2.960   2.808   3.038
 1841SOL    HW3 7395   2.809   2.803   3.054
 1841SOL    MW4 7396   2.880   2.835   3.015
 1842SOL     OW 7397   2.917   3.123   3.064
 1842SOL    HW2 7398   2.838   3.174   3.042
 1842SOL    HW3 7399   2.898   3.035   3.031
 1842SOL    MW4 7400   2.904   3.118   3.057
 1843SOL     OW 7401   2.674   3.218   3.014
 1843SOL    HW2 7402   2.673   3.311   3.039
 1843SOL    HW3 7403   2.663   3.220   2.919
 1843SOL    MW4 7404   2.673   3.231   3.005
 1844SOL     OW 7405   2.689   3.479   3.092
 1844SOL    HW2 7406   2.699   3.503   3.185
 1844SOL    HW3 7407   2.764   3.519   3.049
 1844SOL    MW4 7408   2.700   3.488   3.099
 1845SOL     OW 7409   2.906   3.592   2.955
 1845SOL    HW2 7410   2.992   3.565   2.989
 1845SOL    HW3 7411   2.902   3.686   2.974
 1845SOL    MW4 7412   2.917   3.601   2.962
 1846SOL     OW 7413   2.903   3.869   3.079
 1846SOL    HW2 7414   2.910   3.868   3.175
 1846SOL    HW3 7415   2.814   3.898   3.062
 1846SOL    MW4 7416   2.892   3.873   3.089
 1847SOL     OW 7417   2.659   3.990   3.010
 1847SOL    HW2 7418   2.668   4.079   3.043
 1847SOL    HW3 7419   2.688   3.994   2.919
 1847SOL    MW4 7420   2.664   4.002   3.002
 1848SOL     OW 7421   2.702   4.237   3.120
 1848SOL    HW2 7422   2.716   4.240   3.215
 1848SOL    HW3 7423   2.620   4.285   3.106
 1848SOL    MW4 7424   2.693   4.244   3.131
 1849SOL     OW 7425   2.908   4.379   2.979
 1849SOL    HW2 7426   2.990   4.358   3.024
 1849SOL    HW3 7427   2.841   4.335   3.031
 1849SOL    MW4 7428   2.910   4.371   2.992
 1850SOL     OW 7429   3.310   4.635   3.137
 1850SOL    HW2 7430   3.391   4.681   3.112
 1850SOL    HW3 7431   3.317   4.551   3.092
 1850SOL    MW4 7432   3.322   4.630   3.128
 1851SOL     OW 7433   3.114   0.105   3.003
 1851SOL    HW2 7434   3.113   0.197   3.028
 1851SOL    HW3 7435   3.184   0.066   3.056
 1851SOL    MW4 7436   3.123   0.112   3.013
 1852SOL     OW 7437   3.146   0.373   3.098
 1852SOL    HW2 7438   3.221   0.416   3.058
 1852SOL    HW3 7439   3.072   0.430   3.077
 1852SOL    MW4 7440   3.146   0.386   3.090
 1853SOL     OW 7441   3.383   0.504   3.022
 1853SOL    HW2 7442   3.450   0.445   3.057
 1853SOL    HW3 7443   3.406   0.515   2.930
 1853SOL    MW4 7444   3.395   0.498   3.015
 1854SOL     OW 7445   3.338   0.772   3.094
 1854SOL    HW2 7446   3.338   0.778   3.190
 1854SOL    HW3 7447   3.340   0.678   3.076
 1854SOL    MW4 7448   3.338   0.760   3.105
 1855SOL     OW 7449   3.137   0.909   2.977
 1855SOL    HW2 7450   3.206   0.854   3.014
 1855SOL    HW3 7451   3.056   0.875   3.016
 1855SOL    MW4 7452   3.135   0.897   2.987
 1856SOL     OW 7453   3.155   1.147   3.108
 1856SOL    HW2 7454   3.205   1.213   3.061
 1856SOL    HW3 7455   3.170   1.066   3.060
 1856SOL    MW4 7456   3.163   1.145   3.095
 1857SOL     OW 7457   3.345   1.320   3.002
 1857SOL    HW2 7458   3.417   1.275   3.046
 1857SOL    HW3 7459   3.336   1.403   3.049
 1857SOL    MW4 7460   3.353   1.325   3.014
 1858SOL     OW 7461   3.325   1.553   3.154
 1858SOL    HW2 7462   3.357   1.556   3.244
 1858SOL    HW3 7463   3.394   1.595   3.103
 1858SOL    MW4 7464   3.338   1.559   3.159
 1859SOL     OW 7465   3.091   1.671   3.057
 1859SOL    HW2 7466   3.171   1.633   3.093
 1859SOL    HW3 7467   3.111   1.685   2.964
 1859SOL    MW4 7468   3.105   1.668   3.049
 1860SOL     OW 7469   3.108   1.935   3.129
 1860SOL    HW2 7470   3.078   1.845   3.136
 1860SOL    HW3 7471   3.044   1.977   3.071
 1860SOL    MW4 7472   3.096   1.929   3.122
 1861SOL     OW 7473   3.330   2.052   3.004
 1861SOL    HW2 7474   3.414   2.018   3.034
 1861SOL    HW3 7475   3.265   1.995   3.046
 1861SOL    MW4 7476   3.332   2.040   3.014
 1862SOL     OW 7477   3.357   2.329   3.081
 1862SOL    HW2 7478   3.365   2.342   3.175
 1862SOL    HW3 7479   3.354   2.234   3.070
 1862SOL    MW4 7480   3.358   2.319   3.092
 1863SOL     OW 7481   3.124   2.470   2.999
 1863SOL    HW2 7482   3.207   2.433   3.030
 1863SOL    HW3 7483   3.128   2.464   2.904
 1863SOL    MW4 7484   3.135   2.464   2.991
 1864SOL     OW 7485   3.128   2.732   3.119
 1864SOL    HW2 7486   3.128   2.744   3.214
 1864SOL    HW3 7487   3.120   2.638   3.106
 1864SOL    MW4 7488   3.127   2.722   3.130
 1865SOL     OW 7489   3.367   2.827   3.025
 1865SOL    HW2 7490   3.366   2.919   3.052
 1865SOL    HW3 7491   3.287   2.790   3.063
 1865SOL    MW4 7492   3.356   2.834   3.034
 1866SOL     OW 7493   3.405   3.092   3.114
 1866SOL    HW2 7494   3.395   3.106   3.209
 1866SOL    HW3 7495   3.327   3.133   3.076
 1866SOL    MW4 7496   3.393   3.099   3.122
 1867SOL     OW 7497   3.169   3.217   3.009
 1867SOL    HW2 7498   3.090   3.170   3.034
 1867SOL    HW3 7499   3.167   3.218   2.913
 1867SOL    MW4 7500   3.158   3.211   3.000
 1868SOL     OW 7501   3.136   3.491   3.082
 1868SOL    HW2 7502   3.220   3.528   3.055
 1868SOL    HW3 7503   3.148   3.396   3.076
 1868SOL    MW4 7504   3.149   3.483   3.078
 1869SOL     OW 7505   3.373   3.640   2.995
 1869SOL    HW2 7506   3.450   3.602   3.037
 1869SOL    HW3 7507   3.360   3.723   3.041
 1869SOL    MW4 7508   3.381   3.646   3.006
 1870SOL     OW 7509   3.339   3.892   3.134
 1870SOL    HW2 7510   3.325   3.907   3.228
 1870SOL    HW3 7511   3.267   3.940   3.093
 1870SOL    MW4 7512   3.328   3.901   3.141
 1871SOL     OW 7513   3.125   4.011   3.005
 1871SOL    HW2 7514   3.046   3.962   3.029
 1871SOL    HW3 7515   3.141   3.987   2.914
 1871SOL    MW4 7516   3.117   4.002   2.996
 1872SOL     OW 7517   3.144   4.258   3.125
 1872SOL    HW2 7518   3.154   4.244   3.219
 1872SOL    HW3 7519   3.146   4.170   3.087
 1872SOL    MW4 7520   3.145   4.245   3.132
 1873SOL     OW 7521   3.361   4.390   3.050
 1873SOL    HW2 7522   3.428   4.330   3.082
 1873SOL    HW3 7523   3.279   4.352   3.081
 1873SOL    MW4 7524   3.359   4.377   3.058
 1874SOL     OW 7525   3.829   0.003   3.178
 1874SOL    HW2 7526   3.830  -0.092   3.167
 1874SOL    HW3 7527   3.743   0.030   3.146
 1874SOL    MW4 7528   3.818  -0.006   3.172
 1875SOL     OW 7529   3.557   0.088   3.045
 1875SOL    HW2 7530   3.547   0.178   3.076
 1875SOL    HW3 7531   3.568   0.097   2.950
 1875SOL    MW4 7532   3.557   0.101   3.037
 1876SOL     OW 7533   3.573   0.346   3.130
 1876SOL    HW2 7534   3.576   0.368   3.223
 1876SOL    HW3 7535   3.644   0.396   3.091
 1876SOL    MW4 7536   3.583   0.355   3.137
 1877SOL     OW 7537   3.786   0.483   3.021
 1877SOL    HW2 7538   3.867   0.442   3.051
 1877SOL    HW3 7539   3.796   0.575   3.046
 1877SOL    MW4 7540   3.798   0.490   3.028
 1878SOL     OW 7541   3.791   0.745   3.104
 1878SOL    HW2 7542   3.822   0.756   3.194
 1878SOL    HW3 7543   3.854   0.795   3.051
 1878SOL    MW4 7544   3.804   0.753   3.109
 1879SOL     OW 7545   3.575   0.923   3.067
 1879SOL    HW2 7546   3.656   0.873   3.075
 1879SOL    HW3 7547   3.506   0.862   3.092
 1879SOL    MW4 7548   3.576   0.909   3.071
 1880SOL     OW 7549   3.557   1.204   3.142
 1880SOL    HW2 7550   3.635   1.252   3.114
 1880SOL    HW3 7551   3.578   1.112   3.124
 1880SOL    MW4 7552   3.570   1.198   3.136
 1881SOL     OW 7553   3.795   1.287   3.015
 1881SOL    HW2 7554   3.785   1.381   3.027
 1881SOL    HW3 7555   3.784   1.273   2.921
 1881SOL    MW4 7556   3.792   1.298   3.004
 1882SOL     OW 7557   3.786   1.571   3.109
 1882SOL    HW2 7558   3.804   1.596   3.200
 1882SOL    HW3 7559   3.697   1.601   3.093
 1882SOL    MW4 7560   3.777   1.578   3.119
 1883SOL     OW 7561   3.536   1.669   3.030
 1883SOL    HW2 7562   3.558   1.759   3.050
 1883SOL    HW3 7563   3.538   1.665   2.934
 1883SOL    MW4 7564   3.539   1.680   3.020
 1884SOL     OW 7565   3.572   1.948   3.104
 1884SOL    HW2 7566   3.571   1.974   3.196
 1884SOL    HW3 7567   3.653   1.985   3.069
 1884SOL    MW4 7568   3.583   1.956   3.111
 1885SOL     OW 7569   3.833   2.063   3.026
 1885SOL    HW2 7570   3.823   2.154   3.053
 1885SOL    HW3 7571   3.820   2.065   2.931
 1885SOL    MW4 7572   3.830   2.075   3.017
 1886SOL     OW 7573   3.787   2.307   3.118
 1886SOL    HW2 7574   3.780   2.321   3.212
 1886SOL    HW3 7575   3.718   2.361   3.080
 1886SOL    MW4 7576   3.777   2.316   3.126
 1887SOL     OW 7577   3.593   2.447   2.991
 1887SOL    HW2 7578   3.592   2.535   3.027
 1887SOL    HW3 7579   3.518   2.403   3.031
 1887SOL    MW4 7580   3.583   2.453   3.001
 1888SOL     OW 7581   3.601   2.695   3.088
 1888SOL    HW2 7582   3.672   2.750   3.055
 1888SOL    HW3 7583   3.521   2.740   3.062
 1888SOL    MW4 7584   3.600   2.708   3.080
 1889SOL     OW 7585   3.810   2.856   3.008
 1889SOL    HW2 7586   3.800   2.947   3.035
 1889SOL    HW3 7587   3.795   2.857   2.913
 1889SOL    MW4 7588   3.807   2.868   2.999
 1890SOL     OW 7589   3.805   3.110   3.118
 1890SOL    HW2 7590   3.884   3.157   3.091
 1890SOL    HW3 7591   3.733   3.166   3.089
 1890SOL    MW4 7592   3.806   3.124   3.110
 1891SOL     OW 7593   3.593   3.264   3.007
 1891SOL    HW2 7594   3.521   3.209   3.039
 1891SOL    HW3 7595   3.590   3.255   2.912
 1891SOL    MW4 7596   3.583   3.256   2.999
 1892SOL     OW 7597   3.610   3.514   3.106
 1892SOL    HW2 7598   3.690   3.538   3.060
 1892SOL    HW3 7599   3.596   3.422   3.082
 1892SOL    MW4 7600   3.619   3.505   3.096
 1893SOL     OW 7601   3.839   3.618   2.979
 1893SOL    HW2 7602   3.828   3.709   3.006
 1893SOL    HW3 7603   3.835   3.620   2.884
 1893SOL    MW4 7604   3.837   3.630   2.970
 1894SOL     OW 7605   3.826   3.887   3.080
 1894SOL    HW2 7606   3.809   3.879   3.174
 1894SOL    HW3 7607   3.756   3.943   3.047
 1894SOL    MW4 7608   3.815   3.893   3.088
 1895SOL     OW 7609   3.597   4.017   3.012
 1895SOL    HW2 7610   3.520   3.974   3.049
 1895SOL    HW3 7611   3.594   3.996   2.919
 1895SOL    MW4 7612   3.587   4.008   3.005
 1896SOL     OW 7613   3.572   4.238   3.155
 1896SOL    HW2 7614   3.650   4.290   3.137
 1896SOL    HW3 7615   3.578   4.163   3.096
 1896SOL    MW4 7616   3.583   4.235   3.145
 1897SOL     OW 7617   3.787   4.393   3.070
 1897SOL    HW2 7618   3.871   4.348   3.077
 1897SOL    HW3 7619   3.775   4.408   2.977
 1897SOL    MW4 7620   3.797   4.389   3.059
 1898SOL     OW 7621   4.229   4.661   3.152
 1898SOL    HW2 7622   4.237   4.655   3.247
 1898SOL    HW3 7623   4.217   4.570   3.123
 1898SOL    MW4 7624   4.228   4.648   3.161
 1899SOL     OW 7625   4.012   0.122   3.009
 1899SOL    HW2 7626   4.098   0.100   3.047
 1899SOL    HW3 7627   3.949   0.080   3.068
 1899SOL    MW4 7628   4.015   0.113   3.022
 1900SOL     OW 7629   4.005   0.367   3.146
 1900SOL    HW2 7630   4.089   0.413   3.138
 1900SOL    HW3 7631   4.017   0.285   3.098
 1900SOL    MW4 7632   4.018   0.362   3.139
 1901SOL     OW 7633   4.250   0.491   3.077
 1901SOL    HW2 7634   4.254   0.583   3.102
 1901SOL    HW3 7635   4.263   0.492   2.982
 1901SOL    MW4 7636   4.252   0.503   3.067
 1902SOL     OW 7637   4.227   0.779   3.137
 1902SOL    HW2 7638   4.160   0.821   3.084
 1902SOL    HW3 7639   4.310   0.812   3.101
 1902SOL    MW4 7640   4.229   0.789   3.125
 1903SOL     OW 7641   3.992   0.902   2.985
 1903SOL    HW2 7642   4.000   0.985   3.033
 1903SOL    HW3 7643   4.012   0.925   2.895
 1903SOL    MW4 7644   3.996   0.916   2.980
 1904SOL     OW 7645   3.994   1.157   3.119
 1904SOL    HW2 7646   4.005   1.186   3.210
 1904SOL    HW3 7647   3.920   1.208   3.086
 1904SOL    MW4 7648   3.986   1.167   3.127
 1905SOL     OW 7649   4.220   1.318   3.032
 1905SOL    HW2 7650   4.147   1.260   3.053
 1905SOL    HW3 7651   4.217   1.327   2.937
 1905SOL    MW4 7652   4.210   1.311   3.023
 1906SOL     OW 7653   4.262   1.563   3.133
 1906SOL    HW2 7654   4.192   1.612   3.091
 1906SOL    HW3 7655   4.243   1.471   3.111
 1906SOL    MW4 7656   4.250   1.557   3.125
 1907SOL     OW 7657   4.032   1.679   3.008
 1907SOL    HW2 7658   4.033   1.765   3.049
 1907SOL    HW3 7659   3.963   1.631   3.054
 1907SOL    MW4 7660   4.023   1.684   3.020
 1908SOL     OW 7661   4.041   1.920   3.132
 1908SOL    HW2 7662   4.125   1.963   3.121
 1908SOL    HW3 7663   3.979   1.974   3.082
 1908SOL    MW4 7664   4.044   1.933   3.124
 1909SOL     OW 7665   4.256   2.067   3.040
 1909SOL    HW2 7666   4.239   2.154   3.075
 1909SOL    HW3 7667   4.227   2.072   2.949
 1909SOL    MW4 7668   4.250   2.079   3.033
 1910SOL     OW 7669   4.237   2.328   3.137
 1910SOL    HW2 7670   4.174   2.379   3.086
 1910SOL    HW3 7671   4.322   2.358   3.107
 1910SOL    MW4 7672   4.240   2.339   3.126
 1911SOL     OW 7673   4.030   2.467   3.024
 1911SOL    HW2 7674   4.023   2.553   3.065
 1911SOL    HW3 7675   3.951   2.420   3.052
 1911SOL    MW4 7676   4.019   2.472   3.033
 1912SOL     OW 7677   4.019   2.713   3.129
 1912SOL    HW2 7678   4.010   2.714   3.224
 1912SOL    HW3 7679   3.941   2.759   3.097
 1912SOL    MW4 7680   4.008   2.720   3.137
 1913SOL     OW 7681   4.247   2.797   3.001
 1913SOL    HW2 7682   4.165   2.761   3.035
 1913SOL    HW3 7683   4.316   2.752   3.051
 1913SOL    MW4 7684   4.245   2.786   3.012
 1914SOL     OW 7685   4.271   3.070   3.109
 1914SOL    HW2 7686   4.196   3.120   3.078
 1914SOL    HW3 7687   4.255   2.981   3.076
 1914SOL    MW4 7688   4.259   3.065   3.101
 1915SOL     OW 7689   4.064   3.262   3.054
 1915SOL    HW2 7690   4.091   3.346   3.090
 1915SOL    HW3 7691   4.046   3.280   2.962
 1915SOL    MW4 7692   4.065   3.275   3.046
 1916SOL     OW 7693   4.087   3.532   3.132
 1916SOL    HW2 7694   4.072   3.542   3.226
 1916SOL    HW3 7695   4.010   3.571   3.091
 1916SOL    MW4 7696   4.075   3.538   3.139
 1917SOL     OW 7697   4.296   3.663   3.022
 1917SOL    HW2 7698   4.271   3.751   3.052
 1917SOL    HW3 7699   4.226   3.606   3.053
 1917SOL    MW4 7700   4.284   3.667   3.030
 1918SOL     OW 7701   4.258   3.894   3.161
 1918SOL    HW2 7702   4.188   3.935   3.110
 1918SOL    HW3 7703   4.337   3.943   3.138
 1918SOL    MW4 7704   4.259   3.906   3.151
 1919SOL     OW 7705   4.059   4.019   3.020
 1919SOL    HW2 7706   4.045   4.106   3.057
 1919SOL    HW3 7707   3.982   3.969   3.048
 1919SOL    MW4 7708   4.047   4.024   3.029
 1920SOL     OW 7709   4.019   4.274   3.139
 1920SOL    HW2 7710   4.018   4.271   3.235
 1920SOL    HW3 7711   4.102   4.316   3.117
 1920SOL    MW4 7712   4.030   4.279   3.149
 1921SOL     OW 7713   4.239   4.401   3.049
 1921SOL    HW2 7714   4.320   4.353   3.066
 1921SOL    HW3 7715   4.235   4.409   2.954
 1921SOL    MW4 7716   4.249   4.396   3.039
 1922SOL     OW 7717   0.213   4.659   3.415
 1922SOL    HW2 7718   0.292   4.701   3.450
 1922SOL    HW3 7719   0.223   4.567   3.437
 1922SOL    MW4 7720   0.225   4.652   3.423
 1923SOL     OW 7721   4.466   0.084   3.545
 1923SOL    HW2 7722   4.478   0.176   3.523
 1923SOL    HW3 7723   4.540   0.039   3.504
 1923SOL    MW4 7724   4.478   0.090   3.537
 1924SOL     OW 7725   4.480   0.350   3.449
 1924SOL    HW2 7726   4.411   0.403   3.490
 1924SOL    HW3 7727   4.560   0.400   3.464
 1924SOL    MW4 7728   4.481   0.364   3.457
 1925SOL     OW 7729   0.216   0.500   3.458
 1925SOL    HW2 7730   0.287   0.445   3.423
 1925SOL    HW3 7731   0.219   0.579   3.405
 1925SOL    MW4 7732   0.226   0.503   3.446
 1926SOL     OW 7733   0.220   0.745   3.331
 1926SOL    HW2 7734   0.296   0.782   3.377
 1926SOL    HW3 7735   0.144   0.779   3.379
 1926SOL    MW4 7736   0.220   0.754   3.344
 1927SOL     OW 7737   4.482   0.892   3.475
 1927SOL    HW2 7738   4.485   0.907   3.570
 1927SOL    HW3 7739   4.459   0.977   3.438
 1927SOL    MW4 7740   4.479   0.905   3.483
 1928SOL     OW 7741   4.437   1.166   3.400
 1928SOL    HW2 7742   4.525   1.189   3.429
 1928SOL    HW3 7743   4.439   1.176   3.305
 1928SOL    MW4 7744   4.449   1.170   3.392
 1929SOL     OW 7745   0.200   1.269   3.486
 1929SOL    HW2 7746   0.266   1.208   3.453
 1929SOL    HW3 7747   0.226   1.354   3.450
 1929SOL    MW4 7748   0.212   1.272   3.477
 1930SOL     OW 7749   0.222   1.509   3.367
 1930SOL    HW2 7750   0.301   1.559   3.388
 1930SOL    HW3 7751   0.216   1.513   3.271
 1930SOL    MW4 7752   0.232   1.516   3.357
 1931SOL     OW 7753   0.032   1.677   3.499
 1931SOL    HW2 7754  -0.051   1.630   3.486
 1931SOL    HW3 7755   0.098   1.619   3.462
 1931SOL    MW4 7756   0.030   1.663   3.493
 1932SOL     OW 7757   4.481   1.930   3.397
 1932SOL    HW2 7758   4.509   1.844   3.430
 1932SOL    HW3 7759   4.506   1.928   3.304
 1932SOL    MW4 7760   4.488   1.918   3.389
 1933SOL     OW 7761   0.189   2.095   3.491
 1933SOL    HW2 7762   0.198   2.082   3.586
 1933SOL    HW3 7763   0.121   2.033   3.465
 1933SOL    MW4 7764   0.181   2.085   3.500
 1934SOL     OW 7765   0.203   2.354   3.438
 1934SOL    HW2 7766   0.111   2.374   3.426
 1934SOL    HW3 7767   0.206   2.260   3.454
 1934SOL    MW4 7768   0.192   2.344   3.439
 1935SOL     OW 7769   4.446   2.482   3.483
 1935SOL    HW2 7770   4.467   2.459   3.574
 1935SOL    HW3 7771   4.377   2.420   3.458
 1935SOL    MW4 7772   4.440   2.470   3.492
 1936SOL     OW 7773   0.032   2.749   3.398
 1936SOL    HW2 7774   0.105   2.774   3.454
 1936SOL    HW3 7775   0.013   2.658   3.422
 1936SOL    MW4 7776   0.039   2.740   3.408
 1937SOL     OW 7777   0.250   2.875   3.497
 1937SOL    HW2 7778   0.328   2.837   3.458
 1937SOL    HW3 7779   0.255   2.969   3.476
 1937SOL    MW4 7780   0.261   2.883   3.489
 1938SOL     OW 7781   0.232   3.132   3.387
 1938SOL    HW2 7782   0.149   3.165   3.422
 1938SOL    HW3 7783   0.219   3.127   3.293
 1938SOL    MW4 7784   0.220   3.135   3.379
 1939SOL     OW 7785   0.003   3.220   3.511
 1939SOL    HW2 7786  -0.079   3.179   3.482
 1939SOL    HW3 7787  -0.010   3.313   3.497
 1939SOL    MW4 7788  -0.010   3.227   3.506
 1940SOL     OW 7789   0.008   3.499   3.432
 1940SOL    HW2 7790  -0.077   3.532   3.459
 1940SOL    HW3 7791   0.019   3.530   3.342
 1940SOL    MW4 7792  -0.002   3.507   3.424
 1941SOL     OW 7793   0.194   3.646   3.553
 1941SOL    HW2 7794   0.172   3.636   3.646
 1941SOL    HW3 7795   0.126   3.597   3.507
 1941SOL    MW4 7796   0.182   3.638   3.559
 1942SOL     OW 7797   0.263   3.863   3.400
 1942SOL    HW2 7798   0.190   3.922   3.415
 1942SOL    HW3 7799   0.246   3.788   3.457
 1942SOL    MW4 7800   0.251   3.861   3.409
 1943SOL     OW 7801   0.032   4.014   3.477
 1943SOL    HW2 7802   0.036   4.014   3.573
 1943SOL    HW3 7803   0.008   4.103   3.453
 1943SOL    MW4 7804   0.030   4.026   3.486
 1944SOL     OW 7805   4.479   4.283   3.393
 1944SOL    HW2 7806   4.414   4.331   3.444
 1944SOL    HW3 7807   4.563   4.315   3.426
 1944SOL    MW4 7808   4.481   4.294   3.404
 1945SOL     OW 7809   0.222   4.397   3.479
 1945SOL    HW2 7810   0.206   4.386   3.573
 1945SOL    HW3 7811   0.308   4.358   3.464
 1945SOL    MW4 7812   0.231   4.390   3.489
 1946SOL     OW 7813   0.626   4.658   3.340
 1946SOL    HW2 7814   0.715   4.679   3.370
 1946SOL    HW3 7815   0.631   4.662   3.245
 1946SOL    MW4 7816   0.639   4.661   3.332
 1947SOL     OW 7817   0.435   0.138   3.469
 1947SOL    HW2 7818   0.447   0.154   3.562
 1947SOL    HW3 7819   0.506   0.079   3.445
 1947SOL    MW4 7820   0.446   0.132   3.478
 1948SOL     OW 7821   0.440   0.372   3.357
 1948SOL    HW2 7822   0.521   0.407   3.394
 1948SOL    HW3 7823   0.441   0.279   3.382
 1948SOL    MW4 7824   0.451   0.364   3.365
 1949SOL     OW 7825   0.674   0.488   3.474
 1949SOL    HW2 7826   0.691   0.497   3.567
 1949SOL    HW3 7827   0.744   0.430   3.442
 1949SOL    MW4 7828   0.686   0.482   3.482
 1950SOL     OW 7829   0.643   0.710   3.317
 1950SOL    HW2 7830   0.586   0.773   3.361
 1950SOL    HW3 7831   0.642   0.633   3.373
 1950SOL    MW4 7832   0.635   0.709   3.330
 1951SOL     OW 7833   0.454   0.847   3.440
 1951SOL    HW2 7834   0.471   0.845   3.535
 1951SOL    HW3 7835   0.428   0.938   3.423
 1951SOL    MW4 7836   0.453   0.859   3.451
 1952SOL     OW 7837   0.409   1.110   3.398
 1952SOL    HW2 7838   0.489   1.149   3.434
 1952SOL    HW3 7839   0.426   1.103   3.304
 1952SOL    MW4 7840   0.422   1.114   3.390
 1953SOL     OW 7841   0.665   1.223   3.490
 1953SOL    HW2 7842   0.741   1.187   3.445
 1953SOL    HW3 7843   0.663   1.315   3.463
 1953SOL    MW4 7844   0.675   1.231   3.481
 1954SOL     OW 7845   0.643   1.497   3.374
 1954SOL    HW2 7846   0.715   1.556   3.395
 1954SOL    HW3 7847   0.568   1.533   3.421
 1954SOL    MW4 7848   0.642   1.509   3.383
 1955SOL     OW 7849   0.431   1.642   3.494
 1955SOL    HW2 7850   0.424   1.641   3.590
 1955SOL    HW3 7851   0.422   1.734   3.470
 1955SOL    MW4 7852   0.429   1.654   3.504
 1956SOL     OW 7853   0.392   1.916   3.415
 1956SOL    HW2 7854   0.324   1.982   3.432
 1956SOL    HW3 7855   0.392   1.905   3.320
 1956SOL    MW4 7856   0.383   1.923   3.404
 1957SOL     OW 7857   0.619   2.076   3.466
 1957SOL    HW2 7858   0.622   2.083   3.561
 1957SOL    HW3 7859   0.543   2.020   3.448
 1957SOL    MW4 7860   0.609   2.070   3.476
 1958SOL     OW 7861   0.616   2.353   3.407
 1958SOL    HW2 7862   0.704   2.370   3.441
 1958SOL    HW3 7863   0.601   2.260   3.424
 1958SOL    MW4 7864   0.626   2.343   3.414
 1959SOL     OW 7865   0.420   2.522   3.480
 1959SOL    HW2 7866   0.502   2.477   3.458
 1959SOL    HW3 7867   0.351   2.460   3.458
 1959SOL    MW4 7868   0.422   2.508   3.474
 1960SOL     OW 7869   0.473   2.760   3.369
 1960SOL    HW2 7870   0.457   2.672   3.403
 1960SOL    HW3 7871   0.465   2.750   3.274
 1960SOL    MW4 7872   0.470   2.747   3.361
 1961SOL     OW 7873   0.686   2.874   3.546
 1961SOL    HW2 7874   0.751   2.815   3.508
 1961SOL    HW3 7875   0.603   2.845   3.511
 1961SOL    MW4 7876   0.684   2.862   3.536
 1962SOL     OW 7877   0.650   3.125   3.417
 1962SOL    HW2 7878   0.572   3.161   3.460
 1962SOL    HW3 7879   0.668   3.043   3.464
 1962SOL    MW4 7880   0.642   3.119   3.429
 1963SOL     OW 7881   0.432   3.280   3.501
 1963SOL    HW2 7882   0.422   3.271   3.596
 1963SOL    HW3 7883   0.364   3.224   3.464
 1963SOL    MW4 7884   0.422   3.271   3.508
 1964SOL     OW 7885   0.421   3.541   3.444
 1964SOL    HW2 7886   0.421   3.449   3.473
 1964SOL    HW3 7887   0.349   3.581   3.492
 1964SOL    MW4 7888   0.412   3.534   3.454
 1965SOL     OW 7889   0.683   3.636   3.517
 1965SOL    HW2 7890   0.746   3.588   3.463
 1965SOL    HW3 7891   0.601   3.589   3.503
 1965SOL    MW4 7892   0.681   3.623   3.508
 1966SOL     OW 7893   0.674   3.891   3.413
 1966SOL    HW2 7894   0.600   3.930   3.459
 1966SOL    HW3 7895   0.679   3.801   3.446
 1966SOL    MW4 7896   0.665   3.884   3.423
 1967SOL     OW 7897   0.455   4.003   3.540
 1967SOL    HW2 7898   0.462   4.091   3.503
 1967SOL    HW3 7899   0.387   3.961   3.487
 1967SOL    MW4 7900   0.447   4.009   3.528
 1968SOL     OW 7901   0.449   4.258   3.418
 1968SOL    HW2 7902   0.530   4.298   3.448
 1968SOL    HW3 7903   0.447   4.276   3.324
 1968SOL    MW4 7904   0.460   4.265   3.409
 1969SOL     OW 7905   0.668   4.431   3.506
 1969SOL    HW2 7906   0.725   4.374   3.455
 1969SOL    HW3 7907   0.651   4.506   3.448
 1969SOL    MW4 7908   0.673   4.434   3.492
 1970SOL     OW 7909   1.103   4.603   3.340
 1970SOL    HW2 7910   1.172   4.663   3.369
 1970SOL    HW3 7911   1.111   4.602   3.244
 1970SOL    MW4 7912   1.113   4.611   3.331
 1971SOL     OW 7913   0.870   0.033   3.455
 1971SOL    HW2 7914   0.862   0.023   3.550
 1971SOL    HW3 7915   0.953  -0.011   3.434
 1971SOL    MW4 7916   0.880   0.026   3.465
 1972SOL     OW 7917   0.890   0.310   3.365
 1972SOL    HW2 7918   0.969   0.353   3.397
 1972SOL    HW3 7919   0.893   0.222   3.403
 1972SOL    MW4 7920   0.901   0.304   3.374
 1973SOL     OW 7921   1.092   0.470   3.470
 1973SOL    HW2 7922   1.101   0.488   3.563
 1973SOL    HW3 7923   1.088   0.556   3.428
 1973SOL    MW4 7924   1.093   0.483   3.476
 1974SOL     OW 7925   1.111   0.741   3.359
 1974SOL    HW2 7926   1.188   0.779   3.403
 1974SOL    HW3 7927   1.036   0.778   3.406
 1974SOL    MW4 7928   1.111   0.751   3.371
 1975SOL     OW 7929   0.868   0.828   3.452
 1975SOL    HW2 7930   0.871   0.913   3.409
 1975SOL    HW3 7931   0.805   0.777   3.402
 1975SOL    MW4 7932   0.860   0.832   3.440
 1976SOL     OW 7933   0.888   1.115   3.377
 1976SOL    HW2 7934   0.971   1.158   3.396
 1976SOL    HW3 7935   0.865   1.146   3.289
 1976SOL    MW4 7936   0.896   1.125   3.368
 1977SOL     OW 7937   1.105   1.263   3.463
 1977SOL    HW2 7938   1.128   1.252   3.555
 1977SOL    HW3 7939   1.096   1.358   3.452
 1977SOL    MW4 7940   1.107   1.274   3.474
 1978SOL     OW 7941   1.086   1.528   3.417
 1978SOL    HW2 7942   1.171   1.572   3.426
 1978SOL    HW3 7943   1.071   1.524   3.322
 1978SOL    MW4 7944   1.095   1.534   3.406
 1979SOL     OW 7945   0.847   1.659   3.470
 1979SOL    HW2 7946   0.843   1.752   3.447
 1979SOL    HW3 7947   0.935   1.632   3.445
 1979SOL    MW4 7948   0.858   1.668   3.464
 1980SOL     OW 7949   0.842   1.933   3.386
 1980SOL    HW2 7950   0.919   1.972   3.428
 1980SOL    HW3 7951   0.770   1.992   3.408
 1980SOL    MW4 7952   0.842   1.946   3.395
 1981SOL     OW 7953   1.083   2.042   3.467
 1981SOL    HW2 7954   1.161   1.999   3.432
 1981SOL    HW3 7955   1.096   2.135   3.449
 1981SOL    MW4 7956   1.095   2.048   3.460
 1982SOL     OW 7957   1.118   2.307   3.409
 1982SOL    HW2 7958   1.204   2.333   3.442
 1982SOL    HW3 7959   1.122   2.324   3.315
 1982SOL    MW4 7960   1.129   2.313   3.401
 1983SOL     OW 7961   0.866   2.404   3.506
 1983SOL    HW2 7962   0.867   2.380   3.599
 1983SOL    HW3 7963   0.950   2.372   3.473
 1983SOL    MW4 7964   0.877   2.397   3.514
 1984SOL     OW 7965   0.876   2.681   3.442
 1984SOL    HW2 7966   0.963   2.721   3.449
 1984SOL    HW3 7967   0.888   2.592   3.476
 1984SOL    MW4 7968   0.889   2.674   3.447
 1985SOL     OW 7969   1.115   2.799   3.493
 1985SOL    HW2 7970   1.101   2.806   3.587
 1985SOL    HW3 7971   1.203   2.763   3.484
 1985SOL    MW4 7972   1.125   2.795   3.504
 1986SOL     OW 7973   1.080   3.061   3.444
 1986SOL    HW2 7974   1.106   2.971   3.465
 1986SOL    HW3 7975   1.089   3.066   3.349
 1986SOL    MW4 7976   1.085   3.050   3.434
 1987SOL     OW 7977   0.878   3.246   3.500
 1987SOL    HW2 7978   0.945   3.180   3.482
 1987SOL    HW3 7979   0.796   3.203   3.475
 1987SOL    MW4 7980   0.876   3.231   3.495
 1988SOL     OW 7981   0.885   3.494   3.374
 1988SOL    HW2 7982   0.862   3.403   3.395
 1988SOL    HW3 7983   0.880   3.499   3.279
 1988SOL    MW4 7984   0.881   3.483   3.364
 1989SOL     OW 7985   1.120   3.598   3.480
 1989SOL    HW2 7986   1.116   3.613   3.574
 1989SOL    HW3 7987   1.039   3.551   3.459
 1989SOL    MW4 7988   1.109   3.594   3.489
 1990SOL     OW 7989   1.119   3.875   3.403
 1990SOL    HW2 7990   1.193   3.914   3.450
 1990SOL    HW3 7991   1.119   3.783   3.429
 1990SOL    MW4 7992   1.129   3.868   3.412
 1991SOL     OW 7993   0.915   4.019   3.528
 1991SOL    HW2 7994   0.982   3.968   3.481
 1991SOL    HW3 7995   0.833   3.973   3.510
 1991SOL    MW4 7996   0.913   4.006   3.519
 1992SOL     OW 7997   0.858   4.260   3.410
 1992SOL    HW2 7998   0.890   4.176   3.444
 1992SOL    HW3 7999   0.874   4.256   3.316
 1992SOL    MW4 8000   0.864   4.249   3.402
 1993SOL     OW 8001   1.128   4.340   3.473
 1993SOL    HW2 8002   1.041   4.305   3.453
 1993SOL    HW3 8003   1.122   4.432   3.449
 1993SOL    MW4 8004   1.115   4.348   3.467
 1994SOL     OW 8005   1.554   4.660   3.400
 1994SOL    HW2 8006   1.556   4.569   3.431
 1994SOL    HW3 8007   1.464   4.689   3.419
 1994SOL    MW4 8008   1.542   4.652   3.407
 1995SOL     OW 8009   1.301   0.094   3.454
 1995SOL    HW2 8010   1.307   0.095   3.549
 1995SOL    HW3 8011   1.304   0.186   3.428
 1995SOL    MW4 8012   1.302   0.106   3.463
 1996SOL     OW 8013   1.334   0.364   3.381
 1996SOL    HW2 8014   1.405   0.401   3.434
 1996SOL    HW3 8015   1.256   0.413   3.408
 1996SOL    MW4 8016   1.333   0.376   3.392
 1997SOL     OW 8017   1.551   0.505   3.500
 1997SOL    HW2 8018   1.562   0.514   3.595
 1997SOL    HW3 8019   1.622   0.447   3.473
 1997SOL    MW4 8020   1.562   0.499   3.509
 1998SOL     OW 8021   1.574   0.754   3.407
 1998SOL    HW2 8022   1.490   0.795   3.424
 1998SOL    HW3 8023   1.564   0.664   3.439
 1998SOL    MW4 8024   1.562   0.747   3.414
 1999SOL     OW 8025   1.335   0.870   3.484
 1999SOL    HW2 8026   1.360   0.874   3.576
 1999SOL    HW3 8027   1.347   0.960   3.453
 1999SOL    MW4 8028   1.340   0.882   3.492
 2000SOL     OW 8029   1.321   1.109   3.352
 2000SOL    HW2 8030   1.397   1.166   3.362
 2000SOL    HW3 8031   1.252   1.151   3.402
 2000SOL    MW4 8032   1.322   1.122   3.360
 2001SOL     OW 8033   1.536   1.276   3.476
 2001SOL    HW2 8034   1.528   1.296   3.569
 2001SOL    HW3 8035   1.624   1.241   3.466
 2001SOL    MW4 8036   1.547   1.274   3.487
 2002SOL     OW 8037   1.592   1.532   3.399
 2002SOL    HW2 8038   1.581   1.443   3.434
 2002SOL    HW3 8039   1.579   1.522   3.305
 2002SOL    MW4 8040   1.589   1.519   3.391
 2003SOL     OW 8041   1.341   1.660   3.465
 2003SOL    HW2 8042   1.336   1.662   3.561
 2003SOL    HW3 8043   1.417   1.606   3.446
 2003SOL    MW4 8044   1.350   1.653   3.475
 2004SOL     OW 8045   1.326   1.926   3.425
 2004SOL    HW2 8046   1.413   1.964   3.432
 2004SOL    HW3 8047   1.340   1.832   3.438
 2004SOL    MW4 8048   1.339   1.918   3.427
 2005SOL     OW 8049   1.575   2.048   3.474
 2005SOL    HW2 8050   1.663   2.009   3.467
 2005SOL    HW3 8051   1.586   2.137   3.440
 2005SOL    MW4 8052   1.588   2.055   3.468
 2006SOL     OW 8053   1.613   2.323   3.394
 2006SOL    HW2 8054   1.528   2.356   3.423
 2006SOL    HW3 8055   1.606   2.322   3.298
 2006SOL    MW4 8056   1.601   2.327   3.385
 2007SOL     OW 8057   1.363   2.393   3.499
 2007SOL    HW2 8058   1.344   2.405   3.592
 2007SOL    HW3 8059   1.359   2.481   3.462
 2007SOL    MW4 8060   1.360   2.406   3.506
 2008SOL     OW 8061   1.342   2.665   3.422
 2008SOL    HW2 8062   1.410   2.730   3.438
 2008SOL    HW3 8063   1.328   2.669   3.327
 2008SOL    MW4 8064   1.349   2.674   3.411
 2009SOL     OW 8065   1.550   2.832   3.467
 2009SOL    HW2 8066   1.632   2.786   3.451
 2009SOL    HW3 8067   1.563   2.918   3.427
 2009SOL    MW4 8068   1.562   2.838   3.460
 2010SOL     OW 8069   1.558   3.079   3.361
 2010SOL    HW2 8070   1.617   3.135   3.412
 2010SOL    HW3 8071   1.471   3.112   3.381
 2010SOL    MW4 8072   1.554   3.091   3.371
 2011SOL     OW 8073   1.322   3.195   3.455
 2011SOL    HW2 8074   1.327   3.205   3.550
 2011SOL    HW3 8075   1.248   3.135   3.441
 2011SOL    MW4 8076   1.313   3.188   3.465
 2012SOL     OW 8077   1.356   3.478   3.388
 2012SOL    HW2 8078   1.355   3.384   3.407
 2012SOL    HW3 8079   1.267   3.508   3.408
 2012SOL    MW4 8080   1.344   3.470   3.393
 2013SOL     OW 8081   1.580   3.603   3.509
 2013SOL    HW2 8082   1.578   3.582   3.603
 2013SOL    HW3 8083   1.491   3.587   3.479
 2013SOL    MW4 8084   1.568   3.599   3.518
 2014SOL     OW 8085   1.566   3.871   3.407
 2014SOL    HW2 8086   1.580   3.785   3.447
 2014SOL    HW3 8087   1.571   3.855   3.313
 2014SOL    MW4 8088   1.569   3.858   3.400
 2015SOL     OW 8089   1.325   3.984   3.527
 2015SOL    HW2 8090   1.350   4.070   3.493
 2015SOL    HW3 8091   1.394   3.926   3.496
 2015SOL    MW4 8092   1.337   3.988   3.518
 2016SOL     OW 8093   1.374   4.229   3.409
 2016SOL    HW2 8094   1.288   4.256   3.439
 2016SOL    HW3 8095   1.363   4.211   3.315
 2016SOL    MW4 8096   1.362   4.230   3.400
 2017SOL     OW 8097   1.590   4.407   3.482
 2017SOL    HW2 8098   1.673   4.376   3.445
 2017SOL    HW3 8099   1.525   4.345   3.450
 2017SOL    MW4 8100   1.592   4.395   3.473
 2018SOL     OW 8101   2.018   4.623   3.414
 2018SOL    HW2 8102   2.090   4.676   3.448
 2018SOL    HW3 8103   1.940   4.677   3.431
 2018SOL    MW4 8104   2.017   4.637   3.421
 2019SOL     OW 8105   1.786   0.112   3.483
 2019SOL    HW2 8106   1.780   0.119   3.578
 2019SOL    HW3 8107   1.701   0.079   3.455
 2019SOL    MW4 8108   1.774   0.109   3.492
 2020SOL     OW 8109   1.766   0.375   3.414
 2020SOL    HW2 8110   1.771   0.283   3.439
 2020SOL    HW3 8111   1.776   0.375   3.319
 2020SOL    MW4 8112   1.768   0.363   3.405
 2021SOL     OW 8113   2.011   0.481   3.511
 2021SOL    HW2 8114   2.009   0.561   3.459
 2021SOL    HW3 8115   1.929   0.436   3.489
 2021SOL    MW4 8116   2.000   0.486   3.502
 2022SOL     OW 8117   2.030   0.758   3.381
 2022SOL    HW2 8118   2.081   0.836   3.406
 2022SOL    HW3 8119   2.029   0.760   3.285
 2022SOL    MW4 8120   2.037   0.769   3.372
 2023SOL     OW 8121   1.801   0.896   3.495
 2023SOL    HW2 8122   1.875   0.852   3.455
 2023SOL    HW3 8123   1.724   0.863   3.448
 2023SOL    MW4 8124   1.800   0.886   3.484
 2024SOL     OW 8125   1.799   1.154   3.416
 2024SOL    HW2 8126   1.883   1.193   3.440
 2024SOL    HW3 8127   1.805   1.064   3.447
 2024SOL    MW4 8128   1.811   1.147   3.423
 2025SOL     OW 8129   2.027   1.298   3.526
 2025SOL    HW2 8130   2.021   1.309   3.621
 2025SOL    HW3 8131   2.010   1.385   3.491
 2025SOL    MW4 8132   2.024   1.311   3.534
 2026SOL     OW 8133   1.997   1.544   3.403
 2026SOL    HW2 8134   2.071   1.578   3.454
 2026SOL    HW3 8135   1.920   1.589   3.439
 2026SOL    MW4 8136   1.997   1.555   3.415
 2027SOL     OW 8137   1.791   1.661   3.544
 2027SOL    HW2 8138   1.800   1.749   3.508
 2027SOL    HW3 8139   1.716   1.623   3.498
 2027SOL    MW4 8140   1.783   1.668   3.533
 2028SOL     OW 8141   1.800   1.882   3.381
 2028SOL    HW2 8142   1.880   1.927   3.409
 2028SOL    HW3 8143   1.797   1.897   3.286
 2028SOL    MW4 8144   1.810   1.890   3.372
 2029SOL     OW 8145   2.017   2.021   3.490
 2029SOL    HW2 8146   2.097   1.984   3.454
 2029SOL    HW3 8147   2.016   2.111   3.458
 2029SOL    MW4 8148   2.027   2.028   3.481
 2030SOL     OW 8149   2.032   2.270   3.384
 2030SOL    HW2 8150   2.104   2.314   3.428
 2030SOL    HW3 8151   2.035   2.304   3.294
 2030SOL    MW4 8152   2.042   2.281   3.378
 2031SOL     OW 8153   1.831   2.434   3.473
 2031SOL    HW2 8154   1.899   2.385   3.429
 2031SOL    HW3 8155   1.749   2.390   3.449
 2031SOL    MW4 8156   1.829   2.422   3.464
 2032SOL     OW 8157   1.796   2.694   3.384
 2032SOL    HW2 8158   1.872   2.746   3.412
 2032SOL    HW3 8159   1.812   2.607   3.421
 2032SOL    MW4 8160   1.809   2.690   3.393
 2033SOL     OW 8161   2.024   2.845   3.445
 2033SOL    HW2 8162   2.044   2.829   3.537
 2033SOL    HW3 8163   2.000   2.938   3.441
 2033SOL    MW4 8164   2.024   2.855   3.456
 2034SOL     OW 8165   1.992   3.119   3.395
 2034SOL    HW2 8166   2.060   3.168   3.440
 2034SOL    HW3 8167   1.910   3.150   3.434
 2034SOL    MW4 8168   1.990   3.129   3.406
 2035SOL     OW 8169   1.775   3.216   3.509
 2035SOL    HW2 8170   1.800   3.223   3.601
 2035SOL    HW3 8171   1.787   3.304   3.475
 2035SOL    MW4 8172   1.780   3.229   3.517
 2036SOL     OW 8173   1.803   3.478   3.408
 2036SOL    HW2 8174   1.716   3.515   3.425
 2036SOL    HW3 8175   1.806   3.465   3.313
 2036SOL    MW4 8176   1.792   3.481   3.398
 2037SOL     OW 8177   1.996   3.646   3.497
 2037SOL    HW2 8178   2.082   3.608   3.478
 2037SOL    HW3 8179   1.934   3.588   3.453
 2037SOL    MW4 8180   1.999   3.633   3.489
 2038SOL     OW 8181   2.035   3.887   3.382
 2038SOL    HW2 8182   1.968   3.950   3.410
 2038SOL    HW3 8183   2.008   3.804   3.422
 2038SOL    MW4 8184   2.023   3.884   3.391
 2039SOL     OW 8185   1.795   3.994   3.497
 2039SOL    HW2 8186   1.787   3.981   3.592
 2039SOL    HW3 8187   1.718   3.951   3.460
 2039SOL    MW4 8188   1.784   3.987   3.505
 2040SOL     OW 8189   1.793   4.251   3.382
 2040SOL    HW2 8190   1.794   4.161   3.414
 2040SOL    HW3 8191   1.795   4.242   3.286
 2040SOL    MW4 8192   1.794   4.238   3.373
 2041SOL     OW 8193   2.029   4.349   3.503
 2041SOL    HW2 8194   1.956   4.306   3.457
 2041SOL    HW3 8195   2.025   4.440   3.473
 2041SOL    MW4 8196   2.019   4.355   3.493
 2042SOL     OW 8197   2.456   0.006   3.392
 2042SOL    HW2 8198   2.465  -0.084   3.423
 2042SOL    HW3 8199   2.448  -0.002   3.297
 2042SOL    MW4 8200   2.456  -0.007   3.383
 2043SOL     OW 8201   2.218   0.110   3.493
 2043SOL    HW2 8202   2.218   0.201   3.462
 2043SOL    HW3 8203   2.305   0.077   3.472
 2043SOL    MW4 8204   2.229   0.118   3.486
 2044SOL     OW 8205   2.225   0.357   3.383
 2044SOL    HW2 8206   2.303   0.413   3.388
 2044SOL    HW3 8207   2.154   0.412   3.418
 2044SOL    MW4 8208   2.226   0.372   3.389
 2045SOL     OW 8209   2.462   0.523   3.460
 2045SOL    HW2 8210   2.544   0.510   3.411
 2045SOL    HW3 8211   2.442   0.616   3.448
 2045SOL    MW4 8212   2.470   0.534   3.452
 2046SOL     OW 8213   2.453   0.802   3.423
 2046SOL    HW2 8214   2.532   0.833   3.466
 2046SOL    HW3 8215   2.476   0.799   3.330
 2046SOL    MW4 8216   2.467   0.805   3.416
 2047SOL     OW 8217   2.209   0.917   3.509
 2047SOL    HW2 8218   2.213   1.009   3.486
 2047SOL    HW3 8219   2.295   0.883   3.486
 2047SOL    MW4 8220   2.221   0.924   3.503
 2048SOL     OW 8221   2.227   1.169   3.404
 2048SOL    HW2 8222   2.307   1.211   3.435
 2048SOL    HW3 8223   2.157   1.217   3.448
 2048SOL    MW4 8224   2.228   1.181   3.414
 2049SOL     OW 8225   2.482   1.249   3.492
 2049SOL    HW2 8226   2.476   1.248   3.587
 2049SOL    HW3 8227   2.566   1.208   3.472
 2049SOL    MW4 8228   2.492   1.243   3.502
 2050SOL     OW 8229   2.460   1.519   3.402
 2050SOL    HW2 8230   2.463   1.427   3.430
 2050SOL    HW3 8231   2.460   1.514   3.306
 2050SOL    MW4 8232   2.460   1.506   3.393
 2051SOL     OW 8233   2.226   1.670   3.517
 2051SOL    HW2 8234   2.234   1.705   3.606
 2051SOL    HW3 8235   2.292   1.601   3.513
 2051SOL    MW4 8236   2.235   1.665   3.528
 2052SOL     OW 8237   2.270   1.923   3.422
 2052SOL    HW2 8238   2.270   1.829   3.445
 2052SOL    HW3 8239   2.239   1.925   3.332
 2052SOL    MW4 8240   2.266   1.911   3.413
 2053SOL     OW 8241   2.498   2.075   3.507
 2053SOL    HW2 8242   2.486   2.071   3.601
 2053SOL    HW3 8243   2.424   2.026   3.470
 2053SOL    MW4 8244   2.487   2.068   3.514
 2054SOL     OW 8245   2.461   2.341   3.393
 2054SOL    HW2 8246   2.531   2.397   3.426
 2054SOL    HW3 8247   2.482   2.254   3.427
 2054SOL    MW4 8248   2.473   2.336   3.402
 2055SOL     OW 8249   2.233   2.411   3.525
 2055SOL    HW2 8250   2.204   2.487   3.474
 2055SOL    HW3 8251   2.311   2.379   3.479
 2055SOL    MW4 8252   2.240   2.417   3.513
 2056SOL     OW 8253   2.209   2.644   3.362
 2056SOL    HW2 8254   2.153   2.719   3.384
 2056SOL    HW3 8255   2.202   2.636   3.267
 2056SOL    MW4 8256   2.201   2.653   3.352
 2057SOL     OW 8257   2.398   2.814   3.478
 2057SOL    HW2 8258   2.392   2.894   3.425
 2057SOL    HW3 8259   2.350   2.748   3.428
 2057SOL    MW4 8260   2.391   2.816   3.464
 2058SOL     OW 8261   2.417   3.066   3.369
 2058SOL    HW2 8262   2.502   3.106   3.386
 2058SOL    HW3 8263   2.416   3.049   3.275
 2058SOL    MW4 8264   2.428   3.069   3.359
 2059SOL     OW 8265   2.222   3.265   3.482
 2059SOL    HW2 8266   2.214   3.252   3.576
 2059SOL    HW3 8267   2.287   3.200   3.455
 2059SOL    MW4 8268   2.230   3.255   3.491
 2060SOL     OW 8269   2.241   3.545   3.402
 2060SOL    HW2 8270   2.255   3.457   3.437
 2060SOL    HW3 8271   2.235   3.532   3.307
 2060SOL    MW4 8272   2.242   3.531   3.394
 2061SOL     OW 8273   2.481   3.643   3.504
 2061SOL    HW2 8274   2.501   3.732   3.474
 2061SOL    HW3 8275   2.393   3.625   3.470
 2061SOL    MW4 8276   2.472   3.653   3.495
 2062SOL     OW 8277   2.489   3.893   3.398
 2062SOL    HW2 8278   2.554   3.930   3.459
 2062SOL    HW3 8279   2.405   3.918   3.436
 2062SOL    MW4 8280   2.487   3.901   3.411
 2063SOL     OW 8281   2.265   3.960   3.529
 2063SOL    HW2 8282   2.247   4.051   3.503
 2063SOL    HW3 8283   2.197   3.909   3.485
 2063SOL    MW4 8284   2.254   3.965   3.520
 2064SOL     OW 8285   2.257   4.242   3.418
 2064SOL    HW2 8286   2.174   4.282   3.441
 2064SOL    HW3 8287   2.253   4.231   3.323
 2064SOL    MW4 8288   2.246   4.246   3.408
 2065SOL     OW 8289   2.472   4.429   3.491
 2065SOL    HW2 8290   2.466   4.418   3.586
 2065SOL    HW3 8291   2.404   4.371   3.456
 2065SOL    MW4 8292   2.462   4.420   3.499
 2066SOL     OW 8293   2.915   4.637   3.389
 2066SOL    HW2 8294   2.839   4.688   3.417
 2066SOL    HW3 8295   2.908   4.634   3.294
 2066SOL    MW4 8296   2.904   4.644   3.380
 2067SOL     OW 8297   2.688   0.140   3.448
 2067SOL    HW2 8298   2.681   0.227   3.410
 2067SOL    HW3 8299   2.607   0.096   3.423
 2067SOL    MW4 8300   2.676   0.145   3.440
 2068SOL     OW 8301   2.677   0.407   3.355
 2068SOL    HW2 8302   2.767   0.424   3.383
 2068SOL    HW3 8303   2.680   0.413   3.260
 2068SOL    MW4 8304   2.690   0.410   3.347
 2069SOL     OW 8305   2.930   0.498   3.472
 2069SOL    HW2 8306   2.916   0.488   3.566
 2069SOL    HW3 8307   2.917   0.591   3.455
 2069SOL    MW4 8308   2.927   0.509   3.482
 2070SOL     OW 8309   2.915   0.758   3.375
 2070SOL    HW2 8310   2.990   0.793   3.424
 2070SOL    HW3 8311   2.839   0.790   3.423
 2070SOL    MW4 8312   2.915   0.767   3.388
 2071SOL     OW 8313   2.694   0.873   3.523
 2071SOL    HW2 8314   2.705   0.865   3.618
 2071SOL    HW3 8315   2.721   0.962   3.503
 2071SOL    MW4 8316   2.699   0.884   3.533
 2072SOL     OW 8317   2.705   1.134   3.397
 2072SOL    HW2 8318   2.775   1.196   3.418
 2072SOL    HW3 8319   2.690   1.146   3.303
 2072SOL    MW4 8320   2.712   1.144   3.387
 2073SOL     OW 8321   2.913   1.270   3.497
 2073SOL    HW2 8322   2.931   1.274   3.591
 2073SOL    HW3 8323   2.995   1.241   3.458
 2073SOL    MW4 8324   2.926   1.267   3.505
 2074SOL     OW 8325   2.925   1.539   3.401
 2074SOL    HW2 8326   2.846   1.573   3.442
 2074SOL    HW3 8327   2.927   1.447   3.426
 2074SOL    MW4 8328   2.915   1.531   3.409
 2075SOL     OW 8329   2.682   1.647   3.494
 2075SOL    HW2 8330   2.656   1.737   3.475
 2075SOL    HW3 8331   2.604   1.595   3.474
 2075SOL    MW4 8332   2.668   1.652   3.489
 2076SOL     OW 8333   2.690   1.895   3.409
 2076SOL    HW2 8334   2.625   1.963   3.429
 2076SOL    HW3 8335   2.694   1.895   3.313
 2076SOL    MW4 8336   2.682   1.904   3.399
 2077SOL     OW 8337   2.911   2.053   3.472
 2077SOL    HW2 8338   2.912   2.047   3.567
 2077SOL    HW3 8339   2.829   2.012   3.446
 2077SOL    MW4 8340   2.900   2.047   3.481
 2078SOL     OW 8341   2.884   2.338   3.384
 2078SOL    HW2 8342   2.883   2.245   3.405
 2078SOL    HW3 8343   2.879   2.342   3.289
 2078SOL    MW4 8344   2.883   2.326   3.374
 2079SOL     OW 8345   2.675   2.466   3.513
 2079SOL    HW2 8346   2.691   2.456   3.607
 2079SOL    HW3 8347   2.752   2.428   3.471
 2079SOL    MW4 8348   2.687   2.460   3.520
 2080SOL     OW 8349   2.676   2.711   3.411
 2080SOL    HW2 8350   2.685   2.624   3.450
 2080SOL    HW3 8351   2.591   2.743   3.441
 2080SOL    MW4 8352   2.666   2.704   3.420
 2081SOL     OW 8353   2.888   2.891   3.459
 2081SOL    HW2 8354   2.897   2.891   3.554
 2081SOL    HW3 8355   2.809   2.839   3.442
 2081SOL    MW4 8356   2.879   2.884   3.469
 2082SOL     OW 8357   2.933   3.145   3.340
 2082SOL    HW2 8358   2.914   3.055   3.366
 2082SOL    HW3 8359   2.926   3.144   3.244
 2082SOL    MW4 8360   2.930   3.133   3.331
 2083SOL     OW 8361   2.669   3.219   3.434
 2083SOL    HW2 8362   2.683   3.207   3.527
 2083SOL    HW3 8363   2.748   3.183   3.393
 2083SOL    MW4 8364   2.681   3.212   3.441
 2084SOL     OW 8365   2.694   3.501   3.376
 2084SOL    HW2 8366   2.705   3.422   3.428
 2084SOL    HW3 8367   2.617   3.544   3.412
 2084SOL    MW4 8368   2.685   3.496   3.387
 2085SOL     OW 8369   2.929   3.615   3.506
 2085SOL    HW2 8370   2.947   3.700   3.466
 2085SOL    HW3 8371   2.848   3.586   3.463
 2085SOL    MW4 8372   2.920   3.622   3.495
 2086SOL     OW 8373   2.895   3.865   3.372
 2086SOL    HW2 8374   2.958   3.919   3.421
 2086SOL    HW3 8375   2.810   3.885   3.411
 2086SOL    MW4 8376   2.892   3.875   3.383
 2087SOL     OW 8377   2.687   4.002   3.542
 2087SOL    HW2 8378   2.689   4.015   3.637
 2087SOL    HW3 8379   2.675   4.089   3.505
 2087SOL    MW4 8380   2.686   4.015   3.549
 2088SOL     OW 8381   2.679   4.280   3.420
 2088SOL    HW2 8382   2.753   4.320   3.466
 2088SOL    HW3 8383   2.605   4.338   3.437
 2088SOL    MW4 8384   2.679   4.293   3.428
 2089SOL     OW 8385   2.909   4.399   3.511
 2089SOL    HW2 8386   2.909   4.409   3.607
 2089SOL    HW3 8387   2.925   4.488   3.478
 2089SOL    MW4 8388   2.911   4.412   3.519
 2090SOL     OW 8389   3.368   0.013   3.397
 2090SOL    HW2 8390   3.289   0.053   3.433
 2090SOL    HW3 8391   3.347  -0.006   3.306
 2090SOL    MW4 8392   3.355   0.015   3.390
 2091SOL     OW 8393   3.145   0.116   3.491
 2091SOL    HW2 8394   3.155   0.204   3.452
 2091SOL    HW3 8395   3.074   0.076   3.441
 2091SOL    MW4 8396   3.137   0.122   3.479
 2092SOL     OW 8397   3.155   0.376   3.376
 2092SOL    HW2 8398   3.075   0.422   3.400
 2092SOL    HW3 8399   3.164   0.391   3.281
 2092SOL    MW4 8400   3.146   0.384   3.366
 2093SOL     OW 8401   3.365   0.523   3.508
 2093SOL    HW2 8402   3.363   0.521   3.604
 2093SOL    HW3 8403   3.282   0.481   3.483
 2093SOL    MW4 8404   3.354   0.518   3.518
 2094SOL     OW 8405   3.341   0.773   3.379
 2094SOL    HW2 8406   3.418   0.821   3.410
 2094SOL    HW3 8407   3.357   0.683   3.408
 2094SOL    MW4 8408   3.353   0.767   3.387
 2095SOL     OW 8409   3.122   0.882   3.503
 2095SOL    HW2 8410   3.115   0.970   3.465
 2095SOL    HW3 8411   3.194   0.841   3.454
 2095SOL    MW4 8412   3.131   0.888   3.491
 2096SOL     OW 8413   3.147   1.130   3.391
 2096SOL    HW2 8414   3.227   1.169   3.426
 2096SOL    HW3 8415   3.162   1.124   3.297
 2096SOL    MW4 8416   3.159   1.135   3.383
 2097SOL     OW 8417   3.380   1.284   3.508
 2097SOL    HW2 8418   3.461   1.245   3.473
 2097SOL    HW3 8419   3.381   1.374   3.476
 2097SOL    MW4 8420   3.391   1.290   3.499
 2098SOL     OW 8421   3.419   1.548   3.431
 2098SOL    HW2 8422   3.483   1.616   3.453
 2098SOL    HW3 8423   3.334   1.588   3.449
 2098SOL    MW4 8424   3.416   1.562   3.436
 2099SOL     OW 8425   3.166   1.670   3.473
 2099SOL    HW2 8426   3.159   1.760   3.442
 2099SOL    HW3 8427   3.078   1.633   3.460
 2099SOL    MW4 8428   3.153   1.677   3.467
 2100SOL     OW 8429   3.171   1.963   3.403
 2100SOL    HW2 8430   3.090   1.993   3.443
 2100SOL    HW3 8431   3.153   1.961   3.309
 2100SOL    MW4 8432   3.158   1.967   3.396
 2101SOL     OW 8433   3.396   2.097   3.493
 2101SOL    HW2 8434   3.378   2.186   3.465
 2101SOL    HW3 8435   3.324   2.045   3.457
 2101SOL    MW4 8436   3.384   2.102   3.485
 2102SOL     OW 8437   3.360   2.353   3.358
 2102SOL    HW2 8438   3.422   2.412   3.401
 2102SOL    HW3 8439   3.274   2.384   3.386
 2102SOL    MW4 8440   3.357   2.365   3.368
 2103SOL     OW 8441   3.111   2.473   3.443
 2103SOL    HW2 8442   3.099   2.566   3.422
 2103SOL    HW3 8443   3.025   2.434   3.429
 2103SOL    MW4 8444   3.098   2.480   3.438
 2104SOL     OW 8445   3.117   2.743   3.389
 2104SOL    HW2 8446   3.192   2.795   3.418
 2104SOL    HW3 8447   3.041   2.790   3.423
 2104SOL    MW4 8448   3.117   2.756   3.398
 2105SOL     OW 8449   3.360   2.865   3.479
 2105SOL    HW2 8450   3.441   2.828   3.443
 2105SOL    HW3 8451   3.363   2.958   3.455
 2105SOL    MW4 8452   3.371   2.873   3.471
 2106SOL     OW 8453   3.356   3.132   3.385
 2106SOL    HW2 8454   3.434   3.178   3.414
 2106SOL    HW3 8455   3.283   3.183   3.420
 2106SOL    MW4 8456   3.356   3.145   3.393
 2107SOL     OW 8457   3.137   3.269   3.477
 2107SOL    HW2 8458   3.158   3.358   3.447
 2107SOL    HW3 8459   3.066   3.241   3.420
 2107SOL    MW4 8460   3.131   3.277   3.466
 2108SOL     OW 8461   3.163   3.526   3.367
 2108SOL    HW2 8462   3.084   3.559   3.410
 2108SOL    HW3 8463   3.142   3.526   3.274
 2108SOL    MW4 8464   3.150   3.530   3.361
 2109SOL     OW 8465   3.368   3.650   3.502
 2109SOL    HW2 8466   3.351   3.743   3.483
 2109SOL    HW3 8467   3.309   3.603   3.444
 2109SOL    MW4 8468   3.358   3.656   3.492
 2110SOL     OW 8469   3.322   3.914   3.398
 2110SOL    HW2 8470   3.385   3.967   3.447
 2110SOL    HW3 8471   3.236   3.942   3.432
 2110SOL    MW4 8472   3.319   3.925   3.409
 2111SOL     OW 8473   3.082   4.002   3.519
 2111SOL    HW2 8474   3.079   4.014   3.614
 2111SOL    HW3 8475   3.095   4.091   3.484
 2111SOL    MW4 8476   3.083   4.016   3.527
 2112SOL     OW 8477   3.146   4.256   3.429
 2112SOL    HW2 8478   3.214   4.302   3.479
 2112SOL    HW3 8479   3.065   4.303   3.449
 2112SOL    MW4 8480   3.144   4.269   3.438
 2113SOL     OW 8481   3.365   4.420   3.504
 2113SOL    HW2 8482   3.338   4.433   3.595
 2113SOL    HW3 8483   3.367   4.509   3.467
 2113SOL    MW4 8484   3.362   4.434   3.511
 2114SOL     OW 8485   3.807   0.013   3.471
 2114SOL    HW2 8486   3.726   0.063   3.468
 2114SOL    HW3 8487   3.833   0.004   3.379
 2114SOL    MW4 8488   3.800   0.018   3.458
 2115SOL     OW 8489   3.578   0.152   3.503
 2115SOL    HW2 8490   3.585   0.243   3.477
 2115SOL    HW3 8491   3.499   0.121   3.458
 2115SOL    MW4 8492   3.568   0.160   3.493
 2116SOL     OW 8493   3.578   0.408   3.394
 2116SOL    HW2 8494   3.656   0.458   3.420
 2116SOL    HW3 8495   3.506   0.452   3.439
 2116SOL    MW4 8496   3.579   0.421   3.403
 2117SOL     OW 8497   3.780   0.529   3.508
 2117SOL    HW2 8498   3.775   0.538   3.603
 2117SOL    HW3 8499   3.858   0.475   3.493
 2117SOL    MW4 8500   3.790   0.523   3.518
 2118SOL     OW 8501   3.807   0.788   3.382
 2118SOL    HW2 8502   3.877   0.844   3.416
 2118SOL    HW3 8503   3.817   0.705   3.428
 2118SOL    MW4 8504   3.817   0.784   3.392
 2119SOL     OW 8505   3.575   0.879   3.468
 2119SOL    HW2 8506   3.589   0.883   3.562
 2119SOL    HW3 8507   3.656   0.842   3.433
 2119SOL    MW4 8508   3.587   0.874   3.476
 2120SOL     OW 8509   3.605   1.145   3.410
 2120SOL    HW2 8510   3.608   1.052   3.432
 2120SOL    HW3 8511   3.562   1.148   3.325
 2120SOL    MW4 8512   3.600   1.134   3.402
 2121SOL     OW 8513   3.806   1.337   3.494
 2121SOL    HW2 8514   3.797   1.309   3.586
 2121SOL    HW3 8515   3.742   1.283   3.447
 2121SOL    MW4 8516   3.796   1.326   3.500
 2122SOL     OW 8517   3.824   1.617   3.388
 2122SOL    HW2 8518   3.915   1.647   3.399
 2122SOL    HW3 8519   3.824   1.528   3.424
 2122SOL    MW4 8520   3.836   1.609   3.394
 2123SOL     OW 8521   3.592   1.744   3.486
 2123SOL    HW2 8522   3.587   1.836   3.459
 2123SOL    HW3 8523   3.671   1.710   3.443
 2123SOL    MW4 8524   3.602   1.752   3.477
 2124SOL     OW 8525   3.608   1.992   3.376
 2124SOL    HW2 8526   3.675   2.021   3.438
 2124SOL    HW3 8527   3.526   2.029   3.411
 2124SOL    MW4 8528   3.606   2.000   3.389
 2125SOL     OW 8529   3.803   2.126   3.540
 2125SOL    HW2 8530   3.828   2.112   3.632
 2125SOL    HW3 8531   3.856   2.064   3.491
 2125SOL    MW4 8532   3.814   2.116   3.546
 2126SOL     OW 8533   3.776   2.364   3.381
 2126SOL    HW2 8534   3.860   2.399   3.411
 2126SOL    HW3 8535   3.773   2.275   3.416
 2126SOL    MW4 8536   3.787   2.357   3.389
 2127SOL     OW 8537   3.561   2.505   3.488
 2127SOL    HW2 8538   3.575   2.598   3.476
 2127SOL    HW3 8539   3.640   2.464   3.454
 2127SOL    MW4 8540   3.573   2.512   3.482
 2128SOL     OW 8541   3.590   2.754   3.382
 2128SOL    HW2 8542   3.674   2.795   3.404
 2128SOL    HW3 8543   3.605   2.717   3.295
 2128SOL    MW4 8544   3.603   2.755   3.373
 2129SOL     OW 8545   3.815   2.864   3.496
 2129SOL    HW2 8546   3.801   2.876   3.590
 2129SOL    HW3 8547   3.798   2.951   3.459
 2129SOL    MW4 8548   3.811   2.877   3.504
 2130SOL     OW 8549   3.785   3.124   3.396
 2130SOL    HW2 8550   3.861   3.167   3.436
 2130SOL    HW3 8551   3.805   3.123   3.302
 2130SOL    MW4 8552   3.798   3.129   3.389
 2131SOL     OW 8553   3.562   3.252   3.498
 2131SOL    HW2 8554   3.551   3.340   3.460
 2131SOL    HW3 8555   3.634   3.214   3.448
 2131SOL    MW4 8556   3.570   3.259   3.486
 2132SOL     OW 8557   3.585   3.512   3.406
 2132SOL    HW2 8558   3.508   3.561   3.434
 2132SOL    HW3 8559   3.585   3.519   3.311
 2132SOL    MW4 8560   3.575   3.520   3.397
 2133SOL     OW 8561   3.794   3.634   3.517
 2133SOL    HW2 8562   3.773   3.632   3.610
 2133SOL    HW3 8563   3.722   3.587   3.475
 2133SOL    MW4 8564   3.782   3.628   3.524
 2134SOL     OW 8565   3.806   3.866   3.367
 2134SOL    HW2 8566   3.734   3.912   3.409
 2134SOL    HW3 8567   3.815   3.784   3.416
 2134SOL    MW4 8568   3.797   3.861   3.379
 2135SOL     OW 8569   3.576   3.999   3.503
 2135SOL    HW2 8570   3.558   4.005   3.596
 2135SOL    HW3 8571   3.600   4.088   3.477
 2135SOL    MW4 8572   3.577   4.012   3.512
 2136SOL     OW 8573   3.597   4.277   3.440
 2136SOL    HW2 8574   3.514   4.313   3.471
 2136SOL    HW3 8575   3.585   4.270   3.345
 2136SOL    MW4 8576   3.584   4.281   3.431
 2137SOL     OW 8577   3.826   4.405   3.511
 2137SOL    HW2 8578   3.739   4.366   3.502
 2137SOL    HW3 8579   3.810   4.500   3.508
 2137SOL    MW4 8580   3.812   4.413   3.509
 2138SOL     OW 8581   4.253   4.625   3.430
 2138SOL    HW2 8582   4.260   4.549   3.489
 2138SOL    HW3 8583   4.327   4.681   3.453
 2138SOL    MW4 8584   4.263   4.622   3.441
 2139SOL     OW 8585   4.051   0.110   3.537
 2139SOL    HW2 8586   4.111   0.049   3.493
 2139SOL    HW3 8587   3.965   0.069   3.531
 2139SOL    MW4 8588   4.048   0.097   3.531
 2140SOL     OW 8589   4.030   0.388   3.446
 2140SOL    HW2 8590   4.054   0.301   3.477
 2140SOL    HW3 8591   4.005   0.374   3.354
 2140SOL    MW4 8592   4.030   0.375   3.438
 2141SOL     OW 8593   4.271   0.511   3.499
 2141SOL    HW2 8594   4.255   0.604   3.483
 2141SOL    HW3 8595   4.191   0.468   3.470
 2141SOL    MW4 8596   4.258   0.518   3.493
 2142SOL     OW 8597   4.243   0.760   3.408
 2142SOL    HW2 8598   4.327   0.803   3.424
 2142SOL    HW3 8599   4.232   0.765   3.313
 2142SOL    MW4 8600   4.253   0.767   3.397
 2143SOL     OW 8601   4.040   0.930   3.500
 2143SOL    HW2 8602   4.051   1.022   3.480
 2143SOL    HW3 8603   4.109   0.886   3.451
 2143SOL    MW4 8604   4.050   0.936   3.491
 2144SOL     OW 8605   4.039   1.205   3.388
 2144SOL    HW2 8606   4.109   1.247   3.439
 2144SOL    HW3 8607   3.959   1.251   3.415
 2144SOL    MW4 8608   4.038   1.217   3.399
 2145SOL     OW 8609   4.248   1.321   3.528
 2145SOL    HW2 8610   4.262   1.409   3.491
 2145SOL    HW3 8611   4.318   1.268   3.490
 2145SOL    MW4 8612   4.259   1.326   3.518
 2146SOL     OW 8613   4.281   1.567   3.419
 2146SOL    HW2 8614   4.213   1.632   3.435
 2146SOL    HW3 8615   4.269   1.541   3.328
 2146SOL    MW4 8616   4.270   1.572   3.409
 2147SOL     OW 8617   4.055   1.714   3.457
 2147SOL    HW2 8618   4.057   1.700   3.551
 2147SOL    HW3 8619   4.024   1.804   3.447
 2147SOL    MW4 8620   4.051   1.724   3.468
 2148SOL     OW 8621   3.984   1.970   3.397
 2148SOL    HW2 8622   4.069   2.002   3.428
 2148SOL    HW3 8623   4.000   1.943   3.307
 2148SOL    MW4 8624   3.998   1.971   3.390
 2149SOL     OW 8625   4.233   2.044   3.488
 2149SOL    HW2 8626   4.238   2.130   3.446
 2149SOL    HW3 8627   4.307   1.995   3.452
 2149SOL    MW4 8628   4.243   2.049   3.478
 2150SOL     OW 8629   4.250   2.305   3.409
 2150SOL    HW2 8630   4.170   2.349   3.438
 2150SOL    HW3 8631   4.248   2.314   3.314
 2150SOL    MW4 8632   4.239   2.312   3.400
 2151SOL     OW 8633   4.029   2.431   3.491
 2151SOL    HW2 8634   4.023   2.425   3.586
 2151SOL    HW3 8635   4.036   2.524   3.472
 2151SOL    MW4 8636   4.029   2.442   3.501
 2152SOL     OW 8637   4.021   2.704   3.400
 2152SOL    HW2 8638   4.109   2.739   3.414
 2152SOL    HW3 8639   3.964   2.761   3.451
 2152SOL    MW4 8640   4.025   2.716   3.409
 2153SOL     OW 8641   4.269   2.828   3.455
 2153SOL    HW2 8642   4.279   2.846   3.548
 2153SOL    HW3 8643   4.355   2.795   3.428
 2153SOL    MW4 8644   4.282   2.826   3.464
 2154SOL     OW 8645   4.258   3.107   3.397
 2154SOL    HW2 8646   4.244   3.016   3.425
 2154SOL    HW3 8647   4.269   3.101   3.302
 2154SOL    MW4 8648   4.258   3.094   3.388
 2155SOL     OW 8649   4.024   3.231   3.477
 2155SOL    HW2 8650   4.024   3.324   3.454
 2155SOL    HW3 8651   4.105   3.197   3.439
 2155SOL    MW4 8652   4.035   3.239   3.469
 2156SOL     OW 8653   4.017   3.519   3.397
 2156SOL    HW2 8654   4.095   3.551   3.442
 2156SOL    HW3 8655   3.944   3.560   3.443
 2156SOL    MW4 8656   4.018   3.528   3.409
 2157SOL     OW 8657   4.240   3.621   3.504
 2157SOL    HW2 8658   4.227   3.615   3.599
 2157SOL    HW3 8659   4.234   3.714   3.485
 2157SOL    MW4 8660   4.238   3.632   3.514
 2158SOL     OW 8661   4.260   3.893   3.452
 2158SOL    HW2 8662   4.344   3.934   3.477
 2158SOL    HW3 8663   4.262   3.890   3.357
 2158SOL    MW4 8664   4.272   3.898   3.443
 2159SOL     OW 8665   4.022   4.013   3.499
 2159SOL    HW2 8666   4.111   3.984   3.480
 2159SOL    HW3 8667   3.966   3.950   3.455
 2159SOL    MW4 8668   4.026   4.001   3.491
 2160SOL     OW 8669   4.062   4.269   3.409
 2160SOL    HW2 8670   4.061   4.175   3.429
 2160SOL    HW3 8671   3.979   4.302   3.443
 2160SOL    MW4 8672   4.051   4.261   3.416
 2161SOL     OW 8673   4.292   4.386   3.578
 2161SOL    HW2 8674   4.271   4.371   3.670
 2161SOL    HW3 8675   4.221   4.343   3.530
 2161SOL    MW4 8676   4.280   4.378   3.584
 2162SOL     OW 8677   0.253   4.654   3.850
 2162SOL    HW2 8678   0.256   4.639   3.945
 2162SOL    HW3 8679   0.173   4.705   3.836
 2162SOL    MW4 8680   0.243   4.659   3.861
 2163SOL     OW 8681   4.488   0.089   3.825
 2163SOL    HW2 8682   4.484   0.182   3.849
 2163SOL    HW3 8683   4.468   0.088   3.732
 2163SOL    MW4 8684   4.485   0.101   3.816
 2164SOL     OW 8685   0.002   0.355   3.882
 2164SOL    HW2 8686  -0.071   0.415   3.864
 2164SOL    HW3 8687   0.074   0.389   3.827
 2164SOL    MW4 8688   0.002   0.368   3.872
 2165SOL     OW 8689   0.222   0.484   3.746
 2165SOL    HW2 8690   0.255   0.570   3.772
 2165SOL    HW3 8691   0.219   0.487   3.651
 2165SOL    MW4 8692   0.226   0.496   3.737
 2166SOL     OW 8693   0.241   0.743   3.814
 2166SOL    HW2 8694   0.239   0.723   3.907
 2166SOL    HW3 8695   0.165   0.800   3.800
 2166SOL    MW4 8696   0.231   0.748   3.824
 2167SOL     OW 8697   0.022   0.909   3.753
 2167SOL    HW2 8698  -0.045   0.852   3.793
 2167SOL    HW3 8699   0.025   0.985   3.811
 2167SOL    MW4 8700   0.013   0.911   3.766
 2168SOL     OW 8701   0.027   1.145   3.920
 2168SOL    HW2 8702  -0.048   1.204   3.906
 2168SOL    HW3 8703   0.099   1.186   3.872
 2168SOL    MW4 8704   0.026   1.159   3.912
 2169SOL     OW 8705   0.227   1.249   3.755
 2169SOL    HW2 8706   0.229   1.339   3.787
 2169SOL    HW3 8707   0.214   1.257   3.661
 2169SOL    MW4 8708   0.226   1.262   3.747
 2170SOL     OW 8709   0.187   1.503   3.849
 2170SOL    HW2 8710   0.194   1.531   3.940
 2170SOL    HW3 8711   0.103   1.537   3.819
 2170SOL    MW4 8712   0.177   1.511   3.857
 2171SOL     OW 8713   4.463   1.661   3.781
 2171SOL    HW2 8714   4.476   1.748   3.818
 2171SOL    HW3 8715   4.489   1.670   3.689
 2171SOL    MW4 8716   4.468   1.673   3.774
 2172SOL     OW 8717   0.019   1.920   3.903
 2172SOL    HW2 8718   0.000   1.914   3.996
 2172SOL    HW3 8719  -0.062   1.955   3.864
 2172SOL    MW4 8720   0.005   1.924   3.910
 2173SOL     OW 8721   0.239   2.048   3.768
 2173SOL    HW2 8722   0.252   2.139   3.796
 2173SOL    HW3 8723   0.163   2.018   3.817
 2173SOL    MW4 8724   0.231   2.056   3.778
 2174SOL     OW 8725   0.269   2.300   3.857
 2174SOL    HW2 8726   0.268   2.300   3.952
 2174SOL    HW3 8727   0.179   2.319   3.831
 2174SOL    MW4 8728   0.257   2.302   3.866
 2175SOL     OW 8729   0.020   2.409   3.776
 2175SOL    HW2 8730  -0.066   2.380   3.806
 2175SOL    HW3 8731   0.027   2.499   3.808
 2175SOL    MW4 8732   0.009   2.417   3.784
 2176SOL     OW 8733   0.061   2.668   3.876
 2176SOL    HW2 8734   0.060   2.688   3.970
 2176SOL    HW3 8735   0.122   2.731   3.839
 2176SOL    MW4 8736   0.069   2.679   3.883
 2177SOL     OW 8737   0.250   2.853   3.772
 2177SOL    HW2 8738   0.323   2.800   3.803
 2177SOL    HW3 8739   0.259   2.853   3.677
 2177SOL    MW4 8740   0.261   2.846   3.763
 2178SOL     OW 8741   0.241   3.117   3.861
 2178SOL    HW2 8742   0.247   3.102   3.955
 2178SOL    HW3 8743   0.252   3.030   3.822
 2178SOL    MW4 8744   0.243   3.103   3.868
 2179SOL     OW 8745   0.009   3.239   3.780
 2179SOL    HW2 8746   0.093   3.203   3.809
 2179SOL    HW3 8747   0.006   3.220   3.686
 2179SOL    MW4 8748   0.020   3.231   3.772
 2180SOL     OW 8749   4.423   3.482   3.898
 2180SOL    HW2 8750   4.498   3.541   3.887
 2180SOL    HW3 8751   4.451   3.399   3.859
 2180SOL    MW4 8752   4.437   3.479   3.892
 2181SOL     OW 8753   0.152   3.616   3.851
 2181SOL    HW2 8754   0.237   3.571   3.851
 2181SOL    HW3 8755   0.175   3.709   3.854
 2181SOL    MW4 8756   0.167   3.623   3.852
 2182SOL     OW 8757   0.213   3.894   3.903
 2182SOL    HW2 8758   0.212   3.886   3.998
 2182SOL    HW3 8759   0.296   3.936   3.883
 2182SOL    MW4 8760   0.224   3.898   3.913
 2183SOL     OW 8761   0.002   4.004   3.768
 2183SOL    HW2 8762  -0.075   3.949   3.786
 2183SOL    HW3 8763   0.069   3.969   3.827
 2183SOL    MW4 8764   0.001   3.992   3.778
 2184SOL     OW 8765   0.005   4.261   3.907
 2184SOL    HW2 8766   0.058   4.326   3.861
 2184SOL    HW3 8767   0.012   4.182   3.854
 2184SOL    MW4 8768   0.013   4.259   3.894
 2185SOL     OW 8769   0.201   4.388   3.772
 2185SOL    HW2 8770   0.263   4.331   3.818
 2185SOL    HW3 8771   0.234   4.477   3.787
 2185SOL    MW4 8772   0.213   4.392   3.780
 2186SOL     OW 8773   0.636   4.660   3.885
 2186SOL    HW2 8774   0.614   4.567   3.882
 2186SOL    HW3 8775   0.572   4.702   3.828
 2186SOL    MW4 8776   0.625   4.653   3.877
 2187SOL     OW 8777   0.455   0.130   3.748
 2187SOL    HW2 8778   0.463   0.209   3.801
 2187SOL    HW3 8779   0.383   0.081   3.789
 2187SOL    MW4 8780   0.446   0.134   3.761
 2188SOL     OW 8781   0.472   0.372   3.873
 2188SOL    HW2 8782   0.546   0.418   3.832
 2188SOL    HW3 8783   0.395   0.407   3.829
 2188SOL    MW4 8784   0.472   0.383   3.862
 2189SOL     OW 8785   0.688   0.535   3.756
 2189SOL    HW2 8786   0.765   0.486   3.787
 2189SOL    HW3 8787   0.693   0.618   3.802
 2189SOL    MW4 8788   0.699   0.539   3.766
 2190SOL     OW 8789   0.717   0.781   3.860
 2190SOL    HW2 8790   0.790   0.827   3.817
 2190SOL    HW3 8791   0.639   0.824   3.826
 2190SOL    MW4 8792   0.717   0.793   3.850
 2191SOL     OW 8793   0.465   0.896   3.729
 2191SOL    HW2 8794   0.476   0.977   3.779
 2191SOL    HW3 8795   0.389   0.853   3.767
 2191SOL    MW4 8796   0.456   0.901   3.740
 2192SOL     OW 8797   0.484   1.147   3.834
 2192SOL    HW2 8798   0.554   1.190   3.785
 2192SOL    HW3 8799   0.403   1.182   3.795
 2192SOL    MW4 8800   0.482   1.158   3.822
 2193SOL     OW 8801   0.717   1.307   3.737
 2193SOL    HW2 8802   0.785   1.247   3.769
 2193SOL    HW3 8803   0.697   1.276   3.649
 2193SOL    MW4 8804   0.724   1.295   3.730
 2194SOL     OW 8805   0.648   1.562   3.807
 2194SOL    HW2 8806   0.729   1.613   3.798
 2194SOL    HW3 8807   0.674   1.473   3.781
 2194SOL    MW4 8808   0.662   1.557   3.802
 2195SOL     OW 8809   0.405   1.664   3.775
 2195SOL    HW2 8810   0.485   1.614   3.791
 2195SOL    HW3 8811   0.334   1.605   3.800
 2195SOL    MW4 8812   0.406   1.650   3.780
 2196SOL     OW 8813   0.456   1.907   3.916
 2196SOL    HW2 8814   0.439   1.829   3.863
 2196SOL    HW3 8815   0.385   1.967   3.894
 2196SOL    MW4 8816   0.444   1.905   3.906
 2197SOL     OW 8817   0.662   2.063   3.750
 2197SOL    HW2 8818   0.657   2.148   3.793
 2197SOL    HW3 8819   0.608   2.005   3.803
 2197SOL    MW4 8820   0.654   2.067   3.763
 2198SOL     OW 8821   0.639   2.312   3.864
 2198SOL    HW2 8822   0.724   2.345   3.834
 2198SOL    HW3 8823   0.575   2.361   3.812
 2198SOL    MW4 8824   0.642   2.323   3.853
 2199SOL     OW 8825   0.460   2.473   3.739
 2199SOL    HW2 8826   0.380   2.431   3.771
 2199SOL    HW3 8827   0.439   2.501   3.650
 2199SOL    MW4 8828   0.447   2.471   3.732
 2200SOL     OW 8829   0.462   2.720   3.880
 2200SOL    HW2 8830   0.540   2.770   3.855
 2200SOL    HW3 8831   0.475   2.634   3.840
 2200SOL    MW4 8832   0.474   2.716   3.871
 2201SOL     OW 8833   0.686   2.859   3.818
 2201SOL    HW2 8834   0.759   2.809   3.855
 2201SOL    HW3 8835   0.711   2.875   3.727
 2201SOL    MW4 8836   0.699   2.854   3.811
 2202SOL     OW 8837   0.676   3.133   3.845
 2202SOL    HW2 8838   0.657   3.146   3.937
 2202SOL    HW3 8839   0.698   3.039   3.838
 2202SOL    MW4 8840   0.677   3.122   3.856
 2203SOL     OW 8841   0.446   3.263   3.761
 2203SOL    HW2 8842   0.528   3.223   3.790
 2203SOL    HW3 8843   0.377   3.212   3.805
 2203SOL    MW4 8844   0.448   3.251   3.771
 2204SOL     OW 8845   0.406   3.528   3.833
 2204SOL    HW2 8846   0.491   3.562   3.806
 2204SOL    HW3 8847   0.413   3.433   3.818
 2204SOL    MW4 8848   0.419   3.520   3.828
 2205SOL     OW 8849   0.657   3.627   3.793
 2205SOL    HW2 8850   0.664   3.714   3.833
 2205SOL    HW3 8851   0.664   3.643   3.699
 2205SOL    MW4 8852   0.659   3.641   3.786
 2206SOL     OW 8853   0.657   3.876   3.905
 2206SOL    HW2 8854   0.650   3.873   4.000
 2206SOL    HW3 8855   0.746   3.909   3.889
 2206SOL    MW4 8856   0.668   3.880   3.915
 2207SOL     OW 8857   0.445   4.038   3.806
 2207SOL    HW2 8858   0.512   3.978   3.837
 2207SOL    HW3 8859   0.450   4.032   3.710
 2207SOL    MW4 8860   0.455   4.029   3.797
 2208SOL     OW 8861   0.430   4.300   3.908
 2208SOL    HW2 8862   0.500   4.354   3.871
 2208SOL    HW3 8863   0.438   4.216   3.863
 2208SOL    MW4 8864   0.440   4.296   3.897
 2209SOL     OW 8865   0.636   4.403   3.786
 2209SOL    HW2 8866   0.719   4.364   3.814
 2209SOL    HW3 8867   0.650   4.424   3.694
 2209SOL    MW4 8868   0.649   4.401   3.778
 2210SOL     OW 8869   1.094   4.638   3.832
 2210SOL    HW2 8870   1.177   4.677   3.802
 2210SOL    HW3 8871   1.101   4.546   3.806
 2210SOL    MW4 8872   1.106   4.631   3.824
 2211SOL     OW 8873   0.858   0.108   3.754
 2211SOL    HW2 8874   0.940   0.064   3.779
 2211SOL    HW3 8875   0.791   0.064   3.807
 2211SOL    MW4 8876   0.860   0.096   3.764
 2212SOL     OW 8877   0.902   0.369   3.835
 2212SOL    HW2 8878   0.885   0.379   3.928
 2212SOL    HW3 8879   0.892   0.276   3.818
 2212SOL    MW4 8880   0.898   0.358   3.845
 2213SOL     OW 8881   1.131   0.506   3.748
 2213SOL    HW2 8882   1.199   0.444   3.775
 2213SOL    HW3 8883   1.048   0.462   3.770
 2213SOL    MW4 8884   1.129   0.492   3.755
 2214SOL     OW 8885   1.158   0.762   3.850
 2214SOL    HW2 8886   1.140   0.773   3.943
 2214SOL    HW3 8887   1.155   0.667   3.836
 2214SOL    MW4 8888   1.155   0.751   3.861
 2215SOL     OW 8889   0.936   0.878   3.728
 2215SOL    HW2 8890   1.019   0.838   3.751
 2215SOL    HW3 8891   0.915   0.844   3.641
 2215SOL    MW4 8892   0.944   0.868   3.719
 2216SOL     OW 8893   0.891   1.123   3.837
 2216SOL    HW2 8894   0.874   1.113   3.931
 2216SOL    HW3 8895   0.908   1.034   3.806
 2216SOL    MW4 8896   0.891   1.110   3.846
 2217SOL     OW 8897   1.118   1.275   3.732
 2217SOL    HW2 8898   1.124   1.356   3.782
 2217SOL    HW3 8899   1.040   1.231   3.767
 2217SOL    MW4 8900   1.108   1.280   3.743
 2218SOL     OW 8901   1.112   1.534   3.844
 2218SOL    HW2 8902   1.139   1.523   3.935
 2218SOL    HW3 8903   1.179   1.592   3.806
 2218SOL    MW4 8904   1.124   1.540   3.851
 2219SOL     OW 8905   0.882   1.686   3.758
 2219SOL    HW2 8906   0.956   1.627   3.775
 2219SOL    HW3 8907   0.865   1.676   3.664
 2219SOL    MW4 8908   0.889   1.677   3.748
 2220SOL     OW 8909   0.889   1.950   3.868
 2220SOL    HW2 8910   0.883   1.860   3.836
 2220SOL    HW3 8911   0.809   1.992   3.834
 2220SOL    MW4 8912   0.877   1.944   3.859
 2221SOL     OW 8913   1.119   2.060   3.753
 2221SOL    HW2 8914   1.043   2.016   3.793
 2221SOL    HW3 8915   1.101   2.058   3.659
 2221SOL    MW4 8916   1.106   2.054   3.746
 2222SOL     OW 8917   1.135   2.317   3.848
 2222SOL    HW2 8918   1.125   2.313   3.943
 2222SOL    HW3 8919   1.131   2.226   3.819
 2222SOL    MW4 8920   1.133   2.305   3.857
 2223SOL     OW 8921   0.879   2.408   3.779
 2223SOL    HW2 8922   0.874   2.496   3.817
 2223SOL    HW3 8923   0.966   2.377   3.801
 2223SOL    MW4 8924   0.890   2.415   3.787
 2224SOL     OW 8925   0.885   2.681   3.898
 2224SOL    HW2 8926   0.892   2.694   3.993
 2224SOL    HW3 8927   0.970   2.710   3.864
 2224SOL    MW4 8928   0.897   2.686   3.906
 2225SOL     OW 8929   1.095   2.832   3.782
 2225SOL    HW2 8930   1.172   2.789   3.819
 2225SOL    HW3 8931   1.108   2.925   3.799
 2225SOL    MW4 8932   1.107   2.838   3.789
 2226SOL     OW 8933   1.157   3.090   3.838
 2226SOL    HW2 8934   1.224   3.137   3.788
 2226SOL    HW3 8935   1.075   3.133   3.814
 2226SOL    MW4 8936   1.155   3.102   3.828
 2227SOL     OW 8937   0.928   3.235   3.767
 2227SOL    HW2 8938   0.850   3.192   3.801
 2227SOL    HW3 8939   0.912   3.242   3.673
 2227SOL    MW4 8940   0.916   3.230   3.759
 2228SOL     OW 8941   0.906   3.492   3.857
 2228SOL    HW2 8942   0.917   3.403   3.823
 2228SOL    HW3 8943   0.823   3.521   3.820
 2228SOL    MW4 8944   0.896   3.484   3.848
 2229SOL     OW 8945   1.127   3.624   3.764
 2229SOL    HW2 8946   1.130   3.704   3.817
 2229SOL    HW3 8947   1.051   3.576   3.797
 2229SOL    MW4 8948   1.118   3.628   3.775
 2230SOL     OW 8949   1.116   3.870   3.919
 2230SOL    HW2 8950   1.127   3.853   4.012
 2230SOL    HW3 8951   1.196   3.915   3.893
 2230SOL    MW4 8952   1.128   3.874   3.928
 2231SOL     OW 8953   0.897   3.968   3.807
 2231SOL    HW2 8954   0.968   3.927   3.856
 2231SOL    HW3 8955   0.926   3.965   3.716
 2231SOL    MW4 8956   0.910   3.962   3.801
 2232SOL     OW 8957   0.851   4.242   3.855
 2232SOL    HW2 8958   0.857   4.250   3.950
 2232SOL    HW3 8959   0.854   4.147   3.839
 2232SOL    MW4 8960   0.852   4.230   3.866
 2233SOL     OW 8961   1.063   4.382   3.761
 2233SOL    HW2 8962   0.986   4.338   3.798
 2233SOL    HW3 8963   1.067   4.351   3.671
 2233SOL    MW4 8964   1.053   4.372   3.754
 2234SOL     OW 8965   1.584   0.030   3.847
 2234SOL    HW2 8966   1.591   0.029   3.943
 2234SOL    HW3 8967   1.583  -0.063   3.823
 2234SOL    MW4 8968   1.585   0.017   3.857
 2235SOL     OW 8969   1.334   0.094   3.737
 2235SOL    HW2 8970   1.327   0.182   3.775
 2235SOL    HW3 8971   1.421   0.064   3.763
 2235SOL    MW4 8972   1.345   0.102   3.745
 2236SOL     OW 8973   1.342   0.347   3.857
 2236SOL    HW2 8974   1.328   0.364   3.951
 2236SOL    HW3 8975   1.425   0.390   3.838
 2236SOL    MW4 8976   1.351   0.355   3.867
 2237SOL     OW 8977   1.568   0.504   3.772
 2237SOL    HW2 8978   1.647   0.454   3.793
 2237SOL    HW3 8979   1.589   0.593   3.799
 2237SOL    MW4 8980   1.582   0.509   3.779
 2238SOL     OW 8981   1.608   0.763   3.864
 2238SOL    HW2 8982   1.681   0.814   3.830
 2238SOL    HW3 8983   1.530   0.805   3.828
 2238SOL    MW4 8984   1.607   0.775   3.855
 2239SOL     OW 8985   1.400   0.888   3.756
 2239SOL    HW2 8986   1.394   0.977   3.789
 2239SOL    HW3 8987   1.331   0.841   3.802
 2239SOL    MW4 8988   1.390   0.893   3.766
 2240SOL     OW 8989   1.363   1.149   3.830
 2240SOL    HW2 8990   1.422   1.222   3.809
 2240SOL    HW3 8991   1.275   1.184   3.815
 2240SOL    MW4 8992   1.360   1.163   3.825
 2241SOL     OW 8993   1.565   1.337   3.760
 2241SOL    HW2 8994   1.649   1.295   3.780
 2241SOL    HW3 8995   1.561   1.411   3.820
 2241SOL    MW4 8996   1.576   1.341   3.771
 2242SOL     OW 8997   1.533   1.586   3.898
 2242SOL    HW2 8998   1.531   1.584   3.993
 2242SOL    HW3 8999   1.618   1.624   3.876
 2242SOL    MW4 9000   1.544   1.590   3.907
 2243SOL     OW 9001   1.327   1.679   3.742
 2243SOL    HW2 9002   1.331   1.760   3.792
 2243SOL    HW3 9003   1.402   1.628   3.773
 2243SOL    MW4 9004   1.337   1.683   3.752
 2244SOL     OW 9005   1.342   1.924   3.882
 2244SOL    HW2 9006   1.340   1.935   3.977
 2244SOL    HW3 9007   1.265   1.972   3.851
 2244SOL    MW4 9008   1.331   1.932   3.890
 2245SOL     OW 9009   1.558   2.058   3.761
 2245SOL    HW2 9010   1.480   2.010   3.789
 2245SOL    HW3 9011   1.562   2.046   3.666
 2245SOL    MW4 9012   1.548   2.050   3.752
 2246SOL     OW 9013   1.602   2.336   3.833
 2246SOL    HW2 9014   1.694   2.349   3.810
 2246SOL    HW3 9015   1.580   2.249   3.798
 2246SOL    MW4 9016   1.611   2.326   3.826
 2247SOL     OW 9017   1.363   2.466   3.778
 2247SOL    HW2 9018   1.446   2.433   3.810
 2247SOL    HW3 9019   1.297   2.406   3.813
 2247SOL    MW4 9020   1.365   2.454   3.787
 2248SOL     OW 9021   1.366   2.738   3.852
 2248SOL    HW2 9022   1.373   2.749   3.947
 2248SOL    HW3 9023   1.388   2.646   3.837
 2248SOL    MW4 9024   1.370   2.727   3.863
 2249SOL     OW 9025   1.598   2.824   3.736
 2249SOL    HW2 9026   1.518   2.801   3.783
 2249SOL    HW3 9027   1.573   2.822   3.644
 2249SOL    MW4 9028   1.584   2.821   3.730
 2250SOL     OW 9029   1.538   3.093   3.852
 2250SOL    HW2 9030   1.551   3.093   3.947
 2250SOL    HW3 9031   1.567   3.006   3.825
 2250SOL    MW4 9032   1.544   3.081   3.861
 2251SOL     OW 9033   1.355   3.239   3.719
 2251SOL    HW2 9034   1.331   3.307   3.782
 2251SOL    HW3 9035   1.429   3.193   3.760
 2251SOL    MW4 9036   1.362   3.242   3.733
 2252SOL     OW 9037   1.328   3.465   3.889
 2252SOL    HW2 9038   1.410   3.509   3.868
 2252SOL    HW3 9039   1.261   3.515   3.843
 2252SOL    MW4 9040   1.330   3.477   3.880
 2253SOL     OW 9041   1.560   3.579   3.802
 2253SOL    HW2 9042   1.650   3.556   3.827
 2253SOL    HW3 9043   1.552   3.672   3.823
 2253SOL    MW4 9044   1.571   3.588   3.808
 2254SOL     OW 9045   1.530   3.835   3.889
 2254SOL    HW2 9046   1.552   3.832   3.982
 2254SOL    HW3 9047   1.459   3.899   3.883
 2254SOL    MW4 9048   1.523   3.843   3.901
 2255SOL     OW 9049   1.340   3.998   3.806
 2255SOL    HW2 9050   1.359   4.091   3.814
 2255SOL    HW3 9051   1.334   3.984   3.711
 2255SOL    MW4 9052   1.342   4.008   3.794
 2256SOL     OW 9053   1.338   4.290   3.870
 2256SOL    HW2 9054   1.408   4.335   3.823
 2256SOL    HW3 9055   1.257   4.327   3.833
 2256SOL    MW4 9056   1.336   4.301   3.859
 2257SOL     OW 9057   1.552   4.428   3.759
 2257SOL    HW2 9058   1.621   4.380   3.805
 2257SOL    HW3 9059   1.572   4.416   3.666
 2257SOL    MW4 9060   1.563   4.420   3.753
 2258SOL     OW 9061   2.015   4.659   3.909
 2258SOL    HW2 9062   2.088   4.701   3.864
 2258SOL    HW3 9063   2.012   4.570   3.874
 2258SOL    MW4 9064   2.024   4.653   3.899
 2259SOL     OW 9065   1.815   0.129   3.762
 2259SOL    HW2 9066   1.884   0.089   3.815
 2259SOL    HW3 9067   1.735   0.085   3.790
 2259SOL    MW4 9068   1.814   0.118   3.773
 2260SOL     OW 9069   1.808   0.375   3.861
 2260SOL    HW2 9070   1.793   0.366   3.955
 2260SOL    HW3 9071   1.812   0.285   3.829
 2260SOL    MW4 9072   1.806   0.362   3.869
 2261SOL     OW 9073   2.036   0.519   3.794
 2261SOL    HW2 9074   1.956   0.474   3.821
 2261SOL    HW3 9075   2.041   0.504   3.700
 2261SOL    MW4 9076   2.026   0.511   3.785
 2262SOL     OW 9077   2.028   0.781   3.891
 2262SOL    HW2 9078   2.032   0.769   3.985
 2262SOL    HW3 9079   2.015   0.693   3.855
 2262SOL    MW4 9080   2.027   0.768   3.898
 2263SOL     OW 9081   1.824   0.909   3.761
 2263SOL    HW2 9082   1.896   0.854   3.792
 2263SOL    HW3 9083   1.828   0.903   3.666
 2263SOL    MW4 9084   1.834   0.901   3.753
 2264SOL     OW 9085   1.794   1.176   3.846
 2264SOL    HW2 9086   1.825   1.167   3.936
 2264SOL    HW3 9087   1.808   1.090   3.807
 2264SOL    MW4 9088   1.800   1.164   3.853
 2265SOL     OW 9089   2.027   1.326   3.785
 2265SOL    HW2 9090   2.099   1.277   3.825
 2265SOL    HW3 9091   1.948   1.283   3.819
 2265SOL    MW4 9092   2.026   1.314   3.795
 2266SOL     OW 9093   2.013   1.560   3.953
 2266SOL    HW2 9094   1.936   1.604   3.919
 2266SOL    HW3 9095   2.025   1.484   3.895
 2266SOL    MW4 9096   2.005   1.555   3.941
 2267SOL     OW 9097   1.788   1.657   3.831
 2267SOL    HW2 9098   1.793   1.752   3.843
 2267SOL    HW3 9099   1.788   1.644   3.736
 2267SOL    MW4 9100   1.789   1.668   3.820
 2268SOL     OW 9101   1.774   1.917   3.881
 2268SOL    HW2 9102   1.778   1.940   3.974
 2268SOL    HW3 9103   1.693   1.958   3.850
 2268SOL    MW4 9104   1.764   1.926   3.889
 2269SOL     OW 9105   1.992   2.039   3.782
 2269SOL    HW2 9106   1.908   2.010   3.818
 2269SOL    HW3 9107   1.988   2.016   3.689
 2269SOL    MW4 9108   1.981   2.032   3.774
 2270SOL     OW 9109   2.081   2.275   3.905
 2270SOL    HW2 9110   2.011   2.333   3.875
 2270SOL    HW3 9111   2.063   2.191   3.862
 2270SOL    MW4 9112   2.069   2.271   3.896
 2271SOL     OW 9113   1.850   2.410   3.754
 2271SOL    HW2 9114   1.841   2.498   3.789
 2271SOL    HW3 9115   1.844   2.420   3.659
 2271SOL    MW4 9116   1.848   2.423   3.746
 2272SOL     OW 9117   1.800   2.673   3.830
 2272SOL    HW2 9118   1.796   2.699   3.922
 2272SOL    HW3 9119   1.729   2.720   3.787
 2272SOL    MW4 9120   1.790   2.682   3.837
 2273SOL     OW 9121   2.017   2.807   3.729
 2273SOL    HW2 9122   2.087   2.769   3.781
 2273SOL    HW3 9123   1.939   2.756   3.751
 2273SOL    MW4 9124   2.016   2.795   3.738
 2274SOL     OW 9125   1.986   3.068   3.847
 2274SOL    HW2 9126   2.012   2.989   3.800
 2274SOL    HW3 9127   2.062   3.127   3.841
 2274SOL    MW4 9128   1.999   3.066   3.840
 2275SOL     OW 9129   1.786   3.233   3.785
 2275SOL    HW2 9130   1.850   3.167   3.811
 2275SOL    HW3 9131   1.701   3.189   3.795
 2275SOL    MW4 9132   1.783   3.219   3.790
 2276SOL     OW 9133   1.805   3.495   3.886
 2276SOL    HW2 9134   1.882   3.520   3.835
 2276SOL    HW3 9135   1.791   3.402   3.865
 2276SOL    MW4 9136   1.813   3.486   3.876
 2277SOL     OW 9137   2.016   3.615   3.775
 2277SOL    HW2 9138   2.087   3.553   3.792
 2277SOL    HW3 9139   2.010   3.619   3.680
 2277SOL    MW4 9140   2.025   3.607   3.765
 2278SOL     OW 9141   1.985   3.872   3.896
 2278SOL    HW2 9142   2.078   3.890   3.885
 2278SOL    HW3 9143   1.971   3.788   3.851
 2278SOL    MW4 9144   1.995   3.863   3.889
 2279SOL     OW 9145   1.756   3.984   3.788
 2279SOL    HW2 9146   1.826   3.950   3.845
 2279SOL    HW3 9147   1.676   3.948   3.825
 2279SOL    MW4 9148   1.755   3.975   3.800
 2280SOL     OW 9149   1.763   4.262   3.821
 2280SOL    HW2 9150   1.847   4.304   3.803
 2280SOL    HW3 9151   1.778   4.169   3.803
 2280SOL    MW4 9152   1.776   4.255   3.817
 2281SOL     OW 9153   1.995   4.417   3.783
 2281SOL    HW2 9154   2.080   4.376   3.801
 2281SOL    HW3 9155   1.983   4.406   3.689
 2281SOL    MW4 9156   2.005   4.410   3.773
 2282SOL     OW 9157   2.455   4.650   3.867
 2282SOL    HW2 9158   2.458   4.659   3.962
 2282SOL    HW3 9159   2.523   4.710   3.835
 2282SOL    MW4 9160   2.465   4.659   3.875
 2283SOL     OW 9161   2.219   0.123   3.770
 2283SOL    HW2 9162   2.304   0.083   3.787
 2283SOL    HW3 9163   2.210   0.121   3.674
 2283SOL    MW4 9164   2.229   0.117   3.759
 2284SOL     OW 9165   2.257   0.377   3.883
 2284SOL    HW2 9166   2.245   0.296   3.834
 2284SOL    HW3 9167   2.181   0.431   3.860
 2284SOL    MW4 9168   2.245   0.374   3.874
 2285SOL     OW 9169   2.467   0.502   3.734
 2285SOL    HW2 9170   2.398   0.462   3.787
 2285SOL    HW3 9171   2.434   0.495   3.644
 2285SOL    MW4 9172   2.453   0.496   3.729
 2286SOL     OW 9173   2.462   0.740   3.869
 2286SOL    HW2 9174   2.381   0.785   3.843
 2286SOL    HW3 9175   2.472   0.670   3.805
 2286SOL    MW4 9176   2.453   0.737   3.857
 2287SOL     OW 9177   2.242   0.896   3.772
 2287SOL    HW2 9178   2.170   0.846   3.810
 2287SOL    HW3 9179   2.225   0.896   3.678
 2287SOL    MW4 9180   2.230   0.889   3.764
 2288SOL     OW 9181   2.253   1.164   3.873
 2288SOL    HW2 9182   2.246   1.157   3.968
 2288SOL    HW3 9183   2.234   1.076   3.840
 2288SOL    MW4 9184   2.249   1.152   3.881
 2289SOL     OW 9185   2.454   1.305   3.770
 2289SOL    HW2 9186   2.427   1.389   3.807
 2289SOL    HW3 9187   2.389   1.243   3.803
 2289SOL    MW4 9188   2.442   1.308   3.779
 2290SOL     OW 9189   2.441   1.564   3.879
 2290SOL    HW2 9190   2.520   1.600   3.838
 2290SOL    HW3 9191   2.369   1.616   3.844
 2290SOL    MW4 9192   2.442   1.575   3.869
 2291SOL     OW 9193   2.210   1.703   3.826
 2291SOL    HW2 9194   2.216   1.790   3.867
 2291SOL    HW3 9195   2.134   1.662   3.868
 2291SOL    MW4 9196   2.200   1.709   3.837
 2292SOL     OW 9197   2.236   1.970   3.902
 2292SOL    HW2 9198   2.213   1.985   3.994
 2292SOL    HW3 9199   2.153   1.979   3.855
 2292SOL    MW4 9200   2.222   1.973   3.908
 2293SOL     OW 9201   2.473   2.051   3.802
 2293SOL    HW2 9202   2.478   2.130   3.855
 2293SOL    HW3 9203   2.383   2.020   3.813
 2293SOL    MW4 9204   2.462   2.057   3.811
 2294SOL     OW 9205   2.494   2.314   3.930
 2294SOL    HW2 9206   2.561   2.343   3.868
 2294SOL    HW3 9207   2.413   2.355   3.900
 2294SOL    MW4 9208   2.492   2.323   3.918
 2295SOL     OW 9209   2.267   2.443   3.810
 2295SOL    HW2 9210   2.212   2.378   3.854
 2295SOL    HW3 9211   2.250   2.428   3.717
 2295SOL    MW4 9212   2.258   2.432   3.803
 2296SOL     OW 9213   2.257   2.710   3.861
 2296SOL    HW2 9214   2.269   2.732   3.953
 2296SOL    HW3 9215   2.243   2.616   3.860
 2296SOL    MW4 9216   2.256   2.701   3.873
 2297SOL     OW 9217   2.505   2.770   3.748
 2297SOL    HW2 9218   2.416   2.743   3.771
 2297SOL    HW3 9219   2.498   2.804   3.659
 2297SOL    MW4 9220   2.492   2.771   3.739
 2298SOL     OW 9221   2.487   3.044   3.831
 2298SOL    HW2 9222   2.480   3.045   3.926
 2298SOL    HW3 9223   2.506   2.952   3.809
 2298SOL    MW4 9224   2.489   3.032   3.841
 2299SOL     OW 9225   2.222   3.210   3.755
 2299SOL    HW2 9226   2.246   3.288   3.805
 2299SOL    HW3 9227   2.296   3.151   3.766
 2299SOL    MW4 9228   2.235   3.213   3.763
 2300SOL     OW 9229   2.231   3.459   3.861
 2300SOL    HW2 9230   2.247   3.448   3.955
 2300SOL    HW3 9231   2.303   3.516   3.832
 2300SOL    MW4 9232   2.243   3.465   3.870
 2301SOL     OW 9233   2.459   3.594   3.775
 2301SOL    HW2 9234   2.522   3.536   3.818
 2301SOL    HW3 9235   2.486   3.596   3.684
 2301SOL    MW4 9236   2.471   3.586   3.769
 2302SOL     OW 9237   2.429   3.847   3.917
 2302SOL    HW2 9238   2.497   3.907   3.885
 2302SOL    HW3 9239   2.449   3.764   3.874
 2302SOL    MW4 9240   2.441   3.844   3.907
 2303SOL     OW 9241   2.225   3.982   3.802
 2303SOL    HW2 9242   2.295   3.935   3.847
 2303SOL    HW3 9243   2.236   3.958   3.710
 2303SOL    MW4 9244   2.236   3.972   3.796
 2304SOL     OW 9245   2.231   4.278   3.882
 2304SOL    HW2 9246   2.231   4.285   3.977
 2304SOL    HW3 9247   2.224   4.184   3.864
 2304SOL    MW4 9248   2.230   4.266   3.892
 2305SOL     OW 9249   2.452   4.392   3.777
 2305SOL    HW2 9250   2.365   4.356   3.795
 2305SOL    HW3 9251   2.455   4.474   3.827
 2305SOL    MW4 9252   2.441   4.398   3.786
 2306SOL     OW 9253   2.876   0.013   3.863
 2306SOL    HW2 9254   2.894   0.014   3.957
 2306SOL    HW3 9255   2.955   0.047   3.822
 2306SOL    MW4 9256   2.889   0.018   3.870
 2307SOL     OW 9257   2.653   0.146   3.757
 2307SOL    HW2 9258   2.730   0.093   3.777
 2307SOL    HW3 9259   2.642   0.138   3.663
 2307SOL    MW4 9260   2.662   0.138   3.748
 2308SOL     OW 9261   2.706   0.393   3.851
 2308SOL    HW2 9262   2.689   0.302   3.825
 2308SOL    HW3 9263   2.632   0.442   3.816
 2308SOL    MW4 9264   2.694   0.388   3.843
 2309SOL     OW 9265   2.920   0.514   3.744
 2309SOL    HW2 9266   2.989   0.459   3.782
 2309SOL    HW3 9267   2.838   0.475   3.776
 2309SOL    MW4 9268   2.918   0.502   3.753
 2310SOL     OW 9269   2.919   0.770   3.858
 2310SOL    HW2 9270   2.998   0.823   3.847
 2310SOL    HW3 9271   2.935   0.693   3.804
 2310SOL    MW4 9272   2.931   0.767   3.849
 2311SOL     OW 9273   2.686   0.908   3.808
 2311SOL    HW2 9274   2.768   0.862   3.826
 2311SOL    HW3 9275   2.618   0.852   3.846
 2311SOL    MW4 9276   2.687   0.895   3.815
 2312SOL     OW 9277   2.693   1.183   3.854
 2312SOL    HW2 9278   2.690   1.088   3.847
 2312SOL    HW3 9279   2.605   1.212   3.831
 2312SOL    MW4 9280   2.681   1.174   3.850
 2313SOL     OW 9281   2.932   1.297   3.783
 2313SOL    HW2 9282   2.936   1.390   3.805
 2313SOL    HW3 9283   2.851   1.266   3.823
 2313SOL    MW4 9284   2.922   1.305   3.791
 2314SOL     OW 9285   2.938   1.590   3.848
 2314SOL    HW2 9286   2.934   1.580   3.943
 2314SOL    HW3 9287   3.026   1.622   3.830
 2314SOL    MW4 9288   2.949   1.593   3.858
 2315SOL     OW 9289   2.686   1.695   3.779
 2315SOL    HW2 9290   2.775   1.675   3.809
 2315SOL    HW3 9291   2.686   1.671   3.687
 2315SOL    MW4 9292   2.698   1.689   3.771
 2316SOL     OW 9293   2.684   1.936   3.923
 2316SOL    HW2 9294   2.676   1.843   3.900
 2316SOL    HW3 9295   2.609   1.977   3.881
 2316SOL    MW4 9296   2.673   1.929   3.915
 2317SOL     OW 9297   2.903   2.034   3.761
 2317SOL    HW2 9298   2.887   2.116   3.807
 2317SOL    HW3 9299   2.821   1.984   3.773
 2317SOL    MW4 9300   2.890   2.038   3.769
 2318SOL     OW 9301   2.921   2.303   3.830
 2318SOL    HW2 9302   2.907   2.316   3.924
 2318SOL    HW3 9303   2.998   2.356   3.809
 2318SOL    MW4 9304   2.929   2.312   3.840
 2319SOL     OW 9305   2.694   2.442   3.776
 2319SOL    HW2 9306   2.704   2.533   3.804
 2319SOL    HW3 9307   2.782   2.404   3.785
 2319SOL    MW4 9308   2.707   2.449   3.781
 2320SOL     OW 9309   2.730   2.682   3.875
 2320SOL    HW2 9310   2.721   2.668   3.969
 2320SOL    HW3 9311   2.648   2.725   3.849
 2320SOL    MW4 9312   2.718   2.686   3.884
 2321SOL     OW 9313   2.914   2.884   3.747
 2321SOL    HW2 9314   2.916   2.951   3.817
 2321SOL    HW3 9315   2.849   2.821   3.777
 2321SOL    MW4 9316   2.906   2.885   3.761
 2322SOL     OW 9317   2.911   3.139   3.912
 2322SOL    HW2 9318   2.972   3.183   3.853
 2322SOL    HW3 9319   2.825   3.167   3.882
 2322SOL    MW4 9320   2.908   3.148   3.901
 2323SOL     OW 9321   2.690   3.205   3.727
 2323SOL    HW2 9322   2.685   3.285   3.780
 2323SOL    HW3 9323   2.617   3.151   3.757
 2323SOL    MW4 9324   2.680   3.209   3.738
 2324SOL     OW 9325   2.697   3.449   3.875
 2324SOL    HW2 9326   2.693   3.445   3.971
 2324SOL    HW3 9327   2.768   3.511   3.857
 2324SOL    MW4 9328   2.706   3.457   3.886
 2325SOL     OW 9329   2.908   3.625   3.791
 2325SOL    HW2 9330   2.980   3.581   3.837
 2325SOL    HW3 9331   2.934   3.622   3.699
 2325SOL    MW4 9332   2.921   3.619   3.785
 2326SOL     OW 9333   2.867   3.874   3.915
 2326SOL    HW2 9334   2.857   3.871   4.010
 2326SOL    HW3 9335   2.865   3.782   3.888
 2326SOL    MW4 9336   2.866   3.862   3.924
 2327SOL     OW 9337   2.647   4.012   3.836
 2327SOL    HW2 9338   2.664   4.105   3.848
 2327SOL    HW3 9339   2.731   3.969   3.854
 2327SOL    MW4 9340   2.660   4.019   3.840
 2328SOL     OW 9341   2.686   4.276   3.884
 2328SOL    HW2 9342   2.761   4.322   3.845
 2328SOL    HW3 9343   2.610   4.316   3.842
 2328SOL    MW4 9344   2.686   4.287   3.873
 2329SOL     OW 9345   2.883   4.423   3.778
 2329SOL    HW2 9346   2.967   4.390   3.811
 2329SOL    HW3 9347   2.880   4.514   3.807
 2329SOL    MW4 9348   2.894   4.430   3.787
 2330SOL     OW 9349   3.354   0.005   3.926
 2330SOL    HW2 9350   3.354   0.024   4.020
 2330SOL    HW3 9351   3.422   0.063   3.890
 2330SOL    MW4 9352   3.363   0.015   3.934
 2331SOL     OW 9353   3.139   0.109   3.766
 2331SOL    HW2 9354   3.216   0.071   3.808
 2331SOL    HW3 9355   3.158   0.105   3.672
 2331SOL    MW4 9356   3.152   0.103   3.759
 2332SOL     OW 9357   3.132   0.386   3.851
 2332SOL    HW2 9358   3.128   0.394   3.946
 2332SOL    HW3 9359   3.142   0.292   3.834
 2332SOL    MW4 9360   3.133   0.375   3.861
 2333SOL     OW 9361   3.385   0.502   3.783
 2333SOL    HW2 9362   3.466   0.453   3.800
 2333SOL    HW3 9363   3.318   0.456   3.834
 2333SOL    MW4 9364   3.387   0.489   3.792
 2334SOL     OW 9365   3.387   0.770   3.859
 2334SOL    HW2 9366   3.385   0.761   3.954
 2334SOL    HW3 9367   3.391   0.680   3.826
 2334SOL    MW4 9368   3.387   0.757   3.867
 2335SOL     OW 9369   3.155   0.903   3.778
 2335SOL    HW2 9370   3.240   0.865   3.802
 2335SOL    HW3 9371   3.151   0.893   3.683
 2335SOL    MW4 9372   3.165   0.897   3.769
 2336SOL     OW 9373   3.157   1.173   3.888
 2336SOL    HW2 9374   3.159   1.096   3.832
 2336SOL    HW3 9375   3.081   1.222   3.857
 2336SOL    MW4 9376   3.147   1.169   3.877
 2337SOL     OW 9377   3.394   1.271   3.771
 2337SOL    HW2 9378   3.308   1.250   3.807
 2337SOL    HW3 9379   3.381   1.273   3.677
 2337SOL    MW4 9380   3.381   1.268   3.764
 2338SOL     OW 9381   3.427   1.538   3.847
 2338SOL    HW2 9382   3.354   1.590   3.813
 2338SOL    HW3 9383   3.409   1.449   3.817
 2338SOL    MW4 9384   3.415   1.533   3.839
 2339SOL     OW 9385   3.187   1.670   3.740
 2339SOL    HW2 9386   3.173   1.757   3.778
 2339SOL    HW3 9387   3.181   1.684   3.645
 2339SOL    MW4 9388   3.184   1.684   3.732
 2340SOL     OW 9389   3.126   1.918   3.845
 2340SOL    HW2 9390   3.146   1.959   3.929
 2340SOL    HW3 9391   3.043   1.958   3.818
 2340SOL    MW4 9392   3.118   1.929   3.852
 2341SOL     OW 9393   3.371   2.035   3.757
 2341SOL    HW2 9394   3.283   1.998   3.753
 2341SOL    HW3 9395   3.393   2.053   3.665
 2341SOL    MW4 9396   3.362   2.032   3.744
 2342SOL     OW 9397   3.340   2.319   3.853
 2342SOL    HW2 9398   3.266   2.357   3.805
 2342SOL    HW3 9399   3.331   2.225   3.840
 2342SOL    MW4 9400   3.329   2.311   3.845
 2343SOL     OW 9401   3.149   2.464   3.730
 2343SOL    HW2 9402   3.144   2.552   3.766
 2343SOL    HW3 9403   3.150   2.476   3.635
 2343SOL    MW4 9404   3.148   2.477   3.722
 2344SOL     OW 9405   3.149   2.731   3.837
 2344SOL    HW2 9406   3.146   2.745   3.932
 2344SOL    HW3 9407   3.082   2.791   3.803
 2344SOL    MW4 9408   3.140   2.741   3.845
 2345SOL     OW 9409   3.399   2.830   3.757
 2345SOL    HW2 9410   3.318   2.786   3.783
 2345SOL    HW3 9411   3.387   2.847   3.663
 2345SOL    MW4 9412   3.387   2.827   3.748
 2346SOL     OW 9413   3.318   3.081   3.853
 2346SOL    HW2 9414   3.382   3.148   3.829
 2346SOL    HW3 9415   3.351   3.001   3.813
 2346SOL    MW4 9416   3.331   3.079   3.844
 2347SOL     OW 9417   3.120   3.263   3.758
 2347SOL    HW2 9418   3.176   3.186   3.768
 2347SOL    HW3 9419   3.113   3.276   3.664
 2347SOL    MW4 9420   3.126   3.255   3.747
 2348SOL     OW 9421   3.103   3.474   3.907
 2348SOL    HW2 9422   3.177   3.527   3.875
 2348SOL    HW3 9423   3.107   3.394   3.855
 2348SOL    MW4 9424   3.114   3.471   3.896
 2349SOL     OW 9425   3.335   3.600   3.781
 2349SOL    HW2 9426   3.332   3.694   3.800
 2349SOL    HW3 9427   3.325   3.595   3.686
 2349SOL    MW4 9428   3.333   3.612   3.771
 2350SOL     OW 9429   3.323   3.881   3.858
 2350SOL    HW2 9430   3.388   3.942   3.825
 2350SOL    HW3 9431   3.240   3.928   3.850
 2350SOL    MW4 9432   3.321   3.895   3.853
 2351SOL     OW 9433   3.076   4.022   3.797
 2351SOL    HW2 9434   3.081   4.114   3.821
 2351SOL    HW3 9435   3.015   3.983   3.860
 2351SOL    MW4 9436   3.069   4.029   3.808
 2352SOL     OW 9437   3.104   4.284   3.876
 2352SOL    HW2 9438   3.084   4.284   3.970
 2352SOL    HW3 9439   3.194   4.315   3.871
 2352SOL    MW4 9440   3.113   4.288   3.888
 2353SOL     OW 9441   3.352   4.429   3.804
 2353SOL    HW2 9442   3.440   4.394   3.813
 2353SOL    HW3 9443   3.352   4.509   3.856
 2353SOL    MW4 9444   3.363   4.435   3.812
 2354SOL     OW 9445   3.795   0.055   3.873
 2354SOL    HW2 9446   3.876   0.098   3.845
 2354SOL    HW3 9447   3.811  -0.038   3.857
 2354SOL    MW4 9448   3.808   0.048   3.867
 2355SOL     OW 9449   3.567   0.174   3.801
 2355SOL    HW2 9450   3.651   0.142   3.834
 2355SOL    HW3 9451   3.575   0.169   3.706
 2355SOL    MW4 9452   3.579   0.169   3.793
 2356SOL     OW 9453   3.602   0.387   3.967
 2356SOL    HW2 9454   3.644   0.463   3.927
 2356SOL    HW3 9455   3.603   0.320   3.898
 2356SOL    MW4 9456   3.608   0.388   3.952
 2357SOL     OW 9457   3.776   0.532   3.790
 2357SOL    HW2 9458   3.854   0.487   3.824
 2357SOL    HW3 9459   3.791   0.624   3.811
 2357SOL    MW4 9460   3.788   0.538   3.798
 2358SOL     OW 9461   3.862   0.793   3.858
 2358SOL    HW2 9462   3.937   0.823   3.807
 2358SOL    HW3 9463   3.800   0.867   3.854
 2358SOL    MW4 9464   3.864   0.807   3.851
 2359SOL     OW 9465   3.598   0.913   3.755
 2359SOL    HW2 9466   3.604   1.000   3.793
 2359SOL    HW3 9467   3.519   0.875   3.794
 2359SOL    MW4 9468   3.588   0.919   3.765
 2360SOL     OW 9469   3.604   1.154   3.903
 2360SOL    HW2 9470   3.685   1.194   3.872
 2360SOL    HW3 9471   3.536   1.192   3.848
 2360SOL    MW4 9472   3.606   1.164   3.892
 2361SOL     OW 9473   3.818   1.250   3.750
 2361SOL    HW2 9474   3.909   1.235   3.776
 2361SOL    HW3 9475   3.794   1.332   3.791
 2361SOL    MW4 9476   3.827   1.259   3.759
 2362SOL     OW 9477   3.803   1.511   3.799
 2362SOL    HW2 9478   3.813   1.500   3.894
 2362SOL    HW3 9479   3.742   1.584   3.790
 2362SOL    MW4 9480   3.797   1.519   3.811
 2363SOL     OW 9481   3.619   1.718   3.758
 2363SOL    HW2 9482   3.545   1.660   3.779
 2363SOL    HW3 9483   3.610   1.735   3.664
 2363SOL    MW4 9484   3.608   1.712   3.749
 2364SOL     OW 9485   3.574   1.958   3.909
 2364SOL    HW2 9486   3.585   1.874   3.864
 2364SOL    HW3 9487   3.509   2.004   3.856
 2364SOL    MW4 9488   3.566   1.953   3.896
 2365SOL     OW 9489   3.857   2.102   3.831
 2365SOL    HW2 9490   3.928   2.038   3.833
 2365SOL    HW3 9491   3.779   2.053   3.856
 2365SOL    MW4 9492   3.856   2.087   3.835
 2366SOL     OW 9493   3.820   2.356   3.957
 2366SOL    HW2 9494   3.742   2.379   3.907
 2366SOL    HW3 9495   3.844   2.269   3.925
 2366SOL    MW4 9496   3.813   2.347   3.946
 2367SOL     OW 9497   3.611   2.436   3.774
 2367SOL    HW2 9498   3.521   2.403   3.777
 2367SOL    HW3 9499   3.621   2.467   3.684
 2367SOL    MW4 9500   3.600   2.436   3.762
 2368SOL     OW 9501   3.644   2.701   3.857
 2368SOL    HW2 9502   3.632   2.608   3.835
 2368SOL    HW3 9503   3.565   2.743   3.824
 2368SOL    MW4 9504   3.632   2.694   3.850
 2369SOL     OW 9505   3.823   2.885   3.769
 2369SOL    HW2 9506   3.906   2.838   3.770
 2369SOL    HW3 9507   3.760   2.824   3.805
 2369SOL    MW4 9508   3.826   2.871   3.774
 2370SOL     OW 9509   3.785   3.154   3.865
 2370SOL    HW2 9510   3.697   3.173   3.834
 2370SOL    HW3 9511   3.798   3.061   3.845
 2370SOL    MW4 9512   3.775   3.144   3.858
 2371SOL     OW 9513   3.540   3.234   3.780
 2371SOL    HW2 9514   3.552   3.324   3.812
 2371SOL    HW3 9515   3.548   3.242   3.685
 2371SOL    MW4 9516   3.542   3.247   3.771
 2372SOL     OW 9517   3.559   3.487   3.871
 2372SOL    HW2 9518   3.544   3.487   3.965
 2372SOL    HW3 9519   3.481   3.528   3.834
 2372SOL    MW4 9520   3.547   3.492   3.878
 2373SOL     OW 9521   3.797   3.613   3.796
 2373SOL    HW2 9522   3.793   3.698   3.839
 2373SOL    HW3 9523   3.721   3.566   3.828
 2373SOL    MW4 9524   3.787   3.618   3.806
 2374SOL     OW 9525   3.768   3.876   3.884
 2374SOL    HW2 9526   3.763   3.893   3.978
 2374SOL    HW3 9527   3.849   3.920   3.855
 2374SOL    MW4 9528   3.778   3.884   3.892
 2375SOL     OW 9529   3.554   4.020   3.773
 2375SOL    HW2 9530   3.565   4.105   3.815
 2375SOL    HW3 9531   3.624   3.966   3.808
 2375SOL    MW4 9532   3.565   4.024   3.783
 2376SOL     OW 9533   3.587   4.281   3.888
 2376SOL    HW2 9534   3.589   4.276   3.984
 2376SOL    HW3 9535   3.657   4.342   3.866
 2376SOL    MW4 9536   3.597   4.288   3.898
 2377SOL     OW 9537   3.803   4.442   3.809
 2377SOL    HW2 9538   3.871   4.387   3.848
 2377SOL    HW3 9539   3.812   4.426   3.715
 2377SOL    MW4 9540   3.813   4.433   3.802
 2378SOL     OW 9541   4.247   4.637   3.913
 2378SOL    HW2 9542   4.263   4.634   4.007
 2378SOL    HW3 9543   4.326   4.676   3.876
 2378SOL    MW4 9544   4.259   4.642   3.920
 2379SOL     OW 9545   4.057   0.151   3.817
 2379SOL    HW2 9546   4.108   0.086   3.865
 2379SOL    HW3 9547   4.068   0.127   3.725
 2379SOL    MW4 9548   4.065   0.140   3.811
 2380SOL     OW 9549   4.008   0.406   3.899
 2380SOL    HW2 9550   4.018   0.400   3.994
 2380SOL    HW3 9551   4.034   0.320   3.867
 2380SOL    MW4 9552   4.013   0.394   3.908
 2381SOL     OW 9553   4.265   0.497   3.791
 2381SOL    HW2 9554   4.187   0.463   3.834
 2381SOL    HW3 9555   4.240   0.507   3.699
 2381SOL    MW4 9556   4.252   0.494   3.785
 2382SOL     OW 9557   4.322   0.747   3.895
 2382SOL    HW2 9558   4.256   0.806   3.856
 2382SOL    HW3 9559   4.309   0.663   3.851
 2382SOL    MW4 9560   4.311   0.744   3.884
 2383SOL     OW 9561   4.194   0.944   3.752
 2383SOL    HW2 9562   4.170   1.023   3.801
 2383SOL    HW3 9563   4.147   0.952   3.669
 2383SOL    MW4 9564   4.185   0.956   3.747
 2384SOL     OW 9565   4.080   1.170   3.866
 2384SOL    HW2 9566   4.059   1.160   3.959
 2384SOL    HW3 9567   4.149   1.237   3.865
 2384SOL    MW4 9568   4.086   1.178   3.878
 2385SOL     OW 9569   4.299   1.324   3.809
 2385SOL    HW2 9570   4.274   1.410   3.844
 2385SOL    HW3 9571   4.281   1.331   3.715
 2385SOL    MW4 9572   4.293   1.337   3.801
 2386SOL     OW 9573   4.239   1.584   3.896
 2386SOL    HW2 9574   4.172   1.628   3.844
 2386SOL    HW3 9575   4.322   1.608   3.854
 2386SOL    MW4 9576   4.241   1.593   3.884
 2387SOL     OW 9577   4.043   1.675   3.733
 2387SOL    HW2 9578   4.028   1.756   3.780
 2387SOL    HW3 9579   3.968   1.620   3.754
 2387SOL    MW4 9580   4.031   1.678   3.742
 2388SOL     OW 9581   4.029   1.911   3.871
 2388SOL    HW2 9582   4.012   1.920   3.965
 2388SOL    HW3 9583   4.122   1.933   3.861
 2388SOL    MW4 9584   4.039   1.915   3.882
 2389SOL     OW 9585   4.290   2.024   3.757
 2389SOL    HW2 9586   4.287   2.118   3.774
 2389SOL    HW3 9587   4.285   2.017   3.662
 2389SOL    MW4 9588   4.289   2.035   3.747
 2390SOL     OW 9589   4.258   2.299   3.830
 2390SOL    HW2 9590   4.274   2.306   3.924
 2390SOL    HW3 9591   4.209   2.378   3.807
 2390SOL    MW4 9592   4.254   2.310   3.840
 2391SOL     OW 9593   4.035   2.458   3.777
 2391SOL    HW2 9594   4.040   2.551   3.796
 2391SOL    HW3 9595   3.971   2.424   3.841
 2391SOL    MW4 9596   4.027   2.465   3.788
 2392SOL     OW 9597   4.066   2.727   3.820
 2392SOL    HW2 9598   4.071   2.730   3.915
 2392SOL    HW3 9599   4.154   2.750   3.790
 2392SOL    MW4 9600   4.078   2.730   3.828
 2393SOL     OW 9601   4.315   2.810   3.753
 2393SOL    HW2 9602   4.305   2.899   3.788
 2393SOL    HW3 9603   4.392   2.776   3.798
 2393SOL    MW4 9604   4.324   2.817   3.764
 2394SOL     OW 9605   4.283   3.086   3.852
 2394SOL    HW2 9606   4.210   3.142   3.825
 2394SOL    HW3 9607   4.361   3.140   3.838
 2394SOL    MW4 9608   4.284   3.101   3.847
 2395SOL     OW 9609   4.031   3.236   3.764
 2395SOL    HW2 9610   3.944   3.211   3.795
 2395SOL    HW3 9611   4.024   3.236   3.669
 2395SOL    MW4 9612   4.019   3.233   3.756
 2396SOL     OW 9613   4.015   3.472   3.914
 2396SOL    HW2 9614   4.008   3.392   3.862
 2396SOL    HW3 9615   3.941   3.526   3.884
 2396SOL    MW4 9616   4.004   3.468   3.903
 2397SOL     OW 9617   4.207   3.614   3.776
 2397SOL    HW2 9618   4.138   3.560   3.813
 2397SOL    HW3 9619   4.288   3.581   3.816
 2397SOL    MW4 9620   4.209   3.603   3.786
 2398SOL     OW 9621   4.258   3.874   3.856
 2398SOL    HW2 9622   4.172   3.917   3.853
 2398SOL    HW3 9623   4.241   3.784   3.829
 2398SOL    MW4 9624   4.244   3.868   3.852
 2399SOL     OW 9625   4.008   3.998   3.788
 2399SOL    HW2 9626   4.011   4.080   3.836
 2399SOL    HW3 9627   4.022   4.023   3.697
 2399SOL    MW4 9628   4.010   4.012   3.782
 2400SOL     OW 9629   3.984   4.270   3.904
 2400SOL    HW2 9630   3.964   4.269   3.997
 2400SOL    HW3 9631   4.070   4.312   3.898
 2400SOL    MW4 9632   3.993   4.275   3.915
 2401SOL     OW 9633   4.243   4.360   3.860
 2401SOL    HW2 9634   4.255   4.452   3.884
 2401SOL    HW3 9635   4.329   4.321   3.871
 2401SOL    MW4 9636   4.256   4.367   3.865
 2402SOL     OW 9637   0.258   4.614   4.132
 2402SOL    HW2 9638   0.328   4.666   4.171
 2402SOL    HW3 9639   0.245   4.542   4.193
 2402SOL    MW4 9640   0.265   4.611   4.145
 2403SOL     OW 9641   0.019   0.059   4.219
 2403SOL    HW2 9642   0.008   0.056   4.314
 2403SOL    HW3 9643   0.094   0.002   4.202
 2403SOL    MW4 9644   0.027   0.051   4.230
 2404SOL     OW 9645   0.033   0.325   4.161
 2404SOL    HW2 9646   0.031   0.230   4.173
 2404SOL    HW3 9647   0.027   0.338   4.066
 2404SOL    MW4 9648   0.032   0.315   4.150
 2405SOL     OW 9649   0.257   0.462   4.248
 2405SOL    HW2 9650   0.333   0.417   4.211
 2405SOL    HW3 9651   0.181   0.417   4.211
 2405SOL    MW4 9652   0.257   0.450   4.238
 2406SOL     OW 9653   0.246   0.718   4.102
 2406SOL    HW2 9654   0.175   0.761   4.150
 2406SOL    HW3 9655   0.259   0.635   4.148
 2406SOL    MW4 9656   0.238   0.713   4.114
 2407SOL     OW 9657   0.066   0.847   4.266
 2407SOL    HW2 9658  -0.022   0.813   4.248
 2407SOL    HW3 9659   0.058   0.942   4.258
 2407SOL    MW4 9660   0.053   0.855   4.262
 2408SOL     OW 9661   0.077   1.120   4.201
 2408SOL    HW2 9662   0.145   1.185   4.221
 2408SOL    HW3 9663   0.069   1.122   4.106
 2408SOL    MW4 9664   0.085   1.129   4.191
 2409SOL     OW 9665   0.253   1.337   4.260
 2409SOL    HW2 9666   0.246   1.327   4.355
 2409SOL    HW3 9667   0.336   1.295   4.237
 2409SOL    MW4 9668   0.263   1.330   4.269
 2410SOL     OW 9669   4.453   1.667   4.690
 2410SOL    HW2 9670   4.524   1.700   4.636
 2410SOL    HW3 9671   4.497   1.627   4.765
 2410SOL    MW4 9672   4.468   1.666   4.693
 2411SOL     OW 9673   0.019   1.675   4.296
 2411SOL    HW2 9674  -0.053   1.623   4.259
 2411SOL    HW3 9675   0.000   1.765   4.269
 2411SOL    MW4 9676   0.007   1.680   4.288
 2412SOL     OW 9677   0.210   2.079   4.237
 2412SOL    HW2 9678   0.202   2.098   4.330
 2412SOL    HW3 9679   0.273   2.007   4.232
 2412SOL    MW4 9680   0.217   2.072   4.248
 2413SOL     OW 9681   0.685   1.529   4.617
 2413SOL    HW2 9682   0.596   1.564   4.614
 2413SOL    HW3 9683   0.730   1.584   4.681
 2413SOL    MW4 9684   0.679   1.541   4.625
 2414SOL     OW 9685   0.265   2.322   4.132
 2414SOL    HW2 9686   0.346   2.368   4.155
 2414SOL    HW3 9687   0.272   2.238   4.178
 2414SOL    MW4 9688   0.277   2.317   4.141
 2415SOL     OW 9689   0.035   2.427   4.246
 2415SOL    HW2 9690  -0.043   2.395   4.200
 2415SOL    HW3 9691   0.109   2.386   4.202
 2415SOL    MW4 9692   0.035   2.417   4.234
 2416SOL     OW 9693   0.024   2.687   4.145
 2416SOL    HW2 9694   0.099   2.737   4.179
 2416SOL    HW3 9695   0.037   2.598   4.180
 2416SOL    MW4 9696   0.036   2.682   4.154
 2417SOL     OW 9697   0.268   2.815   4.272
 2417SOL    HW2 9698   0.356   2.791   4.243
 2417SOL    HW3 9699   0.250   2.898   4.227
 2417SOL    MW4 9700   0.277   2.822   4.262
 2418SOL     OW 9701   0.233   3.053   4.126
 2418SOL    HW2 9702   0.309   3.106   4.150
 2418SOL    HW3 9703   0.158   3.101   4.162
 2418SOL    MW4 9704   0.233   3.066   4.134
 2419SOL     OW 9705   0.018   3.193   4.246
 2419SOL    HW2 9706  -0.061   3.142   4.224
 2419SOL    HW3 9707   0.001   3.280   4.209
 2419SOL    MW4 9708   0.005   3.198   4.238
 2420SOL     OW 9709   4.470   3.465   4.167
 2420SOL    HW2 9710   4.387   3.507   4.190
 2420SOL    HW3 9711   4.459   3.440   4.075
 2420SOL    MW4 9712   4.458   3.467   4.158
 2421SOL     OW 9713   0.188   3.623   4.239
 2421SOL    HW2 9714   0.252   3.578   4.185
 2421SOL    HW3 9715   0.107   3.572   4.227
 2421SOL    MW4 9716   0.186   3.610   4.230
 2422SOL     OW 9717   0.184   3.885   4.165
 2422SOL    HW2 9718   0.111   3.931   4.206
 2422SOL    HW3 9719   0.175   3.794   4.194
 2422SOL    MW4 9720   0.173   3.879   4.174
 2423SOL     OW 9721   4.448   4.012   4.272
 2423SOL    HW2 9722   4.439   3.996   4.366
 2423SOL    HW3 9723   4.375   3.965   4.233
 2423SOL    MW4 9724   4.437   4.003   4.280
 2424SOL     OW 9725   4.477   4.281   4.183
 2424SOL    HW2 9726   4.467   4.194   4.220
 2424SOL    HW3 9727   4.492   4.266   4.089
 2424SOL    MW4 9728   4.478   4.268   4.175
 2425SOL     OW 9729   0.217   4.389   4.289
 2425SOL    HW2 9730   0.218   4.356   4.378
 2425SOL    HW3 9731   0.134   4.359   4.253
 2425SOL    MW4 9732   0.207   4.381   4.296
 2426SOL     OW 9733   0.731   0.036   4.137
 2426SOL    HW2 9734   0.648   0.042   4.184
 2426SOL    HW3 9735   0.706   0.024   4.046
 2426SOL    MW4 9736   0.717   0.036   4.131
 2427SOL     OW 9737   0.475   0.053   4.269
 2427SOL    HW2 9738   0.482   0.042   4.364
 2427SOL    HW3 9739   0.457   0.146   4.256
 2427SOL    MW4 9740   0.473   0.064   4.280
 2428SOL     OW 9741   0.479   0.335   4.155
 2428SOL    HW2 9742   0.541   0.394   4.198
 2428SOL    HW3 9743   0.489   0.354   4.062
 2428SOL    MW4 9744   0.489   0.345   4.148
 2429SOL     OW 9745   0.679   0.507   4.261
 2429SOL    HW2 9746   0.755   0.466   4.221
 2429SOL    HW3 9747   0.680   0.597   4.228
 2429SOL    MW4 9748   0.689   0.514   4.251
 2430SOL     OW 9749   0.696   0.769   4.157
 2430SOL    HW2 9750   0.625   0.829   4.182
 2430SOL    HW3 9751   0.699   0.775   4.062
 2430SOL    MW4 9752   0.687   0.778   4.148
 2431SOL     OW 9753   0.434   0.901   4.192
 2431SOL    HW2 9754   0.419   0.985   4.149
 2431SOL    HW3 9755   0.372   0.841   4.150
 2431SOL    MW4 9756   0.424   0.905   4.181
 2432SOL     OW 9757   0.428   1.162   4.101
 2432SOL    HW2 9758   0.511   1.196   4.135
 2432SOL    HW3 9759   0.440   1.163   4.006
 2432SOL    MW4 9760   0.440   1.167   4.093
 2433SOL     OW 9761   0.646   1.248   4.226
 2433SOL    HW2 9762   0.627   1.260   4.319
 2433SOL    HW3 9763   0.648   1.337   4.190
 2433SOL    MW4 9764   0.644   1.261   4.234
 2434SOL     OW 9765   0.664   1.520   4.093
 2434SOL    HW2 9766   0.748   1.555   4.123
 2434SOL    HW3 9767   0.664   1.537   3.998
 2434SOL    MW4 9768   0.675   1.527   4.084
 2435SOL     OW 9769   0.238   1.582   4.131
 2435SOL    HW2 9770   0.242   1.497   4.176
 2435SOL    HW3 9771   0.177   1.634   4.184
 2435SOL    MW4 9772   0.230   1.578   4.144
 2436SOL     OW 9773   0.412   1.878   4.187
 2436SOL    HW2 9774   0.425   1.788   4.217
 2436SOL    HW3 9775   0.420   1.872   4.092
 2436SOL    MW4 9776   0.415   1.865   4.179
 2437SOL     OW 9777   0.650   2.048   4.272
 2437SOL    HW2 9778   0.654   2.095   4.356
 2437SOL    HW3 9779   0.566   2.002   4.274
 2437SOL    MW4 9780   0.639   2.048   4.284
 2438SOL     OW 9781   0.673   2.297   4.133
 2438SOL    HW2 9782   0.657   2.206   4.158
 2438SOL    HW3 9783   0.636   2.305   4.045
 2438SOL    MW4 9784   0.666   2.286   4.125
 2439SOL     OW 9785   0.487   2.438   4.260
 2439SOL    HW2 9786   0.506   2.531   4.246
 2439SOL    HW3 9787   0.558   2.393   4.215
 2439SOL    MW4 9788   0.499   2.444   4.252
 2440SOL     OW 9789   0.501   2.698   4.153
 2440SOL    HW2 9790   0.570   2.761   4.172
 2440SOL    HW3 9791   0.491   2.703   4.057
 2440SOL    MW4 9792   0.508   2.707   4.143
 2441SOL     OW 9793   0.698   2.894   4.234
 2441SOL    HW2 9794   0.702   2.886   4.329
 2441SOL    HW3 9795   0.667   2.983   4.219
 2441SOL    MW4 9796   0.694   2.905   4.245
 2442SOL     OW 9797   0.657   3.141   4.126
 2442SOL    HW2 9798   0.736   3.169   4.171
 2442SOL    HW3 9799   0.585   3.179   4.177
 2442SOL    MW4 9800   0.658   3.150   4.138
 2443SOL     OW 9801   0.424   3.229   4.251
 2443SOL    HW2 9802   0.388   3.223   4.340
 2443SOL    HW3 9803   0.417   3.322   4.229
 2443SOL    MW4 9804   0.418   3.240   4.260
 2444SOL     OW 9805   0.395   3.496   4.117
 2444SOL    HW2 9806   0.466   3.539   4.164
 2444SOL    HW3 9807   0.419   3.502   4.025
 2444SOL    MW4 9808   0.407   3.502   4.111
 2445SOL     OW 9809   0.618   3.592   4.266
 2445SOL    HW2 9810   0.603   3.556   4.353
 2445SOL    HW3 9811   0.701   3.553   4.237
 2445SOL    MW4 9812   0.627   3.582   4.273
 2446SOL     OW 9813   0.679   3.872   4.219
 2446SOL    HW2 9814   0.602   3.913   4.260
 2446SOL    HW3 9815   0.670   3.779   4.239
 2446SOL    MW4 9816   0.667   3.865   4.227
 2447SOL     OW 9817   0.433   3.994   4.263
 2447SOL    HW2 9818   0.431   4.085   4.233
 2447SOL    HW3 9819   0.353   3.955   4.228
 2447SOL    MW4 9820   0.422   4.001   4.255
 2448SOL     OW 9821   0.455   4.280   4.183
 2448SOL    HW2 9822   0.375   4.316   4.221
 2448SOL    HW3 9823   0.439   4.279   4.089
 2448SOL    MW4 9824   0.443   4.285   4.176
 2449SOL     OW 9825   0.696   4.428   4.253
 2449SOL    HW2 9826   0.615   4.397   4.212
 2449SOL    HW3 9827   0.707   4.516   4.218
 2449SOL    MW4 9828   0.686   4.435   4.243
 2450SOL     OW 9829   1.141   4.638   4.126
 2450SOL    HW2 9830   1.131   4.549   4.159
 2450SOL    HW3 9831   1.127   4.630   4.032
 2450SOL    MW4 9832   1.138   4.625   4.118
 2451SOL     OW 9833   0.969   0.142   4.256
 2451SOL    HW2 9834   1.037   0.091   4.213
 2451SOL    HW3 9835   0.888   0.095   4.237
 2451SOL    MW4 9836   0.967   0.129   4.248
 2452SOL     OW 9837   0.879   0.370   4.116
 2452SOL    HW2 9838   0.948   0.423   4.156
 2452SOL    HW3 9839   0.894   0.281   4.148
 2452SOL    MW4 9840   0.890   0.365   4.125
 2453SOL     OW 9841   1.086   0.533   4.222
 2453SOL    HW2 9842   1.067   0.522   4.315
 2453SOL    HW3 9843   1.165   0.482   4.207
 2453SOL    MW4 9844   1.093   0.525   4.232
 2454SOL     OW 9845   1.123   0.784   4.112
 2454SOL    HW2 9846   1.210   0.805   4.147
 2454SOL    HW3 9847   1.104   0.697   4.146
 2454SOL    MW4 9848   1.132   0.776   4.121
 2455SOL     OW 9849   0.923   0.897   4.261
 2455SOL    HW2 9850   0.985   0.876   4.192
 2455SOL    HW3 9851   0.840   0.858   4.231
 2455SOL    MW4 9852   0.920   0.889   4.248
 2456SOL     OW 9853   0.871   1.135   4.120
 2456SOL    HW2 9854   0.883   1.057   4.175
 2456SOL    HW3 9855   0.792   1.177   4.156
 2456SOL    MW4 9856   0.862   1.130   4.132
 2457SOL     OW 9857   1.111   1.265   4.196
 2457SOL    HW2 9858   1.097   1.286   4.288
 2457SOL    HW3 9859   1.041   1.204   4.174
 2457SOL    MW4 9860   1.100   1.260   4.206
 2458SOL     OW 9861   1.132   1.524   4.128
 2458SOL    HW2 9862   1.046   1.562   4.147
 2458SOL    HW3 9863   1.119   1.430   4.135
 2458SOL    MW4 9864   1.119   1.517   4.131
 2459SOL     OW 9865   0.881   1.650   4.186
 2459SOL    HW2 9866   0.885   1.635   4.280
 2459SOL    HW3 9867   0.863   1.744   4.178
 2459SOL    MW4 9868   0.879   1.661   4.198
 2460SOL     OW 9869   0.876   1.923   4.140
 2460SOL    HW2 9870   0.798   1.968   4.171
 2460SOL    HW3 9871   0.885   1.948   4.049
 2460SOL    MW4 9872   0.867   1.932   4.132
 2461SOL     OW 9873   1.095   2.049   4.269
 2461SOL    HW2 9874   1.120   2.041   4.361
 2461SOL    HW3 9875   1.015   1.995   4.262
 2461SOL    MW4 9876   1.088   2.041   4.280
 2462SOL     OW 9877   1.109   2.287   4.128
 2462SOL    HW2 9878   1.179   2.338   4.169
 2462SOL    HW3 9879   1.111   2.203   4.174
 2462SOL    MW4 9880   1.119   2.283   4.139
 2463SOL     OW 9881   0.905   2.431   4.223
 2463SOL    HW2 9882   0.979   2.385   4.184
 2463SOL    HW3 9883   0.828   2.386   4.189
 2463SOL    MW4 9884   0.905   2.419   4.213
 2464SOL     OW 9885   0.919   2.745   4.169
 2464SOL    HW2 9886   0.914   2.665   4.221
 2464SOL    HW3 9887   0.837   2.791   4.187
 2464SOL    MW4 9888   0.908   2.741   4.178
 2465SOL     OW 9889   1.155   2.867   4.182
 2465SOL    HW2 9890   1.136   2.956   4.153
 2465SOL    HW3 9891   1.075   2.818   4.160
 2465SOL    MW4 9892   1.142   2.872   4.175
 2466SOL     OW 9893   1.132   3.126   4.112
 2466SOL    HW2 9894   1.208   3.158   4.162
 2466SOL    HW3 9895   1.165   3.114   4.023
 2466SOL    MW4 9896   1.147   3.128   4.107
 2467SOL     OW 9897   0.891   3.216   4.218
 2467SOL    HW2 9898   0.926   3.245   4.302
 2467SOL    HW3 9899   0.967   3.184   4.170
 2467SOL    MW4 9900   0.906   3.216   4.223
 2468SOL     OW 9901   0.847   3.499   4.131
 2468SOL    HW2 9902   0.884   3.416   4.160
 2468SOL    HW3 9903   0.867   3.503   4.037
 2468SOL    MW4 9904   0.854   3.488   4.122
 2469SOL     OW 9905   1.091   3.579   4.253
 2469SOL    HW2 9906   1.097   3.675   4.251
 2469SOL    HW3 9907   1.001   3.560   4.227
 2469SOL    MW4 9908   1.080   3.589   4.250
 2470SOL     OW 9909   1.136   3.842   4.215
 2470SOL    HW2 9910   1.219   3.887   4.231
 2470SOL    HW3 9911   1.069   3.906   4.240
 2470SOL    MW4 9912   1.138   3.856   4.221
 2471SOL     OW 9913   0.898   4.009   4.292
 2471SOL    HW2 9914   0.890   4.091   4.244
 2471SOL    HW3 9915   0.820   3.959   4.268
 2471SOL    MW4 9916   0.886   4.013   4.282
 2472SOL     OW 9917   0.890   4.254   4.123
 2472SOL    HW2 9918   0.978   4.282   4.146
 2472SOL    HW3 9919   0.833   4.318   4.167
 2472SOL    MW4 9920   0.894   4.266   4.132
 2473SOL     OW 9921   1.122   4.373   4.230
 2473SOL    HW2 9922   1.113   4.350   4.322
 2473SOL    HW3 9923   1.200   4.325   4.201
 2473SOL    MW4 9924   1.131   4.363   4.238
 2474SOL     OW 9925   1.593   0.001   4.113
 2474SOL    HW2 9926   1.662   0.040   4.166
 2474SOL    HW3 9927   1.512   0.036   4.150
 2474SOL    MW4 9928   1.591   0.010   4.125
 2475SOL     OW 9929   1.350   0.118   4.213
 2475SOL    HW2 9930   1.322   0.132   4.303
 2475SOL    HW3 9931   1.283   0.061   4.175
 2475SOL    MW4 9932   1.337   0.113   4.220
 2476SOL     OW 9933   1.330   0.388   4.152
 2476SOL    HW2 9934   1.413   0.420   4.187
 2476SOL    HW3 9935   1.321   0.300   4.188
 2476SOL    MW4 9936   1.340   0.381   4.161
 2477SOL     OW 9937   1.549   0.487   4.281
 2477SOL    HW2 9938   1.543   0.513   4.372
 2477SOL    HW3 9939   1.555   0.569   4.232
 2477SOL    MW4 9940   1.549   0.501   4.286
 2478SOL     OW 9941   1.574   0.727   4.140
 2478SOL    HW2 9942   1.656   0.758   4.177
 2478SOL    HW3 9943   1.586   0.733   4.045
 2478SOL    MW4 9944   1.586   0.732   4.132
 2479SOL     OW 9945   1.358   0.883   4.201
 2479SOL    HW2 9946   1.353   0.971   4.164
 2479SOL    HW3 9947   1.439   0.846   4.164
 2479SOL    MW4 9948   1.368   0.889   4.191
 2480SOL     OW 9949   1.362   1.139   4.102
 2480SOL    HW2 9950   1.286   1.194   4.119
 2480SOL    HW3 9951   1.374   1.143   4.007
 2480SOL    MW4 9952   1.353   1.147   4.092
 2481SOL     OW 9953   1.585   1.287   4.221
 2481SOL    HW2 9954   1.595   1.291   4.316
 2481SOL    HW3 9955   1.507   1.233   4.207
 2481SOL    MW4 9956   1.576   1.280   4.231
 2482SOL     OW 9957   1.579   1.555   4.163
 2482SOL    HW2 9958   1.492   1.584   4.190
 2482SOL    HW3 9959   1.573   1.459   4.160
 2482SOL    MW4 9960   1.566   1.546   4.166
 2483SOL     OW 9961   1.324   1.645   4.286
 2483SOL    HW2 9962   1.317   1.735   4.252
 2483SOL    HW3 9963   1.244   1.602   4.255
 2483SOL    MW4 9964   1.313   1.651   4.277
 2484SOL     OW 9965   1.298   1.900   4.172
 2484SOL    HW2 9966   1.370   1.954   4.205
 2484SOL    HW3 9967   1.219   1.938   4.210
 2484SOL    MW4 9968   1.297   1.912   4.181
 2485SOL     OW 9969   1.525   2.061   4.248
 2485SOL    HW2 9970   1.552   2.063   4.340
 2485SOL    HW3 9971   1.557   2.143   4.211
 2485SOL    MW4 9972   1.532   2.072   4.255
 2486SOL     OW 9973   1.606   2.315   4.148
 2486SOL    HW2 9974   1.643   2.392   4.190
 2486SOL    HW3 9975   1.612   2.332   4.054
 2486SOL    MW4 9976   1.611   2.327   4.141
 2487SOL     OW 9977   1.570   2.885   4.333
 2487SOL    HW2 9978   1.555   2.956   4.395
 2487SOL    HW3 9979   1.659   2.856   4.351
 2487SOL    MW4 9980   1.580   2.891   4.343
 2488SOL     OW 9981   1.393   2.749   4.137
 2488SOL    HW2 9982   1.473   2.782   4.177
 2488SOL    HW3 9983   1.323   2.802   4.175
 2488SOL    MW4 9984   1.394   2.760   4.147
 2489SOL     OW 9985   1.499   2.677   4.547
 2489SOL    HW2 9986   1.581   2.676   4.596
 2489SOL    HW3 9987   1.518   2.730   4.469
 2489SOL    MW4 9988   1.512   2.684   4.543
 2490SOL     OW 9989   1.594   3.102   4.127
 2490SOL    HW2 9990   1.675   3.148   4.150
 2490SOL    HW3 9991   1.601   3.017   4.171
 2490SOL    MW4 9992   1.605   3.097   4.136
 2491SOL     OW 9993   1.367   3.220   4.253
 2491SOL    HW2 9994   1.445   3.186   4.210
 2491SOL    HW3 9995   1.356   3.308   4.216
 2491SOL    MW4 9996   1.376   3.227   4.243
 2492SOL     OW 9997   1.321   3.474   4.157
 2492SOL    HW2 9998   1.249   3.527   4.192
 2492SOL    HW3 9999   1.305   3.473   4.062
 2492SOL    MW410000   1.310   3.481   4.149
 2493SOL     OW10001   1.569   3.562   4.238
 2493SOL    HW210002   1.551   3.562   4.332
 2493SOL    HW310003   1.486   3.533   4.199
 2493SOL    MW410004   1.555   3.558   4.245
 2494SOL     OW10005   1.588   3.848   4.143
 2494SOL    HW210006   1.522   3.910   4.174
 2494SOL    HW310007   1.561   3.764   4.178
 2494SOL    MW410008   1.576   3.845   4.152
 2495SOL     OW10009   1.367   3.979   4.256
 2495SOL    HW210010   1.409   3.996   4.340
 2495SOL    HW310011   1.372   4.062   4.209
 2495SOL    MW410012   1.373   3.992   4.261
 2496SOL     OW10013   1.367   4.238   4.148
 2496SOL    HW210014   1.419   4.297   4.202
 2496SOL    HW310015   1.380   4.268   4.059
 2496SOL    MW410016   1.375   4.250   4.144
 2497SOL     OW10017   1.568   4.420   4.252
 2497SOL    HW210018   1.588   4.509   4.220
 2497SOL    HW310019   1.623   4.363   4.199
 2497SOL    MW410020   1.578   4.425   4.241
 2498SOL     OW10021   2.035   4.615   4.179
 2498SOL    HW210022   1.967   4.666   4.222
 2498SOL    HW310023   2.018   4.627   4.086
 2498SOL    MW410024   2.024   4.623   4.172
 2499SOL     OW10025   1.819   0.085   4.259
 2499SOL    HW210026   1.805   0.058   4.349
 2499SOL    HW310027   1.813   0.181   4.262
 2499SOL    MW410028   1.816   0.094   4.271
 2500SOL     OW10029   1.770   0.349   4.152
 2500SOL    HW210030   1.830   0.410   4.193
 2500SOL    HW310031   1.683   0.376   4.182
 2500SOL    MW410032   1.766   0.360   4.161
 2501SOL     OW10033   1.972   0.508   4.251
 2501SOL    HW210034   1.924   0.545   4.325
 2501SOL    HW310035   2.028   0.441   4.289
 2501SOL    MW410036   1.973   0.504   4.265
 2502SOL     OW10037   2.051   0.759   4.176
 2502SOL    HW210038   2.129   0.798   4.215
 2502SOL    HW310039   2.061   0.665   4.191
 2502SOL    MW410040   2.063   0.752   4.183
 2503SOL     OW10041   1.792   0.863   4.256
 2503SOL    HW210042   1.782   0.947   4.210
 2503SOL    HW310043   1.875   0.828   4.224
 2503SOL    MW410044   1.801   0.870   4.245
 2504SOL     OW10045   1.788   1.112   4.131
 2504SOL    HW210046   1.859   1.148   4.184
 2504SOL    HW310047   1.714   1.170   4.148
 2504SOL    MW410048   1.787   1.124   4.140
 2505SOL     OW10049   2.008   1.258   4.231
 2505SOL    HW210050   2.092   1.219   4.207
 2505SOL    HW310051   2.022   1.352   4.223
 2505SOL    MW410052   2.021   1.265   4.227
 2506SOL     OW10053   2.033   1.528   4.240
 2506SOL    HW210054   2.104   1.587   4.265
 2506SOL    HW310055   2.029   1.534   4.144
 2506SOL    MW410056   2.041   1.536   4.231
 2507SOL     OW10057   1.803   1.695   4.262
 2507SOL    HW210058   1.868   1.625   4.260
 2507SOL    HW310059   1.720   1.651   4.246
 2507SOL    MW410060   1.801   1.680   4.260
 2508SOL     OW10061   1.778   1.953   4.168
 2508SOL    HW210062   1.795   1.865   4.201
 2508SOL    HW310063   1.692   1.976   4.202
 2508SOL    MW410064   1.769   1.944   4.177
 2509SOL     OW10065   1.724   2.577   4.292
 2509SOL    HW210066   1.816   2.565   4.268
 2509SOL    HW310067   1.723   2.575   4.387
 2509SOL    MW410068   1.736   2.575   4.301
 2510SOL     OW10069   2.129   2.384   4.198
 2510SOL    HW210070   2.084   2.300   4.212
 2510SOL    HW310071   2.144   2.387   4.103
 2510SOL    MW410072   2.125   2.373   4.187
 2511SOL     OW10073   1.866   2.857   4.393
 2511SOL    HW210074   1.894   2.784   4.337
 2511SOL    HW310075   1.948   2.891   4.429
 2511SOL    MW410076   1.881   2.852   4.390
 2512SOL     OW10077   1.754   2.773   4.092
 2512SOL    HW210078   1.745   2.706   4.160
 2512SOL    HW310079   1.833   2.822   4.116
 2512SOL    MW410080   1.764   2.771   4.104
 2513SOL     OW10081   2.091   3.102   4.271
 2513SOL    HW210082   2.105   3.057   4.354
 2513SOL    HW310083   2.049   3.037   4.215
 2513SOL    MW410084   2.088   3.088   4.275
 2514SOL     OW10085   2.273   2.837   4.131
 2514SOL    HW210086   2.314   2.923   4.130
 2514SOL    HW310087   2.270   2.813   4.224
 2514SOL    MW410088   2.278   2.845   4.143
 2515SOL     OW10089   1.838   3.210   4.183
 2515SOL    HW210090   1.830   3.304   4.166
 2515SOL    HW310091   1.930   3.198   4.210
 2515SOL    MW410092   1.849   3.221   4.185
 2516SOL     OW10093   1.815   3.489   4.165
 2516SOL    HW210094   1.733   3.515   4.207
 2516SOL    HW310095   1.802   3.507   4.072
 2516SOL    MW410096   1.802   3.495   4.159
 2517SOL     OW10097   2.056   3.577   4.249
 2517SOL    HW210098   2.054   3.668   4.220
 2517SOL    HW310099   1.967   3.545   4.234
 2517SOL    MW410100   2.044   3.584   4.243
 2518SOL     OW10101   2.023   3.849   4.186
 2518SOL    HW210102   1.955   3.909   4.216
 2518SOL    HW310103   2.006   3.839   4.092
 2518SOL    MW410104   2.012   3.856   4.177
 2519SOL     OW10105   1.795   4.020   4.235
 2519SOL    HW210106   1.784   4.106   4.194
 2519SOL    HW310107   1.738   3.962   4.186
 2519SOL    MW410108   1.786   4.024   4.223
 2520SOL     OW10109   1.750   4.266   4.121
 2520SOL    HW210110   1.833   4.303   4.152
 2520SOL    HW310111   1.759   4.264   4.026
 2520SOL    MW410112   1.762   4.270   4.113
 2521SOL     OW10113   2.000   4.342   4.207
 2521SOL    HW210114   1.995   4.318   4.299
 2521SOL    HW310115   2.011   4.437   4.207
 2521SOL    MW410116   2.001   4.351   4.219
 2522SOL     OW10117   2.472   0.065   4.147
 2522SOL    HW210118   2.553   0.107   4.176
 2522SOL    HW310119   2.451   0.002   4.216
 2522SOL    MW410120   2.480   0.062   4.160
 2523SOL     OW10121   2.278   4.605   4.339
 2523SOL    HW210122   2.309   4.516   4.323
 2523SOL    HW310123   2.224   4.626   4.262
 2523SOL    MW410124   2.275   4.596   4.327
 2524SOL     OW10125   2.297   0.289   4.142
 2524SOL    HW210126   2.343   0.206   4.131
 2524SOL    HW310127   2.277   0.317   4.052
 2524SOL    MW410128   2.300   0.281   4.128
 2525SOL     OW10129   2.445   0.503   4.213
 2525SOL    HW210130   2.436   0.503   4.308
 2525SOL    HW310131   2.386   0.434   4.183
 2525SOL    MW410132   2.436   0.494   4.222
 2526SOL     OW10133   2.501   0.787   4.152
 2526SOL    HW210134   2.502   0.698   4.188
 2526SOL    HW310135   2.482   0.775   4.059
 2526SOL    MW410136   2.499   0.773   4.145
 2527SOL     OW10137   2.238   0.912   4.319
 2527SOL    HW210138   2.195   0.938   4.400
 2527SOL    HW310139   2.314   0.861   4.348
 2527SOL    MW410140   2.242   0.909   4.333
 2528SOL     OW10141   2.279   1.155   4.163
 2528SOL    HW210142   2.342   1.221   4.191
 2528SOL    HW310143   2.298   1.078   4.217
 2528SOL    MW410144   2.290   1.153   4.174
 2529SOL     OW10145   2.484   1.338   4.250
 2529SOL    HW210146   2.478   1.314   4.342
 2529SOL    HW310147   2.559   1.289   4.216
 2529SOL    MW410148   2.493   1.328   4.258
 2530SOL     OW10149   2.525   1.595   4.146
 2530SOL    HW210150   2.512   1.504   4.173
 2530SOL    HW310151   2.511   1.595   4.052
 2530SOL    MW410152   2.522   1.583   4.137
 2531SOL     OW10153   2.262   1.694   4.271
 2531SOL    HW210154   2.342   1.663   4.228
 2531SOL    HW310155   2.246   1.780   4.232
 2531SOL    MW410156   2.270   1.701   4.260
 2532SOL     OW10157   2.174   1.966   4.172
 2532SOL    HW210158   2.254   1.999   4.214
 2532SOL    HW310159   2.109   2.033   4.189
 2532SOL    MW410160   2.176   1.979   4.180
 2533SOL     OW10161   2.406   2.070   4.306
 2533SOL    HW210162   2.396   2.030   4.392
 2533SOL    HW310163   2.493   2.042   4.277
 2533SOL    MW410164   2.416   2.061   4.313
 2534SOL     OW10165   2.536   2.488   4.160
 2534SOL    HW210166   2.536   2.426   4.232
 2534SOL    HW310167   2.495   2.441   4.087
 2534SOL    MW410168   2.530   2.474   4.160
 2535SOL     OW10169   2.449   2.403   4.605
 2535SOL    HW210170   2.365   2.423   4.563
 2535SOL    HW310171   2.502   2.481   4.590
 2535SOL    MW410172   2.445   2.416   4.597
 2536SOL     OW10173   2.029   2.653   4.242
 2536SOL    HW210174   2.100   2.704   4.280
 2536SOL    HW310175   2.067   2.566   4.227
 2536SOL    MW410176   2.043   2.648   4.245
 2537SOL     OW10177   2.492   2.711   4.315
 2537SOL    HW210178   2.469   2.635   4.262
 2537SOL    HW310179   2.410   2.739   4.356
 2537SOL    MW410180   2.478   2.705   4.313
 2538SOL     OW10181   2.442   3.047   4.100
 2538SOL    HW210182   2.516   2.997   4.132
 2538SOL    HW310183   2.423   3.109   4.171
 2538SOL    MW410184   2.449   3.049   4.114
 2539SOL     OW10185   1.996   2.922   4.087
 2539SOL    HW210186   1.996   2.981   4.011
 2539SOL    HW310187   2.082   2.880   4.084
 2539SOL    MW410188   2.007   2.925   4.077
 2540SOL     OW10189   2.267   3.415   4.136
 2540SOL    HW210190   2.268   3.336   4.189
 2540SOL    HW310191   2.200   3.471   4.177
 2540SOL    MW410192   2.258   3.412   4.148
 2541SOL     OW10193   2.495   3.549   4.260
 2541SOL    HW210194   2.424   3.497   4.220
 2541SOL    HW310195   2.469   3.640   4.245
 2541SOL    MW410196   2.482   3.554   4.253
 2542SOL     OW10197   2.462   3.831   4.193
 2542SOL    HW210198   2.525   3.890   4.233
 2542SOL    HW310199   2.452   3.864   4.104
 2542SOL    MW410200   2.469   3.843   4.187
 2543SOL     OW10201   2.250   3.988   4.262
 2543SOL    HW210202   2.321   3.932   4.230
 2543SOL    HW310203   2.170   3.939   4.241
 2543SOL    MW410204   2.249   3.974   4.255
 2544SOL     OW10205   2.235   4.234   4.145
 2544SOL    HW210206   2.246   4.151   4.192
 2544SOL    HW310207   2.146   4.262   4.167
 2544SOL    MW410208   2.225   4.227   4.154
 2545SOL     OW10209   2.429   4.372   4.296
 2545SOL    HW210210   2.514   4.361   4.254
 2545SOL    HW310211   2.368   4.327   4.238
 2545SOL    MW410212   2.432   4.365   4.283
 2546SOL     OW10213   2.878   0.030   4.151
 2546SOL    HW210214   2.961   0.055   4.192
 2546SOL    HW310215   2.860  -0.058   4.185
 2546SOL    MW410216   2.886   0.022   4.161
 2547SOL     OW10217   2.690   0.207   4.281
 2547SOL    HW210218   2.688   0.297   4.246
 2547SOL    HW310219   2.748   0.160   4.221
 2547SOL    MW410220   2.697   0.213   4.268
 2548SOL     OW10221   2.706   0.458   4.137
 2548SOL    HW210222   2.612   0.477   4.132
 2548SOL    HW310223   2.729   0.431   4.048
 2548SOL    MW410224   2.697   0.457   4.124
 2549SOL     OW10225   2.929   0.494   4.293
 2549SOL    HW210226   2.966   0.579   4.269
 2549SOL    HW310227   2.851   0.486   4.237
 2549SOL    MW410228   2.924   0.505   4.283
 2550SOL     OW10229   2.931   0.726   4.118
 2550SOL    HW210230   3.020   0.754   4.141
 2550SOL    HW310231   2.925   0.741   4.023
 2550SOL    MW410232   2.942   0.731   4.108
 2551SOL     OW10233   2.769   0.929   4.206
 2551SOL    HW210234   2.839   0.871   4.176
 2551SOL    HW310235   2.688   0.881   4.190
 2551SOL    MW410236   2.768   0.915   4.200
 2552SOL     OW10237   2.718   1.182   4.144
 2552SOL    HW210238   2.737   1.091   4.165
 2552SOL    HW310239   2.711   1.183   4.048
 2552SOL    MW410240   2.720   1.170   4.134
 2553SOL     OW10241   2.957   1.313   4.242
 2553SOL    HW210242   3.021   1.246   4.219
 2553SOL    HW310243   2.873   1.276   4.213
 2553SOL    MW410244   2.954   1.299   4.235
 2554SOL     OW10245   2.979   1.565   4.123
 2554SOL    HW210246   3.052   1.625   4.140
 2554SOL    HW310247   3.003   1.485   4.170
 2554SOL    MW410248   2.992   1.563   4.132
 2555SOL     OW10249   2.763   1.725   4.228
 2555SOL    HW210250   2.837   1.694   4.176
 2555SOL    HW310251   2.687   1.678   4.192
 2555SOL    MW410252   2.762   1.715   4.216
 2556SOL     OW10253   2.650   1.988   4.199
 2556SOL    HW210254   2.688   1.904   4.226
 2556SOL    HW310255   2.636   1.979   4.105
 2556SOL    MW410256   2.654   1.976   4.190
 2557SOL     OW10257   2.900   2.070   4.225
 2557SOL    HW210258   2.884   2.157   4.186
 2557SOL    HW310259   2.817   2.024   4.213
 2557SOL    MW410260   2.887   2.076   4.218
 2558SOL     OW10261   2.848   2.313   4.091
 2558SOL    HW210262   2.902   2.383   4.127
 2558SOL    HW310263   2.760   2.350   4.089
 2558SOL    MW410264   2.843   2.327   4.096
 2559SOL     OW10265   2.775   2.621   4.157
 2559SOL    HW210266   2.788   2.659   4.244
 2559SOL    HW310267   2.689   2.580   4.162
 2559SOL    MW410268   2.766   2.620   4.169
 2560SOL     OW10269   2.665   2.925   4.179
 2560SOL    HW210270   2.619   2.865   4.238
 2560SOL    HW310271   2.678   3.004   4.232
 2560SOL    MW410272   2.661   2.927   4.194
 2561SOL     OW10273   2.966   2.934   4.100
 2561SOL    HW210274   2.884   2.892   4.126
 2561SOL    HW310275   2.939   3.004   4.040
 2561SOL    MW410276   2.952   2.938   4.096
 2562SOL     OW10277   3.008   3.098   4.337
 2562SOL    HW210278   2.998   3.064   4.425
 2562SOL    HW310279   3.005   3.021   4.280
 2562SOL    MW410280   3.006   3.084   4.341
 2563SOL     OW10281   2.733   3.172   4.282
 2563SOL    HW210282   2.718   3.193   4.374
 2563SOL    HW310283   2.828   3.163   4.275
 2563SOL    MW410284   2.744   3.173   4.293
 2564SOL     OW10285   2.706   3.426   4.149
 2564SOL    HW210286   2.703   3.342   4.195
 2564SOL    HW310287   2.635   3.477   4.186
 2564SOL    MW410288   2.696   3.422   4.160
 2565SOL     OW10289   2.909   3.597   4.250
 2565SOL    HW210290   2.903   3.582   4.344
 2565SOL    HW310291   2.840   3.543   4.213
 2565SOL    MW410292   2.899   3.588   4.258
 2566SOL     OW10293   2.857   3.865   4.192
 2566SOL    HW210294   2.929   3.919   4.225
 2566SOL    HW310295   2.889   3.775   4.202
 2566SOL    MW410296   2.871   3.860   4.198
 2567SOL     OW10297   2.645   4.013   4.310
 2567SOL    HW210298   2.657   4.098   4.267
 2567SOL    HW310299   2.717   3.960   4.278
 2567SOL    MW410300   2.656   4.018   4.300
 2568SOL     OW10301   2.657   4.262   4.176
 2568SOL    HW210302   2.727   4.317   4.212
 2568SOL    HW310303   2.667   4.270   4.081
 2568SOL    MW410304   2.668   4.270   4.168
 2569SOL     OW10305   2.863   4.416   4.282
 2569SOL    HW210306   2.872   4.397   4.375
 2569SOL    HW310307   2.936   4.370   4.241
 2569SOL    MW410308   2.874   4.408   4.289
 2570SOL     OW10309   3.353   0.013   4.207
 2570SOL    HW210310   3.433   0.039   4.253
 2570SOL    HW310311   3.343  -0.080   4.227
 2570SOL    MW410312   3.362   0.004   4.215
 2571SOL     OW10313   3.111   0.133   4.241
 2571SOL    HW210314   3.097   0.133   4.335
 2571SOL    HW310315   3.184   0.072   4.228
 2571SOL    MW410316   3.119   0.125   4.252
 2572SOL     OW10317   3.144   0.392   4.152
 2572SOL    HW210318   3.122   0.301   4.171
 2572SOL    HW310319   3.070   0.442   4.187
 2572SOL    MW410320   3.132   0.387   4.159
 2573SOL     OW10321   3.378   0.474   4.290
 2573SOL    HW210322   3.454   0.418   4.269
 2573SOL    HW310323   3.306   0.434   4.241
 2573SOL    MW410324   3.379   0.461   4.280
 2574SOL     OW10325   3.379   0.746   4.153
 2574SOL    HW210326   3.303   0.796   4.184
 2574SOL    HW310327   3.371   0.661   4.197
 2574SOL    MW410328   3.368   0.742   4.163
 2575SOL     OW10329   3.150   0.849   4.255
 2575SOL    HW210330   3.143   0.854   4.350
 2575SOL    HW310331   3.155   0.940   4.227
 2575SOL    MW410332   3.150   0.861   4.264
 2576SOL     OW10333   3.148   1.115   4.170
 2576SOL    HW210334   3.237   1.139   4.196
 2576SOL    HW310335   3.146   1.130   4.075
 2576SOL    MW410336   3.160   1.120   4.161
 2577SOL     OW10337   3.416   1.209   4.231
 2577SOL    HW210338   3.381   1.245   4.313
 2577SOL    HW310339   3.433   1.285   4.176
 2577SOL    MW410340   3.414   1.224   4.235
 2578SOL     OW10341   3.370   1.679   4.427
 2578SOL    HW210342   3.330   1.736   4.492
 2578SOL    HW310343   3.330   1.706   4.344
 2578SOL    MW410344   3.359   1.690   4.424
 2579SOL     OW10345   3.165   1.741   4.250
 2579SOL    HW210346   3.120   1.747   4.334
 2579SOL    HW310347   3.156   1.829   4.211
 2579SOL    MW410348   3.158   1.754   4.256
 2580SOL     OW10349   3.139   1.986   4.131
 2580SOL    HW210350   3.189   2.036   4.195
 2580SOL    HW310351   3.049   2.017   4.142
 2580SOL    MW410352   3.134   1.997   4.141
 2581SOL     OW10353   3.319   2.101   4.309
 2581SOL    HW210354   3.390   2.043   4.279
 2581SOL    HW310355   3.342   2.187   4.274
 2581SOL    MW410356   3.332   2.105   4.301
 2582SOL     OW10357   3.310   2.335   4.155
 2582SOL    HW210358   3.383   2.383   4.192
 2582SOL    HW310359   3.323   2.341   4.060
 2582SOL    MW410360   3.321   2.342   4.148
 2583SOL     OW10361   3.065   2.477   4.177
 2583SOL    HW210362   3.089   2.558   4.134
 2583SOL    HW310363   3.142   2.421   4.169
 2583SOL    MW410364   3.078   2.480   4.170
 2584SOL     OW10365   3.140   2.730   4.099
 2584SOL    HW210366   3.219   2.770   4.135
 2584SOL    HW310367   3.070   2.793   4.117
 2584SOL    MW410368   3.141   2.744   4.106
 2585SOL     OW10369   3.341   2.815   4.245
 2585SOL    HW210370   3.426   2.785   4.212
 2585SOL    HW310371   3.332   2.904   4.211
 2585SOL    MW410372   3.351   2.822   4.236
 2586SOL     OW10373   3.332   3.098   4.139
 2586SOL    HW210374   3.257   3.131   4.189
 2586SOL    HW310375   3.307   3.112   4.048
 2586SOL    MW410376   3.319   3.105   4.134
 2587SOL     OW10377   3.240   3.256   4.365
 2587SOL    HW210378   3.216   3.326   4.305
 2587SOL    HW310379   3.166   3.196   4.364
 2587SOL    MW410380   3.227   3.257   4.357
 2588SOL     OW10381   3.132   3.456   4.173
 2588SOL    HW210382   3.052   3.500   4.203
 2588SOL    HW310383   3.117   3.440   4.080
 2588SOL    MW410384   3.119   3.459   4.165
 2589SOL     OW10385   3.325   3.639   4.241
 2589SOL    HW210386   3.346   3.620   4.333
 2589SOL    HW310387   3.250   3.583   4.222
 2589SOL    MW410388   3.318   3.629   4.251
 2590SOL     OW10389   3.336   3.893   4.135
 2590SOL    HW210390   3.347   3.808   4.176
 2590SOL    HW310391   3.339   3.875   4.041
 2590SOL    MW410392   3.338   3.880   4.128
 2591SOL     OW10393   3.093   4.023   4.235
 2591SOL    HW210394   3.109   3.996   4.325
 2591SOL    HW310395   3.166   3.987   4.185
 2591SOL    MW410396   3.104   4.015   4.240
 2592SOL     OW10397   3.069   4.290   4.159
 2592SOL    HW210398   3.144   4.339   4.195
 2592SOL    HW310399   3.073   4.205   4.203
 2592SOL    MW410400   3.080   4.285   4.170
 2593SOL     OW10401   3.315   4.389   4.250
 2593SOL    HW210402   3.317   4.357   4.340
 2593SOL    HW310403   3.389   4.344   4.207
 2593SOL    MW410404   3.325   4.379   4.256
 2594SOL     OW10405   3.794   4.648   4.146
 2594SOL    HW210406   3.865   4.703   4.178
 2594SOL    HW310407   3.782   4.675   4.055
 2594SOL    MW410408   3.802   4.659   4.139
 2595SOL     OW10409   3.600   0.067   4.311
 2595SOL    HW210410   3.602   0.162   4.298
 2595SOL    HW310411   3.675   0.034   4.262
 2595SOL    MW410412   3.610   0.075   4.303
 2596SOL     OW10413   3.612   0.347   4.243
 2596SOL    HW210414   3.680   0.395   4.290
 2596SOL    HW310415   3.625   0.372   4.151
 2596SOL    MW410416   3.623   0.356   4.237
 2597SOL     OW10417   3.800   0.527   4.338
 2597SOL    HW210418   3.817   0.539   4.431
 2597SOL    HW310419   3.832   0.608   4.297
 2597SOL    MW410420   3.806   0.539   4.345
 2598SOL     OW10421   3.890   0.725   4.131
 2598SOL    HW210422   3.803   0.750   4.160
 2598SOL    HW310423   3.890   0.743   4.037
 2598SOL    MW410424   3.878   0.731   4.122
 2599SOL     OW10425   3.642   0.821   4.225
 2599SOL    HW210426   3.640   0.911   4.192
 2599SOL    HW310427   3.564   0.781   4.189
 2599SOL    MW410428   3.632   0.828   4.216
 2600SOL     OW10429   3.661   1.097   4.165
 2600SOL    HW210430   3.581   1.125   4.210
 2600SOL    HW310431   3.651   1.129   4.076
 2600SOL    MW410432   3.649   1.105   4.159
 2601SOL     OW10433   3.863   1.263   4.276
 2601SOL    HW210434   3.806   1.192   4.247
 2601SOL    HW310435   3.824   1.294   4.358
 2601SOL    MW410436   3.850   1.258   4.283
 2602SOL     OW10437   3.789   1.430   4.053
 2602SOL    HW210438   3.818   1.384   4.132
 2602SOL    HW310439   3.695   1.443   4.065
 2602SOL    MW410440   3.781   1.426   4.065
 2603SOL     OW10441   3.547   1.979   4.199
 2603SOL    HW210442   3.567   1.980   4.105
 2603SOL    HW310443   3.554   1.888   4.224
 2603SOL    MW410444   3.550   1.967   4.190
 2604SOL     OW10445   3.505   1.449   4.104
 2604SOL    HW210446   3.517   1.532   4.150
 2604SOL    HW310447   3.482   1.475   4.014
 2604SOL    MW410448   3.503   1.463   4.098
 2605SOL     OW10449   3.823   2.095   4.287
 2605SOL    HW210450   3.801   2.104   4.380
 2605SOL    HW310451   3.750   2.046   4.250
 2605SOL    MW410452   3.810   2.090   4.294
 2606SOL     OW10453   3.823   2.370   4.227
 2606SOL    HW210454   3.824   2.277   4.252
 2606SOL    HW310455   3.831   2.369   4.132
 2606SOL    MW410456   3.824   2.357   4.218
 2607SOL     OW10457   3.555   2.442   4.257
 2607SOL    HW210458   3.538   2.444   4.351
 2607SOL    HW310459   3.642   2.403   4.249
 2607SOL    MW410460   3.564   2.437   4.268
 2608SOL     OW10461   3.579   2.706   4.143
 2608SOL    HW210462   3.573   2.630   4.201
 2608SOL    HW310463   3.602   2.670   4.058
 2608SOL    MW410464   3.581   2.691   4.139
 2609SOL     OW10465   3.812   2.861   4.199
 2609SOL    HW210466   3.826   2.869   4.294
 2609SOL    HW310467   3.729   2.814   4.192
 2609SOL    MW410468   3.802   2.856   4.211
 2610SOL     OW10469   3.819   3.133   4.145
 2610SOL    HW210470   3.814   3.038   4.158
 2610SOL    HW310471   3.819   3.144   4.050
 2610SOL    MW410472   3.818   3.122   4.134
 2611SOL     OW10473   3.565   3.223   4.253
 2611SOL    HW210474   3.635   3.179   4.206
 2611SOL    HW310475   3.485   3.175   4.228
 2611SOL    MW410476   3.563   3.211   4.244
 2612SOL     OW10477   3.544   3.489   4.142
 2612SOL    HW210478   3.542   3.399   4.174
 2612SOL    HW310479   3.466   3.529   4.181
 2612SOL    MW410480   3.533   3.483   4.152
 2613SOL     OW10481   3.755   3.646   4.270
 2613SOL    HW210482   3.835   3.596   4.255
 2613SOL    HW310483   3.684   3.584   4.248
 2613SOL    MW410484   3.756   3.631   4.265
 2614SOL     OW10485   3.764   3.890   4.164
 2614SOL    HW210486   3.695   3.943   4.203
 2614SOL    HW310487   3.744   3.800   4.191
 2614SOL    MW410488   3.753   3.885   4.172
 2615SOL     OW10489   3.531   4.022   4.301
 2615SOL    HW210490   3.519   3.995   4.392
 2615SOL    HW310491   3.467   3.971   4.252
 2615SOL    MW410492   3.521   4.012   4.307
 2616SOL     OW10493   3.559   4.271   4.166
 2616SOL    HW210494   3.642   4.308   4.194
 2616SOL    HW310495   3.556   4.185   4.209
 2616SOL    MW410496   3.569   4.264   4.176
 2617SOL     OW10497   3.778   4.396   4.257
 2617SOL    HW210498   3.854   4.342   4.237
 2617SOL    HW310499   3.795   4.479   4.212
 2617SOL    MW410500   3.790   4.400   4.249
 2618SOL     OW10501   4.250   4.630   4.179
 2618SOL    HW210502   4.254   4.537   4.203
 2618SOL    HW310503   4.339   4.662   4.192
 2618SOL    MW410504   4.262   4.622   4.184
 2619SOL     OW10505   4.003   0.129   4.226
 2619SOL    HW210506   4.037   0.216   4.208
 2619SOL    HW310507   4.081   0.073   4.225
 2619SOL    MW410508   4.018   0.133   4.223
 2620SOL     OW10509   4.075   0.395   4.181
 2620SOL    HW210510   4.161   0.421   4.213
 2620SOL    HW310511   4.013   0.453   4.226
 2620SOL    MW410512   4.078   0.406   4.191
 2621SOL     OW10513   4.307   0.487   4.276
 2621SOL    HW210514   4.311   0.577   4.244
 2621SOL    HW310515   4.382   0.444   4.235
 2621SOL    MW410516   4.317   0.493   4.266
 2622SOL     OW10517   4.299   0.743   4.196
 2622SOL    HW210518   4.222   0.790   4.226
 2622SOL    HW310519   4.300   0.757   4.101
 2622SOL    MW410520   4.289   0.751   4.187
 2623SOL     OW10521   4.077   0.929   4.281
 2623SOL    HW210522   4.092   1.011   4.234
 2623SOL    HW310523   4.014   0.881   4.227
 2623SOL    MW410524   4.071   0.933   4.268
 2624SOL     OW10525   4.108   1.164   4.152
 2624SOL    HW210526   4.193   1.200   4.176
 2624SOL    HW310527   4.045   1.210   4.209
 2624SOL    MW410528   4.111   1.175   4.163
 2625SOL     OW10529   4.339   1.281   4.253
 2625SOL    HW210530   4.303   1.262   4.339
 2625SOL    HW310531   4.422   1.233   4.250
 2625SOL    MW410532   4.345   1.272   4.264
 2626SOL     OW10533   4.296   1.547   4.178
 2626SOL    HW210534   4.320   1.456   4.195
 2626SOL    HW310535   4.299   1.555   4.083
 2626SOL    MW410536   4.299   1.536   4.168
 2627SOL     OW10537   4.095   1.717   4.294
 2627SOL    HW210538   4.131   1.709   4.382
 2627SOL    HW310539   4.155   1.667   4.238
 2627SOL    MW410540   4.108   1.709   4.298
 2628SOL     OW10541   4.030   1.954   4.152
 2628SOL    HW210542   4.054   1.873   4.197
 2628SOL    HW310543   3.957   1.989   4.203
 2628SOL    MW410544   4.023   1.948   4.165
 2629SOL     OW10545   4.469   1.923   4.181
 2629SOL    HW210546   4.539   1.982   4.210
 2629SOL    HW310547   4.390   1.976   4.185
 2629SOL    MW410548   4.468   1.938   4.185
 2630SOL     OW10549   4.295   2.360   4.098
 2630SOL    HW210550   4.218   2.415   4.113
 2630SOL    HW310551   4.277   2.280   4.148
 2630SOL    MW410552   4.282   2.356   4.106
 2631SOL     OW10553   4.075   2.496   4.205
 2631SOL    HW210554   4.100   2.488   4.297
 2631SOL    HW310555   3.989   2.454   4.201
 2631SOL    MW410556   4.067   2.489   4.217
 2632SOL     OW10557   4.067   2.750   4.107
 2632SOL    HW210558   4.055   2.661   4.139
 2632SOL    HW310559   3.984   2.794   4.127
 2632SOL    MW410560   4.054   2.744   4.114
 2633SOL     OW10561   4.306   2.850   4.240
 2633SOL    HW210562   4.220   2.811   4.223
 2633SOL    HW310563   4.369   2.787   4.203
 2633SOL    MW410564   4.303   2.837   4.233
 2634SOL     OW10565   4.273   3.108   4.126
 2634SOL    HW210566   4.279   3.017   4.155
 2634SOL    HW310567   4.278   3.103   4.031
 2634SOL    MW410568   4.274   3.095   4.117
 2635SOL     OW10569   4.061   3.235   4.253
 2635SOL    HW210570   4.133   3.194   4.204
 2635SOL    HW310571   3.982   3.204   4.209
 2635SOL    MW410572   4.060   3.225   4.241
 2636SOL     OW10573   4.000   3.499   4.199
 2636SOL    HW210574   4.021   3.412   4.231
 2636SOL    HW310575   4.006   3.493   4.104
 2636SOL    MW410576   4.003   3.487   4.191
 2637SOL     OW10577   4.246   3.615   4.249
 2637SOL    HW210578   4.235   3.708   4.229
 2637SOL    HW310579   4.162   3.575   4.224
 2637SOL    MW410580   4.233   3.622   4.243
 2638SOL     OW10581   4.254   3.866   4.134
 2638SOL    HW210582   4.166   3.901   4.152
 2638SOL    HW310583   4.259   3.862   4.039
 2638SOL    MW410584   4.243   3.870   4.124
 2639SOL     OW10585   4.017   3.952   4.227
 2639SOL    HW210586   4.013   3.951   4.323
 2639SOL    HW310587   3.931   3.918   4.200
 2639SOL    MW410588   4.005   3.947   4.236
 2640SOL     OW10589   3.981   4.242   4.182
 2640SOL    HW210590   4.071   4.273   4.194
 2640SOL    HW310591   3.987   4.147   4.190
 2640SOL    MW410592   3.994   4.233   4.185
 2641SOL     OW10593   3.943   4.195   4.588
 2641SOL    HW210594   3.923   4.153   4.672
 2641SOL    HW310595   3.892   4.277   4.589
 2641SOL    MW410596   3.933   4.201   4.599
 2642SOL     OW10597   4.300   0.217   4.800
 2642SOL    HW210598   4.384   0.257   4.776
 2642SOL    HW310599   4.234   0.274   4.761
 2642SOL    MW410600   4.303   0.230   4.792
 2643SOL     OW10601   4.204   4.357   4.563
 2643SOL    HW210602   4.183   4.449   4.582
 2643SOL    HW310603   4.120   4.315   4.549
 2643SOL    MW410604   4.190   4.364   4.564
 2644SOL     OW10605   4.024   0.123   4.502
 2644SOL    HW210606   4.028   0.136   4.408
 2644SOL    HW310607   3.933   0.099   4.520
 2644SOL    MW410608   4.013   0.121   4.492
 2645SOL     OW10609   4.194   1.687   4.557
 2645SOL    HW210610   4.281   1.703   4.594
 2645SOL    HW310611   4.160   1.612   4.607
 2645SOL    MW410612   4.201   1.679   4.569
 2646SOL     OW10613   0.500   0.017   4.545
 2646SOL    HW210614   0.424  -0.022   4.589
 2646SOL    HW310615   0.566  -0.052   4.545
 2646SOL    MW410616   0.499   0.003   4.550
 2647SOL     OW10617   0.224   0.514   4.529
 2647SOL    HW210618   0.236   0.510   4.434
 2647SOL    HW310619   0.312   0.499   4.565
 2647SOL    MW410620   0.237   0.511   4.521
 2648SOL     OW10621   4.418   0.760   4.668
 2648SOL    HW210622   4.368   0.688   4.628
 2648SOL    HW310623   4.505   0.753   4.628
 2648SOL    MW410624   4.423   0.749   4.657
 2649SOL     OW10625   0.665   1.261   4.502
 2649SOL    HW210626   0.656   1.347   4.543
 2649SOL    HW310627   0.589   1.211   4.535
 2649SOL    MW410628   0.654   1.265   4.512
 2650SOL     OW10629   1.190   2.002   4.510
 2650SOL    HW210630   1.285   1.998   4.498
 2650SOL    HW310631   1.176   2.073   4.572
 2650SOL    MW410632   1.201   2.011   4.517
 2651SOL     OW10633   4.256   1.220   4.517
 2651SOL    HW210634   4.259   1.142   4.571
 2651SOL    HW310635   4.334   1.270   4.541
 2651SOL    MW410636   4.267   1.216   4.527
 2652SOL     OW10637   0.173   1.746   4.542
 2652SOL    HW210638   0.133   1.718   4.460
 2652SOL    HW310639   0.128   1.828   4.564
 2652SOL    MW410640   0.162   1.753   4.534
 2653SOL     OW10641   0.479   1.625   4.264
 2653SOL    HW210642   0.394   1.608   4.224
 2653SOL    HW310643   0.543   1.586   4.204
 2653SOL    MW410644   0.476   1.617   4.251
 2654SOL     OW10645   0.043   1.978   4.591
 2654SOL    HW210646  -0.030   2.024   4.632
 2654SOL    HW310647   0.103   2.048   4.563
 2654SOL    MW410648   0.041   1.994   4.593
 2655SOL     OW10649   3.909   2.307   4.684
 2655SOL    HW210650   3.930   2.400   4.685
 2655SOL    HW310651   3.992   2.263   4.697
 2655SOL    MW410652   3.922   2.313   4.686
 2656SOL     OW10653   0.373   2.860   4.703
 2656SOL    HW210654   0.280   2.878   4.690
 2656SOL    HW310655   0.382   2.766   4.691
 2656SOL    MW410656   0.362   2.850   4.699
 2657SOL     OW10657   0.325   3.225   4.519
 2657SOL    HW210658   0.403   3.173   4.540
 2657SOL    HW310659   0.338   3.307   4.568
 2657SOL    MW410660   0.337   3.229   4.528
 2658SOL     OW10661   4.483   2.397   4.513
 2658SOL    HW210662   4.503   2.403   4.420
 2658SOL    HW310663   4.534   2.468   4.553
 2658SOL    MW410664   4.492   2.408   4.506
 2659SOL     OW10665   4.289   3.151   4.669
 2659SOL    HW210666   4.235   3.077   4.639
 2659SOL    HW310667   4.367   3.147   4.615
 2659SOL    MW410668   4.292   3.141   4.658
 2660SOL     OW10669   0.315   3.490   4.628
 2660SOL    HW210670   0.314   3.507   4.722
 2660SOL    HW310671   0.246   3.547   4.593
 2660SOL    MW410672   0.306   3.500   4.636
 2661SOL     OW10673   4.215   3.809   4.644
 2661SOL    HW210674   4.155   3.845   4.578
 2661SOL    HW310675   4.254   3.733   4.601
 2661SOL    MW410676   4.212   3.804   4.629
 2662SOL     OW10677   4.483   0.075   4.501
 2662SOL    HW210678   4.398   0.045   4.536
 2662SOL    HW310679   4.483   0.169   4.515
 2662SOL    MW410680   4.472   0.083   4.508
 2663SOL     OW10681   3.889   0.535   4.609
 2663SOL    HW210682   3.820   0.482   4.649
 2663SOL    HW310683   3.867   0.625   4.633
 2663SOL    MW410684   3.877   0.540   4.617
 2664SOL     OW10685   4.030   3.773   4.871
 2664SOL    HW210686   4.081   3.787   4.950
 2664SOL    HW310687   4.088   3.802   4.800
 2664SOL    MW410688   4.044   3.779   4.872
 2665SOL     OW10689   3.873   4.007   4.805
 2665SOL    HW210690   3.922   3.932   4.838
 2665SOL    HW310691   3.785   3.973   4.789
 2665SOL    MW410692   3.868   3.993   4.807
 2666SOL     OW10693   0.700   4.475   4.535
 2666SOL    HW210694   0.706   4.454   4.442
 2666SOL    HW310695   0.683   4.391   4.578
 2666SOL    MW410696   0.698   4.461   4.529
 2667SOL     OW10697   4.261   0.999   4.687
 2667SOL    HW210698   4.301   0.914   4.667
 2667SOL    HW310699   4.247   0.997   4.781
 2667SOL    MW410700   4.265   0.987   4.696
 2668SOL     OW10701   1.199   0.912   4.647
 2668SOL    HW210702   1.191   0.891   4.740
 2668SOL    HW310703   1.114   0.890   4.609
 2668SOL    MW410704   1.187   0.906   4.654
 2669SOL     OW10705   0.728   0.218   4.613
 2669SOL    HW210706   0.659   0.154   4.596
 2669SOL    HW310707   0.809   0.170   4.598
 2669SOL    MW410708   0.729   0.204   4.608
 2670SOL     OW10709   0.964   0.823   4.538
 2670SOL    HW210710   0.974   0.840   4.444
 2670SOL    HW310711   0.873   0.795   4.547
 2670SOL    MW410712   0.953   0.821   4.526
 2671SOL     OW10713   0.414   0.874   4.466
 2671SOL    HW210714   0.331   0.838   4.496
 2671SOL    HW310715   0.402   0.887   4.371
 2671SOL    MW410716   0.401   0.871   4.457
 2672SOL     OW10717   2.022   1.276   4.538
 2672SOL    HW210718   1.998   1.285   4.446
 2672SOL    HW310719   2.098   1.334   4.549
 2672SOL    MW410720   2.029   1.285   4.527
 2673SOL     OW10721   0.408   1.585   4.541
 2673SOL    HW210722   0.332   1.642   4.546
 2673SOL    HW310723   0.443   1.598   4.453
 2673SOL    MW410724   0.402   1.594   4.530
 2674SOL     OW10725   1.315   1.181   4.530
 2674SOL    HW210726   1.275   1.102   4.567
 2674SOL    HW310727   1.245   1.246   4.532
 2674SOL    MW410728   1.301   1.179   4.535
 2675SOL     OW10729   0.924   1.558   4.453
 2675SOL    HW210730   0.852   1.536   4.512
 2675SOL    HW310731   0.980   1.616   4.505
 2675SOL    MW410732   0.922   1.563   4.468
 2676SOL     OW10733   0.682   2.185   4.520
 2676SOL    HW210734   0.739   2.262   4.517
 2676SOL    HW310735   0.737   2.115   4.556
 2676SOL    MW410736   0.697   2.186   4.524
 2677SOL     OW10737   1.119   1.717   4.608
 2677SOL    HW210738   1.199   1.664   4.617
 2677SOL    HW310739   1.151   1.806   4.596
 2677SOL    MW410740   1.134   1.721   4.608
 2678SOL     OW10741   0.451   2.344   4.536
 2678SOL    HW210742   0.525   2.286   4.555
 2678SOL    HW310743   0.471   2.381   4.450
 2678SOL    MW410744   0.463   2.341   4.527
 2679SOL     OW10745   1.032   2.724   4.673
 2679SOL    HW210746   1.024   2.757   4.584
 2679SOL    HW310747   1.115   2.759   4.704
 2679SOL    MW410748   1.042   2.733   4.666
 2680SOL     OW10749   0.755   2.668   4.646
 2680SOL    HW210750   0.840   2.696   4.682
 2680SOL    HW310751   0.777   2.597   4.586
 2680SOL    MW410752   0.769   2.662   4.643
 2681SOL     OW10753   0.968   3.261   4.504
 2681SOL    HW210754   0.884   3.268   4.550
 2681SOL    HW310755   1.010   3.183   4.541
 2681SOL    MW410756   0.963   3.252   4.515
 2682SOL     OW10757   0.737   3.253   4.651
 2682SOL    HW210758   0.688   3.335   4.652
 2682SOL    HW310759   0.671   3.186   4.637
 2682SOL    MW410760   0.722   3.255   4.649
 2683SOL     OW10761   1.179   4.554   4.545
 2683SOL    HW210762   1.140   4.468   4.529
 2683SOL    HW310763   1.265   4.535   4.581
 2683SOL    MW410764   1.185   4.540   4.548
 2684SOL     OW10765   0.147   2.597   4.654
 2684SOL    HW210766   0.237   2.576   4.678
 2684SOL    HW310767   0.154   2.674   4.597
 2684SOL    MW410768   0.159   2.604   4.650
 2685SOL     OW10769   4.340   3.596   4.514
 2685SOL    HW210770   4.300   3.518   4.553
 2685SOL    HW310771   4.328   3.584   4.420
 2685SOL    MW410772   4.333   3.584   4.506
 2686SOL     OW10773   1.203   3.722   4.666
 2686SOL    HW210774   1.163   3.663   4.602
 2686SOL    HW310775   1.201   3.674   4.748
 2686SOL    MW410776   1.198   3.708   4.668
 2687SOL     OW10777   4.449   4.264   4.637
 2687SOL    HW210778   4.434   4.169   4.635
 2687SOL    HW310779   4.365   4.302   4.614
 2687SOL    MW410780   4.436   4.256   4.634
 2688SOL     OW10781   4.421   3.981   4.551
 2688SOL    HW210782   4.509   3.950   4.571
 2688SOL    HW310783   4.363   3.923   4.601
 2688SOL    MW410784   4.425   3.969   4.560
 2689SOL     OW10785   0.209   4.529   4.608
 2689SOL    HW210786   0.139   4.590   4.585
 2689SOL    HW310787   0.191   4.507   4.700
 2689SOL    MW410788   0.197   4.534   4.617
 2690SOL     OW10789   0.912   4.665   4.600
 2690SOL    HW210790   0.997   4.627   4.623
 2690SOL    HW310791   0.862   4.590   4.566
 2690SOL    MW410792   0.917   4.650   4.598
 2691SOL     OW10793   1.096   4.289   4.510
 2691SOL    HW210794   1.169   4.248   4.556
 2691SOL    HW310795   1.020   4.237   4.536
 2691SOL    MW410796   1.096   4.277   4.520
 2692SOL     OW10797   0.715   0.495   4.540
 2692SOL    HW210798   0.693   0.482   4.448
 2692SOL    HW310799   0.725   0.407   4.575
 2692SOL    MW410800   0.714   0.482   4.532
 2693SOL     OW10801   1.438   0.846   4.479
 2693SOL    HW210802   1.422   0.861   4.386
 2693SOL    HW310803   1.352   0.856   4.521
 2693SOL    MW410804   1.425   0.849   4.472
 2694SOL     OW10805   1.645   1.003   4.609
 2694SOL    HW210806   1.726   0.953   4.605
 2694SOL    HW310807   1.579   0.945   4.569
 2694SOL    MW410808   1.647   0.988   4.603
 2695SOL     OW10809   0.450   1.111   4.599
 2695SOL    HW210810   0.441   1.024   4.560
 2695SOL    HW310811   0.458   1.094   4.693
 2695SOL    MW410812   0.450   1.097   4.607
 2696SOL     OW10813   0.892   1.994   4.589
 2696SOL    HW210814   0.940   2.057   4.644
 2696SOL    HW310815   0.954   1.974   4.518
 2696SOL    MW410816   0.907   2.000   4.587
 2697SOL     OW10817   0.909   1.121   4.526
 2697SOL    HW210818   0.822   1.149   4.499
 2697SOL    HW310819   0.899   1.028   4.547
 2697SOL    MW410820   0.896   1.113   4.525
 2698SOL     OW10821   1.811   1.264   4.727
 2698SOL    HW210822   1.768   1.178   4.725
 2698SOL    HW310823   1.891   1.251   4.675
 2698SOL    MW410824   1.816   1.251   4.720
 2699SOL     OW10825   1.067   1.326   4.452
 2699SOL    HW210826   1.006   1.261   4.486
 2699SOL    HW310827   1.019   1.409   4.453
 2699SOL    MW410828   1.053   1.328   4.456
 2700SOL     OW10829   1.078   2.454   4.629
 2700SOL    HW210830   1.074   2.542   4.667
 2700SOL    HW310831   1.151   2.458   4.567
 2700SOL    MW410832   1.087   2.467   4.626
 2701SOL     OW10833   1.501   2.957   4.839
 2701SOL    HW210834   1.576   2.938   4.782
 2701SOL    HW310835   1.534   2.940   4.927
 2701SOL    MW410836   1.515   2.952   4.843
 2702SOL     OW10837   1.567   3.113   4.536
 2702SOL    HW210838   1.512   3.192   4.541
 2702SOL    HW310839   1.586   3.092   4.628
 2702SOL    MW410840   1.562   3.121   4.549
 2703SOL     OW10841   1.341   3.309   4.515
 2703SOL    HW210842   1.276   3.379   4.503
 2703SOL    HW310843   1.338   3.261   4.432
 2703SOL    MW410844   1.332   3.312   4.502
 2704SOL     OW10845   0.734   2.919   4.510
 2704SOL    HW210846   0.823   2.921   4.474
 2704SOL    HW310847   0.734   2.843   4.568
 2704SOL    MW410848   0.746   2.909   4.513
 2705SOL     OW10849   0.397   4.045   4.538
 2705SOL    HW210850   0.331   4.115   4.535
 2705SOL    HW310851   0.422   4.032   4.447
 2705SOL    MW410852   0.391   4.053   4.525
 2706SOL     OW10853   1.011   2.885   4.433
 2706SOL    HW210854   1.061   2.885   4.352
 2706SOL    HW310855   1.051   2.954   4.486
 2706SOL    MW410856   1.023   2.894   4.429
 2707SOL     OW10857   0.534   3.066   4.611
 2707SOL    HW210858   0.489   2.994   4.657
 2707SOL    HW310859   0.598   3.022   4.556
 2707SOL    MW410860   0.536   3.050   4.610
 2708SOL     OW10861   1.537   3.567   4.506
 2708SOL    HW210862   1.631   3.567   4.521
 2708SOL    HW310863   1.509   3.477   4.526
 2708SOL    MW410864   1.545   3.555   4.511
 2709SOL     OW10865   0.589   3.535   4.598
 2709SOL    HW210866   0.605   3.625   4.626
 2709SOL    HW310867   0.494   3.529   4.592
 2709SOL    MW410868   0.579   3.546   4.601
 2710SOL     OW10869   0.182   3.882   4.629
 2710SOL    HW210870   0.269   3.913   4.605
 2710SOL    HW310871   0.181   3.790   4.601
 2710SOL    MW410872   0.193   3.874   4.622
 2711SOL     OW10873   0.638   4.242   4.659
 2711SOL    HW210874   0.713   4.194   4.624
 2711SOL    HW310875   0.562   4.193   4.627
 2711SOL    MW410876   0.638   4.229   4.650
 2712SOL     OW10877   0.205   4.246   4.522
 2712SOL    HW210878   0.246   4.310   4.580
 2712SOL    HW310879   0.113   4.244   4.550
 2712SOL    MW410880   0.198   4.254   4.533
 2713SOL     OW10881   2.186   3.795   4.697
 2713SOL    HW210882   2.125   3.787   4.771
 2713SOL    HW310883   2.153   3.733   4.632
 2713SOL    MW410884   2.173   3.786   4.698
 2714SOL     OW10885   1.443   4.473   4.643
 2714SOL    HW210886   1.527   4.458   4.600
 2714SOL    HW310887   1.462   4.537   4.711
 2714SOL    MW410888   1.456   4.480   4.646
 2715SOL     OW10889   1.285   4.183   4.656
 2715SOL    HW210890   1.320   4.264   4.692
 2715SOL    HW310891   1.358   4.145   4.607
 2715SOL    MW410892   1.299   4.188   4.654
 2716SOL     OW10893   0.986   0.552   4.490
 2716SOL    HW210894   1.000   0.644   4.515
 2716SOL    HW310895   0.892   0.540   4.494
 2716SOL    MW410896   0.976   0.563   4.494
 2717SOL     OW10897   1.877   4.657   4.551
 2717SOL    HW210898   1.817   4.583   4.548
 2717SOL    HW310899   1.963   4.618   4.569
 2717SOL    MW410900   1.880   4.642   4.553
 2718SOL     OW10901   1.274   0.459   4.503
 2718SOL    HW210902   1.184   0.490   4.511
 2718SOL    HW310903   1.267   0.370   4.469
 2718SOL    MW410904   1.262   0.451   4.500
 2719SOL     OW10905   1.742   1.745   4.536
 2719SOL    HW210906   1.707   1.659   4.559
 2719SOL    HW310907   1.757   1.740   4.442
 2719SOL    MW410908   1.740   1.733   4.527
 2720SOL     OW10909   0.685   0.771   4.524
 2720SOL    HW210910   0.594   0.797   4.511
 2720SOL    HW310911   0.681   0.679   4.549
 2720SOL    MW410912   0.673   0.763   4.526
 2721SOL     OW10913   1.837   0.557   4.508
 2721SOL    HW210914   1.746   0.571   4.534
 2721SOL    HW310915   1.848   0.462   4.511
 2721SOL    MW410916   1.827   0.547   4.512
 2722SOL     OW10917   1.566   1.252   4.501
 2722SOL    HW210918   1.473   1.229   4.502
 2722SOL    HW310919   1.611   1.172   4.528
 2722SOL    MW410920   1.560   1.238   4.505
 2723SOL     OW10921   1.379   1.658   4.557
 2723SOL    HW210922   1.450   1.594   4.565
 2723SOL    HW310923   1.341   1.642   4.471
 2723SOL    MW410924   1.383   1.647   4.547
 2724SOL     OW10925   1.302   2.827   4.677
 2724SOL    HW210926   1.333   2.750   4.629
 2724SOL    HW310927   1.372   2.847   4.739
 2724SOL    MW410928   1.315   2.819   4.679
 2725SOL     OW10929   2.241   2.473   4.448
 2725SOL    HW210930   2.221   2.433   4.363
 2725SOL    HW310931   2.233   2.567   4.431
 2725SOL    MW410932   2.237   2.480   4.434
 2726SOL     OW10933   0.831   2.420   4.506
 2726SOL    HW210934   0.914   2.428   4.552
 2726SOL    HW310935   0.854   2.430   4.413
 2726SOL    MW410936   0.845   2.422   4.500
 2727SOL     OW10937   1.437   3.813   4.560
 2727SOL    HW210938   1.364   3.777   4.610
 2727SOL    HW310939   1.488   3.736   4.534
 2727SOL    MW410940   1.434   3.798   4.563
 2728SOL     OW10941   1.354   2.460   4.176
 2728SOL    HW210942   1.384   2.547   4.151
 2728SOL    HW310943   1.435   2.409   4.185
 2728SOL    MW410944   1.369   2.465   4.174
 2729SOL     OW10945   1.311   2.472   4.453
 2729SOL    HW210946   1.309   2.479   4.357
 2729SOL    HW310947   1.371   2.541   4.481
 2729SOL    MW410948   1.319   2.482   4.444
 2730SOL     OW10949   1.165   3.067   4.585
 2730SOL    HW210950   1.218   3.142   4.614
 2730SOL    HW310951   1.217   2.990   4.610
 2730SOL    MW410952   1.179   3.067   4.592
 2731SOL     OW10953   1.126   3.492   4.513
 2731SOL    HW210954   1.063   3.422   4.532
 2731SOL    HW310955   1.128   3.498   4.417
 2731SOL    MW410956   1.118   3.483   4.503
 2732SOL     OW10957   0.617   3.840   4.616
 2732SOL    HW210958   0.547   3.900   4.592
 2732SOL    HW310959   0.697   3.879   4.580
 2732SOL    MW410960   0.618   3.853   4.608
 2733SOL     OW10961   2.079   3.595   4.530
 2733SOL    HW210962   2.057   3.591   4.437
 2733SOL    HW310963   2.139   3.521   4.543
 2733SOL    MW410964   2.084   3.584   4.519
 2734SOL     OW10965   1.792   3.268   4.469
 2734SOL    HW210966   1.717   3.211   4.487
 2734SOL    HW310967   1.828   3.236   4.387
 2734SOL    MW410968   1.787   3.256   4.461
 2735SOL     OW10969   2.351   3.207   4.306
 2735SOL    HW210970   2.272   3.158   4.285
 2735SOL    HW310971   2.408   3.144   4.350
 2735SOL    MW410972   2.348   3.193   4.309
 2736SOL     OW10973   0.857   4.125   4.550
 2736SOL    HW210974   0.863   4.082   4.464
 2736SOL    HW310975   0.908   4.068   4.608
 2736SOL    MW410976   0.864   4.112   4.546
 2737SOL     OW10977   1.756   4.195   4.439
 2737SOL    HW210978   1.771   4.122   4.379
 2737SOL    HW310979   1.842   4.213   4.477
 2737SOL    MW410980   1.769   4.188   4.436
 2738SOL     OW10981   2.163   0.324   4.376
 2738SOL    HW210982   2.203   0.293   4.295
 2738SOL    HW310983   2.226   0.386   4.413
 2738SOL    MW410984   2.176   0.328   4.370
 2739SOL     OW10985   1.163   0.173   4.441
 2739SOL    HW210986   1.080   0.172   4.395
 2739SOL    HW310987   1.167   0.089   4.486
 2739SOL    MW410988   1.153   0.162   4.441
 2740SOL     OW10989   1.901   0.274   4.501
 2740SOL    HW210990   1.992   0.290   4.477
 2740SOL    HW310991   1.898   0.180   4.520
 2740SOL    MW410992   1.913   0.263   4.500
 2741SOL     OW10993   2.380   0.087   4.564
 2741SOL    HW210994   2.359   0.024   4.633
 2741SOL    HW310995   2.340   0.050   4.485
 2741SOL    MW410996   2.372   0.073   4.563
 2742SOL     OW10997   1.872   0.855   4.540
 2742SOL    HW210998   1.882   0.762   4.561
 2742SOL    HW310999   1.846   0.856   4.448
 2742SOL    MW411000   1.870   0.843   4.531
 2743SOL     OW11001   1.508   0.587   4.553
 2743SOL    HW211002   1.489   0.680   4.538
 2743SOL    HW311003   1.422   0.545   4.547
 2743SOL    MW411004   1.494   0.594   4.550
 2744SOL     OW11005   2.005   1.661   4.665
 2744SOL    HW211006   1.960   1.594   4.717
 2744SOL    HW311007   1.950   1.672   4.588
 2744SOL    MW411008   1.992   1.653   4.662
 2745SOL     OW11009   0.844   1.728   4.740
 2745SOL    HW211010   0.939   1.726   4.728
 2745SOL    HW311011   0.814   1.795   4.678
 2745SOL    MW411012   0.852   1.737   4.730
 2746SOL     OW11013   1.612   1.513   4.594
 2746SOL    HW211014   1.593   1.424   4.562
 2746SOL    HW311015   1.654   1.500   4.679
 2746SOL    MW411016   1.615   1.499   4.601
 2747SOL     OW11017   1.119   2.194   4.707
 2747SOL    HW211018   1.214   2.193   4.714
 2747SOL    HW311019   1.096   2.287   4.698
 2747SOL    MW411020   1.128   2.206   4.707
 2748SOL     OW11021   1.493   1.925   4.519
 2748SOL    HW211022   1.587   1.912   4.531
 2748SOL    HW311023   1.455   1.837   4.529
 2748SOL    MW411024   1.500   1.911   4.522
 2749SOL     OW11025   1.968   2.154   4.248
 2749SOL    HW211026   1.938   2.196   4.329
 2749SOL    HW311027   1.898   2.093   4.225
 2749SOL    MW411028   1.955   2.152   4.256
 2750SOL     OW11029   1.379   2.218   4.604
 2750SOL    HW211030   1.468   2.184   4.597
 2750SOL    HW311031   1.380   2.299   4.553
 2750SOL    MW411032   1.391   2.224   4.596
 2751SOL     OW11033   2.503   3.021   4.429
 2751SOL    HW211034   2.581   3.017   4.485
 2751SOL    HW311035   2.436   2.976   4.480
 2751SOL    MW411036   2.505   3.014   4.443
 2752SOL     OW11037   1.748   2.975   4.729
 2752SOL    HW211038   1.773   2.902   4.672
 2752SOL    HW311039   1.819   3.038   4.720
 2752SOL    MW411040   1.760   2.974   4.720
 2753SOL     OW11041   1.683   4.456   4.509
 2753SOL    HW211042   1.707   4.363   4.504
 2753SOL    HW311043   1.626   4.470   4.433
 2753SOL    MW411044   1.679   4.446   4.498
 2754SOL     OW11045   2.691   3.053   4.638
 2754SOL    HW211046   2.774   3.014   4.613
 2754SOL    HW311047   2.643   2.982   4.681
 2754SOL    MW411048   2.696   3.038   4.640
 2755SOL     OW11049   2.269   3.368   4.525
 2755SOL    HW211050   2.281   3.320   4.443
 2755SOL    HW311051   2.282   3.303   4.594
 2755SOL    MW411052   2.272   3.353   4.523
 2756SOL     OW11053   2.689   3.945   4.581
 2756SOL    HW211054   2.615   3.892   4.612
 2756SOL    HW311055   2.665   3.970   4.492
 2756SOL    MW411056   2.676   3.942   4.574
 2757SOL     OW11057   2.484   3.770   4.635
 2757SOL    HW211058   2.509   3.681   4.611
 2757SOL    HW311059   2.394   3.763   4.665
 2757SOL    MW411060   2.476   3.758   4.636
 2758SOL     OW11061   2.516   3.505   4.542
 2758SOL    HW211062   2.432   3.460   4.548
 2758SOL    HW311063   2.523   3.531   4.450
 2758SOL    MW411064   2.506   3.502   4.531
 2759SOL     OW11065   1.807   3.535   4.591
 2759SOL    HW211066   1.890   3.581   4.598
 2759SOL    HW311067   1.830   3.442   4.589
 2759SOL    MW411068   1.821   3.529   4.592
 2760SOL     OW11069   2.023   4.257   4.480
 2760SOL    HW211070   2.079   4.187   4.514
 2760SOL    HW311071   2.059   4.337   4.517
 2760SOL    MW411072   2.035   4.258   4.489
 2761SOL     OW11073   1.075   3.987   4.692
 2761SOL    HW211074   1.136   4.059   4.700
 2761SOL    HW311075   1.130   3.910   4.675
 2761SOL    MW411076   1.090   3.986   4.691
 2762SOL     OW11077   2.120   4.504   4.551
 2762SOL    HW211078   2.189   4.507   4.618
 2762SOL    HW311079   2.161   4.540   4.473
 2762SOL    MW411080   2.135   4.509   4.550
 2763SOL     OW11081   2.331   4.510   4.731
 2763SOL    HW211082   2.372   4.436   4.686
 2763SOL    HW311083   2.359   4.503   4.822
 2763SOL    MW411084   2.340   4.500   4.737
 2764SOL     OW11085   1.814   1.526   4.817
 2764SOL    HW211086   1.807   1.434   4.791
 2764SOL    HW311087   1.830   1.523   4.911
 2764SOL    MW411088   1.815   1.513   4.826
 2765SOL     OW11089   2.659   0.115   4.535
 2765SOL    HW211090   2.569   0.086   4.547
 2765SOL    HW311091   2.662   0.146   4.444
 2765SOL    MW411092   2.648   0.115   4.524
 2766SOL     OW11093   2.421   0.762   4.477
 2766SOL    HW211094   2.416   0.833   4.542
 2766SOL    HW311095   2.511   0.765   4.445
 2766SOL    MW411096   2.432   0.772   4.482
 2767SOL     OW11097   2.925   0.727   4.519
 2767SOL    HW211098   3.012   0.762   4.536
 2767SOL    HW311099   2.931   0.634   4.543
 2767SOL    MW411100   2.937   0.719   4.524
 2768SOL     OW11101   2.245   1.411   4.551
 2768SOL    HW211102   2.333   1.373   4.556
 2768SOL    HW311103   2.260   1.505   4.551
 2768SOL    MW411104   2.258   1.418   4.552
 2769SOL     OW11105   2.515   1.324   4.519
 2769SOL    HW211106   2.571   1.248   4.533
 2769SOL    HW311107   2.560   1.396   4.563
 2769SOL    MW411108   2.528   1.323   4.527
 2770SOL     OW11109   2.681   1.513   4.688
 2770SOL    HW211110   2.729   1.569   4.627
 2770SOL    HW311111   2.636   1.574   4.747
 2770SOL    MW411112   2.681   1.529   4.688
 2771SOL     OW11113   2.263   1.689   4.556
 2771SOL    HW211114   2.245   1.698   4.462
 2771SOL    HW311115   2.177   1.696   4.597
 2771SOL    MW411116   2.249   1.691   4.549
 2772SOL     OW11117   2.290   2.098   4.784
 2772SOL    HW211118   2.317   2.189   4.787
 2772SOL    HW311119   2.194   2.100   4.781
 2772SOL    MW411120   2.281   2.110   4.784
 2773SOL     OW11121   2.398   1.944   4.559
 2773SOL    HW211122   2.367   1.853   4.564
 2773SOL    HW311123   2.358   1.987   4.635
 2773SOL    MW411124   2.388   1.938   4.570
 2774SOL     OW11125   2.519   2.311   4.360
 2774SOL    HW211126   2.493   2.330   4.451
 2774SOL    HW311127   2.489   2.221   4.345
 2774SOL    MW411128   2.511   2.302   4.370
 2775SOL     OW11129   1.787   2.716   4.596
 2775SOL    HW211130   1.822   2.756   4.517
 2775SOL    HW311131   1.863   2.707   4.654
 2775SOL    MW411132   1.802   2.720   4.593
 2776SOL     OW11133   2.276   3.142   4.694
 2776SOL    HW211134   2.181   3.141   4.696
 2776SOL    HW311135   2.300   3.062   4.645
 2776SOL    MW411136   2.267   3.131   4.688
 2777SOL     OW11137   2.716   3.309   4.551
 2777SOL    HW211138   2.700   3.228   4.600
 2777SOL    HW311139   2.632   3.354   4.551
 2777SOL    MW411140   2.703   3.305   4.557
 2778SOL     OW11141   2.391   3.012   4.921
 2778SOL    HW211142   2.467   3.069   4.932
 2778SOL    HW311143   2.354   3.037   4.836
 2778SOL    MW411144   2.396   3.023   4.911
 2779SOL     OW11145   1.479   4.075   4.484
 2779SOL    HW211146   1.471   3.984   4.515
 2779SOL    HW311147   1.573   4.088   4.474
 2779SOL    MW411148   1.490   4.064   4.487
 2780SOL     OW11149   2.638   4.199   4.665
 2780SOL    HW211150   2.550   4.223   4.634
 2780SOL    HW311151   2.656   4.115   4.622
 2780SOL    MW411152   2.629   4.191   4.655
 2781SOL     OW11153   1.979   3.115   4.635
 2781SOL    HW211154   2.034   3.055   4.584
 2781SOL    HW311155   1.935   3.169   4.569
 2781SOL    MW411156   1.980   3.114   4.619
 2782SOL     OW11157   3.422   3.897   4.535
 2782SOL    HW211158   3.331   3.928   4.539
 2782SOL    HW311159   3.414   3.801   4.532
 2782SOL    MW411160   3.409   3.888   4.535
 2783SOL     OW11161   3.152   3.964   4.496
 2783SOL    HW211162   3.082   3.907   4.529
 2783SOL    HW311163   3.135   4.048   4.538
 2783SOL    MW411164   3.140   3.967   4.506
 2784SOL     OW11165   2.220   4.044   4.537
 2784SOL    HW211166   2.226   3.964   4.589
 2784SOL    HW311167   2.235   4.015   4.447
 2784SOL    MW411168   2.223   4.030   4.532
 2785SOL     OW11169   2.376   4.281   4.559
 2785SOL    HW211170   2.335   4.195   4.553
 2785SOL    HW311171   2.402   4.301   4.469
 2785SOL    MW411172   2.374   4.272   4.546
 2786SOL     OW11173   2.905   0.458   4.560
 2786SOL    HW211174   2.923   0.468   4.466
 2786SOL    HW311175   2.812   0.433   4.563
 2786SOL    MW411176   2.895   0.456   4.548
 2787SOL     OW11177   2.629   0.386   4.614
 2787SOL    HW211178   2.631   0.290   4.614
 2787SOL    HW311179   2.602   0.409   4.703
 2787SOL    MW411180   2.625   0.376   4.626
 2788SOL     OW11181   3.381   0.258   4.647
 2788SOL    HW211182   3.287   0.256   4.664
 2788SOL    HW311183   3.397   0.341   4.603
 2788SOL    MW411184   3.371   0.269   4.643
 2789SOL     OW11185   2.692   0.862   4.460
 2789SOL    HW211186   2.755   0.805   4.504
 2789SOL    HW311187   2.736   0.887   4.378
 2789SOL    MW411188   2.706   0.858   4.455
 2790SOL     OW11189   3.578   0.651   4.856
 2790SOL    HW211190   3.599   0.561   4.832
 2790SOL    HW311191   3.657   0.701   4.835
 2790SOL    MW411192   3.591   0.646   4.850
 2791SOL     OW11193   2.107   1.004   4.563
 2791SOL    HW211194   2.095   1.099   4.559
 2791SOL    HW311195   2.018   0.968   4.563
 2791SOL    MW411196   2.093   1.012   4.563
 2792SOL     OW11197   2.617   1.082   4.621
 2792SOL    HW211198   2.657   1.006   4.578
 2792SOL    HW311199   2.525   1.058   4.633
 2792SOL    MW411200   2.610   1.069   4.617
 2793SOL     OW11201   3.045   1.387   4.494
 2793SOL    HW211202   2.979   1.350   4.552
 2793SOL    HW311203   3.022   1.355   4.407
 2793SOL    MW411204   3.034   1.378   4.490
 2794SOL     OW11205   3.038   1.689   4.498
 2794SOL    HW211206   2.945   1.707   4.512
 2794SOL    HW311207   3.042   1.596   4.480
 2794SOL    MW411208   3.026   1.679   4.497
 2795SOL     OW11209   2.777   1.706   4.510
 2795SOL    HW211210   2.756   1.796   4.532
 2795SOL    HW311211   2.765   1.700   4.416
 2795SOL    MW411212   2.773   1.717   4.501
 2796SOL     OW11213   2.687   1.961   4.584
 2796SOL    HW211214   2.704   2.042   4.537
 2796SOL    HW311215   2.592   1.961   4.598
 2796SOL    MW411216   2.676   1.972   4.580
 2797SOL     OW11217   2.777   2.203   4.450
 2797SOL    HW211218   2.705   2.245   4.403
 2797SOL    HW311219   2.829   2.161   4.382
 2797SOL    MW411220   2.774   2.203   4.435
 2798SOL     OW11221   3.027   2.211   4.606
 2798SOL    HW211222   3.027   2.198   4.701
 2798SOL    HW311223   2.934   2.216   4.582
 2798SOL    MW411224   3.014   2.210   4.616
 2799SOL     OW11225   2.524   2.829   4.745
 2799SOL    HW211226   2.490   2.837   4.835
 2799SOL    HW311227   2.448   2.847   4.689
 2799SOL    MW411228   2.509   2.832   4.750
 2800SOL     OW11229   3.687   3.230   4.516
 2800SOL    HW211230   3.636   3.231   4.435
 2800SOL    HW311231   3.765   3.179   4.495
 2800SOL    MW411232   3.690   3.223   4.502
 2801SOL     OW11233   2.603   2.626   4.566
 2801SOL    HW211234   2.580   2.689   4.634
 2801SOL    HW311235   2.564   2.662   4.486
 2801SOL    MW411236   2.595   2.639   4.564
 2802SOL     OW11237   2.889   3.527   4.525
 2802SOL    HW211238   2.967   3.516   4.580
 2802SOL    HW311239   2.833   3.454   4.548
 2802SOL    MW411240   2.892   3.516   4.535
 2803SOL     OW11241   2.917   2.915   4.558
 2803SOL    HW211242   3.009   2.900   4.580
 2803SOL    HW311243   2.889   2.833   4.517
 2803SOL    MW411244   2.925   2.902   4.555
 2804SOL     OW11245   2.868   4.638   4.642
 2804SOL    HW211246   2.849   4.544   4.641
 2804SOL    HW311247   2.791   4.678   4.602
 2804SOL    MW411248   2.856   4.631   4.636
 2805SOL     OW11249   3.927   3.570   4.701
 2805SOL    HW211250   3.991   3.500   4.691
 2805SOL    HW311251   3.965   3.630   4.765
 2805SOL    MW411252   3.940   3.569   4.708
 2806SOL     OW11253   3.815   3.770   4.511
 2806SOL    HW211254   3.850   3.694   4.559
 2806SOL    HW311255   3.780   3.732   4.430
 2806SOL    MW411256   3.815   3.755   4.507
 2807SOL     OW11257   2.931   3.823   4.535
 2807SOL    HW211258   2.855   3.880   4.547
 2807SOL    HW311259   2.898   3.735   4.552
 2807SOL    MW411260   2.917   3.819   4.539
 2808SOL     OW11261   2.851   4.348   4.564
 2808SOL    HW211262   2.778   4.301   4.604
 2808SOL    HW311263   2.929   4.312   4.605
 2808SOL    MW411264   2.852   4.337   4.574
 2809SOL     OW11265   3.087   0.294   4.667
 2809SOL    HW211266   3.016   0.351   4.637
 2809SOL    HW311267   3.050   0.247   4.742
 2809SOL    MW411268   3.073   0.295   4.673
 2810SOL     OW11269   3.404   0.528   4.553
 2810SOL    HW211270   3.387   0.514   4.460
 2810SOL    HW311271   3.399   0.623   4.565
 2810SOL    MW411272   3.401   0.539   4.542
 2811SOL     OW11273   2.380   0.491   4.467
 2811SOL    HW211274   2.460   0.461   4.512
 2811SOL    HW311275   2.372   0.583   4.491
 2811SOL    MW411276   2.390   0.499   4.476
 2812SOL     OW11277   2.364   0.972   4.657
 2812SOL    HW211278   2.349   0.964   4.752
 2812SOL    HW311279   2.277   0.993   4.622
 2812SOL    MW411280   2.350   0.974   4.665
 2813SOL     OW11281   2.950   0.133   4.854
 2813SOL    HW211282   2.922   0.064   4.794
 2813SOL    HW311283   2.989   0.086   4.928
 2813SOL    MW411284   2.951   0.118   4.856
 2814SOL     OW11285   3.402   0.790   4.642
 2814SOL    HW211286   3.474   0.826   4.590
 2814SOL    HW311287   3.445   0.745   4.714
 2814SOL    MW411288   3.417   0.789   4.645
 2815SOL     OW11289   3.300   1.235   4.503
 2815SOL    HW211290   3.217   1.283   4.508
 2815SOL    HW311291   3.280   1.148   4.538
 2815SOL    MW411292   3.287   1.230   4.509
 2816SOL     OW11293   2.853   1.284   4.665
 2816SOL    HW211294   2.785   1.222   4.638
 2816SOL    HW311295   2.805   1.361   4.695
 2816SOL    MW411296   2.838   1.286   4.665
 2817SOL     OW11297   4.007   0.968   4.563
 2817SOL    HW211298   4.019   0.958   4.468
 2817SOL    HW311299   4.096   0.968   4.598
 2817SOL    MW411300   4.020   0.967   4.555
 2818SOL     OW11301   3.476   1.460   4.573
 2818SOL    HW211302   3.418   1.514   4.521
 2818SOL    HW311303   3.424   1.383   4.596
 2818SOL    MW411304   3.462   1.457   4.569
 2819SOL     OW11305   3.269   1.804   4.646
 2819SOL    HW211306   3.264   1.899   4.634
 2819SOL    HW311307   3.186   1.771   4.613
 2819SOL    MW411308   3.257   1.813   4.640
 2820SOL     OW11309   3.256   2.072   4.571
 2820SOL    HW211310   3.171   2.116   4.569
 2820SOL    HW311311   3.290   2.082   4.482
 2820SOL    MW411312   3.250   2.079   4.559
 2821SOL     OW11313   3.538   1.717   4.693
 2821SOL    HW211314   3.518   1.629   4.663
 2821SOL    HW311315   3.452   1.757   4.708
 2821SOL    MW411316   3.524   1.711   4.691
 2822SOL     OW11317   2.843   2.672   4.433
 2822SOL    HW211318   2.774   2.631   4.484
 2822SOL    HW311319   2.919   2.615   4.444
 2822SOL    MW411320   2.844   2.659   4.441
 2823SOL     OW11321   3.319   2.674   4.486
 2823SOL    HW211322   3.231   2.635   4.487
 2823SOL    HW311323   3.321   2.725   4.405
 2823SOL    MW411324   3.308   2.675   4.475
 2824SOL     OW11325   3.069   2.517   4.457
 2824SOL    HW211326   3.069   2.516   4.361
 2824SOL    HW311327   3.061   2.425   4.482
 2824SOL    MW411328   3.068   2.505   4.447
 2825SOL     OW11329   3.828   2.848   4.477
 2825SOL    HW211330   3.820   2.753   4.470
 2825SOL    HW311331   3.911   2.862   4.522
 2825SOL    MW411332   3.838   2.837   4.482
 2826SOL     OW11333   3.357   3.360   4.783
 2826SOL    HW211334   3.449   3.378   4.804
 2826SOL    HW311335   3.358   3.272   4.746
 2826SOL    MW411336   3.370   3.351   4.781
 2827SOL     OW11337   3.387   3.154   4.587
 2827SOL    HW211338   3.481   3.163   4.570
 2827SOL    HW311339   3.345   3.187   4.507
 2827SOL    MW411340   3.394   3.159   4.574
 2828SOL     OW11341   4.189   2.502   4.459
 2828SOL    HW211342   4.186   2.407   4.475
 2828SOL    HW311343   4.275   2.529   4.491
 2828SOL    MW411344   4.200   2.493   4.465
 2829SOL     OW11345   3.643   3.495   4.639
 2829SOL    HW211346   3.725   3.532   4.671
 2829SOL    HW311347   3.670   3.424   4.581
 2829SOL    MW411348   3.658   3.491   4.636
 2830SOL     OW11349   3.555   4.220   4.656
 2830SOL    HW211350   3.634   4.271   4.637
 2830SOL    HW311351   3.586   4.129   4.663
 2830SOL    MW411352   3.570   4.214   4.654
 2831SOL     OW11353   3.092   4.209   4.646
 2831SOL    HW211354   3.110   4.184   4.736
 2831SOL    HW311355   3.167   4.264   4.621
 2831SOL    MW411356   3.104   4.213   4.654
 2832SOL     OW11357   3.073   0.079   4.520
 2832SOL    HW211358   2.990   0.039   4.546
 2832SOL    HW311359   3.073   0.165   4.562
 2832SOL    MW411360   3.062   0.085   4.529
 2833SOL     OW11361   3.324   4.345   4.547
 2833SOL    HW211362   3.399   4.304   4.591
 2833SOL    HW311363   3.334   4.439   4.566
 2833SOL    MW411364   3.335   4.352   4.555
 2834SOL     OW11365   3.640   3.952   4.665
 2834SOL    HW211366   3.697   3.892   4.616
 2834SOL    HW311367   3.552   3.932   4.634
 2834SOL    MW411368   3.636   3.941   4.654
 2835SOL     OW11369   3.619   0.166   4.755
 2835SOL    HW211370   3.634   0.167   4.849
 2835SOL    HW311371   3.525   0.183   4.745
 2835SOL    MW411372   3.608   0.168   4.766
 2836SOL     OW11373   3.150   0.869   4.537
 2836SOL    HW211374   3.120   0.939   4.594
 2836SOL    HW311375   3.235   0.843   4.573
 2836SOL    MW411376   3.157   0.875   4.549
 2837SOL     OW11377   3.036   1.087   4.716
 2837SOL    HW211378   2.993   1.041   4.787
 2837SOL    HW311379   2.984   1.166   4.702
 2837SOL    MW411380   3.024   1.091   4.723
 2838SOL     OW11381   4.075   1.400   4.620
 2838SOL    HW211382   4.135   1.351   4.565
 2838SOL    HW311383   3.995   1.347   4.622
 2838SOL    MW411384   4.072   1.386   4.613
 2839SOL     OW11385   3.784   1.111   4.512
 2839SOL    HW211386   3.781   1.203   4.538
 2839SOL    HW311387   3.872   1.081   4.537
 2839SOL    MW411388   3.795   1.119   4.519
 2840SOL     OW11389   0.168   0.780   4.530
 2840SOL    HW211390   0.143   0.805   4.441
 2840SOL    HW311391   0.196   0.689   4.522
 2840SOL    MW411392   0.168   0.771   4.517
 2841SOL     OW11393   4.291   0.553   4.532
 2841SOL    HW211394   4.300   0.522   4.442
 2841SOL    HW311395   4.227   0.494   4.572
 2841SOL    MW411396   4.283   0.541   4.526
 2842SOL     OW11397   3.583   1.700   4.259
 2842SOL    HW211398   3.668   1.681   4.299
 2842SOL    HW311399   3.521   1.699   4.332
 2842SOL    MW411400   3.586   1.698   4.274
 2843SOL     OW11401   3.785   1.846   4.593
 2843SOL    HW211402   3.712   1.797   4.630
 2843SOL    HW311403   3.751   1.935   4.582
 2843SOL    MW411404   3.771   1.851   4.596
 2844SOL     OW11405   3.464   2.259   4.661
 2844SOL    HW211406   3.490   2.233   4.750
 2844SOL    HW311407   3.383   2.212   4.644
 2844SOL    MW411408   3.457   2.250   4.670
 2845SOL     OW11409   4.152   2.147   4.738
 2845SOL    HW211410   4.118   2.059   4.729
 2845SOL    HW311411   4.192   2.149   4.826
 2845SOL    MW411412   4.153   2.136   4.749
 2846SOL     OW11413   4.050   1.910   4.666
 2846SOL    HW211414   3.961   1.898   4.633
 2846SOL    HW311415   4.101   1.840   4.627
 2846SOL    MW411416   4.045   1.899   4.657
 2847SOL     OW11417   3.729   2.130   4.566
 2847SOL    HW211418   3.791   2.181   4.619
 2847SOL    HW311419   3.644   2.167   4.586
 2847SOL    MW411420   3.726   2.142   4.576
 2848SOL     OW11421   3.794   2.564   4.464
 2848SOL    HW211422   3.701   2.558   4.484
 2848SOL    HW311423   3.808   2.496   4.398
 2848SOL    MW411424   3.784   2.554   4.458
 2849SOL     OW11425   4.006   2.595   4.650
 2849SOL    HW211426   3.930   2.574   4.596
 2849SOL    HW311427   4.081   2.565   4.599
 2849SOL    MW411428   4.006   2.588   4.636
 2850SOL     OW11429   4.110   2.846   4.602
 2850SOL    HW211430   4.069   2.763   4.626
 2850SOL    HW311431   4.189   2.821   4.554
 2850SOL    MW411432   4.115   2.832   4.599
 2851SOL     OW11433   3.196   3.450   4.575
 2851SOL    HW211434   3.252   3.421   4.646
 2851SOL    HW311435   3.184   3.373   4.520
 2851SOL    MW411436   3.202   3.436   4.577
 2852SOL     OW11437   3.978   3.148   4.505
 2852SOL    HW211438   4.017   3.067   4.538
 2852SOL    HW311439   4.009   3.154   4.415
 2852SOL    MW411440   3.987   3.138   4.498
 2853SOL     OW11441   3.425   3.587   4.503
 2853SOL    HW211442   3.355   3.523   4.519
 2853SOL    HW311443   3.496   3.560   4.561
 2853SOL    MW411444   3.425   3.575   4.513
 2854SOL     OW11445   4.137   3.381   4.608
 2854SOL    HW211446   4.087   3.319   4.555
 2854SOL    HW311447   4.200   3.327   4.656
 2854SOL    MW411448   4.139   3.366   4.607
 2855SOL     OW11449   0.135   2.833   4.508
 2855SOL    HW211450   0.197   2.808   4.440
 2855SOL    HW311451   0.115   2.925   4.492
 2855SOL    MW411452   0.141   2.842   4.497
 2856SOL     OW11453   4.031   3.956   4.493
 2856SOL    HW211454   3.998   4.043   4.515
 2856SOL    HW311455   3.954   3.899   4.498
 2856SOL    MW411456   4.017   3.960   4.496
 2857SOL     OW11457   3.775   4.408   4.538
 2857SOL    HW211458   3.766   4.380   4.447
 2857SOL    HW311459   3.761   4.503   4.536
 2857SOL    MW411460   3.772   4.417   4.526
 2858SOL     OW11461   3.329   4.629   4.564
 2858SOL    HW211462   3.388   4.704   4.559
 2858SOL    HW311463   3.244   4.663   4.539
 2858SOL    MW411464   3.326   4.643   4.560
 2859SOL     OW11465   3.608   0.889   4.495
 2859SOL    HW211466   3.647   0.977   4.495
 2859SOL    HW311467   3.624   0.855   4.407
 2859SOL    MW411468   3.615   0.897   4.483
 2860SOL     OW11469   3.796   0.794   4.655
 2860SOL    HW211470   3.867   0.855   4.637
 2860SOL    HW311471   3.724   0.823   4.600
 2860SOL    MW411472   3.796   0.806   4.645
 2861SOL     OW11473   4.485   0.350   4.617
 2861SOL    HW211474   4.566   0.397   4.595
 2861SOL    HW311475   4.415   0.412   4.597
 2861SOL    MW411476   4.486   0.365   4.612
 2862SOL     OW11477   0.470   0.442   4.639
 2862SOL    HW211478   0.552   0.466   4.597
 2862SOL    HW311479   0.490   0.359   4.684
 2862SOL    MW411480   0.483   0.434   4.640
 2863SOL     OW11481   4.117   0.363   4.635
 2863SOL    HW211482   4.046   0.422   4.611
 2863SOL    HW311483   4.092   0.279   4.598
 2863SOL    MW411484   4.105   0.360   4.627
 2864SOL     OW11485   3.766   1.410   4.502
 2864SOL    HW211486   3.676   1.427   4.532
 2864SOL    HW311487   3.793   1.491   4.459
 2864SOL    MW411488   3.757   1.423   4.500
 2865SOL     OW11489   0.008   1.368   4.610
 2865SOL    HW211490  -0.005   1.462   4.622
 2865SOL    HW311491   0.097   1.359   4.576
 2865SOL    MW411492   0.018   1.379   4.607
 2866SOL     OW11493   0.265   1.340   4.529
 2866SOL    HW211494   0.323   1.279   4.575
 2866SOL    HW311495   0.308   1.425   4.538
 2866SOL    MW411496   0.278   1.343   4.537
 2867SOL     OW11497   3.827   1.658   4.392
 2867SOL    HW211498   3.909   1.656   4.341
 2867SOL    HW311499   3.849   1.709   4.470
 2867SOL    MW411500   3.841   1.664   4.395
 2868SOL     OW11501   3.201   2.926   4.596
 2868SOL    HW211502   3.251   2.850   4.566
 2868SOL    HW311503   3.266   2.996   4.604
 2868SOL    MW411504   3.216   2.925   4.593
 2869SOL     OW11505   4.260   2.100   4.210
 2869SOL    HW211506   4.187   2.040   4.193
 2869SOL    HW311507   4.252   2.122   4.303
 2869SOL    MW411508   4.249   2.095   4.220
 2870SOL     OW11509   0.197   2.199   4.509
 2870SOL    HW211510   0.277   2.246   4.535
 2870SOL    HW311511   0.130   2.267   4.506
 2870SOL    MW411512   0.199   2.215   4.512
 2871SOL     OW11513   4.261   2.215   4.486
 2871SOL    HW211514   4.226   2.184   4.570
 2871SOL    HW311515   4.341   2.261   4.510
 2871SOL    MW411516   4.267   2.217   4.500
 2872SOL     OW11517   3.523   2.498   4.516
 2872SOL    HW211518   3.455   2.565   4.518
 2872SOL    HW311519   3.481   2.419   4.551
 2872SOL    MW411520   3.509   2.496   4.521
 2873SOL     OW11521   0.425   2.584   4.689
 2873SOL    HW211522   0.434   2.505   4.636
 2873SOL    HW311523   0.515   2.606   4.714
 2873SOL    MW411524   0.438   2.577   4.685
 2874SOL     OW11525   4.350   2.772   4.494
 2874SOL    HW211526   4.440   2.789   4.520
 2874SOL    HW311527   4.340   2.816   4.409
 2874SOL    MW411528   4.360   2.780   4.486
 2875SOL     OW11529   0.069   3.105   4.500
 2875SOL    HW211530   0.038   3.141   4.417
 2875SOL    HW311531   0.156   3.143   4.511
 2875SOL    MW411532   0.077   3.115   4.490
 2876SOL     OW11533   0.134   3.645   4.496
 2876SOL    HW211534   0.166   3.643   4.406
 2876SOL    HW311535   0.039   3.634   4.488
 2876SOL    MW411536   0.125   3.643   4.483
 2877SOL     OW11537   4.216   4.638   4.621
 2877SOL    HW211538   4.151   4.689   4.574
 2877SOL    HW311539   4.234   4.688   4.701
 2877SOL    MW411540   4.210   4.651   4.625
 2878SOL     OW11541   3.757   0.031   4.548
 2878SOL    HW211542   3.710   0.065   4.624
 2878SOL    HW311543   3.698   0.047   4.474
 2878SOL    MW411544   3.743   0.037   4.548
 2879SOL     OW11545   0.101   4.428   4.840
 2879SOL    HW211546   0.039   4.462   4.905
 2879SOL    HW311547   0.048   4.374   4.782
 2879SOL    MW411548   0.086   4.425   4.841
 2880SOL     OW11549   3.656   0.435   4.667
 2880SOL    HW211550   3.623   0.348   4.688
 2880SOL    HW311551   3.583   0.478   4.621
 2880SOL    MW411552   3.642   0.429   4.664
 2881SOL     OW11553   4.225   4.349   4.259
 2881SOL    HW211554   4.311   4.330   4.221
 2881SOL    HW311555   4.237   4.337   4.354
 2881SOL    MW411556   4.238   4.345   4.267
 2882NA      NA11557   2.592   4.367   0.548
 2883NA      NA11558   0.533   2.322   0.376
   4.49070   4.66690  10.00000
