Gromacs Runs On Most of All Computer Systems in water t= 270.00000 step= 270000
11558
    1RG35     P    1   2.113   2.848   4.527
    1RG35   O1P    2   2.147   2.790   4.400
    1RG35   O2P    3   2.007   2.945   4.512
    1RG35   O5'    4   2.043   2.733   4.612
    1RG35   C5'    5   1.955   2.767   4.722
    1RG35  H5'1    6   1.857   2.791   4.682
    1RG35  H5'2    7   2.002   2.851   4.773
    1RG35   C4'    8   1.957   2.653   4.820
    1RG35   H4'    9   1.887   2.689   4.896
    1RG35   O4'   10   1.908   2.532   4.759
    1RG35   C1'   11   1.993   2.428   4.777
    1RG35   H1'   12   1.955   2.366   4.858
    1RG35    N9   13   2.000   2.349   4.647
    1RG35    C8   14   2.025   2.399   4.526
    1RG35    H8   15   2.031   2.506   4.513
    1RG35    N7   16   2.018   2.309   4.427
    1RG35    C5   17   2.003   2.183   4.499
    1RG35    C6   18   1.972   2.053   4.455
    1RG35    O6   19   1.973   2.010   4.340
    1RG35    N1   20   1.943   1.969   4.555
    1RG35    H1   21   1.918   1.875   4.529
    1RG35    C2   22   1.937   2.000   4.688
    1RG35    N2   23   1.901   1.908   4.772
    1RG35   H21   24   1.839   1.833   4.745
    1RG35   H22   25   1.911   1.934   4.869
    1RG35    N3   26   1.969   2.121   4.730
    1RG35    C4   27   1.994   2.210   4.630
    1RG35   C3'   28   2.091   2.622   4.881
    1RG35   H3'   29   2.167   2.699   4.865
    1RG35   C2'   30   2.129   2.493   4.809
    1RG35  H2'1   31   2.177   2.523   4.716
    1RG35   O2'   32   2.204   2.409   4.893
    1RG35  HO'2   33   2.251   2.343   4.842
    1RG35   O3'   34   2.084   2.594   5.019
    1RG35   H3T   35   2.144   2.520   5.029
    1RG35   O3P   36   2.230   2.892   4.602
    2SOL     OW   37   0.435   0.115   0.416
    2SOL    HW2   38   0.420   0.034   0.368
    2SOL    HW3   39   0.518   0.149   0.382
    2SOL    MW4   40   0.444   0.109   0.405
    3SOL     OW   41   4.016   0.036   0.441
    3SOL    HW2   42   4.110   0.035   0.421
    3SOL    HW3   43   3.988  -0.056   0.431
    3SOL    MW4   44   4.025   0.024   0.437
    4SOL     OW   45   3.862   0.502   0.459
    4SOL    HW2   46   3.788   0.547   0.419
    4SOL    HW3   47   3.843   0.505   0.553
    4SOL    MW4   48   3.850   0.509   0.466
    5SOL     OW   49   0.117   1.421   0.470
    5SOL    HW2   50   0.133   1.380   0.556
    5SOL    HW3   51   0.041   1.375   0.435
    5SOL    MW4   52   0.109   1.409   0.477
    6SOL     OW   53   1.507   0.763   0.371
    6SOL    HW2   54   1.432   0.810   0.406
    6SOL    HW3   55   1.509   0.787   0.278
    6SOL    MW4   56   1.497   0.772   0.363
    7SOL     OW   57   0.258   0.536   0.425
    7SOL    HW2   58   0.248   0.524   0.519
    7SOL    HW3   59   0.258   0.447   0.389
    7SOL    MW4   60   0.257   0.523   0.433
    8SOL     OW   61   0.578   0.923   0.476
    8SOL    HW2   62   0.578   0.910   0.571
    8SOL    HW3   63   0.543   0.841   0.441
    8SOL    MW4   64   0.573   0.911   0.484
    9SOL     OW   65   0.982   0.872   0.465
    9SOL    HW2   66   0.957   0.862   0.557
    9SOL    HW3   67   0.915   0.931   0.428
    9SOL    MW4   68   0.970   0.879   0.472
   10SOL     OW   69   0.779   1.063   0.340
   10SOL    HW2   70   0.740   1.127   0.281
   10SOL    HW3   71   0.706   1.032   0.394
   10SOL    MW4   72   0.764   1.068   0.340
   11SOL     OW   73   0.615   1.812   0.256
   11SOL    HW2   74   0.525   1.782   0.265
   11SOL    HW3   75   0.665   1.733   0.237
   11SOL    MW4   76   0.610   1.798   0.254
   12SOL     OW   77   3.991   2.079   0.440
   12SOL    HW2   78   3.970   2.020   0.369
   12SOL    HW3   79   3.922   2.065   0.504
   12SOL    MW4   80   3.979   2.070   0.439
   13SOL     OW   81   0.071   1.684   0.366
   13SOL    HW2   82  -0.020   1.708   0.385
   13SOL    HW3   83   0.081   1.597   0.406
   13SOL    MW4   84   0.060   1.676   0.374
   14SOL     OW   85   0.386   2.311   0.207
   14SOL    HW2   86   0.427   2.235   0.166
   14SOL    HW3   87   0.417   2.385   0.155
   14SOL    MW4   88   0.396   2.311   0.195
   15SOL     OW   89   0.066   2.695   0.459
   15SOL    HW2   90   0.133   2.670   0.395
   15SOL    HW3   91   0.034   2.780   0.429
   15SOL    MW4   92   0.070   2.703   0.446
   16SOL     OW   93   4.160   3.263   0.337
   16SOL    HW2   94   4.087   3.228   0.387
   16SOL    HW3   95   4.237   3.219   0.373
   16SOL    MW4   96   4.161   3.253   0.348
   17SOL     OW   97   4.385   2.914   0.377
   17SOL    HW2   98   4.364   2.932   0.286
   17SOL    HW3   99   4.302   2.884   0.415
   17SOL    MW4  100   4.371   2.912   0.370
   18SOL     OW  101   0.354   3.405   0.420
   18SOL    HW2  102   0.386   3.320   0.449
   18SOL    HW3  103   0.430   3.463   0.426
   18SOL    MW4  104   0.368   3.401   0.425
   19SOL     OW  105   0.539   3.836   0.321
   19SOL    HW2  106   0.622   3.810   0.281
   19SOL    HW3  107   0.563   3.899   0.388
   19SOL    MW4  108   0.553   3.841   0.324
   20SOL     OW  109   4.074   3.766   0.398
   20SOL    HW2  110   4.048   3.750   0.307
   20SOL    HW3  111   4.143   3.702   0.414
   20SOL    MW4  112   4.080   3.755   0.388
   21SOL     OW  113   4.471   3.861   0.344
   21SOL    HW2  114   4.429   3.846   0.429
   21SOL    HW3  115   4.564   3.850   0.361
   21SOL    MW4  116   4.477   3.857   0.357
   22SOL     OW  117   4.381   4.427   0.470
   22SOL    HW2  118   4.333   4.381   0.401
   22SOL    HW3  119   4.337   4.400   0.551
   22SOL    MW4  120   4.369   4.417   0.472
   23SOL     OW  121   4.206   4.336   0.271
   23SOL    HW2  122   4.256   4.261   0.238
   23SOL    HW3  123   4.129   4.298   0.311
   23SOL    MW4  124   4.203   4.321   0.272
   24SOL     OW  125   4.436   4.142   0.353
   24SOL    HW2  126   4.433   4.047   0.340
   24SOL    HW3  127   4.369   4.158   0.420
   24SOL    MW4  128   4.426   4.131   0.360
   25SOL     OW  129   0.490   3.158   0.509
   25SOL    HW2  130   0.479   3.163   0.603
   25SOL    HW3  131   0.584   3.176   0.495
   25SOL    MW4  132   0.501   3.161   0.519
   26SOL     OW  133   0.383   4.503   0.343
   26SOL    HW2  134   0.315   4.456   0.391
   26SOL    HW3  135   0.370   4.478   0.251
   26SOL    MW4  136   0.372   4.493   0.337
   27SOL     OW  137   0.222   0.283   0.352
   27SOL    HW2  138   0.141   0.241   0.379
   27SOL    HW3  139   0.290   0.220   0.373
   27SOL    MW4  140   0.220   0.269   0.359
   28SOL     OW  141   0.024   0.666   0.378
   28SOL    HW2  142   0.035   0.698   0.289
   28SOL    HW3  143   0.107   0.623   0.398
   28SOL    MW4  144   0.036   0.665   0.369
   29SOL     OW  145   0.842   4.430   0.349
   29SOL    HW2  146   0.910   4.363   0.361
   29SOL    HW3  147   0.760   4.380   0.342
   29SOL    MW4  148   0.840   4.414   0.350
   30SOL     OW  149   1.285   0.905   0.442
   30SOL    HW2  150   1.293   0.912   0.537
   30SOL    HW3  151   1.192   0.891   0.426
   30SOL    MW4  152   1.274   0.904   0.452
   31SOL     OW  153   0.730   0.453   0.514
   31SOL    HW2  154   0.805   0.502   0.482
   31SOL    HW3  155   0.736   0.368   0.470
   31SOL    MW4  156   0.741   0.448   0.504
   32SOL     OW  157   0.376   1.148   0.548
   32SOL    HW2  158   0.302   1.147   0.487
   32SOL    HW3  159   0.441   1.091   0.509
   32SOL    MW4  160   0.374   1.140   0.535
   33SOL     OW  161   0.217   1.935   0.463
   33SOL    HW2  162   0.148   1.869   0.456
   33SOL    HW3  163   0.182   2.011   0.417
   33SOL    MW4  164   0.203   1.936   0.456
   34SOL     OW  165   0.604   2.093   0.197
   34SOL    HW2  166   0.613   2.000   0.218
   34SOL    HW3  167   0.681   2.113   0.142
   34SOL    MW4  168   0.616   2.083   0.193
   35SOL     OW  169   0.713   2.575   0.489
   35SOL    HW2  170   0.805   2.549   0.490
   35SOL    HW3  171   0.716   2.670   0.479
   35SOL    MW4  172   0.726   2.584   0.488
   36SOL     OW  173   0.457   2.568   0.093
   36SOL    HW2  174   0.547   2.535   0.103
   36SOL    HW3  175   0.453   2.599   0.002
   36SOL    MW4  176   0.468   2.568   0.082
   37SOL     OW  177   3.773   2.210   0.261
   37SOL    HW2  178   3.858   2.254   0.255
   37SOL    HW3  179   3.788   2.123   0.223
   37SOL    MW4  180   3.786   2.204   0.255
   38SOL     OW  181   1.486   2.421   0.537
   38SOL    HW2  182   1.558   2.360   0.521
   38SOL    HW3  183   1.528   2.507   0.541
   38SOL    MW4  184   1.501   2.424   0.535
   39SOL     OW  185   0.458   2.461   0.484
   39SOL    HW2  186   0.424   2.523   0.420
   39SOL    HW3  187   0.545   2.495   0.508
   39SOL    MW4  188   0.465   2.473   0.479
   40SOL     OW  189   4.398   3.172   0.477
   40SOL    HW2  190   4.471   3.213   0.431
   40SOL    HW3  191   4.406   3.079   0.457
   40SOL    MW4  192   4.408   3.165   0.468
   41SOL     OW  193   0.356   2.702   0.306
   41SOL    HW2  194   0.373   2.678   0.215
   41SOL    HW3  195   0.421   2.770   0.325
   41SOL    MW4  196   0.367   2.708   0.297
   42SOL     OW  197   0.901   0.370   0.186
   42SOL    HW2  198   0.867   0.394   0.100
   42SOL    HW3  199   0.917   0.454   0.229
   42SOL    MW4  200   0.899   0.384   0.181
   43SOL     OW  201   0.202   3.639   0.518
   43SOL    HW2  202   0.236   3.713   0.468
   43SOL    HW3  203   0.238   3.562   0.473
   43SOL    MW4  204   0.211   3.638   0.505
   44SOL     OW  205   0.564   3.597   0.469
   44SOL    HW2  206   0.550   3.688   0.443
   44SOL    HW3  207   0.602   3.602   0.557
   44SOL    MW4  208   0.567   3.610   0.477
   45SOL     OW  209   1.022   3.489   0.495
   45SOL    HW2  210   0.943   3.469   0.445
   45SOL    HW3  211   1.082   3.417   0.477
   45SOL    MW4  212   1.020   3.477   0.486
   46SOL     OW  213   0.168   4.374   0.491
   46SOL    HW2  214   0.079   4.403   0.473
   46SOL    HW3  215   0.163   4.278   0.490
   46SOL    MW4  216   0.156   4.365   0.489
   47SOL     OW  217   0.784   3.457   0.362
   47SOL    HW2  218   0.802   3.488   0.274
   47SOL    HW3  219   0.714   3.515   0.394
   47SOL    MW4  220   0.777   3.469   0.355
   48SOL     OW  221   0.621   4.319   0.467
   48SOL    HW2  222   0.560   4.388   0.438
   48SOL    HW3  223   0.656   4.351   0.550
   48SOL    MW4  224   0.617   4.333   0.474
   49SOL     OW  225   0.719   0.207   0.372
   49SOL    HW2  226   0.790   0.160   0.416
   49SOL    HW3  227   0.762   0.257   0.303
   49SOL    MW4  228   0.734   0.208   0.369
   50SOL     OW  229   0.951   0.600   0.368
   50SOL    HW2  230   0.943   0.692   0.392
   50SOL    HW3  231   1.032   0.571   0.412
   50SOL    MW4  232   0.961   0.608   0.377
   51SOL     OW  233   0.514   0.665   0.419
   51SOL    HW2  234   0.426   0.628   0.415
   51SOL    HW3  235   0.572   0.588   0.419
   51SOL    MW4  236   0.510   0.650   0.419
   52SOL     OW  237   1.451   0.509   0.475
   52SOL    HW2  238   1.461   0.600   0.448
   52SOL    HW3  239   1.477   0.508   0.567
   52SOL    MW4  240   1.456   0.521   0.483
   53SOL     OW  241   2.043   0.729   0.392
   53SOL    HW2  242   1.958   0.771   0.407
   53SOL    HW3  243   2.024   0.656   0.333
   53SOL    MW4  244   2.029   0.725   0.387
   54SOL     OW  245   1.796   0.864   0.441
   54SOL    HW2  246   1.717   0.812   0.429
   54SOL    HW3  247   1.803   0.875   0.536
   54SOL    MW4  248   1.787   0.859   0.452
   55SOL     OW  249   0.770   1.581   0.305
   55SOL    HW2  250   0.773   1.489   0.331
   55SOL    HW3  251   0.843   1.621   0.352
   55SOL    MW4  252   0.780   1.574   0.315
   56SOL     OW  253   0.786   1.346   0.471
   56SOL    HW2  254   0.788   1.253   0.447
   56SOL    HW3  255   0.878   1.369   0.485
   56SOL    MW4  256   0.799   1.337   0.470
   57SOL     OW  257   1.286   1.358   0.310
   57SOL    HW2  258   1.338   1.437   0.325
   57SOL    HW3  259   1.285   1.348   0.214
   57SOL    MW4  260   1.293   1.367   0.299
   58SOL     OW  261   1.056   1.443   0.476
   58SOL    HW2  262   1.121   1.400   0.420
   58SOL    HW3  263   1.055   1.534   0.447
   58SOL    MW4  264   1.064   1.449   0.465
   59SOL     OW  265   0.988   1.717   0.412
   59SOL    HW2  266   1.046   1.792   0.413
   59SOL    HW3  267   0.946   1.717   0.498
   59SOL    MW4  268   0.990   1.727   0.423
   60SOL     OW  269   0.120   2.182   0.338
   60SOL    HW2  270   0.026   2.202   0.334
   60SOL    HW3  271   0.162   2.260   0.303
   60SOL    MW4  272   0.113   2.195   0.333
   61SOL     OW  273   0.657   1.865   0.529
   61SOL    HW2  274   0.651   1.807   0.453
   61SOL    HW3  275   0.685   1.808   0.601
   61SOL    MW4  276   0.660   1.850   0.529
   62SOL     OW  277   0.752   2.244   0.497
   62SOL    HW2  278   0.800   2.292   0.564
   62SOL    HW3  279   0.814   2.181   0.462
   62SOL    MW4  280   0.766   2.242   0.501
   63SOL     OW  281   0.485   2.072   0.489
   63SOL    HW2  282   0.407   2.027   0.454
   63SOL    HW3  283   0.544   2.001   0.514
   63SOL    MW4  284   0.482   2.056   0.488
   64SOL     OW  285   1.005   2.559   0.530
   64SOL    HW2  286   1.083   2.517   0.493
   64SOL    HW3  287   0.986   2.509   0.610
   64SOL    MW4  288   1.013   2.547   0.536
   65SOL     OW  289   0.681   2.417   0.234
   65SOL    HW2  290   0.730   2.462   0.303
   65SOL    HW3  291   0.746   2.364   0.189
   65SOL    MW4  292   0.696   2.416   0.237
   66SOL     OW  293   0.546   2.883   0.453
   66SOL    HW2  294   0.524   2.976   0.451
   66SOL    HW3  295   0.563   2.864   0.546
   66SOL    MW4  296   0.545   2.892   0.465
   67SOL     OW  297   0.780   3.208   0.498
   67SOL    HW2  298   0.851   3.224   0.559
   67SOL    HW3  299   0.774   3.289   0.447
   67SOL    MW4  300   0.788   3.221   0.499
   68SOL     OW  301   2.068   3.624   0.448
   68SOL    HW2  302   2.063   3.608   0.542
   68SOL    HW3  303   2.014   3.554   0.409
   68SOL    MW4  304   2.060   3.612   0.455
   69SOL     OW  305   0.907   3.973   0.545
   69SOL    HW2  306   0.817   3.987   0.518
   69SOL    HW3  307   0.903   3.959   0.639
   69SOL    MW4  308   0.895   3.973   0.554
   70SOL     OW  309   0.609   4.033   0.513
   70SOL    HW2  310   0.573   4.031   0.602
   70SOL    HW3  311   0.622   4.126   0.494
   70SOL    MW4  312   0.606   4.045   0.522
   71SOL     OW  313   1.049   4.216   0.473
   71SOL    HW2  314   1.001   4.136   0.494
   71SOL    HW3  315   1.047   4.268   0.554
   71SOL    MW4  316   1.042   4.213   0.487
   72SOL     OW  317   1.173   0.473   0.493
   72SOL    HW2  318   1.162   0.388   0.450
   72SOL    HW3  319   1.268   0.488   0.494
   72SOL    MW4  320   1.184   0.464   0.487
   73SOL     OW  321   0.930   0.012   0.420
   73SOL    HW2  322   0.887  -0.073   0.406
   73SOL    HW3  323   0.949   0.014   0.514
   73SOL    MW4  324   0.927   0.001   0.431
   74SOL     OW  325   1.376   0.214   0.391
   74SOL    HW2  326   1.295   0.207   0.341
   74SOL    HW3  327   1.412   0.300   0.368
   74SOL    MW4  328   1.370   0.224   0.382
   75SOL     OW  329   2.024   4.620   0.425
   75SOL    HW2  330   2.032   4.711   0.393
   75SOL    HW3  331   1.939   4.591   0.393
   75SOL    MW4  332   2.014   4.628   0.416
   76SOL     OW  333   1.102   0.235   0.338
   76SOL    HW2  334   1.060   0.164   0.386
   76SOL    HW3  335   1.034   0.265   0.277
   76SOL    MW4  336   1.087   0.230   0.336
   77SOL     OW  337   2.280   0.651   0.553
   77SOL    HW2  338   2.196   0.677   0.515
   77SOL    HW3  339   2.283   0.556   0.542
   77SOL    MW4  340   2.270   0.642   0.547
   78SOL     OW  341   2.477   0.995   0.423
   78SOL    HW2  342   2.520   1.081   0.424
   78SOL    HW3  343   2.386   1.013   0.447
   78SOL    MW4  344   2.471   1.009   0.426
   79SOL     OW  345   1.902   1.369   0.318
   79SOL    HW2  346   1.840   1.302   0.287
   79SOL    HW3  347   1.846   1.436   0.358
   79SOL    MW4  348   1.886   1.369   0.319
   80SOL     OW  349   1.741   1.130   0.308
   80SOL    HW2  350   1.778   1.068   0.372
   80SOL    HW3  351   1.647   1.127   0.324
   80SOL    MW4  352   1.734   1.121   0.319
   81SOL     OW  353   1.457   1.138   0.388
   81SOL    HW2  354   1.400   1.062   0.392
   81SOL    HW3  355   1.399   1.211   0.367
   81SOL    MW4  356   1.442   1.138   0.385
   82SOL     OW  357   1.425   1.587   0.346
   82SOL    HW2  358   1.520   1.598   0.356
   82SOL    HW3  359   1.387   1.654   0.402
   82SOL    MW4  360   1.433   1.597   0.355
   83SOL     OW  361   0.856   2.214   0.127
   83SOL    HW2  362   0.934   2.247   0.084
   83SOL    HW3  363   0.888   2.165   0.202
   83SOL    MW4  364   0.870   2.212   0.131
   84SOL     OW  365   1.597   2.679   0.479
   84SOL    HW2  366   1.688   2.704   0.467
   84SOL    HW3  367   1.572   2.721   0.561
   84SOL    MW4  368   1.606   2.688   0.488
   85SOL     OW  369   1.849   2.069   0.251
   85SOL    HW2  370   1.908   2.126   0.302
   85SOL    HW3  371   1.868   2.091   0.160
   85SOL    MW4  372   1.859   2.080   0.246
   86SOL     OW  373   1.541   1.991   0.470
   86SOL    HW2  374   1.551   2.075   0.427
   86SOL    HW3  375   1.631   1.957   0.476
   86SOL    MW4  376   1.554   1.997   0.465
   87SOL     OW  377   0.908   2.054   0.366
   87SOL    HW2  378   0.989   2.029   0.411
   87SOL    HW3  379   0.851   1.977   0.375
   87SOL    MW4  380   0.911   2.040   0.373
   88SOL     OW  381   0.804   2.932   0.391
   88SOL    HW2  382   0.714   2.899   0.398
   88SOL    HW3  383   0.801   3.019   0.429
   88SOL    MW4  384   0.792   2.939   0.397
   89SOL     OW  385   2.006   2.213   0.424
   89SOL    HW2  386   2.018   2.130   0.470
   89SOL    HW3  387   2.091   2.257   0.432
   89SOL    MW4  388   2.019   2.208   0.431
   90SOL     OW  389   1.946   0.489   0.271
   90SOL    HW2  390   1.940   0.497   0.176
   90SOL    HW3  391   1.856   0.498   0.302
   90SOL    MW4  392   1.933   0.491   0.262
   91SOL     OW  393   1.026   3.779   0.378
   91SOL    HW2  394   1.027   3.689   0.412
   91SOL    HW3  395   0.980   3.829   0.445
   91SOL    MW4  396   1.020   3.773   0.391
   92SOL     OW  397   2.182   2.684   0.319
   92SOL    HW2  398   2.267   2.653   0.287
   92SOL    HW3  399   2.185   2.779   0.307
   92SOL    MW4  400   2.193   2.692   0.313
   93SOL     OW  401   1.285   3.898   0.439
   93SOL    HW2  402   1.200   3.863   0.412
   93SOL    HW3  403   1.284   3.988   0.407
   93SOL    MW4  404   1.274   3.905   0.431
   94SOL     OW  405   1.204   3.010   0.346
   94SOL    HW2  406   1.141   2.950   0.385
   94SOL    HW3  407   1.289   2.976   0.373
   94SOL    MW4  408   1.207   2.998   0.355
   95SOL     OW  409   2.328   3.770   0.405
   95SOL    HW2  410   2.245   3.723   0.412
   95SOL    HW3  411   2.388   3.724   0.464
   95SOL    MW4  412   2.325   3.758   0.413
   96SOL     OW  413   0.785   3.735   0.221
   96SOL    HW2  414   0.853   3.747   0.287
   96SOL    HW3  415   0.819   3.777   0.142
   96SOL    MW4  416   0.798   3.742   0.219
   97SOL     OW  417   1.799   4.529   0.284
   97SOL    HW2  418   1.724   4.572   0.325
   97SOL    HW3  419   1.781   4.435   0.292
   97SOL    MW4  420   1.787   4.522   0.290
   98SOL     OW  421   2.005   4.584   0.685
   98SOL    HW2  422   2.005   4.489   0.700
   98SOL    HW3  423   2.020   4.594   0.592
   98SOL    MW4  424   2.007   4.572   0.675
   99SOL     OW  425   2.010   0.232   0.375
   99SOL    HW2  426   1.924   0.212   0.413
   99SOL    HW3  427   2.001   0.320   0.339
   99SOL    MW4  428   1.998   0.241   0.375
  100SOL     OW  429   1.319   4.184   0.405
  100SOL    HW2  430   1.232   4.219   0.422
  100SOL    HW3  431   1.375   4.262   0.402
  100SOL    MW4  432   1.315   4.199   0.407
  101SOL     OW  433   2.486   0.716   0.391
  101SOL    HW2  434   2.406   0.710   0.444
  101SOL    HW3  435   2.486   0.806   0.359
  101SOL    MW4  436   2.475   0.727   0.394
  102SOL     OW  437   1.800   1.871   0.462
  102SOL    HW2  438   1.865   1.907   0.523
  102SOL    HW3  439   1.825   1.907   0.377
  102SOL    MW4  440   1.812   1.881   0.459
  103SOL     OW  441   2.096   1.246   0.481
  103SOL    HW2  442   2.175   1.300   0.468
  103SOL    HW3  443   2.034   1.279   0.416
  103SOL    MW4  444   2.099   1.257   0.471
  104SOL     OW  445   2.594   1.275   0.351
  104SOL    HW2  446   2.668   1.266   0.411
  104SOL    HW3  447   2.634   1.306   0.269
  104SOL    MW4  448   2.609   1.278   0.348
  105SOL     OW  449   2.277   1.903   0.442
  105SOL    HW2  450   2.343   1.962   0.479
  105SOL    HW3  451   2.272   1.929   0.350
  105SOL    MW4  452   2.285   1.914   0.435
  106SOL     OW  453   1.698   1.587   0.432
  106SOL    HW2  454   1.718   1.681   0.431
  106SOL    HW3  455   1.657   1.573   0.518
  106SOL    MW4  456   1.695   1.598   0.443
  107SOL     OW  457   1.334   1.803   0.477
  107SOL    HW2  458   1.406   1.865   0.478
  107SOL    HW3  459   1.327   1.772   0.567
  107SOL    MW4  460   1.342   1.807   0.489
  108SOL     OW  461   2.259   2.316   0.505
  108SOL    HW2  462   2.313   2.362   0.441
  108SOL    HW3  463   2.257   2.374   0.581
  108SOL    MW4  464   2.266   2.329   0.507
  109SOL     OW  465   1.735   3.216   0.440
  109SOL    HW2  466   1.667   3.272   0.402
  109SOL    HW3  467   1.817   3.256   0.414
  109SOL    MW4  468   1.737   3.229   0.432
  110SOL     OW  469   1.034   2.840   0.479
  110SOL    HW2  470   0.946   2.862   0.449
  110SOL    HW3  471   1.037   2.744   0.474
  110SOL    MW4  472   1.023   2.830   0.474
  111SOL     OW  473   1.547   3.407   0.386
  111SOL    HW2  474   1.530   3.412   0.292
  111SOL    HW3  475   1.546   3.498   0.416
  111SOL    MW4  476   1.545   3.420   0.378
  112SOL     OW  477   1.123   1.963   0.497
  112SOL    HW2  478   1.124   2.015   0.578
  112SOL    HW3  479   1.206   1.915   0.499
  112SOL    MW4  480   1.134   1.964   0.508
  113SOL     OW  481   3.810   1.672   0.324
  113SOL    HW2  482   3.764   1.719   0.393
  113SOL    HW3  483   3.786   1.580   0.338
  113SOL    MW4  484   3.801   1.666   0.335
  114SOL     OW  485   1.798   2.385   0.502
  114SOL    HW2  486   1.865   2.322   0.476
  114SOL    HW3  487   1.832   2.470   0.475
  114SOL    MW4  488   1.811   2.388   0.495
  115SOL     OW  489   1.225   2.404   0.416
  115SOL    HW2  490   1.311   2.383   0.453
  115SOL    HW3  491   1.242   2.425   0.324
  115SOL    MW4  492   1.238   2.404   0.409
  116SOL     OW  493   1.240   3.294   0.461
  116SOL    HW2  494   1.321   3.328   0.423
  116SOL    HW3  495   1.223   3.214   0.411
  116SOL    MW4  496   1.248   3.288   0.449
  117SOL     OW  497   2.238   3.203   0.516
  117SOL    HW2  498   2.242   3.108   0.507
  117SOL    HW3  499   2.251   3.219   0.609
  117SOL    MW4  500   2.240   3.193   0.527
  118SOL     OW  501   1.753   4.235   0.378
  118SOL    HW2  502   1.711   4.159   0.417
  118SOL    HW3  503   1.846   4.223   0.396
  118SOL    MW4  504   1.760   4.223   0.385
  119SOL     OW  505   1.573   3.691   0.454
  119SOL    HW2  506   1.517   3.754   0.408
  119SOL    HW3  507   1.653   3.741   0.472
  119SOL    MW4  508   1.576   3.706   0.450
  120SOL     OW  509   1.526   4.386   0.452
  120SOL    HW2  510   1.523   4.365   0.546
  120SOL    HW3  511   1.599   4.334   0.418
  120SOL    MW4  512   1.536   4.377   0.460
  121SOL     OW  513   1.577   4.657   0.434
  121SOL    HW2  514   1.511   4.719   0.402
  121SOL    HW3  515   1.527   4.578   0.456
  121SOL    MW4  516   1.561   4.655   0.433
  122SOL     OW  517   2.279   0.152   0.711
  122SOL    HW2  518   2.354   0.105   0.749
  122SOL    HW3  519   2.204   0.095   0.727
  122SOL    MW4  520   2.279   0.138   0.718
  123SOL     OW  521   2.257   0.349   0.487
  123SOL    HW2  522   2.269   0.280   0.552
  123SOL    HW3  523   2.187   0.317   0.430
  123SOL    MW4  524   2.249   0.336   0.488
  124SOL     OW  525   2.865   1.498   0.436
  124SOL    HW2  526   2.778   1.527   0.464
  124SOL    HW3  527   2.863   1.403   0.446
  124SOL    MW4  528   2.853   1.489   0.441
  125SOL     OW  529   2.919   0.505   0.455
  125SOL    HW2  530   2.845   0.567   0.455
  125SOL    HW3  531   2.996   0.560   0.443
  125SOL    MW4  532   2.919   0.521   0.454
  126SOL     OW  533   2.222   1.000   0.469
  126SOL    HW2  534   2.170   1.080   0.464
  126SOL    HW3  535   2.161   0.931   0.443
  126SOL    MW4  536   2.207   1.001   0.465
  127SOL     OW  537   2.826   1.233   0.474
  127SOL    HW2  538   2.859   1.154   0.432
  127SOL    HW3  539   2.844   1.221   0.567
  127SOL    MW4  540   2.833   1.221   0.480
  128SOL     OW  541   2.621   1.638   0.538
  128SOL    HW2  542   2.672   1.716   0.518
  128SOL    HW3  543   2.622   1.632   0.634
  128SOL    MW4  544   2.628   1.647   0.548
  129SOL     OW  545   3.068   1.864   0.441
  129SOL    HW2  546   3.069   1.924   0.516
  129SOL    HW3  547   3.160   1.855   0.417
  129SOL    MW4  548   3.080   1.870   0.448
  130SOL     OW  549   3.091   4.472   0.453
  130SOL    HW2  550   3.118   4.563   0.464
  130SOL    HW3  551   3.043   4.451   0.534
  130SOL    MW4  552   3.088   4.481   0.465
  131SOL     OW  553   2.038   1.982   0.561
  131SOL    HW2  554   2.039   1.996   0.656
  131SOL    HW3  555   2.125   1.948   0.542
  131SOL    MW4  556   2.050   1.979   0.571
  132SOL     OW  557   1.545   1.548   0.649
  132SOL    HW2  558   1.604   1.582   0.715
  132SOL    HW3  559   1.460   1.586   0.670
  132SOL    MW4  560   1.542   1.558   0.660
  133SOL     OW  561   2.425   2.079   0.581
  133SOL    HW2  562   2.372   2.158   0.586
  133SOL    HW3  563   2.510   2.108   0.546
  133SOL    MW4  564   2.429   2.093   0.577
  134SOL     OW  565   2.685   2.088   0.467
  134SOL    HW2  566   2.710   2.000   0.441
  134SOL    HW3  567   2.736   2.106   0.547
  134SOL    MW4  568   2.695   2.079   0.474
  135SOL     OW  569   2.495   2.789   0.493
  135SOL    HW2  570   2.561   2.846   0.454
  135SOL    HW3  571   2.510   2.797   0.587
  135SOL    MW4  572   2.506   2.798   0.500
  136SOL     OW  573   1.622   2.230   0.345
  136SOL    HW2  574   1.678   2.165   0.302
  136SOL    HW3  575   1.684   2.293   0.383
  136SOL    MW4  576   1.638   2.230   0.344
  137SOL     OW  577   1.916   2.660   0.448
  137SOL    HW2  578   1.941   2.702   0.531
  137SOL    HW3  579   1.998   2.653   0.399
  137SOL    MW4  580   1.930   2.665   0.453
  138SOL     OW  581   2.275   4.017   0.511
  138SOL    HW2  582   2.334   4.064   0.451
  138SOL    HW3  583   2.302   3.925   0.504
  138SOL    MW4  584   2.286   4.011   0.502
  139SOL     OW  585   2.524   4.126   0.185
  139SOL    HW2  586   2.551   4.034   0.191
  139SOL    HW3  587   2.605   4.173   0.167
  139SOL    MW4  588   2.538   4.120   0.183
  140SOL     OW  589   1.822   3.809   0.471
  140SOL    HW2  590   1.836   3.892   0.424
  140SOL    HW3  591   1.904   3.761   0.460
  140SOL    MW4  592   1.834   3.814   0.463
  141SOL     OW  593   1.996   3.303   0.398
  141SOL    HW2  594   1.996   3.258   0.314
  141SOL    HW3  595   2.076   3.273   0.442
  141SOL    MW4  596   2.006   3.293   0.393
  142SOL     OW  597   2.241   4.420   0.448
  142SOL    HW2  598   2.163   4.471   0.427
  142SOL    HW3  599   2.294   4.479   0.502
  142SOL    MW4  600   2.238   4.435   0.452
  143SOL     OW  601   2.046   4.204   0.478
  143SOL    HW2  602   2.105   4.129   0.486
  143SOL    HW3  603   2.104   4.278   0.459
  143SOL    MW4  604   2.061   4.204   0.477
  144SOL     OW  605   3.159   0.090   0.490
  144SOL    HW2  606   3.085   0.136   0.451
  144SOL    HW3  607   3.149   0.105   0.584
  144SOL    MW4  608   3.148   0.098   0.498
  145SOL     OW  609   2.569   3.858   0.277
  145SOL    HW2  610   2.613   3.778   0.250
  145SOL    HW3  611   2.484   3.828   0.311
  145SOL    MW4  612   2.563   3.844   0.278
  146SOL     OW  613   2.452   4.237   0.427
  146SOL    HW2  614   2.375   4.291   0.410
  146SOL    HW3  615   2.477   4.202   0.341
  146SOL    MW4  616   2.445   4.240   0.413
  147SOL     OW  617   2.552   0.393   0.457
  147SOL    HW2  618   2.577   0.464   0.399
  147SOL    HW3  619   2.464   0.368   0.428
  147SOL    MW4  620   2.543   0.399   0.445
  148SOL     OW  621   1.696   0.431   0.373
  148SOL    HW2  622   1.610   0.455   0.406
  148SOL    HW3  623   1.721   0.353   0.422
  148SOL    MW4  624   1.688   0.424   0.384
  149SOL     OW  625   3.149   0.670   0.436
  149SOL    HW2  626   3.166   0.764   0.427
  149SOL    HW3  627   3.232   0.632   0.464
  149SOL    MW4  628   3.162   0.677   0.438
  150SOL     OW  629   2.322   1.636   0.530
  150SOL    HW2  630   2.306   1.714   0.477
  150SOL    HW3  631   2.415   1.642   0.553
  150SOL    MW4  632   2.332   1.647   0.526
  151SOL     OW  633   2.752   0.731   0.476
  151SOL    HW2  634   2.785   0.812   0.438
  151SOL    HW3  635   2.659   0.728   0.451
  151SOL    MW4  636   2.744   0.741   0.468
  152SOL     OW  637   3.093   1.601   0.553
  152SOL    HW2  638   3.020   1.555   0.513
  152SOL    HW3  639   3.081   1.692   0.526
  152SOL    MW4  640   3.082   1.607   0.544
  153SOL     OW  641   3.464   1.320   0.370
  153SOL    HW2  642   3.459   1.249   0.434
  153SOL    HW3  643   3.418   1.288   0.294
  153SOL    MW4  644   3.457   1.307   0.369
  154SOL     OW  645   3.734   1.424   0.422
  154SOL    HW2  646   3.651   1.395   0.385
  154SOL    HW3  647   3.710   1.471   0.502
  154SOL    MW4  648   3.720   1.426   0.428
  155SOL     OW  649   2.709   0.103   0.801
  155SOL    HW2  650   2.709   0.195   0.828
  155SOL    HW3  651   2.707   0.107   0.705
  155SOL    MW4  652   2.709   0.116   0.792
  156SOL     OW  653   3.067   2.037   0.650
  156SOL    HW2  654   2.978   2.059   0.678
  156SOL    HW3  655   3.101   1.981   0.720
  156SOL    MW4  656   3.060   2.032   0.663
  157SOL     OW  657   2.751   2.386   0.453
  157SOL    HW2  658   2.843   2.411   0.445
  157SOL    HW3  659   2.749   2.292   0.434
  157SOL    MW4  660   2.763   2.377   0.449
  158SOL     OW  661   2.813   1.816   0.384
  158SOL    HW2  662   2.904   1.837   0.407
  158SOL    HW3  663   2.819   1.732   0.339
  158SOL    MW4  664   2.826   1.808   0.381
  159SOL     OW  665   2.439   2.507   0.380
  159SOL    HW2  666   2.432   2.588   0.430
  159SOL    HW3  667   2.532   2.485   0.382
  159SOL    MW4  668   2.450   2.515   0.387
  160SOL     OW  669   2.693   2.944   0.340
  160SOL    HW2  670   2.697   2.930   0.245
  160SOL    HW3  671   2.741   3.026   0.354
  160SOL    MW4  672   2.700   2.953   0.329
  161SOL     OW  673   2.873   3.170   0.457
  161SOL    HW2  674   2.856   3.182   0.551
  161SOL    HW3  675   2.967   3.185   0.449
  161SOL    MW4  676   2.883   3.173   0.469
  162SOL     OW  677   3.173   3.184   0.485
  162SOL    HW2  678   3.167   3.088   0.486
  162SOL    HW3  679   3.146   3.210   0.573
  162SOL    MW4  680   3.169   3.175   0.497
  163SOL     OW  681   2.482   3.327   0.489
  163SOL    HW2  682   2.533   3.275   0.551
  163SOL    HW3  683   2.401   3.278   0.478
  163SOL    MW4  684   2.478   3.314   0.496
  164SOL     OW  685   1.596   4.026   0.496
  164SOL    HW2  686   1.537   4.056   0.427
  164SOL    HW3  687   1.542   3.970   0.551
  164SOL    MW4  688   1.581   4.023   0.494
  165SOL     OW  689   3.043   3.876   0.343
  165SOL    HW2  690   3.035   3.953   0.400
  165SOL    HW3  691   3.050   3.912   0.255
  165SOL    MW4  692   3.043   3.891   0.339
  166SOL     OW  693   2.682   3.606   0.349
  166SOL    HW2  694   2.608   3.602   0.409
  166SOL    HW3  695   2.700   3.515   0.326
  166SOL    MW4  696   2.674   3.594   0.354
  167SOL     OW  697   2.489   3.597   0.550
  167SOL    HW2  698   2.496   3.602   0.646
  167SOL    HW3  699   2.488   3.504   0.530
  167SOL    MW4  700   2.490   3.585   0.560
  168SOL     OW  701   3.066   4.117   0.126
  168SOL    HW2  702   3.142   4.147   0.177
  168SOL    HW3  703   3.093   4.126   0.035
  168SOL    MW4  704   3.080   4.122   0.121
  169SOL     OW  705   3.222   4.217   0.325
  169SOL    HW2  706   3.162   4.167   0.381
  169SOL    HW3  707   3.197   4.308   0.340
  169SOL    MW4  708   3.211   4.222   0.335
  170SOL     OW  709   3.397   0.209   0.373
  170SOL    HW2  710   3.314   0.178   0.410
  170SOL    HW3  711   3.463   0.151   0.409
  170SOL    MW4  712   3.395   0.197   0.383
  171SOL     OW  713   2.900   4.504   0.252
  171SOL    HW2  714   2.937   4.511   0.164
  171SOL    HW3  715   2.976   4.482   0.308
  171SOL    MW4  716   2.915   4.502   0.248
  172SOL     OW  717   2.758   4.191   0.456
  172SOL    HW2  718   2.734   4.098   0.453
  172SOL    HW3  719   2.776   4.213   0.364
  172SOL    MW4  720   2.757   4.182   0.443
  173SOL     OW  721   2.715   0.139   0.514
  173SOL    HW2  722   2.674   0.225   0.510
  173SOL    HW3  723   2.799   0.150   0.469
  173SOL    MW4  724   2.721   0.152   0.508
  174SOL     OW  725   3.185   0.934   0.500
  174SOL    HW2  726   3.166   0.910   0.591
  174SOL    HW3  727   3.266   0.983   0.505
  174SOL    MW4  728   3.193   0.937   0.513
  175SOL     OW  729   3.406   0.494   0.479
  175SOL    HW2  730   3.402   0.404   0.447
  175SOL    HW3  731   3.484   0.530   0.438
  175SOL    MW4  732   3.415   0.487   0.469
  176SOL     OW  733   3.655   0.894   0.497
  176SOL    HW2  734   3.627   0.812   0.456
  176SOL    HW3  735   3.634   0.882   0.590
  176SOL    MW4  736   3.648   0.881   0.504
  177SOL     OW  737   2.942   0.230   0.376
  177SOL    HW2  738   2.904   0.220   0.289
  177SOL    HW3  739   2.926   0.322   0.398
  177SOL    MW4  740   2.934   0.241   0.368
  178SOL     OW  741   3.416   1.785   0.742
  178SOL    HW2  742   3.388   1.782   0.650
  178SOL    HW3  743   3.342   1.826   0.788
  178SOL    MW4  744   3.402   1.790   0.736
  179SOL     OW  745   3.391   1.811   0.435
  179SOL    HW2  746   3.403   1.716   0.436
  179SOL    HW3  747   3.479   1.846   0.450
  179SOL    MW4  748   3.404   1.803   0.437
  180SOL     OW  749   3.431   1.097   0.552
  180SOL    HW2  750   3.406   1.135   0.637
  180SOL    HW3  751   3.516   1.057   0.568
  180SOL    MW4  752   3.439   1.097   0.565
  181SOL     OW  753   3.920   1.911   0.212
  181SOL    HW2  754   3.946   1.916   0.120
  181SOL    HW3  755   3.885   1.823   0.223
  181SOL    MW4  756   3.919   1.900   0.202
  182SOL     OW  757   3.260   2.251   0.658
  182SOL    HW2  758   3.196   2.181   0.674
  182SOL    HW3  759   3.335   2.228   0.712
  182SOL    MW4  760   3.261   2.239   0.667
  183SOL     OW  761   3.491   2.681   0.637
  183SOL    HW2  762   3.529   2.658   0.722
  183SOL    HW3  763   3.446   2.602   0.609
  183SOL    MW4  764   3.490   2.668   0.645
  184SOL     OW  765   2.237   2.926   0.489
  184SOL    HW2  766   2.324   2.886   0.494
  184SOL    HW3  767   2.181   2.866   0.539
  184SOL    MW4  768   2.241   2.913   0.496
  185SOL     OW  769   3.253   2.691   0.365
  185SOL    HW2  770   3.310   2.692   0.287
  185SOL    HW3  771   3.292   2.625   0.422
  185SOL    MW4  772   3.266   2.682   0.362
  186SOL     OW  773   2.834   2.833   0.775
  186SOL    HW2  774   2.851   2.821   0.682
  186SOL    HW3  775   2.914   2.801   0.818
  186SOL    MW4  776   2.847   2.827   0.769
  187SOL     OW  777   3.602   0.378   0.264
  187SOL    HW2  778   3.674   0.321   0.291
  187SOL    HW3  779   3.524   0.322   0.267
  187SOL    MW4  780   3.601   0.363   0.268
  188SOL     OW  781   3.041   4.104   0.500
  188SOL    HW2  782   2.954   4.145   0.502
  188SOL    HW3  783   3.059   4.081   0.591
  188SOL    MW4  784   3.032   4.106   0.512
  189SOL     OW  785   3.345   3.569   0.661
  189SOL    HW2  786   3.353   3.513   0.584
  189SOL    HW3  787   3.283   3.523   0.718
  189SOL    MW4  788   3.338   3.556   0.659
  190SOL     OW  789   3.663   3.461   0.452
  190SOL    HW2  790   3.679   3.513   0.373
  190SOL    HW3  791   3.657   3.526   0.522
  190SOL    MW4  792   3.665   3.477   0.451
  191SOL     OW  793   3.374   3.396   0.441
  191SOL    HW2  794   3.459   3.361   0.413
  191SOL    HW3  795   3.317   3.320   0.447
  191SOL    MW4  796   3.378   3.382   0.438
  192SOL     OW  797   2.698   3.908   0.516
  192SOL    HW2  798   2.754   3.831   0.528
  192SOL    HW3  799   2.647   3.889   0.438
  192SOL    MW4  800   2.699   3.895   0.507
  193SOL     OW  801   2.722   3.349   0.307
  193SOL    HW2  802   2.774   3.280   0.349
  193SOL    HW3  803   2.631   3.322   0.319
  193SOL    MW4  804   2.717   3.336   0.314
  194SOL     OW  805   4.273   0.012   0.363
  194SOL    HW2  806   4.263  -0.023   0.275
  194SOL    HW3  807   4.306  -0.061   0.415
  194SOL    MW4  808   4.276  -0.002   0.358
  195SOL     OW  809   3.810   0.239   0.433
  195SOL    HW2  810   3.837   0.331   0.439
  195SOL    HW3  811   3.892   0.191   0.421
  195SOL    MW4  812   3.824   0.245   0.432
  196SOL     OW  813   3.649   0.655   0.328
  196SOL    HW2  814   3.629   0.595   0.256
  196SOL    HW3  815   3.719   0.710   0.295
  196SOL    MW4  816   3.656   0.654   0.314
  197SOL     OW  817   3.880   0.788   0.250
  197SOL    HW2  818   3.897   0.881   0.266
  197SOL    HW3  819   3.964   0.745   0.268
  197SOL    MW4  820   3.894   0.794   0.255
  198SOL     OW  821   4.102   0.640   0.414
  198SOL    HW2  822   4.176   0.579   0.411
  198SOL    HW3  823   4.027   0.586   0.438
  198SOL    MW4  824   4.102   0.625   0.417
  199SOL     OW  825   4.448   0.885   0.519
  199SOL    HW2  826   4.353   0.890   0.521
  199SOL    HW3  827   4.467   0.803   0.473
  199SOL    MW4  828   4.438   0.874   0.513
  200SOL     OW  829   3.931   1.008   0.411
  200SOL    HW2  830   3.921   1.089   0.462
  200SOL    HW3  831   3.849   0.961   0.425
  200SOL    MW4  832   3.918   1.012   0.419
  201SOL     OW  833   4.096   1.620   0.512
  201SOL    HW2  834   4.023   1.643   0.455
  201SOL    HW3  835   4.168   1.675   0.483
  201SOL    MW4  836   4.096   1.630   0.501
  202SOL     OW  837   3.932   1.267   0.525
  202SOL    HW2  838   4.021   1.302   0.516
  202SOL    HW3  839   3.877   1.332   0.482
  202SOL    MW4  840   3.937   1.280   0.519
  203SOL     OW  841   3.374   1.545   0.524
  203SOL    HW2  842   3.279   1.549   0.522
  203SOL    HW3  843   3.396   1.473   0.465
  203SOL    MW4  844   3.364   1.536   0.516
  204SOL     OW  845   2.915   0.953   0.382
  204SOL    HW2  846   2.934   0.930   0.291
  204SOL    HW3  847   2.997   0.938   0.428
  204SOL    MW4  848   2.928   0.948   0.376
  205SOL     OW  849   3.630   2.400   0.424
  205SOL    HW2  850   3.678   2.347   0.359
  205SOL    HW3  851   3.674   2.381   0.507
  205SOL    MW4  852   3.642   2.390   0.426
  206SOL     OW  853   4.131   2.815   0.473
  206SOL    HW2  854   4.105   2.723   0.460
  206SOL    HW3  855   4.049   2.862   0.481
  206SOL    MW4  856   4.117   2.809   0.472
  207SOL     OW  857   2.982   2.546   0.433
  207SOL    HW2  858   3.029   2.517   0.512
  207SOL    HW3  859   3.047   2.539   0.364
  207SOL    MW4  860   2.997   2.541   0.435
  208SOL     OW  861   2.899   3.707   0.495
  208SOL    HW2  862   2.950   3.762   0.435
  208SOL    HW3  863   2.843   3.655   0.438
  208SOL    MW4  864   2.898   3.708   0.479
  209SOL     OW  865   3.142   2.907   0.512
  209SOL    HW2  866   3.191   2.855   0.449
  209SOL    HW3  867   3.053   2.870   0.510
  209SOL    MW4  868   3.137   2.895   0.504
  210SOL     OW  869   3.858   2.916   0.545
  210SOL    HW2  870   3.813   2.856   0.486
  210SOL    HW3  871   3.809   2.998   0.538
  210SOL    MW4  872   3.846   2.919   0.536
  211SOL     OW  873   3.714   2.702   0.452
  211SOL    HW2  874   3.713   2.612   0.417
  211SOL    HW3  875   3.634   2.708   0.504
  211SOL    MW4  876   3.703   2.691   0.454
  212SOL     OW  877   3.891   3.947   0.497
  212SOL    HW2  878   3.824   3.881   0.513
  212SOL    HW3  879   3.968   3.897   0.469
  212SOL    MW4  880   3.892   3.932   0.495
  213SOL     OW  881   3.367   2.466   0.496
  213SOL    HW2  882   3.339   2.386   0.540
  213SOL    HW3  883   3.451   2.444   0.457
  213SOL    MW4  884   3.374   2.453   0.497
  214SOL     OW  885   3.276   3.823   0.577
  214SOL    HW2  886   3.284   3.728   0.593
  214SOL    HW3  887   3.206   3.830   0.512
  214SOL    MW4  888   3.267   3.811   0.571
  215SOL     OW  889   4.425   3.813   0.653
  215SOL    HW2  890   4.478   3.740   0.684
  215SOL    HW3  891   4.345   3.808   0.705
  215SOL    MW4  892   4.421   3.803   0.664
  216SOL     OW  893   3.446   4.209   0.485
  216SOL    HW2  894   3.371   4.188   0.429
  216SOL    HW3  895   3.452   4.134   0.545
  216SOL    MW4  896   3.437   4.196   0.486
  217SOL     OW  897   3.591   4.459   0.410
  217SOL    HW2  898   3.532   4.395   0.450
  217SOL    HW3  899   3.597   4.431   0.319
  217SOL    MW4  900   3.584   4.447   0.403
  218SOL     OW  901   4.462   0.217   0.457
  218SOL    HW2  902   4.416   0.152   0.404
  218SOL    HW3  903   4.470   0.177   0.543
  218SOL    MW4  904   4.457   0.203   0.461
  219SOL     OW  905   4.165   0.900   0.544
  219SOL    HW2  906   4.105   0.950   0.488
  219SOL    HW3  907   4.158   0.810   0.512
  219SOL    MW4  908   4.156   0.894   0.532
  220SOL     OW  909   0.382   1.718   0.424
  220SOL    HW2  910   0.328   1.646   0.391
  220SOL    HW3  911   0.322   1.791   0.433
  220SOL    MW4  912   0.367   1.718   0.421
  221SOL     OW  913   4.321   0.466   0.426
  221SOL    HW2  914   4.361   0.379   0.425
  221SOL    HW3  915   4.394   0.526   0.408
  221SOL    MW4  916   4.336   0.462   0.423
  222SOL     OW  917   0.109   1.100   0.410
  222SOL    HW2  918   0.043   1.046   0.454
  222SOL    HW3  919   0.057   1.167   0.364
  222SOL    MW4  920   0.093   1.102   0.410
  223SOL     OW  921   3.599   0.064   0.494
  223SOL    HW2  922   3.622  -0.020   0.453
  223SOL    HW3  923   3.672   0.122   0.472
  223SOL    MW4  924   3.612   0.060   0.486
  224SOL     OW  925   4.186   1.336   0.470
  224SOL    HW2  926   4.166   1.430   0.467
  224SOL    HW3  927   4.201   1.318   0.563
  224SOL    MW4  928   4.186   1.346   0.482
  225SOL     OW  929   4.406   1.286   0.327
  225SOL    HW2  930   4.320   1.300   0.366
  225SOL    HW3  931   4.390   1.284   0.233
  225SOL    MW4  932   4.393   1.288   0.320
  226SOL     OW  933   4.030   2.323   0.299
  226SOL    HW2  934   4.029   2.255   0.366
  226SOL    HW3  935   4.047   2.404   0.348
  226SOL    MW4  936   4.032   2.325   0.315
  227SOL     OW  937   4.310   1.774   0.481
  227SOL    HW2  938   4.297   1.868   0.484
  227SOL    HW3  939   4.355   1.753   0.564
  227SOL    MW4  940   4.314   1.783   0.493
  228SOL     OW  941   4.313   2.229   0.343
  228SOL    HW2  942   4.338   2.317   0.370
  228SOL    HW3  943   4.239   2.243   0.284
  228SOL    MW4  944   4.307   2.242   0.339
  229SOL     OW  945   4.246   2.039   0.530
  229SOL    HW2  946   4.154   2.044   0.505
  229SOL    HW3  947   4.289   2.107   0.478
  229SOL    MW4  948   4.240   2.049   0.520
  230SOL     OW  949   4.383   2.469   0.484
  230SOL    HW2  950   4.432   2.549   0.465
  230SOL    HW3  951   4.411   2.445   0.572
  230SOL    MW4  952   4.393   2.477   0.493
  231SOL     OW  953   4.222   3.532   0.455
  231SOL    HW2  954   4.310   3.540   0.418
  231SOL    HW3  955   4.193   3.445   0.427
  231SOL    MW4  956   4.230   3.522   0.447
  232SOL     OW  957   4.117   2.538   0.473
  232SOL    HW2  958   4.089   2.507   0.559
  232SOL    HW3  959   4.211   2.524   0.472
  232SOL    MW4  960   4.125   2.532   0.484
  233SOL     OW  961   0.266   3.859   0.383
  233SOL    HW2  962   0.249   3.950   0.408
  233SOL    HW3  963   0.356   3.860   0.350
  233SOL    MW4  964   0.276   3.871   0.382
  234SOL     OW  965   4.468   3.580   0.347
  234SOL    HW2  966   4.470   3.649   0.280
  234SOL    HW3  967   4.512   3.619   0.423
  234SOL    MW4  968   4.474   3.594   0.348
  235SOL     OW  969   0.094   3.329   0.341
  235SOL    HW2  970   0.187   3.342   0.361
  235SOL    HW3  971   0.062   3.417   0.320
  235SOL    MW4  972   0.102   3.343   0.341
  236SOL     OW  973   3.687   3.768   0.560
  236SOL    HW2  974   3.622   3.835   0.582
  236SOL    HW3  975   3.715   3.733   0.644
  236SOL    MW4  976   3.682   3.772   0.574
  237SOL     OW  977   3.755   3.206   0.559
  237SOL    HW2  978   3.730   3.283   0.508
  237SOL    HW3  979   3.837   3.232   0.602
  237SOL    MW4  980   3.762   3.220   0.558
  238SOL     OW  981   0.181   4.096   0.504
  238SOL    HW2  982   0.156   4.095   0.596
  238SOL    HW3  983   0.099   4.108   0.456
  238SOL    MW4  984   0.167   4.097   0.510
  239SOL     OW  985   4.004   4.213   0.449
  239SOL    HW2  986   3.938   4.145   0.434
  239SOL    HW3  987   3.954   4.294   0.456
  239SOL    MW4  988   3.989   4.215   0.448
  240SOL     OW  989   4.255   4.146   0.554
  240SOL    HW2  990   4.267   4.193   0.637
  240SOL    HW3  991   4.168   4.171   0.525
  240SOL    MW4  992   4.245   4.156   0.561
  241SOL     OW  993   3.874   4.460   0.468
  241SOL    HW2  994   3.871   4.462   0.564
  241SOL    HW3  995   3.784   4.443   0.441
  241SOL    MW4  996   3.862   4.458   0.477
  242SOL     OW  997   0.231   0.051   0.842
  242SOL    HW2  998   0.234  -0.039   0.809
  242SOL    HW3  999   0.143   0.081   0.821
  242SOL    MW4 1000   0.219   0.043   0.835
  243SOL     OW 1001   4.463   0.105   0.735
  243SOL    HW2 1002   4.388   0.063   0.777
  243SOL    HW3 1003   4.463   0.194   0.771
  243SOL    MW4 1004   4.453   0.111   0.746
  244SOL     OW 1005   0.027   0.364   0.811
  244SOL    HW2 1006   0.033   0.368   0.906
  244SOL    HW3 1007   0.103   0.413   0.780
  244SOL    MW4 1008   0.038   0.371   0.819
  245SOL     OW 1009   0.240   0.520   0.708
  245SOL    HW2 1010   0.315   0.475   0.746
  245SOL    HW3 1011   0.237   0.604   0.753
  245SOL    MW4 1012   0.249   0.525   0.719
  246SOL     OW 1013   0.256   0.765   0.821
  246SOL    HW2 1014   0.265   0.754   0.916
  246SOL    HW3 1015   0.183   0.826   0.811
  246SOL    MW4 1016   0.248   0.772   0.832
  247SOL     OW 1017   4.489   0.878   0.810
  247SOL    HW2 1018   4.407   0.858   0.854
  247SOL    HW3 1019   4.480   0.841   0.722
  247SOL    MW4 1020   4.477   0.871   0.804
  248SOL     OW 1021   4.487   1.160   0.847
  248SOL    HW2 1022   4.525   1.170   0.935
  248SOL    HW3 1023   4.485   1.066   0.832
  248SOL    MW4 1024   4.492   1.149   0.857
  249SOL     OW 1025   0.197   1.293   0.722
  249SOL    HW2 1026   0.133   1.234   0.762
  249SOL    HW3 1027   0.239   1.240   0.654
  249SOL    MW4 1028   0.194   1.278   0.718
  250SOL     OW 1029   0.195   1.574   0.806
  250SOL    HW2 1030   0.281   1.585   0.765
  250SOL    HW3 1031   0.166   1.487   0.777
  250SOL    MW4 1032   0.202   1.564   0.797
  251SOL     OW 1033   4.426   1.699   0.736
  251SOL    HW2 1034   4.362   1.644   0.782
  251SOL    HW3 1035   4.509   1.653   0.746
  251SOL    MW4 1036   4.428   1.686   0.744
  252SOL     OW 1037   4.487   1.929   0.890
  252SOL    HW2 1038   4.568   1.961   0.850
  252SOL    HW3 1039   4.467   1.848   0.842
  252SOL    MW4 1040   4.495   1.922   0.879
  253SOL     OW 1041   0.222   2.016   0.732
  253SOL    HW2 1042   0.201   2.107   0.751
  253SOL    HW3 1043   0.219   2.009   0.637
  253SOL    MW4 1044   0.219   2.027   0.722
  254SOL     OW 1045   0.154   2.284   0.840
  254SOL    HW2 1046   0.158   2.285   0.935
  254SOL    HW3 1047   0.234   2.329   0.812
  254SOL    MW4 1048   0.165   2.290   0.849
  255SOL     OW 1049   4.419   2.425   0.748
  255SOL    HW2 1050   4.341   2.406   0.801
  255SOL    HW3 1051   4.487   2.368   0.784
  255SOL    MW4 1052   4.417   2.415   0.760
  256SOL     OW 1053   4.409   2.686   0.820
  256SOL    HW2 1054   4.430   2.695   0.913
  256SOL    HW3 1055   4.420   2.593   0.803
  256SOL    MW4 1056   4.413   2.675   0.830
  257SOL     OW 1057   0.164   2.807   0.731
  257SOL    HW2 1058   0.083   2.766   0.761
  257SOL    HW3 1059   0.156   2.807   0.636
  257SOL    MW4 1060   0.152   2.802   0.723
  258SOL     OW 1061   0.191   3.097   0.816
  258SOL    HW2 1062   0.215   3.098   0.908
  258SOL    HW3 1063   0.179   3.004   0.795
  258SOL    MW4 1064   0.193   3.085   0.825
  259SOL     OW 1065   4.434   3.214   0.758
  259SOL    HW2 1066   4.512   3.169   0.791
  259SOL    HW3 1067   4.445   3.215   0.663
  259SOL    MW4 1068   4.446   3.208   0.750
  260SOL     OW 1069   4.484   3.481   0.824
  260SOL    HW2 1070   4.402   3.519   0.793
  260SOL    HW3 1071   4.484   3.391   0.789
  260SOL    MW4 1072   4.473   3.474   0.815
  261SOL     OW 1073   0.215   3.637   0.794
  261SOL    HW2 1074   0.143   3.577   0.814
  261SOL    HW3 1075   0.209   3.651   0.700
  261SOL    MW4 1076   0.205   3.631   0.784
  262SOL     OW 1077   0.255   3.888   0.886
  262SOL    HW2 1078   0.249   3.893   0.982
  262SOL    HW3 1079   0.239   3.796   0.866
  262SOL    MW4 1080   0.252   3.876   0.896
  263SOL     OW 1081   0.085   4.057   0.752
  263SOL    HW2 1082   0.017   3.996   0.720
  263SOL    HW3 1083   0.148   4.001   0.796
  263SOL    MW4 1084   0.084   4.041   0.753
  264SOL     OW 1085   0.028   4.299   0.868
  264SOL    HW2 1086   0.011   4.283   0.961
  264SOL    HW3 1087   0.044   4.212   0.831
  264SOL    MW4 1088   0.028   4.286   0.875
  265SOL     OW 1089   0.210   4.457   0.763
  265SOL    HW2 1090   0.140   4.407   0.805
  265SOL    HW3 1091   0.203   4.435   0.670
  265SOL    MW4 1092   0.200   4.447   0.756
  266SOL     OW 1093   0.690   0.026   0.804
  266SOL    HW2 1094   0.684   0.045   0.898
  266SOL    HW3 1095   0.610   0.065   0.767
  266SOL    MW4 1096   0.678   0.034   0.811
  267SOL     OW 1097   0.458   0.145   0.699
  267SOL    HW2 1098   0.379   0.101   0.729
  267SOL    HW3 1099   0.451   0.143   0.603
  267SOL    MW4 1100   0.447   0.139   0.690
  268SOL     OW 1101   0.459   0.385   0.820
  268SOL    HW2 1102   0.542   0.423   0.791
  268SOL    HW3 1103   0.453   0.302   0.773
  268SOL    MW4 1104   0.469   0.379   0.810
  269SOL     OW 1105   0.708   0.493   0.769
  269SOL    HW2 1106   0.774   0.433   0.805
  269SOL    HW3 1107   0.719   0.485   0.674
  269SOL    MW4 1108   0.718   0.484   0.761
  270SOL     OW 1109   0.700   0.753   0.855
  270SOL    HW2 1110   0.631   0.808   0.820
  270SOL    HW3 1111   0.678   0.665   0.824
  270SOL    MW4 1112   0.688   0.749   0.846
  271SOL     OW 1113   0.493   0.910   0.750
  271SOL    HW2 1114   0.478   1.004   0.762
  271SOL    HW3 1115   0.408   0.870   0.768
  271SOL    MW4 1116   0.479   0.917   0.754
  272SOL     OW 1117   0.451   1.184   0.834
  272SOL    HW2 1118   0.524   1.241   0.810
  272SOL    HW3 1119   0.374   1.223   0.793
  272SOL    MW4 1120   0.451   1.197   0.825
  273SOL     OW 1121   0.682   1.299   0.748
  273SOL    HW2 1122   0.688   1.381   0.797
  273SOL    HW3 1123   0.713   1.322   0.660
  273SOL    MW4 1124   0.687   1.313   0.743
  274SOL     OW 1125   0.704   1.571   0.797
  274SOL    HW2 1126   0.669   1.573   0.886
  274SOL    HW3 1127   0.628   1.589   0.741
  274SOL    MW4 1128   0.689   1.574   0.801
  275SOL     OW 1129   0.456   1.633   0.693
  275SOL    HW2 1130   0.450   1.710   0.750
  275SOL    HW3 1131   0.417   1.661   0.610
  275SOL    MW4 1132   0.450   1.647   0.689
  276SOL     OW 1133   0.427   1.869   0.826
  276SOL    HW2 1134   0.419   1.884   0.920
  276SOL    HW3 1135   0.357   1.922   0.787
  276SOL    MW4 1136   0.416   1.878   0.833
  277SOL     OW 1137   0.607   2.061   0.769
  277SOL    HW2 1138   0.553   1.990   0.805
  277SOL    HW3 1139   0.566   2.083   0.686
  277SOL    MW4 1140   0.595   2.054   0.763
  278SOL     OW 1141   0.616   2.335   0.849
  278SOL    HW2 1142   0.627   2.326   0.944
  278SOL    HW3 1143   0.616   2.245   0.816
  278SOL    MW4 1144   0.618   2.322   0.857
  279SOL     OW 1145   0.378   2.408   0.743
  279SOL    HW2 1146   0.459   2.376   0.784
  279SOL    HW3 1147   0.401   2.418   0.650
  279SOL    MW4 1148   0.392   2.405   0.736
  280SOL     OW 1149   0.376   2.702   0.843
  280SOL    HW2 1150   0.376   2.612   0.810
  280SOL    HW3 1151   0.292   2.738   0.815
  280SOL    MW4 1152   0.365   2.695   0.835
  281SOL     OW 1153   0.603   2.799   0.718
  281SOL    HW2 1154   0.680   2.749   0.745
  281SOL    HW3 1155   0.533   2.766   0.774
  281SOL    MW4 1156   0.604   2.788   0.729
  282SOL     OW 1157   0.677   3.074   0.826
  282SOL    HW2 1158   0.595   3.121   0.812
  282SOL    HW3 1159   0.656   2.983   0.807
  282SOL    MW4 1160   0.664   3.068   0.821
  283SOL     OW 1161   0.449   3.208   0.771
  283SOL    HW2 1162   0.429   3.302   0.777
  283SOL    HW3 1163   0.377   3.165   0.817
  283SOL    MW4 1164   0.437   3.215   0.778
  284SOL     OW 1165   0.425   3.468   0.817
  284SOL    HW2 1166   0.452   3.472   0.909
  284SOL    HW3 1167   0.348   3.525   0.813
  284SOL    MW4 1168   0.418   3.476   0.829
  285SOL     OW 1169   0.673   3.595   0.715
  285SOL    HW2 1170   0.595   3.554   0.752
  285SOL    HW3 1171   0.674   3.683   0.752
  285SOL    MW4 1172   0.663   3.601   0.725
  286SOL     OW 1173   0.656   3.837   0.854
  286SOL    HW2 1174   0.740   3.882   0.849
  286SOL    HW3 1175   0.592   3.904   0.831
  286SOL    MW4 1176   0.659   3.852   0.851
  287SOL     OW 1177   0.475   4.026   0.762
  287SOL    HW2 1178   0.455   4.118   0.778
  287SOL    HW3 1179   0.394   3.980   0.784
  287SOL    MW4 1180   0.462   4.032   0.767
  288SOL     OW 1181   0.453   4.311   0.829
  288SOL    HW2 1182   0.468   4.295   0.922
  288SOL    HW3 1183   0.364   4.346   0.825
  288SOL    MW4 1184   0.443   4.313   0.840
  289SOL     OW 1185   0.685   4.415   0.734
  289SOL    HW2 1186   0.602   4.384   0.769
  289SOL    HW3 1187   0.693   4.505   0.766
  289SOL    MW4 1188   0.675   4.423   0.743
  290SOL     OW 1189   1.169   4.630   0.768
  290SOL    HW2 1190   1.234   4.690   0.733
  290SOL    HW3 1191   1.085   4.676   0.757
  290SOL    MW4 1192   1.166   4.644   0.762
  291SOL     OW 1193   0.940   0.093   0.688
  291SOL    HW2 1194   0.931   0.176   0.736
  291SOL    HW3 1195   0.863   0.043   0.714
  291SOL    MW4 1196   0.929   0.098   0.698
  292SOL     OW 1197   0.913   0.331   0.836
  292SOL    HW2 1198   0.904   0.347   0.930
  292SOL    HW3 1199   0.990   0.384   0.811
  292SOL    MW4 1200   0.922   0.340   0.845
  293SOL     OW 1201   1.140   0.477   0.774
  293SOL    HW2 1202   1.215   0.423   0.797
  293SOL    HW3 1203   1.121   0.454   0.683
  293SOL    MW4 1204   1.148   0.467   0.765
  294SOL     OW 1205   1.157   0.757   0.846
  294SOL    HW2 1206   1.150   0.769   0.941
  294SOL    HW3 1207   1.159   0.662   0.834
  294SOL    MW4 1208   1.156   0.746   0.857
  295SOL     OW 1209   0.912   0.861   0.728
  295SOL    HW2 1210   0.985   0.812   0.765
  295SOL    HW3 1211   0.834   0.819   0.763
  295SOL    MW4 1212   0.911   0.849   0.737
  296SOL     OW 1213   0.890   1.122   0.821
  296SOL    HW2 1214   0.874   1.033   0.790
  296SOL    HW3 1215   0.806   1.167   0.808
  296SOL    MW4 1216   0.877   1.116   0.815
  297SOL     OW 1217   1.103   1.332   0.760
  297SOL    HW2 1218   1.047   1.255   0.759
  297SOL    HW3 1219   1.096   1.368   0.672
  297SOL    MW4 1220   1.095   1.327   0.748
  298SOL     OW 1221   1.104   1.574   0.849
  298SOL    HW2 1222   1.053   1.615   0.780
  298SOL    HW3 1223   1.104   1.481   0.828
  298SOL    MW4 1224   1.097   1.567   0.837
  299SOL     OW 1225   0.909   1.712   0.672
  299SOL    HW2 1226   0.877   1.795   0.705
  299SOL    HW3 1227   0.852   1.646   0.712
  299SOL    MW4 1228   0.897   1.714   0.681
  300SOL     OW 1229   0.864   1.958   0.772
  300SOL    HW2 1230   0.881   1.954   0.866
  300SOL    HW3 1231   0.774   1.992   0.766
  300SOL    MW4 1232   0.854   1.962   0.784
  301SOL     OW 1233   1.105   2.087   0.745
  301SOL    HW2 1234   1.100   2.176   0.779
  301SOL    HW3 1235   1.014   2.057   0.743
  301SOL    MW4 1236   1.092   2.094   0.749
  302SOL     OW 1237   1.098   2.333   0.823
  302SOL    HW2 1238   1.097   2.339   0.919
  302SOL    HW3 1239   1.186   2.363   0.798
  302SOL    MW4 1240   1.110   2.338   0.832
  303SOL     OW 1241   0.857   2.390   0.704
  303SOL    HW2 1242   0.939   2.353   0.739
  303SOL    HW3 1243   0.791   2.369   0.770
  303SOL    MW4 1244   0.859   2.382   0.717
  304SOL     OW 1245   0.825   2.663   0.815
  304SOL    HW2 1246   0.823   2.673   0.910
  304SOL    HW3 1247   0.826   2.568   0.802
  304SOL    MW4 1248   0.825   2.651   0.826
  305SOL     OW 1249   1.064   2.802   0.752
  305SOL    HW2 1250   1.007   2.725   0.764
  305SOL    HW3 1251   1.047   2.829   0.662
  305SOL    MW4 1252   1.054   2.795   0.742
  306SOL     OW 1253   1.142   3.056   0.831
  306SOL    HW2 1254   1.067   3.104   0.796
  306SOL    HW3 1255   1.118   2.964   0.820
  306SOL    MW4 1256   1.129   3.050   0.825
  307SOL     OW 1257   0.908   3.211   0.764
  307SOL    HW2 1258   0.909   3.301   0.797
  307SOL    HW3 1259   0.822   3.177   0.787
  307SOL    MW4 1260   0.897   3.218   0.771
  308SOL     OW 1261   0.869   3.468   0.854
  308SOL    HW2 1262   0.950   3.509   0.824
  308SOL    HW3 1263   0.802   3.504   0.797
  308SOL    MW4 1264   0.871   3.478   0.843
  309SOL     OW 1265   1.095   3.591   0.764
  309SOL    HW2 1266   1.168   3.538   0.798
  309SOL    HW3 1267   1.095   3.573   0.670
  309SOL    MW4 1268   1.105   3.582   0.756
  310SOL     OW 1269   1.124   3.872   0.822
  310SOL    HW2 1270   1.138   3.885   0.916
  310SOL    HW3 1271   1.114   3.777   0.812
  310SOL    MW4 1272   1.124   3.861   0.833
  311SOL     OW 1273   0.884   3.986   0.818
  311SOL    HW2 1274   0.895   4.081   0.820
  311SOL    HW3 1275   0.972   3.951   0.838
  311SOL    MW4 1276   0.897   3.994   0.821
  312SOL     OW 1277   0.888   4.255   0.828
  312SOL    HW2 1278   0.967   4.291   0.787
  312SOL    HW3 1279   0.818   4.314   0.800
  312SOL    MW4 1280   0.889   4.268   0.819
  313SOL     OW 1281   1.115   4.363   0.696
  313SOL    HW2 1282   1.193   4.316   0.727
  313SOL    HW3 1283   1.128   4.453   0.726
  313SOL    MW4 1284   1.127   4.369   0.704
  314SOL     OW 1285   1.569   4.605   0.809
  314SOL    HW2 1286   1.569   4.615   0.905
  314SOL    HW3 1287   1.491   4.651   0.780
  314SOL    MW4 1288   1.559   4.612   0.818
  315SOL     OW 1289   1.364   0.123   0.659
  315SOL    HW2 1290   1.365   0.201   0.714
  315SOL    HW3 1291   1.383   0.156   0.571
  315SOL    MW4 1292   1.367   0.138   0.654
  316SOL     OW 1293   1.377   0.350   0.842
  316SOL    HW2 1294   1.377   0.363   0.937
  316SOL    HW3 1295   1.455   0.397   0.812
  316SOL    MW4 1296   1.387   0.358   0.850
  317SOL     OW 1297   1.561   0.543   0.753
  317SOL    HW2 1298   1.544   0.630   0.790
  317SOL    HW3 1299   1.653   0.526   0.775
  317SOL    MW4 1300   1.571   0.552   0.761
  318SOL     OW 1301   1.560   0.796   0.852
  318SOL    HW2 1302   1.647   0.809   0.814
  318SOL    HW3 1303   1.502   0.850   0.798
  318SOL    MW4 1304   1.564   0.805   0.840
  319SOL     OW 1305   1.344   0.909   0.713
  319SOL    HW2 1306   1.348   0.998   0.748
  319SOL    HW3 1307   1.283   0.863   0.772
  319SOL    MW4 1308   1.336   0.915   0.726
  320SOL     OW 1309   1.345   1.161   0.814
  320SOL    HW2 1310   1.406   1.201   0.753
  320SOL    HW3 1311   1.262   1.205   0.797
  320SOL    MW4 1312   1.342   1.172   0.804
  321SOL     OW 1313   1.545   1.269   0.651
  321SOL    HW2 1314   1.555   1.363   0.633
  321SOL    HW3 1315   1.541   1.228   0.565
  321SOL    MW4 1316   1.546   1.276   0.637
  322SOL     OW 1317   1.697   1.638   0.857
  322SOL    HW2 1318   1.643   1.596   0.924
  322SOL    HW3 1319   1.784   1.599   0.868
  322SOL    MW4 1320   1.702   1.627   0.867
  323SOL     OW 1321   1.317   1.692   0.740
  323SOL    HW2 1322   1.336   1.773   0.787
  323SOL    HW3 1323   1.251   1.648   0.794
  323SOL    MW4 1324   1.311   1.697   0.753
  324SOL     OW 1325   1.325   1.946   0.846
  324SOL    HW2 1326   1.326   1.942   0.942
  324SOL    HW3 1327   1.242   1.990   0.826
  324SOL    MW4 1328   1.314   1.951   0.856
  325SOL     OW 1329   1.549   2.061   0.736
  325SOL    HW2 1330   1.471   2.020   0.773
  325SOL    HW3 1331   1.546   2.039   0.643
  325SOL    MW4 1332   1.538   2.052   0.729
  326SOL     OW 1333   1.550   2.302   0.846
  326SOL    HW2 1334   1.475   2.354   0.816
  326SOL    HW3 1335   1.532   2.214   0.812
  326SOL    MW4 1336   1.538   2.297   0.837
  327SOL     OW 1337   1.339   2.447   0.775
  327SOL    HW2 1338   1.347   2.541   0.789
  327SOL    HW3 1339   1.386   2.431   0.693
  327SOL    MW4 1340   1.346   2.457   0.766
  328SOL     OW 1341   1.327   2.717   0.831
  328SOL    HW2 1342   1.313   2.727   0.925
  328SOL    HW3 1343   1.249   2.756   0.791
  328SOL    MW4 1344   1.315   2.724   0.838
  329SOL     OW 1345   1.565   2.805   0.734
  329SOL    HW2 1346   1.574   2.898   0.752
  329SOL    HW3 1347   1.481   2.781   0.774
  329SOL    MW4 1348   1.555   2.814   0.742
  330SOL     OW 1349   1.569   3.086   0.808
  330SOL    HW2 1350   1.562   3.082   0.903
  330SOL    HW3 1351   1.487   3.129   0.780
  330SOL    MW4 1352   1.557   3.091   0.817
  331SOL     OW 1353   1.345   3.201   0.699
  331SOL    HW2 1354   1.285   3.139   0.739
  331SOL    HW3 1355   1.306   3.221   0.614
  331SOL    MW4 1356   1.332   3.196   0.693
  332SOL     OW 1357   1.344   3.448   0.835
  332SOL    HW2 1358   1.422   3.496   0.809
  332SOL    HW3 1359   1.356   3.360   0.798
  332SOL    MW4 1360   1.356   3.442   0.827
  333SOL     OW 1361   1.581   3.566   0.732
  333SOL    HW2 1362   1.667   3.525   0.726
  333SOL    HW3 1363   1.570   3.609   0.647
  333SOL    MW4 1364   1.591   3.566   0.720
  334SOL     OW 1365   1.569   3.803   0.859
  334SOL    HW2 1366   1.502   3.849   0.808
  334SOL    HW3 1367   1.568   3.714   0.824
  334SOL    MW4 1368   1.560   3.797   0.848
  335SOL     OW 1369   1.368   3.957   0.721
  335SOL    HW2 1370   1.291   3.929   0.771
  335SOL    HW3 1371   1.346   3.936   0.630
  335SOL    MW4 1372   1.355   3.950   0.715
  336SOL     OW 1373   1.328   4.228   0.799
  336SOL    HW2 1374   1.400   4.286   0.775
  336SOL    HW3 1375   1.348   4.145   0.756
  336SOL    MW4 1376   1.340   4.225   0.790
  337SOL     OW 1377   1.582   4.351   0.722
  337SOL    HW2 1378   1.641   4.294   0.771
  337SOL    HW3 1379   1.590   4.436   0.765
  337SOL    MW4 1380   1.591   4.355   0.734
  338SOL     OW 1381   1.797   0.093   0.745
  338SOL    HW2 1382   1.876   0.039   0.739
  338SOL    HW3 1383   1.726   0.030   0.759
  338SOL    MW4 1384   1.798   0.077   0.746
  339SOL     OW 1385   1.764   0.198   0.495
  339SOL    HW2 1386   1.706   0.124   0.477
  339SOL    HW3 1387   1.768   0.203   0.590
  339SOL    MW4 1388   1.757   0.189   0.505
  340SOL     OW 1389   1.783   0.368   0.827
  340SOL    HW2 1390   1.798   0.276   0.809
  340SOL    HW3 1391   1.868   0.410   0.813
  340SOL    MW4 1392   1.796   0.362   0.823
  341SOL     OW 1393   2.000   0.541   0.766
  341SOL    HW2 1394   2.009   0.562   0.673
  341SOL    HW3 1395   2.077   0.489   0.787
  341SOL    MW4 1396   2.011   0.537   0.757
  342SOL     OW 1397   1.975   0.781   0.890
  342SOL    HW2 1398   2.052   0.818   0.847
  342SOL    HW3 1399   1.976   0.689   0.865
  342SOL    MW4 1400   1.985   0.774   0.881
  343SOL     OW 1401   1.785   0.878   0.727
  343SOL    HW2 1402   1.777   0.969   0.757
  343SOL    HW3 1403   1.848   0.838   0.787
  343SOL    MW4 1404   1.792   0.885   0.739
  344SOL     OW 1405   1.749   1.148   0.816
  344SOL    HW2 1406   1.820   1.208   0.792
  344SOL    HW3 1407   1.672   1.183   0.772
  344SOL    MW4 1408   1.748   1.160   0.807
  345SOL     OW 1409   1.977   1.252   0.750
  345SOL    HW2 1410   2.058   1.218   0.789
  345SOL    HW3 1411   1.994   1.248   0.655
  345SOL    MW4 1412   1.990   1.247   0.742
  346SOL     OW 1413   1.956   1.503   0.880
  346SOL    HW2 1414   2.035   1.552   0.856
  346SOL    HW3 1415   1.971   1.416   0.844
  346SOL    MW4 1416   1.968   1.498   0.872
  347SOL     OW 1417   2.342   1.350   0.498
  347SOL    HW2 1418   2.410   1.331   0.433
  347SOL    HW3 1419   2.334   1.446   0.496
  347SOL    MW4 1420   2.350   1.360   0.489
  348SOL     OW 1421   1.773   1.903   0.829
  348SOL    HW2 1422   1.746   1.813   0.848
  348SOL    HW3 1423   1.691   1.952   0.823
  348SOL    MW4 1424   1.758   1.898   0.831
  349SOL     OW 1425   2.021   2.044   0.819
  349SOL    HW2 1426   2.019   2.139   0.820
  349SOL    HW3 1427   1.930   2.017   0.832
  349SOL    MW4 1428   2.009   2.053   0.821
  350SOL     OW 1429   2.022   2.314   0.868
  350SOL    HW2 1430   2.027   2.323   0.963
  350SOL    HW3 1431   1.939   2.356   0.845
  350SOL    MW4 1432   2.012   2.320   0.878
  351SOL     OW 1433   1.785   2.443   0.776
  351SOL    HW2 1434   1.702   2.406   0.808
  351SOL    HW3 1435   1.788   2.419   0.684
  351SOL    MW4 1436   1.774   2.435   0.768
  352SOL     OW 1437   1.813   2.707   0.828
  352SOL    HW2 1438   1.818   2.613   0.810
  352SOL    HW3 1439   1.720   2.728   0.821
  352SOL    MW4 1440   1.801   2.697   0.825
  353SOL     OW 1441   2.039   2.806   0.688
  353SOL    HW2 1442   2.109   2.769   0.742
  353SOL    HW3 1443   1.958   2.779   0.732
  353SOL    MW4 1444   2.038   2.798   0.701
  354SOL     OW 1445   2.029   3.051   0.848
  354SOL    HW2 1446   1.964   3.109   0.809
  354SOL    HW3 1447   2.020   2.969   0.801
  354SOL    MW4 1448   2.019   3.048   0.837
  355SOL     OW 1449   1.808   3.176   0.716
  355SOL    HW2 1450   1.729   3.160   0.767
  355SOL    HW3 1451   1.778   3.181   0.625
  355SOL    MW4 1452   1.794   3.174   0.711
  356SOL     OW 1453   1.822   3.457   0.776
  356SOL    HW2 1454   1.816   3.457   0.871
  356SOL    HW3 1455   1.806   3.366   0.750
  356SOL    MW4 1456   1.819   3.445   0.785
  357SOL     OW 1457   2.067   3.580   0.714
  357SOL    HW2 1458   2.060   3.648   0.781
  357SOL    HW3 1459   1.988   3.526   0.727
  357SOL    MW4 1460   2.056   3.582   0.725
  358SOL     OW 1461   2.065   3.823   0.873
  358SOL    HW2 1462   2.060   3.824   0.969
  358SOL    HW3 1463   1.983   3.862   0.845
  358SOL    MW4 1464   2.053   3.828   0.882
  359SOL     OW 1465   1.820   3.888   0.764
  359SOL    HW2 1466   1.737   3.863   0.804
  359SOL    HW3 1467   1.809   3.870   0.671
  359SOL    MW4 1468   1.808   3.882   0.757
  360SOL     OW 1469   1.788   4.193   0.826
  360SOL    HW2 1470   1.796   4.195   0.922
  360SOL    HW3 1471   1.803   4.101   0.803
  360SOL    MW4 1472   1.791   4.181   0.836
  361SOL     OW 1473   2.005   4.309   0.721
  361SOL    HW2 1474   1.929   4.278   0.770
  361SOL    HW3 1475   1.997   4.268   0.635
  361SOL    MW4 1476   1.994   4.300   0.716
  362SOL     OW 1477   2.454   4.658   0.883
  362SOL    HW2 1478   2.433   4.655   0.977
  362SOL    HW3 1479   2.545   4.687   0.880
  362SOL    MW4 1480   2.463   4.661   0.895
  363SOL     OW 1481   2.158   4.653   0.912
  363SOL    HW2 1482   2.245   4.620   0.891
  363SOL    HW3 1483   2.103   4.621   0.840
  363SOL    MW4 1484   2.162   4.644   0.899
  364SOL     OW 1485   2.207   0.397   0.856
  364SOL    HW2 1486   2.284   0.446   0.829
  364SOL    HW3 1487   2.219   0.310   0.819
  364SOL    MW4 1488   2.219   0.392   0.848
  365SOL     OW 1489   2.467   0.466   0.738
  365SOL    HW2 1490   2.492   0.439   0.650
  365SOL    HW3 1491   2.517   0.410   0.797
  365SOL    MW4 1492   2.477   0.455   0.734
  366SOL     OW 1493   2.416   0.718   0.833
  366SOL    HW2 1494   2.476   0.779   0.791
  366SOL    HW3 1495   2.426   0.636   0.786
  366SOL    MW4 1496   2.425   0.715   0.821
  367SOL     OW 1497   2.203   0.888   0.737
  367SOL    HW2 1498   2.271   0.821   0.743
  367SOL    HW3 1499   2.217   0.928   0.651
  367SOL    MW4 1500   2.214   0.885   0.726
  368SOL     OW 1501   2.217   1.145   0.853
  368SOL    HW2 1502   2.229   1.139   0.948
  368SOL    HW3 1503   2.213   1.054   0.823
  368SOL    MW4 1504   2.218   1.132   0.862
  369SOL     OW 1505   2.443   1.260   0.743
  369SOL    HW2 1506   2.368   1.215   0.781
  369SOL    HW3 1507   2.419   1.272   0.651
  369SOL    MW4 1508   2.430   1.256   0.736
  370SOL     OW 1509   2.403   1.492   0.868
  370SOL    HW2 1510   2.476   1.544   0.834
  370SOL    HW3 1511   2.418   1.404   0.834
  370SOL    MW4 1512   2.415   1.487   0.859
  371SOL     OW 1513   2.184   1.614   0.775
  371SOL    HW2 1514   2.244   1.547   0.808
  371SOL    HW3 1515   2.203   1.619   0.681
  371SOL    MW4 1516   2.195   1.606   0.767
  372SOL     OW 1517   2.227   1.863   0.878
  372SOL    HW2 1518   2.199   1.784   0.831
  372SOL    HW3 1519   2.152   1.921   0.875
  372SOL    MW4 1520   2.214   1.860   0.871
  373SOL     OW 1521   2.481   1.986   0.838
  373SOL    HW2 1522   2.406   1.948   0.884
  373SOL    HW3 1523   2.453   1.991   0.746
  373SOL    MW4 1524   2.467   1.982   0.832
  374SOL     OW 1525   2.432   2.253   0.876
  374SOL    HW2 1526   2.499   2.300   0.826
  374SOL    HW3 1527   2.448   2.161   0.857
  374SOL    MW4 1528   2.443   2.247   0.867
  375SOL     OW 1529   2.261   2.429   0.765
  375SOL    HW2 1530   2.325   2.372   0.808
  375SOL    HW3 1531   2.177   2.401   0.799
  375SOL    MW4 1532   2.259   2.418   0.775
  376SOL     OW 1533   2.239   2.703   0.849
  376SOL    HW2 1534   2.245   2.703   0.945
  376SOL    HW3 1535   2.242   2.610   0.825
  376SOL    MW4 1536   2.240   2.691   0.859
  377SOL     OW 1537   2.501   2.766   0.780
  377SOL    HW2 1538   2.559   2.707   0.828
  377SOL    HW3 1539   2.413   2.738   0.806
  377SOL    MW4 1540   2.497   2.754   0.790
  378SOL     OW 1541   2.500   3.056   0.837
  378SOL    HW2 1542   2.486   3.073   0.930
  378SOL    HW3 1543   2.504   2.961   0.830
  378SOL    MW4 1544   2.499   3.046   0.849
  379SOL     OW 1545   2.270   3.196   0.800
  379SOL    HW2 1546   2.198   3.158   0.850
  379SOL    HW3 1547   2.346   3.143   0.823
  379SOL    MW4 1548   2.270   3.184   0.810
  380SOL     OW 1549   2.257   3.454   0.870
  380SOL    HW2 1550   2.274   3.366   0.836
  380SOL    HW3 1551   2.198   3.493   0.805
  380SOL    MW4 1552   2.251   3.448   0.857
  381SOL     OW 1553   2.497   3.592   0.847
  381SOL    HW2 1554   2.562   3.524   0.832
  381SOL    HW3 1555   2.414   3.545   0.856
  381SOL    MW4 1556   2.495   3.577   0.846
  382SOL     OW 1557   2.514   3.885   0.899
  382SOL    HW2 1558   2.439   3.935   0.866
  382SOL    HW3 1559   2.491   3.793   0.882
  382SOL    MW4 1560   2.501   3.879   0.893
  383SOL     OW 1561   2.289   3.976   0.788
  383SOL    HW2 1562   2.213   3.924   0.814
  383SOL    HW3 1563   2.273   3.995   0.695
  383SOL    MW4 1564   2.277   3.972   0.779
  384SOL     OW 1565   2.273   4.263   0.817
  384SOL    HW2 1566   2.272   4.168   0.812
  384SOL    HW3 1567   2.188   4.291   0.782
  384SOL    MW4 1568   2.262   4.254   0.812
  385SOL     OW 1569   2.422   4.458   0.683
  385SOL    HW2 1570   2.452   4.522   0.747
  385SOL    HW3 1571   2.378   4.391   0.735
  385SOL    MW4 1572   2.420   4.458   0.698
  386SOL     OW 1573   2.933   4.621   0.855
  386SOL    HW2 1574   2.941   4.544   0.800
  386SOL    HW3 1575   2.843   4.651   0.842
  386SOL    MW4 1576   2.922   4.615   0.846
  387SOL     OW 1577   2.669   4.534   0.466
  387SOL    HW2 1578   2.666   4.629   0.477
  387SOL    HW3 1579   2.731   4.520   0.394
  387SOL    MW4 1580   2.676   4.545   0.458
  388SOL     OW 1581   2.668   0.357   0.880
  388SOL    HW2 1582   2.697   0.356   0.971
  388SOL    HW3 1583   2.740   0.399   0.833
  388SOL    MW4 1584   2.681   0.362   0.886
  389SOL     OW 1585   2.887   0.507   0.738
  389SOL    HW2 1586   2.958   0.462   0.785
  389SOL    HW3 1587   2.915   0.506   0.647
  389SOL    MW4 1588   2.900   0.501   0.732
  390SOL     OW 1589   2.868   0.781   0.816
  390SOL    HW2 1590   2.855   0.767   0.909
  390SOL    HW3 1591   2.858   0.694   0.777
  390SOL    MW4 1592   2.865   0.767   0.823
  391SOL     OW 1593   2.580   0.865   0.683
  391SOL    HW2 1594   2.664   0.825   0.662
  391SOL    HW3 1595   2.542   0.888   0.598
  391SOL    MW4 1596   2.586   0.863   0.669
  392SOL     OW 1597   2.660   1.119   0.830
  392SOL    HW2 1598   2.649   1.032   0.792
  392SOL    HW3 1599   2.584   1.168   0.798
  392SOL    MW4 1600   2.648   1.114   0.821
  393SOL     OW 1601   2.911   1.246   0.736
  393SOL    HW2 1602   2.985   1.210   0.785
  393SOL    HW3 1603   2.834   1.204   0.774
  393SOL    MW4 1604   2.911   1.236   0.747
  394SOL     OW 1605   2.875   1.488   0.872
  394SOL    HW2 1606   2.953   1.538   0.848
  394SOL    HW3 1607   2.889   1.401   0.834
  394SOL    MW4 1608   2.887   1.483   0.864
  395SOL     OW 1609   2.634   1.630   0.811
  395SOL    HW2 1610   2.659   1.721   0.830
  395SOL    HW3 1611   2.715   1.580   0.823
  395SOL    MW4 1612   2.648   1.636   0.815
  396SOL     OW 1613   2.736   1.888   0.876
  396SOL    HW2 1614   2.727   1.878   0.971
  396SOL    HW3 1615   2.648   1.911   0.846
  396SOL    MW4 1616   2.723   1.890   0.885
  397SOL     OW 1617   2.815   2.100   0.720
  397SOL    HW2 1618   2.824   2.186   0.762
  397SOL    HW3 1619   2.796   2.040   0.791
  397SOL    MW4 1620   2.814   2.104   0.735
  398SOL     OW 1621   2.876   2.345   0.830
  398SOL    HW2 1622   2.880   2.320   0.923
  398SOL    HW3 1623   2.817   2.420   0.828
  398SOL    MW4 1624   2.869   2.352   0.842
  399SOL     OW 1625   2.596   2.381   0.701
  399SOL    HW2 1626   2.650   2.393   0.623
  399SOL    HW3 1627   2.607   2.462   0.751
  399SOL    MW4 1628   2.604   2.394   0.697
  400SOL     OW 1629   2.723   2.595   0.843
  400SOL    HW2 1630   2.708   2.621   0.934
  400SOL    HW3 1631   2.767   2.671   0.803
  400SOL    MW4 1632   2.726   2.609   0.850
  401SOL     OW 1633   2.896   2.798   0.512
  401SOL    HW2 1634   2.906   2.706   0.487
  401SOL    HW3 1635   2.828   2.832   0.453
  401SOL    MW4 1636   2.888   2.791   0.501
  402SOL     OW 1637   2.888   3.102   0.814
  402SOL    HW2 1638   2.812   3.145   0.775
  402SOL    HW3 1639   2.873   3.009   0.801
  402SOL    MW4 1640   2.876   3.096   0.807
  403SOL     OW 1641   2.664   3.211   0.680
  403SOL    HW2 1642   2.649   3.288   0.735
  403SOL    HW3 1643   2.619   3.140   0.725
  403SOL    MW4 1644   2.656   3.212   0.693
  404SOL     OW 1645   2.724   3.435   0.846
  404SOL    HW2 1646   2.731   3.438   0.941
  404SOL    HW3 1647   2.801   3.484   0.815
  404SOL    MW4 1648   2.735   3.442   0.854
  405SOL     OW 1649   2.911   3.619   0.762
  405SOL    HW2 1650   2.937   3.699   0.808
  405SOL    HW3 1651   2.902   3.645   0.671
  405SOL    MW4 1652   2.913   3.633   0.756
  406SOL     OW 1653   2.939   3.895   0.890
  406SOL    HW2 1654   2.913   3.876   0.980
  406SOL    HW3 1655   2.863   3.940   0.852
  406SOL    MW4 1656   2.925   3.899   0.897
  407SOL     OW 1657   2.718   4.011   0.782
  407SOL    HW2 1658   2.654   3.958   0.829
  407SOL    HW3 1659   2.693   4.004   0.690
  407SOL    MW4 1660   2.706   4.003   0.776
  408SOL     OW 1661   2.701   4.287   0.775
  408SOL    HW2 1662   2.692   4.317   0.865
  408SOL    HW3 1663   2.702   4.191   0.782
  408SOL    MW4 1664   2.700   4.278   0.788
  409SOL     OW 1665   2.981   4.400   0.710
  409SOL    HW2 1666   3.049   4.355   0.759
  409SOL    HW3 1667   2.900   4.354   0.732
  409SOL    MW4 1668   2.979   4.388   0.719
  410SOL     OW 1669   3.355   4.600   0.842
  410SOL    HW2 1670   3.350   4.614   0.936
  410SOL    HW3 1671   3.291   4.661   0.805
  410SOL    MW4 1672   3.346   4.610   0.849
  411SOL     OW 1673   3.141   0.107   0.754
  411SOL    HW2 1674   3.135   0.192   0.798
  411SOL    HW3 1675   3.064   0.059   0.784
  411SOL    MW4 1676   3.130   0.112   0.764
  412SOL     OW 1677   3.111   0.347   0.882
  412SOL    HW2 1678   3.120   0.340   0.977
  412SOL    HW3 1679   3.195   0.383   0.853
  412SOL    MW4 1680   3.123   0.351   0.891
  413SOL     OW 1681   3.354   0.473   0.764
  413SOL    HW2 1682   3.431   0.449   0.815
  413SOL    HW3 1683   3.386   0.478   0.674
  413SOL    MW4 1684   3.369   0.470   0.758
  414SOL     OW 1685   3.382   0.755   0.822
  414SOL    HW2 1686   3.292   0.786   0.813
  414SOL    HW3 1687   3.379   0.664   0.793
  414SOL    MW4 1688   3.370   0.747   0.817
  415SOL     OW 1689   3.133   0.904   0.769
  415SOL    HW2 1690   3.135   0.989   0.813
  415SOL    HW3 1691   3.051   0.864   0.798
  415SOL    MW4 1692   3.122   0.910   0.779
  416SOL     OW 1693   3.115   1.163   0.891
  416SOL    HW2 1694   3.120   1.149   0.986
  416SOL    HW3 1695   3.198   1.203   0.868
  416SOL    MW4 1696   3.126   1.166   0.901
  417SOL     OW 1697   3.372   1.243   0.785
  417SOL    HW2 1698   3.447   1.207   0.833
  417SOL    HW3 1699   3.383   1.338   0.789
  417SOL    MW4 1700   3.383   1.251   0.792
  418SOL     OW 1701   3.386   1.521   0.862
  418SOL    HW2 1702   3.390   1.531   0.957
  418SOL    HW3 1703   3.403   1.609   0.828
  418SOL    MW4 1704   3.389   1.534   0.870
  419SOL     OW 1705   3.116   1.605   0.827
  419SOL    HW2 1706   3.202   1.571   0.852
  419SOL    HW3 1707   3.119   1.609   0.731
  419SOL    MW4 1708   3.128   1.601   0.818
  420SOL     OW 1709   3.174   1.876   0.841
  420SOL    HW2 1710   3.172   1.906   0.932
  420SOL    HW3 1711   3.142   1.786   0.845
  420SOL    MW4 1712   3.169   1.868   0.854
  421SOL     OW 1713   3.580   1.977   0.855
  421SOL    HW2 1714   3.523   2.053   0.844
  421SOL    HW3 1715   3.529   1.904   0.819
  421SOL    MW4 1716   3.565   1.977   0.849
  422SOL     OW 1717   3.451   2.217   0.856
  422SOL    HW2 1718   3.400   2.240   0.934
  422SOL    HW3 1719   3.525   2.278   0.857
  422SOL    MW4 1720   3.454   2.228   0.867
  423SOL     OW 1721   3.097   2.473   0.705
  423SOL    HW2 1722   3.163   2.407   0.683
  423SOL    HW3 1723   3.026   2.423   0.745
  423SOL    MW4 1724   3.096   2.458   0.707
  424SOL     OW 1725   3.087   2.735   0.846
  424SOL    HW2 1726   3.104   2.650   0.806
  424SOL    HW3 1727   3.161   2.790   0.818
  424SOL    MW4 1728   3.099   2.731   0.837
  425SOL     OW 1729   3.293   2.872   0.727
  425SOL    HW2 1730   3.234   2.879   0.651
  425SOL    HW3 1731   3.364   2.815   0.697
  425SOL    MW4 1732   3.294   2.865   0.713
  426SOL     OW 1733   3.353   3.120   0.855
  426SOL    HW2 1734   3.357   3.116   0.951
  426SOL    HW3 1735   3.336   3.030   0.828
  426SOL    MW4 1736   3.351   3.107   0.864
  427SOL     OW 1737   3.131   3.230   0.748
  427SOL    HW2 1738   3.209   3.192   0.788
  427SOL    HW3 1739   3.058   3.196   0.801
  427SOL    MW4 1740   3.131   3.221   0.760
  428SOL     OW 1741   3.138   3.485   0.840
  428SOL    HW2 1742   3.120   3.400   0.801
  428SOL    HW3 1743   3.063   3.539   0.816
  428SOL    MW4 1744   3.125   3.481   0.832
  429SOL     OW 1745   3.483   3.973   0.632
  429SOL    HW2 1746   3.482   3.966   0.728
  429SOL    HW3 1747   3.414   3.913   0.603
  429SOL    MW4 1748   3.473   3.964   0.641
  430SOL     OW 1749   3.510   3.962   0.908
  430SOL    HW2 1750   3.551   4.048   0.915
  430SOL    HW3 1751   3.458   3.953   0.987
  430SOL    MW4 1752   3.508   3.972   0.919
  431SOL     OW 1753   3.131   4.011   0.746
  431SOL    HW2 1754   3.203   3.947   0.743
  431SOL    HW3 1755   3.061   3.966   0.792
  431SOL    MW4 1756   3.131   3.996   0.752
  432SOL     OW 1757   3.160   4.268   0.852
  432SOL    HW2 1758   3.247   4.296   0.824
  432SOL    HW3 1759   3.150   4.180   0.817
  432SOL    MW4 1760   3.170   4.260   0.844
  433SOL     OW 1761   3.399   4.321   0.762
  433SOL    HW2 1762   3.388   4.416   0.771
  433SOL    HW3 1763   3.419   4.308   0.669
  433SOL    MW4 1764   3.400   4.332   0.751
  434SOL     OW 1765   3.841   0.003   0.883
  434SOL    HW2 1766   3.897   0.045   0.817
  434SOL    HW3 1767   3.752   0.029   0.858
  434SOL    MW4 1768   3.837   0.012   0.871
  435SOL     OW 1769   3.590   0.073   0.765
  435SOL    HW2 1770   3.514   0.018   0.783
  435SOL    HW3 1771   3.608   0.059   0.672
  435SOL    MW4 1772   3.582   0.064   0.755
  436SOL     OW 1773   3.586   0.346   0.836
  436SOL    HW2 1774   3.617   0.341   0.926
  436SOL    HW3 1775   3.571   0.255   0.811
  436SOL    MW4 1776   3.588   0.333   0.844
  437SOL     OW 1777   3.808   0.484   0.729
  437SOL    HW2 1778   3.793   0.568   0.772
  437SOL    HW3 1779   3.738   0.427   0.762
  437SOL    MW4 1780   3.797   0.487   0.739
  438SOL     OW 1781   3.815   0.723   0.865
  438SOL    HW2 1782   3.820   0.709   0.960
  438SOL    HW3 1783   3.900   0.759   0.842
  438SOL    MW4 1784   3.827   0.726   0.875
  439SOL     OW 1785   3.618   0.878   0.765
  439SOL    HW2 1786   3.689   0.834   0.813
  439SOL    HW3 1787   3.540   0.825   0.783
  439SOL    MW4 1788   3.617   0.865   0.774
  440SOL     OW 1789   3.613   1.134   0.881
  440SOL    HW2 1790   3.612   1.131   0.977
  440SOL    HW3 1791   3.605   1.042   0.855
  440SOL    MW4 1792   3.612   1.121   0.890
  441SOL     OW 1793   3.809   1.283   0.788
  441SOL    HW2 1794   3.733   1.228   0.809
  441SOL    HW3 1795   3.835   1.257   0.700
  441SOL    MW4 1796   3.802   1.272   0.779
  442SOL     OW 1797   3.814   1.543   0.887
  442SOL    HW2 1798   3.888   1.584   0.841
  442SOL    HW3 1799   3.808   1.455   0.850
  442SOL    MW4 1800   3.823   1.537   0.877
  443SOL     OW 1801   3.673   1.582   0.641
  443SOL    HW2 1802   3.579   1.564   0.646
  443SOL    HW3 1803   3.704   1.574   0.731
  443SOL    MW4 1804   3.665   1.578   0.654
  444SOL     OW 1805   3.797   2.017   0.700
  444SOL    HW2 1806   3.861   1.991   0.766
  444SOL    HW3 1807   3.712   1.998   0.741
  444SOL    MW4 1808   3.794   2.011   0.714
  445SOL     OW 1809   3.775   2.307   0.656
  445SOL    HW2 1810   3.740   2.344   0.737
  445SOL    HW3 1811   3.786   2.214   0.675
  445SOL    MW4 1812   3.772   2.300   0.670
  446SOL     OW 1813   3.689   1.829   0.521
  446SOL    HW2 1814   3.742   1.895   0.566
  446SOL    HW3 1815   3.690   1.753   0.579
  446SOL    MW4 1816   3.696   1.828   0.534
  447SOL     OW 1817   3.677   2.366   0.891
  447SOL    HW2 1818   3.645   2.455   0.906
  447SOL    HW3 1819   3.727   2.344   0.970
  447SOL    MW4 1820   3.680   2.375   0.903
  448SOL     OW 1821   3.623   2.639   0.890
  448SOL    HW2 1822   3.598   2.658   0.981
  448SOL    HW3 1823   3.696   2.699   0.872
  448SOL    MW4 1824   3.629   2.649   0.900
  449SOL     OW 1825   3.794   2.854   0.820
  449SOL    HW2 1826   3.779   2.944   0.850
  449SOL    HW3 1827   3.815   2.864   0.727
  449SOL    MW4 1828   3.795   2.867   0.812
  450SOL     OW 1829   3.824   3.128   0.858
  450SOL    HW2 1830   3.888   3.167   0.798
  450SOL    HW3 1831   3.743   3.176   0.842
  450SOL    MW4 1832   3.822   3.139   0.848
  451SOL     OW 1833   3.590   3.252   0.811
  451SOL    HW2 1834   3.510   3.202   0.822
  451SOL    HW3 1835   3.622   3.227   0.724
  451SOL    MW4 1836   3.584   3.242   0.801
  452SOL     OW 1837   3.538   3.527   0.860
  452SOL    HW2 1838   3.551   3.432   0.851
  452SOL    HW3 1839   3.472   3.548   0.793
  452SOL    MW4 1840   3.531   3.517   0.850
  453SOL     OW 1841   3.781   3.613   0.786
  453SOL    HW2 1842   3.848   3.554   0.818
  453SOL    HW3 1843   3.698   3.569   0.807
  453SOL    MW4 1844   3.779   3.599   0.793
  454SOL     OW 1845   3.781   3.856   0.894
  454SOL    HW2 1846   3.687   3.871   0.881
  454SOL    HW3 1847   3.794   3.765   0.867
  454SOL    MW4 1848   3.770   3.846   0.889
  455SOL     OW 1849   2.798   4.246   0.202
  455SOL    HW2 1850   2.828   4.335   0.218
  455SOL    HW3 1851   2.878   4.193   0.204
  455SOL    MW4 1852   2.813   4.251   0.205
  456SOL     OW 1853   3.604   4.235   0.920
  456SOL    HW2 1854   3.674   4.276   0.870
  456SOL    HW3 1855   3.525   4.249   0.868
  456SOL    MW4 1856   3.602   4.242   0.907
  457SOL     OW 1857   3.829   4.430   0.744
  457SOL    HW2 1858   3.902   4.379   0.777
  457SOL    HW3 1859   3.833   4.513   0.793
  457SOL    MW4 1860   3.839   4.435   0.755
  458SOL     OW 1861   4.228   4.631   0.813
  458SOL    HW2 1862   4.207   4.638   0.906
  458SOL    HW3 1863   4.162   4.684   0.769
  458SOL    MW4 1864   4.217   4.639   0.819
  459SOL     OW 1865   4.033   0.121   0.709
  459SOL    HW2 1866   4.015   0.211   0.735
  459SOL    HW3 1867   4.003   0.115   0.619
  459SOL    MW4 1868   4.026   0.132   0.701
  460SOL     OW 1869   4.037   0.372   0.833
  460SOL    HW2 1870   4.110   0.420   0.795
  460SOL    HW3 1871   3.959   0.412   0.793
  460SOL    MW4 1872   4.036   0.384   0.822
  461SOL     OW 1873   4.283   0.462   0.709
  461SOL    HW2 1874   4.369   0.439   0.742
  461SOL    HW3 1875   4.289   0.448   0.614
  461SOL    MW4 1876   4.295   0.457   0.701
  462SOL     OW 1877   4.269   0.711   0.872
  462SOL    HW2 1878   4.192   0.753   0.836
  462SOL    HW3 1879   4.290   0.641   0.810
  462SOL    MW4 1880   4.262   0.707   0.859
  463SOL     OW 1881   4.047   0.861   0.781
  463SOL    HW2 1882   4.054   0.949   0.819
  463SOL    HW3 1883   4.069   0.874   0.689
  463SOL    MW4 1884   4.051   0.874   0.774
  464SOL     OW 1885   4.036   1.123   0.852
  464SOL    HW2 1886   4.037   1.121   0.947
  464SOL    HW3 1887   3.960   1.177   0.830
  464SOL    MW4 1888   4.026   1.130   0.861
  465SOL     OW 1889   4.251   1.249   0.721
  465SOL    HW2 1890   4.181   1.198   0.761
  465SOL    HW3 1891   4.332   1.212   0.757
  465SOL    MW4 1892   4.252   1.238   0.731
  466SOL     OW 1893   4.250   1.519   0.850
  466SOL    HW2 1894   4.275   1.517   0.943
  466SOL    HW3 1895   4.252   1.427   0.823
  466SOL    MW4 1896   4.253   1.506   0.859
  467SOL     OW 1897   4.033   1.668   0.769
  467SOL    HW2 1898   4.099   1.626   0.824
  467SOL    HW3 1899   4.062   1.650   0.680
  467SOL    MW4 1900   4.046   1.660   0.765
  468SOL     OW 1901   3.987   1.932   0.881
  468SOL    HW2 1902   4.012   1.846   0.847
  468SOL    HW3 1903   4.064   1.987   0.864
  468SOL    MW4 1904   4.001   1.928   0.874
  469SOL     OW 1905   4.250   2.059   0.820
  469SOL    HW2 1906   4.334   2.028   0.854
  469SOL    HW3 1907   4.256   2.043   0.726
  469SOL    MW4 1908   4.262   2.053   0.812
  470SOL     OW 1909   4.193   2.308   0.892
  470SOL    HW2 1910   4.136   2.345   0.824
  470SOL    HW3 1911   4.210   2.218   0.862
  470SOL    MW4 1912   4.188   2.301   0.879
  471SOL     OW 1913   4.029   2.430   0.711
  471SOL    HW2 1914   4.005   2.510   0.758
  471SOL    HW3 1915   3.945   2.393   0.683
  471SOL    MW4 1916   4.014   2.435   0.714
  472SOL     OW 1917   3.993   2.679   0.862
  472SOL    HW2 1918   4.071   2.726   0.834
  472SOL    HW3 1919   3.920   2.736   0.838
  472SOL    MW4 1920   3.994   2.693   0.855
  473SOL     OW 1921   4.194   2.829   0.756
  473SOL    HW2 1922   4.264   2.767   0.778
  473SOL    HW3 1923   4.183   2.820   0.661
  473SOL    MW4 1924   4.202   2.819   0.746
  474SOL     OW 1925   4.193   3.104   0.798
  474SOL    HW2 1926   4.187   3.009   0.796
  474SOL    HW3 1927   4.284   3.123   0.776
  474SOL    MW4 1928   4.205   3.094   0.795
  475SOL     OW 1929   3.995   3.248   0.685
  475SOL    HW2 1930   4.010   3.325   0.740
  475SOL    HW3 1931   4.067   3.188   0.707
  475SOL    MW4 1932   4.006   3.250   0.695
  476SOL     OW 1933   4.006   3.454   0.862
  476SOL    HW2 1934   4.008   3.469   0.957
  476SOL    HW3 1935   4.085   3.498   0.830
  476SOL    MW4 1936   4.017   3.462   0.870
  477SOL     OW 1937   4.237   3.570   0.736
  477SOL    HW2 1938   4.205   3.661   0.742
  477SOL    HW3 1939   4.223   3.546   0.644
  477SOL    MW4 1940   4.231   3.579   0.725
  478SOL     OW 1941   4.199   3.835   0.828
  478SOL    HW2 1942   4.221   3.853   0.919
  478SOL    HW3 1943   4.140   3.906   0.803
  478SOL    MW4 1944   4.194   3.847   0.837
  479SOL     OW 1945   3.993   3.997   0.743
  479SOL    HW2 1946   3.914   3.983   0.794
  479SOL    HW3 1947   3.962   3.998   0.652
  479SOL    MW4 1948   3.978   3.995   0.737
  480SOL     OW 1949   4.034   4.264   0.823
  480SOL    HW2 1950   4.122   4.288   0.796
  480SOL    HW3 1951   4.026   4.172   0.797
  480SOL    MW4 1952   4.044   4.255   0.816
  481SOL     OW 1953   4.286   4.378   0.737
  481SOL    HW2 1954   4.265   4.470   0.753
  481SOL    HW3 1955   4.361   4.360   0.792
  481SOL    MW4 1956   4.293   4.388   0.746
  482SOL     OW 1957   0.269   4.654   1.101
  482SOL    HW2 1958   0.342   4.705   1.138
  482SOL    HW3 1959   0.267   4.679   1.009
  482SOL    MW4 1960   0.279   4.664   1.094
  483SOL     OW 1961   0.031   0.080   1.212
  483SOL    HW2 1962  -0.046   0.047   1.166
  483SOL    HW3 1963   0.106   0.046   1.163
  483SOL    MW4 1964   0.031   0.071   1.200
  484SOL     OW 1965   0.031   0.355   1.101
  484SOL    HW2 1966  -0.042   0.395   1.149
  484SOL    HW3 1967   0.040   0.268   1.138
  484SOL    MW4 1968   0.023   0.349   1.112
  485SOL     OW 1969   0.250   0.494   1.200
  485SOL    HW2 1970   0.239   0.582   1.163
  485SOL    HW3 1971   0.176   0.444   1.167
  485SOL    MW4 1972   0.239   0.499   1.191
  486SOL     OW 1973   0.240   0.746   1.092
  486SOL    HW2 1974   0.320   0.785   1.129
  486SOL    HW3 1975   0.170   0.804   1.121
  486SOL    MW4 1976   0.242   0.759   1.100
  487SOL     OW 1977   0.050   0.893   1.206
  487SOL    HW2 1978   0.068   0.877   1.299
  487SOL    HW3 1979  -0.025   0.836   1.186
  487SOL    MW4 1980   0.043   0.883   1.215
  488SOL     OW 1981   0.046   1.166   1.124
  488SOL    HW2 1982  -0.042   1.202   1.140
  488SOL    HW3 1983   0.039   1.075   1.154
  488SOL    MW4 1984   0.033   1.159   1.130
  489SOL     OW 1985   0.236   1.347   1.206
  489SOL    HW2 1986   0.313   1.290   1.197
  489SOL    HW3 1987   0.162   1.292   1.183
  489SOL    MW4 1988   0.237   1.332   1.202
  490SOL     OW 1989   0.205   1.605   1.092
  490SOL    HW2 1990   0.212   1.517   1.129
  490SOL    HW3 1991   0.180   1.591   1.001
  490SOL    MW4 1992   0.203   1.592   1.085
  491SOL     OW 1993   4.479   1.674   1.232
  491SOL    HW2 1994   4.466   1.768   1.219
  491SOL    HW3 1995   4.564   1.656   1.192
  491SOL    MW4 1996   4.488   1.684   1.225
  492SOL     OW 1997   4.478   1.942   1.163
  492SOL    HW2 1998   4.400   1.998   1.167
  492SOL    HW3 1999   4.476   1.907   1.073
  492SOL    MW4 2000   4.467   1.944   1.151
  493SOL     OW 2001   0.236   2.056   1.227
  493SOL    HW2 2002   0.231   2.146   1.194
  493SOL    HW3 2003   0.153   2.017   1.201
  493SOL    MW4 2004   0.224   2.063   1.219
  494SOL     OW 2005   0.197   2.293   1.105
  494SOL    HW2 2006   0.275   2.333   1.143
  494SOL    HW3 2007   0.124   2.337   1.149
  494SOL    MW4 2008   0.198   2.304   1.116
  495SOL     OW 2009   4.480   2.465   1.234
  495SOL    HW2 2010   4.501   2.427   1.320
  495SOL    HW3 2011   4.390   2.436   1.216
  495SOL    MW4 2012   4.471   2.456   1.243
  496SOL     OW 2013   4.440   2.716   1.115
  496SOL    HW2 2014   4.380   2.763   1.173
  496SOL    HW3 2015   4.455   2.632   1.160
  496SOL    MW4 2016   4.434   2.711   1.129
  497SOL     OW 2017   0.168   2.866   1.190
  497SOL    HW2 2018   0.159   2.863   1.286
  497SOL    HW3 2019   0.096   2.812   1.158
  497SOL    MW4 2020   0.157   2.858   1.199
  498SOL     OW 2021   0.272   3.115   1.089
  498SOL    HW2 2022   0.331   3.161   1.148
  498SOL    HW3 2023   0.255   3.031   1.131
  498SOL    MW4 2024   0.277   3.110   1.102
  499SOL     OW 2025   0.045   3.233   1.186
  499SOL    HW2 2026  -0.027   3.191   1.138
  499SOL    HW3 2027   0.124   3.188   1.156
  499SOL    MW4 2028   0.046   3.221   1.176
  500SOL     OW 2029   4.485   3.493   1.106
  500SOL    HW2 2030   4.493   3.405   1.143
  500SOL    HW3 2031   4.512   3.483   1.014
  500SOL    MW4 2032   4.490   3.480   1.098
  501SOL     OW 2033   0.243   3.598   1.195
  501SOL    HW2 2034   0.238   3.599   1.290
  501SOL    HW3 2035   0.155   3.571   1.167
  501SOL    MW4 2036   0.231   3.594   1.203
  502SOL     OW 2037   0.244   3.861   1.158
  502SOL    HW2 2038   0.158   3.891   1.187
  502SOL    HW3 2039   0.240   3.765   1.164
  502SOL    MW4 2040   0.232   3.852   1.162
  503SOL     OW 2041   4.489   4.025   1.216
  503SOL    HW2 2042   4.468   4.023   1.309
  503SOL    HW3 2043   4.419   3.975   1.174
  503SOL    MW4 2044   4.477   4.019   1.222
  504SOL     OW 2045   4.477   4.283   1.139
  504SOL    HW2 2046   4.565   4.308   1.168
  504SOL    HW3 2047   4.461   4.198   1.179
  504SOL    MW4 2048   4.486   4.275   1.148
  505SOL     OW 2049   0.255   4.393   1.193
  505SOL    HW2 2050   0.265   4.395   1.288
  505SOL    HW3 2051   0.248   4.486   1.169
  505SOL    MW4 2052   0.256   4.406   1.203
  506SOL     OW 2053   0.713   0.031   1.078
  506SOL    HW2 2054   0.795   0.054   1.121
  506SOL    HW3 2055   0.691  -0.056   1.113
  506SOL    MW4 2056   0.721   0.022   1.089
  507SOL     OW 2057   0.482   0.149   1.218
  507SOL    HW2 2058   0.462   0.240   1.195
  507SOL    HW3 2059   0.559   0.128   1.166
  507SOL    MW4 2060   0.489   0.159   1.208
  508SOL     OW 2061   0.499   0.392   1.100
  508SOL    HW2 2062   0.413   0.423   1.128
  508SOL    HW3 2063   0.489   0.372   1.007
  508SOL    MW4 2064   0.486   0.394   1.092
  509SOL     OW 2065   0.740   0.517   1.234
  509SOL    HW2 2066   0.742   0.605   1.198
  509SOL    HW3 2067   0.662   0.477   1.196
  509SOL    MW4 2068   0.730   0.523   1.224
  510SOL     OW 2069   0.728   0.781   1.131
  510SOL    HW2 2070   0.645   0.812   1.167
  510SOL    HW3 2071   0.716   0.786   1.036
  510SOL    MW4 2072   0.715   0.786   1.123
  511SOL     OW 2073   0.483   0.866   1.224
  511SOL    HW2 2074   0.467   0.886   1.316
  511SOL    HW3 2075   0.446   0.940   1.176
  511SOL    MW4 2076   0.476   0.878   1.230
  512SOL     OW 2077   0.458   1.155   1.108
  512SOL    HW2 2078   0.539   1.200   1.131
  512SOL    HW3 2079   0.451   1.165   1.013
  512SOL    MW4 2080   0.467   1.162   1.099
  513SOL     OW 2081   0.665   1.329   1.194
  513SOL    HW2 2082   0.753   1.299   1.170
  513SOL    HW3 2083   0.651   1.407   1.140
  513SOL    MW4 2084   0.675   1.335   1.184
  514SOL     OW 2085   0.646   1.560   1.068
  514SOL    HW2 2086   0.728   1.604   1.092
  514SOL    HW3 2087   0.580   1.600   1.124
  514SOL    MW4 2088   0.648   1.571   1.079
  515SOL     OW 2089   0.441   1.694   1.212
  515SOL    HW2 2090   0.434   1.676   1.306
  515SOL    HW3 2091   0.354   1.673   1.177
  515SOL    MW4 2092   0.428   1.689   1.219
  516SOL     OW 2093   0.438   1.932   1.088
  516SOL    HW2 2094   0.429   1.845   1.126
  516SOL    HW3 2095   0.364   1.981   1.122
  516SOL    MW4 2096   0.427   1.927   1.098
  517SOL     OW 2097   0.666   2.031   1.203
  517SOL    HW2 2098   0.651   2.030   1.297
  517SOL    HW3 2099   0.586   1.992   1.166
  517SOL    MW4 2100   0.653   2.025   1.210
  518SOL     OW 2101   0.621   2.324   1.114
  518SOL    HW2 2102   0.544   2.358   1.160
  518SOL    HW3 2103   0.622   2.231   1.134
  518SOL    MW4 2104   0.611   2.316   1.123
  519SOL     OW 2105   0.389   2.449   1.228
  519SOL    HW2 2106   0.404   2.462   1.322
  519SOL    HW3 2107   0.380   2.538   1.194
  519SOL    MW4 2108   0.390   2.463   1.236
  520SOL     OW 2109   0.401   2.709   1.120
  520SOL    HW2 2110   0.319   2.750   1.148
  520SOL    HW3 2111   0.396   2.709   1.025
  520SOL    MW4 2112   0.389   2.715   1.111
  521SOL     OW 2113   0.648   2.813   1.202
  521SOL    HW2 2114   0.655   2.902   1.169
  521SOL    HW3 2115   0.564   2.781   1.169
  521SOL    MW4 2116   0.638   2.820   1.193
  522SOL     OW 2117   0.662   3.082   1.107
  522SOL    HW2 2118   0.729   3.141   1.142
  522SOL    HW3 2119   0.673   3.087   1.012
  522SOL    MW4 2120   0.672   3.091   1.099
  523SOL     OW 2121   0.470   3.243   1.223
  523SOL    HW2 2122   0.468   3.327   1.178
  523SOL    HW3 2123   0.545   3.197   1.184
  523SOL    MW4 2124   0.480   3.248   1.212
  524SOL     OW 2125   0.459   3.480   1.089
  524SOL    HW2 2126   0.524   3.531   1.137
  524SOL    HW3 2127   0.375   3.516   1.117
  524SOL    MW4 2128   0.456   3.491   1.099
  525SOL     OW 2129   0.667   3.619   1.203
  525SOL    HW2 2130   0.675   3.615   1.299
  525SOL    HW3 2131   0.675   3.712   1.183
  525SOL    MW4 2132   0.669   3.631   1.213
  526SOL     OW 2133   0.661   3.891   1.136
  526SOL    HW2 2134   0.591   3.947   1.171
  526SOL    HW3 2135   0.641   3.884   1.043
  526SOL    MW4 2136   0.649   3.898   1.128
  527SOL     OW 2137   0.443   4.020   1.258
  527SOL    HW2 2138   0.450   4.105   1.213
  527SOL    HW3 2139   0.372   3.976   1.212
  527SOL    MW4 2140   0.435   4.026   1.246
  528SOL     OW 2141   0.484   4.262   1.099
  528SOL    HW2 2142   0.561   4.307   1.133
  528SOL    HW3 2143   0.412   4.321   1.117
  528SOL    MW4 2144   0.485   4.276   1.106
  529SOL     OW 2145   0.697   4.427   1.183
  529SOL    HW2 2146   0.693   4.409   1.277
  529SOL    HW3 2147   0.776   4.382   1.154
  529SOL    MW4 2148   0.707   4.419   1.192
  530SOL     OW 2149   1.153   4.663   1.056
  530SOL    HW2 2150   1.177   4.576   1.090
  530SOL    HW3 2151   1.161   4.654   0.961
  530SOL    MW4 2152   1.157   4.650   1.048
  531SOL     OW 2153   0.934   0.105   1.216
  531SOL    HW2 2154   0.935   0.102   1.312
  531SOL    HW3 2155   1.009   0.051   1.190
  531SOL    MW4 2156   0.944   0.097   1.225
  532SOL     OW 2157   0.919   0.361   1.112
  532SOL    HW2 2158   0.920   0.272   1.148
  532SOL    HW3 2159   0.849   0.405   1.159
  532SOL    MW4 2160   0.910   0.355   1.123
  533SOL     OW 2161   1.115   0.536   1.222
  533SOL    HW2 2162   1.115   0.532   1.318
  533SOL    HW3 2163   1.061   0.461   1.195
  533SOL    MW4 2164   1.108   0.525   1.232
  534SOL     OW 2165   1.108   0.787   1.113
  534SOL    HW2 2166   1.048   0.843   1.161
  534SOL    HW3 2167   1.091   0.699   1.148
  534SOL    MW4 2168   1.098   0.783   1.124
  535SOL     OW 2169   0.938   0.917   1.268
  535SOL    HW2 2170   0.917   0.994   1.215
  535SOL    HW3 2171   0.877   0.850   1.239
  535SOL    MW4 2172   0.927   0.919   1.257
  536SOL     OW 2173   0.872   1.169   1.094
  536SOL    HW2 2174   0.964   1.189   1.113
  536SOL    HW3 2175   0.871   1.144   1.001
  536SOL    MW4 2176   0.884   1.169   1.084
  537SOL     OW 2177   1.099   1.281   1.192
  537SOL    HW2 2178   1.110   1.285   1.287
  537SOL    HW3 2179   1.182   1.247   1.159
  537SOL    MW4 2180   1.111   1.277   1.200
  538SOL     OW 2181   1.115   1.548   1.135
  538SOL    HW2 2182   1.100   1.459   1.169
  538SOL    HW3 2183   1.109   1.538   1.040
  538SOL    MW4 2184   1.112   1.535   1.127
  539SOL     OW 2185   0.869   1.683   1.166
  539SOL    HW2 2186   0.876   1.768   1.124
  539SOL    HW3 2187   0.957   1.646   1.160
  539SOL    MW4 2188   0.881   1.689   1.160
  540SOL     OW 2189   0.891   1.939   1.053
  540SOL    HW2 2190   0.965   1.988   1.087
  540SOL    HW3 2191   0.818   1.961   1.112
  540SOL    MW4 2192   0.891   1.949   1.065
  541SOL     OW 2193   1.115   2.039   1.176
  541SOL    HW2 2194   1.109   2.028   1.271
  541SOL    HW3 2195   1.129   2.133   1.164
  541SOL    MW4 2196   1.116   2.050   1.187
  542SOL     OW 2197   1.121   2.318   1.097
  542SOL    HW2 2198   1.180   2.380   1.139
  542SOL    HW3 2199   1.039   2.325   1.146
  542SOL    MW4 2200   1.118   2.327   1.109
  543SOL     OW 2201   0.870   2.395   1.209
  543SOL    HW2 2202   0.875   2.380   1.304
  543SOL    HW3 2203   0.783   2.364   1.185
  543SOL    MW4 2204   0.859   2.389   1.219
  544SOL     OW 2205   0.860   2.664   1.090
  544SOL    HW2 2206   0.874   2.579   1.133
  544SOL    HW3 2207   0.795   2.708   1.145
  544SOL    MW4 2208   0.853   2.659   1.103
  545SOL     OW 2209   1.086   2.805   1.183
  545SOL    HW2 2210   1.107   2.790   1.275
  545SOL    HW3 2211   1.004   2.757   1.170
  545SOL    MW4 2212   1.078   2.797   1.194
  546SOL     OW 2213   1.081   3.071   1.109
  546SOL    HW2 2214   1.074   2.976   1.123
  546SOL    HW3 2215   1.101   3.080   1.016
  546SOL    MW4 2216   1.083   3.059   1.098
  547SOL     OW 2217   0.880   3.230   1.218
  547SOL    HW2 2218   0.892   3.324   1.201
  547SOL    HW3 2219   0.955   3.188   1.176
  547SOL    MW4 2220   0.891   3.237   1.211
  548SOL     OW 2221   0.884   3.477   1.121
  548SOL    HW2 2222   0.811   3.534   1.145
  548SOL    HW3 2223   0.887   3.480   1.025
  548SOL    MW4 2224   0.875   3.485   1.111
  549SOL     OW 2225   1.139   3.594   1.228
  549SOL    HW2 2226   1.210   3.540   1.196
  549SOL    HW3 2227   1.060   3.558   1.187
  549SOL    MW4 2228   1.138   3.582   1.219
  550SOL     OW 2229   1.121   3.836   1.092
  550SOL    HW2 2230   1.044   3.881   1.128
  550SOL    HW3 2231   1.125   3.754   1.142
  550SOL    MW4 2232   1.111   3.831   1.103
  551SOL     OW 2233   0.904   3.989   1.196
  551SOL    HW2 2234   0.911   3.975   1.290
  551SOL    HW3 2235   0.814   3.963   1.175
  551SOL    MW4 2236   0.893   3.983   1.205
  552SOL     OW 2237   0.895   4.270   1.104
  552SOL    HW2 2238   0.890   4.180   1.137
  552SOL    HW3 2239   0.883   4.261   1.009
  552SOL    MW4 2240   0.893   4.257   1.096
  553SOL     OW 2241   1.124   4.414   1.180
  553SOL    HW2 2242   1.128   4.399   1.274
  553SOL    HW3 2243   1.046   4.366   1.151
  553SOL    MW4 2244   1.114   4.406   1.188
  554SOL     OW 2245   1.541   4.621   1.094
  554SOL    HW2 2246   1.615   4.673   1.126
  554SOL    HW3 2247   1.560   4.532   1.123
  554SOL    MW4 2248   1.553   4.617   1.102
  555SOL     OW 2249   1.335   0.110   1.237
  555SOL    HW2 2250   1.404   0.063   1.189
  555SOL    HW3 2251   1.255   0.092   1.188
  555SOL    MW4 2252   1.334   0.101   1.224
  556SOL     OW 2253   1.337   0.389   1.117
  556SOL    HW2 2254   1.326   0.304   1.158
  556SOL    HW3 2255   1.259   0.439   1.143
  556SOL    MW4 2256   1.325   0.385   1.126
  557SOL     OW 2257   1.588   0.498   1.194
  557SOL    HW2 2258   1.580   0.591   1.173
  557SOL    HW3 2259   1.511   0.458   1.154
  557SOL    MW4 2260   1.577   0.505   1.186
  558SOL     OW 2261   1.569   0.765   1.123
  558SOL    HW2 2262   1.636   0.827   1.152
  558SOL    HW3 2263   1.561   0.780   1.029
  558SOL    MW4 2264   1.577   0.775   1.115
  559SOL     OW 2265   1.334   0.911   1.226
  559SOL    HW2 2266   1.417   0.878   1.191
  559SOL    HW3 2267   1.268   0.855   1.186
  559SOL    MW4 2268   1.336   0.899   1.216
  560SOL     OW 2269   1.338   1.150   1.090
  560SOL    HW2 2270   1.329   1.064   1.132
  560SOL    HW3 2271   1.360   1.129   0.999
  560SOL    MW4 2272   1.340   1.136   1.083
  561SOL     OW 2273   1.557   1.286   1.201
  561SOL    HW2 2274   1.634   1.238   1.171
  561SOL    HW3 2275   1.482   1.235   1.168
  561SOL    MW4 2276   1.557   1.273   1.193
  562SOL     OW 2277   1.570   1.538   1.109
  562SOL    HW2 2278   1.640   1.573   1.164
  562SOL    HW3 2279   1.568   1.444   1.128
  562SOL    MW4 2280   1.579   1.530   1.119
  563SOL     OW 2281   1.334   1.658   1.235
  563SOL    HW2 2282   1.415   1.619   1.203
  563SOL    HW3 2283   1.264   1.609   1.192
  563SOL    MW4 2284   1.335   1.646   1.225
  564SOL     OW 2285   1.346   1.893   1.114
  564SOL    HW2 2286   1.327   1.810   1.159
  564SOL    HW3 2287   1.274   1.951   1.139
  564SOL    MW4 2288   1.334   1.889   1.123
  565SOL     OW 2289   1.570   2.010   1.207
  565SOL    HW2 2290   1.558   2.096   1.166
  565SOL    HW3 2291   1.501   1.956   1.169
  565SOL    MW4 2292   1.559   2.015   1.197
  566SOL     OW 2293   1.545   2.278   1.125
  566SOL    HW2 2294   1.474   2.334   1.155
  566SOL    HW3 2295   1.550   2.294   1.030
  566SOL    MW4 2296   1.536   2.288   1.116
  567SOL     OW 2297   1.343   2.438   1.205
  567SOL    HW2 2298   1.357   2.440   1.300
  567SOL    HW3 2299   1.321   2.528   1.182
  567SOL    MW4 2300   1.342   2.450   1.215
  568SOL     OW 2301   1.322   2.699   1.097
  568SOL    HW2 2302   1.388   2.758   1.133
  568SOL    HW3 2303   1.239   2.741   1.118
  568SOL    MW4 2304   1.320   2.712   1.105
  569SOL     OW 2305   1.573   2.812   1.214
  569SOL    HW2 2306   1.641   2.752   1.184
  569SOL    HW3 2307   1.586   2.891   1.161
  569SOL    MW4 2308   1.584   2.815   1.203
  570SOL     OW 2309   1.554   3.060   1.102
  570SOL    HW2 2310   1.639   3.103   1.116
  570SOL    HW3 2311   1.494   3.107   1.159
  570SOL    MW4 2312   1.558   3.072   1.111
  571SOL     OW 2313   1.333   3.176   1.223
  571SOL    HW2 2314   1.345   3.187   1.318
  571SOL    HW3 2315   1.252   3.127   1.214
  571SOL    MW4 2316   1.324   3.171   1.235
  572SOL     OW 2317   1.344   3.450   1.120
  572SOL    HW2 2318   1.343   3.359   1.150
  572SOL    HW3 2319   1.341   3.443   1.025
  572SOL    MW4 2320   1.344   3.437   1.111
  573SOL     OW 2321   1.611   3.563   1.207
  573SOL    HW2 2322   1.603   3.656   1.185
  573SOL    HW3 2323   1.527   3.525   1.182
  573SOL    MW4 2324   1.599   3.570   1.201
  574SOL     OW 2325   1.561   3.843   1.135
  574SOL    HW2 2326   1.484   3.890   1.167
  574SOL    HW3 2327   1.552   3.845   1.040
  574SOL    MW4 2328   1.550   3.849   1.127
  575SOL     OW 2329   1.330   3.985   1.235
  575SOL    HW2 2330   1.327   4.058   1.174
  575SOL    HW3 2331   1.260   3.926   1.206
  575SOL    MW4 2332   1.320   3.987   1.223
  576SOL     OW 2333   1.318   4.222   1.076
  576SOL    HW2 2334   1.252   4.284   1.107
  576SOL    HW3 2335   1.318   4.232   0.980
  576SOL    MW4 2336   1.310   4.231   1.067
  577SOL     OW 2337   1.547   4.360   1.219
  577SOL    HW2 2338   1.539   4.361   1.314
  577SOL    HW3 2339   1.463   4.325   1.189
  577SOL    MW4 2340   1.535   4.355   1.227
  578SOL     OW 2341   2.023   0.005   1.154
  578SOL    HW2 2342   2.035  -0.082   1.191
  578SOL    HW3 2343   2.055  -0.002   1.064
  578SOL    MW4 2344   2.029  -0.007   1.147
  579SOL     OW 2345   1.778   0.096   1.220
  579SOL    HW2 2346   1.790   0.184   1.185
  579SOL    HW3 2347   1.860   0.050   1.200
  579SOL    MW4 2348   1.790   0.101   1.213
  580SOL     OW 2349   1.792   0.342   1.101
  580SOL    HW2 2350   1.720   0.396   1.133
  580SOL    HW3 2351   1.790   0.355   1.006
  580SOL    MW4 2352   1.782   0.351   1.092
  581SOL     OW 2353   1.989   0.498   1.263
  581SOL    HW2 2354   1.986   0.476   1.357
  581SOL    HW3 2355   1.930   0.435   1.222
  581SOL    MW4 2356   1.981   0.487   1.270
  582SOL     OW 2357   1.956   0.757   1.156
  582SOL    HW2 2358   1.976   0.667   1.178
  582SOL    HW3 2359   1.977   0.765   1.063
  582SOL    MW4 2360   1.961   0.746   1.146
  583SOL     OW 2361   1.765   0.935   1.243
  583SOL    HW2 2362   1.764   0.947   1.338
  583SOL    HW3 2363   1.838   0.875   1.228
  583SOL    MW4 2364   1.774   0.929   1.254
  584SOL     OW 2365   1.789   1.162   1.097
  584SOL    HW2 2366   1.776   1.082   1.149
  584SOL    HW3 2367   1.765   1.137   1.008
  584SOL    MW4 2368   1.784   1.148   1.092
  585SOL     OW 2369   2.012   1.265   1.236
  585SOL    HW2 2370   2.087   1.233   1.184
  585SOL    HW3 2371   1.936   1.226   1.194
  585SOL    MW4 2372   2.012   1.255   1.224
  586SOL     OW 2373   2.028   1.520   1.161
  586SOL    HW2 2374   2.008   1.435   1.199
  586SOL    HW3 2375   2.005   1.512   1.069
  586SOL    MW4 2376   2.023   1.508   1.154
  587SOL     OW 2377   1.792   1.648   1.244
  587SOL    HW2 2378   1.797   1.737   1.210
  587SOL    HW3 2379   1.871   1.605   1.211
  587SOL    MW4 2380   1.803   1.654   1.235
  588SOL     OW 2381   1.799   1.914   1.130
  588SOL    HW2 2382   1.712   1.942   1.161
  588SOL    HW3 2383   1.792   1.916   1.035
  588SOL    MW4 2384   1.786   1.918   1.122
  589SOL     OW 2385   2.033   2.011   1.233
  589SOL    HW2 2386   2.024   2.020   1.327
  589SOL    HW3 2387   1.946   1.984   1.203
  589SOL    MW4 2388   2.020   2.008   1.241
  590SOL     OW 2389   2.001   2.302   1.162
  590SOL    HW2 2390   2.086   2.339   1.185
  590SOL    HW3 2391   2.008   2.209   1.185
  590SOL    MW4 2392   2.013   2.295   1.168
  591SOL     OW 2393   1.761   2.426   1.227
  591SOL    HW2 2394   1.831   2.374   1.188
  591SOL    HW3 2395   1.680   2.388   1.193
  591SOL    MW4 2396   1.760   2.414   1.218
  592SOL     OW 2397   1.797   2.678   1.114
  592SOL    HW2 2398   1.789   2.588   1.145
  592SOL    HW3 2399   1.810   2.670   1.020
  592SOL    MW4 2400   1.797   2.665   1.106
  593SOL     OW 2401   2.015   2.791   1.257
  593SOL    HW2 2402   2.009   2.883   1.229
  593SOL    HW3 2403   1.932   2.753   1.230
  593SOL    MW4 2404   2.003   2.798   1.250
  594SOL     OW 2405   2.040   3.052   1.127
  594SOL    HW2 2406   1.960   3.103   1.143
  594SOL    HW3 2407   2.035   3.029   1.034
  594SOL    MW4 2408   2.029   3.056   1.117
  595SOL     OW 2409   1.785   3.187   1.175
  595SOL    HW2 2410   1.777   3.204   1.268
  595SOL    HW3 2411   1.811   3.272   1.137
  595SOL    MW4 2412   1.788   3.200   1.182
  596SOL     OW 2413   1.821   3.451   1.070
  596SOL    HW2 2414   1.893   3.496   1.115
  596SOL    HW3 2415   1.743   3.477   1.119
  596SOL    MW4 2416   1.820   3.461   1.082
  597SOL     OW 2417   2.010   3.578   1.231
  597SOL    HW2 2418   2.007   3.577   1.326
  597SOL    HW3 2419   2.081   3.517   1.209
  597SOL    MW4 2420   2.019   3.570   1.240
  598SOL     OW 2421   2.045   3.837   1.136
  598SOL    HW2 2422   1.959   3.880   1.139
  598SOL    HW3 2423   2.028   3.750   1.173
  598SOL    MW4 2424   2.031   3.831   1.141
  599SOL     OW 2425   1.812   3.981   1.175
  599SOL    HW2 2426   1.823   3.991   1.270
  599SOL    HW3 2427   1.730   3.935   1.165
  599SOL    MW4 2428   1.803   3.977   1.186
  600SOL     OW 2429   1.787   4.246   1.115
  600SOL    HW2 2430   1.780   4.154   1.140
  600SOL    HW3 2431   1.712   4.288   1.158
  600SOL    MW4 2432   1.776   4.240   1.124
  601SOL     OW 2433   2.003   4.394   1.215
  601SOL    HW2 2434   1.995   4.392   1.311
  601SOL    HW3 2435   1.938   4.330   1.185
  601SOL    MW4 2436   1.993   4.385   1.224
  602SOL     OW 2437   2.426   0.004   1.149
  602SOL    HW2 2438   2.513   0.033   1.176
  602SOL    HW3 2439   2.366   0.053   1.205
  602SOL    MW4 2440   2.429   0.015   1.160
  603SOL     OW 2441   2.219   0.157   1.261
  603SOL    HW2 2442   2.212   0.248   1.232
  603SOL    HW3 2443   2.140   0.115   1.227
  603SOL    MW4 2444   2.207   0.164   1.253
  604SOL     OW 2445   2.211   0.410   1.134
  604SOL    HW2 2446   2.129   0.446   1.170
  604SOL    HW3 2447   2.198   0.411   1.039
  604SOL    MW4 2448   2.198   0.415   1.126
  605SOL     OW 2449   2.476   0.507   1.247
  605SOL    HW2 2450   2.482   0.509   1.342
  605SOL    HW3 2451   2.389   0.470   1.229
  605SOL    MW4 2452   2.465   0.503   1.257
  606SOL     OW 2453   2.403   0.744   1.110
  606SOL    HW2 2454   2.418   0.655   1.142
  606SOL    HW3 2455   2.415   0.737   1.015
  606SOL    MW4 2456   2.407   0.731   1.101
  607SOL     OW 2457   2.193   0.881   1.226
  607SOL    HW2 2458   2.260   0.820   1.195
  607SOL    HW3 2459   2.110   0.840   1.200
  607SOL    MW4 2460   2.191   0.867   1.218
  608SOL     OW 2461   2.229   1.136   1.133
  608SOL    HW2 2462   2.311   1.162   1.175
  608SOL    HW3 2463   2.213   1.047   1.164
  608SOL    MW4 2464   2.238   1.127   1.142
  609SOL     OW 2465   2.466   1.232   1.245
  609SOL    HW2 2466   2.547   1.193   1.213
  609SOL    HW3 2467   2.470   1.323   1.216
  609SOL    MW4 2468   2.477   1.239   1.237
  610SOL     OW 2469   2.483   1.488   1.130
  610SOL    HW2 2470   2.406   1.541   1.154
  610SOL    HW3 2471   2.477   1.479   1.035
  610SOL    MW4 2472   2.472   1.494   1.121
  611SOL     OW 2473   2.266   1.633   1.255
  611SOL    HW2 2474   2.281   1.722   1.223
  611SOL    HW3 2475   2.184   1.606   1.214
  611SOL    MW4 2476   2.257   1.641   1.245
  612SOL     OW 2477   2.273   1.882   1.156
  612SOL    HW2 2478   2.188   1.908   1.191
  612SOL    HW3 2479   2.260   1.880   1.061
  612SOL    MW4 2480   2.260   1.886   1.148
  613SOL     OW 2481   2.491   2.000   1.269
  613SOL    HW2 2482   2.569   1.964   1.226
  613SOL    HW3 2483   2.418   1.950   1.233
  613SOL    MW4 2484   2.492   1.989   1.258
  614SOL     OW 2485   2.458   2.259   1.162
  614SOL    HW2 2486   2.452   2.173   1.204
  614SOL    HW3 2487   2.443   2.242   1.069
  614SOL    MW4 2488   2.455   2.245   1.155
  615SOL     OW 2489   2.238   2.413   1.231
  615SOL    HW2 2490   2.227   2.413   1.327
  615SOL    HW3 2491   2.316   2.359   1.216
  615SOL    MW4 2492   2.247   2.406   1.242
  616SOL     OW 2493   2.241   2.672   1.137
  616SOL    HW2 2494   2.251   2.582   1.168
  616SOL    HW3 2495   2.157   2.700   1.173
  616SOL    MW4 2496   2.231   2.664   1.146
  617SOL     OW 2497   2.460   2.821   1.231
  617SOL    HW2 2498   2.472   2.824   1.326
  617SOL    HW3 2499   2.379   2.772   1.219
  617SOL    MW4 2500   2.451   2.815   1.242
  618SOL     OW 2501   2.454   3.080   1.122
  618SOL    HW2 2502   2.372   3.114   1.157
  618SOL    HW3 2503   2.456   2.988   1.150
  618SOL    MW4 2504   2.444   3.072   1.130
  619SOL     OW 2505   2.233   3.181   1.252
  619SOL    HW2 2506   2.240   3.270   1.218
  619SOL    HW3 2507   2.155   3.145   1.210
  619SOL    MW4 2508   2.223   3.188   1.242
  620SOL     OW 2509   2.237   3.433   1.144
  620SOL    HW2 2510   2.321   3.471   1.170
  620SOL    HW3 2511   2.230   3.453   1.050
  620SOL    MW4 2512   2.247   3.441   1.135
  621SOL     OW 2513   2.467   3.574   1.210
  621SOL    HW2 2514   2.473   3.570   1.305
  621SOL    HW3 2515   2.454   3.667   1.190
  621SOL    MW4 2516   2.466   3.586   1.220
  622SOL     OW 2517   2.439   3.839   1.154
  622SOL    HW2 2518   2.376   3.908   1.176
  622SOL    HW3 2519   2.451   3.847   1.059
  622SOL    MW4 2520   2.433   3.849   1.144
  623SOL     OW 2521   2.236   4.024   1.233
  623SOL    HW2 2522   2.206   4.098   1.181
  623SOL    HW3 2523   2.174   3.953   1.213
  623SOL    MW4 2524   2.224   4.024   1.223
  624SOL     OW 2525   2.227   4.257   1.096
  624SOL    HW2 2526   2.143   4.297   1.117
  624SOL    HW3 2527   2.242   4.278   1.004
  624SOL    MW4 2528   2.218   4.265   1.086
  625SOL     OW 2529   2.457   4.415   1.225
  625SOL    HW2 2530   2.385   4.363   1.188
  625SOL    HW3 2531   2.442   4.503   1.193
  625SOL    MW4 2532   2.445   4.420   1.216
  626SOL     OW 2533   2.892   4.643   1.125
  626SOL    HW2 2534   2.886   4.560   1.171
  626SOL    HW3 2535   2.907   4.619   1.033
  626SOL    MW4 2536   2.893   4.629   1.119
  627SOL     OW 2537   2.670   0.099   1.250
  627SOL    HW2 2538   2.684   0.092   1.344
  627SOL    HW3 2539   2.749   0.063   1.210
  627SOL    MW4 2540   2.682   0.093   1.257
  628SOL     OW 2541   2.706   0.368   1.150
  628SOL    HW2 2542   2.681   0.291   1.200
  628SOL    HW3 2543   2.635   0.430   1.164
  628SOL    MW4 2544   2.693   0.366   1.158
  629SOL     OW 2545   2.934   0.486   1.241
  629SOL    HW2 2546   2.938   0.567   1.189
  629SOL    HW3 2547   2.854   0.443   1.211
  629SOL    MW4 2548   2.924   0.491   1.230
  630SOL     OW 2549   2.879   0.743   1.095
  630SOL    HW2 2550   2.947   0.805   1.118
  630SOL    HW3 2551   2.802   0.771   1.145
  630SOL    MW4 2552   2.878   0.755   1.105
  631SOL     OW 2553   2.640   0.840   1.252
  631SOL    HW2 2554   2.651   0.926   1.213
  631SOL    HW3 2555   2.561   0.804   1.210
  631SOL    MW4 2556   2.631   0.846   1.241
  632SOL     OW 2557   2.703   1.098   1.091
  632SOL    HW2 2558   2.779   1.154   1.105
  632SOL    HW3 2559   2.685   1.106   0.997
  632SOL    MW4 2560   2.710   1.107   1.080
  633SOL     OW 2561   2.878   1.284   1.230
  633SOL    HW2 2562   2.885   1.286   1.326
  633SOL    HW3 2563   2.910   1.370   1.202
  633SOL    MW4 2564   2.883   1.296   1.239
  634SOL     OW 2565   2.923   1.554   1.148
  634SOL    HW2 2566   2.997   1.612   1.163
  634SOL    HW3 2567   2.919   1.543   1.053
  634SOL    MW4 2568   2.932   1.560   1.138
  635SOL     OW 2569   2.696   1.621   1.278
  635SOL    HW2 2570   2.780   1.584   1.250
  635SOL    HW3 2571   2.630   1.573   1.229
  635SOL    MW4 2572   2.699   1.610   1.268
  636SOL     OW 2573   2.702   1.864   1.147
  636SOL    HW2 2574   2.776   1.905   1.191
  636SOL    HW3 2575   2.700   1.775   1.182
  636SOL    MW4 2576   2.711   1.858   1.157
  637SOL     OW 2577   2.929   2.028   1.223
  637SOL    HW2 2578   2.930   2.046   1.317
  637SOL    HW3 2579   2.933   2.115   1.182
  637SOL    MW4 2580   2.930   2.042   1.230
  638SOL     OW 2581   2.903   2.281   1.112
  638SOL    HW2 2582   2.968   2.333   1.159
  638SOL    HW3 2583   2.827   2.279   1.170
  638SOL    MW4 2584   2.901   2.288   1.126
  639SOL     OW 2585   2.674   2.404   1.252
  639SOL    HW2 2586   2.675   2.410   1.347
  639SOL    HW3 2587   2.601   2.346   1.232
  639SOL    MW4 2588   2.664   2.397   1.262
  640SOL     OW 2589   2.647   2.656   1.126
  640SOL    HW2 2590   2.652   2.573   1.173
  640SOL    HW3 2591   2.568   2.699   1.160
  640SOL    MW4 2592   2.637   2.651   1.136
  641SOL     OW 2593   2.854   2.829   1.209
  641SOL    HW2 2594   2.850   2.830   1.304
  641SOL    HW3 2595   2.779   2.776   1.183
  641SOL    MW4 2596   2.844   2.822   1.218
  642SOL     OW 2597   2.898   3.082   1.105
  642SOL    HW2 2598   2.893   2.993   1.140
  642SOL    HW3 2599   2.913   3.070   1.011
  642SOL    MW4 2600   2.899   3.069   1.097
  643SOL     OW 2601   2.676   3.215   1.232
  643SOL    HW2 2602   2.749   3.183   1.178
  643SOL    HW3 2603   2.601   3.163   1.204
  643SOL    MW4 2604   2.676   3.204   1.221
  644SOL     OW 2605   2.711   3.458   1.117
  644SOL    HW2 2606   2.707   3.377   1.169
  644SOL    HW3 2607   2.636   3.509   1.147
  644SOL    MW4 2608   2.700   3.454   1.128
  645SOL     OW 2609   2.916   3.601   1.249
  645SOL    HW2 2610   2.988   3.557   1.204
  645SOL    HW3 2611   2.837   3.556   1.219
  645SOL    MW4 2612   2.915   3.589   1.239
  646SOL     OW 2613   2.873   3.883   1.183
  646SOL    HW2 2614   2.957   3.928   1.192
  646SOL    HW3 2615   2.891   3.795   1.216
  646SOL    MW4 2616   2.887   3.877   1.189
  647SOL     OW 2617   2.662   4.049   1.155
  647SOL    HW2 2618   2.737   3.992   1.174
  647SOL    HW3 2619   2.586   3.991   1.157
  647SOL    MW4 2620   2.662   4.034   1.158
  648SOL     OW 2621   2.655   4.317   1.077
  648SOL    HW2 2622   2.644   4.225   1.101
  648SOL    HW3 2623   2.582   4.361   1.120
  648SOL    MW4 2624   2.644   4.311   1.086
  649SOL     OW 2625   2.854   4.402   1.234
  649SOL    HW2 2626   2.927   4.347   1.204
  649SOL    HW3 2627   2.782   4.379   1.176
  649SOL    MW4 2628   2.854   4.392   1.223
  650SOL     OW 2629   3.360   4.630   1.125
  650SOL    HW2 2630   3.428   4.693   1.152
  650SOL    HW3 2631   3.279   4.666   1.162
  650SOL    MW4 2632   3.359   4.643   1.134
  651SOL     OW 2633   3.141   0.087   1.234
  651SOL    HW2 2634   3.118   0.115   1.322
  651SOL    HW3 2635   3.060   0.047   1.200
  651SOL    MW4 2636   3.127   0.086   1.241
  652SOL     OW 2637   3.163   0.353   1.148
  652SOL    HW2 2638   3.160   0.263   1.180
  652SOL    HW3 2639   3.093   0.399   1.196
  652SOL    MW4 2640   3.153   0.348   1.158
  653SOL     OW 2641   3.398   0.485   1.203
  653SOL    HW2 2642   3.393   0.575   1.170
  653SOL    HW3 2643   3.319   0.443   1.170
  653SOL    MW4 2644   3.387   0.492   1.194
  654SOL     OW 2645   3.390   0.761   1.113
  654SOL    HW2 2646   3.301   0.770   1.148
  654SOL    HW3 2647   3.379   0.761   1.018
  654SOL    MW4 2648   3.377   0.762   1.105
  655SOL     OW 2649   3.120   0.867   1.195
  655SOL    HW2 2650   3.131   0.867   1.290
  655SOL    HW3 2651   3.117   0.960   1.172
  655SOL    MW4 2652   3.121   0.880   1.204
  656SOL     OW 2653   3.130   1.157   1.155
  656SOL    HW2 2654   3.206   1.196   1.198
  656SOL    HW3 2655   3.056   1.207   1.188
  656SOL    MW4 2656   3.130   1.168   1.165
  657SOL     OW 2657   3.385   1.275   1.234
  657SOL    HW2 2658   3.379   1.286   1.328
  657SOL    HW3 2659   3.371   1.362   1.198
  657SOL    MW4 2660   3.382   1.288   1.241
  658SOL     OW 2661   3.366   1.542   1.139
  658SOL    HW2 2662   3.446   1.575   1.180
  658SOL    HW3 2663   3.296   1.595   1.178
  658SOL    MW4 2664   3.367   1.554   1.150
  659SOL     OW 2665   3.150   1.697   1.215
  659SOL    HW2 2666   3.166   1.692   1.309
  659SOL    HW3 2667   3.164   1.789   1.192
  659SOL    MW4 2668   3.154   1.708   1.224
  660SOL     OW 2669   3.168   1.968   1.094
  660SOL    HW2 2670   3.241   2.016   1.132
  660SOL    HW3 2671   3.090   2.006   1.135
  660SOL    MW4 2672   3.167   1.979   1.104
  661SOL     OW 2673   3.390   2.051   1.235
  661SOL    HW2 2674   3.469   2.004   1.209
  661SOL    HW3 2675   3.392   2.132   1.185
  661SOL    MW4 2676   3.401   2.056   1.225
  662SOL     OW 2677   3.353   2.298   1.091
  662SOL    HW2 2678   3.412   2.361   1.131
  662SOL    HW3 2679   3.266   2.325   1.117
  662SOL    MW4 2680   3.350   2.310   1.099
  663SOL     OW 2681   3.137   2.434   1.207
  663SOL    HW2 2682   3.149   2.437   1.302
  663SOL    HW3 2683   3.157   2.523   1.178
  663SOL    MW4 2684   3.141   2.446   1.216
  664SOL     OW 2685   3.102   2.712   1.117
  664SOL    HW2 2686   3.012   2.733   1.143
  664SOL    HW3 2687   3.098   2.701   1.022
  664SOL    MW4 2688   3.090   2.713   1.108
  665SOL     OW 2689   3.339   2.842   1.221
  665SOL    HW2 2690   3.342   2.930   1.183
  665SOL    HW3 2691   3.256   2.806   1.191
  665SOL    MW4 2692   3.328   2.849   1.212
  666SOL     OW 2693   3.353   3.113   1.134
  666SOL    HW2 2694   3.434   3.146   1.174
  666SOL    HW3 2695   3.283   3.154   1.186
  666SOL    MW4 2696   3.354   3.123   1.146
  667SOL     OW 2697   3.105   3.218   1.239
  667SOL    HW2 2698   3.120   3.300   1.192
  667SOL    HW3 2699   3.038   3.172   1.188
  667SOL    MW4 2700   3.098   3.223   1.226
  668SOL     OW 2701   3.166   3.472   1.123
  668SOL    HW2 2702   3.239   3.530   1.146
  668SOL    HW3 2703   3.166   3.469   1.028
  668SOL    MW4 2704   3.176   3.479   1.114
  669SOL     OW 2705   3.372   3.665   1.201
  669SOL    HW2 2706   3.373   3.658   1.297
  669SOL    HW3 2707   3.449   3.617   1.172
  669SOL    MW4 2708   3.382   3.658   1.210
  670SOL     OW 2709   3.366   3.937   1.130
  670SOL    HW2 2710   3.287   3.975   1.170
  670SOL    HW3 2711   3.358   3.843   1.146
  670SOL    MW4 2712   3.354   3.930   1.137
  671SOL     OW 2713   3.121   4.017   1.241
  671SOL    HW2 2714   3.128   4.022   1.336
  671SOL    HW3 2715   3.094   4.105   1.215
  671SOL    MW4 2716   3.119   4.030   1.250
  672SOL     OW 2717   3.095   4.283   1.146
  672SOL    HW2 2718   3.171   4.316   1.195
  672SOL    HW3 2719   3.125   4.279   1.055
  672SOL    MW4 2720   3.109   4.287   1.141
  673SOL     OW 2721   3.330   4.388   1.253
  673SOL    HW2 2722   3.415   4.346   1.240
  673SOL    HW3 2723   3.339   4.473   1.210
  673SOL    MW4 2724   3.343   4.394   1.246
  674SOL     OW 2725   3.852   4.662   1.141
  674SOL    HW2 2726   3.864   4.570   1.163
  674SOL    HW3 2727   3.862   4.666   1.046
  674SOL    MW4 2728   3.855   4.650   1.132
  675SOL     OW 2729   3.590   0.127   1.189
  675SOL    HW2 2730   3.609   0.220   1.176
  675SOL    HW3 2731   3.672   0.082   1.167
  675SOL    MW4 2732   3.603   0.133   1.184
  676SOL     OW 2733   3.633   0.378   1.098
  676SOL    HW2 2734   3.706   0.424   1.140
  676SOL    HW3 2735   3.555   0.420   1.134
  676SOL    MW4 2736   3.632   0.390   1.108
  677SOL     OW 2737   3.850   0.487   1.240
  677SOL    HW2 2738   3.932   0.454   1.203
  677SOL    HW3 2739   3.837   0.572   1.196
  677SOL    MW4 2740   3.859   0.494   1.229
  678SOL     OW 2741   3.840   0.743   1.150
  678SOL    HW2 2742   3.913   0.798   1.179
  678SOL    HW3 2743   3.762   0.786   1.186
  678SOL    MW4 2744   3.839   0.756   1.159
  679SOL     OW 2745   3.609   0.876   1.236
  679SOL    HW2 2746   3.611   0.969   1.212
  679SOL    HW3 2747   3.534   0.840   1.188
  679SOL    MW4 2748   3.599   0.883   1.226
  680SOL     OW 2749   3.613   1.131   1.147
  680SOL    HW2 2750   3.693   1.181   1.157
  680SOL    HW3 2751   3.543   1.191   1.172
  680SOL    MW4 2752   3.614   1.145   1.151
  681SOL     OW 2753   3.839   1.284   1.249
  681SOL    HW2 2754   3.867   1.276   1.340
  681SOL    HW3 2755   3.851   1.376   1.228
  681SOL    MW4 2756   3.844   1.295   1.258
  682SOL     OW 2757   3.861   1.538   1.156
  682SOL    HW2 2758   3.930   1.601   1.178
  682SOL    HW3 2759   3.852   1.543   1.061
  682SOL    MW4 2760   3.869   1.547   1.147
  683SOL     OW 2761   3.618   1.635   1.228
  683SOL    HW2 2762   3.623   1.728   1.205
  683SOL    HW3 2763   3.708   1.603   1.217
  683SOL    MW4 2764   3.631   1.643   1.224
  684SOL     OW 2765   3.619   1.909   1.145
  684SOL    HW2 2766   3.677   1.973   1.186
  684SOL    HW3 2767   3.617   1.934   1.053
  684SOL    MW4 2768   3.627   1.921   1.139
  685SOL     OW 2769   3.785   2.126   1.268
  685SOL    HW2 2770   3.780   2.128   1.364
  685SOL    HW3 2771   3.868   2.082   1.249
  685SOL    MW4 2772   3.795   2.121   1.278
  686SOL     OW 2773   3.782   2.372   1.154
  686SOL    HW2 2774   3.869   2.410   1.166
  686SOL    HW3 2775   3.782   2.294   1.210
  686SOL    MW4 2776   3.793   2.366   1.163
  687SOL     OW 2777   3.546   2.480   1.211
  687SOL    HW2 2778   3.549   2.478   1.307
  687SOL    HW3 2779   3.629   2.442   1.183
  687SOL    MW4 2780   3.557   2.475   1.220
  688SOL     OW 2781   3.593   2.739   1.147
  688SOL    HW2 2782   3.587   2.646   1.169
  688SOL    HW3 2783   3.508   2.775   1.171
  688SOL    MW4 2784   3.581   2.732   1.153
  689SOL     OW 2785   3.833   2.870   1.210
  689SOL    HW2 2786   3.839   2.856   1.305
  689SOL    HW3 2787   3.756   2.819   1.184
  689SOL    MW4 2788   3.824   2.861   1.219
  690SOL     OW 2789   3.813   3.144   1.142
  690SOL    HW2 2790   3.830   3.052   1.166
  690SOL    HW3 2791   3.821   3.146   1.047
  690SOL    MW4 2792   3.816   3.132   1.133
  691SOL     OW 2793   3.582   3.261   1.274
  691SOL    HW2 2794   3.561   3.336   1.219
  691SOL    HW3 2795   3.664   3.227   1.238
  691SOL    MW4 2796   3.590   3.266   1.262
  692SOL     OW 2797   3.569   3.508   1.122
  692SOL    HW2 2798   3.650   3.552   1.148
  692SOL    HW3 2799   3.559   3.529   1.029
  692SOL    MW4 2800   3.578   3.517   1.113
  693SOL     OW 2801   3.788   3.621   1.220
  693SOL    HW2 2802   3.789   3.600   1.314
  693SOL    HW3 2803   3.793   3.717   1.217
  693SOL    MW4 2804   3.789   3.631   1.232
  694SOL     OW 2805   3.808   3.898   1.164
  694SOL    HW2 2806   3.736   3.948   1.202
  694SOL    HW3 2807   3.791   3.899   1.070
  694SOL    MW4 2808   3.797   3.905   1.157
  695SOL     OW 2809   3.585   4.011   1.285
  695SOL    HW2 2810   3.578   4.008   1.380
  695SOL    HW3 2811   3.507   3.966   1.253
  695SOL    MW4 2812   3.574   4.005   1.293
  696SOL     OW 2813   3.576   4.270   1.197
  696SOL    HW2 2814   3.571   4.182   1.234
  696SOL    HW3 2815   3.585   4.256   1.103
  696SOL    MW4 2816   3.577   4.257   1.190
  697SOL     OW 2817   3.822   4.388   1.223
  697SOL    HW2 2818   3.827   4.391   1.319
  697SOL    HW3 2819   3.736   4.349   1.205
  697SOL    MW4 2820   3.811   4.383   1.233
  698SOL     OW 2821   4.280   4.666   1.117
  698SOL    HW2 2822   4.264   4.580   1.155
  698SOL    HW3 2823   4.217   4.724   1.159
  698SOL    MW4 2824   4.270   4.662   1.127
  699SOL     OW 2825   4.062   0.130   1.250
  699SOL    HW2 2826   4.032   0.131   1.341
  699SOL    HW3 2827   3.991   0.086   1.202
  699SOL    MW4 2828   4.049   0.124   1.256
  700SOL     OW 2829   4.075   0.376   1.132
  700SOL    HW2 2830   4.080   0.294   1.181
  700SOL    HW3 2831   4.067   0.348   1.040
  700SOL    MW4 2832   4.075   0.361   1.126
  701SOL     OW 2833   4.329   0.468   1.246
  701SOL    HW2 2834   4.316   0.469   1.340
  701SOL    HW3 2835   4.246   0.436   1.210
  701SOL    MW4 2836   4.316   0.464   1.253
  702SOL     OW 2837   4.302   0.732   1.148
  702SOL    HW2 2838   4.330   0.646   1.179
  702SOL    HW3 2839   4.279   0.719   1.057
  702SOL    MW4 2840   4.303   0.719   1.140
  703SOL     OW 2841   4.080   0.854   1.247
  703SOL    HW2 2842   4.093   0.843   1.341
  703SOL    HW3 2843   4.149   0.801   1.207
  703SOL    MW4 2844   4.091   0.846   1.254
  704SOL     OW 2845   4.045   1.118   1.131
  704SOL    HW2 2846   4.071   1.029   1.154
  704SOL    HW3 2847   3.963   1.132   1.179
  704SOL    MW4 2848   4.038   1.108   1.140
  705SOL     OW 2849   4.284   1.282   1.219
  705SOL    HW2 2850   4.307   1.295   1.311
  705SOL    HW3 2851   4.205   1.227   1.222
  705SOL    MW4 2852   4.277   1.276   1.232
  706SOL     OW 2853   4.277   1.552   1.124
  706SOL    HW2 2854   4.263   1.467   1.165
  706SOL    HW3 2855   4.352   1.589   1.169
  706SOL    MW4 2856   4.285   1.546   1.135
  707SOL     OW 2857   4.052   1.706   1.220
  707SOL    HW2 2858   4.057   1.699   1.315
  707SOL    HW3 2859   4.129   1.659   1.187
  707SOL    MW4 2860   4.063   1.699   1.228
  708SOL     OW 2861   4.007   1.983   1.153
  708SOL    HW2 2862   4.005   1.895   1.190
  708SOL    HW3 2863   3.995   1.970   1.059
  708SOL    MW4 2864   4.005   1.970   1.145
  709SOL     OW 2865   4.240   2.091   1.255
  709SOL    HW2 2866   4.227   2.177   1.215
  709SOL    HW3 2867   4.164   2.040   1.228
  709SOL    MW4 2868   4.228   2.096   1.246
  710SOL     OW 2869   4.236   2.353   1.153
  710SOL    HW2 2870   4.158   2.385   1.199
  710SOL    HW3 2871   4.209   2.349   1.061
  710SOL    MW4 2872   4.222   2.356   1.147
  711SOL     OW 2873   4.018   2.499   1.241
  711SOL    HW2 2874   4.010   2.505   1.336
  711SOL    HW3 2875   4.010   2.589   1.211
  711SOL    MW4 2876   4.016   2.512   1.250
  712SOL     OW 2877   4.046   2.736   1.127
  712SOL    HW2 2878   3.974   2.793   1.155
  712SOL    HW3 2879   4.026   2.717   1.035
  712SOL    MW4 2880   4.034   2.741   1.118
  713SOL     OW 2881   4.274   2.886   1.243
  713SOL    HW2 2882   4.267   2.971   1.200
  713SOL    HW3 2883   4.203   2.833   1.205
  713SOL    MW4 2884   4.264   2.890   1.232
  714SOL     OW 2885   4.286   3.130   1.097
  714SOL    HW2 2886   4.210   3.171   1.137
  714SOL    HW3 2887   4.264   3.126   1.004
  714SOL    MW4 2888   4.273   3.135   1.090
  715SOL     OW 2889   4.067   3.250   1.226
  715SOL    HW2 2890   4.076   3.225   1.318
  715SOL    HW3 2891   3.981   3.218   1.200
  715SOL    MW4 2892   4.057   3.243   1.235
  716SOL     OW 2893   4.027   3.514   1.128
  716SOL    HW2 2894   4.037   3.434   1.181
  716SOL    HW3 2895   3.941   3.547   1.151
  716SOL    MW4 2896   4.017   3.508   1.138
  717SOL     OW 2897   4.265   3.626   1.202
  717SOL    HW2 2898   4.186   3.583   1.169
  717SOL    HW3 2899   4.338   3.577   1.164
  717SOL    MW4 2900   4.264   3.614   1.193
  718SOL     OW 2901   4.277   3.893   1.087
  718SOL    HW2 2902   4.206   3.935   1.135
  718SOL    HW3 2903   4.280   3.804   1.123
  718SOL    MW4 2904   4.268   3.887   1.098
  719SOL     OW 2905   4.070   4.015   1.225
  719SOL    HW2 2906   4.048   4.101   1.189
  719SOL    HW3 2907   3.990   3.963   1.214
  719SOL    MW4 2908   4.056   4.019   1.219
  720SOL     OW 2909   4.040   4.270   1.101
  720SOL    HW2 2910   3.959   4.314   1.128
  720SOL    HW3 2911   4.035   4.268   1.005
  720SOL    MW4 2912   4.029   4.276   1.092
  721SOL     OW 2913   4.247   4.414   1.204
  721SOL    HW2 2914   4.179   4.355   1.170
  721SOL    HW3 2915   4.329   4.377   1.172
  721SOL    MW4 2916   4.249   4.401   1.196
  722SOL     OW 2917   0.267   4.619   1.612
  722SOL    HW2 2918   0.344   4.672   1.591
  722SOL    HW3 2919   0.198   4.652   1.554
  722SOL    MW4 2920   0.268   4.631   1.601
  723SOL     OW 2921   0.049   0.076   1.487
  723SOL    HW2 2922  -0.038   0.060   1.523
  723SOL    HW3 2923   0.036   0.079   1.392
  723SOL    MW4 2924   0.036   0.074   1.479
  724SOL     OW 2925   0.082   0.338   1.571
  724SOL    HW2 2926   0.072   0.331   1.666
  724SOL    HW3 2927   0.080   0.247   1.541
  724SOL    MW4 2928   0.080   0.325   1.580
  725SOL     OW 2929   0.291   0.483   1.484
  725SOL    HW2 2930   0.219   0.426   1.511
  725SOL    HW3 2931   0.282   0.491   1.390
  725SOL    MW4 2932   0.280   0.476   1.475
  726SOL     OW 2933   0.265   0.722   1.619
  726SOL    HW2 2934   0.330   0.777   1.574
  726SOL    HW3 2935   0.269   0.638   1.573
  726SOL    MW4 2936   0.274   0.718   1.607
  727SOL     OW 2937   0.045   0.845   1.528
  727SOL    HW2 2938   0.056   0.939   1.547
  727SOL    HW3 2939   0.110   0.802   1.583
  727SOL    MW4 2940   0.055   0.852   1.538
  728SOL     OW 2941   0.032   1.116   1.576
  728SOL    HW2 2942   0.027   1.117   1.672
  728SOL    HW3 2943   0.102   1.178   1.556
  728SOL    MW4 2944   0.041   1.125   1.586
  729SOL     OW 2945   0.245   1.293   1.505
  729SOL    HW2 2946   0.227   1.370   1.559
  729SOL    HW3 2947   0.240   1.325   1.415
  729SOL    MW4 2948   0.242   1.307   1.500
  730SOL     OW 2949   0.200   1.528   1.633
  730SOL    HW2 2950   0.196   1.524   1.729
  730SOL    HW3 2951   0.124   1.580   1.608
  730SOL    MW4 2952   0.189   1.534   1.642
  731SOL     OW 2953   4.487   1.682   1.506
  731SOL    HW2 2954   4.512   1.772   1.530
  731SOL    HW3 2955   4.501   1.678   1.411
  731SOL    MW4 2956   4.493   1.694   1.497
  732SOL     OW 2957   0.028   1.941   1.611
  732SOL    HW2 2958   0.027   1.923   1.705
  732SOL    HW3 2959  -0.055   1.986   1.594
  732SOL    MW4 2960   0.017   1.944   1.621
  733SOL     OW 2961   0.246   2.086   1.515
  733SOL    HW2 2962   0.168   2.039   1.547
  733SOL    HW3 2963   0.242   2.076   1.420
  733SOL    MW4 2964   0.235   2.078   1.506
  734SOL     OW 2965   0.226   2.342   1.621
  734SOL    HW2 2966   0.226   2.333   1.716
  734SOL    HW3 2967   0.245   2.255   1.588
  734SOL    MW4 2968   0.229   2.330   1.629
  735SOL     OW 2969   4.477   2.445   1.507
  735SOL    HW2 2970   4.398   2.411   1.550
  735SOL    HW3 2971   4.550   2.400   1.550
  735SOL    MW4 2972   4.476   2.435   1.518
  736SOL     OW 2973   4.445   2.717   1.613
  736SOL    HW2 2974   4.357   2.750   1.592
  736SOL    HW3 2975   4.450   2.633   1.567
  736SOL    MW4 2976   4.434   2.711   1.604
  737SOL     OW 2977   0.174   2.862   1.491
  737SOL    HW2 2978   0.248   2.817   1.531
  737SOL    HW3 2979   0.097   2.822   1.533
  737SOL    MW4 2980   0.173   2.851   1.502
  738SOL     OW 2981   0.186   3.108   1.611
  738SOL    HW2 2982   0.121   3.159   1.563
  738SOL    HW3 2983   0.177   3.019   1.577
  738SOL    MW4 2984   0.176   3.103   1.600
  739SOL     OW 2985   4.461   3.215   1.458
  739SOL    HW2 2986   4.477   3.307   1.479
  739SOL    HW3 2987   4.464   3.211   1.362
  739SOL    MW4 2988   4.464   3.227   1.448
  740SOL     OW 2989   0.006   3.474   1.553
  740SOL    HW2 2990   0.006   3.470   1.649
  740SOL    HW3 2991  -0.075   3.519   1.531
  740SOL    MW4 2992  -0.005   3.479   1.563
  741SOL     OW 2993   0.237   3.607   1.473
  741SOL    HW2 2994   0.226   3.686   1.527
  741SOL    HW3 2995   0.165   3.550   1.499
  741SOL    MW4 2996   0.226   3.610   1.484
  742SOL     OW 2997   0.210   3.845   1.627
  742SOL    HW2 2998   0.207   3.870   1.720
  742SOL    HW3 2999   0.288   3.888   1.593
  742SOL    MW4 3000   0.220   3.854   1.635
  743SOL     OW 3001   0.022   4.011   1.491
  743SOL    HW2 3002   0.027   4.104   1.510
  743SOL    HW3 3003   0.087   3.971   1.549
  743SOL    MW4 3004   0.031   4.018   1.501
  744SOL     OW 3005   0.011   4.278   1.518
  744SOL    HW2 3006   0.016   4.281   1.614
  744SOL    HW3 3007  -0.074   4.318   1.498
  744SOL    MW4 3008   0.000   4.284   1.528
  745SOL     OW 3009   0.255   4.392   1.455
  745SOL    HW2 3010   0.171   4.351   1.474
  745SOL    HW3 3011   0.256   4.472   1.508
  745SOL    MW4 3012   0.244   4.397   1.464
  746SOL     OW 3013   0.720   4.620   1.575
  746SOL    HW2 3014   0.802   4.667   1.557
  746SOL    HW3 3015   0.653   4.673   1.532
  746SOL    MW4 3016   0.722   4.633   1.567
  747SOL     OW 3017   0.514   0.119   1.501
  747SOL    HW2 3018   0.515   0.204   1.545
  747SOL    HW3 3019   0.498   0.141   1.409
  747SOL    MW4 3020   0.512   0.133   1.495
  748SOL     OW 3021   0.507   0.365   1.603
  748SOL    HW2 3022   0.587   0.405   1.569
  748SOL    HW3 3023   0.437   0.417   1.563
  748SOL    MW4 3024   0.508   0.377   1.593
  749SOL     OW 3025   0.726   0.491   1.497
  749SOL    HW2 3026   0.739   0.582   1.524
  749SOL    HW3 3027   0.744   0.491   1.403
  749SOL    MW4 3028   0.730   0.503   1.488
  750SOL     OW 3029   0.687   0.749   1.589
  750SOL    HW2 3030   0.682   0.742   1.684
  750SOL    HW3 3031   0.764   0.803   1.572
  750SOL    MW4 3032   0.697   0.755   1.599
  751SOL     OW 3033   0.455   0.882   1.493
  751SOL    HW2 3034   0.458   0.971   1.526
  751SOL    HW3 3035   0.542   0.846   1.512
  751SOL    MW4 3036   0.467   0.889   1.500
  752SOL     OW 3037   0.443   1.135   1.600
  752SOL    HW2 3038   0.529   1.166   1.570
  752SOL    HW3 3039   0.381   1.196   1.560
  752SOL    MW4 3040   0.446   1.147   1.590
  753SOL     OW 3041   0.660   1.278   1.479
  753SOL    HW2 3042   0.654   1.371   1.502
  753SOL    HW3 3043   0.663   1.277   1.384
  753SOL    MW4 3044   0.660   1.290   1.470
  754SOL     OW 3045   0.670   1.551   1.570
  754SOL    HW2 3046   0.740   1.608   1.537
  754SOL    HW3 3047   0.591   1.583   1.528
  754SOL    MW4 3048   0.669   1.563   1.560
  755SOL     OW 3049   0.434   1.648   1.477
  755SOL    HW2 3050   0.424   1.738   1.509
  755SOL    HW3 3051   0.358   1.602   1.512
  755SOL    MW4 3052   0.423   1.654   1.486
  756SOL     OW 3053   0.422   1.898   1.586
  756SOL    HW2 3054   0.434   1.895   1.681
  756SOL    HW3 3055   0.357   1.967   1.573
  756SOL    MW4 3056   0.415   1.907   1.597
  757SOL     OW 3057   0.618   2.063   1.475
  757SOL    HW2 3058   0.700   2.028   1.512
  757SOL    HW3 3059   0.550   2.006   1.511
  757SOL    MW4 3060   0.620   2.051   1.485
  758SOL     OW 3061   0.655   2.326   1.567
  758SOL    HW2 3062   0.583   2.387   1.550
  758SOL    HW3 3063   0.628   2.245   1.526
  758SOL    MW4 3064   0.642   2.324   1.560
  759SOL     OW 3065   0.438   2.500   1.514
  759SOL    HW2 3066   0.436   2.590   1.545
  759SOL    HW3 3067   0.370   2.456   1.565
  759SOL    MW4 3068   0.429   2.506   1.525
  760SOL     OW 3069   0.402   2.771   1.601
  760SOL    HW2 3070   0.394   2.747   1.693
  760SOL    HW3 3071   0.492   2.805   1.593
  760SOL    MW4 3072   0.413   2.772   1.612
  761SOL     OW 3073   0.691   2.811   1.528
  761SOL    HW2 3074   0.683   2.903   1.552
  761SOL    HW3 3075   0.648   2.806   1.442
  761SOL    MW4 3076   0.684   2.823   1.520
  762SOL     OW 3077   0.673   3.073   1.600
  762SOL    HW2 3078   0.755   3.115   1.575
  762SOL    HW3 3079   0.605   3.133   1.568
  762SOL    MW4 3080   0.675   3.087   1.592
  763SOL     OW 3081   0.461   3.223   1.529
  763SOL    HW2 3082   0.379   3.178   1.549
  763SOL    HW3 3083   0.460   3.233   1.434
  763SOL    MW4 3084   0.450   3.218   1.519
  764SOL     OW 3085   0.444   3.480   1.626
  764SOL    HW2 3086   0.475   3.396   1.594
  764SOL    HW3 3087   0.368   3.500   1.570
  764SOL    MW4 3088   0.438   3.472   1.614
  765SOL     OW 3089   0.660   3.578   1.483
  765SOL    HW2 3090   0.732   3.528   1.521
  765SOL    HW3 3091   0.582   3.545   1.529
  765SOL    MW4 3092   0.659   3.567   1.494
  766SOL     OW 3093   0.688   3.867   1.591
  766SOL    HW2 3094   0.768   3.907   1.558
  766SOL    HW3 3095   0.691   3.776   1.560
  766SOL    MW4 3096   0.699   3.860   1.583
  767SOL     OW 3097   0.433   3.976   1.535
  767SOL    HW2 3098   0.512   3.930   1.562
  767SOL    HW3 3099   0.434   3.974   1.440
  767SOL    MW4 3100   0.443   3.969   1.526
  768SOL     OW 3101   0.469   4.259   1.566
  768SOL    HW2 3102   0.448   4.171   1.537
  768SOL    HW3 3103   0.397   4.313   1.532
  768SOL    MW4 3104   0.457   4.255   1.557
  769SOL     OW 3105   0.716   4.363   1.459
  769SOL    HW2 3106   0.638   4.320   1.493
  769SOL    HW3 3107   0.717   4.448   1.504
  769SOL    MW4 3108   0.706   4.369   1.469
  770SOL     OW 3109   1.150   4.616   1.601
  770SOL    HW2 3110   1.124   4.635   1.691
  770SOL    HW3 3111   1.227   4.672   1.586
  770SOL    MW4 3112   1.157   4.626   1.611
  771SOL     OW 3113   0.937   0.091   1.495
  771SOL    HW2 3114   0.936   0.174   1.543
  771SOL    HW3 3115   1.010   0.042   1.533
  771SOL    MW4 3116   0.947   0.096   1.506
  772SOL     OW 3117   0.929   0.336   1.622
  772SOL    HW2 3118   0.930   0.361   1.715
  772SOL    HW3 3119   0.864   0.394   1.582
  772SOL    MW4 3120   0.921   0.347   1.629
  773SOL     OW 3121   1.120   0.509   1.514
  773SOL    HW2 3122   1.127   0.592   1.560
  773SOL    HW3 3123   1.054   0.460   1.562
  773SOL    MW4 3124   1.112   0.514   1.526
  774SOL     OW 3125   1.109   0.772   1.630
  774SOL    HW2 3126   1.122   0.769   1.725
  774SOL    HW3 3127   1.181   0.826   1.598
  774SOL    MW4 3128   1.120   0.779   1.639
  775SOL     OW 3129   0.899   0.926   1.542
  775SOL    HW2 3130   0.986   0.896   1.570
  775SOL    HW3 3131   0.900   0.917   1.446
  775SOL    MW4 3132   0.911   0.921   1.533
  776SOL     OW 3133   0.903   1.196   1.617
  776SOL    HW2 3134   0.901   1.104   1.591
  776SOL    HW3 3135   0.834   1.238   1.565
  776SOL    MW4 3136   0.894   1.190   1.606
  777SOL     OW 3137   1.107   1.308   1.460
  777SOL    HW2 3138   1.188   1.271   1.495
  777SOL    HW3 3139   1.037   1.267   1.512
  777SOL    MW4 3140   1.108   1.297   1.472
  778SOL     OW 3141   1.083   1.565   1.573
  778SOL    HW2 3142   1.173   1.594   1.563
  778SOL    HW3 3143   1.082   1.475   1.542
  778SOL    MW4 3144   1.094   1.557   1.567
  779SOL     OW 3145   0.873   1.712   1.454
  779SOL    HW2 3146   0.936   1.644   1.478
  779SOL    HW3 3147   0.884   1.722   1.359
  779SOL    MW4 3148   0.883   1.705   1.445
  780SOL     OW 3149   0.845   1.946   1.581
  780SOL    HW2 3150   0.930   1.976   1.551
  780SOL    HW3 3151   0.834   1.860   1.541
  780SOL    MW4 3152   0.854   1.939   1.572
  781SOL     OW 3153   1.138   2.042   1.498
  781SOL    HW2 3154   1.221   2.009   1.534
  781SOL    HW3 3155   1.132   2.131   1.532
  781SOL    MW4 3156   1.148   2.049   1.508
  782SOL     OW 3157   1.139   2.306   1.601
  782SOL    HW2 3158   1.209   2.370   1.584
  782SOL    HW3 3159   1.061   2.344   1.559
  782SOL    MW4 3160   1.138   2.320   1.593
  783SOL     OW 3161   0.906   2.409   1.491
  783SOL    HW2 3162   0.927   2.493   1.531
  783SOL    HW3 3163   0.828   2.378   1.538
  783SOL    MW4 3164   0.899   2.416   1.503
  784SOL     OW 3165   0.925   2.677   1.600
  784SOL    HW2 3166   0.930   2.691   1.695
  784SOL    HW3 3167   0.848   2.726   1.572
  784SOL    MW4 3168   0.916   2.685   1.609
  785SOL     OW 3169   1.132   2.826   1.474
  785SOL    HW2 3170   1.135   2.908   1.522
  785SOL    HW3 3171   1.060   2.777   1.514
  785SOL    MW4 3172   1.123   2.830   1.485
  786SOL     OW 3173   1.143   3.072   1.595
  786SOL    HW2 3174   1.155   3.063   1.689
  786SOL    HW3 3175   1.221   3.119   1.564
  786SOL    MW4 3176   1.155   3.077   1.603
  787SOL     OW 3177   0.908   3.184   1.509
  787SOL    HW2 3178   0.992   3.146   1.536
  787SOL    HW3 3179   0.917   3.197   1.415
  787SOL    MW4 3180   0.920   3.181   1.500
  788SOL     OW 3181   0.917   3.420   1.640
  788SOL    HW2 3182   0.977   3.469   1.585
  788SOL    HW3 3183   0.924   3.329   1.609
  788SOL    MW4 3184   0.926   3.414   1.629
  789SOL     OW 3185   1.122   3.555   1.508
  789SOL    HW2 3186   1.208   3.521   1.534
  789SOL    HW3 3187   1.129   3.566   1.413
  789SOL    MW4 3188   1.134   3.552   1.499
  790SOL     OW 3189   1.134   3.804   1.591
  790SOL    HW2 3190   1.214   3.849   1.566
  790SOL    HW3 3191   1.143   3.717   1.552
  790SOL    MW4 3192   1.146   3.798   1.582
  791SOL     OW 3193   0.923   3.971   1.477
  791SOL    HW2 3194   0.937   4.063   1.498
  791SOL    HW3 3195   0.990   3.925   1.528
  791SOL    MW4 3196   0.934   3.977   1.487
  792SOL     OW 3197   0.937   4.245   1.550
  792SOL    HW2 3198   0.926   4.256   1.645
  792SOL    HW3 3199   0.859   4.284   1.512
  792SOL    MW4 3200   0.925   4.251   1.558
  793SOL     OW 3201   1.163   4.386   1.473
  793SOL    HW2 3202   1.084   4.346   1.510
  793SOL    HW3 3203   1.171   4.470   1.518
  793SOL    MW4 3204   1.153   4.392   1.484
  794SOL     OW 3205   1.617   4.639   1.582
  794SOL    HW2 3206   1.626   4.647   1.677
  794SOL    HW3 3207   1.531   4.676   1.562
  794SOL    MW4 3208   1.607   4.645   1.592
  795SOL     OW 3209   1.357   0.095   1.512
  795SOL    HW2 3210   1.384   0.185   1.530
  795SOL    HW3 3211   1.336   0.094   1.419
  795SOL    MW4 3212   1.357   0.107   1.502
  796SOL     OW 3213   1.362   0.383   1.545
  796SOL    HW2 3214   1.433   0.440   1.517
  796SOL    HW3 3215   1.282   0.433   1.527
  796SOL    MW4 3216   1.361   0.397   1.539
  797SOL     OW 3217   1.603   0.512   1.489
  797SOL    HW2 3218   1.660   0.447   1.530
  797SOL    HW3 3219   1.624   0.507   1.396
  797SOL    MW4 3220   1.613   0.503   1.482
  798SOL     OW 3221   1.536   0.783   1.589
  798SOL    HW2 3222   1.544   0.771   1.683
  798SOL    HW3 3223   1.552   0.696   1.552
  798SOL    MW4 3224   1.539   0.770   1.596
  799SOL     OW 3225   1.299   0.933   1.496
  799SOL    HW2 3226   1.384   0.897   1.522
  799SOL    HW3 3227   1.301   0.934   1.401
  799SOL    MW4 3228   1.310   0.928   1.487
  800SOL     OW 3229   1.325   1.197   1.567
  800SOL    HW2 3230   1.345   1.188   1.660
  800SOL    HW3 3231   1.314   1.107   1.536
  800SOL    MW4 3232   1.327   1.184   1.575
  801SOL     OW 3233   1.540   1.334   1.474
  801SOL    HW2 3234   1.457   1.293   1.498
  801SOL    HW3 3235   1.538   1.337   1.378
  801SOL    MW4 3236   1.529   1.329   1.465
  802SOL     OW 3237   1.559   1.565   1.649
  802SOL    HW2 3238   1.566   1.542   1.742
  802SOL    HW3 3239   1.562   1.481   1.604
  802SOL    MW4 3240   1.560   1.551   1.656
  803SOL     OW 3241   1.326   1.680   1.521
  803SOL    HW2 3242   1.409   1.642   1.550
  803SOL    HW3 3243   1.324   1.664   1.427
  803SOL    MW4 3244   1.337   1.673   1.512
  804SOL     OW 3245   1.369   1.947   1.639
  804SOL    HW2 3246   1.351   1.940   1.733
  804SOL    HW3 3247   1.365   1.857   1.607
  804SOL    MW4 3248   1.366   1.934   1.647
  805SOL     OW 3249   1.597   2.041   1.488
  805SOL    HW2 3250   1.515   2.014   1.529
  805SOL    HW3 3251   1.581   2.030   1.394
  805SOL    MW4 3252   1.584   2.036   1.481
  806SOL     OW 3253   1.572   2.308   1.584
  806SOL    HW2 3254   1.651   2.360   1.566
  806SOL    HW3 3255   1.587   2.225   1.538
  806SOL    MW4 3256   1.585   2.304   1.575
  807SOL     OW 3257   1.357   2.451   1.502
  807SOL    HW2 3258   1.363   2.536   1.545
  807SOL    HW3 3259   1.436   2.404   1.529
  807SOL    MW4 3260   1.368   2.456   1.511
  808SOL     OW 3261   1.346   2.729   1.603
  808SOL    HW2 3262   1.416   2.791   1.584
  808SOL    HW3 3263   1.272   2.761   1.551
  808SOL    MW4 3264   1.345   2.742   1.594
  809SOL     OW 3265   1.574   2.869   1.502
  809SOL    HW2 3266   1.630   2.802   1.543
  809SOL    HW3 3267   1.585   2.855   1.408
  809SOL    MW4 3268   1.583   2.858   1.495
  810SOL     OW 3269   1.609   3.130   1.618
  810SOL    HW2 3270   1.671   3.171   1.558
  810SOL    HW3 3271   1.609   3.038   1.592
  810SOL    MW4 3272   1.617   3.123   1.607
  811SOL     OW 3273   1.353   3.233   1.515
  811SOL    HW2 3274   1.350   3.321   1.552
  811SOL    HW3 3275   1.435   3.196   1.548
  811SOL    MW4 3276   1.364   3.240   1.524
  812SOL     OW 3277   1.377   3.494   1.589
  812SOL    HW2 3278   1.379   3.491   1.684
  812SOL    HW3 3279   1.463   3.526   1.564
  812SOL    MW4 3280   1.388   3.498   1.598
  813SOL     OW 3281   1.627   3.581   1.496
  813SOL    HW2 3282   1.623   3.676   1.506
  813SOL    HW3 3283   1.621   3.566   1.401
  813SOL    MW4 3284   1.625   3.592   1.485
  814SOL     OW 3285   1.579   3.863   1.567
  814SOL    HW2 3286   1.574   3.860   1.662
  814SOL    HW3 3287   1.493   3.895   1.539
  814SOL    MW4 3288   1.567   3.866   1.576
  815SOL     OW 3289   1.342   3.974   1.515
  815SOL    HW2 3290   1.334   4.058   1.560
  815SOL    HW3 3291   1.334   3.996   1.422
  815SOL    MW4 3292   1.340   3.988   1.509
  816SOL     OW 3293   1.357   4.226   1.593
  816SOL    HW2 3294   1.436   4.276   1.575
  816SOL    HW3 3295   1.286   4.279   1.554
  816SOL    MW4 3296   1.358   4.240   1.585
  817SOL     OW 3297   1.575   4.366   1.503
  817SOL    HW2 3298   1.651   4.326   1.545
  817SOL    HW3 3299   1.589   4.460   1.515
  817SOL    MW4 3300   1.587   4.373   1.510
  818SOL     OW 3301   2.051   4.621   1.591
  818SOL    HW2 3302   2.050   4.617   1.687
  818SOL    HW3 3303   1.971   4.670   1.569
  818SOL    MW4 3304   2.040   4.627   1.601
  819SOL     OW 3305   1.832   0.100   1.490
  819SOL    HW2 3306   1.757   0.058   1.533
  819SOL    HW3 3307   1.804   0.111   1.399
  819SOL    MW4 3308   1.818   0.096   1.484
  820SOL     OW 3309   1.777   0.336   1.629
  820SOL    HW2 3310   1.862   0.379   1.632
  820SOL    HW3 3311   1.794   0.252   1.586
  820SOL    MW4 3312   1.791   0.330   1.624
  821SOL     OW 3313   2.011   0.469   1.557
  821SOL    HW2 3314   2.096   0.448   1.597
  821SOL    HW3 3315   2.003   0.563   1.568
  821SOL    MW4 3316   2.021   0.478   1.564
  822SOL     OW 3317   1.985   0.750   1.577
  822SOL    HW2 3318   2.056   0.808   1.550
  822SOL    HW3 3319   1.905   0.799   1.561
  822SOL    MW4 3320   1.984   0.764   1.572
  823SOL     OW 3321   1.764   0.944   1.536
  823SOL    HW2 3322   1.773   1.028   1.581
  823SOL    HW3 3323   1.686   0.905   1.574
  823SOL    MW4 3324   1.755   0.950   1.547
  824SOL     OW 3325   1.745   1.222   1.655
  824SOL    HW2 3326   1.827   1.221   1.606
  824SOL    HW3 3327   1.678   1.241   1.590
  824SOL    MW4 3328   1.747   1.224   1.640
  825SOL     OW 3329   2.006   1.233   1.529
  825SOL    HW2 3330   2.017   1.321   1.564
  825SOL    HW3 3331   2.000   1.245   1.434
  825SOL    MW4 3332   2.006   1.246   1.521
  826SOL     OW 3333   2.002   1.496   1.624
  826SOL    HW2 3334   2.071   1.556   1.595
  826SOL    HW3 3335   1.921   1.539   1.599
  826SOL    MW4 3336   2.001   1.510   1.617
  827SOL     OW 3337   1.797   1.654   1.542
  827SOL    HW2 3338   1.715   1.622   1.580
  827SOL    HW3 3339   1.792   1.629   1.450
  827SOL    MW4 3340   1.786   1.647   1.535
  828SOL     OW 3341   1.816   1.918   1.604
  828SOL    HW2 3342   1.802   1.826   1.583
  828SOL    HW3 3343   1.737   1.962   1.572
  828SOL    MW4 3344   1.804   1.912   1.597
  829SOL     OW 3345   2.013   2.059   1.505
  829SOL    HW2 3346   2.083   2.004   1.540
  829SOL    HW3 3347   1.933   2.011   1.524
  829SOL    MW4 3348   2.012   2.046   1.512
  830SOL     OW 3349   1.986   2.323   1.618
  830SOL    HW2 3350   1.996   2.316   1.713
  830SOL    HW3 3351   1.988   2.232   1.587
  830SOL    MW4 3352   1.988   2.310   1.626
  831SOL     OW 3353   1.774   2.463   1.490
  831SOL    HW2 3354   1.860   2.434   1.522
  831SOL    HW3 3355   1.780   2.454   1.395
  831SOL    MW4 3356   1.786   2.458   1.482
  832SOL     OW 3357   1.762   2.701   1.631
  832SOL    HW2 3358   1.839   2.740   1.589
  832SOL    HW3 3359   1.753   2.616   1.588
  832SOL    MW4 3360   1.771   2.695   1.620
  833SOL     OW 3361   1.994   2.825   1.525
  833SOL    HW2 3362   1.989   2.920   1.537
  833SOL    HW3 3363   2.006   2.813   1.431
  833SOL    MW4 3364   1.995   2.836   1.514
  834SOL     OW 3365   1.988   3.089   1.581
  834SOL    HW2 3366   1.978   3.105   1.675
  834SOL    HW3 3367   2.069   3.134   1.557
  834SOL    MW4 3368   1.997   3.097   1.590
  835SOL     OW 3369   1.791   3.249   1.462
  835SOL    HW2 3370   1.814   3.327   1.512
  835SOL    HW3 3371   1.859   3.185   1.485
  835SOL    MW4 3372   1.803   3.251   1.472
  836SOL     OW 3373   1.826   3.469   1.614
  836SOL    HW2 3374   1.805   3.469   1.707
  836SOL    HW3 3375   1.753   3.516   1.573
  836SOL    MW4 3376   1.813   3.475   1.620
  837SOL     OW 3377   2.040   3.601   1.514
  837SOL    HW2 3378   2.110   3.551   1.557
  837SOL    HW3 3379   1.959   3.563   1.548
  837SOL    MW4 3380   2.039   3.589   1.524
  838SOL     OW 3381   2.003   3.878   1.583
  838SOL    HW2 3382   2.081   3.925   1.556
  838SOL    HW3 3383   2.015   3.789   1.549
  838SOL    MW4 3384   2.015   3.872   1.575
  839SOL     OW 3385   1.796   4.017   1.455
  839SOL    HW2 3386   1.869   3.974   1.499
  839SOL    HW3 3387   1.719   3.968   1.485
  839SOL    MW4 3388   1.795   4.005   1.465
  840SOL     OW 3389   1.799   4.256   1.603
  840SOL    HW2 3390   1.879   4.296   1.569
  840SOL    HW3 3391   1.792   4.172   1.558
  840SOL    MW4 3392   1.808   4.251   1.593
  841SOL     OW 3393   2.016   4.357   1.490
  841SOL    HW2 3394   2.097   4.322   1.527
  841SOL    HW3 3395   2.015   4.449   1.518
  841SOL    MW4 3396   2.027   4.365   1.499
  842SOL     OW 3397   2.464   4.623   1.624
  842SOL    HW2 3398   2.465   4.636   1.719
  842SOL    HW3 3399   2.397   4.684   1.592
  842SOL    MW4 3400   2.456   4.633   1.632
  843SOL     OW 3401   2.259   0.125   1.535
  843SOL    HW2 3402   2.186   0.068   1.559
  843SOL    HW3 3403   2.254   0.131   1.439
  843SOL    MW4 3404   2.248   0.118   1.525
  844SOL     OW 3405   2.272   0.379   1.602
  844SOL    HW2 3406   2.266   0.363   1.696
  844SOL    HW3 3407   2.264   0.293   1.562
  844SOL    MW4 3408   2.270   0.366   1.609
  845SOL     OW 3409   2.495   0.522   1.539
  845SOL    HW2 3410   2.565   0.459   1.553
  845SOL    HW3 3411   2.415   0.472   1.556
  845SOL    MW4 3412   2.494   0.507   1.543
  846SOL     OW 3413   2.484   0.767   1.646
  846SOL    HW2 3414   2.404   0.805   1.609
  846SOL    HW3 3415   2.490   0.680   1.608
  846SOL    MW4 3416   2.474   0.761   1.636
  847SOL     OW 3417   2.232   0.863   1.512
  847SOL    HW2 3418   2.233   0.952   1.547
  847SOL    HW3 3419   2.231   0.876   1.417
  847SOL    MW4 3420   2.232   0.877   1.504
  848SOL     OW 3421   2.245   1.112   1.630
  848SOL    HW2 3422   2.243   1.106   1.725
  848SOL    HW3 3423   2.160   1.149   1.607
  848SOL    MW4 3424   2.234   1.116   1.639
  849SOL     OW 3425   2.465   1.277   1.546
  849SOL    HW2 3426   2.394   1.222   1.578
  849SOL    HW3 3427   2.472   1.255   1.453
  849SOL    MW4 3428   2.457   1.267   1.538
  850SOL     OW 3429   2.448   1.547   1.626
  850SOL    HW2 3430   2.530   1.585   1.596
  850SOL    HW3 3431   2.457   1.453   1.608
  850SOL    MW4 3432   2.460   1.539   1.620
  851SOL     OW 3433   2.203   1.661   1.530
  851SOL    HW2 3434   2.279   1.637   1.583
  851SOL    HW3 3435   2.228   1.638   1.440
  851SOL    MW4 3436   2.216   1.655   1.525
  852SOL     OW 3437   2.228   1.929   1.612
  852SOL    HW2 3438   2.237   1.925   1.707
  852SOL    HW3 3439   2.209   1.839   1.586
  852SOL    MW4 3440   2.227   1.917   1.621
  853SOL     OW 3441   2.482   2.025   1.551
  853SOL    HW2 3442   2.411   1.971   1.586
  853SOL    HW3 3443   2.476   2.014   1.456
  853SOL    MW4 3444   2.472   2.016   1.543
  854SOL     OW 3445   2.434   2.284   1.597
  854SOL    HW2 3446   2.456   2.289   1.690
  854SOL    HW3 3447   2.435   2.190   1.577
  854SOL    MW4 3448   2.437   2.272   1.606
  855SOL     OW 3449   2.219   2.445   1.499
  855SOL    HW2 3450   2.297   2.400   1.532
  855SOL    HW3 3451   2.146   2.397   1.538
  855SOL    MW4 3452   2.220   2.433   1.508
  856SOL     OW 3453   2.238   2.733   1.587
  856SOL    HW2 3454   2.228   2.639   1.577
  856SOL    HW3 3455   2.150   2.769   1.569
  856SOL    MW4 3456   2.225   2.725   1.583
  857SOL     OW 3457   2.481   2.829   1.507
  857SOL    HW2 3458   2.484   2.919   1.539
  857SOL    HW3 3459   2.392   2.800   1.526
  857SOL    MW4 3460   2.470   2.837   1.514
  858SOL     OW 3461   2.505   3.098   1.606
  858SOL    HW2 3462   2.565   3.166   1.574
  858SOL    HW3 3463   2.420   3.124   1.571
  858SOL    MW4 3464   2.502   3.110   1.597
  859SOL     OW 3465   2.235   3.166   1.541
  859SOL    HW2 3466   2.223   3.257   1.568
  859SOL    HW3 3467   2.246   3.170   1.446
  859SOL    MW4 3468   2.235   3.179   1.532
  860SOL     OW 3469   2.227   3.418   1.630
  860SOL    HW2 3470   2.229   3.423   1.726
  860SOL    HW3 3471   2.307   3.461   1.602
  860SOL    MW4 3472   2.238   3.424   1.639
  861SOL     OW 3473   2.444   3.532   1.503
  861SOL    HW2 3474   2.529   3.530   1.548
  861SOL    HW3 3475   2.416   3.624   1.509
  861SOL    MW4 3476   2.452   3.544   1.510
  862SOL     OW 3477   2.467   3.821   1.552
  862SOL    HW2 3478   2.483   3.835   1.645
  862SOL    HW3 3479   2.526   3.882   1.508
  862SOL    MW4 3480   2.477   3.831   1.558
  863SOL     OW 3481   2.244   4.007   1.500
  863SOL    HW2 3482   2.325   3.960   1.520
  863SOL    HW3 3483   2.244   4.016   1.405
  863SOL    MW4 3484   2.255   4.002   1.490
  864SOL     OW 3485   2.251   4.269   1.618
  864SOL    HW2 3486   2.331   4.308   1.583
  864SOL    HW3 3487   2.258   4.176   1.597
  864SOL    MW4 3488   2.262   4.262   1.611
  865SOL     OW 3489   2.472   4.384   1.516
  865SOL    HW2 3490   2.479   4.471   1.555
  865SOL    HW3 3491   2.471   4.399   1.422
  865SOL    MW4 3492   2.472   4.397   1.509
  866SOL     OW 3493   2.949   4.651   1.608
  866SOL    HW2 3494   2.968   4.673   1.699
  866SOL    HW3 3495   2.861   4.685   1.593
  866SOL    MW4 3496   2.940   4.658   1.618
  867SOL     OW 3497   2.703   0.085   1.530
  867SOL    HW2 3498   2.697   0.168   1.576
  867SOL    HW3 3499   2.630   0.033   1.564
  867SOL    MW4 3500   2.692   0.089   1.540
  868SOL     OW 3501   2.709   0.342   1.600
  868SOL    HW2 3502   2.701   0.363   1.693
  868SOL    HW3 3503   2.790   0.383   1.572
  868SOL    MW4 3504   2.718   0.350   1.609
  869SOL     OW 3505   2.925   0.498   1.523
  869SOL    HW2 3506   2.913   0.588   1.553
  869SOL    HW3 3507   2.929   0.506   1.428
  869SOL    MW4 3508   2.924   0.511   1.514
  870SOL     OW 3509   2.922   0.769   1.588
  870SOL    HW2 3510   2.935   0.771   1.683
  870SOL    HW3 3511   2.835   0.805   1.575
  870SOL    MW4 3512   2.912   0.774   1.599
  871SOL     OW 3513   2.687   0.881   1.507
  871SOL    HW2 3514   2.614   0.841   1.554
  871SOL    HW3 3515   2.670   0.860   1.415
  871SOL    MW4 3516   2.675   0.873   1.501
  872SOL     OW 3517   2.694   1.142   1.631
  872SOL    HW2 3518   2.689   1.051   1.603
  872SOL    HW3 3519   2.620   1.185   1.588
  872SOL    MW4 3520   2.683   1.136   1.622
  873SOL     OW 3521   2.895   1.270   1.508
  873SOL    HW2 3522   2.976   1.221   1.520
  873SOL    HW3 3523   2.832   1.224   1.565
  873SOL    MW4 3524   2.897   1.257   1.517
  874SOL     OW 3525   2.937   1.536   1.605
  874SOL    HW2 3526   2.845   1.565   1.601
  874SOL    HW3 3527   2.935   1.445   1.574
  874SOL    MW4 3528   2.924   1.528   1.600
  875SOL     OW 3529   2.677   1.647   1.548
  875SOL    HW2 3530   2.694   1.739   1.566
  875SOL    HW3 3531   2.677   1.640   1.453
  875SOL    MW4 3532   2.679   1.658   1.538
  876SOL     OW 3533   2.724   1.905   1.617
  876SOL    HW2 3534   2.704   1.891   1.709
  876SOL    HW3 3535   2.655   1.963   1.585
  876SOL    MW4 3536   2.712   1.911   1.625
  877SOL     OW 3537   2.913   2.053   1.497
  877SOL    HW2 3538   2.908   2.144   1.525
  877SOL    HW3 3539   2.845   2.008   1.547
  877SOL    MW4 3540   2.903   2.059   1.507
  878SOL     OW 3541   2.898   2.311   1.595
  878SOL    HW2 3542   2.887   2.299   1.690
  878SOL    HW3 3543   2.816   2.351   1.566
  878SOL    MW4 3544   2.886   2.315   1.604
  879SOL     OW 3545   2.655   2.428   1.528
  879SOL    HW2 3546   2.643   2.503   1.587
  879SOL    HW3 3547   2.572   2.382   1.531
  879SOL    MW4 3548   2.642   2.432   1.536
  880SOL     OW 3549   2.645   2.670   1.661
  880SOL    HW2 3550   2.716   2.706   1.607
  880SOL    HW3 3551   2.569   2.723   1.639
  880SOL    MW4 3552   2.644   2.681   1.651
  881SOL     OW 3553   2.856   2.808   1.490
  881SOL    HW2 3554   2.935   2.764   1.522
  881SOL    HW3 3555   2.864   2.898   1.520
  881SOL    MW4 3556   2.867   2.814   1.498
  882SOL     OW 3557   2.903   3.081   1.606
  882SOL    HW2 3558   2.904   3.091   1.702
  882SOL    HW3 3559   2.985   3.119   1.577
  882SOL    MW4 3560   2.914   3.087   1.615
  883SOL     OW 3561   2.716   3.270   1.489
  883SOL    HW2 3562   2.766   3.192   1.513
  883SOL    HW3 3563   2.697   3.258   1.396
  883SOL    MW4 3564   2.720   3.258   1.480
  884SOL     OW 3565   2.703   3.520   1.610
  884SOL    HW2 3566   2.720   3.518   1.704
  884SOL    HW3 3567   2.724   3.432   1.580
  884SOL    MW4 3568   2.708   3.508   1.619
  885SOL     OW 3569   2.937   3.630   1.520
  885SOL    HW2 3570   2.851   3.604   1.553
  885SOL    HW3 3571   2.936   3.605   1.427
  885SOL    MW4 3572   2.926   3.623   1.512
  886SOL     OW 3573   2.886   3.886   1.597
  886SOL    HW2 3574   2.809   3.910   1.545
  886SOL    HW3 3575   2.905   3.796   1.570
  886SOL    MW4 3576   2.878   3.877   1.586
  887SOL     OW 3577   2.662   3.979   1.451
  887SOL    HW2 3578   2.652   4.062   1.497
  887SOL    HW3 3579   2.675   4.003   1.359
  887SOL    MW4 3580   2.663   3.993   1.445
  888SOL     OW 3581   2.681   4.230   1.577
  888SOL    HW2 3582   2.764   4.271   1.550
  888SOL    HW3 3583   2.614   4.293   1.550
  888SOL    MW4 3584   2.683   4.244   1.570
  889SOL     OW 3585   2.889   4.399   1.517
  889SOL    HW2 3586   2.920   4.486   1.542
  889SOL    HW3 3587   2.871   4.406   1.423
  889SOL    MW4 3588   2.891   4.411   1.508
  890SOL     OW 3589   3.392   0.007   1.630
  890SOL    HW2 3590   3.467   0.041   1.581
  890SOL    HW3 3591   3.387  -0.085   1.604
  890SOL    MW4 3592   3.402  -0.001   1.620
  891SOL     OW 3593   3.164   0.138   1.511
  891SOL    HW2 3594   3.235   0.090   1.553
  891SOL    HW3 3595   3.085   0.087   1.532
  891SOL    MW4 3596   3.163   0.125   1.519
  892SOL     OW 3597   3.172   0.403   1.579
  892SOL    HW2 3598   3.173   0.308   1.570
  892SOL    HW3 3599   3.082   0.428   1.563
  892SOL    MW4 3600   3.160   0.394   1.576
  893SOL     OW 3601   3.415   0.505   1.477
  893SOL    HW2 3602   3.335   0.468   1.516
  893SOL    HW3 3603   3.406   0.488   1.383
  893SOL    MW4 3604   3.403   0.498   1.470
  894SOL     OW 3605   3.389   0.766   1.588
  894SOL    HW2 3606   3.403   0.774   1.683
  894SOL    HW3 3607   3.394   0.672   1.572
  894SOL    MW4 3608   3.392   0.755   1.598
  895SOL     OW 3609   3.144   0.883   1.478
  895SOL    HW2 3610   3.221   0.836   1.509
  895SOL    HW3 3611   3.070   0.837   1.517
  895SOL    MW4 3612   3.144   0.871   1.487
  896SOL     OW 3613   3.140   1.146   1.571
  896SOL    HW2 3614   3.150   1.132   1.665
  896SOL    HW3 3615   3.151   1.058   1.533
  896SOL    MW4 3616   3.143   1.132   1.578
  897SOL     OW 3617   3.366   1.287   1.506
  897SOL    HW2 3618   3.444   1.239   1.535
  897SOL    HW3 3619   3.293   1.235   1.538
  897SOL    MW4 3620   3.367   1.274   1.514
  898SOL     OW 3621   3.395   1.545   1.609
  898SOL    HW2 3622   3.393   1.549   1.704
  898SOL    HW3 3623   3.370   1.455   1.588
  898SOL    MW4 3624   3.391   1.534   1.619
  899SOL     OW 3625   3.174   1.652   1.488
  899SOL    HW2 3626   3.250   1.619   1.536
  899SOL    HW3 3627   3.099   1.608   1.528
  899SOL    MW4 3628   3.174   1.642   1.500
  900SOL     OW 3629   3.143   1.929   1.597
  900SOL    HW2 3630   3.149   1.845   1.552
  900SOL    HW3 3631   3.080   1.980   1.546
  900SOL    MW4 3632   3.135   1.925   1.584
  901SOL     OW 3633   3.403   2.054   1.513
  901SOL    HW2 3634   3.327   2.004   1.543
  901SOL    HW3 3635   3.401   2.046   1.418
  901SOL    MW4 3636   3.393   2.047   1.504
  902SOL     OW 3637   3.385   2.310   1.606
  902SOL    HW2 3638   3.454   2.355   1.558
  902SOL    HW3 3639   3.388   2.219   1.575
  902SOL    MW4 3640   3.395   2.304   1.596
  903SOL     OW 3641   3.151   2.443   1.484
  903SOL    HW2 3642   3.223   2.405   1.534
  903SOL    HW3 3643   3.072   2.402   1.521
  903SOL    MW4 3644   3.150   2.433   1.495
  904SOL     OW 3645   3.083   2.695   1.587
  904SOL    HW2 3646   3.159   2.747   1.557
  904SOL    HW3 3647   3.099   2.608   1.552
  904SOL    MW4 3648   3.095   2.691   1.578
  905SOL     OW 3649   3.309   2.832   1.495
  905SOL    HW2 3650   3.320   2.924   1.519
  905SOL    HW3 3651   3.324   2.830   1.400
  905SOL    MW4 3652   3.312   2.844   1.486
  906SOL     OW 3653   3.364   3.088   1.590
  906SOL    HW2 3654   3.365   3.100   1.684
  906SOL    HW3 3655   3.441   3.135   1.558
  906SOL    MW4 3656   3.375   3.096   1.598
  907SOL     OW 3657   3.131   3.212   1.515
  907SOL    HW2 3658   3.217   3.172   1.526
  907SOL    HW3 3659   3.116   3.212   1.420
  907SOL    MW4 3660   3.140   3.206   1.504
  908SOL     OW 3661   3.161   3.488   1.593
  908SOL    HW2 3662   3.153   3.394   1.575
  908SOL    HW3 3663   3.074   3.524   1.574
  908SOL    MW4 3664   3.148   3.480   1.588
  909SOL     OW 3665   3.378   3.633   1.482
  909SOL    HW2 3666   3.444   3.605   1.546
  909SOL    HW3 3667   3.299   3.585   1.507
  909SOL    MW4 3668   3.377   3.623   1.494
  910SOL     OW 3669   3.397   3.888   1.596
  910SOL    HW2 3670   3.314   3.932   1.578
  910SOL    HW3 3671   3.384   3.800   1.562
  910SOL    MW4 3672   3.384   3.882   1.589
  911SOL     OW 3673   3.124   4.020   1.515
  911SOL    HW2 3674   3.124   4.104   1.561
  911SOL    HW3 3675   3.057   3.968   1.559
  911SOL    MW4 3676   3.115   4.025   1.527
  912SOL     OW 3677   3.103   4.273   1.619
  912SOL    HW2 3678   3.111   4.284   1.714
  912SOL    HW3 3679   3.018   4.310   1.597
  912SOL    MW4 3680   3.093   4.279   1.628
  913SOL     OW 3681   3.357   4.409   1.537
  913SOL    HW2 3682   3.275   4.371   1.567
  913SOL    HW3 3683   3.346   4.418   1.443
  913SOL    MW4 3684   3.345   4.405   1.529
  914SOL     OW 3685   3.799   4.639   1.604
  914SOL    HW2 3686   3.787   4.619   1.697
  914SOL    HW3 3687   3.882   4.688   1.601
  914SOL    MW4 3688   3.808   4.643   1.616
  915SOL     OW 3689   3.597   0.110   1.479
  915SOL    HW2 3690   3.672   0.062   1.514
  915SOL    HW3 3691   3.599   0.091   1.385
  915SOL    MW4 3692   3.607   0.101   1.471
  916SOL     OW 3693   3.602   0.358   1.608
  916SOL    HW2 3694   3.603   0.269   1.573
  916SOL    HW3 3695   3.525   0.398   1.570
  916SOL    MW4 3696   3.592   0.351   1.598
  917SOL     OW 3697   3.828   0.474   1.523
  917SOL    HW2 3698   3.746   0.427   1.538
  917SOL    HW3 3699   3.828   0.492   1.429
  917SOL    MW4 3700   3.817   0.470   1.512
  918SOL     OW 3701   3.829   0.764   1.624
  918SOL    HW2 3702   3.752   0.816   1.598
  918SOL    HW3 3703   3.810   0.676   1.592
  918SOL    MW4 3704   3.816   0.759   1.616
  919SOL     OW 3705   3.604   0.896   1.513
  919SOL    HW2 3706   3.524   0.856   1.545
  919SOL    HW3 3707   3.594   0.899   1.418
  919SOL    MW4 3708   3.592   0.891   1.505
  920SOL     OW 3709   3.596   1.158   1.605
  920SOL    HW2 3710   3.666   1.198   1.554
  920SOL    HW3 3711   3.595   1.066   1.577
  920SOL    MW4 3712   3.605   1.151   1.595
  921SOL     OW 3713   3.855   1.289   1.526
  921SOL    HW2 3714   3.938   1.259   1.563
  921SOL    HW3 3715   3.847   1.379   1.555
  921SOL    MW4 3716   3.865   1.297   1.535
  922SOL     OW 3717   3.839   1.538   1.627
  922SOL    HW2 3718   3.821   1.527   1.721
  922SOL    HW3 3719   3.755   1.567   1.590
  922SOL    MW4 3720   3.825   1.540   1.635
  923SOL     OW 3721   3.612   1.658   1.511
  923SOL    HW2 3722   3.528   1.622   1.537
  923SOL    HW3 3723   3.617   1.642   1.417
  923SOL    MW4 3724   3.602   1.651   1.502
  924SOL     OW 3725   3.615   1.914   1.631
  924SOL    HW2 3726   3.631   1.835   1.579
  924SOL    HW3 3727   3.533   1.949   1.597
  924SOL    MW4 3728   3.606   1.908   1.619
  925SOL     OW 3729   3.784   2.114   1.546
  925SOL    HW2 3730   3.795   2.190   1.603
  925SOL    HW3 3731   3.705   2.071   1.578
  925SOL    MW4 3732   3.775   2.118   1.558
  926SOL     OW 3733   3.771   2.371   1.648
  926SOL    HW2 3734   3.783   2.373   1.743
  926SOL    HW3 3735   3.851   2.409   1.613
  926SOL    MW4 3736   3.783   2.376   1.656
  927SOL     OW 3737   3.552   2.468   1.494
  927SOL    HW2 3738   3.563   2.559   1.523
  927SOL    HW3 3739   3.626   2.422   1.532
  927SOL    MW4 3740   3.563   2.474   1.503
  928SOL     OW 3741   3.554   2.739   1.602
  928SOL    HW2 3742   3.547   2.723   1.697
  928SOL    HW3 3743   3.466   2.765   1.576
  928SOL    MW4 3744   3.542   2.741   1.611
  929SOL     OW 3745   3.798   2.817   1.491
  929SOL    HW2 3746   3.860   2.770   1.547
  929SOL    HW3 3747   3.712   2.791   1.524
  929SOL    MW4 3748   3.794   2.807   1.503
  930SOL     OW 3749   3.825   3.078   1.592
  930SOL    HW2 3750   3.899   3.132   1.564
  930SOL    HW3 3751   3.834   2.997   1.542
  930SOL    MW4 3752   3.836   3.074   1.582
  931SOL     OW 3753   3.601   3.228   1.546
  931SOL    HW2 3754   3.682   3.177   1.554
  931SOL    HW3 3755   3.591   3.241   1.452
  931SOL    MW4 3756   3.610   3.223   1.535
  932SOL     OW 3757   3.588   3.503   1.616
  932SOL    HW2 3758   3.662   3.536   1.566
  932SOL    HW3 3759   3.592   3.408   1.606
  932SOL    MW4 3760   3.598   3.495   1.608
  933SOL     OW 3761   3.835   3.575   1.476
  933SOL    HW2 3762   3.895   3.520   1.527
  933SOL    HW3 3763   3.858   3.664   1.501
  933SOL    MW4 3764   3.846   3.579   1.486
  934SOL     OW 3765   3.887   3.842   1.570
  934SOL    HW2 3766   3.952   3.898   1.529
  934SOL    HW3 3767   3.810   3.897   1.580
  934SOL    MW4 3768   3.886   3.856   1.566
  935SOL     OW 3769   3.651   3.997   1.555
  935SOL    HW2 3770   3.638   4.091   1.564
  935SOL    HW3 3771   3.567   3.959   1.580
  935SOL    MW4 3772   3.638   4.004   1.559
  936SOL     OW 3773   3.607   4.271   1.572
  936SOL    HW2 3774   3.609   4.264   1.667
  936SOL    HW3 3775   3.519   4.305   1.551
  936SOL    MW4 3776   3.596   4.275   1.582
  937SOL     OW 3777   3.869   4.388   1.494
  937SOL    HW2 3778   3.788   4.339   1.507
  937SOL    HW3 3779   3.854   4.472   1.538
  937SOL    MW4 3780   3.857   4.393   1.502
  938SOL     OW 3781   4.303   0.002   1.592
  938SOL    HW2 3782   4.308  -0.018   1.685
  938SOL    HW3 3783   4.286  -0.082   1.549
  938SOL    MW4 3784   4.302  -0.011   1.598
  939SOL     OW 3785   4.045   0.095   1.528
  939SOL    HW2 3786   4.036   0.184   1.562
  939SOL    HW3 3787   4.136   0.071   1.546
  939SOL    MW4 3788   4.056   0.104   1.535
  940SOL     OW 3789   4.067   0.359   1.613
  940SOL    HW2 3790   4.063   0.367   1.708
  940SOL    HW3 3791   3.990   0.407   1.582
  940SOL    MW4 3792   4.056   0.366   1.621
  941SOL     OW 3793   4.317   0.466   1.518
  941SOL    HW2 3794   4.242   0.410   1.541
  941SOL    HW3 3795   4.392   0.421   1.556
  941SOL    MW4 3796   4.317   0.453   1.526
  942SOL     OW 3797   4.288   0.721   1.606
  942SOL    HW2 3798   4.308   0.629   1.592
  942SOL    HW3 3799   4.370   0.767   1.587
  942SOL    MW4 3800   4.302   0.715   1.602
  943SOL     OW 3801   4.068   0.873   1.535
  943SOL    HW2 3802   4.142   0.818   1.561
  943SOL    HW3 3803   3.990   0.820   1.554
  943SOL    MW4 3804   4.067   0.859   1.541
  944SOL     OW 3805   4.086   1.147   1.598
  944SOL    HW2 3806   4.052   1.142   1.687
  944SOL    HW3 3807   4.080   1.058   1.565
  944SOL    MW4 3808   4.081   1.135   1.605
  945SOL     OW 3809   4.301   1.278   1.496
  945SOL    HW2 3810   4.220   1.241   1.532
  945SOL    HW3 3811   4.369   1.218   1.526
  945SOL    MW4 3812   4.299   1.265   1.505
  946SOL     OW 3813   4.257   1.550   1.580
  946SOL    HW2 3814   4.271   1.457   1.561
  946SOL    HW3 3815   4.336   1.594   1.549
  946SOL    MW4 3816   4.269   1.544   1.574
  947SOL     OW 3817   4.035   1.688   1.494
  947SOL    HW2 3818   4.111   1.647   1.536
  947SOL    HW3 3819   3.960   1.643   1.532
  947SOL    MW4 3820   4.035   1.677   1.505
  948SOL     OW 3821   3.988   1.951   1.614
  948SOL    HW2 3822   3.992   1.871   1.562
  948SOL    HW3 3823   3.910   1.997   1.582
  948SOL    MW4 3824   3.978   1.947   1.603
  949SOL     OW 3825   4.277   2.090   1.536
  949SOL    HW2 3826   4.197   2.048   1.569
  949SOL    HW3 3827   4.266   2.093   1.441
  949SOL    MW4 3828   4.265   2.085   1.528
  950SOL     OW 3829   4.247   2.370   1.638
  950SOL    HW2 3830   4.256   2.352   1.731
  950SOL    HW3 3831   4.255   2.285   1.595
  950SOL    MW4 3832   4.249   2.357   1.645
  951SOL     OW 3833   4.000   2.462   1.519
  951SOL    HW2 3834   4.016   2.549   1.556
  951SOL    HW3 3835   4.064   2.405   1.561
  951SOL    MW4 3836   4.010   2.466   1.529
  952SOL     OW 3837   4.010   2.706   1.644
  952SOL    HW2 3838   4.020   2.699   1.739
  952SOL    HW3 3839   4.092   2.747   1.615
  952SOL    MW4 3840   4.022   2.710   1.653
  953SOL     OW 3841   4.221   2.842   1.519
  953SOL    HW2 3842   4.224   2.931   1.555
  953SOL    HW3 3843   4.238   2.853   1.426
  953SOL    MW4 3844   4.224   2.855   1.512
  954SOL     OW 3845   4.256   3.102   1.635
  954SOL    HW2 3846   4.259   3.122   1.728
  954SOL    HW3 3847   4.336   3.140   1.599
  954SOL    MW4 3848   4.267   3.109   1.642
  955SOL     OW 3849   4.046   3.207   1.502
  955SOL    HW2 3850   4.077   3.295   1.524
  955SOL    HW3 3851   4.112   3.149   1.539
  955SOL    MW4 3852   4.059   3.211   1.509
  956SOL     OW 3853   4.060   3.466   1.603
  956SOL    HW2 3854   4.059   3.481   1.697
  956SOL    HW3 3855   4.136   3.514   1.571
  956SOL    MW4 3856   4.070   3.474   1.611
  957SOL     OW 3857   4.260   3.607   1.467
  957SOL    HW2 3858   4.271   3.698   1.494
  957SOL    HW3 3859   4.249   3.611   1.372
  957SOL    MW4 3860   4.260   3.620   1.458
  958SOL     OW 3861   4.290   3.850   1.597
  958SOL    HW2 3862   4.222   3.911   1.569
  958SOL    HW3 3863   4.372   3.892   1.569
  958SOL    MW4 3864   4.292   3.864   1.590
  959SOL     OW 3865   4.078   4.010   1.505
  959SOL    HW2 3866   4.074   4.092   1.555
  959SOL    HW3 3867   4.098   4.038   1.416
  959SOL    MW4 3868   4.080   4.024   1.500
  960SOL     OW 3869   4.063   4.244   1.622
  960SOL    HW2 3870   4.050   4.273   1.712
  960SOL    HW3 3871   3.997   4.290   1.571
  960SOL    MW4 3872   4.053   4.254   1.627
  961SOL     OW 3873   4.251   4.394   1.487
  961SOL    HW2 3874   4.186   4.340   1.532
  961SOL    HW3 3875   4.222   4.395   1.395
  961SOL    MW4 3876   4.239   4.387   1.481
  962SOL     OW 3877   0.225   4.657   1.892
  962SOL    HW2 3878   0.304   4.701   1.924
  962SOL    HW3 3879   0.234   4.660   1.797
  962SOL    MW4 3880   0.237   4.663   1.884
  963SOL     OW 3881   4.481   0.114   1.985
  963SOL    HW2 3882   4.498   0.203   1.955
  963SOL    HW3 3883   4.550   0.062   1.944
  963SOL    MW4 3884   4.493   0.118   1.976
  964SOL     OW 3885   0.013   0.370   1.853
  964SOL    HW2 3886  -0.066   0.402   1.897
  964SOL    HW3 3887   0.085   0.413   1.898
  964SOL    MW4 3888   0.012   0.380   1.865
  965SOL     OW 3889   0.242   0.445   1.974
  965SOL    HW2 3890   0.316   0.402   1.931
  965SOL    HW3 3891   0.258   0.539   1.962
  965SOL    MW4 3892   0.254   0.452   1.967
  966SOL     OW 3893   0.267   0.711   1.907
  966SOL    HW2 3894   0.337   0.773   1.926
  966SOL    HW3 3895   0.265   0.705   1.812
  966SOL    MW4 3896   0.276   0.719   1.897
  967SOL     OW 3897   0.046   0.874   1.942
  967SOL    HW2 3898  -0.030   0.828   1.904
  967SOL    HW3 3899   0.115   0.808   1.944
  967SOL    MW4 3900   0.045   0.859   1.937
  968SOL     OW 3901   0.032   1.134   1.848
  968SOL    HW2 3902  -0.054   1.167   1.877
  968SOL    HW3 3903   0.032   1.043   1.876
  968SOL    MW4 3904   0.020   1.126   1.856
  969SOL     OW 3905   0.244   1.275   2.015
  969SOL    HW2 3906   0.236   1.370   2.002
  969SOL    HW3 3907   0.184   1.238   1.950
  969SOL    MW4 3908   0.235   1.283   2.005
  970SOL     OW 3909   0.202   1.534   1.901
  970SOL    HW2 3910   0.284   1.582   1.911
  970SOL    HW3 3911   0.136   1.590   1.942
  970SOL    MW4 3912   0.204   1.548   1.908
  971SOL     OW 3913   4.472   1.665   2.019
  971SOL    HW2 3914   4.459   1.665   2.114
  971SOL    HW3 3915   4.398   1.613   1.985
  971SOL    MW4 3916   4.460   1.658   2.027
  972SOL     OW 3917   0.006   1.909   1.879
  972SOL    HW2 3918  -0.078   1.950   1.903
  972SOL    HW3 3919   0.002   1.823   1.920
  972SOL    MW4 3920  -0.006   1.903   1.888
  973SOL     OW 3921   0.203   2.027   2.012
  973SOL    HW2 3922   0.209   2.110   1.964
  973SOL    HW3 3923   0.128   1.982   1.974
  973SOL    MW4 3924   0.194   2.032   2.001
  974SOL     OW 3925   0.227   2.286   1.895
  974SOL    HW2 3926   0.304   2.340   1.912
  974SOL    HW3 3927   0.155   2.334   1.936
  974SOL    MW4 3928   0.227   2.300   1.903
  975SOL     OW 3929   0.007   2.408   1.986
  975SOL    HW2 3930   0.004   2.413   2.082
  975SOL    HW3 3931   0.006   2.499   1.957
  975SOL    MW4 3932   0.007   2.421   1.995
  976SOL     OW 3933   4.454   2.672   1.903
  976SOL    HW2 3934   4.400   2.739   1.946
  976SOL    HW3 3935   4.439   2.686   1.810
  976SOL    MW4 3936   4.445   2.683   1.897
  977SOL     OW 3937   0.207   2.800   1.932
  977SOL    HW2 3938   0.189   2.894   1.934
  977SOL    HW3 3939   0.122   2.760   1.918
  977SOL    MW4 3940   0.193   2.807   1.930
  978SOL     OW 3941   0.189   3.106   1.886
  978SOL    HW2 3942   0.276   3.141   1.906
  978SOL    HW3 3943   0.185   3.105   1.790
  978SOL    MW4 3944   0.200   3.111   1.876
  979SOL     OW 3945   4.471   3.248   1.960
  979SOL    HW2 3946   4.391   3.200   1.941
  979SOL    HW3 3947   4.542   3.193   1.925
  979SOL    MW4 3948   4.470   3.235   1.953
  980SOL     OW 3949   4.485   3.494   1.833
  980SOL    HW2 3950   4.561   3.539   1.871
  980SOL    HW3 3951   4.467   3.423   1.895
  980SOL    MW4 3952   4.493   3.490   1.847
  981SOL     OW 3953   0.203   3.635   1.975
  981SOL    HW2 3954   0.188   3.620   2.068
  981SOL    HW3 3955   0.281   3.583   1.954
  981SOL    MW4 3956   0.211   3.626   1.984
  982SOL     OW 3957   0.227   3.907   1.903
  982SOL    HW2 3958   0.311   3.933   1.939
  982SOL    HW3 3959   0.218   3.815   1.927
  982SOL    MW4 3960   0.237   3.898   1.911
  983SOL     OW 3961   4.480   4.040   1.946
  983SOL    HW2 3962   4.471   4.123   1.901
  983SOL    HW3 3963   4.562   4.002   1.911
  983SOL    MW4 3964   4.490   4.046   1.935
  984SOL     OW 3965   0.006   4.282   1.805
  984SOL    HW2 3966  -0.075   4.316   1.843
  984SOL    HW3 3967   0.075   4.314   1.862
  984SOL    MW4 3968   0.004   4.291   1.817
  985SOL     OW 3969   0.238   4.383   1.945
  985SOL    HW2 3970   0.265   4.386   2.037
  985SOL    HW3 3971   0.225   4.474   1.920
  985SOL    MW4 3972   0.240   4.395   1.954
  986SOL     OW 3973   0.686   4.651   1.856
  986SOL    HW2 3974   0.685   4.559   1.882
  986SOL    HW3 3975   0.703   4.649   1.762
  986SOL    MW4 3976   0.688   4.639   1.847
  987SOL     OW 3977   0.477   0.096   1.993
  987SOL    HW2 3978   0.466   0.185   1.960
  987SOL    HW3 3979   0.545   0.058   1.938
  987SOL    MW4 3980   0.484   0.103   1.982
  988SOL     OW 3981   0.477   0.354   1.888
  988SOL    HW2 3982   0.527   0.429   1.922
  988SOL    HW3 3983   0.489   0.358   1.793
  988SOL    MW4 3984   0.485   0.365   1.880
  989SOL     OW 3985   0.652   0.537   1.977
  989SOL    HW2 3986   0.662   0.546   2.072
  989SOL    HW3 3987   0.726   0.483   1.950
  989SOL    MW4 3988   0.663   0.531   1.986
  990SOL     OW 3989   0.694   0.784   1.872
  990SOL    HW2 3990   0.768   0.818   1.923
  990SOL    HW3 3991   0.686   0.693   1.900
  990SOL    MW4 3992   0.703   0.777   1.883
  991SOL     OW 3993   0.458   0.886   1.984
  991SOL    HW2 3994   0.466   0.981   1.975
  991SOL    HW3 3995   0.540   0.852   1.947
  991SOL    MW4 3996   0.470   0.894   1.978
  992SOL     OW 3997   0.458   1.147   1.878
  992SOL    HW2 3998   0.386   1.203   1.907
  992SOL    HW3 3999   0.438   1.125   1.788
  992SOL    MW4 4000   0.446   1.152   1.870
  993SOL     OW 4001   0.679   1.313   1.964
  993SOL    HW2 4002   0.667   1.338   2.056
  993SOL    HW3 4003   0.605   1.256   1.945
  993SOL    MW4 4004   0.667   1.309   1.974
  994SOL     OW 4005   0.681   1.553   1.847
  994SOL    HW2 4006   0.693   1.464   1.880
  994SOL    HW3 4007   0.692   1.545   1.752
  994SOL    MW4 4008   0.684   1.540   1.839
  995SOL     OW 4009   0.443   1.682   1.958
  995SOL    HW2 4010   0.452   1.694   2.052
  995SOL    HW3 4011   0.520   1.632   1.933
  995SOL    MW4 4012   0.454   1.677   1.967
  996SOL     OW 4013   0.418   1.936   1.855
  996SOL    HW2 4014   0.438   1.856   1.903
  996SOL    HW3 4015   0.342   1.973   1.900
  996SOL    MW4 4016   0.411   1.930   1.867
  997SOL     OW 4017   0.656   2.046   1.936
  997SOL    HW2 4018   0.656   2.029   2.030
  997SOL    HW3 4019   0.570   2.018   1.907
  997SOL    MW4 4020   0.645   2.040   1.945
  998SOL     OW 4021   0.705   2.313   1.856
  998SOL    HW2 4022   0.684   2.221   1.868
  998SOL    HW3 4023   0.697   2.327   1.761
  998SOL    MW4 4024   0.701   2.303   1.845
  999SOL     OW 4025   0.461   2.419   1.935
  999SOL    HW2 4026   0.472   2.424   2.030
  999SOL    HW3 4027   0.543   2.379   1.904
  999SOL    MW4 4028   0.474   2.414   1.943
 1000SOL     OW 4029   0.444   2.676   1.850
 1000SOL    HW2 4030   0.440   2.587   1.884
 1000SOL    HW3 4031   0.365   2.718   1.884
 1000SOL    MW4 4032   0.433   2.670   1.859
 1001SOL     OW 4033   0.660   2.814   1.941
 1001SOL    HW2 4034   0.653   2.820   2.036
 1001SOL    HW3 4035   0.586   2.761   1.914
 1001SOL    MW4 4036   0.650   2.808   1.950
 1002SOL     OW 4037   0.670   3.117   1.867
 1002SOL    HW2 4038   0.676   3.026   1.896
 1002SOL    HW3 4039   0.685   3.112   1.772
 1002SOL    MW4 4040   0.673   3.104   1.858
 1003SOL     OW 4041   0.437   3.215   1.955
 1003SOL    HW2 4042   0.442   3.308   1.932
 1003SOL    HW3 4043   0.520   3.179   1.926
 1003SOL    MW4 4044   0.448   3.222   1.948
 1004SOL     OW 4045   0.435   3.498   1.904
 1004SOL    HW2 4046   0.511   3.544   1.939
 1004SOL    HW3 4047   0.442   3.509   1.809
 1004SOL    MW4 4048   0.446   3.506   1.896
 1005SOL     OW 4049   0.649   3.637   1.989
 1005SOL    HW2 4050   0.731   3.606   1.950
 1005SOL    HW3 4051   0.640   3.727   1.959
 1005SOL    MW4 4052   0.658   3.645   1.980
 1006SOL     OW 4053   0.683   3.887   1.865
 1006SOL    HW2 4054   0.750   3.951   1.891
 1006SOL    HW3 4055   0.686   3.887   1.769
 1006SOL    MW4 4056   0.693   3.896   1.856
 1007SOL     OW 4057   0.465   4.006   2.007
 1007SOL    HW2 4058   0.458   4.096   1.976
 1007SOL    HW3 4059   0.533   3.967   1.951
 1007SOL    MW4 4060   0.473   4.013   1.995
 1008SOL     OW 4061   0.457   4.241   1.837
 1008SOL    HW2 4062   0.396   4.314   1.850
 1008SOL    HW3 4063   0.459   4.228   1.743
 1008SOL    MW4 4064   0.449   4.249   1.826
 1009SOL     OW 4065   0.686   4.382   1.971
 1009SOL    HW2 4066   0.771   4.363   1.933
 1009SOL    HW3 4067   0.623   4.334   1.917
 1009SOL    MW4 4068   0.689   4.373   1.959
 1010SOL     OW 4069   1.100   0.006   1.852
 1010SOL    HW2 4070   1.177   0.057   1.879
 1010SOL    HW3 4071   1.103  -0.072   1.908
 1010SOL    MW4 4072   1.111   0.003   1.863
 1011SOL     OW 4073   0.900   0.143   1.978
 1011SOL    HW2 4074   0.973   0.097   1.936
 1011SOL    HW3 4075   0.823   0.091   1.954
 1011SOL    MW4 4076   0.900   0.130   1.969
 1012SOL     OW 4077   0.894   0.411   1.896
 1012SOL    HW2 4078   0.972   0.451   1.934
 1012SOL    HW3 4079   0.896   0.320   1.927
 1012SOL    MW4 4080   0.905   0.404   1.905
 1013SOL     OW 4081   1.158   0.496   1.981
 1013SOL    HW2 4082   1.221   0.463   1.918
 1013SOL    HW3 4083   1.153   0.590   1.964
 1013SOL    MW4 4084   1.165   0.504   1.971
 1014SOL     OW 4085   1.113   0.762   1.909
 1014SOL    HW2 4086   1.182   0.828   1.919
 1014SOL    HW3 4087   1.034   0.805   1.940
 1014SOL    MW4 4088   1.112   0.776   1.914
 1015SOL     OW 4089   0.895   0.895   2.015
 1015SOL    HW2 4090   0.889   0.893   2.110
 1015SOL    HW3 4091   0.884   0.987   1.992
 1015SOL    MW4 4092   0.893   0.907   2.025
 1016SOL     OW 4093   0.882   1.162   1.904
 1016SOL    HW2 4094   0.812   1.225   1.919
 1016SOL    HW3 4095   0.895   1.162   1.809
 1016SOL    MW4 4096   0.875   1.170   1.893
 1017SOL     OW 4097   1.124   1.273   1.987
 1017SOL    HW2 4098   1.121   1.360   1.947
 1017SOL    HW3 4099   1.047   1.228   1.953
 1017SOL    MW4 4100   1.114   1.279   1.977
 1018SOL     OW 4101   1.134   1.540   1.872
 1018SOL    HW2 4102   1.064   1.598   1.902
 1018SOL    HW3 4103   1.128   1.543   1.777
 1018SOL    MW4 4104   1.124   1.548   1.864
 1019SOL     OW 4105   0.907   1.668   1.952
 1019SOL    HW2 4106   0.886   1.761   1.944
 1019SOL    HW3 4107   0.833   1.622   1.913
 1019SOL    MW4 4108   0.895   1.674   1.946
 1020SOL     OW 4109   0.880   1.914   1.856
 1020SOL    HW2 4110   0.797   1.954   1.880
 1020SOL    HW3 4111   0.883   1.920   1.760
 1020SOL    MW4 4112   0.869   1.920   1.846
 1021SOL     OW 4113   1.107   2.047   1.964
 1021SOL    HW2 4114   1.106   2.137   1.931
 1021SOL    HW3 4115   1.032   2.006   1.922
 1021SOL    MW4 4116   1.097   2.054   1.954
 1022SOL     OW 4117   1.119   2.300   1.883
 1022SOL    HW2 4118   1.200   2.349   1.896
 1022SOL    HW3 4119   1.102   2.306   1.789
 1022SOL    MW4 4120   1.128   2.307   1.873
 1023SOL     OW 4121   0.926   2.452   1.975
 1023SOL    HW2 4122   1.002   2.402   1.944
 1023SOL    HW3 4123   0.851   2.396   1.956
 1023SOL    MW4 4124   0.926   2.438   1.968
 1024SOL     OW 4125   0.915   2.709   1.864
 1024SOL    HW2 4126   0.919   2.615   1.881
 1024SOL    HW3 4127   0.826   2.735   1.889
 1024SOL    MW4 4128   0.904   2.700   1.870
 1025SOL     OW 4129   1.107   2.857   2.005
 1025SOL    HW2 4130   1.077   2.864   2.096
 1025SOL    HW3 4131   1.041   2.802   1.962
 1025SOL    MW4 4132   1.094   2.851   2.011
 1026SOL     OW 4133   1.144   3.088   1.863
 1026SOL    HW2 4134   1.063   3.137   1.877
 1026SOL    HW3 4135   1.136   3.012   1.920
 1026SOL    MW4 4136   1.132   3.085   1.873
 1027SOL     OW 4137   0.906   3.239   1.966
 1027SOL    HW2 4138   0.909   3.222   2.060
 1027SOL    HW3 4139   0.829   3.190   1.935
 1027SOL    MW4 4140   0.896   3.230   1.974
 1028SOL     OW 4141   0.895   3.512   1.906
 1028SOL    HW2 4142   0.888   3.428   1.950
 1028SOL    HW3 4143   0.887   3.491   1.813
 1028SOL    MW4 4144   0.893   3.499   1.899
 1029SOL     OW 4145   1.124   3.619   1.975
 1029SOL    HW2 4146   1.120   3.619   2.070
 1029SOL    HW3 4147   1.043   3.576   1.947
 1029SOL    MW4 4148   1.113   3.614   1.984
 1030SOL     OW 4149   1.112   3.875   1.858
 1030SOL    HW2 4150   1.107   3.796   1.912
 1030SOL    HW3 4151   1.132   3.842   1.770
 1030SOL    MW4 4152   1.114   3.860   1.853
 1031SOL     OW 4153   0.925   4.030   1.966
 1031SOL    HW2 4154   0.942   4.020   2.059
 1031SOL    HW3 4155   0.986   3.968   1.924
 1031SOL    MW4 4156   0.936   4.020   1.973
 1032SOL     OW 4157   0.914   4.276   1.832
 1032SOL    HW2 4158   0.984   4.324   1.876
 1032SOL    HW3 4159   0.912   4.190   1.875
 1032SOL    MW4 4160   0.923   4.271   1.843
 1033SOL     OW 4161   1.118   4.405   1.958
 1033SOL    HW2 4162   1.128   4.398   2.053
 1033SOL    HW3 4163   1.192   4.356   1.923
 1033SOL    MW4 4164   1.129   4.398   1.966
 1034SOL     OW 4165   1.574   0.021   1.848
 1034SOL    HW2 4166   1.661   0.044   1.881
 1034SOL    HW3 4167   1.563  -0.070   1.873
 1034SOL    MW4 4168   1.584   0.012   1.855
 1035SOL     OW 4169   1.349   0.147   1.954
 1035SOL    HW2 4170   1.370   0.136   2.047
 1035SOL    HW3 4171   1.416   0.095   1.909
 1035SOL    MW4 4172   1.361   0.138   1.961
 1036SOL     OW 4173   1.350   0.385   1.824
 1036SOL    HW2 4174   1.349   0.290   1.835
 1036SOL    HW3 4175   1.351   0.398   1.729
 1036SOL    MW4 4176   1.350   0.375   1.813
 1037SOL     OW 4177   1.529   0.505   2.008
 1037SOL    HW2 4178   1.613   0.473   1.975
 1037SOL    HW3 4179   1.464   0.456   1.958
 1037SOL    MW4 4180   1.532   0.494   1.997
 1038SOL     OW 4181   1.572   0.759   1.866
 1038SOL    HW2 4182   1.647   0.803   1.905
 1038SOL    HW3 4183   1.557   0.683   1.921
 1038SOL    MW4 4184   1.580   0.755   1.878
 1039SOL     OW 4185   1.348   0.906   1.927
 1039SOL    HW2 4186   1.344   0.903   2.022
 1039SOL    HW3 4187   1.435   0.874   1.905
 1039SOL    MW4 4188   1.359   0.901   1.937
 1040SOL     OW 4189   1.348   1.165   1.834
 1040SOL    HW2 4190   1.357   1.073   1.859
 1040SOL    HW3 4191   1.273   1.196   1.885
 1040SOL    MW4 4192   1.339   1.157   1.844
 1041SOL     OW 4193   1.534   1.283   2.012
 1041SOL    HW2 4194   1.544   1.376   1.992
 1041SOL    HW3 4195   1.458   1.255   1.962
 1041SOL    MW4 4196   1.526   1.291   2.003
 1042SOL     OW 4197   1.584   1.543   1.925
 1042SOL    HW2 4198   1.651   1.592   1.974
 1042SOL    HW3 4199   1.501   1.582   1.953
 1042SOL    MW4 4200   1.582   1.554   1.935
 1043SOL     OW 4201   1.346   1.654   2.011
 1043SOL    HW2 4202   1.353   1.622   2.101
 1043SOL    HW3 4203   1.269   1.610   1.976
 1043SOL    MW4 4204   1.337   1.644   2.019
 1044SOL     OW 4205   1.338   1.911   1.914
 1044SOL    HW2 4206   1.334   1.830   1.965
 1044SOL    HW3 4207   1.260   1.959   1.939
 1044SOL    MW4 4208   1.327   1.907   1.924
 1045SOL     OW 4209   1.565   2.052   1.971
 1045SOL    HW2 4210   1.563   2.126   1.910
 1045SOL    HW3 4211   1.488   2.000   1.948
 1045SOL    MW4 4212   1.554   2.055   1.960
 1046SOL     OW 4213   1.551   2.302   1.848
 1046SOL    HW2 4214   1.634   2.342   1.874
 1046SOL    HW3 4215   1.558   2.291   1.753
 1046SOL    MW4 4216   1.563   2.306   1.839
 1047SOL     OW 4217   1.335   2.456   1.946
 1047SOL    HW2 4218   1.341   2.549   1.923
 1047SOL    HW3 4219   1.405   2.414   1.897
 1047SOL    MW4 4220   1.345   2.463   1.936
 1048SOL     OW 4221   1.342   2.728   1.889
 1048SOL    HW2 4222   1.264   2.758   1.935
 1048SOL    HW3 4223   1.320   2.735   1.796
 1048SOL    MW4 4224   1.329   2.733   1.883
 1049SOL     OW 4225   1.556   2.876   1.976
 1049SOL    HW2 4226   1.632   2.823   1.954
 1049SOL    HW3 4227   1.481   2.821   1.953
 1049SOL    MW4 4228   1.556   2.862   1.970
 1050SOL     OW 4229   1.592   3.141   1.899
 1050SOL    HW2 4230   1.574   3.052   1.930
 1050SOL    HW3 4231   1.611   3.130   1.805
 1050SOL    MW4 4232   1.592   3.128   1.891
 1051SOL     OW 4233   1.329   3.234   1.993
 1051SOL    HW2 4234   1.412   3.209   1.954
 1051SOL    HW3 4235   1.264   3.180   1.947
 1051SOL    MW4 4236   1.331   3.223   1.982
 1052SOL     OW 4237   1.342   3.471   1.877
 1052SOL    HW2 4238   1.333   3.385   1.919
 1052SOL    HW3 4239   1.261   3.517   1.901
 1052SOL    MW4 4240   1.330   3.466   1.886
 1053SOL     OW 4241   1.547   3.636   1.998
 1053SOL    HW2 4242   1.576   3.614   2.086
 1053SOL    HW3 4243   1.476   3.574   1.980
 1053SOL    MW4 4244   1.541   3.625   2.008
 1054SOL     OW 4245   1.559   3.862   1.829
 1054SOL    HW2 4246   1.634   3.911   1.863
 1054SOL    HW3 4247   1.558   3.781   1.880
 1054SOL    MW4 4248   1.568   3.858   1.840
 1055SOL     OW 4249   1.357   3.991   1.955
 1055SOL    HW2 4250   1.426   3.948   1.904
 1055SOL    HW3 4251   1.276   3.948   1.927
 1055SOL    MW4 4252   1.356   3.979   1.945
 1056SOL     OW 4253   1.339   4.279   1.875
 1056SOL    HW2 4254   1.358   4.192   1.911
 1056SOL    HW3 4255   1.353   4.269   1.780
 1056SOL    MW4 4256   1.343   4.266   1.867
 1057SOL     OW 4257   1.581   4.419   1.932
 1057SOL    HW2 4258   1.581   4.413   2.028
 1057SOL    HW3 4259   1.497   4.380   1.906
 1057SOL    MW4 4260   1.570   4.413   1.941
 1058SOL     OW 4261   2.040   4.625   1.872
 1058SOL    HW2 4262   2.114   4.672   1.912
 1058SOL    HW3 4263   2.037   4.542   1.919
 1058SOL    MW4 4264   2.050   4.620   1.883
 1059SOL     OW 4265   1.822   0.085   1.966
 1059SOL    HW2 4266   1.822   0.053   2.056
 1059SOL    HW3 4267   1.905   0.053   1.930
 1059SOL    MW4 4268   1.833   0.077   1.973
 1060SOL     OW 4269   1.751   0.344   1.904
 1060SOL    HW2 4270   1.758   0.255   1.938
 1060SOL    HW3 4271   1.751   0.334   1.809
 1060SOL    MW4 4272   1.752   0.331   1.896
 1061SOL     OW 4273   2.001   0.465   1.955
 1061SOL    HW2 4274   1.984   0.552   1.921
 1061SOL    HW3 4275   1.918   0.418   1.943
 1061SOL    MW4 4276   1.988   0.470   1.949
 1062SOL     OW 4277   1.959   0.758   1.857
 1062SOL    HW2 4278   2.045   0.768   1.897
 1062SOL    HW3 4279   1.975   0.770   1.763
 1062SOL    MW4 4280   1.973   0.761   1.850
 1063SOL     OW 4281   1.762   0.895   2.005
 1063SOL    HW2 4282   1.771   0.985   1.976
 1063SOL    HW3 4283   1.830   0.847   1.957
 1063SOL    MW4 4284   1.772   0.900   1.995
 1064SOL     OW 4285   1.767   1.172   1.933
 1064SOL    HW2 4286   1.695   1.217   1.978
 1064SOL    HW3 4287   1.748   1.185   1.840
 1064SOL    MW4 4288   1.755   1.180   1.926
 1065SOL     OW 4289   2.029   1.288   2.000
 1065SOL    HW2 4290   2.095   1.227   1.965
 1065SOL    HW3 4291   1.946   1.241   1.992
 1065SOL    MW4 4292   2.027   1.274   1.994
 1066SOL     OW 4293   1.969   1.546   1.895
 1066SOL    HW2 4294   1.992   1.457   1.920
 1066SOL    HW3 4295   1.962   1.543   1.800
 1066SOL    MW4 4296   1.971   1.534   1.886
 1067SOL     OW 4297   1.785   1.699   2.002
 1067SOL    HW2 4298   1.784   1.772   1.941
 1067SOL    HW3 4299   1.851   1.639   1.966
 1067SOL    MW4 4300   1.794   1.700   1.989
 1068SOL     OW 4301   1.807   1.938   1.885
 1068SOL    HW2 4302   1.723   1.978   1.908
 1068SOL    HW3 4303   1.807   1.935   1.789
 1068SOL    MW4 4304   1.796   1.943   1.875
 1069SOL     OW 4305   2.034   2.035   2.033
 1069SOL    HW2 4306   2.108   1.994   1.988
 1069SOL    HW3 4307   1.957   1.999   1.989
 1069SOL    MW4 4308   2.033   2.024   2.021
 1070SOL     OW 4309   2.022   2.269   1.878
 1070SOL    HW2 4310   2.093   2.322   1.914
 1070SOL    HW3 4311   2.029   2.185   1.925
 1070SOL    MW4 4312   2.032   2.265   1.889
 1071SOL     OW 4313   1.798   2.409   1.952
 1071SOL    HW2 4314   1.787   2.395   2.046
 1071SOL    HW3 4315   1.867   2.347   1.927
 1071SOL    MW4 4316   1.806   2.399   1.961
 1072SOL     OW 4317   1.778   2.698   1.902
 1072SOL    HW2 4318   1.773   2.606   1.931
 1072SOL    HW3 4319   1.779   2.693   1.807
 1072SOL    MW4 4320   1.777   2.685   1.893
 1073SOL     OW 4321   2.001   2.848   1.946
 1073SOL    HW2 4322   2.013   2.848   2.041
 1073SOL    HW3 4323   1.929   2.786   1.932
 1073SOL    MW4 4324   1.993   2.840   1.957
 1074SOL     OW 4325   2.008   3.123   1.865
 1074SOL    HW2 4326   1.938   3.180   1.897
 1074SOL    HW3 4327   1.993   3.040   1.909
 1074SOL    MW4 4328   1.997   3.120   1.875
 1075SOL     OW 4329   1.826   3.248   2.000
 1075SOL    HW2 4330   1.830   3.236   2.095
 1075SOL    HW3 4331   1.742   3.210   1.974
 1075SOL    MW4 4332   1.816   3.241   2.009
 1076SOL     OW 4333   1.763   3.497   1.880
 1076SOL    HW2 4334   1.763   3.411   1.921
 1076SOL    HW3 4335   1.685   3.541   1.915
 1076SOL    MW4 4336   1.753   3.492   1.890
 1077SOL     OW 4337   2.007   3.611   1.958
 1077SOL    HW2 4338   1.993   3.702   1.931
 1077SOL    HW3 4339   1.928   3.565   1.930
 1077SOL    MW4 4340   1.995   3.617   1.951
 1078SOL     OW 4341   1.998   3.887   1.863
 1078SOL    HW2 4342   2.082   3.928   1.882
 1078SOL    HW3 4343   1.996   3.879   1.768
 1078SOL    MW4 4344   2.009   3.892   1.853
 1079SOL     OW 4345   1.768   4.017   1.943
 1079SOL    HW2 4346   1.768   4.107   1.909
 1079SOL    HW3 4347   1.855   3.983   1.919
 1079SOL    MW4 4348   1.780   4.025   1.935
 1080SOL     OW 4349   1.808   4.288   1.874
 1080SOL    HW2 4350   1.732   4.343   1.893
 1080SOL    HW3 4351   1.825   4.301   1.781
 1080SOL    MW4 4352   1.801   4.297   1.865
 1081SOL     OW 4353   2.041   4.386   2.006
 1081SOL    HW2 4354   2.116   4.345   1.964
 1081SOL    HW3 4355   1.965   4.357   1.956
 1081SOL    MW4 4356   2.041   4.377   1.994
 1082SOL     OW 4357   2.495   4.653   1.897
 1082SOL    HW2 4358   2.581   4.680   1.930
 1082SOL    HW3 4359   2.494   4.558   1.908
 1082SOL    MW4 4360   2.506   4.644   1.903
 1083SOL     OW 4361   2.237   0.100   1.999
 1083SOL    HW2 4362   2.235   0.090   2.095
 1083SOL    HW3 4363   2.323   0.067   1.974
 1083SOL    MW4 4364   2.248   0.095   2.009
 1084SOL     OW 4365   2.261   0.370   1.889
 1084SOL    HW2 4366   2.262   0.282   1.926
 1084SOL    HW3 4367   2.179   0.408   1.920
 1084SOL    MW4 4368   2.250   0.364   1.898
 1085SOL     OW 4369   2.484   0.500   2.014
 1085SOL    HW2 4370   2.561   0.450   1.988
 1085SOL    HW3 4371   2.411   0.457   1.970
 1085SOL    MW4 4372   2.484   0.488   2.005
 1086SOL     OW 4373   2.473   0.762   1.921
 1086SOL    HW2 4374   2.482   0.670   1.948
 1086SOL    HW3 4375   2.455   0.757   1.827
 1086SOL    MW4 4376   2.472   0.749   1.912
 1087SOL     OW 4377   2.211   0.807   1.970
 1087SOL    HW2 4378   2.204   0.836   2.061
 1087SOL    HW3 4379   2.305   0.795   1.957
 1087SOL    MW4 4380   2.222   0.809   1.981
 1088SOL     OW 4381   2.206   1.097   1.913
 1088SOL    HW2 4382   2.287   1.134   1.947
 1088SOL    HW3 4383   2.207   1.005   1.942
 1088SOL    MW4 4384   2.217   1.090   1.921
 1089SOL     OW 4385   2.448   1.179   2.005
 1089SOL    HW2 4386   2.443   1.172   2.100
 1089SOL    HW3 4387   2.438   1.273   1.988
 1089SOL    MW4 4388   2.446   1.191   2.015
 1090SOL     OW 4389   2.430   1.460   1.899
 1090SOL    HW2 4390   2.358   1.511   1.935
 1090SOL    HW3 4391   2.439   1.492   1.809
 1090SOL    MW4 4392   2.422   1.471   1.892
 1091SOL     OW 4393   2.238   1.659   1.978
 1091SOL    HW2 4394   2.221   1.659   2.072
 1091SOL    HW3 4395   2.158   1.625   1.939
 1091SOL    MW4 4396   2.225   1.655   1.986
 1092SOL     OW 4397   2.243   1.925   1.893
 1092SOL    HW2 4398   2.327   1.968   1.909
 1092SOL    HW3 4399   2.251   1.840   1.935
 1092SOL    MW4 4400   2.255   1.920   1.901
 1093SOL     OW 4401   2.476   2.041   1.995
 1093SOL    HW2 4402   2.555   1.992   1.974
 1093SOL    HW3 4403   2.490   2.128   1.958
 1093SOL    MW4 4404   2.488   2.046   1.987
 1094SOL     OW 4405   2.461   2.289   1.874
 1094SOL    HW2 4406   2.540   2.332   1.905
 1094SOL    HW3 4407   2.389   2.340   1.912
 1094SOL    MW4 4408   2.462   2.302   1.883
 1095SOL     OW 4409   2.244   2.425   1.958
 1095SOL    HW2 4410   2.253   2.424   2.054
 1095SOL    HW3 4411   2.245   2.518   1.935
 1095SOL    MW4 4412   2.245   2.437   1.968
 1096SOL     OW 4413   2.244   2.684   1.872
 1096SOL    HW2 4414   2.182   2.744   1.912
 1096SOL    HW3 4415   2.239   2.703   1.778
 1096SOL    MW4 4416   2.235   2.694   1.865
 1097SOL     OW 4417   2.463   2.813   1.985
 1097SOL    HW2 4418   2.477   2.900   1.948
 1097SOL    HW3 4419   2.384   2.780   1.942
 1097SOL    MW4 4420   2.455   2.820   1.975
 1098SOL     OW 4421   2.482   3.075   1.874
 1098SOL    HW2 4422   2.397   3.103   1.910
 1098SOL    HW3 4423   2.474   3.091   1.780
 1098SOL    MW4 4424   2.470   3.081   1.867
 1099SOL     OW 4425   2.246   3.183   1.980
 1099SOL    HW2 4426   2.231   3.173   2.074
 1099SOL    HW3 4427   2.162   3.160   1.940
 1099SOL    MW4 4428   2.233   3.179   1.987
 1100SOL     OW 4429   2.249   3.468   1.893
 1100SOL    HW2 4430   2.250   3.379   1.929
 1100SOL    HW3 4431   2.168   3.506   1.926
 1100SOL    MW4 4432   2.239   3.461   1.902
 1101SOL     OW 4433   2.491   3.610   1.963
 1101SOL    HW2 4434   2.510   3.619   2.056
 1101SOL    HW3 4435   2.404   3.569   1.961
 1101SOL    MW4 4436   2.482   3.606   1.975
 1102SOL     OW 4437   2.451   3.852   1.832
 1102SOL    HW2 4438   2.376   3.889   1.878
 1102SOL    HW3 4439   2.462   3.764   1.869
 1102SOL    MW4 4440   2.443   3.845   1.843
 1103SOL     OW 4441   2.249   4.001   1.938
 1103SOL    HW2 4442   2.252   3.982   2.032
 1103SOL    HW3 4443   2.265   4.095   1.932
 1103SOL    MW4 4444   2.252   4.011   1.949
 1104SOL     OW 4445   2.250   4.263   1.885
 1104SOL    HW2 4446   2.319   4.315   1.927
 1104SOL    HW3 4447   2.269   4.270   1.792
 1104SOL    MW4 4448   2.262   4.271   1.878
 1105SOL     OW 4449   2.464   4.401   1.988
 1105SOL    HW2 4450   2.466   4.402   2.083
 1105SOL    HW3 4451   2.539   4.347   1.962
 1105SOL    MW4 4452   2.474   4.394   1.997
 1106SOL     OW 4453   2.924   0.000   1.881
 1106SOL    HW2 4454   3.005   0.035   1.918
 1106SOL    HW3 4455   2.919  -0.090   1.913
 1106SOL    MW4 4456   2.934  -0.007   1.890
 1107SOL     OW 4457   2.730   0.137   1.999
 1107SOL    HW2 4458   2.728   0.109   2.091
 1107SOL    HW3 4459   2.802   0.087   1.961
 1107SOL    MW4 4460   2.739   0.126   2.006
 1108SOL     OW 4461   2.694   0.376   1.882
 1108SOL    HW2 4462   2.766   0.434   1.908
 1108SOL    HW3 4463   2.710   0.294   1.928
 1108SOL    MW4 4464   2.705   0.373   1.891
 1109SOL     OW 4465   2.911   0.525   1.976
 1109SOL    HW2 4466   2.979   0.467   1.941
 1109SOL    HW3 4467   2.921   0.607   1.927
 1109SOL    MW4 4468   2.921   0.528   1.965
 1110SOL     OW 4469   2.952   0.771   1.854
 1110SOL    HW2 4470   3.035   0.805   1.888
 1110SOL    HW3 4471   2.885   0.823   1.899
 1110SOL    MW4 4472   2.954   0.782   1.864
 1111SOL     OW 4473   2.731   0.859   1.988
 1111SOL    HW2 4474   2.704   0.948   1.965
 1111SOL    HW3 4475   2.660   0.803   1.955
 1111SOL    MW4 4476   2.718   0.863   1.980
 1112SOL     OW 4477   2.696   1.135   1.914
 1112SOL    HW2 4478   2.605   1.155   1.938
 1112SOL    HW3 4479   2.703   1.163   1.823
 1112SOL    MW4 4480   2.685   1.141   1.905
 1113SOL     OW 4481   2.923   1.244   2.019
 1113SOL    HW2 4482   2.925   1.331   1.978
 1113SOL    HW3 4483   2.842   1.205   1.987
 1113SOL    MW4 4484   2.913   1.250   2.009
 1114SOL     OW 4485   2.912   1.511   1.880
 1114SOL    HW2 4486   2.989   1.545   1.925
 1114SOL    HW3 4487   2.933   1.519   1.787
 1114SOL    MW4 4488   2.925   1.517   1.873
 1115SOL     OW 4489   2.668   1.607   1.982
 1115SOL    HW2 4490   2.749   1.566   1.953
 1115SOL    HW3 4491   2.598   1.549   1.951
 1115SOL    MW4 4492   2.669   1.594   1.974
 1116SOL     OW 4493   2.706   1.902   1.916
 1116SOL    HW2 4494   2.785   1.951   1.939
 1116SOL    HW3 4495   2.718   1.816   1.956
 1116SOL    MW4 4496   2.718   1.897   1.924
 1117SOL     OW 4497   2.957   2.065   2.007
 1117SOL    HW2 4498   2.964   2.042   2.100
 1117SOL    HW3 4499   3.027   2.014   1.965
 1117SOL    MW4 4500   2.967   2.055   2.014
 1118SOL     OW 4501   2.916   2.295   1.893
 1118SOL    HW2 4502   2.998   2.343   1.901
 1118SOL    HW3 4503   2.929   2.215   1.945
 1118SOL    MW4 4504   2.929   2.290   1.901
 1119SOL     OW 4505   2.688   2.410   1.990
 1119SOL    HW2 4506   2.681   2.505   1.978
 1119SOL    HW3 4507   2.776   2.388   1.960
 1119SOL    MW4 4508   2.699   2.420   1.985
 1120SOL     OW 4509   2.693   2.677   1.936
 1120SOL    HW2 4510   2.617   2.724   1.970
 1120SOL    HW3 4511   2.685   2.684   1.841
 1120SOL    MW4 4512   2.682   2.684   1.928
 1121SOL     OW 4513   2.923   2.810   1.990
 1121SOL    HW2 4514   2.915   2.901   1.963
 1121SOL    HW3 4515   2.846   2.767   1.952
 1121SOL    MW4 4516   2.912   2.816   1.981
 1122SOL     OW 4517   2.898   3.079   1.905
 1122SOL    HW2 4518   2.975   3.131   1.927
 1122SOL    HW3 4519   2.823   3.132   1.932
 1122SOL    MW4 4520   2.898   3.093   1.911
 1123SOL     OW 4521   2.674   3.235   2.004
 1123SOL    HW2 4522   2.693   3.324   1.975
 1123SOL    HW3 4523   2.608   3.203   1.943
 1123SOL    MW4 4524   2.668   3.243   1.992
 1124SOL     OW 4525   2.724   3.478   1.880
 1124SOL    HW2 4526   2.805   3.522   1.906
 1124SOL    HW3 4527   2.654   3.528   1.922
 1124SOL    MW4 4528   2.725   3.490   1.889
 1125SOL     OW 4529   2.931   3.646   1.950
 1125SOL    HW2 4530   2.939   3.650   2.045
 1125SOL    HW3 4531   3.008   3.596   1.921
 1125SOL    MW4 4532   2.942   3.640   1.959
 1126SOL     OW 4533   2.890   3.905   1.870
 1126SOL    HW2 4534   2.897   3.811   1.887
 1126SOL    HW3 4535   2.894   3.913   1.775
 1126SOL    MW4 4536   2.891   3.894   1.860
 1127SOL     OW 4537   2.661   4.014   1.943
 1127SOL    HW2 4538   2.745   3.977   1.918
 1127SOL    HW3 4539   2.596   3.953   1.909
 1127SOL    MW4 4540   2.663   4.001   1.935
 1128SOL     OW 4541   2.672   4.273   1.857
 1128SOL    HW2 4542   2.679   4.184   1.894
 1128SOL    HW3 4543   2.676   4.260   1.763
 1128SOL    MW4 4544   2.673   4.259   1.850
 1129SOL     OW 4545   2.892   4.406   1.958
 1129SOL    HW2 4546   2.872   4.421   2.050
 1129SOL    HW3 4547   2.821   4.351   1.927
 1129SOL    MW4 4548   2.880   4.401   1.966
 1130SOL     OW 4549   3.374   4.662   1.910
 1130SOL    HW2 4550   3.379   4.573   1.945
 1130SOL    HW3 4551   3.376   4.651   1.815
 1130SOL    MW4 4552   3.375   4.649   1.902
 1131SOL     OW 4553   3.151   0.154   1.937
 1131SOL    HW2 4554   3.134   0.159   2.031
 1131SOL    HW3 4555   3.225   0.095   1.928
 1131SOL    MW4 4556   3.158   0.147   1.948
 1132SOL     OW 4557   3.160   0.421   1.868
 1132SOL    HW2 4558   3.172   0.330   1.893
 1132SOL    HW3 4559   3.153   0.418   1.772
 1132SOL    MW4 4560   3.161   0.409   1.858
 1133SOL     OW 4561   3.398   0.524   1.993
 1133SOL    HW2 4562   3.473   0.476   1.957
 1133SOL    HW3 4563   3.323   0.492   1.944
 1133SOL    MW4 4564   3.398   0.514   1.982
 1134SOL     OW 4565   3.397   0.767   1.859
 1134SOL    HW2 4566   3.319   0.802   1.902
 1134SOL    HW3 4567   3.405   0.678   1.893
 1134SOL    MW4 4568   3.388   0.760   1.869
 1135SOL     OW 4569   3.181   0.892   1.956
 1135SOL    HW2 4570   3.156   0.895   2.048
 1135SOL    HW3 4571   3.180   0.984   1.928
 1135SOL    MW4 4572   3.178   0.905   1.964
 1136SOL     OW 4573   3.138   1.140   1.850
 1136SOL    HW2 4574   3.213   1.181   1.893
 1136SOL    HW3 4575   3.062   1.171   1.899
 1136SOL    MW4 4576   3.138   1.149   1.862
 1137SOL     OW 4577   3.348   1.268   1.989
 1137SOL    HW2 4578   3.342   1.279   2.084
 1137SOL    HW3 4579   3.343   1.357   1.954
 1137SOL    MW4 4580   3.346   1.281   1.997
 1138SOL     OW 4581   3.338   1.521   1.904
 1138SOL    HW2 4582   3.410   1.561   1.953
 1138SOL    HW3 4583   3.260   1.567   1.935
 1138SOL    MW4 4584   3.337   1.532   1.915
 1139SOL     OW 4585   3.124   1.646   2.003
 1139SOL    HW2 4586   3.103   1.659   2.095
 1139SOL    HW3 4587   3.125   1.734   1.966
 1139SOL    MW4 4588   3.122   1.659   2.010
 1140SOL     OW 4589   3.151   1.906   1.894
 1140SOL    HW2 4590   3.218   1.967   1.925
 1140SOL    HW3 4591   3.160   1.907   1.799
 1140SOL    MW4 4592   3.161   1.914   1.886
 1141SOL     OW 4593   3.374   2.041   2.018
 1141SOL    HW2 4594   3.445   1.986   1.984
 1141SOL    HW3 4595   3.392   2.128   1.983
 1141SOL    MW4 4596   3.386   2.045   2.009
 1142SOL     OW 4597   3.395   2.283   1.874
 1142SOL    HW2 4598   3.312   2.330   1.883
 1142SOL    HW3 4599   3.417   2.291   1.782
 1142SOL    MW4 4600   3.387   2.290   1.863
 1143SOL     OW 4601   3.155   2.422   1.931
 1143SOL    HW2 4602   3.140   2.420   2.025
 1143SOL    HW3 4603   3.163   2.515   1.909
 1143SOL    MW4 4604   3.154   2.434   1.940
 1144SOL     OW 4605   3.136   2.683   1.862
 1144SOL    HW2 4606   3.073   2.741   1.906
 1144SOL    HW3 4607   3.114   2.691   1.769
 1144SOL    MW4 4608   3.124   2.692   1.855
 1145SOL     OW 4609   3.359   2.850   1.968
 1145SOL    HW2 4610   3.373   2.847   2.062
 1145SOL    HW3 4611   3.293   2.783   1.951
 1145SOL    MW4 4612   3.352   2.841   1.978
 1146SOL     OW 4613   3.353   3.088   1.865
 1146SOL    HW2 4614   3.427   3.124   1.914
 1146SOL    HW3 4615   3.345   2.998   1.895
 1146SOL    MW4 4616   3.362   3.081   1.876
 1147SOL     OW 4617   3.115   3.229   1.963
 1147SOL    HW2 4618   3.127   3.322   1.942
 1147SOL    HW3 4619   3.190   3.185   1.922
 1147SOL    MW4 4620   3.126   3.235   1.955
 1148SOL     OW 4621   3.144   3.491   1.865
 1148SOL    HW2 4622   3.231   3.509   1.901
 1148SOL    HW3 4623   3.156   3.501   1.770
 1148SOL    MW4 4624   3.157   3.495   1.857
 1149SOL     OW 4625   3.352   3.579   2.014
 1149SOL    HW2 4626   3.434   3.544   1.978
 1149SOL    HW3 4627   3.336   3.659   1.963
 1149SOL    MW4 4628   3.360   3.585   2.002
 1150SOL     OW 4629   3.341   3.809   1.871
 1150SOL    HW2 4630   3.295   3.880   1.915
 1150SOL    HW3 4631   3.352   3.839   1.781
 1150SOL    MW4 4632   3.337   3.822   1.865
 1151SOL     OW 4633   3.141   3.988   1.960
 1151SOL    HW2 4634   3.146   3.998   2.055
 1151SOL    HW3 4635   3.053   3.954   1.944
 1151SOL    MW4 4636   3.130   3.985   1.970
 1152SOL     OW 4637   3.118   4.276   1.893
 1152SOL    HW2 4638   3.135   4.196   1.941
 1152SOL    HW3 4639   3.033   4.306   1.925
 1152SOL    MW4 4640   3.109   4.270   1.904
 1153SOL     OW 4641   3.375   4.394   1.973
 1153SOL    HW2 4642   3.436   4.354   1.912
 1153SOL    HW3 4643   3.288   4.366   1.944
 1153SOL    MW4 4644   3.371   4.385   1.961
 1154SOL     OW 4645   3.807   4.630   1.882
 1154SOL    HW2 4646   3.798   4.552   1.937
 1154SOL    HW3 4647   3.740   4.691   1.915
 1154SOL    MW4 4648   3.797   4.628   1.894
 1155SOL     OW 4649   3.611   0.135   1.971
 1155SOL    HW2 4650   3.597   0.157   2.063
 1155SOL    HW3 4651   3.530   0.092   1.944
 1155SOL    MW4 4652   3.598   0.132   1.979
 1156SOL     OW 4653   3.616   0.392   1.877
 1156SOL    HW2 4654   3.603   0.303   1.911
 1156SOL    HW3 4655   3.615   0.381   1.782
 1156SOL    MW4 4656   3.614   0.378   1.869
 1157SOL     OW 4657   3.846   0.486   1.990
 1157SOL    HW2 4658   3.867   0.572   1.953
 1157SOL    HW3 4659   3.759   0.466   1.957
 1157SOL    MW4 4660   3.838   0.495   1.981
 1158SOL     OW 4661   3.867   0.753   1.916
 1158SOL    HW2 4662   3.796   0.802   1.958
 1158SOL    HW3 4663   3.854   0.768   1.822
 1158SOL    MW4 4664   3.856   0.762   1.909
 1159SOL     OW 4665   3.626   0.892   1.997
 1159SOL    HW2 4666   3.620   0.984   1.972
 1159SOL    HW3 4667   3.550   0.851   1.955
 1159SOL    MW4 4668   3.615   0.899   1.988
 1160SOL     OW 4669   3.594   1.166   1.886
 1160SOL    HW2 4670   3.508   1.192   1.917
 1160SOL    HW3 4671   3.592   1.180   1.792
 1160SOL    MW4 4672   3.583   1.171   1.878
 1161SOL     OW 4673   3.823   1.255   2.016
 1161SOL    HW2 4674   3.806   1.254   2.110
 1161SOL    HW3 4675   3.742   1.222   1.977
 1161SOL    MW4 4676   3.810   1.250   2.023
 1162SOL     OW 4677   3.797   1.509   1.923
 1162SOL    HW2 4678   3.872   1.564   1.946
 1162SOL    HW3 4679   3.814   1.426   1.967
 1162SOL    MW4 4680   3.809   1.506   1.932
 1163SOL     OW 4681   3.576   1.650   2.004
 1163SOL    HW2 4682   3.580   1.739   1.971
 1163SOL    HW3 4683   3.649   1.605   1.961
 1163SOL    MW4 4684   3.586   1.656   1.994
 1164SOL     OW 4685   3.588   1.917   1.926
 1164SOL    HW2 4686   3.656   1.976   1.960
 1164SOL    HW3 4687   3.608   1.909   1.833
 1164SOL    MW4 4688   3.600   1.924   1.918
 1165SOL     OW 4689   3.787   2.089   2.009
 1165SOL    HW2 4690   3.866   2.050   1.973
 1165SOL    HW3 4691   3.781   2.175   1.966
 1165SOL    MW4 4692   3.797   2.095   1.998
 1166SOL     OW 4693   3.788   2.344   1.915
 1166SOL    HW2 4694   3.861   2.389   1.959
 1166SOL    HW3 4695   3.710   2.387   1.948
 1166SOL    MW4 4696   3.788   2.356   1.925
 1167SOL     OW 4697   3.551   2.443   2.038
 1167SOL    HW2 4698   3.536   2.523   1.988
 1167SOL    HW3 4699   3.505   2.374   1.989
 1167SOL    MW4 4700   3.543   2.444   2.025
 1168SOL     OW 4701   3.548   2.681   1.878
 1168SOL    HW2 4702   3.631   2.723   1.898
 1168SOL    HW3 4703   3.482   2.747   1.900
 1168SOL    MW4 4704   3.550   2.695   1.884
 1169SOL     OW 4705   3.783   2.801   1.967
 1169SOL    HW2 4706   3.787   2.800   2.062
 1169SOL    HW3 4707   3.784   2.894   1.943
 1169SOL    MW4 4708   3.783   2.813   1.976
 1170SOL     OW 4709   3.792   3.058   1.871
 1170SOL    HW2 4710   3.721   3.116   1.901
 1170SOL    HW3 4711   3.789   3.065   1.776
 1170SOL    MW4 4712   3.782   3.067   1.862
 1171SOL     OW 4713   3.581   3.222   1.973
 1171SOL    HW2 4714   3.589   3.201   2.066
 1171SOL    HW3 4715   3.601   3.316   1.968
 1171SOL    MW4 4716   3.585   3.232   1.985
 1172SOL     OW 4717   3.586   3.486   1.900
 1172SOL    HW2 4718   3.667   3.523   1.935
 1172SOL    HW3 4719   3.587   3.509   1.807
 1172SOL    MW4 4720   3.597   3.494   1.892
 1173SOL     OW 4721   3.843   3.592   1.996
 1173SOL    HW2 4722   3.922   3.550   1.962
 1173SOL    HW3 4723   3.834   3.672   1.943
 1173SOL    MW4 4724   3.852   3.597   1.984
 1174SOL     OW 4725   3.835   3.841   1.852
 1174SOL    HW2 4726   3.752   3.887   1.860
 1174SOL    HW3 4727   3.848   3.832   1.757
 1174SOL    MW4 4728   3.826   3.846   1.840
 1175SOL     OW 4729   3.599   3.977   1.928
 1175SOL    HW2 4730   3.630   3.970   2.018
 1175SOL    HW3 4731   3.527   3.914   1.922
 1175SOL    MW4 4732   3.594   3.968   1.939
 1176SOL     OW 4733   3.580   4.257   1.840
 1176SOL    HW2 4734   3.630   4.311   1.901
 1176SOL    HW3 4735   3.590   4.168   1.872
 1176SOL    MW4 4736   3.588   4.252   1.852
 1177SOL     OW 4737   3.788   4.388   2.006
 1177SOL    HW2 4738   3.799   4.389   2.101
 1177SOL    HW3 4739   3.872   4.355   1.973
 1177SOL    MW4 4740   3.801   4.384   2.014
 1178SOL     OW 4741   4.293   4.634   1.869
 1178SOL    HW2 4742   4.212   4.675   1.899
 1178SOL    HW3 4743   4.362   4.685   1.912
 1178SOL    MW4 4744   4.292   4.646   1.879
 1179SOL     OW 4745   4.059   0.113   1.956
 1179SOL    HW2 4746   4.053   0.122   2.051
 1179SOL    HW3 4747   3.978   0.069   1.931
 1179SOL    MW4 4748   4.048   0.109   1.965
 1180SOL     OW 4749   4.073   0.382   1.889
 1180SOL    HW2 4750   4.075   0.291   1.918
 1180SOL    HW3 4751   3.992   0.417   1.924
 1180SOL    MW4 4752   4.063   0.374   1.897
 1181SOL     OW 4753   4.299   0.490   1.993
 1181SOL    HW2 4754   4.289   0.502   2.087
 1181SOL    HW3 4755   4.212   0.460   1.964
 1181SOL    MW4 4756   4.286   0.487   2.002
 1182SOL     OW 4757   4.294   0.758   1.879
 1182SOL    HW2 4758   4.282   0.672   1.921
 1182SOL    HW3 4759   4.278   0.741   1.786
 1182SOL    MW4 4760   4.290   0.744   1.872
 1183SOL     OW 4761   4.096   0.891   1.997
 1183SOL    HW2 4762   4.175   0.849   1.963
 1183SOL    HW3 4763   4.024   0.843   1.956
 1183SOL    MW4 4764   4.097   0.879   1.987
 1184SOL     OW 4765   4.040   1.172   1.873
 1184SOL    HW2 4766   4.047   1.077   1.879
 1184SOL    HW3 4767   3.976   1.196   1.941
 1184SOL    MW4 4768   4.032   1.163   1.883
 1185SOL     OW 4769   4.288   1.274   1.943
 1185SOL    HW2 4770   4.284   1.254   2.036
 1185SOL    HW3 4771   4.204   1.245   1.908
 1185SOL    MW4 4772   4.276   1.268   1.950
 1186SOL     OW 4773   4.260   1.547   1.899
 1186SOL    HW2 4774   4.273   1.453   1.915
 1186SOL    HW3 4775   4.271   1.557   1.804
 1186SOL    MW4 4776   4.263   1.536   1.889
 1187SOL     OW 4777   4.011   1.692   1.993
 1187SOL    HW2 4778   4.025   1.670   2.085
 1187SOL    HW3 4779   4.086   1.654   1.947
 1187SOL    MW4 4780   4.023   1.684   1.999
 1188SOL     OW 4781   4.008   1.956   1.894
 1188SOL    HW2 4782   4.026   1.865   1.915
 1188SOL    HW3 4783   4.003   1.957   1.798
 1188SOL    MW4 4784   4.009   1.944   1.884
 1189SOL     OW 4785   4.249   2.022   1.972
 1189SOL    HW2 4786   4.254   2.015   2.067
 1189SOL    HW3 4787   4.157   2.003   1.952
 1189SOL    MW4 4788   4.237   2.018   1.982
 1190SOL     OW 4789   4.247   2.299   1.902
 1190SOL    HW2 4790   4.254   2.204   1.915
 1190SOL    HW3 4791   4.333   2.333   1.926
 1190SOL    MW4 4792   4.259   2.291   1.907
 1191SOL     OW 4793   4.034   2.436   2.009
 1191SOL    HW2 4794   4.047   2.416   2.102
 1191SOL    HW3 4795   4.112   2.401   1.966
 1191SOL    MW4 4796   4.046   2.428   2.016
 1192SOL     OW 4797   4.035   2.690   1.908
 1192SOL    HW2 4798   4.059   2.611   1.955
 1192SOL    HW3 4799   3.945   2.708   1.934
 1192SOL    MW4 4800   4.027   2.682   1.917
 1193SOL     OW 4801   4.254   2.845   1.988
 1193SOL    HW2 4802   4.245   2.857   2.083
 1193SOL    HW3 4803   4.179   2.790   1.964
 1193SOL    MW4 4804   4.243   2.840   1.998
 1194SOL     OW 4805   4.234   3.108   1.918
 1194SOL    HW2 4806   4.150   3.144   1.948
 1194SOL    HW3 4807   4.232   3.016   1.947
 1194SOL    MW4 4808   4.223   3.100   1.926
 1195SOL     OW 4809   3.996   3.231   1.975
 1195SOL    HW2 4810   3.994   3.228   2.071
 1195SOL    HW3 4811   3.938   3.160   1.948
 1195SOL    MW4 4812   3.988   3.221   1.984
 1196SOL     OW 4813   4.056   3.477   1.871
 1196SOL    HW2 4814   4.132   3.521   1.911
 1196SOL    HW3 4815   4.051   3.393   1.915
 1196SOL    MW4 4816   4.066   3.472   1.882
 1197SOL     OW 4817   4.280   3.618   1.972
 1197SOL    HW2 4818   4.264   3.710   1.953
 1197SOL    HW3 4819   4.346   3.591   1.908
 1197SOL    MW4 4820   4.286   3.627   1.961
 1198SOL     OW 4821   4.277   3.869   1.871
 1198SOL    HW2 4822   4.358   3.906   1.905
 1198SOL    HW3 4823   4.294   3.854   1.778
 1198SOL    MW4 4824   4.290   3.872   1.863
 1199SOL     OW 4825   4.048   3.992   1.945
 1199SOL    HW2 4826   4.129   3.961   1.903
 1199SOL    HW3 4827   3.980   3.938   1.906
 1199SOL    MW4 4828   4.050   3.981   1.934
 1200SOL     OW 4829   4.028   4.273   1.911
 1200SOL    HW2 4830   4.117   4.309   1.910
 1200SOL    HW3 4831   4.040   4.179   1.920
 1200SOL    MW4 4832   4.041   4.266   1.912
 1201SOL     OW 4833   4.275   4.372   1.913
 1201SOL    HW2 4834   4.294   4.357   2.006
 1201SOL    HW3 4835   4.282   4.467   1.902
 1201SOL    MW4 4836   4.279   4.382   1.924
 1202SOL     OW 4837   0.256   4.648   2.342
 1202SOL    HW2 4838   0.261   4.667   2.436
 1202SOL    HW3 4839   0.318   4.709   2.303
 1202SOL    MW4 4840   0.265   4.659   2.350
 1203SOL     OW 4841   0.015   0.110   2.264
 1203SOL    HW2 4842   0.094   0.077   2.307
 1203SOL    HW3 4843   0.038   0.113   2.171
 1203SOL    MW4 4844   0.028   0.106   2.258
 1204SOL     OW 4845   4.478   0.405   2.336
 1204SOL    HW2 4846   4.566   0.429   2.304
 1204SOL    HW3 4847   4.471   0.311   2.320
 1204SOL    MW4 4848   4.489   0.396   2.329
 1205SOL     OW 4849   0.242   0.470   2.255
 1205SOL    HW2 4850   0.328   0.439   2.284
 1205SOL    HW3 4851   0.246   0.466   2.160
 1205SOL    MW4 4852   0.254   0.465   2.247
 1206SOL     OW 4853   0.240   0.752   2.331
 1206SOL    HW2 4854   0.223   0.759   2.425
 1206SOL    HW3 4855   0.240   0.658   2.314
 1206SOL    MW4 4856   0.238   0.741   2.341
 1207SOL     OW 4857   0.004   0.886   2.261
 1207SOL    HW2 4858   0.080   0.845   2.301
 1207SOL    HW3 4859   0.020   0.879   2.167
 1207SOL    MW4 4860   0.016   0.880   2.254
 1208SOL     OW 4861   4.458   1.130   2.362
 1208SOL    HW2 4862   4.451   1.133   2.457
 1208SOL    HW3 4863   4.479   1.039   2.342
 1208SOL    MW4 4864   4.460   1.118   2.372
 1209SOL     OW 4865   0.205   1.250   2.292
 1209SOL    HW2 4866   0.127   1.198   2.309
 1209SOL    HW3 4867   0.214   1.250   2.197
 1209SOL    MW4 4868   0.196   1.243   2.282
 1210SOL     OW 4869   0.195   1.517   2.368
 1210SOL    HW2 4870   0.205   1.519   2.463
 1210SOL    HW3 4871   0.188   1.424   2.346
 1210SOL    MW4 4872   0.196   1.505   2.378
 1211SOL     OW 4873   4.455   1.652   2.292
 1211SOL    HW2 4874   4.474   1.742   2.320
 1211SOL    HW3 4875   4.533   1.602   2.318
 1211SOL    MW4 4876   4.468   1.657   2.299
 1212SOL     OW 4877   4.476   1.907   2.393
 1212SOL    HW2 4878   4.405   1.952   2.348
 1212SOL    HW3 4879   4.556   1.950   2.361
 1212SOL    MW4 4880   4.477   1.919   2.383
 1213SOL     OW 4881   0.247   2.008   2.285
 1213SOL    HW2 4882   0.336   1.977   2.303
 1213SOL    HW3 4883   0.242   2.010   2.189
 1213SOL    MW4 4884   0.258   2.004   2.274
 1214SOL     OW 4885   0.233   2.306   2.314
 1214SOL    HW2 4886   0.226   2.324   2.408
 1214SOL    HW3 4887   0.224   2.211   2.307
 1214SOL    MW4 4888   0.231   2.296   2.325
 1215SOL     OW 4889   4.484   2.414   2.277
 1215SOL    HW2 4890   4.485   2.506   2.301
 1215SOL    HW3 4891   4.576   2.387   2.282
 1215SOL    MW4 4892   4.497   2.423   2.281
 1216SOL     OW 4893   4.481   2.693   2.354
 1216SOL    HW2 4894   4.498   2.677   2.447
 1216SOL    HW3 4895   4.560   2.737   2.323
 1216SOL    MW4 4896   4.494   2.696   2.362
 1217SOL     OW 4897   0.218   2.791   2.243
 1217SOL    HW2 4898   0.297   2.740   2.262
 1217SOL    HW3 4899   0.209   2.786   2.148
 1217SOL    MW4 4900   0.227   2.784   2.233
 1218SOL     OW 4901   0.219   3.062   2.349
 1218SOL    HW2 4902   0.147   3.107   2.304
 1218SOL    HW3 4903   0.219   2.974   2.311
 1218SOL    MW4 4904   0.209   3.056   2.338
 1219SOL     OW 4905   0.001   3.168   2.235
 1219SOL    HW2 4906   0.003   3.254   2.279
 1219SOL    HW3 4907  -0.005   3.190   2.142
 1219SOL    MW4 4908   0.000   3.182   2.229
 1220SOL     OW 4909   4.489   3.413   2.366
 1220SOL    HW2 4910   4.496   3.425   2.460
 1220SOL    HW3 4911   4.430   3.483   2.338
 1220SOL    MW4 4912   4.482   3.424   2.374
 1221SOL     OW 4913   0.192   3.588   2.249
 1221SOL    HW2 4914   0.269   3.541   2.283
 1221SOL    HW3 4915   0.118   3.534   2.276
 1221SOL    MW4 4916   0.193   3.574   2.257
 1222SOL     OW 4917   0.216   3.850   2.331
 1222SOL    HW2 4918   0.128   3.882   2.309
 1222SOL    HW3 4919   0.214   3.758   2.305
 1222SOL    MW4 4920   0.204   3.842   2.325
 1223SOL     OW 4921   4.476   4.001   2.234
 1223SOL    HW2 4922   4.505   4.083   2.274
 1223SOL    HW3 4923   4.483   4.016   2.140
 1223SOL    MW4 4924   4.481   4.014   2.227
 1224SOL     OW 4925   0.057   4.256   2.309
 1224SOL    HW2 4926   0.053   4.275   2.403
 1224SOL    HW3 4927   0.143   4.288   2.282
 1224SOL    MW4 4928   0.068   4.263   2.318
 1225SOL     OW 4929   0.308   4.409   2.214
 1225SOL    HW2 4930   0.361   4.359   2.276
 1225SOL    HW3 4931   0.302   4.496   2.253
 1225SOL    MW4 4932   0.314   4.414   2.228
 1226SOL     OW 4933   0.707   4.637   2.382
 1226SOL    HW2 4934   0.723   4.626   2.476
 1226SOL    HW3 4935   0.786   4.679   2.349
 1226SOL    MW4 4936   0.720   4.641   2.390
 1227SOL     OW 4937   0.497   0.098   2.278
 1227SOL    HW2 4938   0.560   0.046   2.327
 1227SOL    HW3 4939   0.515   0.077   2.186
 1227SOL    MW4 4940   0.507   0.088   2.272
 1228SOL     OW 4941   0.494   0.372   2.371
 1228SOL    HW2 4942   0.502   0.368   2.466
 1228SOL    HW3 4943   0.497   0.281   2.342
 1228SOL    MW4 4944   0.495   0.360   2.380
 1229SOL     OW 4945   0.703   0.503   2.239
 1229SOL    HW2 4946   0.681   0.584   2.286
 1229SOL    HW3 4947   0.633   0.442   2.262
 1229SOL    MW4 4948   0.691   0.506   2.248
 1230SOL     OW 4949   0.653   0.731   2.400
 1230SOL    HW2 4950   0.648   0.730   2.495
 1230SOL    HW3 4951   0.581   0.788   2.372
 1230SOL    MW4 4952   0.643   0.739   2.409
 1231SOL     OW 4953   0.460   0.904   2.263
 1231SOL    HW2 4954   0.384   0.853   2.292
 1231SOL    HW3 4955   0.464   0.890   2.169
 1231SOL    MW4 4956   0.450   0.895   2.255
 1232SOL     OW 4957   0.462   1.163   2.346
 1232SOL    HW2 4958   0.455   1.075   2.309
 1232SOL    HW3 4959   0.372   1.197   2.346
 1232SOL    MW4 4960   0.449   1.156   2.341
 1233SOL     OW 4961   0.646   1.324   2.239
 1233SOL    HW2 4962   0.644   1.395   2.303
 1233SOL    HW3 4963   0.589   1.256   2.276
 1233SOL    MW4 4964   0.638   1.324   2.252
 1234SOL     OW 4965   0.656   1.554   2.396
 1234SOL    HW2 4966   0.677   1.541   2.489
 1234SOL    HW3 4967   0.722   1.616   2.365
 1234SOL    MW4 4968   0.668   1.561   2.404
 1235SOL     OW 4969   0.442   1.649   2.244
 1235SOL    HW2 4970   0.504   1.619   2.310
 1235SOL    HW3 4971   0.356   1.621   2.276
 1235SOL    MW4 4972   0.439   1.641   2.257
 1236SOL     OW 4973   0.485   1.897   2.347
 1236SOL    HW2 4974   0.551   1.925   2.283
 1236SOL    HW3 4975   0.459   1.809   2.318
 1236SOL    MW4 4976   0.490   1.889   2.335
 1237SOL     OW 4977   0.685   2.015   2.209
 1237SOL    HW2 4978   0.759   1.970   2.249
 1237SOL    HW3 4979   0.685   2.102   2.250
 1237SOL    MW4 4980   0.695   2.021   2.219
 1238SOL     OW 4981   0.670   2.266   2.330
 1238SOL    HW2 4982   0.666   2.262   2.425
 1238SOL    HW3 4983   0.747   2.319   2.311
 1238SOL    MW4 4984   0.680   2.273   2.340
 1239SOL     OW 4985   0.482   2.399   2.204
 1239SOL    HW2 4986   0.540   2.350   2.263
 1239SOL    HW3 4987   0.394   2.375   2.233
 1239SOL    MW4 4988   0.478   2.389   2.216
 1240SOL     OW 4989   0.447   2.671   2.315
 1240SOL    HW2 4990   0.456   2.672   2.410
 1240SOL    HW3 4991   0.456   2.579   2.291
 1240SOL    MW4 4992   0.450   2.659   2.324
 1241SOL     OW 4993   0.662   2.840   2.214
 1241SOL    HW2 4994   0.732   2.790   2.257
 1241SOL    HW3 4995   0.581   2.803   2.248
 1241SOL    MW4 4996   0.661   2.829   2.224
 1242SOL     OW 4997   0.705   3.093   2.318
 1242SOL    HW2 4998   0.624   3.140   2.302
 1242SOL    HW3 4999   0.691   3.006   2.281
 1242SOL    MW4 5000   0.693   3.087   2.311
 1243SOL     OW 5001   0.443   3.196   2.239
 1243SOL    HW2 5002   0.360   3.169   2.278
 1243SOL    HW3 5003   0.424   3.205   2.145
 1243SOL    MW4 5004   0.430   3.194   2.231
 1244SOL     OW 5005   0.434   3.464   2.335
 1244SOL    HW2 5006   0.497   3.531   2.308
 1244SOL    HW3 5007   0.467   3.383   2.297
 1244SOL    MW4 5008   0.446   3.462   2.326
 1245SOL     OW 5009   0.651   3.634   2.257
 1245SOL    HW2 5010   0.665   3.710   2.314
 1245SOL    HW3 5011   0.660   3.669   2.169
 1245SOL    MW4 5012   0.654   3.649   2.253
 1246SOL     OW 5013   0.678   3.882   2.364
 1246SOL    HW2 5014   0.678   3.890   2.460
 1246SOL    HW3 5015   0.599   3.927   2.336
 1246SOL    MW4 5016   0.668   3.889   2.373
 1247SOL     OW 5017   0.449   4.009   2.280
 1247SOL    HW2 5018   0.370   3.958   2.293
 1247SOL    HW3 5019   0.456   4.021   2.185
 1247SOL    MW4 5020   0.440   4.004   2.269
 1248SOL     OW 5021   0.469   4.259   2.378
 1248SOL    HW2 5022   0.560   4.282   2.360
 1248SOL    HW3 5023   0.458   4.173   2.339
 1248SOL    MW4 5024   0.480   4.251   2.370
 1249SOL     OW 5025   0.716   4.384   2.267
 1249SOL    HW2 5026   0.724   4.476   2.293
 1249SOL    HW3 5027   0.700   4.387   2.172
 1249SOL    MW4 5028   0.715   4.397   2.258
 1250SOL     OW 5029   1.139   4.592   2.363
 1250SOL    HW2 5030   1.135   4.609   2.458
 1250SOL    HW3 5031   1.067   4.644   2.327
 1250SOL    MW4 5032   1.129   4.601   2.371
 1251SOL     OW 5033   0.917   0.098   2.262
 1251SOL    HW2 5034   0.921   0.185   2.300
 1251SOL    HW3 5035   0.909   0.112   2.168
 1251SOL    MW4 5036   0.917   0.111   2.255
 1252SOL     OW 5037   0.924   0.360   2.351
 1252SOL    HW2 5038   0.992   0.426   2.335
 1252SOL    HW3 5039   0.845   0.396   2.310
 1252SOL    MW4 5040   0.923   0.374   2.344
 1253SOL     OW 5041   1.147   0.515   2.270
 1253SOL    HW2 5042   1.209   0.460   2.317
 1253SOL    HW3 5043   1.140   0.474   2.183
 1253SOL    MW4 5044   1.154   0.502   2.265
 1254SOL     OW 5045   1.155   0.788   2.351
 1254SOL    HW2 5046   1.067   0.826   2.346
 1254SOL    HW3 5047   1.144   0.697   2.322
 1254SOL    MW4 5048   1.142   0.781   2.347
 1255SOL     OW 5049   0.895   0.880   2.310
 1255SOL    HW2 5050   0.881   0.972   2.333
 1255SOL    HW3 5051   0.813   0.837   2.335
 1255SOL    MW4 5052   0.882   0.887   2.316
 1256SOL     OW 5053   0.849   1.170   2.351
 1256SOL    HW2 5054   0.933   1.198   2.314
 1256SOL    HW3 5055   0.787   1.235   2.318
 1256SOL    MW4 5056   0.852   1.183   2.342
 1257SOL     OW 5057   1.093   1.243   2.256
 1257SOL    HW2 5058   1.172   1.198   2.285
 1257SOL    HW3 5059   1.102   1.249   2.161
 1257SOL    MW4 5060   1.105   1.238   2.247
 1258SOL     OW 5061   1.076   1.495   2.368
 1258SOL    HW2 5062   1.016   1.539   2.308
 1258SOL    HW3 5063   1.083   1.406   2.334
 1258SOL    MW4 5064   1.069   1.489   2.355
 1259SOL     OW 5065   0.876   1.648   2.229
 1259SOL    HW2 5066   0.898   1.737   2.258
 1259SOL    HW3 5067   0.901   1.646   2.137
 1259SOL    MW4 5068   0.882   1.659   2.220
 1260SOL     OW 5069   0.902   1.907   2.331
 1260SOL    HW2 5070   0.903   1.910   2.426
 1260SOL    HW3 5071   0.971   1.968   2.304
 1260SOL    MW4 5072   0.911   1.915   2.340
 1261SOL     OW 5073   1.094   2.074   2.237
 1261SOL    HW2 5074   1.163   2.013   2.263
 1261SOL    HW3 5075   1.101   2.078   2.141
 1261SOL    MW4 5076   1.104   2.066   2.228
 1262SOL     OW 5077   1.123   2.349   2.346
 1262SOL    HW2 5078   1.197   2.393   2.304
 1262SOL    HW3 5079   1.130   2.258   2.316
 1262SOL    MW4 5080   1.134   2.343   2.336
 1263SOL     OW 5081   0.874   2.435   2.248
 1263SOL    HW2 5082   0.956   2.410   2.289
 1263SOL    HW3 5083   0.896   2.446   2.155
 1263SOL    MW4 5084   0.888   2.433   2.241
 1264SOL     OW 5085   0.862   2.697   2.346
 1264SOL    HW2 5086   0.879   2.701   2.441
 1264SOL    HW3 5087   0.854   2.604   2.327
 1264SOL    MW4 5088   0.863   2.685   2.356
 1265SOL     OW 5089   1.077   2.866   2.275
 1265SOL    HW2 5090   1.158   2.827   2.306
 1265SOL    HW3 5091   1.010   2.800   2.292
 1265SOL    MW4 5092   1.078   2.852   2.281
 1266SOL     OW 5093   1.113   3.123   2.365
 1266SOL    HW2 5094   1.049   3.172   2.314
 1266SOL    HW3 5095   1.108   3.033   2.332
 1266SOL    MW4 5096   1.104   3.117   2.354
 1267SOL     OW 5097   0.905   3.249   2.232
 1267SOL    HW2 5098   0.897   3.337   2.268
 1267SOL    HW3 5099   0.823   3.205   2.256
 1267SOL    MW4 5100   0.893   3.255   2.240
 1268SOL     OW 5101   0.890   3.502   2.334
 1268SOL    HW2 5102   0.887   3.507   2.429
 1268SOL    HW3 5103   0.811   3.547   2.305
 1268SOL    MW4 5104   0.879   3.509   2.343
 1269SOL     OW 5105   1.140   3.600   2.249
 1269SOL    HW2 5106   1.216   3.558   2.289
 1269SOL    HW3 5107   1.066   3.545   2.275
 1269SOL    MW4 5108   1.140   3.587   2.258
 1270SOL     OW 5109   1.151   3.871   2.339
 1270SOL    HW2 5110   1.229   3.914   2.305
 1270SOL    HW3 5111   1.171   3.777   2.332
 1270SOL    MW4 5112   1.164   3.864   2.334
 1271SOL     OW 5113   0.921   3.991   2.257
 1271SOL    HW2 5114   0.996   3.947   2.297
 1271SOL    HW3 5115   0.845   3.947   2.294
 1271SOL    MW4 5116   0.921   3.979   2.267
 1272SOL     OW 5117   0.929   4.242   2.367
 1272SOL    HW2 5118   0.930   4.152   2.334
 1272SOL    HW3 5119   0.851   4.281   2.328
 1272SOL    MW4 5120   0.919   4.235   2.358
 1273SOL     OW 5121   1.132   4.354   2.234
 1273SOL    HW2 5122   1.065   4.308   2.284
 1273SOL    HW3 5123   1.149   4.434   2.284
 1273SOL    MW4 5124   1.125   4.359   2.247
 1274SOL     OW 5125   1.543   4.605   2.344
 1274SOL    HW2 5126   1.622   4.647   2.310
 1274SOL    HW3 5127   1.471   4.659   2.310
 1274SOL    MW4 5128   1.544   4.618   2.335
 1275SOL     OW 5129   1.330   0.107   2.256
 1275SOL    HW2 5130   1.338   0.189   2.305
 1275SOL    HW3 5131   1.264   0.057   2.304
 1275SOL    MW4 5132   1.323   0.111   2.269
 1276SOL     OW 5133   1.340   0.351   2.393
 1276SOL    HW2 5134   1.352   0.358   2.488
 1276SOL    HW3 5135   1.418   0.392   2.356
 1276SOL    MW4 5136   1.351   0.357   2.401
 1277SOL     OW 5137   1.540   0.509   2.271
 1277SOL    HW2 5138   1.610   0.445   2.282
 1277SOL    HW3 5139   1.527   0.515   2.176
 1277SOL    MW4 5140   1.547   0.502   2.260
 1278SOL     OW 5141   1.554   0.763   2.375
 1278SOL    HW2 5142   1.641   0.793   2.349
 1278SOL    HW3 5143   1.549   0.673   2.341
 1278SOL    MW4 5144   1.564   0.755   2.367
 1279SOL     OW 5145   1.362   0.899   2.215
 1279SOL    HW2 5146   1.427   0.843   2.258
 1279SOL    HW3 5147   1.279   0.877   2.257
 1279SOL    MW4 5148   1.360   0.889   2.226
 1280SOL     OW 5149   1.338   1.137   2.364
 1280SOL    HW2 5150   1.330   1.112   2.456
 1280SOL    HW3 5151   1.333   1.054   2.316
 1280SOL    MW4 5152   1.336   1.123   2.369
 1281SOL     OW 5153   1.590   1.250   2.299
 1281SOL    HW2 5154   1.506   1.213   2.326
 1281SOL    HW3 5155   1.580   1.266   2.205
 1281SOL    MW4 5156   1.578   1.247   2.290
 1282SOL     OW 5157   1.554   1.532   2.372
 1282SOL    HW2 5158   1.616   1.599   2.340
 1282SOL    HW3 5159   1.584   1.451   2.331
 1282SOL    MW4 5160   1.566   1.530   2.363
 1283SOL     OW 5161   1.312   1.625   2.295
 1283SOL    HW2 5162   1.386   1.576   2.331
 1283SOL    HW3 5163   1.235   1.580   2.328
 1283SOL    MW4 5164   1.312   1.612   2.304
 1284SOL     OW 5165   1.307   1.906   2.326
 1284SOL    HW2 5166   1.390   1.943   2.296
 1284SOL    HW3 5167   1.326   1.812   2.336
 1284SOL    MW4 5168   1.321   1.898   2.323
 1285SOL     OW 5169   1.540   2.041   2.263
 1285SOL    HW2 5170   1.623   2.005   2.295
 1285SOL    HW3 5171   1.556   2.054   2.169
 1285SOL    MW4 5172   1.553   2.038   2.255
 1286SOL     OW 5173   1.540   2.311   2.342
 1286SOL    HW2 5174   1.534   2.299   2.437
 1286SOL    HW3 5175   1.542   2.222   2.307
 1286SOL    MW4 5176   1.539   2.297   2.350
 1287SOL     OW 5177   1.341   2.483   2.223
 1287SOL    HW2 5178   1.421   2.453   2.265
 1287SOL    HW3 5179   1.350   2.457   2.131
 1287SOL    MW4 5180   1.353   2.476   2.216
 1288SOL     OW 5181   1.327   2.752   2.298
 1288SOL    HW2 5182   1.419   2.779   2.297
 1288SOL    HW3 5183   1.327   2.663   2.264
 1288SOL    MW4 5184   1.339   2.744   2.294
 1289SOL     OW 5185   1.573   2.842   2.243
 1289SOL    HW2 5186   1.580   2.930   2.281
 1289SOL    HW3 5187   1.551   2.858   2.151
 1289SOL    MW4 5188   1.571   2.856   2.236
 1290SOL     OW 5189   1.594   3.087   2.397
 1290SOL    HW2 5190   1.584   3.103   2.491
 1290SOL    HW3 5191   1.512   3.117   2.358
 1290SOL    MW4 5192   1.582   3.093   2.404
 1291SOL     OW 5193   1.357   3.213   2.290
 1291SOL    HW2 5194   1.274   3.184   2.327
 1291SOL    HW3 5195   1.340   3.220   2.196
 1291SOL    MW4 5196   1.344   3.210   2.282
 1292SOL     OW 5197   1.387   3.484   2.350
 1292SOL    HW2 5198   1.388   3.494   2.445
 1292SOL    HW3 5199   1.396   3.390   2.335
 1292SOL    MW4 5200   1.388   3.473   2.360
 1293SOL     OW 5201   1.628   3.588   2.284
 1293SOL    HW2 5202   1.618   3.682   2.303
 1293SOL    HW3 5203   1.546   3.549   2.315
 1293SOL    MW4 5204   1.616   3.596   2.291
 1294SOL     OW 5205   1.594   3.854   2.309
 1294SOL    HW2 5206   1.585   3.862   2.404
 1294SOL    HW3 5207   1.663   3.915   2.286
 1294SOL    MW4 5208   1.602   3.863   2.319
 1295SOL     OW 5209   1.369   3.983   2.234
 1295SOL    HW2 5210   1.446   3.930   2.254
 1295SOL    HW3 5211   1.364   3.984   2.139
 1295SOL    MW4 5212   1.379   3.976   2.224
 1296SOL     OW 5213   1.344   4.236   2.347
 1296SOL    HW2 5214   1.357   4.144   2.324
 1296SOL    HW3 5215   1.269   4.264   2.294
 1296SOL    MW4 5216   1.336   4.227   2.337
 1297SOL     OW 5217   1.569   4.367   2.207
 1297SOL    HW2 5218   1.505   4.308   2.247
 1297SOL    HW3 5219   1.557   4.450   2.254
 1297SOL    MW4 5220   1.559   4.370   2.218
 1298SOL     OW 5221   1.989   4.639   2.403
 1298SOL    HW2 5222   2.071   4.684   2.384
 1298SOL    HW3 5223   1.997   4.554   2.359
 1298SOL    MW4 5224   2.001   4.633   2.394
 1299SOL     OW 5225   1.775   0.073   2.256
 1299SOL    HW2 5226   1.745   0.159   2.283
 1299SOL    HW3 5227   1.853   0.057   2.310
 1299SOL    MW4 5228   1.781   0.082   2.267
 1300SOL     OW 5229   1.743   0.334   2.337
 1300SOL    HW2 5230   1.766   0.336   2.430
 1300SOL    HW3 5231   1.823   0.362   2.293
 1300SOL    MW4 5232   1.757   0.338   2.343
 1301SOL     OW 5233   1.979   0.413   2.235
 1301SOL    HW2 5234   1.991   0.499   2.276
 1301SOL    HW3 5235   1.989   0.430   2.141
 1301SOL    MW4 5236   1.982   0.427   2.228
 1302SOL     OW 5237   2.018   0.657   2.350
 1302SOL    HW2 5238   2.103   0.699   2.336
 1302SOL    HW3 5239   1.954   0.724   2.324
 1302SOL    MW4 5240   2.021   0.672   2.345
 1303SOL     OW 5241   1.808   0.849   2.292
 1303SOL    HW2 5242   1.833   0.938   2.316
 1303SOL    HW3 5243   1.782   0.855   2.200
 1303SOL    MW4 5244   1.808   0.861   2.283
 1304SOL     OW 5245   1.828   1.120   2.370
 1304SOL    HW2 5246   1.888   1.185   2.335
 1304SOL    HW3 5247   1.743   1.143   2.332
 1304SOL    MW4 5248   1.825   1.132   2.360
 1305SOL     OW 5249   2.017   1.296   2.287
 1305SOL    HW2 5250   1.991   1.387   2.306
 1305SOL    HW3 5251   2.035   1.296   2.193
 1305SOL    MW4 5252   2.016   1.308   2.277
 1306SOL     OW 5253   1.994   1.569   2.390
 1306SOL    HW2 5254   2.006   1.559   2.485
 1306SOL    HW3 5255   1.914   1.620   2.381
 1306SOL    MW4 5256   1.985   1.574   2.401
 1307SOL     OW 5257   1.766   1.702   2.283
 1307SOL    HW2 5258   1.768   1.789   2.323
 1307SOL    HW3 5259   1.767   1.720   2.189
 1307SOL    MW4 5260   1.767   1.716   2.276
 1308SOL     OW 5261   1.767   1.960   2.398
 1308SOL    HW2 5262   1.759   1.967   2.493
 1308SOL    HW3 5263   1.856   1.991   2.379
 1308SOL    MW4 5264   1.778   1.965   2.408
 1309SOL     OW 5265   2.009   2.051   2.305
 1309SOL    HW2 5266   2.091   2.018   2.342
 1309SOL    HW3 5267   2.017   2.035   2.211
 1309SOL    MW4 5268   2.021   2.045   2.298
 1310SOL     OW 5269   2.039   2.315   2.373
 1310SOL    HW2 5270   2.099   2.364   2.316
 1310SOL    HW3 5271   2.059   2.223   2.354
 1310SOL    MW4 5272   2.050   2.309   2.363
 1311SOL     OW 5273   1.793   2.417   2.267
 1311SOL    HW2 5274   1.862   2.364   2.308
 1311SOL    HW3 5275   1.711   2.379   2.301
 1311SOL    MW4 5276   1.791   2.405   2.277
 1312SOL     OW 5277   1.799   2.679   2.362
 1312SOL    HW2 5278   1.797   2.590   2.327
 1312SOL    HW3 5279   1.725   2.723   2.321
 1312SOL    MW4 5280   1.789   2.673   2.352
 1313SOL     OW 5281   2.024   2.823   2.236
 1313SOL    HW2 5282   2.106   2.778   2.257
 1313SOL    HW3 5283   1.956   2.771   2.278
 1313SOL    MW4 5284   2.026   2.810   2.244
 1314SOL     OW 5285   2.038   3.053   2.371
 1314SOL    HW2 5286   2.108   3.115   2.348
 1314SOL    HW3 5287   2.057   2.975   2.319
 1314SOL    MW4 5288   2.050   3.051   2.361
 1315SOL     OW 5289   1.820   3.189   2.268
 1315SOL    HW2 5290   1.894   3.143   2.306
 1315SOL    HW3 5291   1.743   3.150   2.309
 1315SOL    MW4 5292   1.820   3.178   2.279
 1316SOL     OW 5293   1.851   3.436   2.372
 1316SOL    HW2 5294   1.825   3.345   2.358
 1316SOL    HW3 5295   1.776   3.487   2.339
 1316SOL    MW4 5296   1.838   3.431   2.366
 1317SOL     OW 5297   2.053   3.574   2.223
 1317SOL    HW2 5298   1.975   3.540   2.267
 1317SOL    HW3 5299   2.029   3.573   2.130
 1317SOL    MW4 5300   2.039   3.569   2.216
 1318SOL     OW 5301   2.037   3.839   2.307
 1318SOL    HW2 5302   2.059   3.836   2.400
 1318SOL    HW3 5303   2.039   3.748   2.279
 1318SOL    MW4 5304   2.040   3.827   2.315
 1319SOL     OW 5305   1.820   4.006   2.211
 1319SOL    HW2 5306   1.898   3.953   2.228
 1319SOL    HW3 5307   1.804   3.997   2.117
 1319SOL    MW4 5308   1.828   3.998   2.201
 1320SOL     OW 5309   1.805   4.256   2.317
 1320SOL    HW2 5310   1.815   4.170   2.276
 1320SOL    HW3 5311   1.727   4.293   2.276
 1320SOL    MW4 5312   1.796   4.250   2.306
 1321SOL     OW 5313   2.030   4.401   2.282
 1321SOL    HW2 5314   1.953   4.344   2.288
 1321SOL    HW3 5315   2.037   4.421   2.188
 1321SOL    MW4 5316   2.020   4.396   2.270
 1322SOL     OW 5317   2.469   4.622   2.379
 1322SOL    HW2 5318   2.550   4.657   2.341
 1322SOL    HW3 5319   2.459   4.536   2.339
 1322SOL    MW4 5320   2.478   4.616   2.369
 1323SOL     OW 5321   2.225   0.090   2.306
 1323SOL    HW2 5322   2.236   0.178   2.341
 1323SOL    HW3 5323   2.306   0.045   2.329
 1323SOL    MW4 5324   2.237   0.095   2.314
 1324SOL     OW 5325   2.211   0.371   2.374
 1324SOL    HW2 5326   2.282   0.430   2.349
 1324SOL    HW3 5327   2.135   0.401   2.324
 1324SOL    MW4 5328   2.210   0.383   2.364
 1325SOL     OW 5329   2.462   0.474   2.301
 1325SOL    HW2 5330   2.534   0.425   2.341
 1325SOL    HW3 5331   2.477   0.467   2.207
 1325SOL    MW4 5332   2.473   0.467   2.294
 1326SOL     OW 5333   2.423   0.747   2.332
 1326SOL    HW2 5334   2.502   0.792   2.301
 1326SOL    HW3 5335   2.446   0.654   2.330
 1326SOL    MW4 5336   2.437   0.741   2.328
 1327SOL     OW 5337   2.199   0.871   2.237
 1327SOL    HW2 5338   2.182   0.950   2.290
 1327SOL    HW3 5339   2.284   0.839   2.269
 1327SOL    MW4 5340   2.208   0.877   2.248
 1328SOL     OW 5341   2.199   1.121   2.394
 1328SOL    HW2 5342   2.279   1.160   2.359
 1328SOL    HW3 5343   2.129   1.176   2.360
 1328SOL    MW4 5344   2.201   1.134   2.385
 1329SOL     OW 5345   2.428   1.244   2.282
 1329SOL    HW2 5346   2.498   1.205   2.333
 1329SOL    HW3 5347   2.421   1.334   2.316
 1329SOL    MW4 5348   2.437   1.251   2.293
 1330SOL     OW 5349   2.412   1.504   2.375
 1330SOL    HW2 5350   2.412   1.505   2.471
 1330SOL    HW3 5351   2.488   1.556   2.350
 1330SOL    MW4 5352   2.422   1.511   2.384
 1331SOL     OW 5353   2.217   1.687   2.273
 1331SOL    HW2 5354   2.290   1.637   2.310
 1331SOL    HW3 5355   2.139   1.650   2.314
 1331SOL    MW4 5356   2.217   1.675   2.283
 1332SOL     OW 5357   2.259   1.956   2.381
 1332SOL    HW2 5358   2.344   1.983   2.348
 1332SOL    HW3 5359   2.245   1.869   2.343
 1332SOL    MW4 5360   2.268   1.948   2.372
 1333SOL     OW 5361   2.489   2.074   2.264
 1333SOL    HW2 5362   2.559   2.010   2.275
 1333SOL    HW3 5363   2.461   2.065   2.173
 1333SOL    MW4 5364   2.494   2.065   2.253
 1334SOL     OW 5365   2.475   2.313   2.379
 1334SOL    HW2 5366   2.562   2.348   2.359
 1334SOL    HW3 5367   2.467   2.235   2.324
 1334SOL    MW4 5368   2.485   2.308   2.369
 1335SOL     OW 5369   2.256   2.444   2.229
 1335SOL    HW2 5370   2.264   2.535   2.257
 1335SOL    HW3 5371   2.323   2.398   2.278
 1335SOL    MW4 5372   2.266   2.450   2.239
 1336SOL     OW 5373   2.275   2.706   2.317
 1336SOL    HW2 5374   2.255   2.706   2.411
 1336SOL    HW3 5375   2.354   2.761   2.310
 1336SOL    MW4 5376   2.283   2.713   2.329
 1337SOL     OW 5377   2.498   2.853   2.275
 1337SOL    HW2 5378   2.570   2.795   2.299
 1337SOL    HW3 5379   2.483   2.836   2.182
 1337SOL    MW4 5380   2.505   2.843   2.266
 1338SOL     OW 5381   2.469   3.100   2.402
 1338SOL    HW2 5382   2.539   3.155   2.365
 1338SOL    HW3 5383   2.474   3.019   2.352
 1338SOL    MW4 5384   2.479   3.097   2.391
 1339SOL     OW 5385   2.252   3.208   2.271
 1339SOL    HW2 5386   2.283   3.297   2.288
 1339SOL    HW3 5387   2.326   3.153   2.294
 1339SOL    MW4 5388   2.266   3.213   2.276
 1340SOL     OW 5389   2.285   3.481   2.336
 1340SOL    HW2 5390   2.268   3.494   2.429
 1340SOL    HW3 5391   2.204   3.507   2.293
 1340SOL    MW4 5392   2.272   3.486   2.343
 1341SOL     OW 5393   2.510   3.624   2.234
 1341SOL    HW2 5394   2.519   3.706   2.283
 1341SOL    HW3 5395   2.436   3.580   2.275
 1341SOL    MW4 5396   2.502   3.629   2.246
 1342SOL     OW 5397   2.519   3.879   2.337
 1342SOL    HW2 5398   2.508   3.868   2.431
 1342SOL    HW3 5399   2.430   3.894   2.304
 1342SOL    MW4 5400   2.506   3.880   2.345
 1343SOL     OW 5401   2.280   3.945   2.203
 1343SOL    HW2 5402   2.270   4.025   2.254
 1343SOL    HW3 5403   2.194   3.902   2.206
 1343SOL    MW4 5404   2.267   3.949   2.210
 1344SOL     OW 5405   2.228   4.198   2.344
 1344SOL    HW2 5406   2.225   4.208   2.439
 1344SOL    HW3 5407   2.154   4.249   2.312
 1344SOL    MW4 5408   2.218   4.206   2.352
 1345SOL     OW 5409   2.429   4.356   2.259
 1345SOL    HW2 5410   2.506   4.310   2.290
 1345SOL    HW3 5411   2.355   4.304   2.290
 1345SOL    MW4 5412   2.429   4.343   2.267
 1346SOL     OW 5413   2.913   4.638   2.383
 1346SOL    HW2 5414   2.991   4.677   2.343
 1346SOL    HW3 5415   2.912   4.548   2.351
 1346SOL    MW4 5416   2.923   4.631   2.374
 1347SOL     OW 5417   2.689   0.076   2.265
 1347SOL    HW2 5418   2.695   0.160   2.311
 1347SOL    HW3 5419   2.760   0.024   2.302
 1347SOL    MW4 5420   2.699   0.081   2.276
 1348SOL     OW 5421   2.704   0.342   2.348
 1348SOL    HW2 5422   2.704   0.365   2.440
 1348SOL    HW3 5423   2.772   0.397   2.309
 1348SOL    MW4 5424   2.713   0.352   2.355
 1349SOL     OW 5425   2.927   0.482   2.258
 1349SOL    HW2 5426   2.922   0.573   2.289
 1349SOL    HW3 5427   2.916   0.489   2.163
 1349SOL    MW4 5428   2.925   0.495   2.250
 1350SOL     OW 5429   2.895   0.752   2.344
 1350SOL    HW2 5430   2.898   0.767   2.438
 1350SOL    HW3 5431   2.819   0.802   2.314
 1350SOL    MW4 5432   2.886   0.761   2.352
 1351SOL     OW 5433   2.659   0.876   2.248
 1351SOL    HW2 5434   2.661   0.968   2.276
 1351SOL    HW3 5435   2.697   0.878   2.160
 1351SOL    MW4 5436   2.665   0.889   2.240
 1352SOL     OW 5437   2.669   1.123   2.378
 1352SOL    HW2 5438   2.674   1.141   2.472
 1352SOL    HW3 5439   2.748   1.164   2.342
 1352SOL    MW4 5440   2.680   1.131   2.385
 1353SOL     OW 5441   2.891   1.266   2.282
 1353SOL    HW2 5442   2.968   1.227   2.323
 1353SOL    HW3 5443   2.908   1.262   2.188
 1353SOL    MW4 5444   2.903   1.260   2.275
 1354SOL     OW 5445   2.837   1.527   2.378
 1354SOL    HW2 5446   2.869   1.522   2.468
 1354SOL    HW3 5447   2.856   1.440   2.341
 1354SOL    MW4 5448   2.844   1.515   2.385
 1355SOL     OW 5449   2.610   1.644   2.258
 1355SOL    HW2 5450   2.683   1.601   2.303
 1355SOL    HW3 5451   2.625   1.627   2.165
 1355SOL    MW4 5452   2.622   1.636   2.252
 1356SOL     OW 5453   2.667   1.890   2.347
 1356SOL    HW2 5454   2.635   1.901   2.437
 1356SOL    HW3 5455   2.643   1.801   2.323
 1356SOL    MW4 5456   2.660   1.880   2.356
 1357SOL     OW 5457   2.916   2.022   2.280
 1357SOL    HW2 5458   2.985   1.983   2.333
 1357SOL    HW3 5459   2.836   1.981   2.311
 1357SOL    MW4 5460   2.915   2.012   2.291
 1358SOL     OW 5461   2.943   2.292   2.376
 1358SOL    HW2 5462   2.923   2.297   2.470
 1358SOL    HW3 5463   2.934   2.199   2.354
 1358SOL    MW4 5464   2.939   2.281   2.386
 1359SOL     OW 5465   2.703   2.414   2.283
 1359SOL    HW2 5466   2.783   2.369   2.310
 1359SOL    HW3 5467   2.684   2.380   2.196
 1359SOL    MW4 5468   2.711   2.403   2.275
 1360SOL     OW 5469   2.700   2.689   2.359
 1360SOL    HW2 5470   2.787   2.725   2.338
 1360SOL    HW3 5471   2.703   2.599   2.328
 1360SOL    MW4 5472   2.712   2.682   2.352
 1361SOL     OW 5473   2.944   2.789   2.262
 1361SOL    HW2 5474   2.931   2.884   2.266
 1361SOL    HW3 5475   2.933   2.767   2.169
 1361SOL    MW4 5476   2.941   2.798   2.250
 1362SOL     OW 5477   2.911   3.062   2.311
 1362SOL    HW2 5478   2.988   3.108   2.278
 1362SOL    HW3 5479   2.842   3.129   2.309
 1362SOL    MW4 5480   2.912   3.077   2.306
 1363SOL     OW 5481   2.691   3.226   2.281
 1363SOL    HW2 5482   2.719   3.314   2.304
 1363SOL    HW3 5483   2.669   3.230   2.188
 1363SOL    MW4 5484   2.692   3.238   2.272
 1364SOL     OW 5485   2.722   3.488   2.356
 1364SOL    HW2 5486   2.801   3.519   2.312
 1364SOL    HW3 5487   2.650   3.530   2.309
 1364SOL    MW4 5488   2.723   3.498   2.344
 1365SOL     OW 5489   2.947   3.605   2.232
 1365SOL    HW2 5490   3.023   3.572   2.279
 1365SOL    HW3 5491   2.928   3.690   2.273
 1365SOL    MW4 5492   2.954   3.612   2.243
 1366SOL     OW 5493   2.927   3.873   2.334
 1366SOL    HW2 5494   2.914   3.886   2.428
 1366SOL    HW3 5495   2.855   3.921   2.293
 1366SOL    MW4 5496   2.916   3.881   2.341
 1367SOL     OW 5497   2.715   4.020   2.213
 1367SOL    HW2 5498   2.639   3.978   2.254
 1367SOL    HW3 5499   2.695   4.020   2.120
 1367SOL    MW4 5500   2.702   4.015   2.206
 1368SOL     OW 5501   2.678   4.266   2.340
 1368SOL    HW2 5502   2.703   4.266   2.432
 1368SOL    HW3 5503   2.698   4.178   2.309
 1368SOL    MW4 5504   2.684   4.254   2.348
 1369SOL     OW 5505   2.911   4.392   2.257
 1369SOL    HW2 5506   2.990   4.349   2.290
 1369SOL    HW3 5507   2.839   4.349   2.303
 1369SOL    MW4 5508   2.912   4.381   2.268
 1370SOL     OW 5509   3.389   4.664   2.326
 1370SOL    HW2 5510   3.395   4.657   2.421
 1370SOL    HW3 5511   3.461   4.723   2.303
 1370SOL    MW4 5512   3.399   4.671   2.336
 1371SOL     OW 5513   3.144   0.110   2.259
 1371SOL    HW2 5514   3.147   0.198   2.297
 1371SOL    HW3 5515   3.232   0.075   2.273
 1371SOL    MW4 5516   3.156   0.117   2.266
 1372SOL     OW 5517   3.149   0.378   2.370
 1372SOL    HW2 5518   3.223   0.433   2.345
 1372SOL    HW3 5519   3.074   0.417   2.326
 1372SOL    MW4 5520   3.149   0.390   2.361
 1373SOL     OW 5521   3.357   0.565   2.273
 1373SOL    HW2 5522   3.436   0.528   2.313
 1373SOL    HW3 5523   3.357   0.532   2.184
 1373SOL    MW4 5524   3.367   0.556   2.267
 1374SOL     OW 5525   3.344   0.820   2.381
 1374SOL    HW2 5526   3.424   0.864   2.352
 1374SOL    HW3 5527   3.349   0.733   2.340
 1374SOL    MW4 5528   3.355   0.814   2.371
 1375SOL     OW 5529   3.100   0.901   2.226
 1375SOL    HW2 5530   3.178   0.873   2.273
 1375SOL    HW3 5531   3.029   0.852   2.266
 1375SOL    MW4 5532   3.101   0.891   2.237
 1376SOL     OW 5533   3.123   1.146   2.371
 1376SOL    HW2 5534   3.208   1.188   2.356
 1376SOL    HW3 5535   3.130   1.060   2.329
 1376SOL    MW4 5536   3.135   1.140   2.364
 1377SOL     OW 5537   3.344   1.291   2.277
 1377SOL    HW2 5538   3.430   1.263   2.310
 1377SOL    HW3 5539   3.329   1.375   2.321
 1377SOL    MW4 5540   3.354   1.298   2.287
 1378SOL     OW 5541   3.288   1.542   2.357
 1378SOL    HW2 5542   3.315   1.558   2.447
 1378SOL    HW3 5543   3.198   1.576   2.353
 1378SOL    MW4 5544   3.280   1.549   2.368
 1379SOL     OW 5545   3.053   1.667   2.263
 1379SOL    HW2 5546   3.060   1.750   2.310
 1379SOL    HW3 5547   2.970   1.630   2.292
 1379SOL    MW4 5548   3.043   1.673   2.273
 1380SOL     OW 5549   3.116   1.913   2.426
 1380SOL    HW2 5550   3.130   1.917   2.521
 1380SOL    HW3 5551   3.195   1.951   2.388
 1380SOL    MW4 5552   3.128   1.919   2.433
 1381SOL     OW 5553   3.340   2.013   2.287
 1381SOL    HW2 5554   3.409   1.955   2.320
 1381SOL    HW3 5555   3.349   2.008   2.192
 1381SOL    MW4 5556   3.351   2.005   2.279
 1382SOL     OW 5557   3.346   2.275   2.398
 1382SOL    HW2 5558   3.297   2.326   2.334
 1382SOL    HW3 5559   3.342   2.185   2.365
 1382SOL    MW4 5560   3.339   2.270   2.386
 1383SOL     OW 5561   3.158   2.408   2.221
 1383SOL    HW2 5562   3.156   2.492   2.266
 1383SOL    HW3 5563   3.083   2.360   2.257
 1383SOL    MW4 5564   3.148   2.413   2.231
 1384SOL     OW 5565   3.182   2.661   2.338
 1384SOL    HW2 5566   3.200   2.650   2.431
 1384SOL    HW3 5567   3.097   2.705   2.335
 1384SOL    MW4 5568   3.173   2.666   2.350
 1385SOL     OW 5569   3.355   2.836   2.232
 1385SOL    HW2 5570   3.348   2.916   2.284
 1385SOL    HW3 5571   3.293   2.775   2.272
 1385SOL    MW4 5572   3.346   2.839   2.244
 1386SOL     OW 5573   3.349   3.095   2.378
 1386SOL    HW2 5574   3.427   3.132   2.337
 1386SOL    HW3 5575   3.276   3.131   2.328
 1386SOL    MW4 5576   3.350   3.105   2.366
 1387SOL     OW 5577   3.140   3.211   2.234
 1387SOL    HW2 5578   3.143   3.297   2.277
 1387SOL    HW3 5579   3.128   3.231   2.141
 1387SOL    MW4 5580   3.139   3.225   2.227
 1388SOL     OW 5581   3.154   3.462   2.362
 1388SOL    HW2 5582   3.138   3.481   2.455
 1388SOL    HW3 5583   3.232   3.512   2.340
 1388SOL    MW4 5584   3.162   3.471   2.371
 1389SOL     OW 5585   3.376   3.594   2.275
 1389SOL    HW2 5586   3.448   3.536   2.303
 1389SOL    HW3 5587   3.363   3.573   2.183
 1389SOL    MW4 5588   3.384   3.583   2.266
 1390SOL     OW 5589   3.387   3.860   2.318
 1390SOL    HW2 5590   3.471   3.905   2.303
 1390SOL    HW3 5591   3.405   3.769   2.298
 1390SOL    MW4 5592   3.401   3.854   2.314
 1391SOL     OW 5593   3.166   4.003   2.229
 1391SOL    HW2 5594   3.249   3.967   2.262
 1391SOL    HW3 5595   3.099   3.950   2.272
 1391SOL    MW4 5596   3.168   3.991   2.239
 1392SOL     OW 5597   3.147   4.267   2.339
 1392SOL    HW2 5598   3.225   4.316   2.314
 1392SOL    HW3 5599   3.165   4.177   2.310
 1392SOL    MW4 5600   3.159   4.261   2.332
 1393SOL     OW 5601   3.367   4.394   2.260
 1393SOL    HW2 5602   3.370   4.489   2.258
 1393SOL    HW3 5603   3.375   4.367   2.168
 1393SOL    MW4 5604   3.369   4.403   2.247
 1394SOL     OW 5605   3.789   0.014   2.361
 1394SOL    HW2 5606   3.828   0.005   2.448
 1394SOL    HW3 5607   3.862   0.042   2.305
 1394SOL    MW4 5608   3.804   0.017   2.365
 1395SOL     OW 5609   3.593   0.163   2.244
 1395SOL    HW2 5610   3.574   0.248   2.283
 1395SOL    HW3 5611   3.664   0.127   2.297
 1395SOL    MW4 5612   3.600   0.170   2.256
 1396SOL     OW 5613   3.579   0.416   2.362
 1396SOL    HW2 5614   3.593   0.403   2.456
 1396SOL    HW3 5615   3.662   0.451   2.330
 1396SOL    MW4 5616   3.592   0.419   2.370
 1397SOL     OW 5617   3.828   0.494   2.276
 1397SOL    HW2 5618   3.830   0.588   2.293
 1397SOL    HW3 5619   3.835   0.487   2.181
 1397SOL    MW4 5620   3.829   0.506   2.266
 1398SOL     OW 5621   3.806   0.764   2.351
 1398SOL    HW2 5622   3.807   0.768   2.447
 1398SOL    HW3 5623   3.893   0.793   2.325
 1398SOL    MW4 5624   3.818   0.769   2.361
 1399SOL     OW 5625   3.604   0.930   2.285
 1399SOL    HW2 5626   3.677   0.877   2.317
 1399SOL    HW3 5627   3.603   0.916   2.190
 1399SOL    MW4 5628   3.613   0.921   2.277
 1400SOL     OW 5629   3.570   1.164   2.406
 1400SOL    HW2 5630   3.575   1.150   2.501
 1400SOL    HW3 5631   3.573   1.076   2.369
 1400SOL    MW4 5632   3.571   1.151   2.414
 1401SOL     OW 5633   3.794   1.270   2.284
 1401SOL    HW2 5634   3.800   1.355   2.328
 1401SOL    HW3 5635   3.716   1.230   2.322
 1401SOL    MW4 5636   3.784   1.276   2.295
 1402SOL     OW 5637   3.799   1.525   2.409
 1402SOL    HW2 5638   3.794   1.502   2.501
 1402SOL    HW3 5639   3.711   1.553   2.385
 1402SOL    MW4 5640   3.787   1.526   2.418
 1403SOL     OW 5641   3.574   1.609   2.276
 1403SOL    HW2 5642   3.483   1.585   2.291
 1403SOL    HW3 5643   3.586   1.602   2.181
 1403SOL    MW4 5644   3.564   1.605   2.266
 1404SOL     OW 5645   3.556   1.883   2.375
 1404SOL    HW2 5646   3.615   1.951   2.344
 1404SOL    HW3 5647   3.584   1.804   2.327
 1404SOL    MW4 5648   3.568   1.881   2.365
 1405SOL     OW 5649   3.768   2.061   2.287
 1405SOL    HW2 5650   3.838   2.004   2.318
 1405SOL    HW3 5651   3.783   2.068   2.192
 1405SOL    MW4 5652   3.779   2.054   2.278
 1406SOL     OW 5653   3.790   2.331   2.428
 1406SOL    HW2 5654   3.710   2.383   2.415
 1406SOL    HW3 5655   3.772   2.248   2.383
 1406SOL    MW4 5656   3.777   2.327   2.420
 1407SOL     OW 5657   3.556   2.462   2.309
 1407SOL    HW2 5658   3.487   2.402   2.336
 1407SOL    HW3 5659   3.558   2.456   2.214
 1407SOL    MW4 5660   3.547   2.453   2.300
 1408SOL     OW 5661   3.577   2.725   2.362
 1408SOL    HW2 5662   3.553   2.634   2.349
 1408SOL    HW3 5663   3.501   2.775   2.332
 1408SOL    MW4 5664   3.564   2.720   2.356
 1409SOL     OW 5665   3.804   2.824   2.243
 1409SOL    HW2 5666   3.810   2.911   2.283
 1409SOL    HW3 5667   3.728   2.783   2.285
 1409SOL    MW4 5668   3.795   2.830   2.254
 1410SOL     OW 5669   3.799   3.063   2.381
 1410SOL    HW2 5670   3.797   3.078   2.475
 1410SOL    HW3 5671   3.849   3.136   2.346
 1410SOL    MW4 5672   3.805   3.074   2.389
 1411SOL     OW 5673   3.574   3.178   2.243
 1411SOL    HW2 5674   3.575   3.265   2.285
 1411SOL    HW3 5675   3.636   3.127   2.294
 1411SOL    MW4 5676   3.582   3.183   2.256
 1412SOL     OW 5677   3.599   3.450   2.340
 1412SOL    HW2 5678   3.596   3.452   2.435
 1412SOL    HW3 5679   3.684   3.487   2.318
 1412SOL    MW4 5680   3.610   3.455   2.350
 1413SOL     OW 5681   3.830   3.601   2.258
 1413SOL    HW2 5682   3.826   3.693   2.283
 1413SOL    HW3 5683   3.818   3.600   2.163
 1413SOL    MW4 5684   3.828   3.613   2.249
 1414SOL     OW 5685   3.822   3.863   2.343
 1414SOL    HW2 5686   3.808   3.872   2.438
 1414SOL    HW3 5687   3.891   3.926   2.324
 1414SOL    MW4 5688   3.830   3.872   2.353
 1415SOL     OW 5689   3.629   4.009   2.227
 1415SOL    HW2 5690   3.606   4.082   2.285
 1415SOL    HW3 5691   3.708   3.972   2.265
 1415SOL    MW4 5692   3.636   4.013   2.240
 1416SOL     OW 5693   3.573   4.250   2.366
 1416SOL    HW2 5694   3.650   4.288   2.325
 1416SOL    HW3 5695   3.500   4.302   2.333
 1416SOL    MW4 5696   3.573   4.262   2.356
 1417SOL     OW 5697   3.805   4.387   2.281
 1417SOL    HW2 5698   3.894   4.360   2.304
 1417SOL    HW3 5699   3.806   4.482   2.286
 1417SOL    MW4 5700   3.817   4.396   2.285
 1418SOL     OW 5701   4.274   4.632   2.314
 1418SOL    HW2 5702   4.265   4.616   2.408
 1418SOL    HW3 5703   4.353   4.685   2.306
 1418SOL    MW4 5704   4.283   4.637   2.325
 1419SOL     OW 5705   4.041   0.112   2.238
 1419SOL    HW2 5706   4.045   0.198   2.279
 1419SOL    HW3 5707   4.121   0.068   2.266
 1419SOL    MW4 5708   4.052   0.117   2.247
 1420SOL     OW 5709   4.047   0.358   2.374
 1420SOL    HW2 5710   4.119   0.415   2.346
 1420SOL    HW3 5711   3.968   0.404   2.346
 1420SOL    MW4 5712   4.046   0.372   2.367
 1421SOL     OW 5713   4.231   0.527   2.267
 1421SOL    HW2 5714   4.249   0.609   2.313
 1421SOL    HW3 5715   4.301   0.468   2.294
 1421SOL    MW4 5716   4.243   0.530   2.276
 1422SOL     OW 5717   4.288   0.769   2.399
 1422SOL    HW2 5718   4.206   0.802   2.363
 1422SOL    HW3 5719   4.356   0.825   2.361
 1422SOL    MW4 5720   4.286   0.780   2.390
 1423SOL     OW 5721   4.081   0.888   2.268
 1423SOL    HW2 5722   4.078   0.975   2.306
 1423SOL    HW3 5723   4.104   0.903   2.176
 1423SOL    MW4 5724   4.084   0.901   2.261
 1424SOL     OW 5725   4.045   1.143   2.369
 1424SOL    HW2 5726   4.051   1.136   2.464
 1424SOL    HW3 5727   3.958   1.178   2.353
 1424SOL    MW4 5728   4.034   1.147   2.379
 1425SOL     OW 5729   4.256   1.261   2.228
 1425SOL    HW2 5730   4.179   1.217   2.265
 1425SOL    HW3 5731   4.329   1.232   2.284
 1425SOL    MW4 5732   4.256   1.251   2.240
 1426SOL     OW 5733   4.227   1.497   2.358
 1426SOL    HW2 5734   4.242   1.409   2.324
 1426SOL    HW3 5735   4.301   1.548   2.326
 1426SOL    MW4 5736   4.239   1.492   2.349
 1427SOL     OW 5737   4.013   1.643   2.275
 1427SOL    HW2 5738   4.087   1.585   2.294
 1427SOL    HW3 5739   3.937   1.599   2.313
 1427SOL    MW4 5740   4.013   1.630   2.282
 1428SOL     OW 5741   4.007   1.913   2.359
 1428SOL    HW2 5742   4.005   1.910   2.454
 1428SOL    HW3 5743   4.015   1.822   2.332
 1428SOL    MW4 5744   4.008   1.901   2.368
 1429SOL     OW 5745   4.245   2.016   2.255
 1429SOL    HW2 5746   4.239   2.106   2.288
 1429SOL    HW3 5747   4.175   1.969   2.301
 1429SOL    MW4 5748   4.235   2.022   2.265
 1430SOL     OW 5749   4.247   2.255   2.368
 1430SOL    HW2 5750   4.177   2.320   2.362
 1430SOL    HW3 5751   4.327   2.304   2.347
 1430SOL    MW4 5752   4.249   2.270   2.364
 1431SOL     OW 5753   4.031   2.427   2.335
 1431SOL    HW2 5754   4.033   2.521   2.353
 1431SOL    HW3 5755   3.946   2.397   2.370
 1431SOL    MW4 5756   4.020   2.435   2.342
 1432SOL     OW 5757   4.036   2.698   2.378
 1432SOL    HW2 5758   4.037   2.714   2.472
 1432SOL    HW3 5759   3.963   2.750   2.345
 1432SOL    MW4 5760   4.026   2.707   2.386
 1433SOL     OW 5761   4.248   2.836   2.265
 1433SOL    HW2 5762   4.174   2.784   2.298
 1433SOL    HW3 5763   4.325   2.793   2.300
 1433SOL    MW4 5764   4.248   2.823   2.274
 1434SOL     OW 5765   4.245   3.105   2.313
 1434SOL    HW2 5766   4.252   3.010   2.306
 1434SOL    HW3 5767   4.335   3.136   2.301
 1434SOL    MW4 5768   4.258   3.097   2.311
 1435SOL     OW 5769   3.981   3.233   2.256
 1435SOL    HW2 5770   4.013   3.322   2.272
 1435SOL    HW3 5771   4.057   3.177   2.272
 1435SOL    MW4 5772   3.995   3.237   2.260
 1436SOL     OW 5773   4.063   3.492   2.369
 1436SOL    HW2 5774   4.143   3.523   2.327
 1436SOL    HW3 5775   3.993   3.542   2.327
 1436SOL    MW4 5776   4.064   3.503   2.358
 1437SOL     OW 5777   4.302   3.613   2.255
 1437SOL    HW2 5778   4.284   3.697   2.297
 1437SOL    HW3 5779   4.292   3.631   2.161
 1437SOL    MW4 5780   4.299   3.626   2.248
 1438SOL     OW 5781   4.256   3.864   2.332
 1438SOL    HW2 5782   4.247   3.877   2.427
 1438SOL    HW3 5783   4.337   3.908   2.310
 1438SOL    MW4 5784   4.265   3.871   2.342
 1439SOL     OW 5785   4.027   4.011   2.241
 1439SOL    HW2 5786   4.101   3.956   2.268
 1439SOL    HW3 5787   4.041   4.025   2.147
 1439SOL    MW4 5788   4.039   4.006   2.232
 1440SOL     OW 5789   4.056   4.276   2.353
 1440SOL    HW2 5790   4.145   4.307   2.334
 1440SOL    HW3 5791   4.050   4.191   2.310
 1440SOL    MW4 5792   4.067   4.269   2.345
 1441SOL     OW 5793   4.309   4.366   2.193
 1441SOL    HW2 5794   4.297   4.456   2.222
 1441SOL    HW3 5795   4.397   4.342   2.223
 1441SOL    MW4 5796   4.319   4.375   2.200
 1442SOL     OW 5797   0.246   0.027   2.626
 1442SOL    HW2 5798   0.254  -0.058   2.670
 1442SOL    HW3 5799   0.170   0.068   2.666
 1442SOL    MW4 5800   0.237   0.021   2.637
 1443SOL     OW 5801   4.484   0.122   2.713
 1443SOL    HW2 5802   4.465   0.109   2.806
 1443SOL    HW3 5803   4.476   0.216   2.700
 1443SOL    MW4 5804   4.480   0.133   2.724
 1444SOL     OW 5805   0.024   0.380   2.609
 1444SOL    HW2 5806   0.111   0.410   2.635
 1444SOL    HW3 5807   0.026   0.384   2.513
 1444SOL    MW4 5808   0.036   0.384   2.600
 1445SOL     OW 5809   0.247   0.521   2.700
 1445SOL    HW2 5810   0.236   0.502   2.793
 1445SOL    HW3 5811   0.340   0.502   2.682
 1445SOL    MW4 5812   0.258   0.516   2.710
 1446SOL     OW 5813   0.192   0.774   2.600
 1446SOL    HW2 5814   0.265   0.826   2.631
 1446SOL    HW3 5815   0.207   0.687   2.637
 1446SOL    MW4 5816   0.203   0.769   2.609
 1447SOL     OW 5817   4.444   0.884   2.741
 1447SOL    HW2 5818   4.370   0.824   2.730
 1447SOL    HW3 5819   4.522   0.829   2.735
 1447SOL    MW4 5820   4.444   0.869   2.739
 1448SOL     OW 5821   4.453   1.138   2.659
 1448SOL    HW2 5822   4.542   1.166   2.682
 1448SOL    HW3 5823   4.449   1.047   2.687
 1448SOL    MW4 5824   4.464   1.130   2.666
 1449SOL     OW 5825   0.232   1.251   2.720
 1449SOL    HW2 5826   0.310   1.216   2.677
 1449SOL    HW3 5827   0.222   1.340   2.685
 1449SOL    MW4 5828   0.241   1.258   2.710
 1450SOL     OW 5829   0.217   1.499   2.641
 1450SOL    HW2 5830   0.289   1.543   2.687
 1450SOL    HW3 5831   0.138   1.539   2.678
 1450SOL    MW4 5832   0.216   1.510   2.652
 1451SOL     OW 5833   4.486   1.641   2.727
 1451SOL    HW2 5834   4.483   1.639   2.823
 1451SOL    HW3 5835   4.496   1.734   2.706
 1451SOL    MW4 5836   4.487   1.653   2.737
 1452SOL     OW 5837   4.473   1.917   2.669
 1452SOL    HW2 5838   4.555   1.963   2.686
 1452SOL    HW3 5839   4.466   1.916   2.573
 1452SOL    MW4 5840   4.483   1.923   2.658
 1453SOL     OW 5841   0.225   2.081   2.697
 1453SOL    HW2 5842   0.298   2.037   2.655
 1453SOL    HW3 5843   0.217   2.164   2.650
 1453SOL    MW4 5844   0.233   2.086   2.685
 1454SOL     OW 5845   0.233   2.320   2.588
 1454SOL    HW2 5846   0.304   2.374   2.624
 1454SOL    HW3 5847   0.157   2.340   2.643
 1454SOL    MW4 5848   0.233   2.330   2.600
 1455SOL     OW 5849   0.008   2.410   2.718
 1455SOL    HW2 5850  -0.006   2.408   2.813
 1455SOL    HW3 5851  -0.072   2.371   2.681
 1455SOL    MW4 5852  -0.005   2.405   2.726
 1456SOL     OW 5853   0.022   2.678   2.626
 1456SOL    HW2 5854  -0.052   2.731   2.656
 1456SOL    HW3 5855   0.001   2.589   2.653
 1456SOL    MW4 5856   0.010   2.673   2.633
 1457SOL     OW 5857   0.230   2.810   2.738
 1457SOL    HW2 5858   0.235   2.894   2.692
 1457SOL    HW3 5859   0.159   2.762   2.695
 1457SOL    MW4 5860   0.221   2.815   2.726
 1458SOL     OW 5861   0.240   3.056   2.619
 1458SOL    HW2 5862   0.318   3.106   2.644
 1458SOL    HW3 5863   0.246   3.049   2.524
 1458SOL    MW4 5864   0.251   3.062   2.610
 1459SOL     OW 5865   0.007   3.180   2.709
 1459SOL    HW2 5866  -0.072   3.144   2.669
 1459SOL    HW3 5867   0.079   3.132   2.668
 1459SOL    MW4 5868   0.006   3.169   2.699
 1460SOL     OW 5869   4.487   3.447   2.653
 1460SOL    HW2 5870   4.563   3.492   2.690
 1460SOL    HW3 5871   4.494   3.357   2.685
 1460SOL    MW4 5872   4.498   3.441   2.662
 1461SOL     OW 5873   0.215   3.596   2.734
 1461SOL    HW2 5874   0.236   3.618   2.825
 1461SOL    HW3 5875   0.294   3.553   2.702
 1461SOL    MW4 5876   0.228   3.593   2.742
 1462SOL     OW 5877   0.201   3.862   2.605
 1462SOL    HW2 5878   0.210   3.773   2.638
 1462SOL    HW3 5879   0.219   3.854   2.511
 1462SOL    MW4 5880   0.205   3.849   2.597
 1463SOL     OW 5881   0.021   4.038   2.728
 1463SOL    HW2 5882   0.026   4.127   2.693
 1463SOL    HW3 5883   0.092   3.991   2.685
 1463SOL    MW4 5884   0.031   4.044   2.718
 1464SOL     OW 5885   0.044   4.290   2.618
 1464SOL    HW2 5886  -0.035   4.332   2.653
 1464SOL    HW3 5887   0.116   4.336   2.660
 1464SOL    MW4 5888   0.043   4.301   2.628
 1465SOL     OW 5889   0.270   4.429   2.738
 1465SOL    HW2 5890   0.273   4.416   2.833
 1465SOL    HW3 5891   0.325   4.360   2.703
 1465SOL    MW4 5892   0.277   4.418   2.746
 1466SOL     OW 5893   0.687   4.629   2.658
 1466SOL    HW2 5894   0.762   4.684   2.681
 1466SOL    HW3 5895   0.611   4.681   2.685
 1466SOL    MW4 5896   0.687   4.643   2.665
 1467SOL     OW 5897   0.474   0.125   2.748
 1467SOL    HW2 5898   0.448   0.141   2.838
 1467SOL    HW3 5899   0.392   0.108   2.702
 1467SOL    MW4 5900   0.460   0.125   2.754
 1468SOL     OW 5901   0.508   0.379   2.647
 1468SOL    HW2 5902   0.588   0.417   2.684
 1468SOL    HW3 5903   0.501   0.293   2.688
 1468SOL    MW4 5904   0.518   0.373   2.657
 1469SOL     OW 5905   0.729   0.488   2.759
 1469SOL    HW2 5906   0.724   0.475   2.854
 1469SOL    HW3 5907   0.814   0.453   2.734
 1469SOL    MW4 5908   0.740   0.482   2.768
 1470SOL     OW 5909   0.662   0.751   2.672
 1470SOL    HW2 5910   0.743   0.798   2.691
 1470SOL    HW3 5911   0.678   0.662   2.703
 1470SOL    MW4 5912   0.675   0.746   2.679
 1471SOL     OW 5913   0.426   0.851   2.736
 1471SOL    HW2 5914   0.440   0.938   2.700
 1471SOL    HW3 5915   0.512   0.808   2.729
 1471SOL    MW4 5916   0.440   0.857   2.730
 1472SOL     OW 5917   0.463   1.112   2.626
 1472SOL    HW2 5918   0.536   1.152   2.673
 1472SOL    HW3 5919   0.482   1.128   2.534
 1472SOL    MW4 5920   0.475   1.120   2.620
 1473SOL     OW 5921   0.681   1.229   2.781
 1473SOL    HW2 5922   0.685   1.266   2.869
 1473SOL    HW3 5923   0.773   1.224   2.753
 1473SOL    MW4 5924   0.694   1.233   2.789
 1474SOL     OW 5925   0.666   1.502   2.674
 1474SOL    HW2 5926   0.580   1.530   2.706
 1474SOL    HW3 5927   0.675   1.412   2.706
 1474SOL    MW4 5928   0.656   1.493   2.682
 1475SOL     OW 5929   0.428   1.631   2.761
 1475SOL    HW2 5930   0.441   1.655   2.852
 1475SOL    HW3 5931   0.449   1.710   2.712
 1475SOL    MW4 5932   0.432   1.644   2.766
 1476SOL     OW 5933   0.446   1.889   2.627
 1476SOL    HW2 5934   0.518   1.937   2.667
 1476SOL    HW3 5935   0.460   1.899   2.533
 1476SOL    MW4 5936   0.457   1.897   2.620
 1477SOL     OW 5937   0.648   2.052   2.713
 1477SOL    HW2 5938   0.670   2.062   2.805
 1477SOL    HW3 5939   0.724   2.009   2.674
 1477SOL    MW4 5940   0.661   2.047   2.720
 1478SOL     OW 5941   0.665   2.313   2.622
 1478SOL    HW2 5942   0.741   2.341   2.673
 1478SOL    HW3 5943   0.655   2.220   2.643
 1478SOL    MW4 5944   0.674   2.305   2.631
 1479SOL     OW 5945   0.441   2.432   2.722
 1479SOL    HW2 5946   0.450   2.519   2.684
 1479SOL    HW3 5947   0.521   2.386   2.696
 1479SOL    MW4 5948   0.453   2.437   2.714
 1480SOL     OW 5949   0.418   2.699   2.595
 1480SOL    HW2 5950   0.496   2.744   2.627
 1480SOL    HW3 5951   0.347   2.733   2.650
 1480SOL    MW4 5952   0.419   2.709   2.606
 1481SOL     OW 5953   0.655   2.836   2.683
 1481SOL    HW2 5954   0.662   2.833   2.779
 1481SOL    HW3 5955   0.695   2.919   2.658
 1481SOL    MW4 5956   0.662   2.846   2.693
 1482SOL     OW 5957   0.708   3.071   2.589
 1482SOL    HW2 5958   0.782   3.121   2.624
 1482SOL    HW3 5959   0.717   3.078   2.494
 1482SOL    MW4 5960   0.719   3.078   2.581
 1483SOL     OW 5961   0.469   3.220   2.718
 1483SOL    HW2 5962   0.478   3.209   2.812
 1483SOL    HW3 5963   0.551   3.187   2.681
 1483SOL    MW4 5964   0.481   3.214   2.725
 1484SOL     OW 5965   0.440   3.484   2.610
 1484SOL    HW2 5966   0.439   3.391   2.630
 1484SOL    HW3 5967   0.432   3.488   2.515
 1484SOL    MW4 5968   0.439   3.473   2.600
 1485SOL     OW 5969   0.673   3.611   2.732
 1485SOL    HW2 5970   0.654   3.625   2.825
 1485SOL    HW3 5971   0.598   3.562   2.699
 1485SOL    MW4 5972   0.661   3.607   2.740
 1486SOL     OW 5973   0.676   3.879   2.631
 1486SOL    HW2 5974   0.594   3.911   2.667
 1486SOL    HW3 5975   0.692   3.796   2.676
 1486SOL    MW4 5976   0.668   3.872   2.642
 1487SOL     OW 5977   0.419   3.976   2.735
 1487SOL    HW2 5978   0.423   4.064   2.698
 1487SOL    HW3 5979   0.348   3.932   2.688
 1487SOL    MW4 5980   0.410   3.982   2.724
 1488SOL     OW 5981   0.446   4.245   2.659
 1488SOL    HW2 5982   0.514   4.298   2.699
 1488SOL    HW3 5983   0.462   4.252   2.564
 1488SOL    MW4 5984   0.457   4.253   2.651
 1489SOL     OW 5985   0.651   4.385   2.761
 1489SOL    HW2 5986   0.728   4.336   2.731
 1489SOL    HW3 5987   0.665   4.474   2.728
 1489SOL    MW4 5988   0.663   4.390   2.753
 1490SOL     OW 5989   1.110   4.615   2.637
 1490SOL    HW2 5990   1.172   4.670   2.685
 1490SOL    HW3 5991   1.142   4.526   2.649
 1490SOL    MW4 5992   1.122   4.611   2.645
 1491SOL     OW 5993   0.895   0.121   2.731
 1491SOL    HW2 5994   0.902   0.127   2.826
 1491SOL    HW3 5995   0.956   0.051   2.707
 1491SOL    MW4 5996   0.904   0.113   2.740
 1492SOL     OW 5997   0.957   0.376   2.638
 1492SOL    HW2 5998   0.942   0.284   2.658
 1492SOL    HW3 5999   0.933   0.385   2.546
 1492SOL    MW4 6000   0.952   0.365   2.628
 1493SOL     OW 6001   1.175   0.522   2.732
 1493SOL    HW2 6002   1.152   0.613   2.712
 1493SOL    HW3 6003   1.099   0.471   2.700
 1493SOL    MW4 6004   1.162   0.527   2.725
 1494SOL     OW 6005   1.119   0.787   2.638
 1494SOL    HW2 6006   1.194   0.821   2.687
 1494SOL    HW3 6007   1.155   0.769   2.551
 1494SOL    MW4 6008   1.134   0.789   2.633
 1495SOL     OW 6009   0.885   0.890   2.724
 1495SOL    HW2 6010   0.888   0.887   2.820
 1495SOL    HW3 6011   0.966   0.847   2.696
 1495SOL    MW4 6012   0.896   0.884   2.733
 1496SOL     OW 6013   0.912   1.148   2.621
 1496SOL    HW2 6014   0.910   1.059   2.655
 1496SOL    HW3 6015   0.861   1.144   2.540
 1496SOL    MW4 6016   0.905   1.136   2.615
 1497SOL     OW 6017   1.135   1.280   2.711
 1497SOL    HW2 6018   1.131   1.375   2.697
 1497SOL    HW3 6019   1.049   1.248   2.682
 1497SOL    MW4 6020   1.123   1.288   2.705
 1498SOL     OW 6021   1.100   1.557   2.658
 1498SOL    HW2 6022   1.031   1.608   2.701
 1498SOL    HW3 6023   1.069   1.545   2.568
 1498SOL    MW4 6024   1.087   1.562   2.652
 1499SOL     OW 6025   0.878   1.681   2.735
 1499SOL    HW2 6026   0.866   1.696   2.829
 1499SOL    HW3 6027   0.822   1.606   2.715
 1499SOL    MW4 6028   0.869   1.673   2.745
 1500SOL     OW 6029   0.862   1.923   2.612
 1500SOL    HW2 6030   0.935   1.974   2.645
 1500SOL    HW3 6031   0.866   1.840   2.660
 1500SOL    MW4 6032   0.872   1.918   2.623
 1501SOL     OW 6033   1.080   2.067   2.721
 1501SOL    HW2 6034   1.155   2.024   2.680
 1501SOL    HW3 6035   1.088   2.158   2.696
 1501SOL    MW4 6036   1.091   2.073   2.713
 1502SOL     OW 6037   1.100   2.332   2.637
 1502SOL    HW2 6038   1.171   2.391   2.662
 1502SOL    HW3 6039   1.103   2.331   2.541
 1502SOL    MW4 6040   1.110   2.339   2.628
 1503SOL     OW 6041   0.878   2.428   2.749
 1503SOL    HW2 6042   0.863   2.521   2.728
 1503SOL    HW3 6043   0.962   2.408   2.709
 1503SOL    MW4 6044   0.887   2.438   2.741
 1504SOL     OW 6045   0.877   2.672   2.625
 1504SOL    HW2 6046   0.931   2.740   2.664
 1504SOL    HW3 6047   0.789   2.711   2.620
 1504SOL    MW4 6048   0.872   2.686   2.629
 1505SOL     OW 6049   1.083   2.832   2.722
 1505SOL    HW2 6050   1.106   2.825   2.815
 1505SOL    HW3 6051   1.159   2.795   2.676
 1505SOL    MW4 6052   1.096   2.826   2.729
 1506SOL     OW 6053   1.148   3.096   2.632
 1506SOL    HW2 6054   1.122   3.007   2.655
 1506SOL    HW3 6055   1.136   3.101   2.537
 1506SOL    MW4 6056   1.143   3.085   2.623
 1507SOL     OW 6057   0.919   3.208   2.729
 1507SOL    HW2 6058   0.903   3.286   2.676
 1507SOL    HW3 6059   1.006   3.179   2.701
 1507SOL    MW4 6060   0.928   3.215   2.718
 1508SOL     OW 6061   0.887   3.462   2.617
 1508SOL    HW2 6062   0.961   3.508   2.659
 1508SOL    HW3 6063   0.810   3.512   2.647
 1508SOL    MW4 6064   0.887   3.475   2.627
 1509SOL     OW 6065   1.102   3.599   2.726
 1509SOL    HW2 6066   1.101   3.626   2.818
 1509SOL    HW3 6067   1.100   3.681   2.677
 1509SOL    MW4 6068   1.102   3.613   2.732
 1510SOL     OW 6069   1.098   3.851   2.628
 1510SOL    HW2 6070   1.178   3.889   2.666
 1510SOL    HW3 6071   1.110   3.859   2.533
 1510SOL    MW4 6072   1.110   3.857   2.620
 1511SOL     OW 6073   0.893   4.008   2.757
 1511SOL    HW2 6074   0.958   3.963   2.702
 1511SOL    HW3 6075   0.809   3.970   2.729
 1511SOL    MW4 6076   0.890   3.997   2.746
 1512SOL     OW 6077   0.888   4.266   2.663
 1512SOL    HW2 6078   0.892   4.174   2.688
 1512SOL    HW3 6079   0.884   4.265   2.568
 1512SOL    MW4 6080   0.888   4.254   2.654
 1513SOL     OW 6081   1.144   4.351   2.721
 1513SOL    HW2 6082   1.137   4.378   2.813
 1513SOL    HW3 6083   1.055   4.327   2.696
 1513SOL    MW4 6084   1.131   4.351   2.730
 1514SOL     OW 6085   1.545   4.634   2.626
 1514SOL    HW2 6086   1.576   4.551   2.662
 1514SOL    HW3 6087   1.538   4.618   2.532
 1514SOL    MW4 6088   1.548   4.621   2.619
 1515SOL     OW 6089   1.323   0.095   2.734
 1515SOL    HW2 6090   1.329   0.187   2.711
 1515SOL    HW3 6091   1.402   0.056   2.698
 1515SOL    MW4 6092   1.334   0.102   2.727
 1516SOL     OW 6093   1.385   0.359   2.661
 1516SOL    HW2 6094   1.469   0.399   2.683
 1516SOL    HW3 6095   1.319   0.423   2.689
 1516SOL    MW4 6096   1.387   0.373   2.667
 1517SOL     OW 6097   1.608   0.485   2.753
 1517SOL    HW2 6098   1.680   0.457   2.698
 1517SOL    HW3 6099   1.598   0.579   2.734
 1517SOL    MW4 6100   1.616   0.494   2.743
 1518SOL     OW 6101   1.596   0.740   2.656
 1518SOL    HW2 6102   1.522   0.788   2.695
 1518SOL    HW3 6103   1.578   0.739   2.562
 1518SOL    MW4 6104   1.584   0.746   2.649
 1519SOL     OW 6105   1.352   0.862   2.767
 1519SOL    HW2 6106   1.371   0.870   2.861
 1519SOL    HW3 6107   1.361   0.951   2.734
 1519SOL    MW4 6108   1.355   0.875   2.775
 1520SOL     OW 6109   1.367   1.109   2.648
 1520SOL    HW2 6110   1.435   1.165   2.685
 1520SOL    HW3 6111   1.285   1.147   2.679
 1520SOL    MW4 6112   1.365   1.121   2.657
 1521SOL     OW 6113   1.563   1.256   2.735
 1521SOL    HW2 6114   1.564   1.278   2.828
 1521SOL    HW3 6115   1.643   1.205   2.721
 1521SOL    MW4 6116   1.574   1.252   2.745
 1522SOL     OW 6117   1.545   1.535   2.659
 1522SOL    HW2 6118   1.540   1.442   2.684
 1522SOL    HW3 6119   1.560   1.534   2.565
 1522SOL    MW4 6120   1.546   1.522   2.650
 1523SOL     OW 6121   1.336   1.705   2.706
 1523SOL    HW2 6122   1.404   1.648   2.671
 1523SOL    HW3 6123   1.256   1.652   2.701
 1523SOL    MW4 6124   1.334   1.690   2.701
 1524SOL     OW 6125   1.297   1.950   2.605
 1524SOL    HW2 6126   1.302   1.860   2.638
 1524SOL    HW3 6127   1.298   1.940   2.510
 1524SOL    MW4 6128   1.297   1.937   2.597
 1525SOL     OW 6129   1.489   2.108   2.755
 1525SOL    HW2 6130   1.572   2.068   2.731
 1525SOL    HW3 6131   1.423   2.056   2.707
 1525SOL    MW4 6132   1.491   2.096   2.745
 1526SOL     OW 6133   1.556   2.331   2.623
 1526SOL    HW2 6134   1.632   2.364   2.670
 1526SOL    HW3 6135   1.524   2.258   2.676
 1526SOL    MW4 6136   1.562   2.325   2.636
 1527SOL     OW 6137   1.318   2.475   2.694
 1527SOL    HW2 6138   1.328   2.560   2.649
 1527SOL    HW3 6139   1.404   2.434   2.684
 1527SOL    MW4 6140   1.331   2.481   2.687
 1528SOL     OW 6141   1.307   2.748   2.589
 1528SOL    HW2 6142   1.390   2.777   2.627
 1528SOL    HW3 6143   1.321   2.753   2.495
 1528SOL    MW4 6144   1.320   2.752   2.582
 1529SOL     OW 6145   1.543   2.811   2.722
 1529SOL    HW2 6146   1.561   2.828   2.815
 1529SOL    HW3 6147   1.621   2.765   2.691
 1529SOL    MW4 6148   1.556   2.807   2.730
 1530SOL     OW 6149   1.563   3.072   2.656
 1530SOL    HW2 6150   1.641   3.100   2.705
 1530SOL    HW3 6151   1.549   2.982   2.684
 1530SOL    MW4 6152   1.572   3.064   2.666
 1531SOL     OW 6153   1.372   3.237   2.733
 1531SOL    HW2 6154   1.437   3.168   2.724
 1531SOL    HW3 6155   1.289   3.196   2.708
 1531SOL    MW4 6156   1.370   3.223   2.729
 1532SOL     OW 6157   1.367   3.480   2.623
 1532SOL    HW2 6158   1.365   3.392   2.661
 1532SOL    HW3 6159   1.297   3.528   2.668
 1532SOL    MW4 6160   1.357   3.475   2.634
 1533SOL     OW 6161   1.563   3.622   2.757
 1533SOL    HW2 6162   1.636   3.562   2.745
 1533SOL    HW3 6163   1.491   3.584   2.708
 1533SOL    MW4 6164   1.563   3.609   2.749
 1534SOL     OW 6165   1.539   3.836   2.595
 1534SOL    HW2 6166   1.473   3.890   2.639
 1534SOL    HW3 6167   1.555   3.763   2.656
 1534SOL    MW4 6168   1.532   3.834   2.609
 1535SOL     OW 6169   1.332   3.963   2.721
 1535SOL    HW2 6170   1.358   3.973   2.812
 1535SOL    HW3 6171   1.340   4.050   2.683
 1535SOL    MW4 6172   1.336   3.976   2.728
 1536SOL     OW 6173   1.364   4.225   2.639
 1536SOL    HW2 6174   1.290   4.264   2.684
 1536SOL    HW3 6175   1.349   4.243   2.546
 1536SOL    MW4 6176   1.352   4.232   2.633
 1537SOL     OW 6177   1.581   4.376   2.740
 1537SOL    HW2 6178   1.576   4.373   2.836
 1537SOL    HW3 6179   1.507   4.325   2.710
 1537SOL    MW4 6180   1.571   4.369   2.749
 1538SOL     OW 6181   1.991   4.637   2.674
 1538SOL    HW2 6182   2.069   4.686   2.700
 1538SOL    HW3 6183   1.999   4.628   2.579
 1538SOL    MW4 6184   2.002   4.642   2.665
 1539SOL     OW 6185   1.774   0.136   2.721
 1539SOL    HW2 6186   1.840   0.070   2.700
 1539SOL    HW3 6187   1.691   0.098   2.690
 1539SOL    MW4 6188   1.772   0.122   2.714
 1540SOL     OW 6189   1.829   0.386   2.600
 1540SOL    HW2 6190   1.889   0.409   2.671
 1540SOL    HW3 6191   1.813   0.293   2.611
 1540SOL    MW4 6192   1.835   0.377   2.611
 1541SOL     OW 6193   2.010   0.480   2.778
 1541SOL    HW2 6194   2.083   0.429   2.741
 1541SOL    HW3 6195   2.024   0.569   2.746
 1541SOL    MW4 6196   2.022   0.485   2.769
 1542SOL     OW 6197   2.043   0.730   2.620
 1542SOL    HW2 6198   1.968   0.784   2.646
 1542SOL    HW3 6199   2.020   0.696   2.534
 1542SOL    MW4 6200   2.030   0.733   2.612
 1543SOL     OW 6201   1.834   0.861   2.737
 1543SOL    HW2 6202   1.818   0.952   2.709
 1543SOL    HW3 6203   1.765   0.811   2.694
 1543SOL    MW4 6204   1.823   0.867   2.728
 1544SOL     OW 6205   1.798   1.122   2.672
 1544SOL    HW2 6206   1.865   1.179   2.710
 1544SOL    HW3 6207   1.797   1.144   2.579
 1544SOL    MW4 6208   1.807   1.133   2.665
 1545SOL     OW 6209   2.003   1.303   2.748
 1545SOL    HW2 6210   2.009   1.313   2.843
 1545SOL    HW3 6211   2.084   1.259   2.723
 1545SOL    MW4 6212   2.014   1.299   2.758
 1546SOL     OW 6213   1.985   1.564   2.662
 1546SOL    HW2 6214   1.913   1.616   2.698
 1546SOL    HW3 6215   1.969   1.475   2.694
 1546SOL    MW4 6216   1.973   1.559   2.671
 1547SOL     OW 6217   1.764   1.707   2.745
 1547SOL    HW2 6218   1.775   1.691   2.839
 1547SOL    HW3 6219   1.689   1.652   2.720
 1547SOL    MW4 6220   1.755   1.698   2.754
 1548SOL     OW 6221   1.730   1.976   2.693
 1548SOL    HW2 6222   1.815   2.013   2.715
 1548SOL    HW3 6223   1.732   1.887   2.729
 1548SOL    MW4 6224   1.741   1.969   2.701
 1549SOL     OW 6225   2.010   2.075   2.748
 1549SOL    HW2 6226   2.022   2.085   2.843
 1549SOL    HW3 6227   2.025   2.163   2.713
 1549SOL    MW4 6228   2.014   2.088   2.756
 1550SOL     OW 6229   2.033   2.327   2.659
 1550SOL    HW2 6230   2.107   2.385   2.679
 1550SOL    HW3 6231   2.021   2.336   2.564
 1550SOL    MW4 6232   2.041   2.336   2.649
 1551SOL     OW 6233   1.778   2.436   2.733
 1551SOL    HW2 6234   1.783   2.434   2.829
 1551SOL    HW3 6235   1.867   2.418   2.704
 1551SOL    MW4 6236   1.790   2.434   2.742
 1552SOL     OW 6237   1.783   2.699   2.634
 1552SOL    HW2 6238   1.792   2.608   2.662
 1552SOL    HW3 6239   1.775   2.695   2.539
 1552SOL    MW4 6240   1.783   2.687   2.625
 1553SOL     OW 6241   1.992   2.830   2.745
 1553SOL    HW2 6242   2.069   2.794   2.701
 1553SOL    HW3 6243   1.918   2.779   2.712
 1553SOL    MW4 6244   1.992   2.818   2.735
 1554SOL     OW 6245   2.005   3.093   2.644
 1554SOL    HW2 6246   2.009   3.003   2.677
 1554SOL    HW3 6247   2.019   3.086   2.550
 1554SOL    MW4 6248   2.007   3.080   2.636
 1555SOL     OW 6249   1.790   3.199   2.766
 1555SOL    HW2 6250   1.782   3.289   2.735
 1555SOL    HW3 6251   1.878   3.172   2.742
 1555SOL    MW4 6252   1.801   3.207   2.759
 1556SOL     OW 6253   1.781   3.467   2.659
 1556SOL    HW2 6254   1.852   3.520   2.695
 1556SOL    HW3 6255   1.794   3.469   2.565
 1556SOL    MW4 6256   1.792   3.474   2.652
 1557SOL     OW 6257   2.005   3.618   2.737
 1557SOL    HW2 6258   2.013   3.607   2.832
 1557SOL    HW3 6259   2.076   3.565   2.701
 1557SOL    MW4 6260   2.015   3.610   2.745
 1558SOL     OW 6261   2.064   3.847   2.599
 1558SOL    HW2 6262   1.984   3.900   2.606
 1558SOL    HW3 6263   2.044   3.768   2.650
 1558SOL    MW4 6264   2.051   3.844   2.607
 1559SOL     OW 6265   1.812   3.966   2.707
 1559SOL    HW2 6266   1.818   4.057   2.679
 1559SOL    HW3 6267   1.729   3.935   2.671
 1559SOL    MW4 6268   1.802   3.974   2.699
 1560SOL     OW 6269   1.783   4.239   2.613
 1560SOL    HW2 6270   1.713   4.282   2.662
 1560SOL    HW3 6271   1.766   4.263   2.522
 1560SOL    MW4 6272   1.771   4.248   2.608
 1561SOL     OW 6273   2.026   4.363   2.719
 1561SOL    HW2 6274   1.951   4.318   2.680
 1561SOL    HW3 6275   1.999   4.455   2.722
 1561SOL    MW4 6276   2.013   4.369   2.714
 1562SOL     OW 6277   2.466   4.634   2.664
 1562SOL    HW2 6278   2.538   4.691   2.691
 1562SOL    HW3 6279   2.462   4.643   2.569
 1562SOL    MW4 6280   2.475   4.642   2.655
 1563SOL     OW 6281   2.239   0.090   2.747
 1563SOL    HW2 6282   2.242   0.085   2.843
 1563SOL    HW3 6283   2.311   0.034   2.718
 1563SOL    MW4 6284   2.249   0.082   2.756
 1564SOL     OW 6285   2.254   0.378   2.651
 1564SOL    HW2 6286   2.271   0.290   2.684
 1564SOL    HW3 6287   2.221   0.365   2.563
 1564SOL    MW4 6288   2.252   0.365   2.644
 1565SOL     OW 6289   2.469   0.520   2.742
 1565SOL    HW2 6290   2.463   0.606   2.702
 1565SOL    HW3 6291   2.386   0.477   2.721
 1565SOL    MW4 6292   2.457   0.526   2.734
 1566SOL     OW 6293   2.450   0.785   2.622
 1566SOL    HW2 6294   2.364   0.817   2.648
 1566SOL    HW3 6295   2.443   0.768   2.528
 1566SOL    MW4 6296   2.438   0.787   2.613
 1567SOL     OW 6297   2.232   0.894   2.757
 1567SOL    HW2 6298   2.232   0.897   2.853
 1567SOL    HW3 6299   2.152   0.847   2.735
 1567SOL    MW4 6300   2.221   0.888   2.767
 1568SOL     OW 6301   2.214   1.159   2.670
 1568SOL    HW2 6302   2.217   1.073   2.713
 1568SOL    HW3 6303   2.219   1.138   2.576
 1568SOL    MW4 6304   2.215   1.145   2.663
 1569SOL     OW 6305   2.456   1.301   2.764
 1569SOL    HW2 6306   2.529   1.251   2.729
 1569SOL    HW3 6307   2.378   1.259   2.728
 1569SOL    MW4 6308   2.455   1.289   2.755
 1570SOL     OW 6309   2.474   1.554   2.660
 1570SOL    HW2 6310   2.391   1.597   2.679
 1570SOL    HW3 6311   2.464   1.466   2.694
 1570SOL    MW4 6312   2.462   1.548   2.667
 1571SOL     OW 6313   2.234   1.661   2.753
 1571SOL    HW2 6314   2.230   1.749   2.718
 1571SOL    HW3 6315   2.152   1.620   2.726
 1571SOL    MW4 6316   2.223   1.667   2.745
 1572SOL     OW 6317   2.235   1.934   2.660
 1572SOL    HW2 6318   2.152   1.975   2.682
 1572SOL    HW3 6319   2.252   1.959   2.570
 1572SOL    MW4 6320   2.226   1.942   2.651
 1573SOL     OW 6321   2.450   2.053   2.791
 1573SOL    HW2 6322   2.442   2.147   2.774
 1573SOL    HW3 6323   2.366   2.016   2.763
 1573SOL    MW4 6324   2.438   2.061   2.785
 1574SOL     OW 6325   2.446   2.310   2.672
 1574SOL    HW2 6326   2.527   2.354   2.699
 1574SOL    HW3 6327   2.456   2.298   2.578
 1574SOL    MW4 6328   2.458   2.315   2.663
 1575SOL     OW 6329   2.245   2.482   2.737
 1575SOL    HW2 6330   2.258   2.479   2.832
 1575SOL    HW3 6331   2.311   2.423   2.702
 1575SOL    MW4 6332   2.255   2.474   2.745
 1576SOL     OW 6333   2.215   2.725   2.618
 1576SOL    HW2 6334   2.285   2.773   2.662
 1576SOL    HW3 6335   2.216   2.638   2.659
 1576SOL    MW4 6336   2.224   2.720   2.629
 1577SOL     OW 6337   2.431   2.832   2.745
 1577SOL    HW2 6338   2.504   2.783   2.709
 1577SOL    HW3 6339   2.445   2.922   2.716
 1577SOL    MW4 6340   2.442   2.838   2.737
 1578SOL     OW 6341   2.473   3.096   2.672
 1578SOL    HW2 6342   2.396   3.151   2.683
 1578SOL    HW3 6343   2.488   3.095   2.577
 1578SOL    MW4 6344   2.465   3.103   2.661
 1579SOL     OW 6345   2.245   3.237   2.730
 1579SOL    HW2 6346   2.232   3.247   2.824
 1579SOL    HW3 6347   2.180   3.172   2.703
 1579SOL    MW4 6348   2.235   3.230   2.739
 1580SOL     OW 6349   2.213   3.496   2.607
 1580SOL    HW2 6350   2.296   3.527   2.643
 1580SOL    HW3 6351   2.207   3.405   2.635
 1580SOL    MW4 6352   2.223   3.488   2.615
 1581SOL     OW 6353   2.463   3.592   2.689
 1581SOL    HW2 6354   2.462   3.611   2.783
 1581SOL    HW3 6355   2.501   3.670   2.649
 1581SOL    MW4 6356   2.468   3.605   2.696
 1582SOL     OW 6357   2.507   3.846   2.603
 1582SOL    HW2 6358   2.585   3.874   2.651
 1582SOL    HW3 6359   2.435   3.894   2.644
 1582SOL    MW4 6360   2.507   3.856   2.615
 1583SOL     OW 6361   2.295   3.994   2.721
 1583SOL    HW2 6362   2.298   3.994   2.817
 1583SOL    HW3 6363   2.222   3.936   2.700
 1583SOL    MW4 6364   2.286   3.986   2.731
 1584SOL     OW 6365   2.260   4.258   2.625
 1584SOL    HW2 6366   2.284   4.174   2.665
 1584SOL    HW3 6367   2.178   4.283   2.669
 1584SOL    MW4 6368   2.252   4.250   2.636
 1585SOL     OW 6369   2.506   4.363   2.732
 1585SOL    HW2 6370   2.425   4.322   2.702
 1585SOL    HW3 6371   2.493   4.457   2.715
 1585SOL    MW4 6372   2.494   4.370   2.726
 1586SOL     OW 6373   2.902   4.657   2.664
 1586SOL    HW2 6374   2.981   4.693   2.703
 1586SOL    HW3 6375   2.914   4.668   2.570
 1586SOL    MW4 6376   2.914   4.663   2.657
 1587SOL     OW 6377   2.677   0.133   2.720
 1587SOL    HW2 6378   2.679   0.124   2.815
 1587SOL    HW3 6379   2.756   0.089   2.689
 1587SOL    MW4 6380   2.688   0.126   2.728
 1588SOL     OW 6381   2.695   0.394   2.633
 1588SOL    HW2 6382   2.680   0.302   2.657
 1588SOL    HW3 6383   2.621   0.441   2.670
 1588SOL    MW4 6384   2.684   0.388   2.641
 1589SOL     OW 6385   2.924   0.507   2.750
 1589SOL    HW2 6386   2.946   0.579   2.691
 1589SOL    HW3 6387   2.845   0.469   2.713
 1589SOL    MW4 6388   2.916   0.512   2.738
 1590SOL     OW 6389   2.921   0.771   2.606
 1590SOL    HW2 6390   2.989   0.815   2.657
 1590SOL    HW3 6391   2.839   0.795   2.650
 1590SOL    MW4 6392   2.919   0.780   2.619
 1591SOL     OW 6393   2.698   0.876   2.721
 1591SOL    HW2 6394   2.697   0.883   2.816
 1591SOL    HW3 6395   2.612   0.841   2.698
 1591SOL    MW4 6396   2.687   0.872   2.730
 1592SOL     OW 6397   2.673   1.146   2.649
 1592SOL    HW2 6398   2.747   1.198   2.681
 1592SOL    HW3 6399   2.688   1.059   2.685
 1592SOL    MW4 6400   2.685   1.141   2.658
 1593SOL     OW 6401   2.869   1.306   2.739
 1593SOL    HW2 6402   2.866   1.295   2.834
 1593SOL    HW3 6403   2.947   1.257   2.711
 1593SOL    MW4 6404   2.879   1.298   2.747
 1594SOL     OW 6405   2.916   1.546   2.625
 1594SOL    HW2 6406   2.849   1.607   2.655
 1594SOL    HW3 6407   2.891   1.462   2.663
 1594SOL    MW4 6408   2.904   1.543   2.634
 1595SOL     OW 6409   2.715   1.685   2.760
 1595SOL    HW2 6410   2.722   1.681   2.856
 1595SOL    HW3 6411   2.630   1.645   2.740
 1595SOL    MW4 6412   2.705   1.679   2.770
 1596SOL     OW 6413   2.648   1.938   2.641
 1596SOL    HW2 6414   2.674   1.865   2.696
 1596SOL    HW3 6415   2.577   1.981   2.689
 1596SOL    MW4 6416   2.642   1.934   2.654
 1597SOL     OW 6417   2.868   2.067   2.770
 1597SOL    HW2 6418   2.866   2.152   2.726
 1597SOL    HW3 6419   2.781   2.031   2.756
 1597SOL    MW4 6420   2.856   2.074   2.762
 1598SOL     OW 6421   2.899   2.319   2.658
 1598SOL    HW2 6422   2.982   2.362   2.675
 1598SOL    HW3 6423   2.836   2.366   2.712
 1598SOL    MW4 6424   2.901   2.331   2.667
 1599SOL     OW 6425   2.675   2.457   2.777
 1599SOL    HW2 6426   2.694   2.481   2.868
 1599SOL    HW3 6427   2.645   2.538   2.737
 1599SOL    MW4 6428   2.674   2.471   2.784
 1600SOL     OW 6429   2.637   2.699   2.632
 1600SOL    HW2 6430   2.724   2.732   2.653
 1600SOL    HW3 6431   2.640   2.679   2.539
 1600SOL    MW4 6432   2.649   2.701   2.623
 1601SOL     OW 6433   2.881   2.800   2.698
 1601SOL    HW2 6434   2.917   2.815   2.786
 1601SOL    HW3 6435   2.881   2.887   2.657
 1601SOL    MW4 6436   2.886   2.814   2.704
 1602SOL     OW 6437   2.947   3.072   2.583
 1602SOL    HW2 6438   2.863   3.109   2.611
 1602SOL    HW3 6439   2.941   3.070   2.487
 1602SOL    MW4 6440   2.935   3.077   2.574
 1603SOL     OW 6441   2.739   3.198   2.712
 1603SOL    HW2 6442   2.726   3.287   2.679
 1603SOL    HW3 6443   2.652   3.159   2.710
 1603SOL    MW4 6444   2.726   3.205   2.707
 1604SOL     OW 6445   2.736   3.480   2.631
 1604SOL    HW2 6446   2.648   3.496   2.667
 1604SOL    HW3 6447   2.724   3.486   2.536
 1604SOL    MW4 6448   2.723   3.483   2.623
 1605SOL     OW 6449   2.940   3.611   2.766
 1605SOL    HW2 6450   2.933   3.613   2.861
 1605SOL    HW3 6451   2.863   3.562   2.737
 1605SOL    MW4 6452   2.929   3.605   2.775
 1606SOL     OW 6453   2.937   3.866   2.614
 1606SOL    HW2 6454   3.024   3.899   2.635
 1606SOL    HW3 6455   2.936   3.777   2.649
 1606SOL    MW4 6456   2.948   3.859   2.622
 1607SOL     OW 6457   2.717   4.000   2.721
 1607SOL    HW2 6458   2.724   4.085   2.678
 1607SOL    HW3 6459   2.797   3.954   2.697
 1607SOL    MW4 6460   2.728   4.005   2.712
 1608SOL     OW 6461   2.738   4.265   2.604
 1608SOL    HW2 6462   2.806   4.295   2.664
 1608SOL    HW3 6463   2.660   4.316   2.629
 1608SOL    MW4 6464   2.736   4.276   2.615
 1609SOL     OW 6465   2.949   4.392   2.737
 1609SOL    HW2 6466   2.937   4.406   2.831
 1609SOL    HW3 6467   2.938   4.478   2.698
 1609SOL    MW4 6468   2.946   4.405   2.745
 1610SOL     OW 6469   3.372   0.000   2.607
 1610SOL    HW2 6470   3.379  -0.087   2.646
 1610SOL    HW3 6471   3.316   0.049   2.667
 1610SOL    MW4 6472   3.366  -0.005   2.620
 1611SOL     OW 6473   3.138   0.101   2.757
 1611SOL    HW2 6474   3.142   0.097   2.853
 1611SOL    HW3 6475   3.132   0.194   2.737
 1611SOL    MW4 6476   3.137   0.113   2.767
 1612SOL     OW 6477   3.165   0.366   2.669
 1612SOL    HW2 6478   3.081   0.403   2.695
 1612SOL    HW3 6479   3.164   0.368   2.574
 1612SOL    MW4 6480   3.154   0.371   2.660
 1613SOL     OW 6481   3.370   0.513   2.774
 1613SOL    HW2 6482   3.358   0.603   2.742
 1613SOL    HW3 6483   3.302   0.462   2.730
 1613SOL    MW4 6484   3.359   0.518   2.764
 1614SOL     OW 6485   3.344   0.783   2.671
 1614SOL    HW2 6486   3.431   0.808   2.705
 1614SOL    HW3 6487   3.348   0.804   2.578
 1614SOL    MW4 6488   3.356   0.789   2.664
 1615SOL     OW 6489   3.128   0.909   2.756
 1615SOL    HW2 6490   3.117   0.912   2.851
 1615SOL    HW3 6491   3.211   0.864   2.743
 1615SOL    MW4 6492   3.137   0.903   2.767
 1616SOL     OW 6493   3.116   1.186   2.660
 1616SOL    HW2 6494   3.118   1.092   2.679
 1616SOL    HW3 6495   3.124   1.190   2.564
 1616SOL    MW4 6496   3.117   1.174   2.650
 1617SOL     OW 6497   3.360   1.275   2.744
 1617SOL    HW2 6498   3.360   1.307   2.835
 1617SOL    HW3 6499   3.274   1.235   2.732
 1617SOL    MW4 6500   3.349   1.274   2.755
 1618SOL     OW 6501   3.323   1.536   2.652
 1618SOL    HW2 6502   3.247   1.575   2.696
 1618SOL    HW3 6503   3.335   1.451   2.696
 1618SOL    MW4 6504   3.315   1.530   2.664
 1619SOL     OW 6505   3.113   1.663   2.792
 1619SOL    HW2 6506   3.123   1.752   2.758
 1619SOL    HW3 6507   3.061   1.617   2.726
 1619SOL    MW4 6508   3.108   1.669   2.779
 1620SOL     OW 6509   3.108   1.937   2.713
 1620SOL    HW2 6510   3.176   1.998   2.740
 1620SOL    HW3 6511   3.026   1.980   2.737
 1620SOL    MW4 6512   3.106   1.951   2.719
 1621SOL     OW 6513   3.339   2.067   2.764
 1621SOL    HW2 6514   3.362   2.069   2.857
 1621SOL    HW3 6515   3.323   2.158   2.741
 1621SOL    MW4 6516   3.340   2.079   2.774
 1622SOL     OW 6517   3.350   2.330   2.661
 1622SOL    HW2 6518   3.438   2.366   2.676
 1622SOL    HW3 6519   3.354   2.295   2.572
 1622SOL    MW4 6520   3.362   2.330   2.651
 1623SOL     OW 6521   3.127   2.458   2.747
 1623SOL    HW2 6522   3.130   2.546   2.709
 1623SOL    HW3 6523   3.217   2.425   2.739
 1623SOL    MW4 6524   3.139   2.465   2.741
 1624SOL     OW 6525   3.147   2.696   2.629
 1624SOL    HW2 6526   3.212   2.747   2.678
 1624SOL    HW3 6527   3.067   2.748   2.632
 1624SOL    MW4 6528   3.145   2.710   2.636
 1625SOL     OW 6529   3.361   2.824   2.747
 1625SOL    HW2 6530   3.353   2.830   2.842
 1625SOL    HW3 6531   3.446   2.783   2.732
 1625SOL    MW4 6532   3.371   2.819   2.758
 1626SOL     OW 6533   3.344   3.100   2.661
 1626SOL    HW2 6534   3.350   3.009   2.689
 1626SOL    HW3 6535   3.355   3.097   2.566
 1626SOL    MW4 6536   3.347   3.088   2.652
 1627SOL     OW 6537   3.116   3.219   2.746
 1627SOL    HW2 6538   3.198   3.177   2.720
 1627SOL    HW3 6539   3.048   3.173   2.697
 1627SOL    MW4 6540   3.118   3.208   2.736
 1628SOL     OW 6541   3.146   3.481   2.642
 1628SOL    HW2 6542   3.146   3.392   2.679
 1628SOL    HW3 6543   3.067   3.521   2.678
 1628SOL    MW4 6544   3.136   3.474   2.652
 1629SOL     OW 6545   3.375   3.606   2.695
 1629SOL    HW2 6546   3.387   3.606   2.790
 1629SOL    HW3 6547   3.299   3.549   2.680
 1629SOL    MW4 6548   3.366   3.598   2.705
 1630SOL     OW 6549   3.390   3.867   2.595
 1630SOL    HW2 6550   3.384   3.779   2.631
 1630SOL    HW3 6551   3.386   3.855   2.500
 1630SOL    MW4 6552   3.388   3.854   2.587
 1631SOL     OW 6553   3.165   4.004   2.706
 1631SOL    HW2 6554   3.177   4.094   2.676
 1631SOL    HW3 6555   3.238   3.956   2.666
 1631SOL    MW4 6556   3.176   4.010   2.697
 1632SOL     OW 6557   3.178   4.284   2.653
 1632SOL    HW2 6558   3.099   4.317   2.696
 1632SOL    HW3 6559   3.160   4.296   2.559
 1632SOL    MW4 6560   3.165   4.290   2.646
 1633SOL     OW 6561   3.402   4.427   2.738
 1633SOL    HW2 6562   3.409   4.423   2.833
 1633SOL    HW3 6563   3.327   4.372   2.717
 1633SOL    MW4 6564   3.393   4.419   2.748
 1634SOL     OW 6565   3.862   4.627   2.633
 1634SOL    HW2 6566   3.842   4.542   2.673
 1634SOL    HW3 6567   3.793   4.685   2.667
 1634SOL    MW4 6568   3.850   4.623   2.643
 1635SOL     OW 6569   3.624   0.108   2.706
 1635SOL    HW2 6570   3.610   0.199   2.680
 1635SOL    HW3 6571   3.555   0.060   2.661
 1635SOL    MW4 6572   3.613   0.114   2.697
 1636SOL     OW 6573   3.575   0.374   2.651
 1636SOL    HW2 6574   3.650   0.423   2.684
 1636SOL    HW3 6575   3.502   0.403   2.705
 1636SOL    MW4 6576   3.575   0.385   2.662
 1637SOL     OW 6577   3.826   0.481   2.735
 1637SOL    HW2 6578   3.835   0.498   2.829
 1637SOL    HW3 6579   3.912   0.451   2.707
 1637SOL    MW4 6580   3.838   0.479   2.744
 1638SOL     OW 6581   3.797   0.729   2.630
 1638SOL    HW2 6582   3.719   0.778   2.654
 1638SOL    HW3 6583   3.789   0.646   2.677
 1638SOL    MW4 6584   3.786   0.724   2.640
 1639SOL     OW 6585   3.606   0.886   2.758
 1639SOL    HW2 6586   3.612   0.885   2.854
 1639SOL    HW3 6587   3.592   0.978   2.736
 1639SOL    MW4 6588   3.605   0.898   2.768
 1640SOL     OW 6589   3.595   1.149   2.681
 1640SOL    HW2 6590   3.667   1.187   2.731
 1640SOL    HW3 6591   3.521   1.206   2.700
 1640SOL    MW4 6592   3.595   1.161   2.690
 1641SOL     OW 6593   3.841   1.248   2.752
 1641SOL    HW2 6594   3.923   1.213   2.717
 1641SOL    HW3 6595   3.837   1.337   2.719
 1641SOL    MW4 6596   3.851   1.255   2.743
 1642SOL     OW 6597   3.797   1.515   2.677
 1642SOL    HW2 6598   3.875   1.568   2.697
 1642SOL    HW3 6599   3.724   1.577   2.684
 1642SOL    MW4 6600   3.798   1.530   2.680
 1643SOL     OW 6601   3.582   1.682   2.721
 1643SOL    HW2 6602   3.569   1.774   2.698
 1643SOL    HW3 6603   3.497   1.641   2.704
 1643SOL    MW4 6604   3.569   1.689   2.715
 1644SOL     OW 6605   3.572   1.954   2.644
 1644SOL    HW2 6606   3.486   1.997   2.649
 1644SOL    HW3 6607   3.574   1.915   2.557
 1644SOL    MW4 6608   3.561   1.954   2.633
 1645SOL     OW 6609   3.799   2.046   2.803
 1645SOL    HW2 6610   3.864   2.008   2.744
 1645SOL    HW3 6611   3.715   2.014   2.770
 1645SOL    MW4 6612   3.796   2.037   2.791
 1646SOL     OW 6613   3.813   2.318   2.712
 1646SOL    HW2 6614   3.799   2.226   2.733
 1646SOL    HW3 6615   3.809   2.322   2.617
 1646SOL    MW4 6616   3.811   2.306   2.702
 1647SOL     OW 6617   3.584   2.465   2.720
 1647SOL    HW2 6618   3.572   2.479   2.814
 1647SOL    HW3 6619   3.660   2.407   2.714
 1647SOL    MW4 6620   3.592   2.459   2.731
 1648SOL     OW 6621   3.613   2.721   2.642
 1648SOL    HW2 6622   3.607   2.627   2.659
 1648SOL    HW3 6623   3.616   2.728   2.546
 1648SOL    MW4 6624   3.612   2.709   2.632
 1649SOL     OW 6625   3.839   2.868   2.725
 1649SOL    HW2 6626   3.906   2.800   2.715
 1649SOL    HW3 6627   3.759   2.826   2.694
 1649SOL    MW4 6628   3.838   2.853   2.719
 1650SOL     OW 6629   3.814   3.126   2.636
 1650SOL    HW2 6630   3.728   3.150   2.671
 1650SOL    HW3 6631   3.835   3.043   2.678
 1650SOL    MW4 6632   3.806   3.118   2.646
 1651SOL     OW 6633   3.571   3.215   2.743
 1651SOL    HW2 6634   3.577   3.303   2.706
 1651SOL    HW3 6635   3.487   3.181   2.713
 1651SOL    MW4 6636   3.561   3.222   2.734
 1652SOL     OW 6637   3.596   3.468   2.619
 1652SOL    HW2 6638   3.659   3.527   2.661
 1652SOL    HW3 6639   3.511   3.509   2.634
 1652SOL    MW4 6640   3.593   3.481   2.627
 1653SOL     OW 6641   3.810   3.624   2.722
 1653SOL    HW2 6642   3.901   3.606   2.698
 1653SOL    HW3 6643   3.797   3.716   2.698
 1653SOL    MW4 6644   3.820   3.634   2.715
 1654SOL     OW 6645   3.811   3.875   2.619
 1654SOL    HW2 6646   3.897   3.915   2.636
 1654SOL    HW3 6647   3.749   3.941   2.650
 1654SOL    MW4 6648   3.815   3.889   2.626
 1655SOL     OW 6649   3.602   4.012   2.711
 1655SOL    HW2 6650   3.597   4.106   2.694
 1655SOL    HW3 6651   3.528   3.975   2.662
 1655SOL    MW4 6652   3.591   4.019   2.702
 1656SOL     OW 6653   3.605   4.277   2.641
 1656SOL    HW2 6654   3.549   4.344   2.681
 1656SOL    HW3 6655   3.585   4.282   2.547
 1656SOL    MW4 6656   3.595   4.287   2.634
 1657SOL     OW 6657   3.837   4.380   2.769
 1657SOL    HW2 6658   3.915   4.350   2.723
 1657SOL    HW3 6659   3.766   4.326   2.735
 1657SOL    MW4 6660   3.838   4.369   2.759
 1658SOL     OW 6661   4.285   4.637   2.593
 1658SOL    HW2 6662   4.210   4.667   2.645
 1658SOL    HW3 6663   4.359   4.687   2.627
 1658SOL    MW4 6664   4.285   4.648   2.605
 1659SOL     OW 6665   4.073   0.088   2.752
 1659SOL    HW2 6666   4.058   0.100   2.846
 1659SOL    HW3 6667   4.002   0.029   2.725
 1659SOL    MW4 6668   4.061   0.082   2.761
 1660SOL     OW 6669   4.087   0.362   2.652
 1660SOL    HW2 6670   4.063   0.277   2.689
 1660SOL    HW3 6671   4.079   0.350   2.557
 1660SOL    MW4 6672   4.082   0.349   2.644
 1661SOL     OW 6673   4.298   0.468   2.758
 1661SOL    HW2 6674   4.231   0.411   2.721
 1661SOL    HW3 6675   4.378   0.446   2.709
 1661SOL    MW4 6676   4.300   0.458   2.747
 1662SOL     OW 6677   4.218   0.707   2.672
 1662SOL    HW2 6678   4.253   0.626   2.707
 1662SOL    HW3 6679   4.250   0.710   2.581
 1662SOL    MW4 6680   4.227   0.697   2.664
 1663SOL     OW 6681   4.003   0.828   2.805
 1663SOL    HW2 6682   4.082   0.790   2.768
 1663SOL    HW3 6683   3.933   0.803   2.744
 1663SOL    MW4 6684   4.004   0.820   2.792
 1664SOL     OW 6685   4.082   1.124   2.647
 1664SOL    HW2 6686   4.146   1.176   2.696
 1664SOL    HW3 6687   4.086   1.037   2.687
 1664SOL    MW4 6688   4.091   1.120   2.659
 1665SOL     OW 6689   4.270   1.280   2.812
 1665SOL    HW2 6690   4.264   1.350   2.747
 1665SOL    HW3 6691   4.346   1.228   2.786
 1665SOL    MW4 6692   4.279   1.282   2.800
 1666SOL     OW 6693   4.257   1.524   2.638
 1666SOL    HW2 6694   4.338   1.570   2.659
 1666SOL    HW3 6695   4.264   1.503   2.545
 1666SOL    MW4 6696   4.269   1.527   2.628
 1667SOL     OW 6697   4.019   1.668   2.735
 1667SOL    HW2 6698   4.050   1.699   2.820
 1667SOL    HW3 6699   4.096   1.624   2.697
 1667SOL    MW4 6700   4.033   1.666   2.741
 1668SOL     OW 6701   4.009   1.913   2.641
 1668SOL    HW2 6702   4.091   1.946   2.677
 1668SOL    HW3 6703   4.004   1.823   2.671
 1668SOL    MW4 6704   4.019   1.906   2.650
 1669SOL     OW 6705   4.236   2.033   2.751
 1669SOL    HW2 6706   4.241   2.122   2.715
 1669SOL    HW3 6707   4.318   1.992   2.724
 1669SOL    MW4 6708   4.248   2.040   2.742
 1670SOL     OW 6709   4.264   2.301   2.638
 1670SOL    HW2 6710   4.188   2.353   2.664
 1670SOL    HW3 6711   4.258   2.296   2.543
 1670SOL    MW4 6712   4.253   2.307   2.629
 1671SOL     OW 6713   4.058   2.438   2.733
 1671SOL    HW2 6714   4.072   2.453   2.826
 1671SOL    HW3 6715   3.971   2.398   2.727
 1671SOL    MW4 6716   4.048   2.435   2.744
 1672SOL     OW 6717   4.058   2.702   2.659
 1672SOL    HW2 6718   4.141   2.731   2.697
 1672SOL    HW3 6719   4.052   2.609   2.682
 1672SOL    MW4 6720   4.068   2.694   2.667
 1673SOL     OW 6721   4.310   2.835   2.727
 1673SOL    HW2 6722   4.313   2.858   2.820
 1673SOL    HW3 6723   4.281   2.916   2.683
 1673SOL    MW4 6724   4.307   2.849   2.733
 1674SOL     OW 6725   4.264   3.080   2.590
 1674SOL    HW2 6726   4.200   3.137   2.632
 1674SOL    HW3 6727   4.255   3.097   2.496
 1674SOL    MW4 6728   4.255   3.090   2.583
 1675SOL     OW 6729   4.081   3.235   2.701
 1675SOL    HW2 6730   4.091   3.328   2.684
 1675SOL    HW3 6731   3.988   3.218   2.685
 1675SOL    MW4 6732   4.070   3.245   2.697
 1676SOL     OW 6733   4.065   3.513   2.651
 1676SOL    HW2 6734   4.142   3.571   2.657
 1676SOL    HW3 6735   4.054   3.498   2.557
 1676SOL    MW4 6736   4.074   3.519   2.639
 1677SOL     OW 6737   4.301   3.656   2.715
 1677SOL    HW2 6738   4.300   3.651   2.810
 1677SOL    HW3 6739   4.360   3.586   2.687
 1677SOL    MW4 6740   4.308   3.646   2.724
 1678SOL     OW 6741   4.288   3.905   2.605
 1678SOL    HW2 6742   4.298   3.817   2.641
 1678SOL    HW3 6743   4.372   3.948   2.621
 1678SOL    MW4 6744   4.301   3.899   2.611
 1679SOL     OW 6745   4.046   4.010   2.684
 1679SOL    HW2 6746   4.054   4.011   2.779
 1679SOL    HW3 6747   4.124   3.965   2.653
 1679SOL    MW4 6748   4.057   4.004   2.692
 1680SOL     OW 6749   4.070   4.273   2.640
 1680SOL    HW2 6750   4.062   4.181   2.664
 1680SOL    HW3 6751   4.051   4.275   2.546
 1680SOL    MW4 6752   4.066   4.261   2.631
 1681SOL     OW 6753   4.303   4.407   2.725
 1681SOL    HW2 6754   4.218   4.371   2.701
 1681SOL    HW3 6755   4.305   4.494   2.684
 1681SOL    MW4 6756   4.292   4.414   2.716
 1682SOL     OW 6757   0.210   0.021   3.099
 1682SOL    HW2 6758   0.202   0.019   3.195
 1682SOL    HW3 6759   0.127   0.059   3.069
 1682SOL    MW4 6760   0.198   0.026   3.108
 1683SOL     OW 6761   4.446   0.105   2.980
 1683SOL    HW2 6762   4.381   0.050   3.023
 1683SOL    HW3 6763   4.428   0.193   3.014
 1683SOL    MW4 6764   4.435   0.109   2.990
 1684SOL     OW 6765   0.003   0.350   3.103
 1684SOL    HW2 6766   0.014   0.357   3.197
 1684SOL    HW3 6767  -0.064   0.416   3.082
 1684SOL    MW4 6768  -0.005   0.360   3.112
 1685SOL     OW 6769   0.214   0.492   2.997
 1685SOL    HW2 6770   0.294   0.478   3.048
 1685SOL    HW3 6771   0.155   0.422   3.024
 1685SOL    MW4 6772   0.217   0.481   3.007
 1686SOL     OW 6773   0.186   0.765   3.084
 1686SOL    HW2 6774   0.187   0.757   3.180
 1686SOL    HW3 6775   0.198   0.675   3.053
 1686SOL    MW4 6776   0.188   0.752   3.093
 1687SOL     OW 6777   4.432   0.886   3.016
 1687SOL    HW2 6778   4.519   0.857   3.043
 1687SOL    HW3 6779   4.439   0.898   2.921
 1687SOL    MW4 6780   4.444   0.884   3.007
 1688SOL     OW 6781   4.482   1.139   3.118
 1688SOL    HW2 6782   4.402   1.192   3.112
 1688SOL    HW3 6783   4.457   1.054   3.083
 1688SOL    MW4 6784   4.468   1.135   3.113
 1689SOL     OW 6785   0.225   1.268   3.010
 1689SOL    HW2 6786   0.144   1.225   3.038
 1689SOL    HW3 6787   0.222   1.264   2.915
 1689SOL    MW4 6788   0.214   1.262   3.001
 1690SOL     OW 6789   0.246   1.560   3.070
 1690SOL    HW2 6790   0.158   1.593   3.054
 1690SOL    HW3 6791   0.250   1.476   3.024
 1690SOL    MW4 6792   0.235   1.553   3.062
 1691SOL     OW 6793   4.478   1.631   3.019
 1691SOL    HW2 6794   4.393   1.605   3.053
 1691SOL    HW3 6795   4.488   1.722   3.047
 1691SOL    MW4 6796   4.468   1.640   3.028
 1692SOL     OW 6797   0.033   1.906   3.089
 1692SOL    HW2 6798  -0.048   1.950   3.062
 1692SOL    HW3 6799   0.104   1.959   3.052
 1692SOL    MW4 6800   0.032   1.919   3.081
 1693SOL     OW 6801   0.221   2.067   2.994
 1693SOL    HW2 6802   0.213   2.157   3.025
 1693SOL    HW3 6803   0.215   2.074   2.898
 1693SOL    MW4 6804   0.219   2.080   2.985
 1694SOL     OW 6805   0.200   2.335   3.107
 1694SOL    HW2 6806   0.193   2.331   3.202
 1694SOL    HW3 6807   0.283   2.381   3.090
 1694SOL    MW4 6808   0.210   2.341   3.117
 1695SOL     OW 6809   4.461   2.438   3.010
 1695SOL    HW2 6810   4.466   2.532   3.031
 1695SOL    HW3 6811   4.543   2.402   3.046
 1695SOL    MW4 6812   4.473   2.446   3.018
 1696SOL     OW 6813   4.485   2.701   3.077
 1696SOL    HW2 6814   4.485   2.703   3.172
 1696SOL    HW3 6815   4.556   2.760   3.051
 1696SOL    MW4 6816   4.495   2.709   3.086
 1697SOL     OW 6817   0.218   2.858   3.015
 1697SOL    HW2 6818   0.298   2.815   3.045
 1697SOL    HW3 6819   0.216   2.843   2.920
 1697SOL    MW4 6820   0.228   2.851   3.006
 1698SOL     OW 6821   0.224   3.116   3.087
 1698SOL    HW2 6822   0.146   3.151   3.045
 1698SOL    HW3 6823   0.227   3.024   3.061
 1698SOL    MW4 6824   0.214   3.109   3.078
 1699SOL     OW 6825   0.020   3.255   2.975
 1699SOL    HW2 6826  -0.056   3.212   3.013
 1699SOL    HW3 6827   0.016   3.232   2.882
 1699SOL    MW4 6828   0.010   3.246   2.968
 1700SOL     OW 6829   0.048   3.500   3.092
 1700SOL    HW2 6830  -0.029   3.554   3.072
 1700SOL    HW3 6831   0.033   3.419   3.045
 1700SOL    MW4 6832   0.036   3.497   3.083
 1701SOL     OW 6833   0.272   3.651   3.015
 1701SOL    HW2 6834   0.256   3.736   3.056
 1701SOL    HW3 6835   0.190   3.602   3.027
 1701SOL    MW4 6836   0.259   3.655   3.022
 1702SOL     OW 6837   0.223   3.908   3.110
 1702SOL    HW2 6838   0.226   3.889   3.204
 1702SOL    HW3 6839   0.308   3.950   3.091
 1702SOL    MW4 6840   0.235   3.911   3.120
 1703SOL     OW 6841   4.484   4.016   2.999
 1703SOL    HW2 6842   4.564   3.972   3.029
 1703SOL    HW3 6843   4.499   4.029   2.905
 1703SOL    MW4 6844   4.497   4.012   2.990
 1704SOL     OW 6845   0.025   4.276   3.096
 1704SOL    HW2 6846   0.009   4.265   3.190
 1704SOL    HW3 6847   0.018   4.188   3.060
 1704SOL    MW4 6848   0.022   4.263   3.104
 1705SOL     OW 6849   0.264   4.430   3.025
 1705SOL    HW2 6850   0.186   4.394   3.067
 1705SOL    HW3 6851   0.250   4.524   3.026
 1705SOL    MW4 6852   0.252   4.437   3.031
 1706SOL     OW 6853   0.667   0.036   3.141
 1706SOL    HW2 6854   0.675  -0.056   3.114
 1706SOL    HW3 6855   0.590   0.068   3.095
 1706SOL    MW4 6856   0.658   0.028   3.132
 1707SOL     OW 6857   0.418   0.188   3.030
 1707SOL    HW2 6858   0.421   0.277   3.066
 1707SOL    HW3 6859   0.337   0.151   3.064
 1707SOL    MW4 6860   0.408   0.195   3.039
 1708SOL     OW 6861   0.455   0.428   3.142
 1708SOL    HW2 6862   0.486   0.410   3.231
 1708SOL    HW3 6863   0.531   0.465   3.097
 1708SOL    MW4 6864   0.469   0.431   3.148
 1709SOL     OW 6865   0.681   0.543   3.029
 1709SOL    HW2 6866   0.769   0.524   3.061
 1709SOL    HW3 6867   0.671   0.637   3.042
 1709SOL    MW4 6868   0.691   0.553   3.035
 1710SOL     OW 6869   0.665   0.811   3.118
 1710SOL    HW2 6870   0.661   0.823   3.213
 1710SOL    HW3 6871   0.577   0.834   3.087
 1710SOL    MW4 6872   0.653   0.816   3.127
 1711SOL     OW 6873   0.427   0.907   2.990
 1711SOL    HW2 6874   0.341   0.877   3.018
 1711SOL    HW3 6875   0.427   0.895   2.895
 1711SOL    MW4 6876   0.416   0.902   2.981
 1712SOL     OW 6877   0.484   1.168   3.082
 1712SOL    HW2 6878   0.472   1.078   3.052
 1712SOL    HW3 6879   0.401   1.211   3.060
 1712SOL    MW4 6880   0.471   1.162   3.075
 1713SOL     OW 6881   0.695   1.314   3.033
 1713SOL    HW2 6882   0.764   1.258   3.069
 1713SOL    HW3 6883   0.614   1.273   3.062
 1713SOL    MW4 6884   0.693   1.301   3.042
 1714SOL     OW 6885   0.680   1.566   3.152
 1714SOL    HW2 6886   0.664   1.562   3.246
 1714SOL    HW3 6887   0.670   1.475   3.122
 1714SOL    MW4 6888   0.677   1.553   3.160
 1715SOL     OW 6889   0.469   1.708   3.025
 1715SOL    HW2 6890   0.543   1.658   3.058
 1715SOL    HW3 6891   0.392   1.656   3.049
 1715SOL    MW4 6892   0.469   1.695   3.032
 1716SOL     OW 6893   0.443   1.970   3.130
 1716SOL    HW2 6894   0.465   1.888   3.085
 1716SOL    HW3 6895   0.370   2.007   3.080
 1716SOL    MW4 6896   0.436   1.964   3.117
 1717SOL     OW 6897   0.659   2.067   2.996
 1717SOL    HW2 6898   0.738   2.038   3.043
 1717SOL    HW3 6899   0.586   2.036   3.050
 1717SOL    MW4 6900   0.660   2.059   3.009
 1718SOL     OW 6901   0.652   2.327   3.109
 1718SOL    HW2 6902   0.648   2.316   3.204
 1718SOL    HW3 6903   0.672   2.239   3.076
 1718SOL    MW4 6904   0.654   2.314   3.117
 1719SOL     OW 6905   0.424   2.473   3.008
 1719SOL    HW2 6906   0.507   2.431   3.030
 1719SOL    HW3 6907   0.422   2.474   2.912
 1719SOL    MW4 6908   0.434   2.468   2.998
 1720SOL     OW 6909   0.470   2.723   3.090
 1720SOL    HW2 6910   0.550   2.749   3.044
 1720SOL    HW3 6911   0.454   2.633   3.062
 1720SOL    MW4 6912   0.478   2.715   3.080
 1721SOL     OW 6913   0.704   2.836   2.979
 1721SOL    HW2 6914   0.777   2.801   3.030
 1721SOL    HW3 6915   0.688   2.923   3.016
 1721SOL    MW4 6916   0.712   2.843   2.991
 1722SOL     OW 6917   0.696   3.094   3.088
 1722SOL    HW2 6918   0.686   3.072   3.180
 1722SOL    HW3 6919   0.612   3.131   3.063
 1722SOL    MW4 6920   0.684   3.096   3.097
 1723SOL     OW 6921   0.455   3.205   3.006
 1723SOL    HW2 6922   0.431   3.291   3.039
 1723SOL    HW3 6923   0.379   3.150   3.025
 1723SOL    MW4 6924   0.442   3.209   3.013
 1724SOL     OW 6925   0.449   3.469   3.092
 1724SOL    HW2 6926   0.447   3.479   3.187
 1724SOL    HW3 6927   0.382   3.528   3.059
 1724SOL    MW4 6928   0.440   3.478   3.100
 1725SOL     OW 6929   0.660   3.631   3.020
 1725SOL    HW2 6930   0.740   3.595   3.057
 1725SOL    HW3 6931   0.592   3.567   3.042
 1725SOL    MW4 6932   0.661   3.618   3.028
 1726SOL     OW 6933   0.678   3.907   3.100
 1726SOL    HW2 6934   0.694   3.905   3.194
 1726SOL    HW3 6935   0.645   3.820   3.079
 1726SOL    MW4 6936   0.676   3.895   3.110
 1727SOL     OW 6937   0.436   4.030   3.010
 1727SOL    HW2 6938   0.523   4.007   3.042
 1727SOL    HW3 6939   0.437   4.005   2.918
 1727SOL    MW4 6940   0.447   4.024   3.002
 1728SOL     OW 6941   0.456   4.279   3.139
 1728SOL    HW2 6942   0.445   4.205   3.080
 1728SOL    HW3 6943   0.387   4.340   3.114
 1728SOL    MW4 6944   0.445   4.277   3.128
 1729SOL     OW 6945   0.673   4.431   3.033
 1729SOL    HW2 6946   0.599   4.378   3.062
 1729SOL    HW3 6947   0.684   4.410   2.941
 1729SOL    MW4 6948   0.665   4.421   3.025
 1730SOL     OW 6949   1.121   0.015   3.124
 1730SOL    HW2 6950   1.199   0.063   3.097
 1730SOL    HW3 6951   1.049   0.061   3.081
 1730SOL    MW4 6952   1.122   0.028   3.115
 1731SOL     OW 6953   0.902   0.142   3.032
 1731SOL    HW2 6954   0.906   0.229   3.071
 1731SOL    HW3 6955   0.821   0.104   3.066
 1731SOL    MW4 6956   0.892   0.149   3.042
 1732SOL     OW 6957   0.927   0.394   3.099
 1732SOL    HW2 6958   0.925   0.390   3.195
 1732SOL    HW3 6959   1.003   0.450   3.079
 1732SOL    MW4 6960   0.937   0.401   3.109
 1733SOL     OW 6961   1.189   0.549   3.030
 1733SOL    HW2 6962   1.242   0.472   3.051
 1733SOL    HW3 6963   1.201   0.560   2.935
 1733SOL    MW4 6964   1.198   0.540   3.020
 1734SOL     OW 6965   1.126   0.774   3.157
 1734SOL    HW2 6966   1.119   0.764   3.252
 1734SOL    HW3 6967   1.155   0.688   3.126
 1734SOL    MW4 6968   1.129   0.761   3.166
 1735SOL     OW 6969   0.923   0.876   2.989
 1735SOL    HW2 6970   0.996   0.843   3.041
 1735SOL    HW3 6971   0.845   0.845   3.034
 1735SOL    MW4 6972   0.922   0.868   3.002
 1736SOL     OW 6973   0.887   1.137   3.107
 1736SOL    HW2 6974   0.962   1.181   3.069
 1736SOL    HW3 6975   0.886   1.051   3.065
 1736SOL    MW4 6976   0.896   1.131   3.096
 1737SOL     OW 6977   1.099   1.285   2.992
 1737SOL    HW2 6978   1.184   1.251   3.019
 1737SOL    HW3 6979   1.103   1.286   2.897
 1737SOL    MW4 6980   1.111   1.281   2.983
 1738SOL     OW 6981   1.120   1.553   3.066
 1738SOL    HW2 6982   1.206   1.585   3.042
 1738SOL    HW3 6983   1.116   1.464   3.029
 1738SOL    MW4 6984   1.131   1.545   3.058
 1739SOL     OW 6985   0.867   1.717   3.023
 1739SOL    HW2 6986   0.943   1.660   3.036
 1739SOL    HW3 6987   0.794   1.669   3.063
 1739SOL    MW4 6988   0.868   1.703   3.030
 1740SOL     OW 6989   0.891   1.954   3.123
 1740SOL    HW2 6990   0.873   1.947   3.217
 1740SOL    HW3 6991   0.879   1.865   3.089
 1740SOL    MW4 6992   0.887   1.942   3.131
 1741SOL     OW 6993   1.112   2.064   3.024
 1741SOL    HW2 6994   1.030   2.021   3.049
 1741SOL    HW3 6995   1.110   2.062   2.928
 1741SOL    MW4 6996   1.101   2.058   3.015
 1742SOL     OW 6997   1.140   2.314   3.105
 1742SOL    HW2 6998   1.063   2.358   3.069
 1742SOL    HW3 6999   1.140   2.228   3.063
 1742SOL    MW4 7000   1.130   2.308   3.095
 1743SOL     OW 7001   0.902   2.432   3.014
 1743SOL    HW2 7002   0.815   2.412   3.048
 1743SOL    HW3 7003   0.896   2.415   2.920
 1743SOL    MW4 7004   0.890   2.427   3.007
 1744SOL     OW 7005   0.916   2.705   3.112
 1744SOL    HW2 7006   0.905   2.705   3.207
 1744SOL    HW3 7007   0.897   2.615   3.086
 1744SOL    MW4 7008   0.912   2.693   3.121
 1745SOL     OW 7009   1.128   2.831   2.983
 1745SOL    HW2 7010   1.117   2.919   3.019
 1745SOL    HW3 7011   1.066   2.777   3.033
 1745SOL    MW4 7012   1.118   2.835   2.995
 1746SOL     OW 7013   1.094   3.075   3.106
 1746SOL    HW2 7014   1.178   3.113   3.078
 1746SOL    HW3 7015   1.029   3.139   3.078
 1746SOL    MW4 7016   1.097   3.089   3.098
 1747SOL     OW 7017   0.922   3.256   2.997
 1747SOL    HW2 7018   0.848   3.205   3.032
 1747SOL    HW3 7019   0.909   3.255   2.902
 1747SOL    MW4 7020   0.910   3.249   2.989
 1748SOL     OW 7021   0.898   3.503   3.142
 1748SOL    HW2 7022   0.963   3.551   3.092
 1748SOL    HW3 7023   0.908   3.412   3.114
 1748SOL    MW4 7024   0.908   3.497   3.132
 1749SOL     OW 7025   1.111   3.654   2.997
 1749SOL    HW2 7026   1.189   3.608   3.028
 1749SOL    HW3 7027   1.122   3.744   3.027
 1749SOL    MW4 7028   1.122   3.660   3.005
 1750SOL     OW 7029   1.144   3.904   3.110
 1750SOL    HW2 7030   1.120   3.888   3.201
 1750SOL    HW3 7031   1.084   3.974   3.082
 1750SOL    MW4 7032   1.133   3.911   3.118
 1751SOL     OW 7033   0.903   4.045   3.034
 1751SOL    HW2 7034   0.831   3.997   3.075
 1751SOL    HW3 7035   0.905   4.013   2.944
 1751SOL    MW4 7036   0.894   4.034   3.027
 1752SOL     OW 7037   0.913   4.316   3.096
 1752SOL    HW2 7038   0.901   4.224   3.071
 1752SOL    HW3 7039   0.829   4.358   3.078
 1752SOL    MW4 7040   0.900   4.309   3.090
 1753SOL     OW 7041   1.145   4.430   2.990
 1753SOL    HW2 7042   1.070   4.383   3.027
 1753SOL    HW3 7043   1.147   4.513   3.038
 1753SOL    MW4 7044   1.135   4.435   3.001
 1754SOL     OW 7045   1.563   4.624   3.126
 1754SOL    HW2 7046   1.570   4.636   3.221
 1754SOL    HW3 7047   1.485   4.674   3.101
 1754SOL    MW4 7048   1.554   4.632   3.135
 1755SOL     OW 7049   1.355   0.096   3.035
 1755SOL    HW2 7050   1.353   0.185   3.071
 1755SOL    HW3 7051   1.342   0.108   2.941
 1755SOL    MW4 7052   1.353   0.109   3.027
 1756SOL     OW 7053   1.343   0.345   3.133
 1756SOL    HW2 7054   1.344   0.347   3.228
 1756SOL    HW3 7055   1.409   0.409   3.107
 1756SOL    MW4 7056   1.352   0.354   3.142
 1757SOL     OW 7057   1.583   0.468   3.022
 1757SOL    HW2 7058   1.580   0.561   3.044
 1757SOL    HW3 7059   1.579   0.465   2.926
 1757SOL    MW4 7060   1.582   0.480   3.012
 1758SOL     OW 7061   1.580   0.758   3.086
 1758SOL    HW2 7062   1.584   0.746   3.181
 1758SOL    HW3 7063   1.496   0.800   3.071
 1758SOL    MW4 7064   1.569   0.762   3.097
 1759SOL     OW 7065   1.350   0.895   3.037
 1759SOL    HW2 7066   1.332   0.987   3.058
 1759SOL    HW3 7067   1.284   0.846   3.085
 1759SOL    MW4 7068   1.339   0.901   3.046
 1760SOL     OW 7069   1.341   1.161   3.078
 1760SOL    HW2 7070   1.343   1.136   3.171
 1760SOL    HW3 7071   1.427   1.200   3.062
 1760SOL    MW4 7072   1.353   1.163   3.088
 1761SOL     OW 7073   1.592   1.265   3.002
 1761SOL    HW2 7074   1.674   1.227   3.033
 1761SOL    HW3 7075   1.589   1.352   3.040
 1761SOL    MW4 7076   1.602   1.271   3.011
 1762SOL     OW 7077   1.566   1.520   3.117
 1762SOL    HW2 7078   1.646   1.567   3.090
 1762SOL    HW3 7079   1.495   1.568   3.075
 1762SOL    MW4 7080   1.567   1.533   3.108
 1763SOL     OW 7081   1.377   1.678   3.001
 1763SOL    HW2 7082   1.365   1.765   3.039
 1763SOL    HW3 7083   1.388   1.694   2.908
 1763SOL    MW4 7084   1.377   1.691   2.994
 1764SOL     OW 7085   1.357   1.932   3.090
 1764SOL    HW2 7086   1.354   1.935   3.186
 1764SOL    HW3 7087   1.273   1.968   3.063
 1764SOL    MW4 7088   1.345   1.937   3.099
 1765SOL     OW 7089   1.563   2.106   3.018
 1765SOL    HW2 7090   1.503   2.043   3.057
 1765SOL    HW3 7091   1.537   2.109   2.925
 1765SOL    MW4 7092   1.552   2.098   3.011
 1766SOL     OW 7093   1.577   2.355   3.140
 1766SOL    HW2 7094   1.499   2.404   3.115
 1766SOL    HW3 7095   1.570   2.272   3.092
 1766SOL    MW4 7096   1.566   2.350   3.130
 1767SOL     OW 7097   1.359   2.488   3.025
 1767SOL    HW2 7098   1.293   2.429   3.061
 1767SOL    HW3 7099   1.340   2.490   2.931
 1767SOL    MW4 7100   1.348   2.480   3.017
 1768SOL     OW 7101   1.356   2.744   3.114
 1768SOL    HW2 7102   1.359   2.658   3.072
 1768SOL    HW3 7103   1.285   2.790   3.069
 1768SOL    MW4 7104   1.347   2.739   3.102
 1769SOL     OW 7105   1.579   2.859   3.006
 1769SOL    HW2 7106   1.657   2.811   3.034
 1769SOL    HW3 7107   1.507   2.813   3.049
 1769SOL    MW4 7108   1.580   2.847   3.016
 1770SOL     OW 7109   1.526   3.111   3.112
 1770SOL    HW2 7110   1.546   3.109   3.206
 1770SOL    HW3 7111   1.542   3.021   3.083
 1770SOL    MW4 7112   1.531   3.099   3.120
 1771SOL     OW 7113   1.314   3.247   3.002
 1771SOL    HW2 7114   1.381   3.185   3.031
 1771SOL    HW3 7115   1.334   3.262   2.910
 1771SOL    MW4 7116   1.326   3.241   2.994
 1772SOL     OW 7117   1.331   3.517   3.073
 1772SOL    HW2 7118   1.321   3.524   3.168
 1772SOL    HW3 7119   1.319   3.424   3.055
 1772SOL    MW4 7120   1.328   3.506   3.083
 1773SOL     OW 7121   1.558   3.665   3.030
 1773SOL    HW2 7122   1.489   3.607   3.062
 1773SOL    HW3 7123   1.555   3.655   2.935
 1773SOL    MW4 7124   1.549   3.656   3.022
 1774SOL     OW 7125   1.589   3.934   3.118
 1774SOL    HW2 7126   1.672   3.948   3.072
 1774SOL    HW3 7127   1.558   3.850   3.086
 1774SOL    MW4 7128   1.596   3.925   3.108
 1775SOL     OW 7129   1.369   4.046   2.997
 1775SOL    HW2 7130   1.448   4.020   3.044
 1775SOL    HW3 7131   1.298   3.996   3.038
 1775SOL    MW4 7132   1.370   4.036   3.009
 1776SOL     OW 7133   1.321   4.279   3.143
 1776SOL    HW2 7134   1.337   4.195   3.101
 1776SOL    HW3 7135   1.257   4.323   3.087
 1776SOL    MW4 7136   1.315   4.274   3.130
 1777SOL     OW 7137   1.575   4.355   3.017
 1777SOL    HW2 7138   1.496   4.312   3.050
 1777SOL    HW3 7139   1.577   4.440   3.062
 1777SOL    MW4 7140   1.565   4.361   3.027
 1778SOL     OW 7141   2.018   4.622   3.104
 1778SOL    HW2 7142   2.003   4.636   3.198
 1778SOL    HW3 7143   1.949   4.672   3.061
 1778SOL    MW4 7144   2.007   4.630   3.111
 1779SOL     OW 7145   1.778   0.065   3.003
 1779SOL    HW2 7146   1.690   0.039   3.029
 1779SOL    HW3 7147   1.768   0.095   2.912
 1779SOL    MW4 7148   1.765   0.066   2.994
 1780SOL     OW 7149   1.781   0.319   3.131
 1780SOL    HW2 7150   1.761   0.236   3.087
 1780SOL    HW3 7151   1.714   0.379   3.099
 1780SOL    MW4 7152   1.769   0.316   3.121
 1781SOL     OW 7153   1.995   0.434   3.046
 1781SOL    HW2 7154   1.914   0.384   3.057
 1781SOL    HW3 7155   1.999   0.454   2.952
 1781SOL    MW4 7156   1.985   0.430   3.035
 1782SOL     OW 7157   2.024   0.736   3.150
 1782SOL    HW2 7158   1.951   0.784   3.111
 1782SOL    HW3 7159   2.014   0.647   3.117
 1782SOL    MW4 7160   2.013   0.730   3.141
 1783SOL     OW 7161   1.815   0.877   3.013
 1783SOL    HW2 7162   1.728   0.845   3.034
 1783SOL    HW3 7163   1.819   0.876   2.917
 1783SOL    MW4 7164   1.804   0.873   3.003
 1784SOL     OW 7165   1.805   1.151   3.097
 1784SOL    HW2 7166   1.794   1.150   3.192
 1784SOL    HW3 7167   1.799   1.059   3.071
 1784SOL    MW4 7168   1.803   1.139   3.106
 1785SOL     OW 7169   2.029   1.295   3.029
 1785SOL    HW2 7170   2.109   1.247   3.050
 1785SOL    HW3 7171   1.958   1.236   3.053
 1785SOL    MW4 7172   2.030   1.281   3.035
 1786SOL     OW 7173   2.009   1.555   3.102
 1786SOL    HW2 7174   1.987   1.555   3.195
 1786SOL    HW3 7175   2.008   1.462   3.078
 1786SOL    MW4 7176   2.006   1.543   3.111
 1787SOL     OW 7177   1.789   1.693   3.020
 1787SOL    HW2 7178   1.794   1.779   3.062
 1787SOL    HW3 7179   1.865   1.646   3.054
 1787SOL    MW4 7180   1.800   1.698   3.030
 1788SOL     OW 7181   1.800   1.952   3.131
 1788SOL    HW2 7182   1.885   1.979   3.097
 1788SOL    HW3 7183   1.736   2.004   3.083
 1788SOL    MW4 7184   1.803   1.962   3.120
 1789SOL     OW 7185   2.049   2.066   3.016
 1789SOL    HW2 7186   2.116   2.014   3.060
 1789SOL    HW3 7187   2.043   2.146   3.068
 1789SOL    MW4 7188   2.057   2.070   3.029
 1790SOL     OW 7189   2.024   2.332   3.134
 1790SOL    HW2 7190   2.109   2.363   3.103
 1790SOL    HW3 7191   1.960   2.379   3.079
 1790SOL    MW4 7192   2.026   2.342   3.122
 1791SOL     OW 7193   1.808   2.464   3.012
 1791SOL    HW2 7194   1.826   2.557   3.031
 1791SOL    HW3 7195   1.735   2.442   3.070
 1791SOL    MW4 7196   1.801   2.474   3.022
 1792SOL     OW 7197   1.808   2.740   3.105
 1792SOL    HW2 7198   1.803   2.748   3.200
 1792SOL    HW3 7199   1.892   2.778   3.081
 1792SOL    MW4 7200   1.818   2.746   3.114
 1793SOL     OW 7201   2.033   2.875   3.017
 1793SOL    HW2 7202   2.015   2.965   3.044
 1793SOL    HW3 7203   1.996   2.868   2.929
 1793SOL    MW4 7204   2.026   2.886   3.009
 1794SOL     OW 7205   1.999   3.134   3.108
 1794SOL    HW2 7206   1.983   3.105   3.198
 1794SOL    HW3 7207   1.917   3.176   3.082
 1794SOL    MW4 7208   1.986   3.136   3.117
 1795SOL     OW 7209   1.758   3.254   3.037
 1795SOL    HW2 7210   1.683   3.202   3.064
 1795SOL    HW3 7211   1.780   3.221   2.950
 1795SOL    MW4 7212   1.751   3.243   3.029
 1796SOL     OW 7213   1.810   3.521   3.137
 1796SOL    HW2 7214   1.782   3.438   3.098
 1796SOL    HW3 7215   1.733   3.578   3.132
 1796SOL    MW4 7216   1.796   3.518   3.131
 1797SOL     OW 7217   2.041   3.604   3.020
 1797SOL    HW2 7218   2.057   3.692   3.053
 1797SOL    HW3 7219   1.957   3.579   3.057
 1797SOL    MW4 7220   2.032   3.612   3.029
 1798SOL     OW 7221   2.083   3.865   3.096
 1798SOL    HW2 7222   2.083   3.883   3.190
 1798SOL    HW3 7223   1.996   3.891   3.067
 1798SOL    MW4 7224   2.071   3.871   3.105
 1799SOL     OW 7225   1.850   3.972   3.002
 1799SOL    HW2 7226   1.829   4.060   3.031
 1799SOL    HW3 7227   1.844   3.975   2.907
 1799SOL    MW4 7228   1.846   3.984   2.994
 1800SOL     OW 7229   1.823   4.231   3.091
 1800SOL    HW2 7230   1.892   4.295   3.072
 1800SOL    HW3 7231   1.743   4.272   3.056
 1800SOL    MW4 7232   1.821   4.245   3.084
 1801SOL     OW 7233   2.051   4.361   3.011
 1801SOL    HW2 7234   2.020   4.451   3.025
 1801SOL    HW3 7235   2.045   4.348   2.917
 1801SOL    MW4 7236   2.046   4.371   3.001
 1802SOL     OW 7237   2.454   4.663   3.163
 1802SOL    HW2 7238   2.474   4.594   3.100
 1802SOL    HW3 7239   2.375   4.705   3.128
 1802SOL    MW4 7240   2.446   4.659   3.150
 1803SOL     OW 7241   2.238   0.105   3.027
 1803SOL    HW2 7242   2.229   0.191   3.069
 1803SOL    HW3 7243   2.168   0.052   3.065
 1803SOL    MW4 7244   2.227   0.109   3.037
 1804SOL     OW 7245   2.259   0.372   3.109
 1804SOL    HW2 7246   2.256   0.368   3.205
 1804SOL    HW3 7247   2.172   0.404   3.084
 1804SOL    MW4 7248   2.247   0.376   3.118
 1805SOL     OW 7249   2.459   0.557   3.016
 1805SOL    HW2 7250   2.396   0.491   3.045
 1805SOL    HW3 7251   2.460   0.549   2.920
 1805SOL    MW4 7252   2.451   0.548   3.007
 1806SOL     OW 7253   2.487   0.816   3.110
 1806SOL    HW2 7254   2.545   0.866   3.053
 1806SOL    HW3 7255   2.486   0.728   3.072
 1806SOL    MW4 7256   2.495   0.811   3.098
 1807SOL     OW 7257   2.224   0.886   3.048
 1807SOL    HW2 7258   2.310   0.850   3.072
 1807SOL    HW3 7259   2.161   0.833   3.096
 1807SOL    MW4 7260   2.227   0.874   3.057
 1808SOL     OW 7261   2.233   1.152   3.139
 1808SOL    HW2 7262   2.216   1.157   3.233
 1808SOL    HW3 7263   2.236   1.058   3.120
 1808SOL    MW4 7264   2.231   1.140   3.149
 1809SOL     OW 7265   2.463   1.303   3.041
 1809SOL    HW2 7266   2.387   1.262   3.082
 1809SOL    HW3 7267   2.447   1.294   2.947
 1809SOL    MW4 7268   2.451   1.296   3.034
 1810SOL     OW 7269   2.504   1.555   3.168
 1810SOL    HW2 7270   2.430   1.605   3.134
 1810SOL    HW3 7271   2.498   1.470   3.125
 1810SOL    MW4 7272   2.494   1.551   3.158
 1811SOL     OW 7273   2.283   1.651   3.041
 1811SOL    HW2 7274   2.211   1.607   3.086
 1811SOL    HW3 7275   2.256   1.652   2.949
 1811SOL    MW4 7276   2.270   1.645   3.034
 1812SOL     OW 7277   2.245   1.921   3.169
 1812SOL    HW2 7278   2.312   1.981   3.136
 1812SOL    HW3 7279   2.277   1.834   3.146
 1812SOL    MW4 7280   2.258   1.918   3.162
 1813SOL     OW 7281   2.443   2.068   3.068
 1813SOL    HW2 7282   2.522   2.023   3.098
 1813SOL    HW3 7283   2.458   2.084   2.975
 1813SOL    MW4 7284   2.455   2.064   3.060
 1814SOL     OW 7285   2.509   2.344   3.144
 1814SOL    HW2 7286   2.493   2.353   3.238
 1814SOL    HW3 7287   2.497   2.250   3.127
 1814SOL    MW4 7288   2.505   2.333   3.155
 1815SOL     OW 7289   2.264   2.444   3.013
 1815SOL    HW2 7290   2.246   2.530   3.052
 1815SOL    HW3 7291   2.338   2.410   3.063
 1815SOL    MW4 7292   2.272   2.451   3.025
 1816SOL     OW 7293   2.246   2.717   3.133
 1816SOL    HW2 7294   2.319   2.746   3.079
 1816SOL    HW3 7295   2.173   2.774   3.107
 1816SOL    MW4 7296   2.246   2.729   3.123
 1817SOL     OW 7297   2.486   2.808   3.007
 1817SOL    HW2 7298   2.479   2.896   3.044
 1817SOL    HW3 7299   2.450   2.817   2.919
 1817SOL    MW4 7300   2.480   2.821   3.000
 1818SOL     OW 7301   2.473   3.087   3.123
 1818SOL    HW2 7302   2.554   3.128   3.093
 1818SOL    HW3 7303   2.406   3.121   3.063
 1818SOL    MW4 7304   2.475   3.097   3.111
 1819SOL     OW 7305   2.246   3.200   2.999
 1819SOL    HW2 7306   2.267   3.271   3.060
 1819SOL    HW3 7307   2.164   3.163   3.033
 1819SOL    MW4 7308   2.238   3.205   3.012
 1820SOL     OW 7309   2.285   3.465   3.084
 1820SOL    HW2 7310   2.367   3.501   3.052
 1820SOL    HW3 7311   2.218   3.524   3.049
 1820SOL    MW4 7312   2.287   3.478   3.075
 1821SOL     OW 7313   2.519   3.611   2.960
 1821SOL    HW2 7314   2.579   3.556   3.010
 1821SOL    HW3 7315   2.521   3.696   3.004
 1821SOL    MW4 7316   2.527   3.615   2.972
 1822SOL     OW 7317   2.519   3.848   3.114
 1822SOL    HW2 7318   2.518   3.860   3.209
 1822SOL    HW3 7319   2.584   3.911   3.082
 1822SOL    MW4 7320   2.528   3.858   3.122
 1823SOL     OW 7321   2.300   4.014   3.017
 1823SOL    HW2 7322   2.362   3.954   3.060
 1823SOL    HW3 7323   2.214   3.974   3.032
 1823SOL    MW4 7324   2.297   4.001   3.025
 1824SOL     OW 7325   2.281   4.278   3.136
 1824SOL    HW2 7326   2.312   4.191   3.108
 1824SOL    HW3 7327   2.197   4.288   3.092
 1824SOL    MW4 7328   2.274   4.268   3.126
 1825SOL     OW 7329   2.498   4.436   3.005
 1825SOL    HW2 7330   2.420   4.394   3.042
 1825SOL    HW3 7331   2.501   4.406   2.914
 1825SOL    MW4 7332   2.488   4.427   2.998
 1826SOL     OW 7333   2.900   4.658   3.067
 1826SOL    HW2 7334   2.989   4.687   3.048
 1826SOL    HW3 7335   2.900   4.565   3.045
 1826SOL    MW4 7336   2.912   4.649   3.061
 1827SOL     OW 7337   2.680   0.108   2.983
 1827SOL    HW2 7338   2.756   0.058   3.012
 1827SOL    HW3 7339   2.607   0.072   3.033
 1827SOL    MW4 7340   2.681   0.097   2.993
 1828SOL     OW 7341   2.677   0.361   3.095
 1828SOL    HW2 7342   2.675   0.273   3.057
 1828SOL    HW3 7343   2.592   0.399   3.070
 1828SOL    MW4 7344   2.665   0.354   3.087
 1829SOL     OW 7345   2.916   0.483   3.026
 1829SOL    HW2 7346   2.838   0.433   3.047
 1829SOL    HW3 7347   2.924   0.478   2.931
 1829SOL    MW4 7348   2.907   0.476   3.016
 1830SOL     OW 7349   2.864   0.747   3.098
 1830SOL    HW2 7350   2.890   0.748   3.190
 1830SOL    HW3 7351   2.886   0.659   3.067
 1830SOL    MW4 7352   2.870   0.736   3.106
 1831SOL     OW 7353   2.687   0.941   2.987
 1831SOL    HW2 7354   2.683   1.026   3.031
 1831SOL    HW3 7355   2.741   0.887   3.044
 1831SOL    MW4 7356   2.694   0.945   3.000
 1832SOL     OW 7357   2.699   1.184   3.122
 1832SOL    HW2 7358   2.773   1.235   3.091
 1832SOL    HW3 7359   2.622   1.233   3.091
 1832SOL    MW4 7360   2.698   1.197   3.114
 1833SOL     OW 7361   2.909   1.337   3.028
 1833SOL    HW2 7362   2.982   1.293   3.073
 1833SOL    HW3 7363   2.911   1.426   3.063
 1833SOL    MW4 7364   2.919   1.343   3.039
 1834SOL     OW 7365   2.910   1.580   3.149
 1834SOL    HW2 7366   2.919   1.580   3.245
 1834SOL    HW3 7367   2.993   1.615   3.117
 1834SOL    MW4 7368   2.922   1.585   3.158
 1835SOL     OW 7369   2.689   1.722   3.044
 1835SOL    HW2 7370   2.775   1.686   3.064
 1835SOL    HW3 7371   2.629   1.669   3.097
 1835SOL    MW4 7372   2.692   1.710   3.054
 1836SOL     OW 7373   2.677   1.963   3.159
 1836SOL    HW2 7374   2.743   2.023   3.125
 1836SOL    HW3 7375   2.678   1.889   3.099
 1836SOL    MW4 7376   2.686   1.962   3.147
 1837SOL     OW 7377   2.884   2.098   3.057
 1837SOL    HW2 7378   2.913   2.186   3.084
 1837SOL    HW3 7379   2.876   2.104   2.961
 1837SOL    MW4 7380   2.887   2.111   3.048
 1838SOL     OW 7381   2.955   2.371   3.176
 1838SOL    HW2 7382   3.026   2.398   3.117
 1838SOL    HW3 7383   2.878   2.416   3.143
 1838SOL    MW4 7384   2.954   2.380   3.164
 1839SOL     OW 7385   2.735   2.478   3.053
 1839SOL    HW2 7386   2.738   2.567   3.090
 1839SOL    HW3 7387   2.651   2.443   3.083
 1839SOL    MW4 7388   2.724   2.485   3.062
 1840SOL     OW 7389   2.734   2.754   3.103
 1840SOL    HW2 7390   2.715   2.752   3.196
 1840SOL    HW3 7391   2.650   2.767   3.060
 1840SOL    MW4 7392   2.721   2.755   3.109
 1841SOL     OW 7393   2.952   2.853   2.955
 1841SOL    HW2 7394   3.036   2.840   2.999
 1841SOL    HW3 7395   2.888   2.810   3.012
 1841SOL    MW4 7396   2.954   2.846   2.969
 1842SOL     OW 7397   2.929   3.084   3.104
 1842SOL    HW2 7398   2.851   3.130   3.073
 1842SOL    HW3 7399   2.935   3.007   3.047
 1842SOL    MW4 7400   2.919   3.080   3.092
 1843SOL     OW 7401   2.703   3.199   2.992
 1843SOL    HW2 7402   2.701   3.284   3.037
 1843SOL    HW3 7403   2.701   3.221   2.899
 1843SOL    MW4 7404   2.702   3.213   2.986
 1844SOL     OW 7405   2.684   3.465   3.110
 1844SOL    HW2 7406   2.680   3.468   3.205
 1844SOL    HW3 7407   2.769   3.503   3.088
 1844SOL    MW4 7408   2.695   3.470   3.120
 1845SOL     OW 7409   2.920   3.599   3.048
 1845SOL    HW2 7410   2.993   3.552   3.088
 1845SOL    HW3 7411   2.921   3.685   3.089
 1845SOL    MW4 7412   2.930   3.604   3.059
 1846SOL     OW 7413   2.960   3.889   3.075
 1846SOL    HW2 7414   2.962   3.878   3.170
 1846SOL    HW3 7415   2.873   3.924   3.057
 1846SOL    MW4 7416   2.949   3.892   3.085
 1847SOL     OW 7417   2.702   4.019   3.019
 1847SOL    HW2 7418   2.691   4.109   3.049
 1847SOL    HW3 7419   2.716   4.026   2.924
 1847SOL    MW4 7420   2.703   4.032   3.010
 1848SOL     OW 7421   2.689   4.287   3.104
 1848SOL    HW2 7422   2.674   4.277   3.198
 1848SOL    HW3 7423   2.622   4.349   3.076
 1848SOL    MW4 7424   2.678   4.294   3.113
 1849SOL     OW 7425   2.933   4.391   3.023
 1849SOL    HW2 7426   3.007   4.342   3.059
 1849SOL    HW3 7427   2.856   4.351   3.063
 1849SOL    MW4 7428   2.933   4.379   3.033
 1850SOL     OW 7429   3.376   4.620   3.124
 1850SOL    HW2 7430   3.450   4.659   3.076
 1850SOL    HW3 7431   3.375   4.529   3.095
 1850SOL    MW4 7432   3.386   4.613   3.114
 1851SOL     OW 7433   3.163   0.094   3.038
 1851SOL    HW2 7434   3.158   0.179   3.081
 1851SOL    HW3 7435   3.232   0.047   3.086
 1851SOL    MW4 7436   3.171   0.099   3.050
 1852SOL     OW 7437   3.138   0.358   3.130
 1852SOL    HW2 7438   3.214   0.413   3.109
 1852SOL    HW3 7439   3.062   0.410   3.103
 1852SOL    MW4 7440   3.138   0.372   3.124
 1853SOL     OW 7441   3.328   0.530   3.059
 1853SOL    HW2 7442   3.407   0.478   3.077
 1853SOL    HW3 7443   3.331   0.545   2.965
 1853SOL    MW4 7444   3.339   0.525   3.049
 1854SOL     OW 7445   3.308   0.809   3.107
 1854SOL    HW2 7446   3.327   0.816   3.201
 1854SOL    HW3 7447   3.324   0.717   3.087
 1854SOL    MW4 7448   3.313   0.798   3.117
 1855SOL     OW 7449   3.078   0.918   3.029
 1855SOL    HW2 7450   3.150   0.867   3.065
 1855SOL    HW3 7451   3.000   0.867   3.048
 1855SOL    MW4 7452   3.077   0.905   3.036
 1856SOL     OW 7453   3.112   1.183   3.120
 1856SOL    HW2 7454   3.194   1.207   3.075
 1856SOL    HW3 7455   3.098   1.092   3.095
 1856SOL    MW4 7456   3.121   1.174   3.110
 1857SOL     OW 7457   3.329   1.333   3.024
 1857SOL    HW2 7458   3.416   1.302   3.052
 1857SOL    HW3 7459   3.324   1.423   3.056
 1857SOL    MW4 7460   3.340   1.341   3.032
 1858SOL     OW 7461   3.378   1.577   3.139
 1858SOL    HW2 7462   3.393   1.559   3.232
 1858SOL    HW3 7463   3.461   1.613   3.108
 1858SOL    MW4 7464   3.391   1.579   3.147
 1859SOL     OW 7465   3.144   1.699   3.064
 1859SOL    HW2 7466   3.230   1.664   3.087
 1859SOL    HW3 7467   3.139   1.691   2.969
 1859SOL    MW4 7468   3.155   1.693   3.054
 1860SOL     OW 7469   3.128   1.994   3.147
 1860SOL    HW2 7470   3.119   1.899   3.133
 1860SOL    HW3 7471   3.046   2.031   3.114
 1860SOL    MW4 7472   3.116   1.986   3.141
 1861SOL     OW 7473   3.401   2.067   3.048
 1861SOL    HW2 7474   3.474   2.021   3.090
 1861SOL    HW3 7475   3.325   2.043   3.101
 1861SOL    MW4 7476   3.401   2.057   3.061
 1862SOL     OW 7477   3.375   2.343   3.133
 1862SOL    HW2 7478   3.384   2.343   3.229
 1862SOL    HW3 7479   3.380   2.250   3.109
 1862SOL    MW4 7480   3.377   2.331   3.143
 1863SOL     OW 7481   3.153   2.491   3.027
 1863SOL    HW2 7482   3.219   2.424   3.045
 1863SOL    HW3 7483   3.128   2.476   2.935
 1863SOL    MW4 7484   3.158   2.480   3.017
 1864SOL     OW 7485   3.152   2.750   3.134
 1864SOL    HW2 7486   3.163   2.750   3.229
 1864SOL    HW3 7487   3.139   2.658   3.111
 1864SOL    MW4 7488   3.152   2.738   3.144
 1865SOL     OW 7489   3.372   2.864   3.022
 1865SOL    HW2 7490   3.371   2.955   3.054
 1865SOL    HW3 7491   3.307   2.819   3.076
 1865SOL    MW4 7492   3.364   2.870   3.034
 1866SOL     OW 7493   3.381   3.109   3.132
 1866SOL    HW2 7494   3.375   3.102   3.227
 1866SOL    HW3 7495   3.301   3.156   3.107
 1866SOL    MW4 7496   3.369   3.114   3.141
 1867SOL     OW 7497   3.134   3.233   3.017
 1867SOL    HW2 7498   3.052   3.198   3.051
 1867SOL    HW3 7499   3.128   3.223   2.922
 1867SOL    MW4 7500   3.123   3.227   3.009
 1868SOL     OW 7501   3.164   3.473   3.148
 1868SOL    HW2 7502   3.230   3.515   3.093
 1868SOL    HW3 7503   3.149   3.388   3.107
 1868SOL    MW4 7504   3.171   3.468   3.135
 1869SOL     OW 7505   3.370   3.619   2.975
 1869SOL    HW2 7506   3.436   3.582   3.034
 1869SOL    HW3 7507   3.359   3.709   3.006
 1869SOL    MW4 7508   3.377   3.626   2.987
 1870SOL     OW 7509   3.372   3.865   3.073
 1870SOL    HW2 7510   3.388   3.878   3.166
 1870SOL    HW3 7511   3.294   3.917   3.054
 1870SOL    MW4 7512   3.364   3.873   3.083
 1871SOL     OW 7513   3.164   4.010   2.969
 1871SOL    HW2 7514   3.087   3.966   3.005
 1871SOL    HW3 7515   3.152   4.005   2.875
 1871SOL    MW4 7516   3.152   4.003   2.962
 1872SOL     OW 7517   3.166   4.246   3.102
 1872SOL    HW2 7518   3.160   4.210   3.191
 1872SOL    HW3 7519   3.170   4.168   3.046
 1872SOL    MW4 7520   3.166   4.231   3.106
 1873SOL     OW 7521   3.373   4.371   3.002
 1873SOL    HW2 7522   3.449   4.326   3.039
 1873SOL    HW3 7523   3.298   4.318   3.028
 1873SOL    MW4 7524   3.373   4.358   3.010
 1874SOL     OW 7525   3.812   4.623   3.128
 1874SOL    HW2 7526   3.822   4.529   3.111
 1874SOL    HW3 7527   3.732   4.647   3.081
 1874SOL    MW4 7528   3.802   4.613   3.119
 1875SOL     OW 7529   3.605   0.099   2.973
 1875SOL    HW2 7530   3.585   0.184   3.012
 1875SOL    HW3 7531   3.608   0.116   2.879
 1875SOL    MW4 7532   3.603   0.112   2.966
 1876SOL     OW 7533   3.550   0.364   3.074
 1876SOL    HW2 7534   3.567   0.362   3.168
 1876SOL    HW3 7535   3.623   0.415   3.037
 1876SOL    MW4 7536   3.562   0.371   3.081
 1877SOL     OW 7537   3.828   0.476   3.010
 1877SOL    HW2 7538   3.897   0.428   3.056
 1877SOL    HW3 7539   3.819   0.557   3.059
 1877SOL    MW4 7540   3.836   0.480   3.022
 1878SOL     OW 7541   3.728   0.721   3.128
 1878SOL    HW2 7542   3.722   0.707   3.222
 1878SOL    HW3 7543   3.815   0.758   3.114
 1878SOL    MW4 7544   3.739   0.724   3.138
 1879SOL     OW 7545   3.547   0.902   3.018
 1879SOL    HW2 7546   3.607   0.840   3.059
 1879SOL    HW3 7547   3.460   0.871   3.042
 1879SOL    MW4 7548   3.543   0.890   3.027
 1880SOL     OW 7549   3.556   1.188   3.118
 1880SOL    HW2 7550   3.650   1.208   3.107
 1880SOL    HW3 7551   3.548   1.097   3.091
 1880SOL    MW4 7552   3.568   1.179   3.113
 1881SOL     OW 7553   3.809   1.276   3.055
 1881SOL    HW2 7554   3.822   1.369   3.073
 1881SOL    HW3 7555   3.810   1.271   2.959
 1881SOL    MW4 7556   3.811   1.288   3.044
 1882SOL     OW 7557   3.817   1.551   3.125
 1882SOL    HW2 7558   3.797   1.553   3.218
 1882SOL    HW3 7559   3.746   1.600   3.083
 1882SOL    MW4 7560   3.805   1.558   3.132
 1883SOL     OW 7561   3.607   1.711   3.035
 1883SOL    HW2 7562   3.601   1.795   3.080
 1883SOL    HW3 7563   3.634   1.733   2.946
 1883SOL    MW4 7564   3.610   1.725   3.029
 1884SOL     OW 7565   3.612   1.950   3.177
 1884SOL    HW2 7566   3.591   1.956   3.271
 1884SOL    HW3 7567   3.699   1.989   3.170
 1884SOL    MW4 7568   3.621   1.956   3.189
 1885SOL     OW 7569   3.855   2.098   3.069
 1885SOL    HW2 7570   3.843   2.191   3.088
 1885SOL    HW3 7571   3.844   2.091   2.975
 1885SOL    MW4 7572   3.852   2.109   3.059
 1886SOL     OW 7573   3.817   2.362   3.107
 1886SOL    HW2 7574   3.797   2.351   3.200
 1886SOL    HW3 7575   3.735   2.391   3.068
 1886SOL    MW4 7576   3.804   2.365   3.114
 1887SOL     OW 7577   3.583   2.480   3.003
 1887SOL    HW2 7578   3.569   2.567   3.041
 1887SOL    HW3 7579   3.511   2.427   3.039
 1887SOL    MW4 7580   3.571   2.484   3.013
 1888SOL     OW 7581   3.575   2.726   3.124
 1888SOL    HW2 7582   3.660   2.755   3.091
 1888SOL    HW3 7583   3.511   2.779   3.077
 1888SOL    MW4 7584   3.578   2.737   3.114
 1889SOL     OW 7585   3.803   2.857   3.015
 1889SOL    HW2 7586   3.812   2.944   3.055
 1889SOL    HW3 7587   3.817   2.871   2.922
 1889SOL    MW4 7588   3.806   2.870   3.008
 1890SOL     OW 7589   3.819   3.116   3.107
 1890SOL    HW2 7590   3.893   3.164   3.071
 1890SOL    HW3 7591   3.742   3.166   3.079
 1890SOL    MW4 7592   3.819   3.129   3.098
 1891SOL     OW 7593   3.589   3.238   3.018
 1891SOL    HW2 7594   3.521   3.184   3.057
 1891SOL    HW3 7595   3.580   3.223   2.924
 1891SOL    MW4 7596   3.579   3.229   3.010
 1892SOL     OW 7597   3.580   3.504   3.125
 1892SOL    HW2 7598   3.651   3.538   3.072
 1892SOL    HW3 7599   3.579   3.410   3.107
 1892SOL    MW4 7600   3.589   3.496   3.116
 1893SOL     OW 7601   3.811   3.599   3.002
 1893SOL    HW2 7602   3.805   3.692   3.025
 1893SOL    HW3 7603   3.814   3.599   2.906
 1893SOL    MW4 7604   3.811   3.611   2.992
 1894SOL     OW 7605   3.809   3.867   3.064
 1894SOL    HW2 7606   3.817   3.883   3.158
 1894SOL    HW3 7607   3.731   3.916   3.038
 1894SOL    MW4 7608   3.799   3.875   3.073
 1895SOL     OW 7609   3.587   3.995   2.997
 1895SOL    HW2 7610   3.509   3.948   3.025
 1895SOL    HW3 7611   3.585   3.991   2.902
 1895SOL    MW4 7612   3.577   3.989   2.988
 1896SOL     OW 7613   3.592   4.229   3.142
 1896SOL    HW2 7614   3.667   4.281   3.112
 1896SOL    HW3 7615   3.599   4.147   3.094
 1896SOL    MW4 7616   3.603   4.225   3.132
 1897SOL     OW 7617   3.810   4.364   3.042
 1897SOL    HW2 7618   3.889   4.321   3.076
 1897SOL    HW3 7619   3.816   4.355   2.947
 1897SOL    MW4 7620   3.821   4.357   3.034
 1898SOL     OW 7621   4.236   4.628   3.107
 1898SOL    HW2 7622   4.252   4.628   3.202
 1898SOL    HW3 7623   4.245   4.536   3.081
 1898SOL    MW4 7624   4.239   4.616   3.116
 1899SOL     OW 7625   4.019   0.120   3.038
 1899SOL    HW2 7626   4.092   0.062   3.057
 1899SOL    HW3 7627   3.941   0.069   3.061
 1899SOL    MW4 7628   4.018   0.106   3.043
 1900SOL     OW 7629   4.064   0.363   3.159
 1900SOL    HW2 7630   4.147   0.406   3.137
 1900SOL    HW3 7631   4.069   0.277   3.117
 1900SOL    MW4 7632   4.076   0.357   3.151
 1901SOL     OW 7633   4.272   0.503   3.041
 1901SOL    HW2 7634   4.261   0.593   3.073
 1901SOL    HW3 7635   4.268   0.511   2.946
 1901SOL    MW4 7636   4.270   0.516   3.033
 1902SOL     OW 7637   4.238   0.755   3.158
 1902SOL    HW2 7638   4.146   0.780   3.143
 1902SOL    HW3 7639   4.288   0.814   3.101
 1902SOL    MW4 7640   4.232   0.766   3.148
 1903SOL     OW 7641   3.980   0.825   3.089
 1903SOL    HW2 7642   3.997   0.917   3.112
 1903SOL    HW3 7643   3.996   0.821   2.995
 1903SOL    MW4 7644   3.985   0.837   3.080
 1904SOL     OW 7645   4.000   1.095   3.136
 1904SOL    HW2 7646   3.991   1.119   3.229
 1904SOL    HW3 7647   3.928   1.141   3.093
 1904SOL    MW4 7648   3.989   1.104   3.143
 1905SOL     OW 7649   4.213   1.264   3.076
 1905SOL    HW2 7650   4.141   1.203   3.089
 1905SOL    HW3 7651   4.221   1.272   2.980
 1905SOL    MW4 7652   4.205   1.257   3.065
 1906SOL     OW 7653   4.231   1.525   3.136
 1906SOL    HW2 7654   4.167   1.580   3.091
 1906SOL    HW3 7655   4.205   1.435   3.115
 1906SOL    MW4 7656   4.219   1.520   3.127
 1907SOL     OW 7657   4.048   1.686   3.031
 1907SOL    HW2 7658   4.042   1.772   3.071
 1907SOL    HW3 7659   3.971   1.639   3.063
 1907SOL    MW4 7660   4.037   1.691   3.040
 1908SOL     OW 7661   4.047   1.926   3.169
 1908SOL    HW2 7662   4.119   1.973   3.129
 1908SOL    HW3 7663   3.972   1.985   3.162
 1908SOL    MW4 7664   4.046   1.940   3.163
 1909SOL     OW 7665   4.270   2.037   3.041
 1909SOL    HW2 7666   4.280   2.127   3.072
 1909SOL    HW3 7667   4.248   2.045   2.949
 1909SOL    MW4 7668   4.269   2.050   3.033
 1910SOL     OW 7669   4.262   2.307   3.128
 1910SOL    HW2 7670   4.181   2.340   3.089
 1910SOL    HW3 7671   4.332   2.358   3.087
 1910SOL    MW4 7672   4.260   2.318   3.117
 1911SOL     OW 7673   4.057   2.457   3.009
 1911SOL    HW2 7674   4.057   2.549   3.036
 1911SOL    HW3 7675   3.970   2.425   3.035
 1911SOL    MW4 7676   4.045   2.465   3.016
 1912SOL     OW 7677   4.039   2.718   3.092
 1912SOL    HW2 7678   4.045   2.713   3.187
 1912SOL    HW3 7679   3.968   2.780   3.074
 1912SOL    MW4 7680   4.031   2.725   3.102
 1913SOL     OW 7681   4.265   2.853   3.012
 1913SOL    HW2 7682   4.193   2.798   3.041
 1913SOL    HW3 7683   4.344   2.801   3.028
 1913SOL    MW4 7684   4.266   2.839   3.018
 1914SOL     OW 7685   4.279   3.137   3.089
 1914SOL    HW2 7686   4.201   3.176   3.049
 1914SOL    HW3 7687   4.278   3.046   3.061
 1914SOL    MW4 7688   4.268   3.130   3.080
 1915SOL     OW 7689   4.039   3.252   2.973
 1915SOL    HW2 7690   4.050   3.344   2.994
 1915SOL    HW3 7691   4.057   3.247   2.879
 1915SOL    MW4 7692   4.043   3.263   2.963
 1916SOL     OW 7693   4.055   3.513   3.079
 1916SOL    HW2 7694   4.047   3.494   3.172
 1916SOL    HW3 7695   3.970   3.549   3.053
 1916SOL    MW4 7696   4.043   3.515   3.088
 1917SOL     OW 7697   4.300   3.644   3.006
 1917SOL    HW2 7698   4.286   3.733   3.038
 1917SOL    HW3 7699   4.223   3.596   3.036
 1917SOL    MW4 7700   4.288   3.650   3.014
 1918SOL     OW 7701   4.258   3.888   3.107
 1918SOL    HW2 7702   4.173   3.910   3.068
 1918SOL    HW3 7703   4.321   3.941   3.060
 1918SOL    MW4 7704   4.255   3.898   3.096
 1919SOL     OW 7705   4.043   3.985   2.957
 1919SOL    HW2 7706   4.045   4.068   3.005
 1919SOL    HW3 7707   3.963   3.942   2.987
 1919SOL    MW4 7708   4.033   3.990   2.967
 1920SOL     OW 7709   4.047   4.242   3.090
 1920SOL    HW2 7710   4.040   4.243   3.185
 1920SOL    HW3 7711   4.125   4.294   3.072
 1920SOL    MW4 7712   4.057   4.249   3.100
 1921SOL     OW 7713   4.267   4.371   3.002
 1921SOL    HW2 7714   4.351   4.338   3.035
 1921SOL    HW3 7715   4.284   4.389   2.909
 1921SOL    MW4 7716   4.280   4.369   2.994
 1922SOL     OW 7717   0.200   0.020   3.377
 1922SOL    HW2 7718   0.268   0.068   3.425
 1922SOL    HW3 7719   0.209  -0.071   3.408
 1922SOL    MW4 7720   0.211   0.014   3.387
 1923SOL     OW 7721   4.470   0.140   3.505
 1923SOL    HW2 7722   4.469   0.230   3.472
 1923SOL    HW3 7723   4.553   0.103   3.471
 1923SOL    MW4 7724   4.481   0.147   3.496
 1924SOL     OW 7725   4.463   0.404   3.379
 1924SOL    HW2 7726   4.385   0.441   3.422
 1924SOL    HW3 7727   4.536   0.454   3.416
 1924SOL    MW4 7728   4.463   0.416   3.390
 1925SOL     OW 7729   0.209   0.505   3.486
 1925SOL    HW2 7730   0.286   0.467   3.443
 1925SOL    HW3 7731   0.210   0.597   3.459
 1925SOL    MW4 7732   0.219   0.512   3.477
 1926SOL     OW 7733   0.177   0.750   3.351
 1926SOL    HW2 7734   0.243   0.809   3.387
 1926SOL    HW3 7735   0.094   0.785   3.383
 1926SOL    MW4 7736   0.175   0.763   3.360
 1927SOL     OW 7737   4.468   0.890   3.499
 1927SOL    HW2 7738   4.484   0.905   3.592
 1927SOL    HW3 7739   4.480   0.975   3.458
 1927SOL    MW4 7740   4.471   0.903   3.506
 1928SOL     OW 7741   4.475   1.165   3.412
 1928SOL    HW2 7742   4.546   1.222   3.444
 1928SOL    HW3 7743   4.488   1.160   3.318
 1928SOL    MW4 7744   4.486   1.172   3.404
 1929SOL     OW 7745   0.228   1.310   3.485
 1929SOL    HW2 7746   0.292   1.253   3.442
 1929SOL    HW3 7747   0.224   1.388   3.430
 1929SOL    MW4 7748   0.236   1.313   3.472
 1930SOL     OW 7749   0.208   1.563   3.378
 1930SOL    HW2 7750   0.277   1.627   3.396
 1930SOL    HW3 7751   0.209   1.553   3.283
 1930SOL    MW4 7752   0.217   1.570   3.368
 1931SOL     OW 7753   4.470   1.648   3.520
 1931SOL    HW2 7754   4.396   1.600   3.483
 1931SOL    HW3 7755   4.548   1.607   3.481
 1931SOL    MW4 7756   4.471   1.636   3.510
 1932SOL     OW 7757   4.470   1.906   3.355
 1932SOL    HW2 7758   4.477   1.820   3.396
 1932SOL    HW3 7759   4.506   1.893   3.267
 1932SOL    MW4 7760   4.476   1.893   3.349
 1933SOL     OW 7761   0.204   2.073   3.471
 1933SOL    HW2 7762   0.192   2.080   3.566
 1933SOL    HW3 7763   0.128   2.023   3.441
 1933SOL    MW4 7764   0.192   2.067   3.479
 1934SOL     OW 7765   0.200   2.335   3.383
 1934SOL    HW2 7766   0.119   2.371   3.418
 1934SOL    HW3 7767   0.210   2.251   3.428
 1934SOL    MW4 7768   0.191   2.329   3.394
 1935SOL     OW 7769   4.458   2.466   3.510
 1935SOL    HW2 7770   4.482   2.466   3.603
 1935SOL    HW3 7771   4.407   2.386   3.498
 1935SOL    MW4 7772   4.455   2.455   3.520
 1936SOL     OW 7773   0.010   2.723   3.365
 1936SOL    HW2 7774   0.080   2.779   3.399
 1936SOL    HW3 7775  -0.001   2.654   3.431
 1936SOL    MW4 7776   0.017   2.721   3.378
 1937SOL     OW 7777   0.236   2.858   3.484
 1937SOL    HW2 7778   0.313   2.818   3.443
 1937SOL    HW3 7779   0.241   2.950   3.459
 1937SOL    MW4 7780   0.247   2.865   3.475
 1938SOL     OW 7781   0.219   3.112   3.367
 1938SOL    HW2 7782   0.140   3.144   3.411
 1938SOL    HW3 7783   0.202   3.124   3.274
 1938SOL    MW4 7784   0.207   3.118   3.361
 1939SOL     OW 7785   4.483   3.244   3.484
 1939SOL    HW2 7786   4.403   3.224   3.434
 1939SOL    HW3 7787   4.500   3.337   3.466
 1939SOL    MW4 7788   4.475   3.254   3.475
 1940SOL     OW 7789   0.044   3.503   3.394
 1940SOL    HW2 7790  -0.043   3.540   3.407
 1940SOL    HW3 7791   0.055   3.499   3.298
 1940SOL    MW4 7792   0.034   3.507   3.383
 1941SOL     OW 7793   0.263   3.637   3.516
 1941SOL    HW2 7794   0.236   3.625   3.607
 1941SOL    HW3 7795   0.198   3.590   3.465
 1941SOL    MW4 7796   0.251   3.629   3.521
 1942SOL     OW 7797   0.250   3.876   3.365
 1942SOL    HW2 7798   0.180   3.930   3.402
 1942SOL    HW3 7799   0.246   3.794   3.415
 1942SOL    MW4 7800   0.241   3.872   3.377
 1943SOL     OW 7801   0.004   3.995   3.435
 1943SOL    HW2 7802  -0.011   3.978   3.528
 1943SOL    HW3 7803   0.004   4.090   3.428
 1943SOL    MW4 7804   0.002   4.005   3.447
 1944SOL     OW 7805   0.005   4.258   3.367
 1944SOL    HW2 7806  -0.067   4.305   3.411
 1944SOL    HW3 7807   0.084   4.306   3.392
 1944SOL    MW4 7808   0.006   4.271   3.376
 1945SOL     OW 7809   0.212   4.418   3.474
 1945SOL    HW2 7810   0.197   4.401   3.567
 1945SOL    HW3 7811   0.297   4.377   3.455
 1945SOL    MW4 7812   0.221   4.410   3.484
 1946SOL     OW 7813   0.611   4.648   3.398
 1946SOL    HW2 7814   0.694   4.675   3.436
 1946SOL    HW3 7815   0.615   4.678   3.307
 1946SOL    MW4 7816   0.622   4.655   3.391
 1947SOL     OW 7817   0.417   0.144   3.497
 1947SOL    HW2 7818   0.406   0.141   3.592
 1947SOL    HW3 7819   0.485   0.079   3.480
 1947SOL    MW4 7820   0.424   0.135   3.508
 1948SOL     OW 7821   0.453   0.390   3.424
 1948SOL    HW2 7822   0.542   0.421   3.435
 1948SOL    HW3 7823   0.456   0.297   3.449
 1948SOL    MW4 7824   0.465   0.382   3.429
 1949SOL     OW 7825   0.698   0.509   3.480
 1949SOL    HW2 7826   0.688   0.497   3.575
 1949SOL    HW3 7827   0.774   0.455   3.457
 1949SOL    MW4 7828   0.707   0.500   3.490
 1950SOL     OW 7829   0.648   0.792   3.397
 1950SOL    HW2 7830   0.563   0.819   3.431
 1950SOL    HW3 7831   0.655   0.700   3.421
 1950SOL    MW4 7832   0.638   0.783   3.405
 1951SOL     OW 7833   0.400   0.870   3.467
 1951SOL    HW2 7834   0.424   0.862   3.559
 1951SOL    HW3 7835   0.403   0.964   3.449
 1951SOL    MW4 7836   0.403   0.881   3.477
 1952SOL     OW 7837   0.432   1.152   3.352
 1952SOL    HW2 7838   0.505   1.178   3.409
 1952SOL    HW3 7839   0.468   1.156   3.264
 1952SOL    MW4 7840   0.446   1.156   3.348
 1953SOL     OW 7841   0.641   1.265   3.503
 1953SOL    HW2 7842   0.726   1.229   3.475
 1953SOL    HW3 7843   0.645   1.357   3.476
 1953SOL    MW4 7844   0.653   1.273   3.495
 1954SOL     OW 7845   0.632   1.521   3.421
 1954SOL    HW2 7846   0.712   1.552   3.464
 1954SOL    HW3 7847   0.562   1.575   3.457
 1954SOL    MW4 7848   0.634   1.532   3.431
 1955SOL     OW 7849   0.430   1.689   3.511
 1955SOL    HW2 7850   0.412   1.703   3.604
 1955SOL    HW3 7851   0.452   1.775   3.477
 1955SOL    MW4 7852   0.430   1.702   3.519
 1956SOL     OW 7853   0.438   1.947   3.410
 1956SOL    HW2 7854   0.351   1.981   3.426
 1956SOL    HW3 7855   0.451   1.957   3.316
 1956SOL    MW4 7856   0.429   1.953   3.400
 1957SOL     OW 7857   0.661   2.055   3.540
 1957SOL    HW2 7858   0.652   2.068   3.635
 1957SOL    HW3 7859   0.577   2.017   3.513
 1957SOL    MW4 7860   0.649   2.052   3.549
 1958SOL     OW 7861   0.644   2.287   3.393
 1958SOL    HW2 7862   0.717   2.340   3.427
 1958SOL    HW3 7863   0.649   2.205   3.442
 1958SOL    MW4 7864   0.654   2.283   3.404
 1959SOL     OW 7865   0.435   2.466   3.432
 1959SOL    HW2 7866   0.509   2.407   3.418
 1959SOL    HW3 7867   0.359   2.418   3.400
 1959SOL    MW4 7868   0.435   2.452   3.426
 1960SOL     OW 7869   0.459   2.729   3.363
 1960SOL    HW2 7870   0.459   2.638   3.394
 1960SOL    HW3 7871   0.452   2.722   3.268
 1960SOL    MW4 7872   0.458   2.716   3.355
 1961SOL     OW 7873   0.653   2.841   3.495
 1961SOL    HW2 7874   0.729   2.804   3.450
 1961SOL    HW3 7875   0.578   2.804   3.449
 1961SOL    MW4 7876   0.653   2.831   3.483
 1962SOL     OW 7877   0.676   3.069   3.365
 1962SOL    HW2 7878   0.603   3.127   3.389
 1962SOL    HW3 7879   0.661   2.990   3.417
 1962SOL    MW4 7880   0.665   3.066   3.375
 1963SOL     OW 7881   0.470   3.232   3.425
 1963SOL    HW2 7882   0.459   3.248   3.519
 1963SOL    HW3 7883   0.383   3.208   3.394
 1963SOL    MW4 7884   0.457   3.231   3.433
 1964SOL     OW 7885   0.453   3.502   3.372
 1964SOL    HW2 7886   0.463   3.411   3.397
 1964SOL    HW3 7887   0.381   3.535   3.426
 1964SOL    MW4 7888   0.445   3.495   3.383
 1965SOL     OW 7889   0.652   3.631   3.488
 1965SOL    HW2 7890   0.729   3.599   3.442
 1965SOL    HW3 7891   0.578   3.586   3.447
 1965SOL    MW4 7892   0.652   3.621   3.477
 1966SOL     OW 7893   0.705   3.893   3.386
 1966SOL    HW2 7894   0.620   3.928   3.413
 1966SOL    HW3 7895   0.710   3.807   3.427
 1966SOL    MW4 7896   0.694   3.886   3.395
 1967SOL     OW 7897   0.447   4.000   3.513
 1967SOL    HW2 7898   0.440   4.092   3.486
 1967SOL    HW3 7899   0.375   3.956   3.465
 1967SOL    MW4 7900   0.436   4.006   3.503
 1968SOL     OW 7901   0.439   4.271   3.416
 1968SOL    HW2 7902   0.517   4.320   3.442
 1968SOL    HW3 7903   0.450   4.256   3.322
 1968SOL    MW4 7904   0.450   4.275   3.407
 1969SOL     OW 7905   0.661   4.389   3.491
 1969SOL    HW2 7906   0.750   4.373   3.459
 1969SOL    HW3 7907   0.650   4.484   3.482
 1969SOL    MW4 7908   0.671   4.400   3.485
 1970SOL     OW 7909   1.093   4.644   3.414
 1970SOL    HW2 7910   1.163   4.692   3.458
 1970SOL    HW3 7911   1.106   4.660   3.321
 1970SOL    MW4 7912   1.104   4.652   3.408
 1971SOL     OW 7913   0.851   0.101   3.480
 1971SOL    HW2 7914   0.855   0.123   3.573
 1971SOL    HW3 7915   0.938   0.070   3.458
 1971SOL    MW4 7916   0.863   0.100   3.489
 1972SOL     OW 7917   0.899   0.355   3.371
 1972SOL    HW2 7918   0.965   0.388   3.432
 1972SOL    HW3 7919   0.878   0.268   3.403
 1972SOL    MW4 7920   0.905   0.348   3.383
 1973SOL     OW 7921   1.104   0.494   3.513
 1973SOL    HW2 7922   1.119   0.504   3.607
 1973SOL    HW3 7923   1.073   0.580   3.484
 1973SOL    MW4 7924   1.102   0.506   3.521
 1974SOL     OW 7925   1.067   0.738   3.411
 1974SOL    HW2 7926   1.147   0.780   3.440
 1974SOL    HW3 7927   1.000   0.806   3.419
 1974SOL    MW4 7928   1.069   0.753   3.416
 1975SOL     OW 7929   0.876   0.916   3.485
 1975SOL    HW2 7930   0.894   0.996   3.437
 1975SOL    HW3 7931   0.789   0.889   3.454
 1975SOL    MW4 7932   0.867   0.923   3.474
 1976SOL     OW 7933   0.882   1.174   3.386
 1976SOL    HW2 7934   0.974   1.193   3.403
 1976SOL    HW3 7935   0.878   1.161   3.291
 1976SOL    MW4 7936   0.894   1.175   3.376
 1977SOL     OW 7937   1.144   1.268   3.420
 1977SOL    HW2 7938   1.137   1.266   3.515
 1977SOL    HW3 7939   1.123   1.358   3.396
 1977SOL    MW4 7940   1.140   1.280   3.429
 1978SOL     OW 7941   1.091   1.559   3.361
 1978SOL    HW2 7942   1.165   1.614   3.387
 1978SOL    HW3 7943   1.102   1.546   3.267
 1978SOL    MW4 7944   1.102   1.565   3.352
 1979SOL     OW 7945   0.859   1.664   3.486
 1979SOL    HW2 7946   0.857   1.758   3.470
 1979SOL    HW3 7947   0.929   1.632   3.430
 1979SOL    MW4 7948   0.868   1.672   3.477
 1980SOL     OW 7949   0.870   1.939   3.400
 1980SOL    HW2 7950   0.948   1.969   3.447
 1980SOL    HW3 7951   0.797   1.982   3.444
 1980SOL    MW4 7952   0.871   1.948   3.412
 1981SOL     OW 7953   1.126   2.063   3.496
 1981SOL    HW2 7954   1.195   2.035   3.437
 1981SOL    HW3 7955   1.094   2.145   3.458
 1981SOL    MW4 7956   1.131   2.070   3.483
 1982SOL     OW 7957   1.073   2.317   3.367
 1982SOL    HW2 7958   1.153   2.354   3.402
 1982SOL    HW3 7959   1.086   2.314   3.272
 1982SOL    MW4 7960   1.085   2.322   3.359
 1983SOL     OW 7961   0.852   2.455   3.464
 1983SOL    HW2 7962   0.869   2.456   3.558
 1983SOL    HW3 7963   0.933   2.422   3.425
 1983SOL    MW4 7964   0.865   2.451   3.471
 1984SOL     OW 7965   0.881   2.721   3.382
 1984SOL    HW2 7966   0.962   2.755   3.419
 1984SOL    HW3 7967   0.870   2.635   3.422
 1984SOL    MW4 7968   0.890   2.714   3.392
 1985SOL     OW 7969   1.118   2.857   3.473
 1985SOL    HW2 7970   1.086   2.867   3.563
 1985SOL    HW3 7971   1.176   2.781   3.477
 1985SOL    MW4 7972   1.121   2.848   3.485
 1986SOL     OW 7973   1.142   3.137   3.371
 1986SOL    HW2 7974   1.155   3.046   3.397
 1986SOL    HW3 7975   1.142   3.135   3.275
 1986SOL    MW4 7976   1.144   3.125   3.361
 1987SOL     OW 7977   0.894   3.231   3.476
 1987SOL    HW2 7978   0.966   3.204   3.420
 1987SOL    HW3 7979   0.818   3.181   3.445
 1987SOL    MW4 7980   0.893   3.221   3.465
 1988SOL     OW 7981   0.890   3.504   3.426
 1988SOL    HW2 7982   0.893   3.417   3.465
 1988SOL    HW3 7983   0.884   3.488   3.332
 1988SOL    MW4 7984   0.890   3.490   3.418
 1989SOL     OW 7985   1.136   3.602   3.530
 1989SOL    HW2 7986   1.120   3.611   3.624
 1989SOL    HW3 7987   1.053   3.571   3.495
 1989SOL    MW4 7988   1.123   3.599   3.538
 1990SOL     OW 7989   1.123   3.846   3.399
 1990SOL    HW2 7990   1.215   3.866   3.415
 1990SOL    HW3 7991   1.108   3.763   3.444
 1990SOL    MW4 7992   1.133   3.838   3.407
 1991SOL     OW 7993   0.924   4.015   3.479
 1991SOL    HW2 7994   0.991   3.953   3.449
 1991SOL    HW3 7995   0.841   3.969   3.466
 1991SOL    MW4 7996   0.922   4.001   3.473
 1992SOL     OW 7997   0.875   4.274   3.363
 1992SOL    HW2 7998   0.898   4.183   3.382
 1992SOL    HW3 7999   0.886   4.283   3.269
 1992SOL    MW4 8000   0.880   4.263   3.353
 1993SOL     OW 8001   1.097   4.364   3.481
 1993SOL    HW2 8002   1.015   4.328   3.448
 1993SOL    HW3 8003   1.103   4.450   3.440
 1993SOL    MW4 8004   1.087   4.371   3.472
 1994SOL     OW 8005   1.551   4.640   3.407
 1994SOL    HW2 8006   1.562   4.553   3.446
 1994SOL    HW3 8007   1.470   4.674   3.447
 1994SOL    MW4 8008   1.541   4.633   3.418
 1995SOL     OW 8009   1.324   0.085   3.512
 1995SOL    HW2 8010   1.316   0.086   3.607
 1995SOL    HW3 8011   1.314   0.177   3.487
 1995SOL    MW4 8012   1.322   0.097   3.521
 1996SOL     OW 8013   1.318   0.354   3.411
 1996SOL    HW2 8014   1.398   0.397   3.441
 1996SOL    HW3 8015   1.247   0.403   3.454
 1996SOL    MW4 8016   1.319   0.366   3.421
 1997SOL     OW 8017   1.541   0.513   3.463
 1997SOL    HW2 8018   1.537   0.511   3.559
 1997SOL    HW3 8019   1.616   0.457   3.442
 1997SOL    MW4 8020   1.551   0.506   3.473
 1998SOL     OW 8021   1.559   0.769   3.370
 1998SOL    HW2 8022   1.470   0.799   3.388
 1998SOL    HW3 8023   1.562   0.679   3.403
 1998SOL    MW4 8024   1.548   0.761   3.377
 1999SOL     OW 8025   1.302   0.888   3.452
 1999SOL    HW2 8026   1.327   0.895   3.544
 1999SOL    HW3 8027   1.320   0.975   3.416
 1999SOL    MW4 8028   1.308   0.900   3.460
 2000SOL     OW 8029   1.358   1.128   3.349
 2000SOL    HW2 8030   1.438   1.154   3.395
 2000SOL    HW3 8031   1.290   1.184   3.386
 2000SOL    MW4 8032   1.360   1.139   3.360
 2001SOL     OW 8033   1.567   1.235   3.477
 2001SOL    HW2 8034   1.573   1.244   3.572
 2001SOL    HW3 8035   1.655   1.212   3.449
 2001SOL    MW4 8036   1.579   1.233   3.486
 2002SOL     OW 8037   1.581   1.503   3.397
 2002SOL    HW2 8038   1.572   1.412   3.426
 2002SOL    HW3 8039   1.573   1.499   3.301
 2002SOL    MW4 8040   1.579   1.490   3.388
 2003SOL     OW 8041   1.345   1.675   3.438
 2003SOL    HW2 8042   1.349   1.670   3.533
 2003SOL    HW3 8043   1.419   1.623   3.408
 2003SOL    MW4 8044   1.355   1.667   3.446
 2004SOL     OW 8045   1.334   1.950   3.365
 2004SOL    HW2 8046   1.413   1.987   3.404
 2004SOL    HW3 8047   1.337   1.857   3.390
 2004SOL    MW4 8048   1.345   1.942   3.373
 2005SOL     OW 8049   1.542   2.057   3.502
 2005SOL    HW2 8050   1.626   2.018   3.476
 2005SOL    HW3 8051   1.547   2.148   3.471
 2005SOL    MW4 8052   1.554   2.064   3.494
 2006SOL     OW 8053   1.542   2.312   3.425
 2006SOL    HW2 8054   1.457   2.347   3.451
 2006SOL    HW3 8055   1.547   2.329   3.331
 2006SOL    MW4 8056   1.531   2.319   3.416
 2007SOL     OW 8057   1.289   2.433   3.495
 2007SOL    HW2 8058   1.299   2.437   3.590
 2007SOL    HW3 8059   1.290   2.524   3.467
 2007SOL    MW4 8060   1.290   2.446   3.504
 2008SOL     OW 8061   1.305   2.681   3.379
 2008SOL    HW2 8062   1.384   2.710   3.426
 2008SOL    HW3 8063   1.320   2.708   3.289
 2008SOL    MW4 8064   1.318   2.688   3.373
 2009SOL     OW 8065   1.535   2.826   3.466
 2009SOL    HW2 8066   1.623   2.791   3.457
 2009SOL    HW3 8067   1.543   2.918   3.441
 2009SOL    MW4 8068   1.547   2.834   3.462
 2010SOL     OW 8069   1.574   3.124   3.398
 2010SOL    HW2 8070   1.655   3.147   3.443
 2010SOL    HW3 8071   1.509   3.184   3.434
 2010SOL    MW4 8072   1.576   3.135   3.408
 2011SOL     OW 8073   1.365   3.268   3.485
 2011SOL    HW2 8074   1.345   3.266   3.579
 2011SOL    HW3 8075   1.292   3.220   3.445
 2011SOL    MW4 8076   1.352   3.262   3.492
 2012SOL     OW 8077   1.326   3.517   3.356
 2012SOL    HW2 8078   1.335   3.426   3.385
 2012SOL    HW3 8079   1.263   3.555   3.417
 2012SOL    MW4 8080   1.319   3.510   3.368
 2013SOL     OW 8081   1.584   3.614   3.450
 2013SOL    HW2 8082   1.579   3.613   3.546
 2013SOL    HW3 8083   1.504   3.571   3.421
 2013SOL    MW4 8084   1.573   3.608   3.459
 2014SOL     OW 8085   1.610   3.888   3.379
 2014SOL    HW2 8086   1.602   3.795   3.401
 2014SOL    HW3 8087   1.617   3.890   3.284
 2014SOL    MW4 8088   1.610   3.876   3.369
 2015SOL     OW 8089   1.385   4.011   3.469
 2015SOL    HW2 8090   1.389   4.104   3.447
 2015SOL    HW3 8091   1.465   3.975   3.431
 2015SOL    MW4 8092   1.396   4.018   3.461
 2016SOL     OW 8093   1.360   4.270   3.417
 2016SOL    HW2 8094   1.274   4.298   3.445
 2016SOL    HW3 8095   1.354   4.265   3.321
 2016SOL    MW4 8096   1.348   4.273   3.408
 2017SOL     OW 8097   1.586   4.397   3.518
 2017SOL    HW2 8098   1.647   4.366   3.451
 2017SOL    HW3 8099   1.503   4.356   3.494
 2017SOL    MW4 8100   1.583   4.387   3.506
 2018SOL     OW 8101   2.001   4.650   3.390
 2018SOL    HW2 8102   2.061   4.713   3.431
 2018SOL    HW3 8103   1.915   4.672   3.428
 2018SOL    MW4 8104   1.997   4.661   3.401
 2019SOL     OW 8105   1.764   0.110   3.511
 2019SOL    HW2 8106   1.758   0.084   3.603
 2019SOL    HW3 8107   1.692   0.062   3.468
 2019SOL    MW4 8108   1.754   0.100   3.517
 2020SOL     OW 8109   1.756   0.361   3.419
 2020SOL    HW2 8110   1.758   0.278   3.467
 2020SOL    HW3 8111   1.758   0.335   3.327
 2020SOL    MW4 8112   1.757   0.346   3.414
 2021SOL     OW 8113   2.030   0.470   3.476
 2021SOL    HW2 8114   2.010   0.563   3.475
 2021SOL    HW3 8115   1.945   0.427   3.465
 2021SOL    MW4 8116   2.016   0.476   3.475
 2022SOL     OW 8117   1.998   0.754   3.429
 2022SOL    HW2 8118   2.083   0.791   3.452
 2022SOL    HW3 8119   2.006   0.729   3.337
 2022SOL    MW4 8120   2.010   0.756   3.420
 2023SOL     OW 8121   1.783   0.906   3.491
 2023SOL    HW2 8122   1.859   0.861   3.454
 2023SOL    HW3 8123   1.708   0.855   3.460
 2023SOL    MW4 8124   1.783   0.893   3.482
 2024SOL     OW 8125   1.801   1.147   3.358
 2024SOL    HW2 8126   1.868   1.198   3.403
 2024SOL    HW3 8127   1.795   1.065   3.408
 2024SOL    MW4 8128   1.809   1.143   3.370
 2025SOL     OW 8129   1.996   1.274   3.499
 2025SOL    HW2 8130   2.019   1.269   3.592
 2025SOL    HW3 8131   1.980   1.367   3.483
 2025SOL    MW4 8132   1.997   1.285   3.509
 2026SOL     OW 8133   1.982   1.522   3.406
 2026SOL    HW2 8134   2.058   1.570   3.437
 2026SOL    HW3 8135   1.907   1.570   3.441
 2026SOL    MW4 8136   1.982   1.534   3.415
 2027SOL     OW 8137   1.761   1.664   3.541
 2027SOL    HW2 8138   1.747   1.749   3.499
 2027SOL    HW3 8139   1.698   1.606   3.499
 2027SOL    MW4 8140   1.751   1.668   3.530
 2028SOL     OW 8141   1.760   1.927   3.402
 2028SOL    HW2 8142   1.844   1.946   3.443
 2028SOL    HW3 8143   1.779   1.927   3.308
 2028SOL    MW4 8144   1.774   1.929   3.395
 2029SOL     OW 8145   1.998   2.020   3.527
 2029SOL    HW2 8146   2.081   1.974   3.513
 2029SOL    HW3 8147   2.012   2.108   3.490
 2029SOL    MW4 8148   2.011   2.026   3.520
 2030SOL     OW 8149   2.011   2.285   3.414
 2030SOL    HW2 8150   2.074   2.348   3.450
 2030SOL    HW3 8151   1.997   2.314   3.324
 2030SOL    MW4 8152   2.017   2.297   3.407
 2031SOL     OW 8153   1.792   2.441   3.462
 2031SOL    HW2 8154   1.865   2.381   3.446
 2031SOL    HW3 8155   1.714   2.386   3.456
 2031SOL    MW4 8156   1.791   2.425   3.459
 2032SOL     OW 8157   1.786   2.719   3.384
 2032SOL    HW2 8158   1.875   2.752   3.393
 2032SOL    HW3 8159   1.793   2.625   3.396
 2032SOL    MW4 8160   1.798   2.711   3.387
 2033SOL     OW 8161   2.032   2.806   3.465
 2033SOL    HW2 8162   2.025   2.808   3.560
 2033SOL    HW3 8163   2.027   2.898   3.439
 2033SOL    MW4 8164   2.030   2.819   3.474
 2034SOL     OW 8165   1.997   3.054   3.363
 2034SOL    HW2 8166   2.077   3.106   3.370
 2034SOL    HW3 8167   1.933   3.101   3.415
 2034SOL    MW4 8168   1.999   3.067   3.371
 2035SOL     OW 8169   1.811   3.195   3.507
 2035SOL    HW2 8170   1.803   3.203   3.602
 2035SOL    HW3 8171   1.826   3.284   3.476
 2035SOL    MW4 8172   1.812   3.208   3.516
 2036SOL     OW 8173   1.830   3.454   3.420
 2036SOL    HW2 8174   1.749   3.501   3.442
 2036SOL    HW3 8175   1.847   3.477   3.329
 2036SOL    MW4 8176   1.821   3.463   3.411
 2037SOL     OW 8177   2.042   3.610   3.522
 2037SOL    HW2 8178   2.116   3.557   3.492
 2037SOL    HW3 8179   1.965   3.557   3.501
 2037SOL    MW4 8180   2.041   3.596   3.515
 2038SOL     OW 8181   2.041   3.880   3.391
 2038SOL    HW2 8182   1.970   3.928   3.432
 2038SOL    HW3 8183   2.027   3.788   3.416
 2038SOL    MW4 8184   2.030   3.874   3.399
 2039SOL     OW 8185   1.826   4.025   3.500
 2039SOL    HW2 8186   1.820   4.000   3.591
 2039SOL    HW3 8187   1.764   3.969   3.454
 2039SOL    MW4 8188   1.817   4.015   3.506
 2040SOL     OW 8189   1.796   4.256   3.371
 2040SOL    HW2 8190   1.803   4.168   3.408
 2040SOL    HW3 8191   1.802   4.242   3.276
 2040SOL    MW4 8192   1.797   4.242   3.363
 2041SOL     OW 8193   2.008   4.390   3.482
 2041SOL    HW2 8194   1.930   4.352   3.441
 2041SOL    HW3 8195   2.012   4.480   3.449
 2041SOL    MW4 8196   1.998   4.397   3.472
 2042SOL     OW 8197   2.455   0.005   3.453
 2042SOL    HW2 8198   2.458  -0.089   3.472
 2042SOL    HW3 8199   2.450   0.010   3.357
 2042SOL    MW4 8200   2.454  -0.007   3.443
 2043SOL     OW 8201   2.201   0.101   3.520
 2043SOL    HW2 8202   2.221   0.180   3.469
 2043SOL    HW3 8203   2.282   0.049   3.516
 2043SOL    MW4 8204   2.215   0.105   3.513
 2044SOL     OW 8205   2.251   0.326   3.382
 2044SOL    HW2 8206   2.326   0.368   3.424
 2044SOL    HW3 8207   2.176   0.379   3.409
 2044SOL    MW4 8208   2.251   0.339   3.391
 2045SOL     OW 8209   2.457   0.494   3.500
 2045SOL    HW2 8210   2.524   0.445   3.454
 2045SOL    HW3 8211   2.458   0.581   3.460
 2045SOL    MW4 8212   2.466   0.499   3.489
 2046SOL     OW 8213   2.499   0.764   3.398
 2046SOL    HW2 8214   2.553   0.825   3.448
 2046SOL    HW3 8215   2.508   0.793   3.307
 2046SOL    MW4 8216   2.507   0.776   3.393
 2047SOL     OW 8217   2.264   0.854   3.466
 2047SOL    HW2 8218   2.256   0.947   3.448
 2047SOL    HW3 8219   2.352   0.830   3.435
 2047SOL    MW4 8220   2.275   0.863   3.460
 2048SOL     OW 8221   2.226   1.124   3.418
 2048SOL    HW2 8222   2.302   1.178   3.439
 2048SOL    HW3 8223   2.151   1.175   3.449
 2048SOL    MW4 8224   2.226   1.138   3.425
 2049SOL     OW 8225   2.445   1.272   3.486
 2049SOL    HW2 8226   2.458   1.278   3.581
 2049SOL    HW3 8227   2.528   1.236   3.454
 2049SOL    MW4 8228   2.458   1.268   3.495
 2050SOL     OW 8229   2.464   1.551   3.442
 2050SOL    HW2 8230   2.451   1.458   3.461
 2050SOL    HW3 8231   2.487   1.553   3.349
 2050SOL    MW4 8232   2.466   1.539   3.432
 2051SOL     OW 8233   2.206   1.654   3.493
 2051SOL    HW2 8234   2.210   1.661   3.589
 2051SOL    HW3 8235   2.293   1.621   3.468
 2051SOL    MW4 8236   2.218   1.650   3.503
 2052SOL     OW 8237   2.263   1.923   3.431
 2052SOL    HW2 8238   2.246   1.832   3.457
 2052SOL    HW3 8239   2.252   1.923   3.336
 2052SOL    MW4 8240   2.259   1.911   3.422
 2053SOL     OW 8241   2.475   2.075   3.533
 2053SOL    HW2 8242   2.463   2.077   3.628
 2053SOL    HW3 8243   2.400   2.025   3.500
 2053SOL    MW4 8244   2.464   2.069   3.541
 2054SOL     OW 8245   2.452   2.335   3.414
 2054SOL    HW2 8246   2.523   2.386   3.452
 2054SOL    HW3 8247   2.470   2.245   3.441
 2054SOL    MW4 8248   2.464   2.329   3.423
 2055SOL     OW 8249   2.218   2.400   3.526
 2055SOL    HW2 8250   2.226   2.486   3.486
 2055SOL    HW3 8251   2.295   2.352   3.495
 2055SOL    MW4 8252   2.229   2.405   3.516
 2056SOL     OW 8253   2.232   2.625   3.394
 2056SOL    HW2 8254   2.172   2.691   3.429
 2056SOL    HW3 8255   2.235   2.644   3.300
 2056SOL    MW4 8256   2.224   2.636   3.386
 2057SOL     OW 8257   2.450   2.801   3.475
 2057SOL    HW2 8258   2.451   2.889   3.439
 2057SOL    HW3 8259   2.384   2.754   3.424
 2057SOL    MW4 8260   2.442   2.806   3.464
 2058SOL     OW 8261   2.444   3.062   3.397
 2058SOL    HW2 8262   2.515   3.112   3.435
 2058SOL    HW3 8263   2.446   3.084   3.304
 2058SOL    MW4 8264   2.453   3.071   3.390
 2059SOL     OW 8265   2.216   3.201   3.457
 2059SOL    HW2 8266   2.214   3.227   3.549
 2059SOL    HW3 8267   2.296   3.149   3.448
 2059SOL    MW4 8268   2.226   3.198   3.468
 2060SOL     OW 8269   2.251   3.456   3.371
 2060SOL    HW2 8270   2.247   3.366   3.402
 2060SOL    HW3 8271   2.246   3.448   3.276
 2060SOL    MW4 8272   2.250   3.443   3.362
 2061SOL     OW 8273   2.448   3.593   3.478
 2061SOL    HW2 8274   2.446   3.683   3.446
 2061SOL    HW3 8275   2.383   3.548   3.424
 2061SOL    MW4 8276   2.439   3.599   3.466
 2062SOL     OW 8277   2.481   3.854   3.388
 2062SOL    HW2 8278   2.564   3.898   3.407
 2062SOL    HW3 8279   2.414   3.911   3.426
 2062SOL    MW4 8280   2.483   3.868   3.395
 2063SOL     OW 8281   2.270   4.000   3.488
 2063SOL    HW2 8282   2.256   4.093   3.470
 2063SOL    HW3 8283   2.194   3.956   3.449
 2063SOL    MW4 8284   2.258   4.006   3.480
 2064SOL     OW 8285   2.245   4.275   3.412
 2064SOL    HW2 8286   2.161   4.320   3.416
 2064SOL    HW3 8287   2.267   4.273   3.319
 2064SOL    MW4 8288   2.237   4.281   3.400
 2065SOL     OW 8289   2.474   4.406   3.486
 2065SOL    HW2 8290   2.480   4.377   3.577
 2065SOL    HW3 8291   2.387   4.380   3.458
 2065SOL    MW4 8292   2.463   4.399   3.495
 2066SOL     OW 8293   2.950   4.656   3.351
 2066SOL    HW2 8294   2.871   4.685   3.398
 2066SOL    HW3 8295   2.922   4.649   3.260
 2066SOL    MW4 8296   2.936   4.659   3.345
 2067SOL     OW 8297   2.721   0.104   3.487
 2067SOL    HW2 8298   2.695   0.192   3.460
 2067SOL    HW3 8299   2.639   0.054   3.489
 2067SOL    MW4 8300   2.707   0.109   3.484
 2068SOL     OW 8301   2.671   0.366   3.398
 2068SOL    HW2 8302   2.743   0.424   3.422
 2068SOL    HW3 8303   2.678   0.358   3.302
 2068SOL    MW4 8304   2.682   0.372   3.388
 2069SOL     OW 8305   2.921   0.510   3.457
 2069SOL    HW2 8306   2.904   0.516   3.551
 2069SOL    HW3 8307   2.930   0.601   3.429
 2069SOL    MW4 8308   2.920   0.523   3.466
 2070SOL     OW 8309   2.921   0.782   3.367
 2070SOL    HW2 8310   3.004   0.816   3.402
 2070SOL    HW3 8311   2.854   0.832   3.412
 2070SOL    MW4 8312   2.923   0.793   3.377
 2071SOL     OW 8313   2.713   0.914   3.500
 2071SOL    HW2 8314   2.725   0.931   3.594
 2071SOL    HW3 8315   2.700   1.001   3.462
 2071SOL    MW4 8316   2.713   0.928   3.508
 2072SOL     OW 8317   2.692   1.174   3.394
 2072SOL    HW2 8318   2.773   1.211   3.429
 2072SOL    HW3 8319   2.695   1.193   3.301
 2072SOL    MW4 8320   2.703   1.181   3.387
 2073SOL     OW 8321   2.935   1.293   3.473
 2073SOL    HW2 8322   2.929   1.303   3.568
 2073SOL    HW3 8323   3.006   1.230   3.461
 2073SOL    MW4 8324   2.944   1.286   3.484
 2074SOL     OW 8325   2.926   1.570   3.450
 2074SOL    HW2 8326   2.849   1.602   3.497
 2074SOL    HW3 8327   2.917   1.474   3.452
 2074SOL    MW4 8328   2.915   1.561   3.456
 2075SOL     OW 8329   2.704   1.662   3.548
 2075SOL    HW2 8330   2.695   1.752   3.519
 2075SOL    HW3 8331   2.619   1.622   3.529
 2075SOL    MW4 8332   2.692   1.668   3.541
 2076SOL     OW 8333   2.688   1.918   3.437
 2076SOL    HW2 8334   2.612   1.967   3.469
 2076SOL    HW3 8335   2.692   1.937   3.344
 2076SOL    MW4 8336   2.678   1.927   3.429
 2077SOL     OW 8337   2.895   2.076   3.542
 2077SOL    HW2 8338   2.901   2.070   3.638
 2077SOL    HW3 8339   2.820   2.022   3.519
 2077SOL    MW4 8340   2.886   2.068   3.552
 2078SOL     OW 8341   2.928   2.337   3.452
 2078SOL    HW2 8342   2.914   2.248   3.485
 2078SOL    HW3 8343   2.941   2.325   3.358
 2078SOL    MW4 8344   2.928   2.323   3.444
 2079SOL     OW 8345   2.689   2.453   3.496
 2079SOL    HW2 8346   2.678   2.466   3.590
 2079SOL    HW3 8347   2.770   2.404   3.487
 2079SOL    MW4 8348   2.698   2.449   3.507
 2080SOL     OW 8349   2.698   2.704   3.382
 2080SOL    HW2 8350   2.697   2.618   3.426
 2080SOL    HW3 8351   2.616   2.745   3.409
 2080SOL    MW4 8352   2.687   2.698   3.391
 2081SOL     OW 8353   2.938   2.840   3.510
 2081SOL    HW2 8354   2.936   2.813   3.602
 2081SOL    HW3 8355   2.869   2.789   3.468
 2081SOL    MW4 8356   2.929   2.829   3.517
 2082SOL     OW 8357   2.956   3.086   3.385
 2082SOL    HW2 8358   2.951   2.992   3.406
 2082SOL    HW3 8359   2.934   3.090   3.291
 2082SOL    MW4 8360   2.952   3.074   3.375
 2083SOL     OW 8361   2.681   3.191   3.510
 2083SOL    HW2 8362   2.679   3.202   3.605
 2083SOL    HW3 8363   2.755   3.132   3.495
 2083SOL    MW4 8364   2.691   3.184   3.521
 2084SOL     OW 8365   2.676   3.461   3.400
 2084SOL    HW2 8366   2.679   3.375   3.442
 2084SOL    HW3 8367   2.596   3.502   3.435
 2084SOL    MW4 8368   2.666   3.455   3.410
 2085SOL     OW 8369   2.915   3.577   3.485
 2085SOL    HW2 8370   2.906   3.669   3.459
 2085SOL    HW3 8371   2.834   3.536   3.454
 2085SOL    MW4 8372   2.903   3.584   3.478
 2086SOL     OW 8373   2.930   3.832   3.366
 2086SOL    HW2 8374   2.994   3.885   3.413
 2086SOL    HW3 8375   2.845   3.870   3.389
 2086SOL    MW4 8376   2.927   3.844   3.375
 2087SOL     OW 8377   2.725   3.984   3.465
 2087SOL    HW2 8378   2.710   3.977   3.559
 2087SOL    HW3 8379   2.711   4.077   3.446
 2087SOL    MW4 8380   2.721   3.996   3.475
 2088SOL     OW 8381   2.674   4.240   3.383
 2088SOL    HW2 8382   2.760   4.282   3.387
 2088SOL    HW3 8383   2.614   4.306   3.417
 2088SOL    MW4 8384   2.678   4.254   3.388
 2089SOL     OW 8385   2.916   4.370   3.417
 2089SOL    HW2 8386   2.924   4.378   3.512
 2089SOL    HW3 8387   2.932   4.459   3.385
 2089SOL    MW4 8388   2.919   4.383   3.425
 2090SOL     OW 8389   3.390   4.644   3.393
 2090SOL    HW2 8390   3.321   4.707   3.415
 2090SOL    HW3 8391   3.385   4.635   3.298
 2090SOL    MW4 8392   3.380   4.651   3.383
 2091SOL     OW 8393   3.159   0.136   3.450
 2091SOL    HW2 8394   3.153   0.230   3.434
 2091SOL    HW3 8395   3.080   0.100   3.409
 2091SOL    MW4 8396   3.148   0.144   3.443
 2092SOL     OW 8397   3.157   0.400   3.406
 2092SOL    HW2 8398   3.077   0.444   3.435
 2092SOL    HW3 8399   3.153   0.404   3.310
 2092SOL    MW4 8400   3.146   0.406   3.397
 2093SOL     OW 8401   3.397   0.533   3.512
 2093SOL    HW2 8402   3.395   0.552   3.606
 2093SOL    HW3 8403   3.309   0.500   3.493
 2093SOL    MW4 8404   3.385   0.531   3.522
 2094SOL     OW 8405   3.369   0.787   3.371
 2094SOL    HW2 8406   3.450   0.834   3.391
 2094SOL    HW3 8407   3.382   0.699   3.407
 2094SOL    MW4 8408   3.381   0.781   3.379
 2095SOL     OW 8409   3.149   0.901   3.494
 2095SOL    HW2 8410   3.148   0.991   3.464
 2095SOL    HW3 8411   3.223   0.861   3.449
 2095SOL    MW4 8412   3.158   0.907   3.484
 2096SOL     OW 8413   3.164   1.149   3.394
 2096SOL    HW2 8414   3.222   1.217   3.430
 2096SOL    HW3 8415   3.158   1.170   3.301
 2096SOL    MW4 8416   3.171   1.161   3.387
 2097SOL     OW 8417   3.355   1.316   3.542
 2097SOL    HW2 8418   3.438   1.289   3.502
 2097SOL    HW3 8419   3.348   1.409   3.521
 2097SOL    MW4 8420   3.365   1.324   3.534
 2098SOL     OW 8421   3.402   1.566   3.441
 2098SOL    HW2 8422   3.472   1.608   3.490
 2098SOL    HW3 8423   3.321   1.598   3.482
 2098SOL    MW4 8424   3.400   1.576   3.453
 2099SOL     OW 8425   3.173   1.677   3.549
 2099SOL    HW2 8426   3.167   1.770   3.528
 2099SOL    HW3 8427   3.088   1.641   3.523
 2099SOL    MW4 8428   3.161   1.685   3.543
 2100SOL     OW 8429   3.139   1.949   3.437
 2100SOL    HW2 8430   3.050   1.975   3.461
 2100SOL    HW3 8431   3.147   1.975   3.345
 2100SOL    MW4 8432   3.128   1.956   3.428
 2101SOL     OW 8433   3.357   2.073   3.531
 2101SOL    HW2 8434   3.367   2.162   3.498
 2101SOL    HW3 8435   3.269   2.046   3.502
 2101SOL    MW4 8436   3.346   2.081   3.522
 2102SOL     OW 8437   3.406   2.338   3.423
 2102SOL    HW2 8438   3.479   2.392   3.454
 2102SOL    HW3 8439   3.328   2.380   3.460
 2102SOL    MW4 8440   3.405   2.351   3.432
 2103SOL     OW 8441   3.175   2.456   3.507
 2103SOL    HW2 8442   3.166   2.538   3.459
 2103SOL    HW3 8443   3.091   2.412   3.496
 2103SOL    MW4 8444   3.163   2.461   3.499
 2104SOL     OW 8445   3.168   2.721   3.406
 2104SOL    HW2 8446   3.246   2.761   3.444
 2104SOL    HW3 8447   3.094   2.763   3.450
 2104SOL    MW4 8448   3.168   2.732   3.416
 2105SOL     OW 8449   3.387   2.838   3.535
 2105SOL    HW2 8450   3.462   2.796   3.493
 2105SOL    HW3 8451   3.396   2.930   3.512
 2105SOL    MW4 8452   3.398   2.844   3.526
 2106SOL     OW 8453   3.398   3.102   3.420
 2106SOL    HW2 8454   3.473   3.149   3.456
 2106SOL    HW3 8455   3.321   3.144   3.459
 2106SOL    MW4 8456   3.398   3.113   3.430
 2107SOL     OW 8457   3.151   3.203   3.530
 2107SOL    HW2 8458   3.129   3.294   3.511
 2107SOL    HW3 8459   3.086   3.152   3.482
 2107SOL    MW4 8460   3.139   3.208   3.521
 2108SOL     OW 8461   3.154   3.479   3.437
 2108SOL    HW2 8462   3.065   3.508   3.456
 2108SOL    HW3 8463   3.161   3.483   3.341
 2108SOL    MW4 8464   3.143   3.483   3.427
 2109SOL     OW 8465   3.400   3.640   3.478
 2109SOL    HW2 8466   3.398   3.722   3.428
 2109SOL    HW3 8467   3.309   3.610   3.477
 2109SOL    MW4 8468   3.388   3.647   3.471
 2110SOL     OW 8469   3.422   3.876   3.350
 2110SOL    HW2 8470   3.494   3.904   3.406
 2110SOL    HW3 8471   3.345   3.918   3.388
 2110SOL    MW4 8472   3.421   3.885   3.363
 2111SOL     OW 8473   3.169   3.956   3.461
 2111SOL    HW2 8474   3.160   3.966   3.556
 2111SOL    HW3 8475   3.134   4.037   3.425
 2111SOL    MW4 8476   3.163   3.968   3.469
 2112SOL     OW 8477   3.125   4.216   3.380
 2112SOL    HW2 8478   3.198   4.262   3.421
 2112SOL    HW3 8479   3.049   4.270   3.401
 2112SOL    MW4 8480   3.125   4.229   3.388
 2113SOL     OW 8481   3.310   4.385   3.499
 2113SOL    HW2 8482   3.298   4.402   3.592
 2113SOL    HW3 8483   3.298   4.471   3.458
 2113SOL    MW4 8484   3.306   4.399   3.506
 2114SOL     OW 8485   3.839   0.008   3.394
 2114SOL    HW2 8486   3.770   0.066   3.426
 2114SOL    HW3 8487   3.823   0.002   3.299
 2114SOL    MW4 8488   3.828   0.015   3.386
 2115SOL     OW 8489   3.612   0.125   3.491
 2115SOL    HW2 8490   3.591   0.213   3.458
 2115SOL    HW3 8491   3.537   0.072   3.467
 2115SOL    MW4 8492   3.600   0.130   3.484
 2116SOL     OW 8493   3.590   0.390   3.363
 2116SOL    HW2 8494   3.664   0.424   3.413
 2116SOL    HW3 8495   3.513   0.430   3.405
 2116SOL    MW4 8496   3.590   0.400   3.375
 2117SOL     OW 8497   3.789   0.486   3.528
 2117SOL    HW2 8498   3.815   0.491   3.620
 2117SOL    HW3 8499   3.868   0.456   3.482
 2117SOL    MW4 8500   3.803   0.483   3.534
 2118SOL     OW 8501   3.781   0.750   3.427
 2118SOL    HW2 8502   3.860   0.795   3.455
 2118SOL    HW3 8503   3.779   0.670   3.479
 2118SOL    MW4 8504   3.791   0.745   3.437
 2119SOL     OW 8505   3.574   0.922   3.489
 2119SOL    HW2 8506   3.572   0.922   3.585
 2119SOL    HW3 8507   3.656   0.877   3.467
 2119SOL    MW4 8508   3.585   0.916   3.499
 2120SOL     OW 8509   3.574   1.183   3.405
 2120SOL    HW2 8510   3.566   1.091   3.427
 2120SOL    HW3 8511   3.553   1.187   3.311
 2120SOL    MW4 8512   3.570   1.171   3.395
 2121SOL     OW 8513   3.809   1.307   3.487
 2121SOL    HW2 8514   3.800   1.317   3.582
 2121SOL    HW3 8515   3.730   1.260   3.460
 2121SOL    MW4 8516   3.798   1.302   3.496
 2122SOL     OW 8517   3.781   1.565   3.391
 2122SOL    HW2 8518   3.865   1.600   3.422
 2122SOL    HW3 8519   3.775   1.479   3.431
 2122SOL    MW4 8520   3.791   1.559   3.400
 2123SOL     OW 8521   3.598   1.697   3.557
 2123SOL    HW2 8522   3.576   1.787   3.533
 2123SOL    HW3 8523   3.682   1.681   3.516
 2123SOL    MW4 8524   3.606   1.707   3.548
 2124SOL     OW 8525   3.581   1.940   3.447
 2124SOL    HW2 8526   3.653   1.985   3.491
 2124SOL    HW3 8527   3.503   1.987   3.475
 2124SOL    MW4 8528   3.580   1.952   3.456
 2125SOL     OW 8529   3.811   2.073   3.515
 2125SOL    HW2 8530   3.818   2.076   3.610
 2125SOL    HW3 8531   3.885   2.018   3.487
 2125SOL    MW4 8532   3.822   2.066   3.523
 2126SOL     OW 8533   3.792   2.303   3.390
 2126SOL    HW2 8534   3.871   2.341   3.428
 2126SOL    HW3 8535   3.783   2.218   3.432
 2126SOL    MW4 8536   3.801   2.297   3.400
 2127SOL     OW 8537   3.629   2.475   3.542
 2127SOL    HW2 8538   3.608   2.549   3.484
 2127SOL    HW3 8539   3.678   2.415   3.486
 2127SOL    MW4 8540   3.633   2.477   3.527
 2128SOL     OW 8541   3.593   2.695   3.398
 2128SOL    HW2 8542   3.676   2.739   3.410
 2128SOL    HW3 8543   3.577   2.700   3.303
 2128SOL    MW4 8544   3.602   2.701   3.387
 2129SOL     OW 8545   3.828   2.851   3.470
 2129SOL    HW2 8546   3.819   2.842   3.565
 2129SOL    HW3 8547   3.818   2.944   3.453
 2129SOL    MW4 8548   3.826   2.862   3.480
 2130SOL     OW 8549   3.813   3.107   3.378
 2130SOL    HW2 8550   3.897   3.134   3.414
 2130SOL    HW3 8551   3.828   3.106   3.283
 2130SOL    MW4 8552   3.826   3.110   3.370
 2131SOL     OW 8553   3.620   3.254   3.501
 2131SOL    HW2 8554   3.628   3.343   3.466
 2131SOL    HW3 8555   3.693   3.206   3.461
 2131SOL    MW4 8556   3.631   3.259   3.491
 2132SOL     OW 8557   3.635   3.511   3.398
 2132SOL    HW2 8558   3.563   3.560   3.437
 2132SOL    HW3 8559   3.612   3.502   3.306
 2132SOL    MW4 8560   3.623   3.516   3.391
 2133SOL     OW 8561   3.869   3.636   3.485
 2133SOL    HW2 8562   3.866   3.636   3.580
 2133SOL    HW3 8563   3.788   3.593   3.458
 2133SOL    MW4 8564   3.858   3.630   3.494
 2134SOL     OW 8565   3.812   3.862   3.336
 2134SOL    HW2 8566   3.743   3.906   3.386
 2134SOL    HW3 8567   3.833   3.784   3.388
 2134SOL    MW4 8568   3.805   3.857   3.349
 2135SOL     OW 8569   3.632   3.994   3.495
 2135SOL    HW2 8570   3.610   3.980   3.587
 2135SOL    HW3 8571   3.616   4.088   3.482
 2135SOL    MW4 8572   3.627   4.005   3.506
 2136SOL     OW 8573   3.579   4.282   3.430
 2136SOL    HW2 8574   3.493   4.320   3.449
 2136SOL    HW3 8575   3.580   4.272   3.335
 2136SOL    MW4 8576   3.568   4.286   3.420
 2137SOL     OW 8577   3.826   4.424   3.497
 2137SOL    HW2 8578   3.736   4.391   3.490
 2137SOL    HW3 8579   3.823   4.509   3.454
 2137SOL    MW4 8580   3.814   4.431   3.490
 2138SOL     OW 8581   4.287   4.648   3.372
 2138SOL    HW2 8582   4.297   4.570   3.426
 2138SOL    HW3 8583   4.361   4.703   3.395
 2138SOL    MW4 8584   4.298   4.645   3.382
 2139SOL     OW 8585   4.071   0.127   3.506
 2139SOL    HW2 8586   4.140   0.080   3.458
 2139SOL    HW3 8587   3.989   0.092   3.471
 2139SOL    MW4 8588   4.069   0.116   3.495
 2140SOL     OW 8589   4.029   0.388   3.420
 2140SOL    HW2 8590   4.043   0.302   3.460
 2140SOL    HW3 8591   4.042   0.373   3.326
 2140SOL    MW4 8592   4.032   0.374   3.413
 2141SOL     OW 8593   4.251   0.502   3.534
 2141SOL    HW2 8594   4.243   0.595   3.510
 2141SOL    HW3 8595   4.171   0.462   3.500
 2141SOL    MW4 8596   4.240   0.509   3.526
 2142SOL     OW 8597   4.235   0.751   3.424
 2142SOL    HW2 8598   4.311   0.803   3.451
 2142SOL    HW3 8599   4.235   0.755   3.329
 2142SOL    MW4 8600   4.245   0.758   3.415
 2143SOL     OW 8601   4.003   0.878   3.504
 2143SOL    HW2 8602   4.012   0.965   3.463
 2143SOL    HW3 8603   4.076   0.828   3.470
 2143SOL    MW4 8604   4.013   0.883   3.494
 2144SOL     OW 8605   4.010   1.137   3.417
 2144SOL    HW2 8606   4.092   1.176   3.447
 2144SOL    HW3 8607   3.943   1.201   3.440
 2144SOL    MW4 8608   4.012   1.151   3.424
 2145SOL     OW 8609   4.244   1.271   3.493
 2145SOL    HW2 8610   4.255   1.362   3.463
 2145SOL    HW3 8611   4.329   1.231   3.477
 2145SOL    MW4 8612   4.257   1.278   3.487
 2146SOL     OW 8613   4.243   1.531   3.403
 2146SOL    HW2 8614   4.154   1.548   3.435
 2146SOL    HW3 8615   4.236   1.536   3.308
 2146SOL    MW4 8616   4.230   1.534   3.395
 2147SOL     OW 8617   4.004   1.657   3.514
 2147SOL    HW2 8618   3.997   1.649   3.609
 2147SOL    HW3 8619   4.020   1.751   3.500
 2147SOL    MW4 8620   4.005   1.668   3.525
 2148SOL     OW 8621   4.032   1.916   3.447
 2148SOL    HW2 8622   4.114   1.951   3.480
 2148SOL    HW3 8623   4.043   1.914   3.352
 2148SOL    MW4 8624   4.044   1.920   3.438
 2149SOL     OW 8625   4.273   2.034   3.509
 2149SOL    HW2 8626   4.274   2.124   3.478
 2149SOL    HW3 8627   4.341   1.990   3.458
 2149SOL    MW4 8628   4.282   2.040   3.498
 2150SOL     OW 8629   4.268   2.288   3.411
 2150SOL    HW2 8630   4.181   2.322   3.431
 2150SOL    HW3 8631   4.274   2.289   3.316
 2150SOL    MW4 8632   4.258   2.293   3.401
 2151SOL     OW 8633   4.044   2.417   3.480
 2151SOL    HW2 8634   4.047   2.437   3.573
 2151SOL    HW3 8635   4.050   2.502   3.437
 2151SOL    MW4 8636   4.045   2.431   3.486
 2152SOL     OW 8637   4.049   2.701   3.356
 2152SOL    HW2 8638   4.129   2.753   3.366
 2152SOL    HW3 8639   3.980   2.755   3.394
 2152SOL    MW4 8640   4.050   2.715   3.362
 2153SOL     OW 8641   4.266   2.852   3.443
 2153SOL    HW2 8642   4.253   2.842   3.537
 2153SOL    HW3 8643   4.346   2.803   3.424
 2153SOL    MW4 8644   4.275   2.844   3.452
 2154SOL     OW 8645   4.245   3.131   3.379
 2154SOL    HW2 8646   4.257   3.041   3.411
 2154SOL    HW3 8647   4.254   3.123   3.284
 2154SOL    MW4 8648   4.248   3.118   3.371
 2155SOL     OW 8649   4.029   3.238   3.501
 2155SOL    HW2 8650   4.029   3.324   3.459
 2155SOL    HW3 8651   4.100   3.190   3.459
 2155SOL    MW4 8652   4.038   3.243   3.490
 2156SOL     OW 8653   4.056   3.476   3.366
 2156SOL    HW2 8654   4.132   3.505   3.417
 2156SOL    HW3 8655   3.983   3.525   3.404
 2156SOL    MW4 8656   4.057   3.487   3.378
 2157SOL     OW 8657   4.282   3.590   3.467
 2157SOL    HW2 8658   4.277   3.587   3.562
 2157SOL    HW3 8659   4.272   3.683   3.445
 2157SOL    MW4 8660   4.280   3.602   3.477
 2158SOL     OW 8661   4.259   3.864   3.385
 2158SOL    HW2 8662   4.348   3.894   3.403
 2158SOL    HW3 8663   4.251   3.868   3.290
 2158SOL    MW4 8664   4.269   3.868   3.375
 2159SOL     OW 8665   4.049   4.016   3.479
 2159SOL    HW2 8666   4.120   3.954   3.463
 2159SOL    HW3 8667   3.972   3.974   3.441
 2159SOL    MW4 8668   4.048   4.002   3.472
 2160SOL     OW 8669   4.063   4.285   3.385
 2160SOL    HW2 8670   4.055   4.199   3.425
 2160SOL    HW3 8671   3.984   4.332   3.412
 2160SOL    MW4 8672   4.052   4.280   3.394
 2161SOL     OW 8673   4.299   4.403   3.507
 2161SOL    HW2 8674   4.289   4.413   3.602
 2161SOL    HW3 8675   4.216   4.365   3.478
 2161SOL    MW4 8676   4.286   4.399   3.516
 2162SOL     OW 8677   0.195   4.614   3.853
 2162SOL    HW2 8678   0.202   4.620   3.948
 2162SOL    HW3 8679   0.119   4.667   3.831
 2162SOL    MW4 8680   0.186   4.622   3.862
 2163SOL     OW 8681   4.476   0.115   3.787
 2163SOL    HW2 8682   4.507   0.198   3.822
 2163SOL    HW3 8683   4.462   0.131   3.693
 2163SOL    MW4 8684   4.478   0.128   3.779
 2164SOL     OW 8685   0.060   0.365   3.883
 2164SOL    HW2 8686  -0.018   0.416   3.862
 2164SOL    HW3 8687   0.133   0.419   3.852
 2164SOL    MW4 8688   0.059   0.379   3.876
 2165SOL     OW 8689   0.265   0.503   3.753
 2165SOL    HW2 8690   0.255   0.597   3.769
 2165SOL    HW3 8691   0.246   0.492   3.659
 2165SOL    MW4 8692   0.261   0.514   3.742
 2166SOL     OW 8693   0.230   0.769   3.836
 2166SOL    HW2 8694   0.232   0.776   3.931
 2166SOL    HW3 8695   0.141   0.795   3.812
 2166SOL    MW4 8696   0.219   0.773   3.845
 2167SOL     OW 8697   4.487   0.903   3.774
 2167SOL    HW2 8698   4.407   0.857   3.802
 2167SOL    HW3 8699   4.484   0.986   3.821
 2167SOL    MW4 8700   4.476   0.908   3.784
 2168SOL     OW 8701   0.005   1.138   3.909
 2168SOL    HW2 8702  -0.061   1.194   3.869
 2168SOL    HW3 8703   0.088   1.165   3.870
 2168SOL    MW4 8704   0.007   1.149   3.899
 2169SOL     OW 8705   0.203   1.263   3.767
 2169SOL    HW2 8706   0.219   1.348   3.808
 2169SOL    HW3 8707   0.232   1.275   3.676
 2169SOL    MW4 8708   0.209   1.276   3.760
 2170SOL     OW 8709   0.190   1.530   3.846
 2170SOL    HW2 8710   0.195   1.544   3.941
 2170SOL    HW3 8711   0.109   1.574   3.820
 2170SOL    MW4 8712   0.180   1.538   3.855
 2171SOL     OW 8713   4.460   1.674   3.796
 2171SOL    HW2 8714   4.482   1.761   3.828
 2171SOL    HW3 8715   4.460   1.683   3.701
 2171SOL    MW4 8716   4.463   1.686   3.788
 2172SOL     OW 8717   0.014   1.959   3.859
 2172SOL    HW2 8718   0.017   1.947   3.954
 2172SOL    HW3 8719  -0.076   1.989   3.842
 2172SOL    MW4 8720   0.002   1.962   3.869
 2173SOL     OW 8721   0.219   2.095   3.750
 2173SOL    HW2 8722   0.232   2.180   3.792
 2173SOL    HW3 8723   0.145   2.056   3.798
 2173SOL    MW4 8724   0.211   2.101   3.762
 2174SOL     OW 8725   0.284   2.342   3.853
 2174SOL    HW2 8726   0.291   2.332   3.947
 2174SOL    HW3 8727   0.203   2.393   3.840
 2174SOL    MW4 8728   0.274   2.348   3.863
 2175SOL     OW 8729   0.031   2.474   3.774
 2175SOL    HW2 8730  -0.048   2.426   3.800
 2175SOL    HW3 8731   0.025   2.557   3.819
 2175SOL    MW4 8732   0.020   2.478   3.783
 2176SOL     OW 8733   0.004   2.734   3.881
 2176SOL    HW2 8734   0.030   2.736   3.973
 2176SOL    HW3 8735   0.075   2.779   3.835
 2176SOL    MW4 8736   0.017   2.740   3.887
 2177SOL     OW 8737   0.223   2.849   3.757
 2177SOL    HW2 8738   0.307   2.820   3.793
 2177SOL    HW3 8739   0.234   2.843   3.662
 2177SOL    MW4 8740   0.236   2.844   3.749
 2178SOL     OW 8741   0.263   3.113   3.857
 2178SOL    HW2 8742   0.249   3.105   3.951
 2178SOL    HW3 8743   0.265   3.023   3.824
 2178SOL    MW4 8744   0.262   3.100   3.865
 2179SOL     OW 8745   0.018   3.203   3.775
 2179SOL    HW2 8746   0.105   3.172   3.799
 2179SOL    HW3 8747   0.020   3.210   3.679
 2179SOL    MW4 8748   0.030   3.200   3.765
 2180SOL     OW 8749   4.450   3.460   3.864
 2180SOL    HW2 8750   4.535   3.501   3.846
 2180SOL    HW3 8751   4.460   3.369   3.835
 2180SOL    MW4 8752   4.462   3.453   3.857
 2181SOL     OW 8753   0.191   3.587   3.783
 2181SOL    HW2 8754   0.280   3.560   3.809
 2181SOL    HW3 8755   0.176   3.669   3.830
 2181SOL    MW4 8756   0.201   3.594   3.793
 2182SOL     OW 8757   0.187   3.853   3.878
 2182SOL    HW2 8758   0.210   3.857   3.971
 2182SOL    HW3 8759   0.259   3.899   3.834
 2182SOL    MW4 8760   0.200   3.860   3.885
 2183SOL     OW 8761   4.472   3.953   3.709
 2183SOL    HW2 8762   4.388   3.954   3.754
 2183SOL    HW3 8763   4.532   3.910   3.770
 2183SOL    MW4 8764   4.469   3.948   3.723
 2184SOL     OW 8765   0.033   4.178   3.863
 2184SOL    HW2 8766   0.106   4.230   3.830
 2184SOL    HW3 8767   0.030   4.102   3.804
 2184SOL    MW4 8768   0.042   4.175   3.851
 2185SOL     OW 8769   0.208   4.350   3.741
 2185SOL    HW2 8770   0.289   4.310   3.774
 2185SOL    HW3 8771   0.208   4.437   3.779
 2185SOL    MW4 8772   0.219   4.356   3.751
 2186SOL     OW 8773   0.651   4.649   3.882
 2186SOL    HW2 8774   0.650   4.560   3.847
 2186SOL    HW3 8775   0.565   4.684   3.862
 2186SOL    MW4 8776   0.640   4.642   3.875
 2187SOL     OW 8777   0.422   0.103   3.784
 2187SOL    HW2 8778   0.426   0.192   3.818
 2187SOL    HW3 8779   0.343   0.066   3.823
 2187SOL    MW4 8780   0.412   0.110   3.794
 2188SOL     OW 8781   0.476   0.352   3.886
 2188SOL    HW2 8782   0.554   0.378   3.837
 2188SOL    HW3 8783   0.406   0.407   3.850
 2188SOL    MW4 8784   0.477   0.363   3.874
 2189SOL     OW 8785   0.695   0.496   3.750
 2189SOL    HW2 8786   0.779   0.477   3.791
 2189SOL    HW3 8787   0.675   0.586   3.777
 2189SOL    MW4 8788   0.703   0.505   3.759
 2190SOL     OW 8789   0.667   0.755   3.869
 2190SOL    HW2 8790   0.749   0.797   3.842
 2190SOL    HW3 8791   0.599   0.805   3.825
 2190SOL    MW4 8792   0.669   0.767   3.860
 2191SOL     OW 8793   0.460   0.871   3.736
 2191SOL    HW2 8794   0.454   0.957   3.778
 2191SOL    HW3 8795   0.380   0.826   3.763
 2191SOL    MW4 8796   0.449   0.877   3.745
 2192SOL     OW 8797   0.450   1.122   3.861
 2192SOL    HW2 8798   0.517   1.185   3.834
 2192SOL    HW3 8799   0.367   1.163   3.836
 2192SOL    MW4 8800   0.448   1.136   3.854
 2193SOL     OW 8801   0.665   1.280   3.800
 2193SOL    HW2 8802   0.754   1.243   3.804
 2193SOL    HW3 8803   0.650   1.294   3.707
 2193SOL    MW4 8804   0.675   1.277   3.788
 2194SOL     OW 8805   0.647   1.562   3.878
 2194SOL    HW2 8806   0.726   1.604   3.843
 2194SOL    HW3 8807   0.657   1.469   3.854
 2194SOL    MW4 8808   0.659   1.555   3.870
 2195SOL     OW 8809   0.401   1.703   3.796
 2195SOL    HW2 8810   0.480   1.652   3.815
 2195SOL    HW3 8811   0.329   1.641   3.804
 2195SOL    MW4 8812   0.402   1.688   3.800
 2196SOL     OW 8813   0.422   1.963   3.898
 2196SOL    HW2 8814   0.426   1.871   3.870
 2196SOL    HW3 8815   0.360   2.003   3.837
 2196SOL    MW4 8816   0.414   1.956   3.886
 2197SOL     OW 8817   0.665   2.069   3.811
 2197SOL    HW2 8818   0.666   2.163   3.829
 2197SOL    HW3 8819   0.582   2.038   3.846
 2197SOL    MW4 8820   0.654   2.077   3.818
 2198SOL     OW 8821   0.648   2.337   3.841
 2198SOL    HW2 8822   0.731   2.377   3.815
 2198SOL    HW3 8823   0.581   2.393   3.803
 2198SOL    MW4 8824   0.650   2.349   3.833
 2199SOL     OW 8825   0.461   2.491   3.721
 2199SOL    HW2 8826   0.390   2.434   3.750
 2199SOL    HW3 8827   0.467   2.476   3.627
 2199SOL    MW4 8828   0.453   2.482   3.713
 2200SOL     OW 8829   0.452   2.725   3.877
 2200SOL    HW2 8830   0.533   2.765   3.845
 2200SOL    HW3 8831   0.448   2.641   3.830
 2200SOL    MW4 8832   0.462   2.719   3.867
 2201SOL     OW 8833   0.662   2.866   3.772
 2201SOL    HW2 8834   0.736   2.811   3.796
 2201SOL    HW3 8835   0.662   2.865   3.676
 2201SOL    MW4 8836   0.672   2.859   3.762
 2202SOL     OW 8837   0.656   3.129   3.865
 2202SOL    HW2 8838   0.642   3.121   3.960
 2202SOL    HW3 8839   0.658   3.039   3.833
 2202SOL    MW4 8840   0.655   3.116   3.873
 2203SOL     OW 8841   0.449   3.249   3.698
 2203SOL    HW2 8842   0.532   3.242   3.744
 2203SOL    HW3 8843   0.388   3.196   3.750
 2203SOL    MW4 8844   0.452   3.241   3.711
 2204SOL     OW 8845   0.438   3.493   3.850
 2204SOL    HW2 8846   0.520   3.532   3.821
 2204SOL    HW3 8847   0.431   3.411   3.800
 2204SOL    MW4 8848   0.448   3.487   3.839
 2205SOL     OW 8849   0.650   3.647   3.766
 2205SOL    HW2 8850   0.662   3.730   3.811
 2205SOL    HW3 8851   0.672   3.665   3.674
 2205SOL    MW4 8852   0.654   3.660   3.760
 2206SOL     OW 8853   0.666   3.903   3.871
 2206SOL    HW2 8854   0.661   3.930   3.962
 2206SOL    HW3 8855   0.745   3.943   3.837
 2206SOL    MW4 8856   0.676   3.912   3.879
 2207SOL     OW 8857   0.404   3.990   3.786
 2207SOL    HW2 8858   0.485   3.955   3.824
 2207SOL    HW3 8859   0.418   3.985   3.691
 2207SOL    MW4 8860   0.417   3.984   3.778
 2208SOL     OW 8861   0.446   4.254   3.852
 2208SOL    HW2 8862   0.529   4.296   3.831
 2208SOL    HW3 8863   0.456   4.163   3.821
 2208SOL    MW4 8864   0.458   4.247   3.845
 2209SOL     OW 8865   0.687   4.377   3.768
 2209SOL    HW2 8866   0.777   4.354   3.791
 2209SOL    HW3 8867   0.682   4.366   3.673
 2209SOL    MW4 8868   0.698   4.372   3.759
 2210SOL     OW 8869   1.083   4.647   3.858
 2210SOL    HW2 8870   1.164   4.696   3.848
 2210SOL    HW3 8871   1.103   4.560   3.823
 2210SOL    MW4 8872   1.096   4.642   3.852
 2211SOL     OW 8873   0.863   0.117   3.765
 2211SOL    HW2 8874   0.940   0.071   3.798
 2211SOL    HW3 8875   0.789   0.059   3.785
 2211SOL    MW4 8876   0.863   0.103   3.772
 2212SOL     OW 8877   0.924   0.391   3.869
 2212SOL    HW2 8878   0.900   0.389   3.962
 2212SOL    HW3 8879   0.901   0.304   3.836
 2212SOL    MW4 8880   0.918   0.379   3.877
 2213SOL     OW 8881   1.125   0.531   3.775
 2213SOL    HW2 8882   1.203   0.481   3.797
 2213SOL    HW3 8883   1.052   0.478   3.807
 2213SOL    MW4 8884   1.126   0.518   3.783
 2214SOL     OW 8885   1.107   0.796   3.860
 2214SOL    HW2 8886   1.111   0.796   3.956
 2214SOL    HW3 8887   1.121   0.705   3.835
 2214SOL    MW4 8888   1.109   0.784   3.870
 2215SOL     OW 8889   0.878   0.915   3.770
 2215SOL    HW2 8890   0.957   0.867   3.792
 2215SOL    HW3 8891   0.874   0.911   3.674
 2215SOL    MW4 8892   0.888   0.908   3.760
 2216SOL     OW 8893   0.928   1.167   3.856
 2216SOL    HW2 8894   0.902   1.155   3.948
 2216SOL    HW3 8895   0.909   1.083   3.815
 2216SOL    MW4 8896   0.922   1.154   3.863
 2217SOL     OW 8897   1.123   1.267   3.703
 2217SOL    HW2 8898   1.144   1.356   3.732
 2217SOL    HW3 8899   1.060   1.235   3.768
 2217SOL    MW4 8900   1.117   1.274   3.715
 2218SOL     OW 8901   1.145   1.527   3.814
 2218SOL    HW2 8902   1.132   1.532   3.909
 2218SOL    HW3 8903   1.229   1.570   3.799
 2218SOL    MW4 8904   1.154   1.533   3.824
 2219SOL     OW 8905   0.898   1.662   3.781
 2219SOL    HW2 8906   0.981   1.615   3.789
 2219SOL    HW3 8907   0.884   1.670   3.687
 2219SOL    MW4 8908   0.907   1.657   3.770
 2220SOL     OW 8909   0.911   1.936   3.868
 2220SOL    HW2 8910   0.915   1.843   3.848
 2220SOL    HW3 8911   0.819   1.960   3.853
 2220SOL    MW4 8912   0.900   1.927   3.863
 2221SOL     OW 8913   1.134   2.049   3.772
 2221SOL    HW2 8914   1.050   2.009   3.794
 2221SOL    HW3 8915   1.132   2.057   3.676
 2221SOL    MW4 8916   1.122   2.045   3.762
 2222SOL     OW 8917   1.066   2.309   3.870
 2222SOL    HW2 8918   1.078   2.326   3.963
 2222SOL    HW3 8919   1.088   2.217   3.860
 2222SOL    MW4 8920   1.071   2.299   3.881
 2223SOL     OW 8921   0.868   2.468   3.751
 2223SOL    HW2 8922   0.871   2.552   3.797
 2223SOL    HW3 8923   0.934   2.415   3.796
 2223SOL    MW4 8924   0.877   2.472   3.763
 2224SOL     OW 8925   0.879   2.723   3.863
 2224SOL    HW2 8926   0.885   2.747   3.955
 2224SOL    HW3 8927   0.959   2.758   3.823
 2224SOL    MW4 8928   0.891   2.731   3.870
 2225SOL     OW 8929   1.119   2.822   3.752
 2225SOL    HW2 8930   1.188   2.778   3.800
 2225SOL    HW3 8931   1.122   2.913   3.782
 2225SOL    MW4 8932   1.128   2.828   3.762
 2226SOL     OW 8933   1.130   3.102   3.880
 2226SOL    HW2 8934   1.203   3.135   3.827
 2226SOL    HW3 8935   1.056   3.158   3.856
 2226SOL    MW4 8936   1.130   3.114   3.870
 2227SOL     OW 8937   0.904   3.235   3.776
 2227SOL    HW2 8938   0.819   3.195   3.797
 2227SOL    HW3 8939   0.908   3.233   3.680
 2227SOL    MW4 8940   0.893   3.230   3.766
 2228SOL     OW 8941   0.859   3.506   3.875
 2228SOL    HW2 8942   0.849   3.414   3.849
 2228SOL    HW3 8943   0.782   3.549   3.838
 2228SOL    MW4 8944   0.848   3.499   3.866
 2229SOL     OW 8945   1.110   3.625   3.809
 2229SOL    HW2 8946   1.107   3.704   3.863
 2229SOL    HW3 8947   1.035   3.573   3.838
 2229SOL    MW4 8948   1.100   3.629   3.820
 2230SOL     OW 8949   1.108   3.893   3.891
 2230SOL    HW2 8950   1.127   3.907   3.984
 2230SOL    HW3 8951   1.189   3.918   3.846
 2230SOL    MW4 8952   1.121   3.898   3.897
 2231SOL     OW 8953   0.904   4.027   3.771
 2231SOL    HW2 8954   0.971   3.977   3.817
 2231SOL    HW3 8955   0.920   4.010   3.678
 2231SOL    MW4 8956   0.915   4.018   3.765
 2232SOL     OW 8957   0.920   4.276   3.893
 2232SOL    HW2 8958   0.931   4.262   3.987
 2232SOL    HW3 8959   0.914   4.187   3.857
 2232SOL    MW4 8960   0.921   4.262   3.901
 2233SOL     OW 8961   1.123   4.381   3.750
 2233SOL    HW2 8962   1.038   4.357   3.788
 2233SOL    HW3 8963   1.104   4.394   3.657
 2233SOL    MW4 8964   1.109   4.379   3.743
 2234SOL     OW 8965   1.561   4.626   3.858
 2234SOL    HW2 8966   1.560   4.635   3.953
 2234SOL    HW3 8967   1.557   4.531   3.843
 2234SOL    MW4 8968   1.560   4.614   3.868
 2235SOL     OW 8969   1.322   0.082   3.789
 2235SOL    HW2 8970   1.343   0.174   3.809
 2235SOL    HW3 8971   1.401   0.034   3.814
 2235SOL    MW4 8972   1.335   0.088   3.795
 2236SOL     OW 8973   1.331   0.361   3.859
 2236SOL    HW2 8974   1.334   0.365   3.955
 2236SOL    HW3 8975   1.411   0.404   3.831
 2236SOL    MW4 8976   1.342   0.367   3.868
 2237SOL     OW 8977   1.566   0.484   3.755
 2237SOL    HW2 8978   1.647   0.443   3.788
 2237SOL    HW3 8979   1.577   0.577   3.774
 2237SOL    MW4 8980   1.578   0.491   3.762
 2238SOL     OW 8981   1.576   0.758   3.787
 2238SOL    HW2 8982   1.652   0.817   3.783
 2238SOL    HW3 8983   1.500   0.817   3.787
 2238SOL    MW4 8984   1.576   0.774   3.786
 2239SOL     OW 8985   1.345   0.914   3.729
 2239SOL    HW2 8986   1.359   1.003   3.762
 2239SOL    HW3 8987   1.274   0.879   3.783
 2239SOL    MW4 8988   1.337   0.921   3.740
 2240SOL     OW 8989   1.357   1.175   3.822
 2240SOL    HW2 8990   1.441   1.207   3.788
 2240SOL    HW3 8991   1.291   1.221   3.769
 2240SOL    MW4 8992   1.359   1.185   3.811
 2241SOL     OW 8993   1.603   1.278   3.757
 2241SOL    HW2 8994   1.679   1.247   3.807
 2241SOL    HW3 8995   1.595   1.370   3.781
 2241SOL    MW4 8996   1.612   1.286   3.767
 2242SOL     OW 8997   1.603   1.547   3.849
 2242SOL    HW2 8998   1.592   1.550   3.944
 2242SOL    HW3 8999   1.690   1.584   3.833
 2242SOL    MW4 9000   1.613   1.552   3.859
 2243SOL     OW 9001   1.398   1.653   3.707
 2243SOL    HW2 9002   1.378   1.730   3.761
 2243SOL    HW3 9003   1.476   1.615   3.747
 2243SOL    MW4 9004   1.406   1.658   3.719
 2244SOL     OW 9005   1.367   1.884   3.849
 2244SOL    HW2 9006   1.354   1.875   3.944
 2244SOL    HW3 9007   1.289   1.931   3.819
 2244SOL    MW4 9008   1.355   1.889   3.858
 2245SOL     OW 9009   1.581   2.048   3.768
 2245SOL    HW2 9010   1.507   2.000   3.804
 2245SOL    HW3 9011   1.572   2.037   3.673
 2245SOL    MW4 9012   1.570   2.040   3.760
 2246SOL     OW 9013   1.543   2.330   3.834
 2246SOL    HW2 9014   1.612   2.386   3.799
 2246SOL    HW3 9015   1.552   2.248   3.786
 2246SOL    MW4 9016   1.553   2.327   3.823
 2247SOL     OW 9017   1.290   2.455   3.778
 2247SOL    HW2 9018   1.368   2.400   3.793
 2247SOL    HW3 9019   1.217   2.401   3.809
 2247SOL    MW4 9020   1.291   2.440   3.784
 2248SOL     OW 9021   1.340   2.712   3.857
 2248SOL    HW2 9022   1.363   2.713   3.950
 2248SOL    HW3 9023   1.323   2.620   3.837
 2248SOL    MW4 9024   1.341   2.700   3.866
 2249SOL     OW 9025   1.536   2.869   3.745
 2249SOL    HW2 9026   1.479   2.807   3.791
 2249SOL    HW3 9027   1.519   2.852   3.653
 2249SOL    MW4 9028   1.526   2.858   3.739
 2250SOL     OW 9029   1.548   3.106   3.881
 2250SOL    HW2 9030   1.563   3.072   3.969
 2250SOL    HW3 9031   1.550   3.028   3.825
 2250SOL    MW4 9032   1.550   3.091   3.885
 2251SOL     OW 9033   1.334   3.239   3.750
 2251SOL    HW2 9034   1.306   3.318   3.797
 2251SOL    HW3 9035   1.411   3.209   3.798
 2251SOL    MW4 9036   1.341   3.246   3.763
 2252SOL     OW 9037   1.336   3.483   3.890
 2252SOL    HW2 9038   1.409   3.533   3.854
 2252SOL    HW3 9039   1.259   3.538   3.873
 2252SOL    MW4 9040   1.335   3.497   3.883
 2253SOL     OW 9041   1.574   3.594   3.716
 2253SOL    HW2 9042   1.643   3.549   3.766
 2253SOL    HW3 9043   1.566   3.679   3.759
 2253SOL    MW4 9044   1.582   3.599   3.728
 2254SOL     OW 9045   1.556   3.834   3.843
 2254SOL    HW2 9046   1.553   3.839   3.939
 2254SOL    HW3 9047   1.484   3.890   3.814
 2254SOL    MW4 9048   1.546   3.842   3.852
 2255SOL     OW 9049   1.321   3.955   3.736
 2255SOL    HW2 9050   1.333   4.044   3.770
 2255SOL    HW3 9051   1.329   3.965   3.641
 2255SOL    MW4 9052   1.324   3.968   3.728
 2256SOL     OW 9053   1.349   4.183   3.851
 2256SOL    HW2 9054   1.419   4.241   3.820
 2256SOL    HW3 9055   1.268   4.233   3.836
 2256SOL    MW4 9056   1.347   4.198   3.845
 2257SOL     OW 9057   1.558   4.358   3.792
 2257SOL    HW2 9058   1.643   4.323   3.816
 2257SOL    HW3 9059   1.563   4.373   3.698
 2257SOL    MW4 9060   1.570   4.356   3.783
 2258SOL     OW 9061   2.023   4.630   3.883
 2258SOL    HW2 9062   2.108   4.669   3.862
 2258SOL    HW3 9063   2.023   4.546   3.837
 2258SOL    MW4 9064   2.034   4.624   3.874
 2259SOL     OW 9065   1.788   0.095   3.802
 2259SOL    HW2 9066   1.865   0.043   3.824
 2259SOL    HW3 9067   1.714   0.043   3.833
 2259SOL    MW4 9068   1.788   0.082   3.809
 2260SOL     OW 9069   1.793   0.365   3.851
 2260SOL    HW2 9070   1.804   0.379   3.945
 2260SOL    HW3 9071   1.800   0.270   3.840
 2260SOL    MW4 9072   1.796   0.354   3.862
 2261SOL     OW 9073   2.033   0.491   3.763
 2261SOL    HW2 9074   1.954   0.460   3.806
 2261SOL    HW3 9075   2.023   0.463   3.672
 2261SOL    MW4 9076   2.021   0.483   3.757
 2262SOL     OW 9077   2.025   0.757   3.807
 2262SOL    HW2 9078   2.021   0.758   3.903
 2262SOL    HW3 9079   2.031   0.664   3.784
 2262SOL    MW4 9080   2.025   0.745   3.817
 2263SOL     OW 9081   1.792   0.926   3.769
 2263SOL    HW2 9082   1.861   0.865   3.796
 2263SOL    HW3 9083   1.794   0.924   3.673
 2263SOL    MW4 9084   1.801   0.918   3.760
 2264SOL     OW 9085   1.823   1.175   3.884
 2264SOL    HW2 9086   1.822   1.171   3.980
 2264SOL    HW3 9087   1.804   1.086   3.857
 2264SOL    MW4 9088   1.820   1.163   3.893
 2265SOL     OW 9089   2.044   1.260   3.764
 2265SOL    HW2 9090   2.116   1.200   3.784
 2265SOL    HW3 9091   1.966   1.217   3.801
 2265SOL    MW4 9092   2.043   1.246   3.771
 2266SOL     OW 9093   2.067   1.519   3.876
 2266SOL    HW2 9094   1.991   1.575   3.859
 2266SOL    HW3 9095   2.046   1.436   3.833
 2266SOL    MW4 9096   2.054   1.516   3.868
 2267SOL     OW 9097   1.860   1.650   3.792
 2267SOL    HW2 9098   1.843   1.739   3.823
 2267SOL    HW3 9099   1.829   1.650   3.702
 2267SOL    MW4 9100   1.854   1.662   3.784
 2268SOL     OW 9101   1.784   1.892   3.873
 2268SOL    HW2 9102   1.789   1.915   3.966
 2268SOL    HW3 9103   1.708   1.939   3.840
 2268SOL    MW4 9104   1.775   1.901   3.881
 2269SOL     OW 9105   1.971   2.095   3.795
 2269SOL    HW2 9106   1.916   2.027   3.835
 2269SOL    HW3 9107   1.985   2.064   3.706
 2269SOL    MW4 9108   1.965   2.082   3.789
 2270SOL     OW 9109   1.941   2.357   3.938
 2270SOL    HW2 9110   1.905   2.411   3.867
 2270SOL    HW3 9111   1.948   2.270   3.900
 2270SOL    MW4 9112   1.937   2.353   3.923
 2271SOL     OW 9113   1.774   2.442   3.736
 2271SOL    HW2 9114   1.767   2.535   3.759
 2271SOL    HW3 9115   1.786   2.443   3.641
 2271SOL    MW4 9116   1.775   2.455   3.726
 2272SOL     OW 9117   1.747   2.700   3.862
 2272SOL    HW2 9118   1.773   2.741   3.944
 2272SOL    HW3 9119   1.680   2.758   3.826
 2272SOL    MW4 9120   1.741   2.713   3.868
 2273SOL     OW 9121   2.012   2.831   3.750
 2273SOL    HW2 9122   2.083   2.795   3.802
 2273SOL    HW3 9123   1.934   2.786   3.783
 2273SOL    MW4 9124   2.011   2.820   3.761
 2274SOL     OW 9125   2.020   3.110   3.843
 2274SOL    HW2 9126   2.029   3.026   3.799
 2274SOL    HW3 9127   2.098   3.160   3.818
 2274SOL    MW4 9128   2.031   3.106   3.834
 2275SOL     OW 9129   1.769   3.245   3.771
 2275SOL    HW2 9130   1.849   3.197   3.792
 2275SOL    HW3 9131   1.698   3.187   3.799
 2275SOL    MW4 9132   1.770   3.231   3.778
 2276SOL     OW 9133   1.773   3.508   3.897
 2276SOL    HW2 9134   1.850   3.555   3.867
 2276SOL    HW3 9135   1.782   3.420   3.861
 2276SOL    MW4 9136   1.784   3.502   3.888
 2277SOL     OW 9137   2.004   3.605   3.796
 2277SOL    HW2 9138   2.062   3.537   3.832
 2277SOL    HW3 9139   2.033   3.614   3.705
 2277SOL    MW4 9140   2.015   3.597   3.789
 2278SOL     OW 9141   2.027   3.864   3.902
 2278SOL    HW2 9142   2.109   3.895   3.863
 2278SOL    HW3 9143   2.016   3.776   3.867
 2278SOL    MW4 9144   2.036   3.856   3.892
 2279SOL     OW 9145   1.812   3.975   3.781
 2279SOL    HW2 9146   1.881   3.930   3.831
 2279SOL    HW3 9147   1.736   3.917   3.789
 2279SOL    MW4 9148   1.811   3.961   3.789
 2280SOL     OW 9149   1.812   4.233   3.877
 2280SOL    HW2 9150   1.885   4.278   3.834
 2280SOL    HW3 9151   1.811   4.146   3.838
 2280SOL    MW4 9152   1.822   4.228   3.866
 2281SOL     OW 9153   2.031   4.376   3.751
 2281SOL    HW2 9154   2.117   4.337   3.769
 2281SOL    HW3 9155   2.018   4.362   3.658
 2281SOL    MW4 9156   2.041   4.369   3.741
 2282SOL     OW 9157   2.495   4.632   3.845
 2282SOL    HW2 9158   2.491   4.657   3.937
 2282SOL    HW3 9159   2.562   4.689   3.808
 2282SOL    MW4 9160   2.503   4.642   3.852
 2283SOL     OW 9161   2.245   0.103   3.789
 2283SOL    HW2 9162   2.321   0.048   3.805
 2283SOL    HW3 9163   2.230   0.098   3.694
 2283SOL    MW4 9164   2.253   0.095   3.778
 2284SOL     OW 9165   2.271   0.378   3.880
 2284SOL    HW2 9166   2.273   0.283   3.876
 2284SOL    HW3 9167   2.200   0.404   3.822
 2284SOL    MW4 9168   2.262   0.369   3.872
 2285SOL     OW 9169   2.521   0.489   3.761
 2285SOL    HW2 9170   2.435   0.479   3.802
 2285SOL    HW3 9171   2.502   0.504   3.669
 2285SOL    MW4 9172   2.508   0.489   3.755
 2286SOL     OW 9173   2.511   0.764   3.834
 2286SOL    HW2 9174   2.423   0.789   3.804
 2286SOL    HW3 9175   2.522   0.674   3.802
 2286SOL    MW4 9176   2.501   0.755   3.826
 2287SOL     OW 9177   2.269   0.871   3.751
 2287SOL    HW2 9178   2.182   0.840   3.775
 2287SOL    HW3 9179   2.265   0.880   3.656
 2287SOL    MW4 9180   2.257   0.868   3.741
 2288SOL     OW 9181   2.283   1.124   3.834
 2288SOL    HW2 9182   2.278   1.118   3.929
 2288SOL    HW3 9183   2.280   1.033   3.804
 2288SOL    MW4 9184   2.282   1.111   3.842
 2289SOL     OW 9185   2.504   1.288   3.758
 2289SOL    HW2 9186   2.494   1.367   3.811
 2289SOL    HW3 9187   2.437   1.228   3.792
 2289SOL    MW4 9188   2.494   1.290   3.770
 2290SOL     OW 9189   2.478   1.543   3.874
 2290SOL    HW2 9190   2.562   1.588   3.861
 2290SOL    HW3 9191   2.415   1.596   3.824
 2290SOL    MW4 9192   2.481   1.556   3.865
 2291SOL     OW 9193   2.252   1.681   3.757
 2291SOL    HW2 9194   2.238   1.766   3.799
 2291SOL    HW3 9195   2.195   1.621   3.804
 2291SOL    MW4 9196   2.243   1.684   3.769
 2292SOL     OW 9197   2.183   1.939   3.868
 2292SOL    HW2 9198   2.177   1.935   3.964
 2292SOL    HW3 9199   2.116   2.002   3.843
 2292SOL    MW4 9200   2.173   1.947   3.877
 2293SOL     OW 9201   2.426   2.067   3.796
 2293SOL    HW2 9202   2.430   2.160   3.820
 2293SOL    HW3 9203   2.353   2.033   3.848
 2293SOL    MW4 9204   2.417   2.075   3.806
 2294SOL     OW 9205   2.423   2.329   3.881
 2294SOL    HW2 9206   2.497   2.365   3.833
 2294SOL    HW3 9207   2.349   2.385   3.857
 2294SOL    MW4 9208   2.423   2.341   3.872
 2295SOL     OW 9209   2.166   2.454   3.802
 2295SOL    HW2 9210   2.103   2.388   3.832
 2295SOL    HW3 9211   2.164   2.447   3.706
 2295SOL    MW4 9212   2.157   2.444   3.793
 2296SOL     OW 9213   2.233   2.720   3.867
 2296SOL    HW2 9214   2.258   2.719   3.960
 2296SOL    HW3 9215   2.191   2.636   3.853
 2296SOL    MW4 9216   2.231   2.709   3.878
 2297SOL     OW 9217   2.470   2.840   3.755
 2297SOL    HW2 9218   2.398   2.783   3.781
 2297SOL    HW3 9219   2.478   2.827   3.660
 2297SOL    MW4 9220   2.461   2.831   3.746
 2298SOL     OW 9221   2.462   3.106   3.849
 2298SOL    HW2 9222   2.450   3.099   3.944
 2298SOL    HW3 9223   2.459   3.016   3.817
 2298SOL    MW4 9224   2.460   3.094   3.857
 2299SOL     OW 9225   2.243   3.245   3.754
 2299SOL    HW2 9226   2.239   3.324   3.809
 2299SOL    HW3 9227   2.321   3.199   3.785
 2299SOL    MW4 9228   2.253   3.249   3.766
 2300SOL     OW 9229   2.238   3.474   3.902
 2300SOL    HW2 9230   2.260   3.474   3.995
 2300SOL    HW3 9231   2.306   3.528   3.861
 2300SOL    MW4 9232   2.250   3.481   3.909
 2301SOL     OW 9233   2.455   3.593   3.750
 2301SOL    HW2 9234   2.525   3.539   3.786
 2301SOL    HW3 9235   2.452   3.571   3.657
 2301SOL    MW4 9236   2.464   3.583   3.743
 2302SOL     OW 9237   2.490   3.849   3.842
 2302SOL    HW2 9238   2.564   3.894   3.801
 2302SOL    HW3 9239   2.481   3.767   3.794
 2302SOL    MW4 9240   2.498   3.844   3.831
 2303SOL     OW 9241   2.261   3.989   3.766
 2303SOL    HW2 9242   2.347   3.954   3.789
 2303SOL    HW3 9243   2.253   3.971   3.672
 2303SOL    MW4 9244   2.271   3.982   3.757
 2304SOL     OW 9245   2.266   4.257   3.819
 2304SOL    HW2 9246   2.256   4.266   3.914
 2304SOL    HW3 9247   2.264   4.162   3.804
 2304SOL    MW4 9248   2.264   4.245   3.830
 2305SOL     OW 9249   2.518   4.368   3.753
 2305SOL    HW2 9250   2.429   4.337   3.772
 2305SOL    HW3 9251   2.515   4.462   3.768
 2305SOL    MW4 9252   2.506   4.376   3.758
 2306SOL     OW 9253   2.933   4.615   3.817
 2306SOL    HW2 9254   2.919   4.626   3.911
 2306SOL    HW3 9255   3.008   4.671   3.797
 2306SOL    MW4 9256   2.941   4.624   3.827
 2307SOL     OW 9257   2.735   0.123   3.759
 2307SOL    HW2 9258   2.792   0.050   3.783
 2307SOL    HW3 9259   2.743   0.130   3.664
 2307SOL    MW4 9260   2.743   0.115   3.750
 2308SOL     OW 9261   2.736   0.380   3.870
 2308SOL    HW2 9262   2.740   0.293   3.830
 2308SOL    HW3 9263   2.653   0.416   3.841
 2308SOL    MW4 9264   2.726   0.373   3.861
 2309SOL     OW 9265   2.924   0.518   3.734
 2309SOL    HW2 9266   3.006   0.476   3.758
 2309SOL    HW3 9267   2.858   0.475   3.789
 2309SOL    MW4 9268   2.926   0.507   3.745
 2310SOL     OW 9269   2.948   0.753   3.876
 2310SOL    HW2 9270   3.027   0.802   3.852
 2310SOL    HW3 9271   2.953   0.673   3.823
 2310SOL    MW4 9272   2.959   0.749   3.866
 2311SOL     OW 9273   2.737   0.913   3.791
 2311SOL    HW2 9274   2.816   0.867   3.819
 2311SOL    HW3 9275   2.665   0.852   3.810
 2311SOL    MW4 9276   2.738   0.899   3.797
 2312SOL     OW 9277   2.730   1.184   3.895
 2312SOL    HW2 9278   2.740   1.092   3.870
 2312SOL    HW3 9279   2.649   1.213   3.853
 2312SOL    MW4 9280   2.721   1.176   3.886
 2313SOL     OW 9281   2.935   1.334   3.752
 2313SOL    HW2 9282   2.934   1.421   3.792
 2313SOL    HW3 9283   2.867   1.286   3.798
 2313SOL    MW4 9284   2.926   1.339   3.763
 2314SOL     OW 9285   2.956   1.574   3.879
 2314SOL    HW2 9286   2.957   1.558   3.974
 2314SOL    HW3 9287   3.045   1.603   3.858
 2314SOL    MW4 9288   2.968   1.575   3.889
 2315SOL     OW 9289   2.714   1.706   3.815
 2315SOL    HW2 9290   2.797   1.668   3.843
 2315SOL    HW3 9291   2.708   1.687   3.722
 2315SOL    MW4 9292   2.724   1.699   3.806
 2316SOL     OW 9293   2.656   1.959   3.919
 2316SOL    HW2 9294   2.681   1.871   3.888
 2316SOL    HW3 9295   2.576   1.979   3.871
 2316SOL    MW4 9296   2.649   1.950   3.909
 2317SOL     OW 9297   2.892   2.066   3.820
 2317SOL    HW2 9298   2.903   2.156   3.850
 2317SOL    HW3 9299   2.806   2.039   3.854
 2317SOL    MW4 9300   2.882   2.074   3.829
 2318SOL     OW 9301   2.904   2.350   3.860
 2318SOL    HW2 9302   2.908   2.355   3.955
 2318SOL    HW3 9303   2.982   2.396   3.830
 2318SOL    MW4 9304   2.915   2.357   3.868
 2319SOL     OW 9305   2.662   2.444   3.775
 2319SOL    HW2 9306   2.667   2.526   3.824
 2319SOL    HW3 9307   2.741   2.396   3.801
 2319SOL    MW4 9308   2.673   2.449   3.785
 2320SOL     OW 9309   2.694   2.702   3.872
 2320SOL    HW2 9310   2.708   2.730   3.963
 2320SOL    HW3 9311   2.619   2.753   3.843
 2320SOL    MW4 9312   2.686   2.712   3.880
 2321SOL     OW 9313   2.942   2.804   3.805
 2321SOL    HW2 9314   2.929   2.895   3.833
 2321SOL    HW3 9315   2.860   2.761   3.825
 2321SOL    MW4 9316   2.930   2.811   3.812
 2322SOL     OW 9317   2.927   3.067   3.886
 2322SOL    HW2 9318   3.002   3.120   3.860
 2322SOL    HW3 9319   2.852   3.126   3.880
 2322SOL    MW4 9320   2.927   3.082   3.882
 2323SOL     OW 9321   2.697   3.227   3.782
 2323SOL    HW2 9322   2.696   3.317   3.815
 2323SOL    HW3 9323   2.620   3.186   3.821
 2323SOL    MW4 9324   2.687   3.234   3.791
 2324SOL     OW 9325   2.674   3.479   3.869
 2324SOL    HW2 9326   2.696   3.467   3.962
 2324SOL    HW3 9327   2.751   3.521   3.832
 2324SOL    MW4 9328   2.687   3.483   3.877
 2325SOL     OW 9329   2.897   3.598   3.763
 2325SOL    HW2 9330   2.968   3.541   3.792
 2325SOL    HW3 9331   2.895   3.587   3.668
 2325SOL    MW4 9332   2.906   3.589   3.754
 2326SOL     OW 9333   2.921   3.858   3.826
 2326SOL    HW2 9334   2.908   3.868   3.921
 2326SOL    HW3 9335   2.907   3.765   3.810
 2326SOL    MW4 9336   2.917   3.847   3.837
 2327SOL     OW 9337   2.696   3.994   3.727
 2327SOL    HW2 9338   2.696   4.081   3.767
 2327SOL    HW3 9339   2.774   3.951   3.761
 2327SOL    MW4 9340   2.706   4.000   3.737
 2328SOL     OW 9341   2.728   4.220   3.875
 2328SOL    HW2 9342   2.812   4.249   3.837
 2328SOL    HW3 9343   2.665   4.285   3.844
 2328SOL    MW4 9344   2.731   4.232   3.866
 2329SOL     OW 9345   2.931   4.354   3.707
 2329SOL    HW2 9346   3.005   4.315   3.754
 2329SOL    HW3 9347   2.918   4.439   3.749
 2329SOL    MW4 9348   2.939   4.360   3.719
 2330SOL     OW 9349   3.352   4.660   3.866
 2330SOL    HW2 9350   3.351   4.657   3.962
 2330SOL    HW3 9351   3.431   4.709   3.844
 2330SOL    MW4 9352   3.362   4.666   3.876
 2331SOL     OW 9353   3.126   0.135   3.738
 2331SOL    HW2 9354   3.205   0.095   3.774
 2331SOL    HW3 9355   3.141   0.138   3.644
 2331SOL    MW4 9356   3.138   0.131   3.731
 2332SOL     OW 9357   3.160   0.405   3.839
 2332SOL    HW2 9358   3.136   0.398   3.931
 2332SOL    HW3 9359   3.176   0.315   3.811
 2332SOL    MW4 9360   3.159   0.392   3.847
 2333SOL     OW 9361   3.403   0.543   3.786
 2333SOL    HW2 9362   3.472   0.489   3.824
 2333SOL    HW3 9363   3.322   0.494   3.799
 2333SOL    MW4 9364   3.402   0.529   3.792
 2334SOL     OW 9365   3.354   0.800   3.883
 2334SOL    HW2 9366   3.360   0.787   3.977
 2334SOL    HW3 9367   3.360   0.712   3.845
 2334SOL    MW4 9368   3.355   0.787   3.890
 2335SOL     OW 9369   3.146   0.927   3.774
 2335SOL    HW2 9370   3.222   0.886   3.816
 2335SOL    HW3 9371   3.154   0.903   3.681
 2335SOL    MW4 9372   3.157   0.918   3.767
 2336SOL     OW 9373   3.125   1.188   3.883
 2336SOL    HW2 9374   3.115   1.107   3.833
 2336SOL    HW3 9375   3.055   1.245   3.850
 2336SOL    MW4 9376   3.114   1.185   3.872
 2337SOL     OW 9377   3.380   1.277   3.814
 2337SOL    HW2 9378   3.297   1.258   3.858
 2337SOL    HW3 9379   3.357   1.285   3.722
 2337SOL    MW4 9380   3.366   1.275   3.808
 2338SOL     OW 9381   3.422   1.537   3.929
 2338SOL    HW2 9382   3.362   1.607   3.903
 2338SOL    HW3 9383   3.404   1.466   3.867
 2338SOL    MW4 9384   3.411   1.537   3.918
 2339SOL     OW 9385   3.225   1.711   3.819
 2339SOL    HW2 9386   3.179   1.792   3.841
 2339SOL    HW3 9387   3.207   1.698   3.726
 2339SOL    MW4 9388   3.217   1.720   3.810
 2340SOL     OW 9389   3.109   1.932   3.917
 2340SOL    HW2 9390   3.124   1.947   4.011
 2340SOL    HW3 9391   3.037   1.991   3.895
 2340SOL    MW4 9392   3.102   1.942   3.927
 2341SOL     OW 9393   3.360   2.031   3.826
 2341SOL    HW2 9394   3.276   1.987   3.838
 2341SOL    HW3 9395   3.367   2.043   3.731
 2341SOL    MW4 9396   3.350   2.027   3.815
 2342SOL     OW 9397   3.368   2.317   3.892
 2342SOL    HW2 9398   3.283   2.352   3.866
 2342SOL    HW3 9399   3.363   2.224   3.870
 2342SOL    MW4 9400   3.356   2.309   3.886
 2343SOL     OW 9401   3.145   2.470   3.800
 2343SOL    HW2 9402   3.169   2.556   3.835
 2343SOL    HW3 9403   3.159   2.479   3.705
 2343SOL    MW4 9404   3.150   2.483   3.792
 2344SOL     OW 9405   3.187   2.719   3.902
 2344SOL    HW2 9406   3.167   2.696   3.993
 2344SOL    HW3 9407   3.106   2.756   3.867
 2344SOL    MW4 9408   3.174   2.721   3.910
 2345SOL     OW 9409   3.421   2.815   3.817
 2345SOL    HW2 9410   3.344   2.778   3.859
 2345SOL    HW3 9411   3.412   2.792   3.725
 2345SOL    MW4 9412   3.410   2.807   3.811
 2346SOL     OW 9413   3.394   3.077   3.907
 2346SOL    HW2 9414   3.471   3.118   3.867
 2346SOL    HW3 9415   3.388   2.991   3.866
 2346SOL    MW4 9416   3.403   3.071   3.896
 2347SOL     OW 9417   3.159   3.185   3.807
 2347SOL    HW2 9418   3.238   3.143   3.842
 2347SOL    HW3 9419   3.173   3.188   3.712
 2347SOL    MW4 9420   3.171   3.180   3.799
 2348SOL     OW 9421   3.098   3.451   3.867
 2348SOL    HW2 9422   3.179   3.490   3.833
 2348SOL    HW3 9423   3.111   3.356   3.859
 2348SOL    MW4 9424   3.110   3.443   3.861
 2349SOL     OW 9425   3.336   3.572   3.747
 2349SOL    HW2 9426   3.331   3.654   3.796
 2349SOL    HW3 9427   3.361   3.599   3.658
 2349SOL    MW4 9428   3.339   3.587   3.742
 2350SOL     OW 9429   3.351   3.828   3.850
 2350SOL    HW2 9430   3.434   3.870   3.826
 2350SOL    HW3 9431   3.284   3.878   3.803
 2350SOL    MW4 9432   3.353   3.840   3.840
 2351SOL     OW 9433   3.149   3.990   3.746
 2351SOL    HW2 9434   3.143   4.078   3.783
 2351SOL    HW3 9435   3.067   3.948   3.771
 2351SOL    MW4 9436   3.137   3.996   3.754
 2352SOL     OW 9437   3.135   4.239   3.847
 2352SOL    HW2 9438   3.119   4.246   3.941
 2352SOL    HW3 9439   3.210   4.296   3.830
 2352SOL    MW4 9440   3.142   4.247   3.857
 2353SOL     OW 9441   3.337   4.386   3.781
 2353SOL    HW2 9442   3.429   4.360   3.778
 2353SOL    HW3 9443   3.337   4.471   3.825
 2353SOL    MW4 9444   3.349   4.394   3.786
 2354SOL     OW 9445   3.807   0.006   3.872
 2354SOL    HW2 9446   3.897   0.036   3.859
 2354SOL    HW3 9447   3.806  -0.083   3.837
 2354SOL    MW4 9448   3.819  -0.002   3.866
 2355SOL     OW 9449   3.572   0.137   3.764
 2355SOL    HW2 9450   3.658   0.113   3.799
 2355SOL    HW3 9451   3.584   0.135   3.669
 2355SOL    MW4 9452   3.585   0.133   3.756
 2356SOL     OW 9453   3.584   0.377   3.884
 2356SOL    HW2 9454   3.670   0.416   3.867
 2356SOL    HW3 9455   3.584   0.295   3.834
 2356SOL    MW4 9456   3.596   0.371   3.875
 2357SOL     OW 9457   3.843   0.478   3.814
 2357SOL    HW2 9458   3.914   0.437   3.862
 2357SOL    HW3 9459   3.833   0.565   3.854
 2357SOL    MW4 9460   3.851   0.484   3.825
 2358SOL     OW 9461   3.788   0.739   3.899
 2358SOL    HW2 9462   3.843   0.807   3.861
 2358SOL    HW3 9463   3.698   0.766   3.878
 2358SOL    MW4 9464   3.783   0.751   3.891
 2359SOL     OW 9465   3.579   0.902   3.767
 2359SOL    HW2 9466   3.601   0.984   3.812
 2359SOL    HW3 9467   3.497   0.874   3.808
 2359SOL    MW4 9468   3.571   0.909   3.779
 2360SOL     OW 9469   3.614   1.151   3.877
 2360SOL    HW2 9470   3.674   1.204   3.825
 2360SOL    HW3 9471   3.527   1.183   3.854
 2360SOL    MW4 9472   3.610   1.162   3.867
 2361SOL     OW 9473   3.805   1.308   3.755
 2361SOL    HW2 9474   3.886   1.261   3.775
 2361SOL    HW3 9475   3.800   1.377   3.821
 2361SOL    MW4 9476   3.815   1.311   3.767
 2362SOL     OW 9477   3.807   1.514   3.936
 2362SOL    HW2 9478   3.849   1.526   4.021
 2362SOL    HW3 9479   3.750   1.590   3.925
 2362SOL    MW4 9480   3.805   1.526   3.946
 2363SOL     OW 9481   3.624   1.696   3.840
 2363SOL    HW2 9482   3.569   1.625   3.872
 2363SOL    HW3 9483   3.593   1.712   3.751
 2363SOL    MW4 9484   3.613   1.689   3.833
 2364SOL     OW 9485   3.618   1.950   3.958
 2364SOL    HW2 9486   3.616   1.860   3.926
 2364SOL    HW3 9487   3.536   1.988   3.928
 2364SOL    MW4 9488   3.607   1.943   3.950
 2365SOL     OW 9489   3.818   2.054   3.820
 2365SOL    HW2 9490   3.890   1.994   3.840
 2365SOL    HW3 9491   3.747   2.027   3.878
 2365SOL    MW4 9492   3.818   2.043   3.830
 2366SOL     OW 9493   3.844   2.297   3.947
 2366SOL    HW2 9494   3.765   2.342   3.916
 2366SOL    HW3 9495   3.836   2.209   3.910
 2366SOL    MW4 9496   3.832   2.292   3.938
 2367SOL     OW 9497   3.632   2.450   3.820
 2367SOL    HW2 9498   3.551   2.401   3.838
 2367SOL    HW3 9499   3.633   2.459   3.725
 2367SOL    MW4 9500   3.621   2.444   3.810
 2368SOL     OW 9501   3.638   2.687   3.946
 2368SOL    HW2 9502   3.631   2.603   3.901
 2368SOL    HW3 9503   3.567   2.739   3.910
 2368SOL    MW4 9504   3.628   2.683   3.935
 2369SOL     OW 9505   3.818   2.826   3.746
 2369SOL    HW2 9506   3.901   2.810   3.791
 2369SOL    HW3 9507   3.754   2.773   3.793
 2369SOL    MW4 9508   3.821   2.817   3.758
 2370SOL     OW 9509   3.835   3.094   3.865
 2370SOL    HW2 9510   3.761   3.147   3.834
 2370SOL    HW3 9511   3.819   3.007   3.829
 2370SOL    MW4 9512   3.823   3.089   3.856
 2371SOL     OW 9513   3.608   3.229   3.781
 2371SOL    HW2 9514   3.607   3.318   3.815
 2371SOL    HW3 9515   3.615   3.238   3.686
 2371SOL    MW4 9516   3.609   3.242   3.773
 2372SOL     OW 9517   3.594   3.492   3.838
 2372SOL    HW2 9518   3.592   3.502   3.934
 2372SOL    HW3 9519   3.505   3.513   3.810
 2372SOL    MW4 9520   3.582   3.496   3.847
 2373SOL     OW 9521   3.830   3.617   3.754
 2373SOL    HW2 9522   3.833   3.707   3.788
 2373SOL    HW3 9523   3.747   3.582   3.786
 2373SOL    MW4 9524   3.819   3.624   3.763
 2374SOL     OW 9525   3.836   3.875   3.855
 2374SOL    HW2 9526   3.822   3.901   3.946
 2374SOL    HW3 9527   3.912   3.927   3.827
 2374SOL    MW4 9528   3.844   3.885   3.863
 2375SOL     OW 9529   3.590   3.959   3.773
 2375SOL    HW2 9530   3.589   4.039   3.825
 2375SOL    HW3 9531   3.677   3.922   3.786
 2375SOL    MW4 9532   3.601   3.965   3.781
 2376SOL     OW 9533   3.613   4.248   3.863
 2376SOL    HW2 9534   3.606   4.243   3.958
 2376SOL    HW3 9535   3.685   4.309   3.847
 2376SOL    MW4 9536   3.621   4.255   3.873
 2377SOL     OW 9537   3.826   4.409   3.797
 2377SOL    HW2 9538   3.903   4.366   3.835
 2377SOL    HW3 9539   3.839   4.401   3.702
 2377SOL    MW4 9540   3.838   4.402   3.789
 2378SOL     OW 9541   4.282   4.613   3.882
 2378SOL    HW2 9542   4.260   4.630   3.974
 2378SOL    HW3 9543   4.353   4.674   3.863
 2378SOL    MW4 9544   4.288   4.623   3.892
 2379SOL     OW 9545   4.064   0.093   3.788
 2379SOL    HW2 9546   4.141   0.040   3.808
 2379SOL    HW3 9547   4.057   0.092   3.693
 2379SOL    MW4 9548   4.073   0.086   3.778
 2380SOL     OW 9549   4.080   0.362   3.914
 2380SOL    HW2 9550   4.076   0.346   4.008
 2380SOL    HW3 9551   4.081   0.275   3.875
 2380SOL    MW4 9552   4.079   0.348   3.921
 2381SOL     OW 9553   4.298   0.493   3.811
 2381SOL    HW2 9554   4.220   0.452   3.848
 2381SOL    HW3 9555   4.284   0.488   3.716
 2381SOL    MW4 9556   4.286   0.487   3.803
 2382SOL     OW 9557   4.244   0.757   3.845
 2382SOL    HW2 9558   4.156   0.793   3.838
 2382SOL    HW3 9559   4.234   0.665   3.821
 2382SOL    MW4 9560   4.231   0.750   3.841
 2383SOL     OW 9561   3.974   0.921   3.787
 2383SOL    HW2 9562   3.996   1.012   3.806
 2383SOL    HW3 9563   3.984   0.914   3.692
 2383SOL    MW4 9564   3.978   0.932   3.777
 2384SOL     OW 9565   4.017   1.174   3.866
 2384SOL    HW2 9566   4.015   1.165   3.961
 2384SOL    HW3 9567   4.099   1.221   3.847
 2384SOL    MW4 9568   4.027   1.179   3.876
 2385SOL     OW 9569   4.263   1.268   3.778
 2385SOL    HW2 9570   4.260   1.361   3.802
 2385SOL    HW3 9571   4.270   1.268   3.683
 2385SOL    MW4 9572   4.264   1.280   3.768
 2386SOL     OW 9573   4.212   1.527   3.919
 2386SOL    HW2 9574   4.129   1.553   3.879
 2386SOL    HW3 9575   4.279   1.570   3.866
 2386SOL    MW4 9576   4.210   1.536   3.907
 2387SOL     OW 9577   3.996   1.657   3.799
 2387SOL    HW2 9578   4.002   1.742   3.843
 2387SOL    HW3 9579   3.924   1.611   3.843
 2387SOL    MW4 9580   3.987   1.662   3.811
 2388SOL     OW 9581   4.039   1.914   3.895
 2388SOL    HW2 9582   4.065   1.913   3.987
 2388SOL    HW3 9583   4.114   1.952   3.850
 2388SOL    MW4 9584   4.052   1.918   3.901
 2389SOL     OW 9585   4.252   2.048   3.777
 2389SOL    HW2 9586   4.254   2.143   3.786
 2389SOL    HW3 9587   4.247   2.033   3.683
 2389SOL    MW4 9588   4.252   2.059   3.766
 2390SOL     OW 9589   4.274   2.350   3.823
 2390SOL    HW2 9590   4.267   2.348   3.918
 2390SOL    HW3 9591   4.190   2.386   3.794
 2390SOL    MW4 9592   4.262   2.354   3.832
 2391SOL     OW 9593   4.019   2.455   3.754
 2391SOL    HW2 9594   4.018   2.546   3.786
 2391SOL    HW3 9595   3.969   2.406   3.819
 2391SOL    MW4 9596   4.012   2.461   3.767
 2392SOL     OW 9597   4.032   2.727   3.882
 2392SOL    HW2 9598   4.043   2.737   3.977
 2392SOL    HW3 9599   4.115   2.757   3.845
 2392SOL    MW4 9600   4.045   2.732   3.890
 2393SOL     OW 9601   4.268   2.813   3.749
 2393SOL    HW2 9602   4.272   2.899   3.792
 2393SOL    HW3 9603   4.351   2.771   3.772
 2393SOL    MW4 9604   4.279   2.819   3.758
 2394SOL     OW 9605   4.288   3.051   3.870
 2394SOL    HW2 9606   4.217   3.115   3.861
 2394SOL    HW3 9607   4.366   3.098   3.843
 2394SOL    MW4 9608   4.289   3.066   3.865
 2395SOL     OW 9609   4.063   3.222   3.780
 2395SOL    HW2 9610   3.984   3.172   3.801
 2395SOL    HW3 9611   4.060   3.233   3.685
 2395SOL    MW4 9612   4.052   3.217   3.770
 2396SOL     OW 9613   4.050   3.477   3.880
 2396SOL    HW2 9614   4.055   3.388   3.843
 2396SOL    HW3 9615   3.976   3.517   3.835
 2396SOL    MW4 9616   4.041   3.470   3.869
 2397SOL     OW 9617   4.238   3.605   3.730
 2397SOL    HW2 9618   4.171   3.563   3.784
 2397SOL    HW3 9619   4.321   3.579   3.769
 2397SOL    MW4 9620   4.240   3.596   3.742
 2398SOL     OW 9621   4.256   3.868   3.877
 2398SOL    HW2 9622   4.176   3.913   3.851
 2398SOL    HW3 9623   4.250   3.782   3.835
 2398SOL    MW4 9624   4.245   3.862   3.868
 2399SOL     OW 9625   4.045   4.010   3.758
 2399SOL    HW2 9626   4.035   4.103   3.776
 2399SOL    HW3 9627   4.046   4.004   3.662
 2399SOL    MW4 9628   4.044   4.021   3.748
 2400SOL     OW 9629   4.046   4.268   3.871
 2400SOL    HW2 9630   4.038   4.267   3.967
 2400SOL    HW3 9631   4.127   4.315   3.854
 2400SOL    MW4 9632   4.055   4.274   3.882
 2401SOL     OW 9633   4.309   4.350   3.792
 2401SOL    HW2 9634   4.331   4.438   3.822
 2401SOL    HW3 9635   4.384   4.296   3.819
 2401SOL    MW4 9636   4.322   4.355   3.800
 2402SOL     OW 9637   0.222   4.640   4.145
 2402SOL    HW2 9638   0.297   4.672   4.195
 2402SOL    HW3 9639   0.208   4.551   4.176
 2402SOL    MW4 9640   0.230   4.633   4.156
 2403SOL     OW 9641   4.485   0.103   4.240
 2403SOL    HW2 9642   4.491   0.110   4.336
 2403SOL    HW3 9643   4.562   0.050   4.216
 2403SOL    MW4 9644   4.496   0.097   4.250
 2404SOL     OW 9645   0.059   0.381   4.157
 2404SOL    HW2 9646   0.065   0.290   4.187
 2404SOL    HW3 9647   0.048   0.374   4.062
 2404SOL    MW4 9648   0.058   0.368   4.148
 2405SOL     OW 9649   0.289   0.534   4.257
 2405SOL    HW2 9650   0.363   0.475   4.242
 2405SOL    HW3 9651   0.212   0.480   4.239
 2405SOL    MW4 9652   0.289   0.519   4.253
 2406SOL     OW 9653   0.260   0.790   4.118
 2406SOL    HW2 9654   0.188   0.838   4.158
 2406SOL    HW3 9655   0.262   0.707   4.166
 2406SOL    MW4 9656   0.251   0.785   4.130
 2407SOL     OW 9657   0.043   0.905   4.239
 2407SOL    HW2 9658  -0.038   0.853   4.237
 2407SOL    HW3 9659   0.013   0.995   4.247
 2407SOL    MW4 9660   0.028   0.910   4.240
 2408SOL     OW 9661   4.449   1.169   4.185
 2408SOL    HW2 9662   4.522   1.230   4.201
 2408SOL    HW3 9663   4.454   1.148   4.092
 2408SOL    MW4 9664   4.459   1.174   4.175
 2409SOL     OW 9665   0.209   1.293   4.225
 2409SOL    HW2 9666   0.221   1.304   4.319
 2409SOL    HW3 9667   0.277   1.231   4.199
 2409SOL    MW4 9668   0.219   1.286   4.234
 2410SOL     OW 9669   4.470   2.031   4.833
 2410SOL    HW2 9670   4.509   2.118   4.844
 2410SOL    HW3 9671   4.486   2.009   4.741
 2410SOL    MW4 9672   4.478   2.039   4.823
 2411SOL     OW 9673   0.033   1.707   4.252
 2411SOL    HW2 9674  -0.043   1.658   4.220
 2411SOL    HW3 9675   0.022   1.794   4.215
 2411SOL    MW4 9676   0.021   1.712   4.243
 2412SOL     OW 9677   0.203   2.070   4.258
 2412SOL    HW2 9678   0.199   2.102   4.348
 2412SOL    HW3 9679   0.287   2.025   4.252
 2412SOL    MW4 9680   0.213   2.068   4.269
 2413SOL     OW 9681   0.630   1.647   4.630
 2413SOL    HW2 9682   0.543   1.638   4.593
 2413SOL    HW3 9683   0.647   1.741   4.629
 2413SOL    MW4 9684   0.621   1.658   4.625
 2414SOL     OW 9685   0.260   2.294   4.126
 2414SOL    HW2 9686   0.314   2.344   4.188
 2414SOL    HW3 9687   0.242   2.212   4.171
 2414SOL    MW4 9688   0.265   2.290   4.140
 2415SOL     OW 9689   0.041   2.438   4.208
 2415SOL    HW2 9690  -0.039   2.409   4.164
 2415SOL    HW3 9691   0.111   2.386   4.169
 2415SOL    MW4 9692   0.040   2.427   4.197
 2416SOL     OW 9693   0.019   2.705   4.149
 2416SOL    HW2 9694   0.085   2.755   4.198
 2416SOL    HW3 9695   0.032   2.615   4.176
 2416SOL    MW4 9696   0.029   2.700   4.159
 2417SOL     OW 9697   0.200   2.871   4.279
 2417SOL    HW2 9698   0.271   2.807   4.272
 2417SOL    HW3 9699   0.223   2.939   4.217
 2417SOL    MW4 9700   0.212   2.871   4.270
 2418SOL     OW 9701   0.224   3.092   4.124
 2418SOL    HW2 9702   0.295   3.141   4.166
 2418SOL    HW3 9703   0.145   3.122   4.169
 2418SOL    MW4 9704   0.223   3.103   4.135
 2419SOL     OW 9705   0.030   3.204   4.264
 2419SOL    HW2 9706  -0.055   3.161   4.251
 2419SOL    HW3 9707   0.018   3.292   4.229
 2419SOL    MW4 9708   0.017   3.210   4.257
 2420SOL     OW 9709   0.008   3.472   4.155
 2420SOL    HW2 9710  -0.081   3.506   4.168
 2420SOL    HW3 9711   0.022   3.474   4.060
 2420SOL    MW4 9712  -0.002   3.477   4.144
 2421SOL     OW 9713   0.203   3.613   4.278
 2421SOL    HW2 9714   0.285   3.566   4.258
 2421SOL    HW3 9715   0.135   3.560   4.236
 2421SOL    MW4 9716   0.205   3.600   4.269
 2422SOL     OW 9717   0.249   3.867   4.165
 2422SOL    HW2 9718   0.175   3.918   4.198
 2422SOL    HW3 9719   0.238   3.780   4.203
 2422SOL    MW4 9720   0.238   3.863   4.174
 2423SOL     OW 9721   0.036   3.992   4.286
 2423SOL    HW2 9722   0.043   3.993   4.382
 2423SOL    HW3 9723  -0.056   3.974   4.269
 2423SOL    MW4 9724   0.025   3.990   4.296
 2424SOL     OW 9725   0.001   4.213   4.130
 2424SOL    HW2 9726   0.019   4.134   4.182
 2424SOL    HW3 9727   0.013   4.185   4.039
 2424SOL    MW4 9728   0.005   4.198   4.125
 2425SOL     OW 9729   0.188   4.380   4.220
 2425SOL    HW2 9730   0.187   4.351   4.312
 2425SOL    HW3 9731   0.124   4.324   4.177
 2425SOL    MW4 9732   0.179   4.368   4.227
 2426SOL     OW 9733   0.702   4.645   4.157
 2426SOL    HW2 9734   0.626   4.686   4.199
 2426SOL    HW3 9735   0.686   4.656   4.063
 2426SOL    MW4 9736   0.690   4.652   4.150
 2427SOL     OW 9737   0.465   0.066   4.254
 2427SOL    HW2 9738   0.482   0.048   4.347
 2427SOL    HW3 9739   0.486   0.159   4.244
 2427SOL    MW4 9740   0.470   0.076   4.265
 2428SOL     OW 9741   0.482   0.333   4.182
 2428SOL    HW2 9742   0.553   0.396   4.191
 2428SOL    HW3 9743   0.457   0.339   4.089
 2428SOL    MW4 9744   0.488   0.342   4.171
 2429SOL     OW 9745   0.684   0.504   4.288
 2429SOL    HW2 9746   0.760   0.462   4.246
 2429SOL    HW3 9747   0.689   0.595   4.260
 2429SOL    MW4 9748   0.695   0.510   4.279
 2430SOL     OW 9749   0.694   0.754   4.156
 2430SOL    HW2 9750   0.618   0.807   4.183
 2430SOL    HW3 9751   0.681   0.740   4.063
 2430SOL    MW4 9752   0.682   0.759   4.148
 2431SOL     OW 9753   0.469   0.910   4.244
 2431SOL    HW2 9754   0.463   1.001   4.217
 2431SOL    HW3 9755   0.402   0.864   4.193
 2431SOL    MW4 9756   0.459   0.916   4.234
 2432SOL     OW 9757   0.447   1.171   4.126
 2432SOL    HW2 9758   0.524   1.200   4.174
 2432SOL    HW3 9759   0.478   1.155   4.037
 2432SOL    MW4 9760   0.461   1.173   4.121
 2433SOL     OW 9761   0.674   1.272   4.273
 2433SOL    HW2 9762   0.675   1.283   4.368
 2433SOL    HW3 9763   0.689   1.359   4.238
 2433SOL    MW4 9764   0.676   1.285   4.281
 2434SOL     OW 9765   0.701   1.526   4.177
 2434SOL    HW2 9766   0.781   1.573   4.203
 2434SOL    HW3 9767   0.698   1.534   4.082
 2434SOL    MW4 9768   0.711   1.533   4.168
 2435SOL     OW 9769   0.239   1.545   4.123
 2435SOL    HW2 9770   0.225   1.454   4.147
 2435SOL    HW3 9771   0.159   1.590   4.150
 2435SOL    MW4 9772   0.227   1.539   4.130
 2436SOL     OW 9773   0.438   1.928   4.183
 2436SOL    HW2 9774   0.454   1.835   4.196
 2436SOL    HW3 9775   0.435   1.940   4.088
 2436SOL    MW4 9776   0.440   1.918   4.172
 2437SOL     OW 9777   0.657   2.068   4.212
 2437SOL    HW2 9778   0.671   2.091   4.304
 2437SOL    HW3 9779   0.581   2.009   4.213
 2437SOL    MW4 9780   0.649   2.063   4.224
 2438SOL     OW 9781   0.642   2.323   4.117
 2438SOL    HW2 9782   0.660   2.231   4.134
 2438SOL    HW3 9783   0.641   2.330   4.021
 2438SOL    MW4 9784   0.644   2.312   4.106
 2439SOL     OW 9785   0.445   2.423   4.293
 2439SOL    HW2 9786   0.436   2.515   4.268
 2439SOL    HW3 9787   0.511   2.388   4.234
 2439SOL    MW4 9788   0.452   2.431   4.282
 2440SOL     OW 9789   0.432   2.711   4.183
 2440SOL    HW2 9790   0.516   2.753   4.203
 2440SOL    HW3 9791   0.416   2.732   4.091
 2440SOL    MW4 9792   0.441   2.719   4.174
 2441SOL     OW 9793   0.658   2.871   4.239
 2441SOL    HW2 9794   0.669   2.868   4.334
 2441SOL    HW3 9795   0.664   2.963   4.217
 2441SOL    MW4 9796   0.660   2.883   4.249
 2442SOL     OW 9797   0.669   3.134   4.152
 2442SOL    HW2 9798   0.737   3.191   4.189
 2442SOL    HW3 9799   0.587   3.167   4.190
 2442SOL    MW4 9800   0.667   3.146   4.162
 2443SOL     OW 9801   0.431   3.239   4.245
 2443SOL    HW2 9802   0.412   3.241   4.339
 2443SOL    HW3 9803   0.432   3.332   4.219
 2443SOL    MW4 9804   0.428   3.252   4.254
 2444SOL     OW 9805   0.422   3.490   4.142
 2444SOL    HW2 9806   0.492   3.548   4.174
 2444SOL    HW3 9807   0.416   3.508   4.049
 2444SOL    MW4 9808   0.430   3.500   4.134
 2445SOL     OW 9809   0.645   3.618   4.245
 2445SOL    HW2 9810   0.635   3.647   4.336
 2445SOL    HW3 9811   0.725   3.566   4.245
 2445SOL    MW4 9812   0.654   3.615   4.257
 2446SOL     OW 9813   0.677   3.890   4.156
 2446SOL    HW2 9814   0.604   3.921   4.211
 2446SOL    HW3 9815   0.679   3.795   4.171
 2446SOL    MW4 9816   0.668   3.881   4.165
 2447SOL     OW 9817   0.465   4.013   4.290
 2447SOL    HW2 9818   0.447   4.097   4.249
 2447SOL    HW3 9819   0.392   3.957   4.263
 2447SOL    MW4 9820   0.453   4.017   4.281
 2448SOL     OW 9821   0.435   4.264   4.145
 2448SOL    HW2 9822   0.346   4.296   4.162
 2448SOL    HW3 9823   0.439   4.255   4.050
 2448SOL    MW4 9824   0.424   4.267   4.135
 2449SOL     OW 9825   0.672   4.375   4.212
 2449SOL    HW2 9826   0.582   4.347   4.195
 2449SOL    HW3 9827   0.672   4.469   4.195
 2449SOL    MW4 9828   0.660   4.384   4.207
 2450SOL     OW 9829   1.137   4.643   4.141
 2450SOL    HW2 9830   1.147   4.549   4.159
 2450SOL    HW3 9831   1.098   4.646   4.053
 2450SOL    MW4 9832   1.133   4.631   4.132
 2451SOL     OW 9833   0.929   0.095   4.269
 2451SOL    HW2 9834   1.006   0.074   4.216
 2451SOL    HW3 9835   0.857   0.046   4.229
 2451SOL    MW4 9836   0.930   0.086   4.256
 2452SOL     OW 9837   0.894   0.366   4.152
 2452SOL    HW2 9838   0.977   0.411   4.169
 2452SOL    HW3 9839   0.902   0.282   4.195
 2452SOL    MW4 9840   0.906   0.361   4.160
 2453SOL     OW 9841   1.141   0.488   4.265
 2453SOL    HW2 9842   1.164   0.483   4.358
 2453SOL    HW3 9843   1.211   0.440   4.221
 2453SOL    MW4 9844   1.154   0.481   4.271
 2454SOL     OW 9845   1.117   0.745   4.132
 2454SOL    HW2 9846   1.188   0.797   4.167
 2454SOL    HW3 9847   1.114   0.667   4.187
 2454SOL    MW4 9848   1.126   0.742   4.144
 2455SOL     OW 9849   0.905   0.893   4.265
 2455SOL    HW2 9850   0.982   0.854   4.223
 2455SOL    HW3 9851   0.831   0.859   4.216
 2455SOL    MW4 9852   0.906   0.883   4.253
 2456SOL     OW 9853   0.885   1.153   4.139
 2456SOL    HW2 9854   0.896   1.065   4.175
 2456SOL    HW3 9855   0.809   1.188   4.185
 2456SOL    MW4 9856   0.876   1.146   4.150
 2457SOL     OW 9857   1.115   1.283   4.204
 2457SOL    HW2 9858   1.144   1.285   4.296
 2457SOL    HW3 9859   1.032   1.236   4.206
 2457SOL    MW4 9860   1.108   1.277   4.217
 2458SOL     OW 9861   1.140   1.534   4.098
 2458SOL    HW2 9862   1.066   1.575   4.142
 2458SOL    HW3 9863   1.133   1.441   4.120
 2458SOL    MW4 9864   1.129   1.527   4.107
 2459SOL     OW 9865   0.929   1.659   4.239
 2459SOL    HW2 9866   0.911   1.645   4.332
 2459SOL    HW3 9867   0.908   1.751   4.223
 2459SOL    MW4 9868   0.924   1.669   4.249
 2460SOL     OW 9869   0.884   1.921   4.152
 2460SOL    HW2 9870   0.798   1.958   4.172
 2460SOL    HW3 9871   0.892   1.927   4.057
 2460SOL    MW4 9872   0.874   1.927   4.142
 2461SOL     OW 9873   1.090   2.083   4.226
 2461SOL    HW2 9874   1.119   2.054   4.313
 2461SOL    HW3 9875   1.014   2.027   4.207
 2461SOL    MW4 9876   1.084   2.072   4.235
 2462SOL     OW 9877   1.108   2.340   4.138
 2462SOL    HW2 9878   1.187   2.382   4.173
 2462SOL    HW3 9879   1.115   2.249   4.167
 2462SOL    MW4 9880   1.120   2.333   4.147
 2463SOL     OW 9881   0.861   2.472   4.245
 2463SOL    HW2 9882   0.937   2.422   4.216
 2463SOL    HW3 9883   0.789   2.442   4.189
 2463SOL    MW4 9884   0.862   2.462   4.234
 2464SOL     OW 9885   0.874   2.750   4.142
 2464SOL    HW2 9886   0.865   2.661   4.178
 2464SOL    HW3 9887   0.794   2.795   4.168
 2464SOL    MW4 9888   0.862   2.744   4.150
 2465SOL     OW 9889   1.133   2.828   4.202
 2465SOL    HW2 9890   1.141   2.922   4.184
 2465SOL    HW3 9891   1.046   2.804   4.169
 2465SOL    MW4 9892   1.123   2.837   4.195
 2466SOL     OW 9893   1.127   3.106   4.161
 2466SOL    HW2 9894   1.207   3.143   4.199
 2466SOL    HW3 9895   1.146   3.102   4.067
 2466SOL    MW4 9896   1.140   3.110   4.153
 2467SOL     OW 9897   0.891   3.234   4.271
 2467SOL    HW2 9898   0.907   3.259   4.362
 2467SOL    HW3 9899   0.970   3.189   4.243
 2467SOL    MW4 9900   0.903   3.231   4.279
 2468SOL     OW 9901   0.897   3.493   4.155
 2468SOL    HW2 9902   0.904   3.404   4.190
 2468SOL    HW3 9903   0.907   3.483   4.061
 2468SOL    MW4 9904   0.899   3.480   4.147
 2469SOL     OW 9905   1.125   3.629   4.225
 2469SOL    HW2 9906   1.119   3.714   4.183
 2469SOL    HW3 9907   1.042   3.586   4.203
 2469SOL    MW4 9908   1.113   3.634   4.217
 2470SOL     OW 9909   1.124   3.917   4.173
 2470SOL    HW2 9910   1.198   3.942   4.228
 2470SOL    HW3 9911   1.047   3.949   4.221
 2470SOL    MW4 9912   1.123   3.925   4.187
 2471SOL     OW 9913   0.890   4.010   4.275
 2471SOL    HW2 9914   0.887   4.102   4.251
 2471SOL    HW3 9915   0.823   3.969   4.220
 2471SOL    MW4 9916   0.881   4.016   4.264
 2472SOL     OW 9917   0.913   4.270   4.175
 2472SOL    HW2 9918   0.973   4.327   4.223
 2472SOL    HW3 9919   0.828   4.313   4.182
 2472SOL    MW4 9920   0.909   4.283   4.182
 2473SOL     OW 9921   1.156   4.393   4.253
 2473SOL    HW2 9922   1.178   4.394   4.346
 2473SOL    HW3 9923   1.224   4.340   4.213
 2473SOL    MW4 9924   1.168   4.386   4.260
 2474SOL     OW 9925   1.585   4.663   4.132
 2474SOL    HW2 9926   1.650   4.732   4.146
 2474SOL    HW3 9927   1.508   4.692   4.181
 2474SOL    MW4 9928   1.584   4.676   4.140
 2475SOL     OW 9929   1.361   0.109   4.239
 2475SOL    HW2 9930   1.354   0.085   4.332
 2475SOL    HW3 9931   1.288   0.063   4.197
 2475SOL    MW4 9932   1.351   0.099   4.246
 2476SOL     OW 9933   1.326   0.359   4.138
 2476SOL    HW2 9934   1.412   0.395   4.158
 2476SOL    HW3 9935   1.330   0.269   4.170
 2476SOL    MW4 9936   1.338   0.352   4.145
 2477SOL     OW 9937   1.534   0.548   4.211
 2477SOL    HW2 9938   1.511   0.558   4.303
 2477SOL    HW3 9939   1.508   0.631   4.170
 2477SOL    MW4 9940   1.528   0.560   4.218
 2478SOL     OW 9941   1.523   0.788   4.053
 2478SOL    HW2 9942   1.608   0.824   4.079
 2478SOL    HW3 9943   1.533   0.766   3.961
 2478SOL    MW4 9944   1.535   0.790   4.044
 2479SOL     OW 9945   1.316   0.918   4.216
 2479SOL    HW2 9946   1.331   1.011   4.203
 2479SOL    HW3 9947   1.383   0.874   4.163
 2479SOL    MW4 9948   1.327   0.924   4.207
 2480SOL     OW 9949   1.369   1.177   4.114
 2480SOL    HW2 9950   1.289   1.221   4.145
 2480SOL    HW3 9951   1.361   1.177   4.019
 2480SOL    MW4 9952   1.357   1.183   4.106
 2481SOL     OW 9953   1.605   1.290   4.214
 2481SOL    HW2 9954   1.595   1.317   4.305
 2481SOL    HW3 9955   1.524   1.242   4.194
 2481SOL    MW4 9956   1.593   1.287   4.223
 2482SOL     OW 9957   1.582   1.556   4.136
 2482SOL    HW2 9958   1.503   1.592   4.175
 2482SOL    HW3 9959   1.581   1.464   4.159
 2482SOL    MW4 9960   1.572   1.549   4.144
 2483SOL     OW 9961   1.352   1.658   4.227
 2483SOL    HW2 9962   1.336   1.752   4.226
 2483SOL    HW3 9963   1.284   1.621   4.171
 2483SOL    MW4 9964   1.341   1.666   4.219
 2484SOL     OW 9965   1.307   1.931   4.135
 2484SOL    HW2 9966   1.385   1.980   4.160
 2484SOL    HW3 9967   1.234   1.985   4.166
 2484SOL    MW4 9968   1.308   1.945   4.143
 2485SOL     OW 9969   1.555   2.025   4.241
 2485SOL    HW2 9970   1.621   1.984   4.185
 2485SOL    HW3 9971   1.562   2.118   4.221
 2485SOL    MW4 9972   1.564   2.032   4.231
 2486SOL     OW 9973   1.559   2.277   4.093
 2486SOL    HW2 9974   1.643   2.320   4.107
 2486SOL    HW3 9975   1.535   2.299   4.003
 2486SOL    MW4 9976   1.567   2.285   4.083
 2487SOL     OW 9977   1.502   2.860   4.332
 2487SOL    HW2 9978   1.443   2.902   4.395
 2487SOL    HW3 9979   1.586   2.855   4.376
 2487SOL    MW4 9980   1.505   2.865   4.346
 2488SOL     OW 9981   1.391   2.704   4.129
 2488SOL    HW2 9982   1.443   2.745   4.198
 2488SOL    HW3 9983   1.301   2.732   4.147
 2488SOL    MW4 9984   1.386   2.713   4.140
 2489SOL     OW 9985   1.684   2.325   4.416
 2489SOL    HW2 9986   1.722   2.407   4.446
 2489SOL    HW3 9987   1.732   2.303   4.337
 2489SOL    MW4 9988   1.695   2.333   4.410
 2490SOL     OW 9989   1.565   3.064   4.165
 2490SOL    HW2 9990   1.637   3.102   4.214
 2490SOL    HW3 9991   1.545   2.983   4.212
 2490SOL    MW4 9992   1.572   3.058   4.178
 2491SOL     OW 9993   1.365   3.222   4.259
 2491SOL    HW2 9994   1.434   3.174   4.213
 2491SOL    HW3 9995   1.376   3.312   4.230
 2491SOL    MW4 9996   1.376   3.227   4.250
 2492SOL     OW 9997   1.366   3.483   4.179
 2492SOL    HW2 9998   1.286   3.533   4.193
 2492SOL    HW3 9999   1.378   3.483   4.084
 2492SOL    MW410000   1.357   3.489   4.168
 2493SOL     OW10001   1.595   3.612   4.250
 2493SOL    HW210002   1.603   3.613   4.345
 2493SOL    HW310003   1.505   3.585   4.233
 2493SOL    MW410004   1.584   3.609   4.260
 2494SOL     OW10005   1.550   3.850   4.132
 2494SOL    HW210006   1.478   3.884   4.185
 2494SOL    HW310007   1.578   3.771   4.177
 2494SOL    MW410008   1.544   3.844   4.145
 2495SOL     OW10009   1.366   3.998   4.281
 2495SOL    HW210010   1.406   4.014   4.367
 2495SOL    HW310011   1.357   4.084   4.241
 2495SOL    MW410012   1.370   4.011   4.287
 2496SOL     OW10013   1.352   4.242   4.160
 2496SOL    HW210014   1.420   4.298   4.196
 2496SOL    HW310015   1.362   4.250   4.065
 2496SOL    MW410016   1.362   4.250   4.152
 2497SOL     OW10017   1.560   4.406   4.259
 2497SOL    HW210018   1.580   4.494   4.227
 2497SOL    HW310019   1.625   4.349   4.218
 2497SOL    MW410020   1.571   4.410   4.250
 2498SOL     OW10021   2.002   0.006   4.151
 2498SOL    HW210022   1.928   0.065   4.165
 2498SOL    HW310023   2.002  -0.011   4.057
 2498SOL    MW410024   1.992   0.012   4.141
 2499SOL     OW10025   1.788   0.166   4.192
 2499SOL    HW210026   1.793   0.171   4.288
 2499SOL    HW310027   1.796   0.257   4.163
 2499SOL    MW410028   1.790   0.179   4.201
 2500SOL     OW10029   1.801   0.442   4.127
 2500SOL    HW210030   1.868   0.488   4.177
 2500SOL    HW310031   1.720   0.459   4.175
 2500SOL    MW410032   1.799   0.450   4.140
 2501SOL     OW10033   2.065   0.534   4.250
 2501SOL    HW210034   2.082   0.580   4.332
 2501SOL    HW310035   2.144   0.482   4.235
 2501SOL    MW410036   2.078   0.533   4.259
 2502SOL     OW10037   2.032   0.767   4.086
 2502SOL    HW210038   2.098   0.823   4.128
 2502SOL    HW310039   2.038   0.684   4.133
 2502SOL    MW410040   2.042   0.763   4.098
 2503SOL     OW10041   1.774   0.854   4.168
 2503SOL    HW210042   1.803   0.944   4.187
 2503SOL    HW310043   1.848   0.814   4.124
 2503SOL    MW410044   1.788   0.861   4.165
 2504SOL     OW10045   1.833   1.133   4.168
 2504SOL    HW210046   1.907   1.185   4.199
 2504SOL    HW310047   1.756   1.186   4.192
 2504SOL    MW410048   1.832   1.147   4.175
 2505SOL     OW10049   2.070   1.255   4.233
 2505SOL    HW210050   2.147   1.221   4.187
 2505SOL    HW310051   2.063   1.346   4.205
 2505SOL    MW410052   2.079   1.262   4.223
 2506SOL     OW10053   2.056   1.514   4.159
 2506SOL    HW210054   2.122   1.578   4.185
 2506SOL    HW310055   2.070   1.502   4.065
 2506SOL    MW410056   2.066   1.521   4.150
 2507SOL     OW10057   1.851   1.660   4.249
 2507SOL    HW210058   1.915   1.601   4.210
 2507SOL    HW310059   1.767   1.630   4.215
 2507SOL    MW410060   1.848   1.648   4.240
 2508SOL     OW10061   1.815   1.920   4.135
 2508SOL    HW210062   1.852   1.836   4.165
 2508SOL    HW310063   1.846   1.984   4.200
 2508SOL    MW410064   1.824   1.917   4.148
 2509SOL     OW10065   1.849   2.287   4.179
 2509SOL    HW210066   1.928   2.276   4.232
 2509SOL    HW310067   1.880   2.322   4.095
 2509SOL    MW410068   1.863   2.290   4.175
 2510SOL     OW10069   2.294   2.182   4.094
 2510SOL    HW210070   2.354   2.168   4.167
 2510SOL    HW310071   2.349   2.219   4.025
 2510SOL    MW410072   2.309   2.185   4.094
 2511SOL     OW10073   1.780   2.856   4.385
 2511SOL    HW210074   1.800   2.857   4.291
 2511SOL    HW310075   1.860   2.884   4.428
 2511SOL    MW410076   1.793   2.860   4.378
 2512SOL     OW10077   1.848   2.818   4.098
 2512SOL    HW210078   1.911   2.755   4.134
 2512SOL    HW310079   1.893   2.902   4.102
 2512SOL    MW410080   1.862   2.821   4.103
 2513SOL     OW10081   2.042   3.159   4.355
 2513SOL    HW210082   2.046   3.079   4.407
 2513SOL    HW310083   2.040   3.128   4.264
 2513SOL    MW410084   2.042   3.144   4.350
 2514SOL     OW10085   2.222   2.838   4.141
 2514SOL    HW210086   2.278   2.915   4.138
 2514SOL    HW310087   2.201   2.827   4.233
 2514SOL    MW410088   2.226   2.846   4.152
 2515SOL     OW10089   1.754   3.222   4.315
 2515SOL    HW210090   1.765   3.308   4.274
 2515SOL    HW310091   1.843   3.188   4.324
 2515SOL    MW410092   1.767   3.229   4.311
 2516SOL     OW10093   1.802   3.442   4.176
 2516SOL    HW210094   1.723   3.491   4.199
 2516SOL    HW310095   1.817   3.463   4.084
 2516SOL    MW410096   1.794   3.451   4.167
 2517SOL     OW10097   1.982   3.602   4.306
 2517SOL    HW210098   1.973   3.689   4.265
 2517SOL    HW310099   1.905   3.554   4.274
 2517SOL    MW410100   1.970   3.607   4.296
 2518SOL     OW10101   2.002   3.848   4.211
 2518SOL    HW210102   1.924   3.903   4.215
 2518SOL    HW310103   2.020   3.837   4.118
 2518SOL    MW410104   1.994   3.854   4.199
 2519SOL     OW10105   1.767   4.013   4.222
 2519SOL    HW210106   1.763   4.104   4.194
 2519SOL    HW310107   1.686   3.973   4.189
 2519SOL    MW410108   1.756   4.019   4.214
 2520SOL     OW10109   1.769   4.269   4.153
 2520SOL    HW210110   1.841   4.324   4.185
 2520SOL    HW310111   1.789   4.255   4.061
 2520SOL    MW410112   1.781   4.274   4.145
 2521SOL     OW10113   2.005   4.397   4.250
 2521SOL    HW210114   2.028   4.405   4.342
 2521SOL    HW310115   1.988   4.487   4.221
 2521SOL    MW410116   2.006   4.410   4.258
 2522SOL     OW10117   2.437   4.635   4.132
 2522SOL    HW210118   2.520   4.657   4.175
 2522SOL    HW310119   2.417   4.546   4.164
 2522SOL    MW410120   2.445   4.626   4.142
 2523SOL     OW10121   2.244   0.116   4.250
 2523SOL    HW210122   2.317   0.071   4.208
 2523SOL    HW310123   2.165   0.077   4.211
 2523SOL    MW410124   2.243   0.105   4.240
 2524SOL     OW10125   2.282   0.388   4.159
 2524SOL    HW210126   2.283   0.304   4.204
 2524SOL    HW310127   2.271   0.366   4.066
 2524SOL    MW410128   2.281   0.374   4.153
 2525SOL     OW10129   2.507   0.558   4.218
 2525SOL    HW210130   2.488   0.590   4.306
 2525SOL    HW310131   2.428   0.513   4.191
 2525SOL    MW410132   2.494   0.556   4.226
 2526SOL     OW10133   2.481   0.806   4.094
 2526SOL    HW210134   2.495   0.723   4.139
 2526SOL    HW310135   2.488   0.785   4.001
 2526SOL    MW410136   2.484   0.792   4.088
 2527SOL     OW10137   2.246   0.920   4.202
 2527SOL    HW210138   2.273   0.918   4.294
 2527SOL    HW310139   2.315   0.872   4.156
 2527SOL    MW410140   2.259   0.913   4.208
 2528SOL     OW10141   2.283   1.161   4.096
 2528SOL    HW210142   2.351   1.211   4.143
 2528SOL    HW310143   2.273   1.081   4.147
 2528SOL    MW410144   2.291   1.157   4.109
 2529SOL     OW10145   2.471   1.317   4.257
 2529SOL    HW210146   2.470   1.325   4.352
 2529SOL    HW310147   2.558   1.284   4.236
 2529SOL    MW410148   2.482   1.314   4.267
 2530SOL     OW10149   2.477   1.559   4.151
 2530SOL    HW210150   2.468   1.476   4.197
 2530SOL    HW310151   2.452   1.540   4.061
 2530SOL    MW410152   2.473   1.546   4.145
 2531SOL     OW10153   2.237   1.697   4.248
 2531SOL    HW210154   2.322   1.664   4.221
 2531SOL    HW310155   2.234   1.787   4.214
 2531SOL    MW410156   2.248   1.705   4.240
 2532SOL     OW10157   2.159   1.939   4.133
 2532SOL    HW210158   2.183   2.031   4.137
 2532SOL    HW310159   2.089   1.930   4.199
 2532SOL    MW410160   2.153   1.950   4.143
 2533SOL     OW10161   2.437   2.041   4.299
 2533SOL    HW210162   2.400   2.010   4.382
 2533SOL    HW310163   2.505   1.977   4.277
 2533SOL    MW410164   2.441   2.029   4.307
 2534SOL     OW10165   2.709   2.493   4.290
 2534SOL    HW210166   2.628   2.456   4.327
 2534SOL    HW310167   2.758   2.522   4.367
 2534SOL    MW410168   2.705   2.492   4.305
 2535SOL     OW10169   2.345   2.382   4.574
 2535SOL    HW210170   2.310   2.438   4.504
 2535SOL    HW310171   2.404   2.439   4.622
 2535SOL    MW410172   2.348   2.397   4.571
 2536SOL     OW10173   1.968   2.626   4.282
 2536SOL    HW210174   2.035   2.673   4.331
 2536SOL    HW310175   2.006   2.539   4.266
 2536SOL    MW410176   1.982   2.621   4.286
 2537SOL     OW10177   2.436   2.755   4.441
 2537SOL    HW210178   2.400   2.682   4.392
 2537SOL    HW310179   2.360   2.808   4.465
 2537SOL    MW410180   2.421   2.753   4.438
 2538SOL     OW10181   2.393   3.070   4.122
 2538SOL    HW210182   2.459   3.026   4.175
 2538SOL    HW310183   2.358   3.139   4.180
 2538SOL    MW410184   2.397   3.074   4.137
 2539SOL     OW10185   2.005   3.037   4.111
 2539SOL    HW210186   2.012   3.057   4.018
 2539SOL    HW310187   2.072   2.971   4.127
 2539SOL    MW410188   2.015   3.031   4.101
 2540SOL     OW10189   2.195   3.482   4.179
 2540SOL    HW210190   2.217   3.413   4.241
 2540SOL    HW310191   2.118   3.524   4.216
 2540SOL    MW410192   2.188   3.478   4.192
 2541SOL     OW10193   2.443   3.581   4.159
 2541SOL    HW210194   2.352   3.557   4.175
 2541SOL    HW310195   2.439   3.672   4.129
 2541SOL    MW410196   2.430   3.590   4.157
 2542SOL     OW10197   2.446   3.849   4.123
 2542SOL    HW210198   2.526   3.881   4.166
 2542SOL    HW310199   2.466   3.855   4.029
 2542SOL    MW410200   2.460   3.854   4.116
 2543SOL     OW10201   2.235   4.010   4.238
 2543SOL    HW210202   2.301   3.954   4.195
 2543SOL    HW310203   2.157   3.955   4.242
 2543SOL    MW410204   2.233   3.995   4.233
 2544SOL     OW10205   2.215   4.252   4.105
 2544SOL    HW210206   2.215   4.172   4.156
 2544SOL    HW310207   2.146   4.306   4.143
 2544SOL    MW410208   2.206   4.249   4.116
 2545SOL     OW10209   2.423   4.378   4.225
 2545SOL    HW210210   2.499   4.336   4.183
 2545SOL    HW310211   2.347   4.336   4.184
 2545SOL    MW410212   2.423   4.367   4.214
 2546SOL     OW10213   2.903   4.627   4.114
 2546SOL    HW210214   2.975   4.674   4.156
 2546SOL    HW310215   2.906   4.539   4.154
 2546SOL    MW410216   2.913   4.621   4.125
 2547SOL     OW10217   2.674   0.077   4.215
 2547SOL    HW210218   2.677   0.171   4.195
 2547SOL    HW310219   2.750   0.041   4.169
 2547SOL    MW410220   2.685   0.085   4.206
 2548SOL     OW10221   2.689   0.348   4.141
 2548SOL    HW210222   2.640   0.427   4.163
 2548SOL    HW310223   2.716   0.361   4.050
 2548SOL    MW410224   2.686   0.360   4.132
 2549SOL     OW10225   2.926   0.471   4.268
 2549SOL    HW210226   2.935   0.563   4.244
 2549SOL    HW310227   2.836   0.448   4.247
 2549SOL    MW410228   2.916   0.480   4.262
 2550SOL     OW10229   2.937   0.722   4.151
 2550SOL    HW210230   3.017   0.763   4.184
 2550SOL    HW310231   2.946   0.724   4.056
 2550SOL    MW410232   2.949   0.728   4.143
 2551SOL     OW10233   2.723   0.880   4.233
 2551SOL    HW210234   2.787   0.814   4.209
 2551SOL    HW310235   2.644   0.856   4.185
 2551SOL    MW410236   2.721   0.868   4.224
 2552SOL     OW10237   2.712   1.175   4.184
 2552SOL    HW210238   2.737   1.084   4.202
 2552SOL    HW310239   2.721   1.184   4.089
 2552SOL    MW410240   2.717   1.164   4.174
 2553SOL     OW10241   2.945   1.288   4.257
 2553SOL    HW210242   3.013   1.228   4.226
 2553SOL    HW310243   2.863   1.249   4.227
 2553SOL    MW410244   2.943   1.275   4.249
 2554SOL     OW10245   2.955   1.543   4.161
 2554SOL    HW210246   3.018   1.604   4.198
 2554SOL    HW310247   2.962   1.464   4.214
 2554SOL    MW410248   2.964   1.541   4.173
 2555SOL     OW10249   2.710   1.645   4.279
 2555SOL    HW210250   2.789   1.605   4.243
 2555SOL    HW310251   2.639   1.606   4.229
 2555SOL    MW410252   2.711   1.635   4.268
 2556SOL     OW10253   2.686   1.934   4.204
 2556SOL    HW210254   2.708   1.844   4.230
 2556SOL    HW310255   2.660   1.926   4.112
 2556SOL    MW410256   2.686   1.921   4.195
 2557SOL     OW10257   2.906   2.095   4.269
 2557SOL    HW210258   2.923   2.171   4.214
 2557SOL    HW310259   2.827   2.055   4.232
 2557SOL    MW410260   2.898   2.100   4.257
 2558SOL     OW10261   2.929   2.354   4.159
 2558SOL    HW210262   3.009   2.392   4.196
 2558SOL    HW310263   2.858   2.395   4.209
 2558SOL    MW410264   2.930   2.364   4.170
 2559SOL     OW10265   2.697   2.745   4.131
 2559SOL    HW210266   2.663   2.813   4.190
 2559SOL    HW310267   2.696   2.665   4.183
 2559SOL    MW410268   2.692   2.744   4.145
 2560SOL     OW10269   2.573   2.933   4.279
 2560SOL    HW210270   2.531   2.868   4.335
 2560SOL    HW310271   2.607   2.998   4.340
 2560SOL    MW410272   2.572   2.933   4.294
 2561SOL     OW10273   2.938   2.902   4.123
 2561SOL    HW210274   2.846   2.875   4.117
 2561SOL    HW310275   2.952   2.959   4.048
 2561SOL    MW410276   2.928   2.906   4.112
 2562SOL     OW10277   2.928   3.085   4.357
 2562SOL    HW210278   2.924   3.017   4.424
 2562SOL    HW310279   2.940   3.036   4.275
 2562SOL    MW410280   2.929   3.069   4.355
 2563SOL     OW10281   2.672   3.203   4.361
 2563SOL    HW210282   2.684   3.278   4.420
 2563SOL    HW310283   2.760   3.169   4.347
 2563SOL    MW410284   2.685   3.209   4.367
 2564SOL     OW10285   2.671   3.431   4.166
 2564SOL    HW210286   2.639   3.353   4.210
 2564SOL    HW310287   2.596   3.490   4.162
 2564SOL    MW410288   2.657   3.428   4.171
 2565SOL     OW10289   2.885   3.608   4.227
 2565SOL    HW210290   2.924   3.605   4.314
 2565SOL    HW310291   2.800   3.565   4.238
 2565SOL    MW410292   2.879   3.602   4.240
 2566SOL     OW10293   2.902   3.856   4.100
 2566SOL    HW210294   2.969   3.903   4.148
 2566SOL    HW310295   2.890   3.774   4.149
 2566SOL    MW410296   2.909   3.851   4.113
 2567SOL     OW10297   2.673   3.961   4.255
 2567SOL    HW210298   2.658   4.049   4.221
 2567SOL    HW310299   2.756   3.934   4.215
 2567SOL    MW410300   2.682   3.969   4.245
 2568SOL     OW10301   2.650   4.236   4.135
 2568SOL    HW210302   2.710   4.294   4.182
 2568SOL    HW310303   2.689   4.225   4.049
 2568SOL    MW410304   2.663   4.242   4.130
 2569SOL     OW10305   2.882   4.369   4.236
 2569SOL    HW210306   2.883   4.385   4.330
 2569SOL    HW310307   2.974   4.351   4.214
 2569SOL    MW410308   2.894   4.368   4.245
 2570SOL     OW10309   3.378   4.652   4.149
 2570SOL    HW210310   3.460   4.694   4.176
 2570SOL    HW310311   3.389   4.560   4.176
 2570SOL    MW410312   3.390   4.645   4.156
 2571SOL     OW10313   3.125   0.093   4.195
 2571SOL    HW210314   3.111   0.109   4.288
 2571SOL    HW310315   3.211   0.051   4.190
 2571SOL    MW410316   3.134   0.090   4.206
 2572SOL     OW10317   3.123   0.375   4.128
 2572SOL    HW210318   3.131   0.284   4.156
 2572SOL    HW310319   3.046   0.408   4.173
 2572SOL    MW410320   3.114   0.368   4.137
 2573SOL     OW10321   3.341   0.496   4.263
 2573SOL    HW210322   3.421   0.452   4.237
 2573SOL    HW310323   3.271   0.433   4.245
 2573SOL    MW410324   3.342   0.482   4.257
 2574SOL     OW10325   3.373   0.758   4.173
 2574SOL    HW210326   3.317   0.813   4.228
 2574SOL    HW310327   3.346   0.668   4.194
 2574SOL    MW410328   3.362   0.754   4.183
 2575SOL     OW10329   3.137   0.888   4.276
 2575SOL    HW210330   3.114   0.916   4.364
 2575SOL    HW310331   3.124   0.966   4.222
 2575SOL    MW410332   3.132   0.902   4.280
 2576SOL     OW10333   3.149   1.141   4.153
 2576SOL    HW210334   3.240   1.140   4.184
 2576SOL    HW310335   3.155   1.170   4.062
 2576SOL    MW410336   3.162   1.145   4.145
 2577SOL     OW10337   3.394   1.069   4.276
 2577SOL    HW210338   3.441   1.006   4.330
 2577SOL    HW310339   3.387   1.148   4.330
 2577SOL    MW410340   3.399   1.071   4.290
 2578SOL     OW10341   3.345   1.297   4.395
 2578SOL    HW210342   3.379   1.369   4.341
 2578SOL    HW310343   3.406   1.292   4.469
 2578SOL    MW410344   3.358   1.306   4.398
 2579SOL     OW10345   3.130   1.717   4.265
 2579SOL    HW210346   3.106   1.727   4.357
 2579SOL    HW310347   3.127   1.806   4.230
 2579SOL    MW410348   3.126   1.730   4.272
 2580SOL     OW10349   3.144   1.979   4.196
 2580SOL    HW210350   3.213   2.036   4.228
 2580SOL    HW310351   3.063   2.022   4.223
 2580SOL    MW410352   3.142   1.992   4.204
 2581SOL     OW10353   3.365   2.163   4.305
 2581SOL    HW210354   3.449   2.120   4.287
 2581SOL    HW310355   3.360   2.233   4.239
 2581SOL    MW410356   3.376   2.167   4.294
 2582SOL     OW10357   3.344   2.407   4.162
 2582SOL    HW210358   3.434   2.430   4.186
 2582SOL    HW310359   3.352   2.372   4.073
 2582SOL    MW410360   3.357   2.405   4.154
 2583SOL     OW10361   3.117   2.476   4.326
 2583SOL    HW210362   3.106   2.563   4.288
 2583SOL    HW310363   3.200   2.445   4.288
 2583SOL    MW410364   3.127   2.483   4.316
 2584SOL     OW10365   3.128   2.703   4.171
 2584SOL    HW210366   3.208   2.735   4.211
 2584SOL    HW310367   3.069   2.779   4.169
 2584SOL    MW410368   3.131   2.717   4.176
 2585SOL     OW10369   3.349   2.826   4.268
 2585SOL    HW210370   3.430   2.776   4.257
 2585SOL    HW310371   3.372   2.915   4.238
 2585SOL    MW410372   3.363   2.831   4.263
 2586SOL     OW10373   3.419   3.105   4.186
 2586SOL    HW210374   3.361   3.165   4.233
 2586SOL    HW310375   3.413   3.132   4.094
 2586SOL    MW410376   3.411   3.116   4.180
 2587SOL     OW10377   3.183   3.250   4.311
 2587SOL    HW210378   3.167   3.330   4.260
 2587SOL    HW310379   3.098   3.206   4.315
 2587SOL    MW410380   3.169   3.255   4.305
 2588SOL     OW10381   3.130   3.468   4.150
 2588SOL    HW210382   3.061   3.532   4.170
 2588SOL    HW310383   3.126   3.459   4.055
 2588SOL    MW410384   3.120   3.476   4.140
 2589SOL     OW10385   3.348   3.599   4.243
 2589SOL    HW210386   3.343   3.586   4.338
 2589SOL    HW310387   3.279   3.543   4.207
 2589SOL    MW410388   3.338   3.590   4.251
 2590SOL     OW10389   3.332   3.849   4.133
 2590SOL    HW210390   3.339   3.758   4.162
 2590SOL    HW310391   3.329   3.844   4.037
 2590SOL    MW410392   3.333   3.837   4.124
 2591SOL     OW10393   3.117   3.997   4.241
 2591SOL    HW210394   3.139   4.000   4.334
 2591SOL    HW310395   3.191   3.952   4.200
 2591SOL    MW410396   3.129   3.991   4.248
 2592SOL     OW10397   3.119   4.265   4.122
 2592SOL    HW210398   3.203   4.306   4.143
 2592SOL    HW310399   3.122   4.181   4.169
 2592SOL    MW410400   3.131   4.259   4.131
 2593SOL     OW10401   3.356   4.384   4.194
 2593SOL    HW210402   3.350   4.375   4.290
 2593SOL    HW310403   3.438   4.341   4.171
 2593SOL    MW410404   3.366   4.377   4.204
 2594SOL     OW10405   3.767   4.641   4.156
 2594SOL    HW210406   3.855   4.657   4.190
 2594SOL    HW310407   3.771   4.670   4.065
 2594SOL    MW410408   3.779   4.647   4.149
 2595SOL     OW10409   3.583   0.103   4.317
 2595SOL    HW210410   3.579   0.191   4.279
 2595SOL    HW310411   3.648   0.057   4.263
 2595SOL    MW410412   3.591   0.108   4.304
 2596SOL     OW10413   3.568   0.347   4.179
 2596SOL    HW210414   3.650   0.383   4.214
 2596SOL    HW310415   3.582   0.344   4.084
 2596SOL    MW410416   3.581   0.351   4.171
 2597SOL     OW10417   3.788   0.474   4.283
 2597SOL    HW210418   3.811   0.487   4.375
 2597SOL    HW310419   3.733   0.549   4.261
 2597SOL    MW410420   3.784   0.486   4.292
 2598SOL     OW10421   3.809   0.832   4.156
 2598SOL    HW210422   3.763   0.913   4.138
 2598SOL    HW310423   3.800   0.780   4.076
 2598SOL    MW410424   3.802   0.835   4.143
 2599SOL     OW10425   3.609   0.697   4.300
 2599SOL    HW210426   3.523   0.707   4.259
 2599SOL    HW310427   3.666   0.753   4.247
 2599SOL    MW410428   3.605   0.706   4.287
 2600SOL     OW10429   3.640   1.052   4.139
 2600SOL    HW210430   3.566   1.061   4.200
 2600SOL    HW310431   3.614   1.105   4.063
 2600SOL    MW410432   3.626   1.060   4.137
 2601SOL     OW10433   3.760   1.299   4.202
 2601SOL    HW210434   3.722   1.212   4.189
 2601SOL    HW310435   3.780   1.303   4.295
 2601SOL    MW410436   3.758   1.288   4.212
 2602SOL     OW10437   3.843   1.700   4.182
 2602SOL    HW210438   3.797   1.714   4.264
 2602SOL    HW310439   3.885   1.784   4.162
 2602SOL    MW410440   3.843   1.713   4.190
 2603SOL     OW10441   3.554   1.960   4.229
 2603SOL    HW210442   3.590   1.949   4.141
 2603SOL    HW310443   3.524   1.873   4.253
 2603SOL    MW410444   3.555   1.947   4.220
 2604SOL     OW10445   3.511   1.461   4.205
 2604SOL    HW210446   3.599   1.424   4.196
 2604SOL    HW310447   3.483   1.479   4.115
 2604SOL    MW410448   3.519   1.459   4.192
 2605SOL     OW10449   3.819   2.034   4.348
 2605SOL    HW210450   3.812   2.048   4.443
 2605SOL    HW310451   3.731   2.007   4.322
 2605SOL    MW410452   3.806   2.033   4.357
 2606SOL     OW10453   3.849   2.278   4.236
 2606SOL    HW210454   3.857   2.187   4.264
 2606SOL    HW310455   3.843   2.274   4.141
 2606SOL    MW410456   3.849   2.266   4.227
 2607SOL     OW10457   3.601   2.414   4.285
 2607SOL    HW210458   3.589   2.389   4.376
 2607SOL    HW310459   3.683   2.372   4.258
 2607SOL    MW410460   3.610   2.405   4.293
 2608SOL     OW10461   3.598   2.702   4.218
 2608SOL    HW210462   3.611   2.612   4.247
 2608SOL    HW310463   3.602   2.697   4.122
 2608SOL    MW410464   3.600   2.690   4.209
 2609SOL     OW10465   3.817   2.863   4.252
 2609SOL    HW210466   3.834   2.858   4.346
 2609SOL    HW310467   3.741   2.807   4.238
 2609SOL    MW410468   3.809   2.855   4.262
 2610SOL     OW10469   3.848   3.105   4.137
 2610SOL    HW210470   3.832   3.021   4.179
 2610SOL    HW310471   3.844   3.087   4.043
 2610SOL    MW410472   3.845   3.092   4.130
 2611SOL     OW10473   3.652   3.253   4.266
 2611SOL    HW210474   3.718   3.209   4.213
 2611SOL    HW310475   3.581   3.190   4.273
 2611SOL    MW410476   3.651   3.239   4.260
 2612SOL     OW10477   3.594   3.488   4.134
 2612SOL    HW210478   3.622   3.408   4.179
 2612SOL    HW310479   3.530   3.527   4.193
 2612SOL    MW410480   3.590   3.482   4.148
 2613SOL     OW10481   3.813   3.644   4.183
 2613SOL    HW210482   3.893   3.593   4.183
 2613SOL    HW310483   3.746   3.585   4.149
 2613SOL    MW410484   3.815   3.630   4.179
 2614SOL     OW10485   3.809   3.920   4.130
 2614SOL    HW210486   3.721   3.934   4.166
 2614SOL    HW310487   3.826   3.827   4.145
 2614SOL    MW410488   3.800   3.910   4.137
 2615SOL     OW10489   3.548   3.987   4.265
 2615SOL    HW210490   3.558   3.940   4.348
 2615SOL    HW310491   3.466   3.954   4.229
 2615SOL    MW410492   3.538   3.977   4.271
 2616SOL     OW10493   3.583   4.244   4.142
 2616SOL    HW210494   3.659   4.286   4.183
 2616SOL    HW310495   3.581   4.156   4.181
 2616SOL    MW410496   3.593   4.238   4.153
 2617SOL     OW10497   3.787   4.378   4.274
 2617SOL    HW210498   3.873   4.352   4.240
 2617SOL    HW310499   3.769   4.462   4.232
 2617SOL    MW410500   3.796   4.386   4.264
 2618SOL     OW10501   4.261   4.627   4.155
 2618SOL    HW210502   4.273   4.535   4.176
 2618SOL    HW310503   4.335   4.672   4.196
 2618SOL    MW410504   4.272   4.621   4.163
 2619SOL     OW10505   4.005   0.055   4.221
 2619SOL    HW210506   4.026   0.146   4.202
 2619SOL    HW310507   4.087   0.008   4.208
 2619SOL    MW410508   4.018   0.061   4.217
 2620SOL     OW10509   4.052   0.337   4.188
 2620SOL    HW210510   4.136   0.377   4.213
 2620SOL    HW310511   3.986   0.398   4.220
 2620SOL    MW410512   4.054   0.350   4.196
 2621SOL     OW10513   4.293   0.479   4.229
 2621SOL    HW210514   4.299   0.569   4.196
 2621SOL    HW310515   4.378   0.441   4.210
 2621SOL    MW410516   4.305   0.486   4.222
 2622SOL     OW10517   4.289   0.757   4.127
 2622SOL    HW210518   4.221   0.814   4.164
 2622SOL    HW310519   4.278   0.766   4.032
 2622SOL    MW410520   4.278   0.766   4.120
 2623SOL     OW10521   4.064   0.917   4.160
 2623SOL    HW210522   4.055   1.009   4.133
 2623SOL    HW310523   3.974   0.883   4.158
 2623SOL    MW410524   4.051   0.925   4.156
 2624SOL     OW10525   4.014   1.190   4.133
 2624SOL    HW210526   4.082   1.243   4.174
 2624SOL    HW310527   3.932   1.233   4.156
 2624SOL    MW410528   4.012   1.202   4.142
 2625SOL     OW10529   4.226   1.321   4.267
 2625SOL    HW210530   4.225   1.305   4.361
 2625SOL    HW310531   4.292   1.260   4.233
 2625SOL    MW410532   4.235   1.311   4.275
 2626SOL     OW10533   4.291   1.576   4.180
 2626SOL    HW210534   4.269   1.496   4.228
 2626SOL    HW310535   4.248   1.566   4.095
 2626SOL    MW410536   4.282   1.564   4.175
 2627SOL     OW10537   4.171   1.749   4.363
 2627SOL    HW210538   4.232   1.760   4.436
 2627SOL    HW310539   4.216   1.690   4.303
 2627SOL    MW410540   4.185   1.743   4.365
 2628SOL     OW10541   4.033   1.922   4.198
 2628SOL    HW210542   4.089   1.871   4.257
 2628SOL    HW310543   3.971   1.967   4.256
 2628SOL    MW410544   4.032   1.921   4.213
 2629SOL     OW10545   4.476   1.954   4.127
 2629SOL    HW210546   4.555   1.986   4.170
 2629SOL    HW310547   4.405   2.009   4.161
 2629SOL    MW410548   4.477   1.965   4.137
 2630SOL     OW10549   4.291   2.364   4.101
 2630SOL    HW210550   4.227   2.421   4.143
 2630SOL    HW310551   4.271   2.277   4.136
 2630SOL    MW410552   4.280   2.360   4.111
 2631SOL     OW10553   4.061   2.454   4.302
 2631SOL    HW210554   4.119   2.430   4.375
 2631SOL    HW310555   4.015   2.374   4.281
 2631SOL    MW410556   4.063   2.441   4.309
 2632SOL     OW10557   4.046   2.728   4.162
 2632SOL    HW210558   4.051   2.643   4.207
 2632SOL    HW310559   3.977   2.775   4.207
 2632SOL    MW410560   4.038   2.723   4.174
 2633SOL     OW10561   4.281   2.815   4.282
 2633SOL    HW210562   4.208   2.789   4.227
 2633SOL    HW310563   4.355   2.765   4.249
 2633SOL    MW410564   4.281   2.805   4.271
 2634SOL     OW10565   4.288   3.057   4.172
 2634SOL    HW210566   4.293   2.970   4.211
 2634SOL    HW310567   4.294   3.041   4.078
 2634SOL    MW410568   4.289   3.043   4.165
 2635SOL     OW10569   4.092   3.230   4.188
 2635SOL    HW210570   4.158   3.160   4.184
 2635SOL    HW310571   4.009   3.186   4.170
 2635SOL    MW410572   4.090   3.215   4.185
 2636SOL     OW10573   4.038   3.488   4.152
 2636SOL    HW210574   4.066   3.400   4.176
 2636SOL    HW310575   4.039   3.487   4.056
 2636SOL    MW410576   4.042   3.476   4.142
 2637SOL     OW10577   4.276   3.633   4.224
 2637SOL    HW210578   4.276   3.720   4.185
 2637SOL    HW310579   4.191   3.596   4.199
 2637SOL    MW410580   4.264   3.640   4.216
 2638SOL     OW10581   4.296   3.919   4.150
 2638SOL    HW210582   4.214   3.961   4.174
 2638SOL    HW310583   4.284   3.892   4.059
 2638SOL    MW410584   4.284   3.921   4.141
 2639SOL     OW10585   4.047   4.024   4.244
 2639SOL    HW210586   4.036   4.006   4.337
 2639SOL    HW310587   3.963   3.998   4.205
 2639SOL    MW410588   4.034   4.018   4.251
 2640SOL     OW10589   4.013   4.294   4.157
 2640SOL    HW210590   4.092   4.344   4.175
 2640SOL    HW310591   4.033   4.206   4.190
 2640SOL    MW410592   4.026   4.289   4.164
 2641SOL     OW10593   4.074   4.289   4.570
 2641SOL    HW210594   4.087   4.293   4.664
 2641SOL    HW310595   3.991   4.335   4.555
 2641SOL    MW410596   4.064   4.295   4.580
 2642SOL     OW10597   4.152   4.554   4.835
 2642SOL    HW210598   4.117   4.567   4.923
 2642SOL    HW310599   4.192   4.467   4.837
 2642SOL    MW410600   4.153   4.544   4.847
 2643SOL     OW10601   4.294   4.420   4.497
 2643SOL    HW210602   4.290   4.508   4.535
 2643SOL    HW310603   4.211   4.380   4.522
 2643SOL    MW410604   4.283   4.426   4.505
 2644SOL     OW10605   4.040   0.124   4.507
 2644SOL    HW210606   4.034   0.114   4.412
 2644SOL    HW310607   3.953   0.100   4.539
 2644SOL    MW410608   4.027   0.119   4.499
 2645SOL     OW10609   4.328   1.738   4.581
 2645SOL    HW210610   4.420   1.719   4.564
 2645SOL    HW310611   4.293   1.656   4.615
 2645SOL    MW410612   4.336   1.725   4.583
 2646SOL     OW10613   0.528   4.642   4.505
 2646SOL    HW210614   0.443   4.637   4.549
 2646SOL    HW310615   0.568   4.556   4.522
 2646SOL    MW410616   0.522   4.630   4.513
 2647SOL     OW10617   0.345   0.777   4.652
 2647SOL    HW210618   0.336   0.697   4.601
 2647SOL    HW310619   0.350   0.748   4.743
 2647SOL    MW410620   0.344   0.763   4.657
 2648SOL     OW10621   4.313   0.797   4.527
 2648SOL    HW210622   4.332   0.703   4.521
 2648SOL    HW310623   4.398   0.837   4.548
 2648SOL    MW410624   4.327   0.790   4.529
 2649SOL     OW10625   0.663   1.358   4.724
 2649SOL    HW210626   0.664   1.451   4.703
 2649SOL    HW310627   0.610   1.351   4.803
 2649SOL    MW410628   0.656   1.369   4.732
 2650SOL     OW10629   1.193   1.976   4.478
 2650SOL    HW210630   1.282   1.943   4.475
 2650SOL    HW310631   1.190   2.030   4.557
 2650SOL    MW410632   1.204   1.979   4.488
 2651SOL     OW10633   4.231   1.220   4.535
 2651SOL    HW210634   4.182   1.138   4.527
 2651SOL    HW310635   4.323   1.195   4.522
 2651SOL    MW410636   4.237   1.206   4.532
 2652SOL     OW10637   0.117   1.719   4.547
 2652SOL    HW210638   0.091   1.729   4.455
 2652SOL    HW310639   0.119   1.808   4.581
 2652SOL    MW410640   0.114   1.732   4.539
 2653SOL     OW10641   0.468   1.658   4.241
 2653SOL    HW210642   0.406   1.615   4.182
 2653SOL    HW310643   0.548   1.606   4.233
 2653SOL    MW410644   0.470   1.645   4.232
 2654SOL     OW10645   0.027   2.001   4.546
 2654SOL    HW210646  -0.054   2.041   4.513
 2654SOL    HW310647   0.091   2.071   4.544
 2654SOL    MW410648   0.025   2.015   4.541
 2655SOL     OW10649   4.266   2.386   4.508
 2655SOL    HW210650   4.353   2.426   4.517
 2655SOL    HW310651   4.215   2.424   4.579
 2655SOL    MW410652   4.271   2.396   4.518
 2656SOL     OW10653   0.747   3.089   4.689
 2656SOL    HW210654   0.732   3.022   4.623
 2656SOL    HW310655   0.763   3.040   4.770
 2656SOL    MW410656   0.747   3.074   4.691
 2657SOL     OW10657   0.366   3.313   4.536
 2657SOL    HW210658   0.340   3.405   4.539
 2657SOL    HW310659   0.419   3.301   4.614
 2657SOL    MW410660   0.369   3.324   4.547
 2658SOL     OW10661   0.058   2.448   4.495
 2658SOL    HW210662   0.062   2.461   4.400
 2658SOL    HW310663   0.107   2.522   4.532
 2658SOL    MW410664   0.065   2.459   4.487
 2659SOL     OW10665   3.991   3.512   4.548
 2659SOL    HW210666   4.004   3.424   4.514
 2659SOL    HW310667   3.985   3.501   4.643
 2659SOL    MW410668   3.992   3.499   4.556
 2660SOL     OW10669   0.522   3.688   4.492
 2660SOL    HW210670   0.518   3.773   4.536
 2660SOL    HW310671   0.439   3.646   4.512
 2660SOL    MW410672   0.511   3.693   4.500
 2661SOL     OW10673   4.303   3.890   4.611
 2661SOL    HW210674   4.223   3.938   4.591
 2661SOL    HW310675   4.294   3.807   4.564
 2661SOL    MW410676   4.291   3.886   4.602
 2662SOL     OW10677   0.055   0.081   4.528
 2662SOL    HW210678  -0.037   0.084   4.555
 2662SOL    HW310679   0.080   0.173   4.519
 2662SOL    MW410680   0.046   0.094   4.531
 2663SOL     OW10681   3.864   0.530   4.538
 2663SOL    HW210682   3.782   0.504   4.580
 2663SOL    HW310683   3.879   0.620   4.568
 2663SOL    MW410684   3.855   0.539   4.548
 2664SOL     OW10685   3.999   3.528   4.818
 2664SOL    HW210686   4.087   3.546   4.850
 2664SOL    HW310687   3.978   3.441   4.852
 2664SOL    MW410688   4.008   3.519   4.826
 2665SOL     OW10689   3.831   3.968   4.743
 2665SOL    HW210690   3.827   3.894   4.803
 2665SOL    HW310691   3.773   3.944   4.671
 2665SOL    MW410692   3.823   3.955   4.741
 2666SOL     OW10693   0.647   4.384   4.495
 2666SOL    HW210694   0.644   4.386   4.400
 2666SOL    HW310695   0.581   4.319   4.521
 2666SOL    MW410696   0.638   4.376   4.486
 2667SOL     OW10697   4.142   0.764   4.758
 2667SOL    HW210698   4.220   0.784   4.706
 2667SOL    HW310699   4.157   0.676   4.791
 2667SOL    MW410700   4.154   0.755   4.756
 2668SOL     OW10701   1.096   0.813   4.562
 2668SOL    HW210702   1.105   0.730   4.610
 2668SOL    HW310703   1.007   0.842   4.580
 2668SOL    MW410704   1.085   0.806   4.571
 2669SOL     OW10705   0.727   0.166   4.592
 2669SOL    HW210706   0.809   0.118   4.582
 2669SOL    HW310707   0.659   0.100   4.582
 2669SOL    MW410708   0.729   0.151   4.589
 2670SOL     OW10709   0.831   0.946   4.541
 2670SOL    HW210710   0.855   0.936   4.449
 2670SOL    HW310711   0.736   0.954   4.541
 2670SOL    MW410712   0.822   0.946   4.529
 2671SOL     OW10713   0.550   0.960   4.500
 2671SOL    HW210714   0.489   0.923   4.564
 2671SOL    HW310715   0.511   0.940   4.415
 2671SOL    MW410716   0.537   0.952   4.497
 2672SOL     OW10717   2.129   1.163   4.477
 2672SOL    HW210718   2.089   1.202   4.400
 2672SOL    HW310719   2.165   1.237   4.526
 2672SOL    MW410720   2.128   1.178   4.473
 2673SOL     OW10721   0.361   1.590   4.536
 2673SOL    HW210722   0.284   1.646   4.546
 2673SOL    HW310723   0.396   1.613   4.450
 2673SOL    MW410724   0.355   1.600   4.526
 2674SOL     OW10725   1.405   1.187   4.568
 2674SOL    HW210726   1.377   1.096   4.559
 2674SOL    HW310727   1.332   1.238   4.536
 2674SOL    MW410728   1.392   1.181   4.563
 2675SOL     OW10729   0.882   1.617   4.507
 2675SOL    HW210730   0.803   1.621   4.561
 2675SOL    HW310731   0.950   1.655   4.563
 2675SOL    MW410732   0.880   1.622   4.522
 2676SOL     OW10733   0.681   2.131   4.480
 2676SOL    HW210734   0.749   2.199   4.483
 2676SOL    HW310735   0.705   2.070   4.550
 2676SOL    MW410736   0.693   2.132   4.490
 2677SOL     OW10737   1.111   1.760   4.604
 2677SOL    HW210738   1.169   1.689   4.576
 2677SOL    HW310739   1.126   1.830   4.541
 2677SOL    MW410740   1.120   1.760   4.592
 2678SOL     OW10741   0.453   2.288   4.534
 2678SOL    HW210742   0.533   2.235   4.535
 2678SOL    HW310743   0.456   2.333   4.450
 2678SOL    MW410744   0.464   2.287   4.523
 2679SOL     OW10745   1.066   2.699   4.641
 2679SOL    HW210746   1.066   2.763   4.569
 2679SOL    HW310747   1.149   2.713   4.685
 2679SOL    MW410748   1.077   2.710   4.637
 2680SOL     OW10749   0.760   2.618   4.637
 2680SOL    HW210750   0.848   2.652   4.654
 2680SOL    HW310751   0.774   2.543   4.580
 2680SOL    MW410752   0.774   2.613   4.632
 2681SOL     OW10753   0.850   3.314   4.538
 2681SOL    HW210754   0.791   3.381   4.573
 2681SOL    HW310755   0.818   3.232   4.574
 2681SOL    MW410756   0.838   3.312   4.547
 2682SOL     OW10757   0.677   3.512   4.630
 2682SOL    HW210758   0.628   3.584   4.591
 2682SOL    HW310759   0.745   3.555   4.682
 2682SOL    MW410760   0.679   3.527   4.632
 2683SOL     OW10761   1.366   0.010   4.509
 2683SOL    HW210762   1.326  -0.075   4.527
 2683SOL    HW310763   1.431   0.021   4.579
 2683SOL    MW410764   1.369   0.000   4.521
 2684SOL     OW10765   0.210   2.663   4.561
 2684SOL    HW210766   0.283   2.640   4.618
 2684SOL    HW310767   0.193   2.756   4.580
 2684SOL    MW410768   0.217   2.673   4.571
 2685SOL     OW10769   4.476   3.499   4.625
 2685SOL    HW210770   4.494   3.414   4.585
 2685SOL    HW310771   4.406   3.537   4.573
 2685SOL    MW410772   4.469   3.493   4.613
 2686SOL     OW10773   1.219   3.650   4.487
 2686SOL    HW210774   1.182   3.565   4.513
 2686SOL    HW310775   1.198   3.658   4.394
 2686SOL    MW410776   1.211   3.640   4.478
 2687SOL     OW10777   4.484   4.286   4.662
 2687SOL    HW210778   4.484   4.194   4.637
 2687SOL    HW310779   4.431   4.330   4.596
 2687SOL    MW410780   4.477   4.280   4.650
 2688SOL     OW10781   0.036   4.029   4.567
 2688SOL    HW210782   0.115   3.983   4.596
 2688SOL    HW310783  -0.037   3.975   4.599
 2688SOL    MW410784   0.037   4.016   4.575
 2689SOL     OW10785   0.245   4.589   4.624
 2689SOL    HW210786   0.169   4.638   4.592
 2689SOL    HW310787   0.235   4.589   4.719
 2689SOL    MW410788   0.233   4.596   4.632
 2690SOL     OW10789   0.963   0.002   4.537
 2690SOL    HW210790   0.954   0.024   4.444
 2690SOL    HW310791   0.952  -0.093   4.540
 2690SOL    MW410792   0.960  -0.008   4.525
 2691SOL     OW10793   1.210   4.413   4.530
 2691SOL    HW210794   1.268   4.361   4.585
 2691SOL    HW310795   1.122   4.380   4.549
 2691SOL    MW410796   1.206   4.402   4.540
 2692SOL     OW10797   0.663   0.453   4.560
 2692SOL    HW210798   0.678   0.470   4.467
 2692SOL    HW310799   0.686   0.361   4.572
 2692SOL    MW410800   0.668   0.443   4.549
 2693SOL     OW10801   1.362   0.884   4.484
 2693SOL    HW210802   1.360   0.890   4.388
 2693SOL    HW310803   1.270   0.880   4.510
 2693SOL    MW410804   1.350   0.885   4.475
 2694SOL     OW10805   1.646   0.945   4.569
 2694SOL    HW210806   1.697   0.875   4.529
 2694SOL    HW310807   1.557   0.911   4.572
 2694SOL    MW410808   1.641   0.932   4.564
 2695SOL     OW10809   0.541   1.234   4.512
 2695SOL    HW210810   0.557   1.140   4.517
 2695SOL    HW310811   0.596   1.271   4.581
 2695SOL    MW410812   0.550   1.227   4.521
 2696SOL     OW10813   1.016   1.964   4.786
 2696SOL    HW210814   1.066   2.044   4.771
 2696SOL    HW310815   1.079   1.893   4.771
 2696SOL    MW410816   1.031   1.965   4.782
 2697SOL     OW10817   0.937   1.200   4.617
 2697SOL    HW210818   0.862   1.247   4.655
 2697SOL    HW310819   0.907   1.110   4.610
 2697SOL    MW410820   0.923   1.195   4.621
 2698SOL     OW10821   1.799   1.184   4.613
 2698SOL    HW210822   1.737   1.111   4.611
 2698SOL    HW310823   1.882   1.147   4.584
 2698SOL    MW410824   1.801   1.170   4.609
 2699SOL     OW10825   1.183   1.300   4.461
 2699SOL    HW210826   1.104   1.271   4.507
 2699SOL    HW310827   1.190   1.393   4.483
 2699SOL    MW410828   1.173   1.309   4.470
 2700SOL     OW10829   1.086   2.443   4.593
 2700SOL    HW210830   1.077   2.531   4.628
 2700SOL    HW310831   1.168   2.444   4.545
 2700SOL    MW410832   1.095   2.454   4.591
 2701SOL     OW10833   1.609   2.750   4.694
 2701SOL    HW210834   1.671   2.695   4.646
 2701SOL    HW310835   1.653   2.835   4.702
 2701SOL    MW410836   1.623   2.754   4.689
 2702SOL     OW10837   1.370   2.911   4.580
 2702SOL    HW210838   1.374   2.816   4.590
 2702SOL    HW310839   1.453   2.943   4.617
 2702SOL    MW410840   1.382   2.903   4.586
 2703SOL     OW10841   1.707   3.299   4.572
 2703SOL    HW210842   1.679   3.217   4.612
 2703SOL    HW310843   1.698   3.285   4.478
 2703SOL    MW410844   1.702   3.286   4.565
 2704SOL     OW10845   0.746   2.873   4.504
 2704SOL    HW210846   0.839   2.884   4.488
 2704SOL    HW310847   0.740   2.798   4.564
 2704SOL    MW410848   0.757   2.864   4.510
 2705SOL     OW10849   0.460   4.179   4.522
 2705SOL    HW210850   0.466   4.114   4.452
 2705SOL    HW310851   0.371   4.214   4.514
 2705SOL    MW410852   0.449   4.175   4.511
 2706SOL     OW10853   1.020   2.905   4.443
 2706SOL    HW210854   1.060   2.871   4.363
 2706SOL    HW310855   1.068   2.987   4.461
 2706SOL    MW410856   1.032   2.912   4.435
 2707SOL     OW10857   0.541   3.290   4.746
 2707SOL    HW210858   0.607   3.223   4.726
 2707SOL    HW310859   0.587   3.373   4.733
 2707SOL    MW410860   0.556   3.292   4.742
 2708SOL     OW10861   1.704   3.572   4.531
 2708SOL    HW210862   1.771   3.630   4.566
 2708SOL    HW310863   1.720   3.488   4.574
 2708SOL    MW410864   1.715   3.569   4.541
 2709SOL     OW10865   0.543   3.940   4.632
 2709SOL    HW210866   0.508   4.026   4.609
 2709SOL    HW310867   0.638   3.951   4.628
 2709SOL    MW410868   0.551   3.952   4.629
 2710SOL     OW10869   0.253   3.854   4.611
 2710SOL    HW210870   0.251   3.759   4.606
 2710SOL    HW310871   0.325   3.874   4.671
 2710SOL    MW410872   0.262   3.844   4.618
 2711SOL     OW10873   0.913   4.336   4.506
 2711SOL    HW210874   0.929   4.249   4.542
 2711SOL    HW310875   0.818   4.344   4.502
 2711SOL    MW410876   0.903   4.326   4.510
 2712SOL     OW10877   0.214   4.327   4.503
 2712SOL    HW210878   0.244   4.415   4.527
 2712SOL    HW310879   0.131   4.317   4.548
 2712SOL    MW410880   0.207   4.338   4.512
 2713SOL     OW10881   2.185   3.719   4.701
 2713SOL    HW210882   2.208   3.730   4.793
 2713SOL    HW310883   2.217   3.632   4.678
 2713SOL    MW410884   2.192   3.709   4.710
 2714SOL     OW10885   1.589   4.417   4.556
 2714SOL    HW210886   1.683   4.399   4.552
 2714SOL    HW310887   1.563   4.430   4.465
 2714SOL    MW410888   1.598   4.416   4.543
 2715SOL     OW10889   1.421   4.207   4.648
 2715SOL    HW210890   1.471   4.280   4.612
 2715SOL    HW310891   1.462   4.129   4.611
 2715SOL    MW410892   1.433   4.206   4.638
 2716SOL     OW10893   1.104   0.581   4.742
 2716SOL    HW210894   1.011   0.580   4.764
 2716SOL    HW310895   1.149   0.564   4.825
 2716SOL    MW410896   1.097   0.579   4.756
 2717SOL     OW10897   1.616   0.016   4.644
 2717SOL    HW210898   1.626  -0.076   4.619
 2717SOL    HW310899   1.634   0.017   4.738
 2717SOL    MW410900   1.619   0.004   4.653
 2718SOL     OW10901   1.227   0.411   4.533
 2718SOL    HW210902   1.208   0.462   4.611
 2718SOL    HW310903   1.206   0.321   4.558
 2718SOL    MW410904   1.222   0.406   4.546
 2719SOL     OW10905   1.691   1.752   4.589
 2719SOL    HW210906   1.648   1.678   4.631
 2719SOL    HW310907   1.779   1.720   4.568
 2719SOL    MW410908   1.697   1.738   4.591
 2720SOL     OW10909   0.827   0.649   4.690
 2720SOL    HW210910   0.842   0.704   4.613
 2720SOL    HW310911   0.778   0.574   4.657
 2720SOL    MW410912   0.822   0.646   4.675
 2721SOL     OW10913   1.705   0.485   4.468
 2721SOL    HW210914   1.614   0.512   4.478
 2721SOL    HW310915   1.704   0.390   4.481
 2721SOL    MW410916   1.693   0.476   4.471
 2722SOL     OW10917   1.610   1.355   4.476
 2722SOL    HW210918   1.545   1.290   4.502
 2722SOL    HW310919   1.694   1.312   4.493
 2722SOL    MW410920   1.613   1.341   4.481
 2723SOL     OW10921   1.267   1.555   4.491
 2723SOL    HW210922   1.346   1.559   4.545
 2723SOL    HW310923   1.296   1.577   4.403
 2723SOL    MW410924   1.281   1.558   4.486
 2724SOL     OW10925   1.348   2.644   4.665
 2724SOL    HW210926   1.344   2.573   4.602
 2724SOL    HW310927   1.440   2.649   4.691
 2724SOL    MW410928   1.359   2.636   4.660
 2725SOL     OW10929   2.266   2.553   4.353
 2725SOL    HW210930   2.223   2.524   4.273
 2725SOL    HW310931   2.218   2.632   4.379
 2725SOL    MW410932   2.254   2.560   4.346
 2726SOL     OW10933   0.833   2.381   4.502
 2726SOL    HW210934   0.916   2.397   4.547
 2726SOL    HW310935   0.845   2.417   4.414
 2726SOL    MW410936   0.845   2.388   4.496
 2727SOL     OW10937   1.464   3.743   4.570
 2727SOL    HW210938   1.375   3.709   4.560
 2727SOL    HW310939   1.519   3.665   4.576
 2727SOL    MW410940   1.460   3.728   4.570
 2728SOL     OW10941   1.361   2.442   4.215
 2728SOL    HW210942   1.369   2.531   4.181
 2728SOL    HW310943   1.436   2.396   4.178
 2728SOL    MW410944   1.372   2.448   4.206
 2729SOL     OW10945   1.343   2.429   4.490
 2729SOL    HW210946   1.358   2.442   4.396
 2729SOL    HW310947   1.405   2.360   4.514
 2729SOL    MW410948   1.353   2.421   4.481
 2730SOL     OW10949   1.218   3.123   4.478
 2730SOL    HW210950   1.262   3.054   4.529
 2730SOL    HW310951   1.285   3.154   4.417
 2730SOL    MW410952   1.233   3.118   4.477
 2731SOL     OW10953   1.105   3.398   4.583
 2731SOL    HW210954   1.164   3.329   4.555
 2731SOL    HW310955   1.019   3.356   4.586
 2731SOL    MW410956   1.101   3.383   4.580
 2732SOL     OW10957   0.928   3.604   4.709
 2732SOL    HW210958   0.964   3.688   4.680
 2732SOL    HW310959   0.997   3.540   4.690
 2732SOL    MW410960   0.942   3.606   4.703
 2733SOL     OW10961   2.277   3.474   4.585
 2733SOL    HW210962   2.188   3.444   4.567
 2733SOL    HW310963   2.311   3.411   4.649
 2733SOL    MW410964   2.270   3.462   4.591
 2734SOL     OW10965   2.019   3.359   4.577
 2734SOL    HW210966   2.050   3.307   4.503
 2734SOL    HW310967   1.924   3.364   4.565
 2734SOL    MW410968   2.010   3.353   4.566
 2735SOL     OW10969   2.290   3.246   4.308
 2735SOL    HW210970   2.201   3.221   4.334
 2735SOL    HW310971   2.346   3.215   4.379
 2735SOL    MW410972   2.286   3.239   4.321
 2736SOL     OW10973   0.827   3.968   4.560
 2736SOL    HW210974   0.825   3.974   4.465
 2736SOL    HW310975   0.906   3.916   4.579
 2736SOL    MW410976   0.838   3.962   4.550
 2737SOL     OW10977   1.806   4.050   4.511
 2737SOL    HW210978   1.782   4.047   4.418
 2737SOL    HW310979   1.853   3.968   4.526
 2737SOL    MW410980   1.809   4.039   4.501
 2738SOL     OW10981   1.998   0.317   4.643
 2738SOL    HW210982   2.093   0.305   4.635
 2738SOL    HW310983   1.986   0.412   4.643
 2738SOL    MW410984   2.009   0.328   4.642
 2739SOL     OW10985   1.164   0.165   4.654
 2739SOL    HW210986   1.074   0.140   4.633
 2739SOL    HW310987   1.217   0.123   4.586
 2739SOL    MW410988   1.159   0.156   4.642
 2740SOL     OW10989   1.774   0.214   4.483
 2740SOL    HW210990   1.861   0.214   4.523
 2740SOL    HW310991   1.735   0.131   4.512
 2740SOL    MW410992   1.780   0.203   4.492
 2741SOL     OW10993   2.476   4.603   4.571
 2741SOL    HW210994   2.478   4.508   4.558
 2741SOL    HW310995   2.387   4.629   4.545
 2741SOL    MW410996   2.464   4.594   4.566
 2742SOL     OW10997   1.799   0.761   4.428
 2742SOL    HW210998   1.764   0.672   4.436
 2742SOL    HW310999   1.790   0.782   4.335
 2742SOL    MW411000   1.793   0.752   4.417
 2743SOL     OW11001   1.434   0.593   4.472
 2743SOL    HW211002   1.398   0.682   4.471
 2743SOL    HW311003   1.358   0.537   4.486
 2743SOL    MW411004   1.419   0.598   4.473
 2744SOL     OW11005   1.945   1.695   4.509
 2744SOL    HW211006   1.937   1.609   4.549
 2744SOL    HW311007   1.910   1.685   4.421
 2744SOL    MW411008   1.939   1.683   4.503
 2745SOL     OW11009   0.749   1.941   4.682
 2745SOL    HW211010   0.844   1.944   4.689
 2745SOL    HW311011   0.718   1.966   4.769
 2745SOL    MW411012   0.758   1.945   4.694
 2746SOL     OW11013   1.497   1.549   4.635
 2746SOL    HW211014   1.548   1.490   4.579
 2746SOL    HW311015   1.484   1.499   4.716
 2746SOL    MW411016   1.502   1.534   4.639
 2747SOL     OW11017   1.209   2.169   4.701
 2747SOL    HW211018   1.301   2.188   4.684
 2747SOL    HW311019   1.166   2.255   4.696
 2747SOL    MW411020   1.215   2.183   4.698
 2748SOL     OW11021   1.481   1.903   4.479
 2748SOL    HW211022   1.526   1.923   4.397
 2748SOL    HW311023   1.534   1.834   4.518
 2748SOL    MW411024   1.494   1.897   4.473
 2749SOL     OW11025   2.130   2.415   4.141
 2749SOL    HW211026   2.163   2.326   4.131
 2749SOL    HW311027   2.064   2.424   4.073
 2749SOL    MW411028   2.126   2.404   4.131
 2750SOL     OW11029   1.466   2.181   4.549
 2750SOL    HW211030   1.466   2.087   4.529
 2750SOL    HW311031   1.546   2.214   4.510
 2750SOL    MW411032   1.476   2.173   4.541
 2751SOL     OW11033   2.382   3.093   4.525
 2751SOL    HW211034   2.469   3.068   4.553
 2751SOL    HW311035   2.326   3.021   4.552
 2751SOL    MW411036   2.386   3.080   4.532
 2752SOL     OW11037   1.679   3.026   4.621
 2752SOL    HW211038   1.697   2.985   4.536
 2752SOL    HW311039   1.765   3.053   4.653
 2752SOL    MW411040   1.693   3.025   4.614
 2753SOL     OW11041   1.855   4.319   4.527
 2753SOL    HW211042   1.842   4.226   4.548
 2753SOL    HW311043   1.945   4.338   4.554
 2753SOL    MW411044   1.865   4.309   4.533
 2754SOL     OW11045   2.643   2.984   4.640
 2754SOL    HW211046   2.731   2.955   4.617
 2754SOL    HW311047   2.597   2.904   4.666
 2754SOL    MW411048   2.649   2.970   4.641
 2755SOL     OW11049   2.322   3.252   4.734
 2755SOL    HW211050   2.333   3.195   4.658
 2755SOL    HW311051   2.277   3.197   4.798
 2755SOL    MW411052   2.317   3.237   4.733
 2756SOL     OW11053   2.686   3.941   4.544
 2756SOL    HW211054   2.605   3.908   4.583
 2756SOL    HW311055   2.675   3.926   4.450
 2756SOL    MW411056   2.674   3.935   4.537
 2757SOL     OW11057   2.427   3.828   4.573
 2757SOL    HW211058   2.464   3.747   4.538
 2757SOL    HW311059   2.348   3.801   4.618
 2757SOL    MW411060   2.421   3.814   4.574
 2758SOL     OW11061   2.482   3.587   4.448
 2758SOL    HW211062   2.407   3.537   4.477
 2758SOL    HW311063   2.488   3.570   4.354
 2758SOL    MW411064   2.473   3.578   4.439
 2759SOL     OW11065   1.925   3.753   4.567
 2759SOL    HW211066   1.933   3.699   4.488
 2759SOL    HW311067   2.012   3.748   4.608
 2759SOL    MW411068   1.938   3.745   4.562
 2760SOL     OW11069   2.122   4.404   4.515
 2760SOL    HW211070   2.201   4.358   4.542
 2760SOL    HW311071   2.142   4.497   4.528
 2760SOL    MW411072   2.135   4.410   4.521
 2761SOL     OW11073   1.084   3.840   4.623
 2761SOL    HW211074   1.150   3.892   4.668
 2761SOL    HW311075   1.134   3.774   4.575
 2761SOL    MW411076   1.099   3.838   4.623
 2762SOL     OW11077   2.211   0.017   4.511
 2762SOL    HW211078   2.221   0.052   4.422
 2762SOL    HW311079   2.222   0.093   4.568
 2762SOL    MW411080   2.214   0.032   4.507
 2763SOL     OW11081   2.280   0.267   4.671
 2763SOL    HW211082   2.297   0.241   4.761
 2763SOL    HW311083   2.347   0.332   4.651
 2763SOL    MW411084   2.291   0.272   4.680
 2764SOL     OW11085   1.934   1.456   4.636
 2764SOL    HW211086   1.884   1.377   4.658
 2764SOL    HW311087   2.026   1.430   4.646
 2764SOL    MW411088   1.940   1.442   4.640
 2765SOL     OW11089   2.670   0.117   4.496
 2765SOL    HW211090   2.605   0.050   4.520
 2765SOL    HW311091   2.677   0.109   4.401
 2765SOL    MW411092   2.662   0.107   4.486
 2766SOL     OW11093   2.448   0.678   4.465
 2766SOL    HW211094   2.366   0.715   4.497
 2766SOL    HW311095   2.513   0.746   4.483
 2766SOL    MW411096   2.446   0.692   4.471
 2767SOL     OW11097   2.894   0.812   4.599
 2767SOL    HW211098   2.955   0.879   4.568
 2767SOL    HW311099   2.946   0.732   4.602
 2767SOL    MW411100   2.909   0.811   4.596
 2768SOL     OW11101   2.236   1.427   4.565
 2768SOL    HW211102   2.325   1.392   4.561
 2768SOL    HW311103   2.247   1.522   4.559
 2768SOL    MW411104   2.249   1.435   4.563
 2769SOL     OW11105   2.484   1.323   4.537
 2769SOL    HW211106   2.497   1.247   4.593
 2769SOL    HW311107   2.540   1.391   4.576
 2769SOL    MW411108   2.493   1.322   4.550
 2770SOL     OW11109   2.742   1.422   4.655
 2770SOL    HW211110   2.756   1.516   4.642
 2770SOL    HW311111   2.764   1.408   4.747
 2770SOL    MW411112   2.746   1.433   4.666
 2771SOL     OW11113   2.220   1.706   4.533
 2771SOL    HW211114   2.239   1.693   4.440
 2771SOL    HW311115   2.128   1.733   4.535
 2771SOL    MW411116   2.210   1.708   4.521
 2772SOL     OW11117   2.277   2.156   4.756
 2772SOL    HW211118   2.289   2.219   4.685
 2772SOL    HW311119   2.183   2.150   4.768
 2772SOL    MW411120   2.266   2.164   4.748
 2773SOL     OW11121   2.358   1.982   4.552
 2773SOL    HW211122   2.310   1.899   4.556
 2773SOL    HW311123   2.342   2.023   4.637
 2773SOL    MW411124   2.349   1.976   4.563
 2774SOL     OW11125   2.562   2.267   4.415
 2774SOL    HW211126   2.488   2.292   4.471
 2774SOL    HW311127   2.532   2.188   4.369
 2774SOL    MW411128   2.548   2.260   4.416
 2775SOL     OW11129   1.773   2.585   4.525
 2775SOL    HW211130   1.781   2.639   4.446
 2775SOL    HW311131   1.858   2.594   4.568
 2775SOL    MW411132   1.785   2.594   4.520
 2776SOL     OW11133   2.187   3.038   4.853
 2776SOL    HW211134   2.093   3.043   4.870
 2776SOL    HW311135   2.195   2.984   4.775
 2776SOL    MW411136   2.175   3.032   4.845
 2777SOL     OW11137   2.695   3.445   4.556
 2777SOL    HW211138   2.667   3.386   4.627
 2777SOL    HW311139   2.617   3.496   4.535
 2777SOL    MW411140   2.681   3.444   4.563
 2778SOL     OW11141   2.604   3.238   4.698
 2778SOL    HW211142   2.513   3.225   4.725
 2778SOL    HW311143   2.636   3.150   4.680
 2778SOL    MW411144   2.596   3.225   4.699
 2779SOL     OW11145   1.526   4.001   4.522
 2779SOL    HW211146   1.500   3.913   4.549
 2779SOL    HW311147   1.621   4.004   4.538
 2779SOL    MW411148   1.535   3.990   4.528
 2780SOL     OW11149   2.692   4.228   4.542
 2780SOL    HW211150   2.607   4.264   4.518
 2780SOL    HW311151   2.681   4.133   4.537
 2780SOL    MW411152   2.680   4.221   4.538
 2781SOL     OW11153   1.921   3.116   4.726
 2781SOL    HW211154   1.951   3.054   4.660
 2781SOL    HW311155   1.959   3.200   4.700
 2781SOL    MW411156   1.930   3.119   4.714
 2782SOL     OW11157   3.367   3.822   4.625
 2782SOL    HW211158   3.290   3.862   4.585
 2782SOL    HW311159   3.356   3.728   4.608
 2782SOL    MW411160   3.355   3.814   4.617
 2783SOL     OW11161   3.140   3.981   4.516
 2783SOL    HW211162   3.080   3.925   4.566
 2783SOL    HW311163   3.135   4.066   4.560
 2783SOL    MW411164   3.131   3.985   4.528
 2784SOL     OW11165   2.344   4.075   4.491
 2784SOL    HW211166   2.388   3.995   4.520
 2784SOL    HW311167   2.298   4.050   4.411
 2784SOL    MW411168   2.344   4.061   4.485
 2785SOL     OW11169   2.423   4.335   4.491
 2785SOL    HW211170   2.405   4.243   4.511
 2785SOL    HW311171   2.407   4.342   4.396
 2785SOL    MW411172   2.418   4.324   4.481
 2786SOL     OW11173   2.942   0.517   4.559
 2786SOL    HW211174   2.934   0.523   4.464
 2786SOL    HW311175   2.864   0.468   4.587
 2786SOL    MW411176   2.930   0.511   4.550
 2787SOL     OW11177   2.749   0.334   4.656
 2787SOL    HW211178   2.709   0.262   4.608
 2787SOL    HW311179   2.819   0.293   4.707
 2787SOL    MW411180   2.753   0.319   4.656
 2788SOL     OW11181   3.307   0.226   4.827
 2788SOL    HW211182   3.286   0.273   4.746
 2788SOL    HW311183   3.222   0.216   4.870
 2788SOL    MW411184   3.293   0.231   4.822
 2789SOL     OW11185   2.637   0.864   4.498
 2789SOL    HW211186   2.717   0.831   4.537
 2789SOL    HW311187   2.658   0.877   4.406
 2789SOL    MW411188   2.650   0.861   4.491
 2790SOL     OW11189   3.625   0.703   4.777
 2790SOL    HW211190   3.643   0.612   4.756
 2790SOL    HW311191   3.698   0.752   4.737
 2790SOL    MW411192   3.637   0.698   4.769
 2791SOL     OW11193   2.112   0.718   4.466
 2791SOL    HW211194   2.149   0.794   4.513
 2791SOL    HW311195   2.017   0.729   4.474
 2791SOL    MW411196   2.104   0.730   4.473
 2792SOL     OW11197   2.509   1.080   4.683
 2792SOL    HW211198   2.586   1.032   4.653
 2792SOL    HW311199   2.481   1.034   4.762
 2792SOL    MW411200   2.515   1.068   4.689
 2793SOL     OW11201   3.130   1.421   4.558
 2793SOL    HW211202   3.049   1.373   4.541
 2793SOL    HW311203   3.196   1.378   4.503
 2793SOL    MW411204   3.128   1.409   4.548
 2794SOL     OW11205   3.076   1.695   4.537
 2794SOL    HW211206   2.990   1.711   4.577
 2794SOL    HW311207   3.092   1.602   4.551
 2794SOL    MW411208   3.067   1.685   4.544
 2795SOL     OW11209   2.771   1.677   4.562
 2795SOL    HW211210   2.727   1.761   4.575
 2795SOL    HW311211   2.755   1.656   4.470
 2795SOL    MW411212   2.763   1.685   4.551
 2796SOL     OW11213   2.649   1.929   4.583
 2796SOL    HW211214   2.697   2.010   4.567
 2796SOL    HW311215   2.557   1.954   4.575
 2796SOL    MW411216   2.643   1.943   4.580
 2797SOL     OW11217   2.791   2.165   4.515
 2797SOL    HW211218   2.711   2.205   4.481
 2797SOL    HW311219   2.837   2.132   4.438
 2797SOL    MW411220   2.787   2.166   4.500
 2798SOL     OW11221   3.054   2.242   4.669
 2798SOL    HW211222   3.122   2.197   4.621
 2798SOL    HW311223   2.972   2.205   4.636
 2798SOL    MW411224   3.052   2.231   4.659
 2799SOL     OW11225   2.412   2.794   4.781
 2799SOL    HW211226   2.402   2.851   4.857
 2799SOL    HW311227   2.348   2.826   4.718
 2799SOL    MW411228   2.402   2.806   4.782
 2800SOL     OW11229   3.748   3.247   4.525
 2800SOL    HW211230   3.720   3.255   4.434
 2800SOL    HW311231   3.843   3.258   4.522
 2800SOL    MW411232   3.757   3.249   4.513
 2801SOL     OW11233   2.530   2.578   4.658
 2801SOL    HW211234   2.502   2.625   4.736
 2801SOL    HW311235   2.505   2.635   4.585
 2801SOL    MW411236   2.523   2.592   4.659
 2802SOL     OW11237   2.942   3.561   4.495
 2802SOL    HW211238   3.015   3.504   4.518
 2802SOL    HW311239   2.865   3.516   4.528
 2802SOL    MW411240   2.942   3.548   4.502
 2803SOL     OW11241   2.893   2.886   4.575
 2803SOL    HW211242   2.987   2.882   4.591
 2803SOL    HW311243   2.865   2.795   4.570
 2803SOL    MW411244   2.902   2.874   4.576
 2804SOL     OW11245   2.917   4.666   4.571
 2804SOL    HW211246   2.911   4.571   4.557
 2804SOL    HW311247   2.843   4.702   4.522
 2804SOL    MW411248   2.906   4.658   4.563
 2805SOL     OW11249   3.805   3.740   4.903
 2805SOL    HW211250   3.737   3.696   4.953
 2805SOL    HW311251   3.864   3.670   4.875
 2805SOL    MW411252   3.804   3.725   4.906
 2806SOL     OW11253   3.776   3.668   4.466
 2806SOL    HW211254   3.847   3.618   4.506
 2806SOL    HW311255   3.793   3.663   4.372
 2806SOL    MW411256   3.788   3.661   4.459
 2807SOL     OW11257   2.935   3.824   4.607
 2807SOL    HW211258   2.847   3.854   4.585
 2807SOL    HW311259   2.940   3.734   4.575
 2807SOL    MW411260   2.924   3.816   4.600
 2808SOL     OW11261   2.917   4.392   4.511
 2808SOL    HW211262   2.836   4.343   4.523
 2808SOL    HW311263   2.985   4.337   4.549
 2808SOL    MW411264   2.915   4.378   4.517
 2809SOL     OW11265   3.174   0.350   4.606
 2809SOL    HW211266   3.237   0.413   4.570
 2809SOL    HW311267   3.089   0.393   4.596
 2809SOL    MW411268   3.171   0.364   4.600
 2810SOL     OW11269   3.368   0.549   4.526
 2810SOL    HW211270   3.359   0.547   4.431
 2810SOL    HW311271   3.378   0.641   4.548
 2810SOL    MW411272   3.368   0.561   4.517
 2811SOL     OW11273   2.485   0.433   4.638
 2811SOL    HW211274   2.577   0.411   4.628
 2811SOL    HW311275   2.472   0.510   4.583
 2811SOL    MW411276   2.495   0.440   4.630
 2812SOL     OW11277   2.317   0.949   4.486
 2812SOL    HW211278   2.385   0.989   4.540
 2812SOL    HW311279   2.256   1.020   4.468
 2812SOL    MW411280   2.318   0.964   4.491
 2813SOL     OW11281   2.975   0.188   4.754
 2813SOL    HW211282   2.944   0.113   4.703
 2813SOL    HW311283   3.054   0.217   4.708
 2813SOL    MW411284   2.981   0.182   4.741
 2814SOL     OW11285   3.417   0.803   4.646
 2814SOL    HW211286   3.466   0.838   4.571
 2814SOL    HW311287   3.484   0.764   4.703
 2814SOL    MW411288   3.433   0.802   4.643
 2815SOL     OW11289   3.341   1.274   4.720
 2815SOL    HW211290   3.262   1.314   4.682
 2815SOL    HW311291   3.317   1.183   4.735
 2815SOL    MW411292   3.327   1.267   4.717
 2816SOL     OW11293   2.915   1.241   4.539
 2816SOL    HW211294   2.840   1.293   4.567
 2816SOL    HW311295   2.908   1.239   4.443
 2816SOL    MW411296   2.904   1.247   4.530
 2817SOL     OW11297   4.110   0.988   4.436
 2817SOL    HW211298   4.105   0.959   4.345
 2817SOL    HW311299   4.174   0.929   4.475
 2817SOL    MW411300   4.118   0.976   4.429
 2818SOL     OW11301   3.544   1.381   4.561
 2818SOL    HW211302   3.543   1.475   4.579
 2818SOL    HW311303   3.500   1.342   4.637
 2818SOL    MW411304   3.538   1.389   4.573
 2819SOL     OW11305   3.327   1.824   4.541
 2819SOL    HW211306   3.381   1.804   4.464
 2819SOL    HW311307   3.250   1.768   4.532
 2819SOL    MW411308   3.324   1.814   4.530
 2820SOL     OW11309   3.261   2.112   4.565
 2820SOL    HW211310   3.268   2.017   4.562
 2820SOL    HW311311   3.289   2.141   4.478
 2820SOL    MW411312   3.265   2.103   4.553
 2821SOL     OW11313   3.532   1.649   4.635
 2821SOL    HW211314   3.543   1.667   4.729
 2821SOL    HW311315   3.453   1.697   4.610
 2821SOL    MW411316   3.523   1.658   4.644
 2822SOL     OW11317   2.812   2.612   4.535
 2822SOL    HW211318   2.753   2.555   4.585
 2822SOL    HW311319   2.899   2.573   4.547
 2822SOL    MW411320   2.816   2.599   4.543
 2823SOL     OW11321   3.377   2.571   4.556
 2823SOL    HW211322   3.299   2.565   4.612
 2823SOL    HW311323   3.404   2.663   4.564
 2823SOL    MW411324   3.370   2.582   4.565
 2824SOL     OW11325   3.085   2.533   4.599
 2824SOL    HW211326   3.105   2.519   4.506
 2824SOL    HW311327   3.072   2.445   4.634
 2824SOL    MW411328   3.086   2.519   4.591
 2825SOL     OW11329   3.864   2.810   4.535
 2825SOL    HW211330   3.841   2.717   4.541
 2825SOL    HW311331   3.947   2.817   4.583
 2825SOL    MW411332   3.872   2.799   4.543
 2826SOL     OW11333   3.147   2.826   4.649
 2826SOL    HW211334   3.236   2.843   4.616
 2826SOL    HW311335   3.146   2.731   4.664
 2826SOL    MW411336   3.159   2.816   4.646
 2827SOL     OW11337   3.656   3.004   4.581
 2827SOL    HW211338   3.724   2.937   4.580
 2827SOL    HW311339   3.701   3.083   4.551
 2827SOL    MW411340   3.671   3.006   4.577
 2828SOL     OW11341   4.127   2.787   4.680
 2828SOL    HW211342   4.143   2.820   4.769
 2828SOL    HW311343   4.202   2.817   4.629
 2828SOL    MW411344   4.139   2.795   4.685
 2829SOL     OW11345   3.597   3.477   4.568
 2829SOL    HW211346   3.661   3.548   4.561
 2829SOL    HW311347   3.649   3.397   4.558
 2829SOL    MW411348   3.612   3.476   4.566
 2830SOL     OW11349   3.579   4.245   4.601
 2830SOL    HW211350   3.656   4.301   4.595
 2830SOL    HW311351   3.614   4.157   4.614
 2830SOL    MW411352   3.594   4.241   4.602
 2831SOL     OW11353   3.145   4.267   4.636
 2831SOL    HW211354   3.174   4.275   4.727
 2831SOL    HW311355   3.220   4.299   4.585
 2831SOL    MW411356   3.159   4.272   4.641
 2832SOL     OW11357   3.145   0.130   4.458
 2832SOL    HW211358   3.067   0.100   4.503
 2832SOL    HW311359   3.175   0.205   4.510
 2832SOL    MW411360   3.139   0.136   4.471
 2833SOL     OW11361   3.345   4.376   4.472
 2833SOL    HW211362   3.414   4.319   4.506
 2833SOL    HW311363   3.371   4.464   4.498
 2833SOL    MW411364   3.357   4.380   4.480
 2834SOL     OW11365   3.624   3.927   4.553
 2834SOL    HW211366   3.664   3.846   4.521
 2834SOL    HW311367   3.541   3.900   4.592
 2834SOL    MW411368   3.619   3.913   4.554
 2835SOL     OW11369   3.543   0.142   4.697
 2835SOL    HW211370   3.476   0.160   4.762
 2835SOL    HW311371   3.502   0.081   4.636
 2835SOL    MW411372   3.529   0.136   4.697
 2836SOL     OW11373   3.077   1.003   4.542
 2836SOL    HW211374   3.039   1.089   4.558
 2836SOL    HW311375   3.119   0.979   4.625
 2836SOL    MW411376   3.077   1.011   4.555
 2837SOL     OW11377   3.247   0.988   4.769
 2837SOL    HW211378   3.310   0.940   4.716
 2837SOL    HW311379   3.239   0.937   4.849
 2837SOL    MW411380   3.255   0.975   4.772
 2838SOL     OW11381   4.190   1.496   4.641
 2838SOL    HW211382   4.192   1.402   4.625
 2838SOL    HW311383   4.113   1.527   4.595
 2838SOL    MW411384   4.180   1.488   4.633
 2839SOL     OW11385   3.824   1.022   4.507
 2839SOL    HW211386   3.823   1.118   4.517
 2839SOL    HW311387   3.909   1.004   4.467
 2839SOL    MW411388   3.835   1.033   4.503
 2840SOL     OW11389   0.095   0.893   4.524
 2840SOL    HW211390   0.112   0.883   4.430
 2840SOL    HW311391   0.177   0.869   4.566
 2840SOL    MW411392   0.108   0.889   4.517
 2841SOL     OW11393   4.363   0.514   4.491
 2841SOL    HW211394   4.350   0.500   4.397
 2841SOL    HW311395   4.283   0.483   4.531
 2841SOL    MW411396   4.351   0.508   4.484
 2842SOL     OW11397   3.418   1.707   4.295
 2842SOL    HW211398   3.459   1.629   4.259
 2842SOL    HW311399   3.328   1.705   4.261
 2842SOL    MW411400   3.411   1.697   4.286
 2843SOL     OW11401   3.722   1.763   4.459
 2843SOL    HW211402   3.654   1.719   4.510
 2843SOL    HW311403   3.737   1.845   4.505
 2843SOL    MW411404   3.715   1.768   4.472
 2844SOL     OW11405   3.483   2.172   4.721
 2844SOL    HW211406   3.471   2.197   4.813
 2844SOL    HW311407   3.394   2.158   4.688
 2844SOL    MW411408   3.470   2.173   4.729
 2845SOL     OW11409   3.958   2.109   4.742
 2845SOL    HW211410   4.034   2.052   4.755
 2845SOL    HW311411   3.979   2.188   4.791
 2845SOL    MW411412   3.971   2.112   4.751
 2846SOL     OW11413   4.222   1.977   4.726
 2846SOL    HW211414   4.297   1.997   4.782
 2846SOL    HW311415   4.241   1.890   4.691
 2846SOL    MW411416   4.234   1.968   4.729
 2847SOL     OW11417   3.732   2.025   4.620
 2847SOL    HW211418   3.801   2.055   4.679
 2847SOL    HW311419   3.653   2.069   4.652
 2847SOL    MW411420   3.730   2.035   4.632
 2848SOL     OW11421   3.838   2.533   4.533
 2848SOL    HW211422   3.754   2.490   4.552
 2848SOL    HW311423   3.858   2.506   4.443
 2848SOL    MW411424   3.829   2.524   4.523
 2849SOL     OW11425   4.082   2.488   4.688
 2849SOL    HW211426   4.004   2.503   4.635
 2849SOL    HW311427   4.103   2.575   4.724
 2849SOL    MW411428   4.074   2.502   4.686
 2850SOL     OW11429   4.262   3.163   4.638
 2850SOL    HW211430   4.348   3.203   4.628
 2850SOL    HW311431   4.275   3.072   4.611
 2850SOL    MW411432   4.275   3.156   4.633
 2851SOL     OW11433   3.142   3.368   4.576
 2851SOL    HW211434   3.085   3.306   4.622
 2851SOL    HW311435   3.161   3.325   4.493
 2851SOL    MW411436   3.137   3.354   4.571
 2852SOL     OW11437   4.025   3.248   4.481
 2852SOL    HW211438   4.109   3.219   4.517
 2852SOL    HW311439   4.037   3.246   4.386
 2852SOL    MW411440   4.038   3.244   4.473
 2853SOL     OW11441   3.348   3.560   4.519
 2853SOL    HW211442   3.297   3.480   4.531
 2853SOL    HW311443   3.436   3.537   4.547
 2853SOL    MW411444   3.353   3.547   4.524
 2854SOL     OW11445   4.267   3.639   4.490
 2854SOL    HW211446   4.261   3.637   4.394
 2854SOL    HW311447   4.181   3.610   4.520
 2854SOL    MW411448   4.255   3.635   4.481
 2855SOL     OW11449   0.123   2.935   4.560
 2855SOL    HW211450   0.155   2.930   4.470
 2855SOL    HW311451   0.119   3.029   4.579
 2855SOL    MW411452   0.126   2.947   4.550
 2856SOL     OW11453   4.073   4.023   4.534
 2856SOL    HW211454   4.090   4.117   4.537
 2856SOL    HW311455   3.993   4.011   4.585
 2856SOL    MW411456   4.064   4.033   4.541
 2857SOL     OW11457   3.810   4.420   4.544
 2857SOL    HW211458   3.790   4.398   4.453
 2857SOL    HW311459   3.825   4.514   4.543
 2857SOL    MW411460   3.809   4.429   4.532
 2858SOL     OW11461   3.414   4.641   4.505
 2858SOL    HW211462   3.470   4.685   4.442
 2858SOL    HW311463   3.325   4.669   4.481
 2858SOL    MW411464   3.410   4.650   4.494
 2859SOL     OW11465   3.560   0.907   4.444
 2859SOL    HW211466   3.640   0.947   4.479
 2859SOL    HW311467   3.592   0.837   4.387
 2859SOL    MW411468   3.575   0.903   4.441
 2860SOL     OW11469   3.869   0.785   4.662
 2860SOL    HW211470   3.952   0.788   4.709
 2860SOL    HW311471   3.867   0.865   4.610
 2860SOL    MW411472   3.880   0.796   4.661
 2861SOL     OW11473   0.118   0.363   4.503
 2861SOL    HW211474   0.196   0.414   4.524
 2861SOL    HW311475   0.047   0.427   4.501
 2861SOL    MW411476   0.119   0.378   4.506
 2862SOL     OW11477   0.357   0.529   4.532
 2862SOL    HW211478   0.444   0.491   4.539
 2862SOL    HW311479   0.341   0.536   4.438
 2862SOL    MW411480   0.366   0.525   4.521
 2863SOL     OW11481   4.106   0.395   4.555
 2863SOL    HW211482   4.020   0.437   4.545
 2863SOL    HW311483   4.089   0.302   4.545
 2863SOL    MW411484   4.092   0.388   4.552
 2864SOL     OW11485   3.806   1.321   4.474
 2864SOL    HW211486   3.721   1.351   4.507
 2864SOL    HW311487   3.867   1.391   4.496
 2864SOL    MW411488   3.803   1.334   4.481
 2865SOL     OW11489   0.007   1.167   4.540
 2865SOL    HW211490   0.045   1.080   4.542
 2865SOL    HW311491   0.082   1.227   4.538
 2865SOL    MW411492   0.022   1.164   4.540
 2866SOL     OW11493   0.265   1.315   4.501
 2866SOL    HW211494   0.355   1.282   4.493
 2866SOL    HW311495   0.276   1.405   4.530
 2866SOL    MW411496   0.278   1.322   4.504
 2867SOL     OW11497   3.953   1.587   4.497
 2867SOL    HW211498   4.017   1.645   4.457
 2867SOL    HW311499   3.870   1.635   4.493
 2867SOL    MW411500   3.951   1.601   4.491
 2868SOL     OW11501   3.405   2.840   4.548
 2868SOL    HW211502   3.393   2.839   4.453
 2868SOL    HW311503   3.468   2.910   4.564
 2868SOL    MW411504   3.411   2.849   4.538
 2869SOL     OW11505   4.240   2.117   4.206
 2869SOL    HW211506   4.163   2.063   4.187
 2869SOL    HW311507   4.252   2.107   4.301
 2869SOL    MW411508   4.231   2.108   4.216
 2870SOL     OW11509   0.205   2.202   4.501
 2870SOL    HW211510   0.293   2.225   4.529
 2870SOL    HW311511   0.153   2.281   4.516
 2870SOL    MW411512   0.209   2.216   4.507
 2871SOL     OW11513   4.250   2.115   4.491
 2871SOL    HW211514   4.227   2.069   4.572
 2871SOL    HW311515   4.239   2.208   4.513
 2871SOL    MW411516   4.246   2.121   4.505
 2872SOL     OW11517   3.582   2.398   4.560
 2872SOL    HW211518   3.498   2.441   4.548
 2872SOL    HW311519   3.562   2.316   4.605
 2872SOL    MW411520   3.568   2.393   4.564
 2873SOL     OW11521   0.487   2.536   4.635
 2873SOL    HW211522   0.483   2.445   4.603
 2873SOL    HW311523   0.579   2.559   4.626
 2873SOL    MW411524   0.499   2.527   4.630
 2874SOL     OW11525   4.327   2.908   4.542
 2874SOL    HW211526   4.421   2.893   4.557
 2874SOL    HW311527   4.315   2.888   4.449
 2874SOL    MW411528   4.338   2.903   4.531
 2875SOL     OW11529   0.072   3.241   4.529
 2875SOL    HW211530   0.067   3.225   4.435
 2875SOL    HW311531   0.166   3.250   4.546
 2875SOL    MW411532   0.084   3.240   4.519
 2876SOL     OW11533   0.254   3.571   4.546
 2876SOL    HW211534   0.239   3.600   4.456
 2876SOL    HW311535   0.166   3.561   4.582
 2876SOL    MW411536   0.240   3.573   4.538
 2877SOL     OW11537   4.276   0.006   4.610
 2877SOL    HW211538   4.209   0.069   4.583
 2877SOL    HW311539   4.242  -0.033   4.690
 2877SOL    MW411540   4.263   0.009   4.617
 2878SOL     OW11541   3.785   0.048   4.543
 2878SOL    HW211542   3.727   0.075   4.613
 2878SOL    HW311543   3.739   0.072   4.463
 2878SOL    MW411544   3.771   0.054   4.542
 2879SOL     OW11545   4.219   4.275   4.816
 2879SOL    HW211546   4.310   4.265   4.786
 2879SOL    HW311547   4.204   4.199   4.872
 2879SOL    MW411548   4.229   4.264   4.819
 2880SOL     OW11549   3.621   0.435   4.647
 2880SOL    HW211550   3.590   0.348   4.674
 2880SOL    HW311551   3.542   0.480   4.617
 2880SOL    MW411552   3.606   0.430   4.647
 2881SOL     OW11553   4.280   4.362   4.225
 2881SOL    HW211554   4.346   4.295   4.205
 2881SOL    HW311555   4.302   4.392   4.313
 2881SOL    MW411556   4.292   4.357   4.234
 2882NA      NA11557   2.599   4.335   0.576
 2883NA      NA11558   0.549   2.274   0.378
   4.49070   4.66690  10.00000
