Gromacs Runs On Most of All Computer Systems in water t= 690.00000 step= 690000
11558
    1RG35     P    1   2.113   2.906   4.455
    1RG35   O1P    2   2.118   2.822   4.336
    1RG35   O2P    3   2.036   3.027   4.451
    1RG35   O5'    4   2.027   2.821   4.554
    1RG35   C5'    5   1.884   2.824   4.553
    1RG35  H5'1    6   1.846   2.822   4.450
    1RG35  H5'2    7   1.852   2.916   4.600
    1RG35   C4'    8   1.818   2.719   4.628
    1RG35   H4'    9   1.715   2.743   4.655
    1RG35   O4'   10   1.822   2.594   4.552
    1RG35   C1'   11   1.891   2.501   4.636
    1RG35   H1'   12   1.831   2.432   4.696
    1RG35    N9   13   1.962   2.410   4.546
    1RG35    C8   14   2.069   2.436   4.464
    1RG35    H8   15   2.103   2.538   4.448
    1RG35    N7   16   2.119   2.331   4.405
    1RG35    C5   17   2.042   2.224   4.449
    1RG35    C6   18   2.037   2.090   4.406
    1RG35    O6   19   2.114   2.029   4.328
    1RG35    N1   20   1.934   2.018   4.464
    1RG35    H1   21   1.941   1.919   4.447
    1RG35    C2   22   1.854   2.068   4.560
    1RG35    N2   23   1.762   1.994   4.607
    1RG35   H21   24   1.739   1.917   4.547
    1RG35   H22   25   1.696   2.041   4.668
    1RG35    N3   26   1.846   2.199   4.599
    1RG35    C4   27   1.944   2.273   4.539
    1RG35   C3'   28   1.888   2.697   4.757
    1RG35   H3'   29   1.948   2.785   4.782
    1RG35   C2'   30   1.985   2.583   4.720
    1RG35  H2'1   31   2.067   2.614   4.656
    1RG35   O2'   32   2.031   2.516   4.837
    1RG35  HO'2   33   2.106   2.568   4.867
    1RG35   O3'   34   1.793   2.660   4.856
    1RG35   H3T   35   1.834   2.596   4.915
    1RG35   O3P   36   2.241   2.916   4.529
    2SOL     OW   37   0.484   0.062   0.434
    2SOL    HW2   38   0.496  -0.032   0.445
    2SOL    HW3   39   0.553   0.089   0.374
    2SOL    MW4   40   0.494   0.053   0.427
    3SOL     OW   41   4.051   0.228   0.474
    3SOL    HW2   42   4.106   0.165   0.429
    3SOL    HW3   43   4.109   0.303   0.492
    3SOL    MW4   44   4.066   0.230   0.471
    4SOL     OW   45   3.790   0.588   0.414
    4SOL    HW2   46   3.695   0.593   0.400
    4SOL    HW3   47   3.799   0.570   0.508
    4SOL    MW4   48   3.778   0.587   0.425
    5SOL     OW   49   0.466   1.724   0.416
    5SOL    HW2   50   0.552   1.682   0.413
    5SOL    HW3   51   0.407   1.659   0.378
    5SOL    MW4   52   0.470   1.710   0.410
    6SOL     OW   53   1.439   0.846   0.407
    6SOL    HW2   54   1.406   0.848   0.497
    6SOL    HW3   55   1.534   0.848   0.415
    6SOL    MW4   56   1.447   0.847   0.420
    7SOL     OW   57   0.257   0.473   0.468
    7SOL    HW2   58   0.231   0.470   0.560
    7SOL    HW3   59   0.259   0.382   0.440
    7SOL    MW4   60   0.254   0.461   0.477
    8SOL     OW   61   0.569   0.840   0.457
    8SOL    HW2   62   0.524   0.842   0.541
    8SOL    HW3   63   0.531   0.765   0.411
    8SOL    MW4   64   0.558   0.830   0.462
    9SOL     OW   65   0.844   0.822   0.474
    9SOL    HW2   66   0.862   0.799   0.566
    9SOL    HW3   67   0.748   0.823   0.468
    9SOL    MW4   68   0.833   0.819   0.486
   10SOL     OW   69   0.559   1.104   0.346
   10SOL    HW2   70   0.550   1.069   0.257
   10SOL    HW3   71   0.556   1.027   0.403
   10SOL    MW4   72   0.558   1.090   0.342
   11SOL     OW   73   4.241   1.430   0.355
   11SOL    HW2   74   4.190   1.511   0.367
   11SOL    HW3   75   4.199   1.386   0.282
   11SOL    MW4   76   4.228   1.435   0.347
   12SOL     OW   77   4.060   2.330   0.538
   12SOL    HW2   78   3.969   2.302   0.551
   12SOL    HW3   79   4.055   2.426   0.534
   12SOL    MW4   80   4.047   2.339   0.539
   13SOL     OW   81   4.467   1.637   0.412
   13SOL    HW2   82   4.473   1.653   0.506
   13SOL    HW3   83   4.402   1.567   0.403
   13SOL    MW4   84   4.459   1.630   0.423
   14SOL     OW   85   0.678   2.307   0.442
   14SOL    HW2   86   0.673   2.298   0.537
   14SOL    HW3   87   0.736   2.382   0.428
   14SOL    MW4   88   0.685   2.315   0.453
   15SOL     OW   89   0.187   2.777   0.453
   15SOL    HW2   90   0.197   2.869   0.426
   15SOL    HW3   91   0.269   2.735   0.425
   15SOL    MW4   92   0.199   2.784   0.446
   16SOL     OW   93   4.140   3.284   0.427
   16SOL    HW2   94   4.182   3.239   0.354
   16SOL    HW3   95   4.118   3.214   0.489
   16SOL    MW4   96   4.142   3.269   0.425
   17SOL     OW   97   0.227   3.041   0.398
   17SOL    HW2   98   0.297   3.067   0.458
   17SOL    HW3   99   0.157   3.104   0.416
   17SOL    MW4  100   0.227   3.053   0.409
   18SOL     OW  101   0.617   3.219   0.359
   18SOL    HW2  102   0.711   3.201   0.362
   18SOL    HW3  103   0.610   3.313   0.373
   18SOL    MW4  104   0.628   3.229   0.361
   19SOL     OW  105   0.625   3.714   0.308
   19SOL    HW2  106   0.718   3.721   0.287
   19SOL    HW3  107   0.607   3.793   0.359
   19SOL    MW4  108   0.635   3.725   0.312
   20SOL     OW  109   4.208   3.817   0.477
   20SOL    HW2  110   4.241   3.871   0.549
   20SOL    HW3  111   4.236   3.728   0.499
   20SOL    MW4  112   4.216   3.813   0.490
   21SOL     OW  113   0.059   3.712   0.212
   21SOL    HW2  114   0.117   3.764   0.268
   21SOL    HW3  115   0.117   3.673   0.147
   21SOL    MW4  116   0.074   3.714   0.211
   22SOL     OW  117   0.031   4.441   0.463
   22SOL    HW2  118  -0.004   4.388   0.391
   22SOL    HW3  119  -0.031   4.427   0.535
   22SOL    MW4  120   0.018   4.432   0.463
   23SOL     OW  121   4.361   4.273   0.308
   23SOL    HW2  122   4.384   4.183   0.286
   23SOL    HW3  123   4.272   4.268   0.341
   23SOL    MW4  124   4.353   4.261   0.309
   24SOL     OW  125   4.391   3.950   0.292
   24SOL    HW2  126   4.308   3.915   0.323
   24SOL    HW3  127   4.422   3.884   0.229
   24SOL    MW4  128   4.384   3.936   0.288
   25SOL     OW  129   0.463   3.092   0.528
   25SOL    HW2  130   0.467   3.139   0.612
   25SOL    HW3  131   0.524   3.139   0.472
   25SOL    MW4  132   0.471   3.104   0.532
   26SOL     OW  133   0.513   4.451   0.479
   26SOL    HW2  134   0.566   4.431   0.557
   26SOL    HW3  135   0.427   4.413   0.498
   26SOL    MW4  136   0.509   4.443   0.492
   27SOL     OW  137   0.197   0.176   0.417
   27SOL    HW2  138   0.127   0.110   0.421
   27SOL    HW3  139   0.277   0.125   0.431
   27SOL    MW4  140   0.198   0.160   0.420
   28SOL     OW  141   0.106   0.609   0.283
   28SOL    HW2  142   0.149   0.585   0.201
   28SOL    HW3  143   0.160   0.570   0.351
   28SOL    MW4  144   0.119   0.600   0.281
   29SOL     OW  145   1.065   4.472   0.397
   29SOL    HW2  146   1.068   4.378   0.411
   29SOL    HW3  147   1.143   4.492   0.345
   29SOL    MW4  148   1.076   4.462   0.392
   30SOL     OW  149   1.052   0.996   0.427
   30SOL    HW2  150   0.978   0.937   0.441
   30SOL    HW3  151   1.102   0.992   0.509
   30SOL    MW4  152   1.049   0.988   0.440
   31SOL     OW  153   0.684   0.442   0.448
   31SOL    HW2  154   0.761   0.483   0.408
   31SOL    HW3  155   0.683   0.353   0.413
   31SOL    MW4  156   0.694   0.435   0.438
   32SOL     OW  157   0.286   1.252   0.445
   32SOL    HW2  158   0.361   1.226   0.392
   32SOL    HW3  159   0.211   1.211   0.403
   32SOL    MW4  160   0.286   1.243   0.432
   33SOL     OW  161   0.079   2.098   0.441
   33SOL    HW2  162   0.014   2.168   0.438
   33SOL    HW3  163   0.034   2.022   0.406
   33SOL    MW4  164   0.065   2.097   0.436
   34SOL     OW  165   0.530   1.988   0.387
   34SOL    HW2  166   0.453   2.037   0.359
   34SOL    HW3  167   0.505   1.896   0.376
   34SOL    MW4  168   0.517   1.982   0.382
   35SOL     OW  169   0.426   3.062   0.184
   35SOL    HW2  170   0.362   3.072   0.255
   35SOL    HW3  171   0.493   3.127   0.205
   35SOL    MW4  172   0.426   3.072   0.196
   36SOL     OW  173   0.551   2.824   0.150
   36SOL    HW2  174   0.522   2.909   0.181
   36SOL    HW3  175   0.555   2.833   0.055
   36SOL    MW4  176   0.548   2.836   0.142
   37SOL     OW  177   3.768   2.101   0.241
   37SOL    HW2  178   3.778   2.074   0.150
   37SOL    HW3  179   3.858   2.108   0.274
   37SOL    MW4  180   3.781   2.098   0.234
   38SOL     OW  181   1.223   2.165   0.493
   38SOL    HW2  182   1.205   2.123   0.577
   38SOL    HW3  183   1.310   2.134   0.468
   38SOL    MW4  184   1.232   2.156   0.501
   39SOL     OW  185   0.416   2.401   0.430
   39SOL    HW2  186   0.411   2.486   0.386
   39SOL    HW3  187   0.510   2.383   0.437
   39SOL    MW4  188   0.428   2.410   0.425
   40SOL     OW  189   4.303   3.140   0.255
   40SOL    HW2  190   4.263   3.077   0.315
   40SOL    HW3  191   4.327   3.088   0.178
   40SOL    MW4  192   4.301   3.125   0.253
   41SOL     OW  193   0.438   2.690   0.378
   41SOL    HW2  194   0.463   2.718   0.290
   41SOL    HW3  195   0.504   2.729   0.436
   41SOL    MW4  196   0.450   2.699   0.374
   42SOL     OW  197   0.845   0.359   0.096
   42SOL    HW2  198   0.828   0.371   0.002
   42SOL    HW3  199   0.834   0.446   0.134
   42SOL    MW4  200   0.841   0.372   0.089
   43SOL     OW  201   0.284   3.588   0.520
   43SOL    HW2  202   0.293   3.676   0.482
   43SOL    HW3  203   0.360   3.540   0.488
   43SOL    MW4  204   0.295   3.594   0.511
   44SOL     OW  205   0.548   3.487   0.464
   44SOL    HW2  206   0.557   3.569   0.416
   44SOL    HW3  207   0.581   3.508   0.552
   44SOL    MW4  208   0.553   3.501   0.469
   45SOL     OW  209   1.161   3.624   0.503
   45SOL    HW2  210   1.096   3.558   0.479
   45SOL    HW3  211   1.243   3.593   0.464
   45SOL    MW4  212   1.163   3.611   0.495
   46SOL     OW  213   0.265   4.328   0.516
   46SOL    HW2  214   0.183   4.362   0.479
   46SOL    HW3  215   0.259   4.233   0.505
   46SOL    MW4  216   0.253   4.320   0.510
   47SOL     OW  217   0.933   3.469   0.467
   47SOL    HW2  218   0.919   3.520   0.386
   47SOL    HW3  219   0.855   3.487   0.519
   47SOL    MW4  220   0.921   3.478   0.463
   48SOL     OW  221   0.697   4.171   0.491
   48SOL    HW2  222   0.638   4.222   0.436
   48SOL    HW3  223   0.716   4.228   0.566
   48SOL    MW4  224   0.692   4.185   0.494
   49SOL     OW  225   0.726   0.187   0.316
   49SOL    HW2  226   0.797   0.143   0.363
   49SOL    HW3  227   0.770   0.239   0.249
   49SOL    MW4  228   0.741   0.188   0.313
   50SOL     OW  229   0.905   0.566   0.325
   50SOL    HW2  230   0.890   0.647   0.373
   50SOL    HW3  231   0.988   0.533   0.360
   50SOL    MW4  232   0.914   0.572   0.336
   51SOL     OW  233   0.483   0.604   0.337
   51SOL    HW2  234   0.420   0.564   0.398
   51SOL    HW3  235   0.559   0.547   0.340
   51SOL    MW4  236   0.484   0.591   0.345
   52SOL     OW  237   1.411   0.563   0.336
   52SOL    HW2  238   1.478   0.529   0.396
   52SOL    HW3  239   1.419   0.658   0.344
   52SOL    MW4  240   1.421   0.571   0.345
   53SOL     OW  241   1.911   0.811   0.351
   53SOL    HW2  242   1.840   0.846   0.404
   53SOL    HW3  243   1.879   0.814   0.262
   53SOL    MW4  244   1.898   0.816   0.347
   54SOL     OW  245   1.469   0.005   0.235
   54SOL    HW2  246   1.563  -0.005   0.248
   54SOL    HW3  247   1.458   0.096   0.208
   54SOL    MW4  248   1.480   0.016   0.233
   55SOL     OW  249   0.718   1.594   0.397
   55SOL    HW2  250   0.704   1.500   0.411
   55SOL    HW3  251   0.805   1.611   0.432
   55SOL    MW4  252   0.727   1.584   0.404
   56SOL     OW  253   0.717   1.336   0.468
   56SOL    HW2  254   0.673   1.265   0.423
   56SOL    HW3  255   0.811   1.317   0.457
   56SOL    MW4  256   0.724   1.324   0.460
   57SOL     OW  257   1.383   1.341   0.279
   57SOL    HW2  258   1.355   1.253   0.306
   57SOL    HW3  259   1.310   1.398   0.304
   57SOL    MW4  260   1.369   1.337   0.286
   58SOL     OW  261   0.999   1.283   0.424
   58SOL    HW2  262   1.009   1.189   0.406
   58SOL    HW3  263   1.082   1.322   0.398
   58SOL    MW4  264   1.011   1.276   0.418
   59SOL     OW  265   1.197   1.531   0.362
   59SOL    HW2  266   1.239   1.601   0.312
   59SOL    HW3  267   1.122   1.573   0.404
   59SOL    MW4  268   1.193   1.545   0.361
   60SOL     OW  269   4.380   2.300   0.434
   60SOL    HW2  270   4.305   2.283   0.492
   60SOL    HW3  271   4.395   2.394   0.441
   60SOL    MW4  272   4.372   2.310   0.443
   61SOL     OW  273   4.451   1.880   0.299
   61SOL    HW2  274   4.471   1.801   0.349
   61SOL    HW3  275   4.511   1.877   0.224
   61SOL    MW4  276   4.461   1.869   0.296
   62SOL     OW  277   0.811   2.039   0.580
   62SOL    HW2  278   0.750   2.009   0.648
   62SOL    HW3  279   0.897   2.035   0.622
   62SOL    MW4  280   0.814   2.035   0.595
   63SOL     OW  281   0.803   1.876   0.290
   63SOL    HW2  282   0.785   1.788   0.324
   63SOL    HW3  283   0.898   1.882   0.288
   63SOL    MW4  284   0.813   1.865   0.294
   64SOL     OW  285   0.861   2.231   0.246
   64SOL    HW2  286   0.830   2.318   0.271
   64SOL    HW3  287   0.955   2.241   0.235
   64SOL    MW4  288   0.869   2.244   0.248
   65SOL     OW  289   0.823   2.770   0.302
   65SOL    HW2  290   0.762   2.794   0.372
   65SOL    HW3  291   0.766   2.754   0.226
   65SOL    MW4  292   0.807   2.771   0.301
   66SOL     OW  293   0.630   2.862   0.537
   66SOL    HW2  294   0.581   2.943   0.533
   66SOL    HW3  295   0.651   2.852   0.630
   66SOL    MW4  296   0.626   2.871   0.549
   67SOL     OW  297   0.883   3.187   0.465
   67SOL    HW2  298   0.875   3.173   0.559
   67SOL    HW3  299   0.920   3.275   0.457
   67SOL    MW4  300   0.887   3.197   0.476
   68SOL     OW  301   2.007   3.113   0.400
   68SOL    HW2  302   2.092   3.133   0.439
   68SOL    HW3  303   2.022   3.116   0.306
   68SOL    MW4  304   2.020   3.116   0.393
   69SOL     OW  305   0.915   3.991   0.449
   69SOL    HW2  306   0.843   4.051   0.427
   69SOL    HW3  307   0.911   3.982   0.544
   69SOL    MW4  308   0.905   3.998   0.458
   70SOL     OW  309   0.547   3.915   0.487
   70SOL    HW2  310   0.509   3.921   0.575
   70SOL    HW3  311   0.600   3.994   0.478
   70SOL    MW4  312   0.549   3.926   0.497
   71SOL     OW  313   1.106   4.211   0.495
   71SOL    HW2  314   1.039   4.142   0.491
   71SOL    HW3  315   1.105   4.239   0.587
   71SOL    MW4  316   1.097   4.206   0.507
   72SOL     OW  317   1.139   0.482   0.449
   72SOL    HW2  318   1.136   0.397   0.405
   72SOL    HW3  319   1.221   0.522   0.420
   72SOL    MW4  320   1.150   0.476   0.440
   73SOL     OW  321   0.958   0.074   0.422
   73SOL    HW2  322   0.978  -0.019   0.418
   73SOL    HW3  323   0.945   0.091   0.516
   73SOL    MW4  324   0.959   0.064   0.434
   74SOL     OW  325   1.397   0.283   0.226
   74SOL    HW2  326   1.306   0.275   0.256
   74SOL    HW3  327   1.427   0.366   0.263
   74SOL    MW4  328   1.389   0.293   0.235
   75SOL     OW  329   2.017   4.562   0.403
   75SOL    HW2  330   2.043   4.478   0.365
   75SOL    HW3  331   1.929   4.577   0.369
   75SOL    MW4  332   2.009   4.553   0.393
   76SOL     OW  333   1.137   0.249   0.284
   76SOL    HW2  334   1.083   0.183   0.327
   76SOL    HW3  335   1.093   0.267   0.201
   76SOL    MW4  336   1.124   0.243   0.279
   77SOL     OW  337   2.102   0.371   0.344
   77SOL    HW2  338   2.036   0.440   0.346
   77SOL    HW3  339   2.128   0.365   0.252
   77SOL    MW4  340   2.097   0.379   0.332
   78SOL     OW  341   2.453   0.969   0.297
   78SOL    HW2  342   2.429   0.989   0.206
   78SOL    HW3  343   2.371   0.949   0.340
   78SOL    MW4  344   2.439   0.969   0.290
   79SOL     OW  345   1.655   1.175   0.369
   79SOL    HW2  346   1.606   1.218   0.299
   79SOL    HW3  347   1.725   1.237   0.391
   79SOL    MW4  348   1.658   1.189   0.363
   80SOL     OW  349   1.699   0.900   0.464
   80SOL    HW2  350   1.730   0.908   0.554
   80SOL    HW3  351   1.682   0.990   0.436
   80SOL    MW4  352   1.701   0.913   0.472
   81SOL     OW  353   1.303   1.093   0.359
   81SOL    HW2  354   1.215   1.057   0.355
   81SOL    HW3  355   1.358   1.019   0.385
   81SOL    MW4  356   1.299   1.078   0.362
   82SOL     OW  357   1.831   1.817   0.533
   82SOL    HW2  358   1.812   1.834   0.625
   82SOL    HW3  359   1.867   1.899   0.500
   82SOL    MW4  360   1.833   1.830   0.541
   83SOL     OW  361   1.164   2.436   0.438
   83SOL    HW2  362   1.248   2.482   0.447
   83SOL    HW3  363   1.184   2.346   0.464
   83SOL    MW4  364   1.178   2.430   0.442
   84SOL     OW  365   1.420   2.513   0.476
   84SOL    HW2  366   1.430   2.605   0.452
   84SOL    HW3  367   1.499   2.471   0.443
   84SOL    MW4  368   1.432   2.520   0.468
   85SOL     OW  369   2.323   1.602   0.225
   85SOL    HW2  370   2.367   1.611   0.140
   85SOL    HW3  371   2.366   1.667   0.281
   85SOL    MW4  372   2.334   1.612   0.221
   86SOL     OW  373   1.629   2.327   0.385
   86SOL    HW2  374   1.709   2.331   0.437
   86SOL    HW3  375   1.659   2.335   0.294
   86SOL    MW4  376   1.644   2.329   0.380
   87SOL     OW  377   0.995   1.684   0.475
   87SOL    HW2  378   0.977   1.708   0.566
   87SOL    HW3  379   1.040   1.760   0.439
   87SOL    MW4  380   0.999   1.697   0.482
   88SOL     OW  381   1.031   2.965   0.368
   88SOL    HW2  382   1.001   3.055   0.383
   88SOL    HW3  383   0.951   2.917   0.346
   88SOL    MW4  384   1.016   2.971   0.367
   89SOL     OW  385   1.956   2.065   0.494
   89SOL    HW2  386   1.958   2.041   0.587
   89SOL    HW3  387   2.040   2.110   0.479
   89SOL    MW4  388   1.968   2.067   0.505
   90SOL     OW  389   1.902   0.540   0.453
   90SOL    HW2  390   1.900   0.632   0.426
   90SOL    HW3  391   1.810   0.516   0.463
   90SOL    MW4  392   1.890   0.549   0.451
   91SOL     OW  393   1.126   3.834   0.337
   91SOL    HW2  394   1.153   3.757   0.387
   91SOL    HW3  395   1.063   3.879   0.393
   91SOL    MW4  396   1.121   3.830   0.351
   92SOL     OW  397   2.045   2.550   0.519
   92SOL    HW2  398   2.040   2.646   0.514
   92SOL    HW3  399   2.099   2.533   0.596
   92SOL    MW4  400   2.052   2.560   0.529
   93SOL     OW  401   1.381   3.950   0.424
   93SOL    HW2  402   1.299   3.923   0.383
   93SOL    HW3  403   1.406   4.030   0.379
   93SOL    MW4  404   1.374   3.957   0.413
   94SOL     OW  405   1.678   2.888   0.498
   94SOL    HW2  406   1.755   2.840   0.467
   94SOL    HW3  407   1.672   2.866   0.591
   94SOL    MW4  408   1.687   2.879   0.506
   95SOL     OW  409   2.230   3.985   0.491
   95SOL    HW2  410   2.188   3.907   0.455
   95SOL    HW3  411   2.292   4.012   0.423
   95SOL    MW4  412   2.233   3.978   0.477
   96SOL     OW  413   0.912   3.659   0.255
   96SOL    HW2  414   0.922   3.622   0.167
   96SOL    HW3  415   0.984   3.722   0.263
   96SOL    MW4  416   0.923   3.662   0.244
   97SOL     OW  417   1.739   4.618   0.333
   97SOL    HW2  418   1.723   4.686   0.399
   97SOL    HW3  419   1.708   4.537   0.373
   97SOL    MW4  420   1.733   4.616   0.347
   98SOL     OW  421   2.057   0.037   0.774
   98SOL    HW2  422   2.087  -0.052   0.755
   98SOL    HW3  423   2.077   0.085   0.693
   98SOL    MW4  424   2.064   0.032   0.761
   99SOL     OW  425   2.581   4.470   0.285
   99SOL    HW2  426   2.615   4.472   0.374
   99SOL    HW3  427   2.621   4.545   0.241
   99SOL    MW4  428   2.591   4.480   0.291
  100SOL     OW  429   1.373   4.277   0.405
  100SOL    HW2  430   1.293   4.245   0.446
  100SOL    HW3  431   1.346   4.355   0.356
  100SOL    MW4  432   1.359   4.283   0.404
  101SOL     OW  433   2.374   0.304   0.447
  101SOL    HW2  434   2.279   0.302   0.446
  101SOL    HW3  435   2.396   0.397   0.458
  101SOL    MW4  436   2.364   0.316   0.448
  102SOL     OW  437   1.606   1.816   0.324
  102SOL    HW2  438   1.680   1.810   0.385
  102SOL    HW3  439   1.619   1.744   0.263
  102SOL    MW4  440   1.617   1.806   0.324
  103SOL     OW  441   2.097   1.228   0.433
  103SOL    HW2  442   2.017   1.266   0.396
  103SOL    HW3  443   2.158   1.301   0.439
  103SOL    MW4  444   2.094   1.242   0.429
  104SOL     OW  445   2.526   1.189   0.443
  104SOL    HW2  446   2.622   1.195   0.436
  104SOL    HW3  447   2.503   1.113   0.390
  104SOL    MW4  448   2.536   1.180   0.435
  105SOL     OW  449   2.456   1.779   0.411
  105SOL    HW2  450   2.550   1.766   0.425
  105SOL    HW3  451   2.415   1.740   0.488
  105SOL    MW4  452   2.463   1.772   0.423
  106SOL     OW  453   1.599   1.513   0.338
  106SOL    HW2  454   1.533   1.451   0.307
  106SOL    HW3  455   1.587   1.517   0.433
  106SOL    MW4  456   1.589   1.505   0.346
  107SOL     OW  457   1.327   1.783   0.396
  107SOL    HW2  458   1.416   1.793   0.362
  107SOL    HW3  459   1.338   1.734   0.478
  107SOL    MW4  460   1.340   1.778   0.403
  108SOL     OW  461   2.195   2.196   0.457
  108SOL    HW2  462   2.219   2.281   0.493
  108SOL    HW3  463   2.278   2.155   0.435
  108SOL    MW4  464   2.209   2.202   0.459
  109SOL     OW  465   1.730   3.182   0.498
  109SOL    HW2  466   1.713   3.088   0.503
  109SOL    HW3  467   1.811   3.189   0.448
  109SOL    MW4  468   1.738   3.171   0.492
  110SOL     OW  469   1.096   2.747   0.531
  110SOL    HW2  470   1.063   2.687   0.465
  110SOL    HW3  471   1.085   2.834   0.492
  110SOL    MW4  472   1.090   2.751   0.517
  111SOL     OW  473   1.451   3.240   0.507
  111SOL    HW2  474   1.545   3.225   0.496
  111SOL    HW3  475   1.410   3.161   0.473
  111SOL    MW4  476   1.458   3.228   0.501
  112SOL     OW  477   1.083   1.932   0.353
  112SOL    HW2  478   1.170   1.892   0.358
  112SOL    HW3  479   1.098   2.025   0.368
  112SOL    MW4  480   1.096   1.939   0.356
  113SOL     OW  481   3.659   1.415   0.493
  113SOL    HW2  482   3.595   1.355   0.455
  113SOL    HW3  483   3.609   1.466   0.558
  113SOL    MW4  484   3.644   1.414   0.496
  114SOL     OW  485   1.872   2.326   0.516
  114SOL    HW2  486   1.900   2.236   0.506
  114SOL    HW3  487   1.952   2.378   0.510
  114SOL    MW4  488   1.886   2.321   0.514
  115SOL     OW  489   1.482   2.091   0.434
  115SOL    HW2  490   1.546   2.161   0.422
  115SOL    HW3  491   1.511   2.021   0.376
  115SOL    MW4  492   1.494   2.091   0.425
  116SOL     OW  493   1.396   3.511   0.417
  116SOL    HW2  494   1.478   3.555   0.396
  116SOL    HW3  495   1.422   3.425   0.450
  116SOL    MW4  496   1.410   3.505   0.419
  117SOL     OW  497   2.519   3.516   0.426
  117SOL    HW2  498   2.431   3.509   0.390
  117SOL    HW3  499   2.508   3.503   0.520
  117SOL    MW4  500   2.506   3.514   0.434
  118SOL     OW  501   1.596   4.432   0.491
  118SOL    HW2  502   1.603   4.418   0.585
  118SOL    HW3  503   1.522   4.377   0.465
  118SOL    MW4  504   1.587   4.423   0.500
  119SOL     OW  505   1.614   3.742   0.474
  119SOL    HW2  506   1.563   3.817   0.444
  119SOL    HW3  507   1.705   3.773   0.472
  119SOL    MW4  508   1.620   3.756   0.469
  120SOL     OW  509   1.274   4.473   0.217
  120SOL    HW2  510   1.352   4.528   0.206
  120SOL    HW3  511   1.235   4.470   0.130
  120SOL    MW4  512   1.280   4.480   0.204
  121SOL     OW  513   1.470   0.032   0.550
  121SOL    HW2  514   1.432   0.050   0.464
  121SOL    HW3  515   1.509  -0.055   0.541
  121SOL    MW4  516   1.470   0.023   0.537
  122SOL     OW  517   2.324   4.626   0.590
  122SOL    HW2  518   2.405   4.655   0.548
  122SOL    HW3  519   2.260   4.693   0.566
  122SOL    MW4  520   2.327   4.639   0.581
  123SOL     OW  521   2.101   0.137   0.513
  123SOL    HW2  522   2.079   0.213   0.460
  123SOL    HW3  523   2.078   0.062   0.459
  123SOL    MW4  524   2.095   0.137   0.499
  124SOL     OW  525   2.850   1.485   0.333
  124SOL    HW2  526   2.818   1.478   0.243
  124SOL    HW3  527   2.847   1.396   0.367
  124SOL    MW4  528   2.845   1.472   0.326
  125SOL     OW  529   2.764   0.379   0.381
  125SOL    HW2  530   2.801   0.341   0.301
  125SOL    HW3  531   2.827   0.446   0.407
  125SOL    MW4  532   2.777   0.383   0.374
  126SOL     OW  533   2.180   0.965   0.390
  126SOL    HW2  534   2.162   1.059   0.395
  126SOL    HW3  535   2.098   0.926   0.358
  126SOL    MW4  536   2.166   0.972   0.387
  127SOL     OW  537   2.819   1.227   0.434
  127SOL    HW2  538   2.898   1.175   0.416
  127SOL    HW3  539   2.820   1.237   0.530
  127SOL    MW4  540   2.829   1.221   0.445
  128SOL     OW  541   2.717   1.714   0.464
  128SOL    HW2  542   2.767   1.641   0.428
  128SOL    HW3  543   2.733   1.710   0.558
  128SOL    MW4  544   2.726   1.704   0.471
  129SOL     OW  545   3.115   1.838   0.355
  129SOL    HW2  546   3.108   1.911   0.417
  129SOL    HW3  547   3.207   1.834   0.332
  129SOL    MW4  548   3.126   1.847   0.360
  130SOL     OW  549   2.929   4.591   0.404
  130SOL    HW2  550   2.988   4.650   0.451
  130SOL    HW3  551   2.986   4.521   0.373
  130SOL    MW4  552   2.944   4.589   0.406
  131SOL     OW  553   1.988   1.600   0.560
  131SOL    HW2  554   1.941   1.680   0.536
  131SOL    HW3  555   2.079   1.628   0.572
  131SOL    MW4  556   1.994   1.614   0.558
  132SOL     OW  557   1.527   1.520   0.609
  132SOL    HW2  558   1.589   1.550   0.676
  132SOL    HW3  559   1.455   1.582   0.614
  132SOL    MW4  560   1.526   1.532   0.618
  133SOL     OW  561   2.428   2.057   0.451
  133SOL    HW2  562   2.424   1.963   0.437
  133SOL    HW3  563   2.516   2.082   0.421
  133SOL    MW4  564   2.439   2.048   0.445
  134SOL     OW  565   2.684   2.128   0.421
  134SOL    HW2  566   2.731   2.062   0.370
  134SOL    HW3  567   2.718   2.120   0.510
  134SOL    MW4  568   2.695   2.118   0.426
  135SOL     OW  569   2.529   2.618   0.387
  135SOL    HW2  570   2.592   2.546   0.392
  135SOL    HW3  571   2.443   2.577   0.392
  135SOL    MW4  572   2.526   2.603   0.388
  136SOL     OW  573   1.446   2.774   0.388
  136SOL    HW2  574   1.528   2.821   0.405
  136SOL    HW3  575   1.378   2.841   0.397
  136SOL    MW4  576   1.448   2.789   0.392
  137SOL     OW  577   1.308   3.003   0.466
  137SOL    HW2  578   1.284   2.987   0.557
  137SOL    HW3  579   1.226   2.995   0.418
  137SOL    MW4  580   1.294   3.000   0.472
  138SOL     OW  581   2.098   3.736   0.490
  138SOL    HW2  582   2.139   3.669   0.436
  138SOL    HW3  583   2.084   3.693   0.574
  138SOL    MW4  584   2.102   3.721   0.494
  139SOL     OW  585   2.466   4.044   0.350
  139SOL    HW2  586   2.519   3.965   0.362
  139SOL    HW3  587   2.505   4.089   0.275
  139SOL    MW4  588   2.478   4.039   0.342
  140SOL     OW  589   1.855   3.877   0.478
  140SOL    HW2  590   1.879   3.954   0.427
  140SOL    HW3  591   1.929   3.817   0.468
  140SOL    MW4  592   1.868   3.879   0.470
  141SOL     OW  593   2.248   3.509   0.359
  141SOL    HW2  594   2.257   3.505   0.264
  141SOL    HW3  595   2.225   3.420   0.385
  141SOL    MW4  596   2.246   3.497   0.350
  142SOL     OW  597   2.334   4.405   0.411
  142SOL    HW2  598   2.406   4.434   0.356
  142SOL    HW3  599   2.314   4.481   0.466
  142SOL    MW4  600   2.341   4.419   0.411
  143SOL     OW  601   2.125   4.230   0.475
  143SOL    HW2  602   2.155   4.140   0.485
  143SOL    HW3  603   2.204   4.280   0.460
  143SOL    MW4  604   2.139   4.225   0.474
  144SOL     OW  605   3.060   0.108   0.542
  144SOL    HW2  606   2.970   0.128   0.567
  144SOL    HW3  607   3.102   0.076   0.622
  144SOL    MW4  608   3.054   0.107   0.556
  145SOL     OW  609   2.567   3.783   0.395
  145SOL    HW2  610   2.546   3.788   0.488
  145SOL    HW3  611   2.552   3.691   0.372
  145SOL    MW4  612   2.562   3.772   0.404
  146SOL     OW  613   2.521   4.230   0.537
  146SOL    HW2  614   2.454   4.291   0.507
  146SOL    HW3  615   2.523   4.161   0.471
  146SOL    MW4  616   2.513   4.229   0.525
  147SOL     OW  617   2.547   0.070   0.461
  147SOL    HW2  618   2.498   0.153   0.464
  147SOL    HW3  619   2.628   0.089   0.508
  147SOL    MW4  620   2.551   0.084   0.468
  148SOL     OW  621   1.636   0.452   0.510
  148SOL    HW2  622   1.667   0.362   0.507
  148SOL    HW3  623   1.605   0.464   0.600
  148SOL    MW4  624   1.636   0.442   0.521
  149SOL     OW  625   2.970   0.567   0.462
  149SOL    HW2  626   2.957   0.661   0.451
  149SOL    HW3  627   3.050   0.547   0.414
  149SOL    MW4  628   2.979   0.577   0.455
  150SOL     OW  629   2.317   1.406   0.438
  150SOL    HW2  630   2.394   1.351   0.429
  150SOL    HW3  631   2.318   1.462   0.360
  150SOL    MW4  632   2.327   1.406   0.426
  151SOL     OW  633   2.536   0.544   0.465
  151SOL    HW2  634   2.581   0.628   0.469
  151SOL    HW3  635   2.605   0.482   0.440
  151SOL    MW4  636   2.551   0.547   0.462
  152SOL     OW  637   3.119   1.566   0.410
  152SOL    HW2  638   3.039   1.526   0.375
  152SOL    HW3  639   3.099   1.660   0.414
  152SOL    MW4  640   3.106   1.573   0.406
  153SOL     OW  641   3.537   0.887   0.528
  153SOL    HW2  642   3.621   0.920   0.496
  153SOL    HW3  643   3.543   0.897   0.623
  153SOL    MW4  644   3.549   0.893   0.536
  154SOL     OW  645   3.663   1.884   0.390
  154SOL    HW2  646   3.691   1.952   0.329
  154SOL    HW3  647   3.696   1.913   0.475
  154SOL    MW4  648   3.671   1.897   0.393
  155SOL     OW  649   2.790   0.169   0.585
  155SOL    HW2  650   2.765   0.234   0.520
  155SOL    HW3  651   2.764   0.207   0.669
  155SOL    MW4  652   2.783   0.183   0.588
  156SOL     OW  653   3.119   2.031   0.579
  156SOL    HW2  654   3.032   2.061   0.605
  156SOL    HW3  655   3.147   1.973   0.650
  156SOL    MW4  656   3.111   2.027   0.592
  157SOL     OW  657   2.723   2.431   0.459
  157SOL    HW2  658   2.812   2.465   0.452
  157SOL    HW3  659   2.729   2.341   0.427
  157SOL    MW4  660   2.735   2.424   0.454
  158SOL     OW  661   2.836   1.903   0.313
  158SOL    HW2  662   2.930   1.892   0.301
  158SOL    HW3  663   2.808   1.823   0.356
  158SOL    MW4  664   2.845   1.891   0.317
  159SOL     OW  665   2.271   2.498   0.383
  159SOL    HW2  666   2.191   2.524   0.429
  159SOL    HW3  667   2.239   2.469   0.297
  159SOL    MW4  668   2.256   2.497   0.377
  160SOL     OW  669   2.601   2.861   0.517
  160SOL    HW2  670   2.561   2.793   0.462
  160SOL    HW3  671   2.559   2.850   0.602
  160SOL    MW4  672   2.590   2.850   0.521
  161SOL     OW  673   3.171   3.169   0.496
  161SOL    HW2  674   3.154   3.080   0.467
  161SOL    HW3  675   3.132   3.174   0.583
  161SOL    MW4  676   3.164   3.158   0.504
  162SOL     OW  677   3.439   3.234   0.547
  162SOL    HW2  678   3.477   3.162   0.597
  162SOL    HW3  679   3.350   3.205   0.528
  162SOL    MW4  680   3.432   3.220   0.551
  163SOL     OW  681   2.265   3.233   0.434
  163SOL    HW2  682   2.335   3.179   0.397
  163SOL    HW3  683   2.281   3.231   0.528
  163SOL    MW4  684   2.276   3.225   0.441
  164SOL     OW  685   1.916   4.110   0.323
  164SOL    HW2  686   1.838   4.164   0.336
  164SOL    HW3  687   1.984   4.154   0.374
  164SOL    MW4  688   1.915   4.123   0.331
  165SOL     OW  689   3.369   4.102   0.374
  165SOL    HW2  690   3.302   4.099   0.306
  165SOL    HW3  691   3.341   4.036   0.438
  165SOL    MW4  692   3.356   4.093   0.374
  166SOL     OW  693   2.977   3.362   0.395
  166SOL    HW2  694   2.892   3.317   0.400
  166SOL    HW3  695   3.040   3.296   0.423
  166SOL    MW4  696   2.974   3.347   0.399
  167SOL     OW  697   2.699   3.313   0.420
  167SOL    HW2  698   2.707   3.287   0.511
  167SOL    HW3  699   2.630   3.379   0.419
  167SOL    MW4  700   2.691   3.318   0.432
  168SOL     OW  701   3.774   4.276   0.634
  168SOL    HW2  702   3.815   4.190   0.650
  168SOL    HW3  703   3.734   4.267   0.548
  168SOL    MW4  704   3.774   4.263   0.625
  169SOL     OW  705   3.138   4.126   0.205
  169SOL    HW2  706   3.131   4.216   0.237
  169SOL    HW3  707   3.048   4.094   0.206
  169SOL    MW4  708   3.125   4.134   0.209
  170SOL     OW  709   3.284   0.301   0.478
  170SOL    HW2  710   3.226   0.231   0.509
  170SOL    HW3  711   3.364   0.256   0.452
  170SOL    MW4  712   3.287   0.286   0.479
  171SOL     OW  713   2.716   0.049   0.218
  171SOL    HW2  714   2.651   0.074   0.284
  171SOL    HW3  715   2.783   0.003   0.268
  171SOL    MW4  716   2.716   0.046   0.233
  172SOL     OW  717   2.856   4.084   0.300
  172SOL    HW2  718   2.847   3.989   0.313
  172SOL    HW3  719   2.770   4.111   0.267
  172SOL    MW4  720   2.843   4.075   0.298
  173SOL     OW  721   2.889   0.251   0.130
  173SOL    HW2  722   2.906   0.274   0.039
  173SOL    HW3  723   2.842   0.168   0.125
  173SOL    MW4  724   2.885   0.243   0.117
  174SOL     OW  725   2.927   0.829   0.504
  174SOL    HW2  726   2.972   0.829   0.588
  174SOL    HW3  727   2.965   0.903   0.456
  174SOL    MW4  728   2.938   0.839   0.509
  175SOL     OW  729   3.488   1.247   0.332
  175SOL    HW2  730   3.446   1.326   0.300
  175SOL    HW3  731   3.417   1.197   0.374
  175SOL    MW4  732   3.473   1.251   0.334
  176SOL     OW  733   3.497   0.606   0.458
  176SOL    HW2  734   3.454   0.570   0.536
  176SOL    HW3  735   3.526   0.693   0.485
  176SOL    MW4  736   3.495   0.613   0.472
  177SOL     OW  737   3.116   0.863   0.192
  177SOL    HW2  738   3.159   0.785   0.227
  177SOL    HW3  739   3.126   0.855   0.097
  177SOL    MW4  740   3.123   0.852   0.184
  178SOL     OW  741   3.432   1.835   0.680
  178SOL    HW2  742   3.405   1.834   0.589
  178SOL    HW3  743   3.351   1.823   0.730
  178SOL    MW4  744   3.418   1.833   0.675
  179SOL     OW  745   3.396   1.776   0.365
  179SOL    HW2  746   3.410   1.684   0.344
  179SOL    HW3  747   3.484   1.815   0.362
  179SOL    MW4  748   3.410   1.769   0.362
  180SOL     OW  749   3.325   1.089   0.486
  180SOL    HW2  750   3.386   1.021   0.459
  180SOL    HW3  751   3.365   1.128   0.564
  180SOL    MW4  752   3.338   1.085   0.493
  181SOL     OW  753   3.804   1.634   0.395
  181SOL    HW2  754   3.751   1.560   0.425
  181SOL    HW3  755   3.749   1.711   0.411
  181SOL    MW4  756   3.790   1.634   0.401
  182SOL     OW  757   3.251   2.294   0.579
  182SOL    HW2  758   3.200   2.217   0.553
  182SOL    HW3  759   3.292   2.269   0.661
  182SOL    MW4  760   3.250   2.281   0.586
  183SOL     OW  761   3.488   2.725   0.619
  183SOL    HW2  762   3.526   2.682   0.696
  183SOL    HW3  763   3.465   2.653   0.560
  183SOL    MW4  764   3.490   2.710   0.621
  184SOL     OW  765   1.963   2.842   0.484
  184SOL    HW2  766   1.960   2.876   0.574
  184SOL    HW3  767   1.980   2.919   0.430
  184SOL    MW4  768   1.965   2.857   0.489
  185SOL     OW  769   3.200   2.622   0.322
  185SOL    HW2  770   3.266   2.564   0.362
  185SOL    HW3  771   3.219   2.619   0.229
  185SOL    MW4  772   3.212   2.614   0.315
  186SOL     OW  773   2.924   2.806   0.797
  186SOL    HW2  774   2.921   2.794   0.702
  186SOL    HW3  775   3.006   2.765   0.824
  186SOL    MW4  776   2.935   2.799   0.788
  187SOL     OW  777   2.640   0.815   0.462
  187SOL    HW2  778   2.735   0.816   0.476
  187SOL    HW3  779   2.629   0.840   0.370
  187SOL    MW4  780   2.651   0.818   0.452
  188SOL     OW  781   2.910   4.208   0.536
  188SOL    HW2  782   2.878   4.154   0.465
  188SOL    HW3  783   2.969   4.151   0.586
  188SOL    MW4  784   2.914   4.194   0.533
  189SOL     OW  785   3.275   3.644   0.507
  189SOL    HW2  786   3.311   3.625   0.420
  189SOL    HW3  787   3.335   3.599   0.567
  189SOL    MW4  788   3.288   3.635   0.503
  190SOL     OW  789   3.858   3.370   0.475
  190SOL    HW2  790   3.946   3.357   0.440
  190SOL    HW3  791   3.860   3.459   0.510
  190SOL    MW4  792   3.870   3.380   0.475
  191SOL     OW  793   3.807   3.296   0.761
  191SOL    HW2  794   3.897   3.265   0.772
  191SOL    HW3  795   3.794   3.297   0.666
  191SOL    MW4  796   3.817   3.292   0.750
  192SOL     OW  797   2.823   3.837   0.466
  192SOL    HW2  798   2.889   3.769   0.478
  192SOL    HW3  799   2.742   3.790   0.452
  192SOL    MW4  800   2.821   3.822   0.466
  193SOL     OW  801   2.504   3.100   0.385
  193SOL    HW2  802   2.537   3.014   0.412
  193SOL    HW3  803   2.581   3.157   0.391
  193SOL    MW4  804   2.519   3.096   0.389
  194SOL     OW  805   4.196   0.052   0.318
  194SOL    HW2  806   4.287   0.049   0.348
  194SOL    HW3  807   4.192   0.128   0.261
  194SOL    MW4  808   4.207   0.061   0.315
  195SOL     OW  809   3.764   0.304   0.432
  195SOL    HW2  810   3.853   0.272   0.444
  195SOL    HW3  811   3.774   0.396   0.407
  195SOL    MW4  812   3.777   0.312   0.431
  196SOL     OW  813   3.129   0.382   0.263
  196SOL    HW2  814   3.175   0.343   0.337
  196SOL    HW3  815   3.063   0.317   0.239
  196SOL    MW4  816   3.126   0.369   0.270
  197SOL     OW  817   3.244   0.642   0.309
  197SOL    HW2  818   3.332   0.642   0.345
  197SOL    HW3  819   3.225   0.550   0.291
  197SOL    MW4  820   3.253   0.630   0.311
  198SOL     OW  821   4.209   0.469   0.465
  198SOL    HW2  822   4.284   0.445   0.411
  198SOL    HW3  823   4.206   0.565   0.460
  198SOL    MW4  824   4.219   0.478   0.457
  199SOL     OW  825   4.445   0.804   0.426
  199SOL    HW2  826   4.350   0.793   0.412
  199SOL    HW3  827   4.485   0.746   0.362
  199SOL    MW4  828   4.437   0.795   0.415
  200SOL     OW  829   3.914   0.792   0.265
  200SOL    HW2  830   3.936   0.750   0.182
  200SOL    HW3  831   3.879   0.722   0.320
  200SOL    MW4  832   3.913   0.777   0.261
  201SOL     OW  833   4.091   1.008   0.535
  201SOL    HW2  834   4.171   1.061   0.534
  201SOL    HW3  835   4.021   1.071   0.518
  201SOL    MW4  836   4.093   1.023   0.532
  202SOL     OW  837   3.875   1.200   0.580
  202SOL    HW2  838   3.821   1.132   0.538
  202SOL    HW3  839   3.844   1.282   0.542
  202SOL    MW4  840   3.864   1.202   0.570
  203SOL     OW  841   3.370   1.503   0.288
  203SOL    HW2  842   3.291   1.503   0.343
  203SOL    HW3  843   3.338   1.524   0.200
  203SOL    MW4  844   3.355   1.506   0.284
  204SOL     OW  845   3.054   1.056   0.394
  204SOL    HW2  846   3.083   1.007   0.317
  204SOL    HW3  847   3.134   1.084   0.438
  204SOL    MW4  848   3.068   1.054   0.389
  205SOL     OW  849   3.675   2.383   0.370
  205SOL    HW2  850   3.677   2.313   0.305
  205SOL    HW3  851   3.713   2.345   0.448
  205SOL    MW4  852   3.680   2.369   0.372
  206SOL     OW  853   4.118   2.985   0.421
  206SOL    HW2  854   4.159   2.899   0.423
  206SOL    HW3  855   4.028   2.970   0.450
  206SOL    MW4  856   4.111   2.972   0.425
  207SOL     OW  857   2.985   2.519   0.452
  207SOL    HW2  858   3.025   2.515   0.539
  207SOL    HW3  859   3.056   2.545   0.394
  207SOL    MW4  860   3.000   2.522   0.456
  208SOL     OW  861   2.994   3.619   0.486
  208SOL    HW2  862   3.089   3.628   0.480
  208SOL    HW3  863   2.975   3.536   0.442
  208SOL    MW4  864   3.004   3.609   0.479
  209SOL     OW  865   3.129   2.872   0.462
  209SOL    HW2  866   3.151   2.794   0.412
  209SOL    HW3  867   3.035   2.865   0.478
  209SOL    MW4  868   3.119   2.861   0.458
  210SOL     OW  869   3.853   2.958   0.490
  210SOL    HW2  870   3.817   2.900   0.423
  210SOL    HW3  871   3.810   3.042   0.474
  210SOL    MW4  872   3.842   2.962   0.479
  211SOL     OW  873   3.734   2.684   0.457
  211SOL    HW2  874   3.700   2.609   0.409
  211SOL    HW3  875   3.662   2.708   0.517
  211SOL    MW4  876   3.720   2.677   0.459
  212SOL     OW  877   3.864   4.070   0.292
  212SOL    HW2  878   3.872   3.990   0.345
  212SOL    HW3  879   3.865   4.039   0.202
  212SOL    MW4  880   3.866   4.055   0.287
  213SOL     OW  881   3.412   2.487   0.424
  213SOL    HW2  882   3.363   2.419   0.470
  213SOL    HW3  883   3.490   2.442   0.391
  213SOL    MW4  884   3.416   2.472   0.425
  214SOL     OW  885   3.294   3.923   0.591
  214SOL    HW2  886   3.366   3.925   0.654
  214SOL    HW3  887   3.278   3.830   0.575
  214SOL    MW4  888   3.302   3.911   0.597
  215SOL     OW  889   4.302   3.971   0.677
  215SOL    HW2  890   4.266   3.923   0.752
  215SOL    HW3  891   4.262   4.058   0.683
  215SOL    MW4  892   4.292   3.976   0.688
  216SOL     OW  893   3.652   4.236   0.366
  216SOL    HW2  894   3.731   4.194   0.331
  216SOL    HW3  895   3.581   4.176   0.346
  216SOL    MW4  896   3.653   4.222   0.359
  217SOL     OW  897   3.603   4.537   0.408
  217SOL    HW2  898   3.634   4.478   0.340
  217SOL    HW3  899   3.666   4.527   0.479
  217SOL    MW4  900   3.615   4.527   0.409
  218SOL     OW  901   4.441   0.039   0.439
  218SOL    HW2  902   4.464  -0.053   0.452
  218SOL    HW3  903   4.437   0.075   0.528
  218SOL    MW4  904   4.443   0.032   0.453
  219SOL     OW  905   4.163   0.754   0.432
  219SOL    HW2  906   4.092   0.760   0.368
  219SOL    HW3  907   4.144   0.825   0.494
  219SOL    MW4  908   4.151   0.764   0.432
  220SOL     OW  909   0.324   2.135   0.296
  220SOL    HW2  910   0.347   2.227   0.313
  220SOL    HW3  911   0.239   2.123   0.339
  220SOL    MW4  912   0.316   2.146   0.304
  221SOL     OW  913   4.424   0.394   0.326
  221SOL    HW2  914   4.471   0.312   0.338
  221SOL    HW3  915   4.492   0.462   0.327
  221SOL    MW4  916   4.439   0.392   0.328
  222SOL     OW  917   4.295   1.197   0.531
  222SOL    HW2  918   4.301   1.284   0.490
  222SOL    HW3  919   4.299   1.215   0.625
  222SOL    MW4  920   4.296   1.211   0.538
  223SOL     OW  921   3.526   0.140   0.436
  223SOL    HW2  922   3.546   0.051   0.406
  223SOL    HW3  923   3.609   0.187   0.428
  223SOL    MW4  924   3.540   0.134   0.431
  224SOL     OW  925   3.797   1.017   0.373
  224SOL    HW2  926   3.844   0.940   0.340
  224SOL    HW3  927   3.795   1.078   0.299
  224SOL    MW4  928   3.803   1.015   0.359
  225SOL     OW  929   0.036   1.087   0.401
  225SOL    HW2  930  -0.047   1.117   0.441
  225SOL    HW3  931   0.022   0.994   0.385
  225SOL    MW4  932   0.023   1.079   0.404
  226SOL     OW  933   4.113   2.170   0.318
  226SOL    HW2  934   4.098   2.231   0.390
  226SOL    HW3  935   4.203   2.188   0.290
  226SOL    MW4  936   4.123   2.181   0.324
  227SOL     OW  937   0.251   1.519   0.375
  227SOL    HW2  938   0.269   1.433   0.412
  227SOL    HW3  939   0.157   1.532   0.388
  227SOL    MW4  940   0.241   1.509   0.381
  228SOL     OW  941   0.895   2.486   0.373
  228SOL    HW2  942   0.985   2.481   0.406
  228SOL    HW3  943   0.878   2.580   0.363
  228SOL    MW4  944   0.905   2.498   0.376
  229SOL     OW  945   4.190   1.924   0.418
  229SOL    HW2  946   4.265   1.905   0.362
  229SOL    HW3  947   4.149   2.001   0.378
  229SOL    MW4  948   4.194   1.932   0.405
  230SOL     OW  949   4.450   2.574   0.492
  230SOL    HW2  950   4.528   2.630   0.490
  230SOL    HW3  951   4.457   2.526   0.575
  230SOL    MW4  952   4.462   2.575   0.503
  231SOL     OW  953   4.260   3.538   0.513
  231SOL    HW2  954   4.344   3.519   0.472
  231SOL    HW3  955   4.200   3.472   0.476
  231SOL    MW4  956   4.263   3.527   0.502
  232SOL     OW  957   4.231   2.743   0.446
  232SOL    HW2  958   4.155   2.686   0.456
  232SOL    HW3  959   4.305   2.683   0.437
  232SOL    MW4  960   4.231   2.728   0.446
  233SOL     OW  961   0.273   3.865   0.417
  233SOL    HW2  962   0.212   3.938   0.429
  233SOL    HW3  963   0.360   3.905   0.421
  233SOL    MW4  964   0.276   3.880   0.419
  234SOL     OW  965   0.041   3.509   0.413
  234SOL    HW2  966   0.047   3.551   0.328
  234SOL    HW3  967   0.122   3.532   0.458
  234SOL    MW4  968   0.052   3.517   0.408
  235SOL     OW  969   0.030   3.235   0.447
  235SOL    HW2  970  -0.050   3.210   0.402
  235SOL    HW3  971   0.037   3.330   0.432
  235SOL    MW4  972   0.021   3.244   0.439
  236SOL     OW  973   3.933   3.855   0.480
  236SOL    HW2  974   3.886   3.777   0.510
  236SOL    HW3  975   4.023   3.826   0.468
  236SOL    MW4  976   3.938   3.841   0.483
  237SOL     OW  977   3.671   3.164   0.419
  237SOL    HW2  978   3.727   3.241   0.419
  237SOL    HW3  979   3.581   3.199   0.421
  237SOL    MW4  980   3.666   3.179   0.419
  238SOL     OW  981   0.117   4.072   0.493
  238SOL    HW2  982   0.106   4.063   0.588
  238SOL    HW3  983   0.031   4.051   0.457
  238SOL    MW4  984   0.104   4.068   0.501
  239SOL     OW  985   4.087   4.232   0.407
  239SOL    HW2  986   4.024   4.169   0.372
  239SOL    HW3  987   4.055   4.317   0.377
  239SOL    MW4  988   4.074   4.235   0.398
  240SOL     OW  989   4.186   4.227   0.671
  240SOL    HW2  990   4.251   4.297   0.680
  240SOL    HW3  991   4.152   4.237   0.582
  240SOL    MW4  992   4.190   4.238   0.660
  241SOL     OW  993   3.991   4.482   0.357
  241SOL    HW2  994   4.059   4.547   0.345
  241SOL    HW3  995   3.948   4.508   0.439
  241SOL    MW4  996   3.994   4.494   0.366
  242SOL     OW  997   0.247   0.000   0.817
  242SOL    HW2  998   0.248  -0.095   0.822
  242SOL    HW3  999   0.163   0.021   0.777
  242SOL    MW4 1000   0.236  -0.010   0.812
  243SOL     OW 1001   4.482   0.074   0.714
  243SOL    HW2 1002   4.399   0.040   0.750
  243SOL    HW3 1003   4.490   0.162   0.751
  243SOL    MW4 1004   4.472   0.081   0.724
  244SOL     OW 1005   4.451   0.343   0.861
  244SOL    HW2 1006   4.444   0.342   0.956
  244SOL    HW3 1007   4.540   0.374   0.844
  244SOL    MW4 1008   4.461   0.347   0.871
  245SOL     OW 1009   0.215   0.447   0.748
  245SOL    HW2 1010   0.291   0.395   0.773
  245SOL    HW3 1011   0.236   0.536   0.778
  245SOL    MW4 1012   0.228   0.452   0.755
  246SOL     OW 1013   0.228   0.721   0.833
  246SOL    HW2 1014   0.220   0.739   0.926
  246SOL    HW3 1015   0.141   0.740   0.797
  246SOL    MW4 1016   0.216   0.726   0.840
  247SOL     OW 1017   0.001   0.807   0.712
  247SOL    HW2 1018  -0.077   0.783   0.762
  247SOL    HW3 1019  -0.022   0.787   0.621
  247SOL    MW4 1020  -0.012   0.801   0.707
  248SOL     OW 1021   0.047   1.074   0.829
  248SOL    HW2 1022   0.018   1.067   0.920
  248SOL    HW3 1023   0.022   0.990   0.790
  248SOL    MW4 1024   0.039   1.062   0.836
  249SOL     OW 1025   0.231   1.253   0.742
  249SOL    HW2 1026   0.151   1.201   0.749
  249SOL    HW3 1027   0.259   1.241   0.651
  249SOL    MW4 1028   0.224   1.244   0.731
  250SOL     OW 1029   0.222   1.528   0.825
  250SOL    HW2 1030   0.302   1.563   0.787
  250SOL    HW3 1031   0.228   1.433   0.813
  250SOL    MW4 1032   0.233   1.520   0.819
  251SOL     OW 1033   0.036   1.668   0.679
  251SOL    HW2 1034  -0.040   1.614   0.704
  251SOL    HW3 1035   0.111   1.624   0.719
  251SOL    MW4 1036   0.036   1.655   0.687
  252SOL     OW 1037   4.483   1.897   0.820
  252SOL    HW2 1038   4.542   1.964   0.785
  252SOL    HW3 1039   4.503   1.819   0.768
  252SOL    MW4 1040   4.494   1.896   0.808
  253SOL     OW 1041   0.163   2.065   0.695
  253SOL    HW2 1042   0.182   2.151   0.733
  253SOL    HW3 1043   0.136   2.084   0.605
  253SOL    MW4 1044   0.162   2.079   0.688
  254SOL     OW 1045   0.232   2.303   0.813
  254SOL    HW2 1046   0.251   2.313   0.906
  254SOL    HW3 1047   0.302   2.349   0.768
  254SOL    MW4 1048   0.244   2.310   0.819
  255SOL     OW 1049   4.483   2.421   0.742
  255SOL    HW2 1050   4.420   2.351   0.726
  255SOL    HW3 1051   4.566   2.376   0.760
  255SOL    MW4 1052   4.486   2.406   0.742
  256SOL     OW 1053   4.485   2.686   0.814
  256SOL    HW2 1054   4.499   2.690   0.909
  256SOL    HW3 1055   4.476   2.592   0.795
  256SOL    MW4 1056   4.486   2.674   0.824
  257SOL     OW 1057   0.241   2.808   0.726
  257SOL    HW2 1058   0.164   2.766   0.764
  257SOL    HW3 1059   0.231   2.797   0.631
  257SOL    MW4 1060   0.229   2.801   0.718
  258SOL     OW 1061   0.223   3.060   0.823
  258SOL    HW2 1062   0.236   3.049   0.917
  258SOL    HW3 1063   0.222   2.971   0.788
  258SOL    MW4 1064   0.224   3.047   0.831
  259SOL     OW 1065   0.019   3.232   0.728
  259SOL    HW2 1066   0.084   3.174   0.766
  259SOL    HW3 1067   0.037   3.230   0.634
  259SOL    MW4 1068   0.030   3.224   0.721
  260SOL     OW 1069   4.481   3.475   0.888
  260SOL    HW2 1070   4.388   3.488   0.865
  260SOL    HW3 1071   4.502   3.388   0.855
  260SOL    MW4 1072   4.471   3.466   0.881
  261SOL     OW 1073   0.238   3.588   0.791
  261SOL    HW2 1074   0.150   3.560   0.814
  261SOL    HW3 1075   0.240   3.585   0.695
  261SOL    MW4 1076   0.227   3.584   0.781
  262SOL     OW 1077   0.260   3.860   0.854
  262SOL    HW2 1078   0.231   3.886   0.941
  262SOL    HW3 1079   0.242   3.766   0.849
  262SOL    MW4 1080   0.254   3.851   0.865
  263SOL     OW 1081   0.085   4.042   0.752
  263SOL    HW2 1082  -0.005   4.012   0.742
  263SOL    HW3 1083   0.135   3.963   0.772
  263SOL    MW4 1084   0.080   4.028   0.754
  264SOL     OW 1085   0.028   4.286   0.874
  264SOL    HW2 1086   0.009   4.300   0.967
  264SOL    HW3 1087   0.047   4.192   0.867
  264SOL    MW4 1088   0.028   4.276   0.885
  265SOL     OW 1089   0.255   4.398   0.785
  265SOL    HW2 1090   0.169   4.375   0.819
  265SOL    HW3 1091   0.252   4.374   0.693
  265SOL    MW4 1092   0.243   4.392   0.778
  266SOL     OW 1093   0.737   4.620   0.828
  266SOL    HW2 1094   0.735   4.625   0.924
  266SOL    HW3 1095   0.658   4.664   0.799
  266SOL    MW4 1096   0.726   4.626   0.837
  267SOL     OW 1097   0.496   0.074   0.735
  267SOL    HW2 1098   0.406   0.052   0.761
  267SOL    HW3 1099   0.493   0.077   0.640
  267SOL    MW4 1100   0.483   0.071   0.726
  268SOL     OW 1101   0.438   0.338   0.835
  268SOL    HW2 1102   0.507   0.389   0.792
  268SOL    HW3 1103   0.460   0.247   0.815
  268SOL    MW4 1104   0.450   0.332   0.827
  269SOL     OW 1105   0.630   0.501   0.737
  269SOL    HW2 1106   0.709   0.458   0.768
  269SOL    HW3 1107   0.640   0.506   0.642
  269SOL    MW4 1108   0.642   0.496   0.728
  270SOL     OW 1109   0.652   0.742   0.879
  270SOL    HW2 1110   0.592   0.794   0.825
  270SOL    HW3 1111   0.646   0.654   0.845
  270SOL    MW4 1112   0.643   0.738   0.868
  271SOL     OW 1113   0.469   0.876   0.721
  271SOL    HW2 1114   0.463   0.968   0.746
  271SOL    HW3 1115   0.401   0.832   0.772
  271SOL    MW4 1116   0.459   0.882   0.731
  272SOL     OW 1117   0.480   1.134   0.820
  272SOL    HW2 1118   0.546   1.200   0.797
  272SOL    HW3 1119   0.397   1.174   0.797
  272SOL    MW4 1120   0.478   1.148   0.814
  273SOL     OW 1121   0.682   1.332   0.748
  273SOL    HW2 1122   0.666   1.419   0.784
  273SOL    HW3 1123   0.672   1.344   0.653
  273SOL    MW4 1124   0.678   1.345   0.740
  274SOL     OW 1125   0.666   1.588   0.827
  274SOL    HW2 1126   0.655   1.578   0.922
  274SOL    HW3 1127   0.581   1.620   0.797
  274SOL    MW4 1128   0.653   1.591   0.835
  275SOL     OW 1129   0.428   1.650   0.698
  275SOL    HW2 1130   0.423   1.745   0.687
  275SOL    HW3 1131   0.439   1.616   0.610
  275SOL    MW4 1132   0.429   1.658   0.685
  276SOL     OW 1133   0.405   1.958   0.677
  276SOL    HW2 1134   0.316   1.991   0.672
  276SOL    HW3 1135   0.431   1.945   0.585
  276SOL    MW4 1136   0.397   1.961   0.664
  277SOL     OW 1137   0.627   2.031   0.867
  277SOL    HW2 1138   0.591   2.024   0.955
  277SOL    HW3 1139   0.555   2.005   0.809
  277SOL    MW4 1140   0.613   2.027   0.871
  278SOL     OW 1141   0.660   2.299   0.714
  278SOL    HW2 1142   0.730   2.352   0.754
  278SOL    HW3 1143   0.650   2.225   0.774
  278SOL    MW4 1144   0.668   2.296   0.727
  279SOL     OW 1145   0.428   2.447   0.699
  279SOL    HW2 1146   0.506   2.397   0.721
  279SOL    HW3 1147   0.422   2.442   0.604
  279SOL    MW4 1148   0.438   2.440   0.689
  280SOL     OW 1149   0.456   2.689   0.848
  280SOL    HW2 1150   0.461   2.606   0.801
  280SOL    HW3 1151   0.383   2.736   0.807
  280SOL    MW4 1152   0.447   2.684   0.836
  281SOL     OW 1153   0.688   2.825   0.807
  281SOL    HW2 1154   0.761   2.776   0.845
  281SOL    HW3 1155   0.610   2.778   0.837
  281SOL    MW4 1156   0.687   2.812   0.816
  282SOL     OW 1157   0.714   3.096   0.881
  282SOL    HW2 1158   0.635   3.143   0.854
  282SOL    HW3 1159   0.699   3.006   0.853
  282SOL    MW4 1160   0.701   3.091   0.874
  283SOL     OW 1161   0.470   3.185   0.792
  283SOL    HW2 1162   0.457   3.276   0.817
  283SOL    HW3 1163   0.383   3.145   0.799
  283SOL    MW4 1164   0.457   3.192   0.797
  284SOL     OW 1165   0.462   3.442   0.894
  284SOL    HW2 1166   0.466   3.453   0.989
  284SOL    HW3 1167   0.382   3.486   0.867
  284SOL    MW4 1168   0.452   3.449   0.903
  285SOL     OW 1169   0.667   3.552   0.719
  285SOL    HW2 1170   0.613   3.513   0.787
  285SOL    HW3 1171   0.679   3.642   0.747
  285SOL    MW4 1172   0.662   3.558   0.731
  286SOL     OW 1173   0.710   3.810   0.827
  286SOL    HW2 1174   0.789   3.858   0.802
  286SOL    HW3 1175   0.639   3.871   0.806
  286SOL    MW4 1176   0.711   3.825   0.821
  287SOL     OW 1177   0.488   3.968   0.773
  287SOL    HW2 1178   0.475   4.060   0.794
  287SOL    HW3 1179   0.407   3.925   0.803
  287SOL    MW4 1180   0.475   3.974   0.780
  288SOL     OW 1181   0.478   4.240   0.836
  288SOL    HW2 1182   0.484   4.248   0.931
  288SOL    HW3 1183   0.389   4.268   0.815
  288SOL    MW4 1184   0.467   4.245   0.846
  289SOL     OW 1185   0.661   4.377   0.700
  289SOL    HW2 1186   0.592   4.343   0.757
  289SOL    HW3 1187   0.681   4.464   0.736
  289SOL    MW4 1188   0.655   4.384   0.712
  290SOL     OW 1189   1.099   4.618   0.847
  290SOL    HW2 1190   1.179   4.666   0.826
  290SOL    HW3 1191   1.030   4.664   0.798
  290SOL    MW4 1192   1.100   4.630   0.838
  291SOL     OW 1193   0.912   0.124   0.713
  291SOL    HW2 1194   0.902   0.210   0.754
  291SOL    HW3 1195   0.849   0.068   0.759
  291SOL    MW4 1196   0.902   0.128   0.725
  292SOL     OW 1197   0.854   0.385   0.857
  292SOL    HW2 1198   0.858   0.373   0.952
  292SOL    HW3 1199   0.938   0.427   0.836
  292SOL    MW4 1200   0.866   0.389   0.867
  293SOL     OW 1201   1.096   0.495   0.742
  293SOL    HW2 1202   1.164   0.434   0.771
  293SOL    HW3 1203   1.093   0.484   0.647
  293SOL    MW4 1204   1.105   0.485   0.733
  294SOL     OW 1205   1.122   0.748   0.857
  294SOL    HW2 1206   1.127   0.762   0.952
  294SOL    HW3 1207   1.111   0.653   0.847
  294SOL    MW4 1208   1.121   0.737   0.868
  295SOL     OW 1209   0.887   0.858   0.749
  295SOL    HW2 1210   0.963   0.808   0.781
  295SOL    HW3 1211   0.813   0.824   0.799
  295SOL    MW4 1212   0.887   0.847   0.760
  296SOL     OW 1213   0.888   1.119   0.867
  296SOL    HW2 1214   0.867   1.033   0.830
  296SOL    HW3 1215   0.822   1.177   0.830
  296SOL    MW4 1216   0.876   1.115   0.857
  297SOL     OW 1217   1.094   1.251   0.707
  297SOL    HW2 1218   1.028   1.198   0.752
  297SOL    HW3 1219   1.070   1.245   0.615
  297SOL    MW4 1220   1.082   1.243   0.701
  298SOL     OW 1221   1.105   1.542   0.829
  298SOL    HW2 1222   1.033   1.597   0.799
  298SOL    HW3 1223   1.087   1.456   0.792
  298SOL    MW4 1224   1.093   1.538   0.820
  299SOL     OW 1225   0.903   1.708   0.732
  299SOL    HW2 1226   0.907   1.779   0.796
  299SOL    HW3 1227   0.817   1.668   0.746
  299SOL    MW4 1228   0.892   1.712   0.742
  300SOL     OW 1229   0.884   1.925   0.911
  300SOL    HW2 1230   0.894   1.924   1.007
  300SOL    HW3 1231   0.799   1.965   0.896
  300SOL    MW4 1232   0.874   1.930   0.922
  301SOL     OW 1233   1.067   2.048   0.742
  301SOL    HW2 1234   1.079   2.141   0.764
  301SOL    HW3 1235   1.005   2.016   0.807
  301SOL    MW4 1236   1.061   2.056   0.753
  302SOL     OW 1237   1.095   2.308   0.827
  302SOL    HW2 1238   1.123   2.298   0.918
  302SOL    HW3 1239   1.163   2.362   0.787
  302SOL    MW4 1240   1.108   2.314   0.834
  303SOL     OW 1241   0.844   2.437   0.867
  303SOL    HW2 1242   0.921   2.384   0.847
  303SOL    HW3 1243   0.818   2.410   0.956
  303SOL    MW4 1244   0.850   2.427   0.876
  304SOL     OW 1245   0.923   2.707   0.919
  304SOL    HW2 1246   0.919   2.730   1.011
  304SOL    HW3 1247   0.899   2.614   0.916
  304SOL    MW4 1248   0.919   2.698   0.931
  305SOL     OW 1249   1.136   2.826   0.774
  305SOL    HW2 1250   1.067   2.789   0.830
  305SOL    HW3 1251   1.119   2.788   0.688
  305SOL    MW4 1252   1.124   2.816   0.770
  306SOL     OW 1253   1.172   3.095   0.854
  306SOL    HW2 1254   1.097   3.137   0.814
  306SOL    HW3 1255   1.161   3.002   0.835
  306SOL    MW4 1256   1.161   3.088   0.846
  307SOL     OW 1257   0.937   3.198   0.759
  307SOL    HW2 1258   0.941   3.285   0.799
  307SOL    HW3 1259   0.866   3.154   0.805
  307SOL    MW4 1260   0.928   3.204   0.770
  308SOL     OW 1261   0.896   3.483   0.863
  308SOL    HW2 1262   0.969   3.539   0.837
  308SOL    HW3 1263   0.825   3.508   0.804
  308SOL    MW4 1264   0.896   3.494   0.851
  309SOL     OW 1265   1.122   3.618   0.779
  309SOL    HW2 1266   1.202   3.573   0.809
  309SOL    HW3 1267   1.131   3.619   0.683
  309SOL    MW4 1268   1.134   3.612   0.770
  310SOL     OW 1269   1.151   3.868   0.848
  310SOL    HW2 1270   1.135   3.876   0.942
  310SOL    HW3 1271   1.121   3.779   0.826
  310SOL    MW4 1272   1.145   3.857   0.858
  311SOL     OW 1273   0.918   3.968   0.727
  311SOL    HW2 1274   0.903   4.057   0.761
  311SOL    HW3 1275   1.006   3.946   0.756
  311SOL    MW4 1276   0.928   3.977   0.735
  312SOL     OW 1277   0.880   4.233   0.847
  312SOL    HW2 1278   0.964   4.274   0.828
  312SOL    HW3 1279   0.815   4.288   0.804
  312SOL    MW4 1280   0.882   4.246   0.839
  313SOL     OW 1281   1.130   4.345   0.766
  313SOL    HW2 1282   1.201   4.304   0.815
  313SOL    HW3 1283   1.126   4.435   0.799
  313SOL    MW4 1284   1.139   4.352   0.776
  314SOL     OW 1285   1.572   4.636   0.926
  314SOL    HW2 1286   1.540   4.628   1.015
  314SOL    HW3 1287   1.503   4.684   0.879
  314SOL    MW4 1288   1.559   4.641   0.931
  315SOL     OW 1289   1.357   0.073   0.813
  315SOL    HW2 1290   1.343   0.167   0.808
  315SOL    HW3 1291   1.398   0.050   0.730
  315SOL    MW4 1292   1.360   0.082   0.801
  316SOL     OW 1293   1.318   0.350   0.827
  316SOL    HW2 1294   1.318   0.336   0.922
  316SOL    HW3 1295   1.401   0.393   0.809
  316SOL    MW4 1296   1.329   0.354   0.837
  317SOL     OW 1297   1.579   0.480   0.780
  317SOL    HW2 1298   1.578   0.575   0.792
  317SOL    HW3 1299   1.665   0.453   0.814
  317SOL    MW4 1300   1.590   0.489   0.786
  318SOL     OW 1301   1.549   0.776   0.796
  318SOL    HW2 1302   1.626   0.828   0.772
  318SOL    HW3 1303   1.478   0.813   0.743
  318SOL    MW4 1304   1.550   0.788   0.785
  319SOL     OW 1305   1.282   0.867   0.667
  319SOL    HW2 1306   1.296   0.953   0.705
  319SOL    HW3 1307   1.232   0.819   0.732
  319SOL    MW4 1308   1.277   0.872   0.681
  320SOL     OW 1309   1.337   1.105   0.811
  320SOL    HW2 1310   1.410   1.146   0.763
  320SOL    HW3 1311   1.264   1.165   0.799
  320SOL    MW4 1312   1.337   1.119   0.803
  321SOL     OW 1313   1.577   1.242   0.629
  321SOL    HW2 1314   1.551   1.334   0.621
  321SOL    HW3 1315   1.584   1.211   0.539
  321SOL    MW4 1316   1.575   1.250   0.616
  322SOL     OW 1317   1.705   1.583   0.828
  322SOL    HW2 1318   1.658   1.545   0.902
  322SOL    HW3 1319   1.789   1.537   0.827
  322SOL    MW4 1320   1.710   1.572   0.837
  323SOL     OW 1321   1.322   1.670   0.687
  323SOL    HW2 1322   1.321   1.737   0.755
  323SOL    HW3 1323   1.252   1.610   0.710
  323SOL    MW4 1324   1.313   1.671   0.699
  324SOL     OW 1325   1.312   1.914   0.847
  324SOL    HW2 1326   1.346   1.901   0.936
  324SOL    HW3 1327   1.223   1.947   0.860
  324SOL    MW4 1328   1.305   1.916   0.861
  325SOL     OW 1329   1.509   2.024   0.694
  325SOL    HW2 1330   1.426   1.994   0.731
  325SOL    HW3 1331   1.491   2.039   0.601
  325SOL    MW4 1332   1.496   2.022   0.687
  326SOL     OW 1333   1.573   2.271   0.805
  326SOL    HW2 1334   1.490   2.317   0.797
  326SOL    HW3 1335   1.559   2.186   0.762
  326SOL    MW4 1336   1.560   2.266   0.798
  327SOL     OW 1337   1.339   2.431   0.740
  327SOL    HW2 1338   1.332   2.508   0.796
  327SOL    HW3 1339   1.358   2.466   0.653
  327SOL    MW4 1340   1.341   2.446   0.736
  328SOL     OW 1341   1.359   2.670   0.883
  328SOL    HW2 1342   1.376   2.683   0.977
  328SOL    HW3 1343   1.285   2.727   0.864
  328SOL    MW4 1344   1.352   2.679   0.893
  329SOL     OW 1345   1.585   2.802   0.766
  329SOL    HW2 1346   1.566   2.891   0.796
  329SOL    HW3 1347   1.506   2.753   0.787
  329SOL    MW4 1348   1.572   2.807   0.773
  330SOL     OW 1349   1.583   3.087   0.870
  330SOL    HW2 1350   1.572   3.087   0.965
  330SOL    HW3 1351   1.519   3.151   0.839
  330SOL    MW4 1352   1.573   3.095   0.879
  331SOL     OW 1353   1.403   3.267   0.788
  331SOL    HW2 1354   1.333   3.202   0.799
  331SOL    HW3 1355   1.409   3.280   0.694
  331SOL    MW4 1356   1.395   3.260   0.777
  332SOL     OW 1357   1.362   3.535   0.871
  332SOL    HW2 1358   1.418   3.591   0.818
  332SOL    HW3 1359   1.381   3.446   0.841
  332SOL    MW4 1360   1.372   3.530   0.860
  333SOL     OW 1361   1.574   3.667   0.749
  333SOL    HW2 1362   1.655   3.618   0.765
  333SOL    HW3 1363   1.577   3.691   0.657
  333SOL    MW4 1364   1.585   3.664   0.739
  334SOL     OW 1365   1.582   3.914   0.853
  334SOL    HW2 1366   1.523   3.956   0.791
  334SOL    HW3 1367   1.582   3.821   0.828
  334SOL    MW4 1368   1.574   3.907   0.842
  335SOL     OW 1369   1.357   3.985   0.699
  335SOL    HW2 1370   1.284   3.940   0.741
  335SOL    HW3 1371   1.360   3.949   0.611
  335SOL    MW4 1372   1.347   3.974   0.693
  336SOL     OW 1373   1.363   4.235   0.842
  336SOL    HW2 1374   1.437   4.282   0.804
  336SOL    HW3 1375   1.358   4.154   0.792
  336SOL    MW4 1376   1.372   4.230   0.830
  337SOL     OW 1377   1.595   4.400   0.779
  337SOL    HW2 1378   1.676   4.350   0.771
  337SOL    HW3 1379   1.622   4.484   0.817
  337SOL    MW4 1380   1.609   4.404   0.783
  338SOL     OW 1381   1.801   0.111   0.796
  338SOL    HW2 1382   1.887   0.070   0.806
  338SOL    HW3 1383   1.746   0.068   0.861
  338SOL    MW4 1384   1.805   0.100   0.806
  339SOL     OW 1385   1.709   0.164   0.539
  339SOL    HW2 1386   1.620   0.133   0.550
  339SOL    HW3 1387   1.752   0.145   0.623
  339SOL    MW4 1388   1.703   0.158   0.551
  340SOL     OW 1389   1.823   0.379   0.860
  340SOL    HW2 1390   1.832   0.289   0.829
  340SOL    HW3 1391   1.895   0.426   0.818
  340SOL    MW4 1392   1.834   0.373   0.850
  341SOL     OW 1393   2.012   0.514   0.726
  341SOL    HW2 1394   1.983   0.513   0.635
  341SOL    HW3 1395   2.089   0.457   0.727
  341SOL    MW4 1396   2.018   0.506   0.714
  342SOL     OW 1397   2.015   0.777   0.822
  342SOL    HW2 1398   2.091   0.823   0.786
  342SOL    HW3 1399   2.022   0.688   0.790
  342SOL    MW4 1400   2.026   0.772   0.813
  343SOL     OW 1401   1.773   0.904   0.719
  343SOL    HW2 1402   1.777   0.995   0.748
  343SOL    HW3 1403   1.841   0.860   0.769
  343SOL    MW4 1404   1.782   0.910   0.729
  344SOL     OW 1405   1.776   1.161   0.800
  344SOL    HW2 1406   1.857   1.195   0.762
  344SOL    HW3 1407   1.707   1.199   0.745
  344SOL    MW4 1408   1.777   1.171   0.787
  345SOL     OW 1409   2.029   1.250   0.719
  345SOL    HW2 1410   2.101   1.208   0.767
  345SOL    HW3 1411   2.062   1.261   0.630
  345SOL    MW4 1412   2.043   1.246   0.714
  346SOL     OW 1413   1.974   1.495   0.810
  346SOL    HW2 1414   1.973   1.552   0.734
  346SOL    HW3 1415   2.010   1.412   0.778
  346SOL    MW4 1416   1.979   1.491   0.796
  347SOL     OW 1417   1.843   1.391   0.422
  347SOL    HW2 1418   1.901   1.450   0.470
  347SOL    HW3 1419   1.780   1.449   0.379
  347SOL    MW4 1420   1.842   1.407   0.423
  348SOL     OW 1421   1.747   1.871   0.789
  348SOL    HW2 1422   1.728   1.782   0.819
  348SOL    HW3 1423   1.661   1.910   0.774
  348SOL    MW4 1424   1.733   1.865   0.791
  349SOL     OW 1425   1.999   1.991   0.755
  349SOL    HW2 1426   2.004   2.078   0.794
  349SOL    HW3 1427   1.914   1.957   0.781
  349SOL    MW4 1428   1.989   1.998   0.763
  350SOL     OW 1429   2.026   2.272   0.847
  350SOL    HW2 1430   2.033   2.287   0.941
  350SOL    HW3 1431   1.940   2.308   0.824
  350SOL    MW4 1432   2.015   2.279   0.856
  351SOL     OW 1433   1.805   2.421   0.774
  351SOL    HW2 1434   1.720   2.377   0.774
  351SOL    HW3 1435   1.837   2.412   0.684
  351SOL    MW4 1436   1.798   2.414   0.762
  352SOL     OW 1437   1.830   2.678   0.864
  352SOL    HW2 1438   1.819   2.588   0.832
  352SOL    HW3 1439   1.744   2.717   0.855
  352SOL    MW4 1440   1.817   2.671   0.859
  353SOL     OW 1441   2.007   2.851   0.751
  353SOL    HW2 1442   2.093   2.808   0.758
  353SOL    HW3 1443   1.949   2.797   0.805
  353SOL    MW4 1444   2.011   2.838   0.759
  354SOL     OW 1445   2.061   3.126   0.829
  354SOL    HW2 1446   1.973   3.160   0.812
  354SOL    HW3 1447   2.057   3.034   0.804
  354SOL    MW4 1448   2.049   3.119   0.823
  355SOL     OW 1449   1.806   3.214   0.758
  355SOL    HW2 1450   1.730   3.176   0.801
  355SOL    HW3 1451   1.789   3.203   0.665
  355SOL    MW4 1452   1.794   3.207   0.752
  356SOL     OW 1453   1.788   3.494   0.823
  356SOL    HW2 1454   1.813   3.503   0.915
  356SOL    HW3 1455   1.807   3.402   0.802
  356SOL    MW4 1456   1.794   3.483   0.832
  357SOL     OW 1457   2.030   3.627   0.750
  357SOL    HW2 1458   2.032   3.698   0.814
  357SOL    HW3 1459   1.943   3.589   0.759
  357SOL    MW4 1460   2.019   3.631   0.759
  358SOL     OW 1461   2.063   3.854   0.908
  358SOL    HW2 1462   2.068   3.863   1.003
  358SOL    HW3 1463   1.984   3.902   0.883
  358SOL    MW4 1464   2.053   3.861   0.917
  359SOL     OW 1465   1.846   3.987   0.763
  359SOL    HW2 1466   1.762   3.954   0.795
  359SOL    HW3 1467   1.848   3.962   0.670
  359SOL    MW4 1468   1.835   3.979   0.755
  360SOL     OW 1469   1.844   4.258   0.803
  360SOL    HW2 1470   1.820   4.251   0.896
  360SOL    HW3 1471   1.833   4.169   0.769
  360SOL    MW4 1472   1.840   4.245   0.811
  361SOL     OW 1473   2.088   4.401   0.718
  361SOL    HW2 1474   2.019   4.352   0.763
  361SOL    HW3 1475   2.074   4.381   0.625
  361SOL    MW4 1476   2.077   4.392   0.712
  362SOL     OW 1477   2.600   4.615   0.745
  362SOL    HW2 1478   2.577   4.528   0.778
  362SOL    HW3 1479   2.530   4.672   0.777
  362SOL    MW4 1480   2.587   4.611   0.753
  363SOL     OW 1481   2.385   0.133   0.821
  363SOL    HW2 1482   2.401   0.102   0.910
  363SOL    HW3 1483   2.344   0.059   0.777
  363SOL    MW4 1484   2.381   0.119   0.827
  364SOL     OW 1485   2.240   0.363   0.784
  364SOL    HW2 1486   2.318   0.419   0.779
  364SOL    HW3 1487   2.274   0.274   0.791
  364SOL    MW4 1488   2.255   0.359   0.784
  365SOL     OW 1489   2.489   0.517   0.756
  365SOL    HW2 1490   2.501   0.513   0.661
  365SOL    HW3 1491   2.559   0.462   0.791
  365SOL    MW4 1492   2.500   0.509   0.748
  366SOL     OW 1493   2.458   0.811   0.688
  366SOL    HW2 1494   2.519   0.826   0.615
  366SOL    HW3 1495   2.459   0.717   0.700
  366SOL    MW4 1496   2.467   0.801   0.680
  367SOL     OW 1497   2.208   0.919   0.676
  367SOL    HW2 1498   2.285   0.863   0.685
  367SOL    HW3 1499   2.192   0.923   0.582
  367SOL    MW4 1500   2.216   0.912   0.665
  368SOL     OW 1501   2.279   1.156   0.836
  368SOL    HW2 1502   2.276   1.164   0.931
  368SOL    HW3 1503   2.290   1.063   0.820
  368SOL    MW4 1504   2.280   1.145   0.846
  369SOL     OW 1505   2.496   1.277   0.713
  369SOL    HW2 1506   2.413   1.241   0.743
  369SOL    HW3 1507   2.509   1.238   0.626
  369SOL    MW4 1508   2.487   1.267   0.706
  370SOL     OW 1509   2.469   1.542   0.834
  370SOL    HW2 1510   2.542   1.593   0.798
  370SOL    HW3 1511   2.484   1.453   0.802
  370SOL    MW4 1512   2.481   1.537   0.825
  371SOL     OW 1513   2.310   1.629   0.621
  371SOL    HW2 1514   2.377   1.607   0.686
  371SOL    HW3 1515   2.313   1.556   0.559
  371SOL    MW4 1516   2.319   1.616   0.621
  372SOL     OW 1517   2.253   1.878   0.782
  372SOL    HW2 1518   2.244   1.804   0.722
  372SOL    HW3 1519   2.170   1.925   0.775
  372SOL    MW4 1520   2.241   1.875   0.773
  373SOL     OW 1521   2.483   2.032   0.750
  373SOL    HW2 1522   2.405   1.980   0.767
  373SOL    HW3 1523   2.476   2.056   0.658
  373SOL    MW4 1524   2.472   2.028   0.740
  374SOL     OW 1525   2.435   2.314   0.808
  374SOL    HW2 1526   2.520   2.350   0.783
  374SOL    HW3 1527   2.441   2.221   0.787
  374SOL    MW4 1528   2.447   2.306   0.802
  375SOL     OW 1529   2.198   2.461   0.738
  375SOL    HW2 1530   2.281   2.417   0.754
  375SOL    HW3 1531   2.133   2.408   0.785
  375SOL    MW4 1532   2.201   2.448   0.746
  376SOL     OW 1533   2.239   2.741   0.806
  376SOL    HW2 1534   2.255   2.757   0.899
  376SOL    HW3 1535   2.222   2.647   0.800
  376SOL    MW4 1536   2.239   2.730   0.817
  377SOL     OW 1537   2.501   2.855   0.785
  377SOL    HW2 1538   2.571   2.799   0.819
  377SOL    HW3 1539   2.421   2.804   0.796
  377SOL    MW4 1540   2.500   2.841   0.791
  378SOL     OW 1541   2.506   3.139   0.840
  378SOL    HW2 1542   2.493   3.142   0.934
  378SOL    HW3 1543   2.507   3.045   0.819
  378SOL    MW4 1544   2.504   3.127   0.849
  379SOL     OW 1545   2.298   3.247   0.712
  379SOL    HW2 1546   2.224   3.200   0.751
  379SOL    HW3 1547   2.375   3.208   0.753
  379SOL    MW4 1548   2.299   3.236   0.723
  380SOL     OW 1549   2.257   3.490   0.841
  380SOL    HW2 1550   2.280   3.400   0.817
  380SOL    HW3 1551   2.175   3.507   0.795
  380SOL    MW4 1552   2.250   3.480   0.832
  381SOL     OW 1553   2.481   3.529   0.695
  381SOL    HW2 1554   2.562   3.509   0.742
  381SOL    HW3 1555   2.411   3.514   0.758
  381SOL    MW4 1556   2.483   3.525   0.709
  382SOL     OW 1557   2.511   3.810   0.683
  382SOL    HW2 1558   2.432   3.856   0.713
  382SOL    HW3 1559   2.493   3.717   0.701
  382SOL    MW4 1560   2.498   3.804   0.689
  383SOL     OW 1561   2.285   3.956   0.771
  383SOL    HW2 1562   2.212   3.905   0.807
  383SOL    HW3 1563   2.259   3.973   0.680
  383SOL    MW4 1564   2.272   3.951   0.764
  384SOL     OW 1565   2.298   4.246   0.802
  384SOL    HW2 1566   2.281   4.158   0.771
  384SOL    HW3 1567   2.223   4.297   0.772
  384SOL    MW4 1568   2.286   4.241   0.794
  385SOL     OW 1569   2.575   4.342   0.830
  385SOL    HW2 1570   2.590   4.305   0.917
  385SOL    HW3 1571   2.481   4.331   0.814
  385SOL    MW4 1572   2.565   4.336   0.839
  386SOL     OW 1573   2.857   4.632   0.846
  386SOL    HW2 1574   2.873   4.538   0.846
  386SOL    HW3 1575   2.769   4.642   0.811
  386SOL    MW4 1576   2.848   4.621   0.842
  387SOL     OW 1577   2.720   4.467   0.533
  387SOL    HW2 1578   2.802   4.500   0.496
  387SOL    HW3 1579   2.690   4.537   0.590
  387SOL    MW4 1580   2.727   4.480   0.536
  388SOL     OW 1581   2.704   0.334   0.808
  388SOL    HW2 1582   2.708   0.340   0.904
  388SOL    HW3 1583   2.785   0.376   0.778
  388SOL    MW4 1584   2.716   0.341   0.817
  389SOL     OW 1585   2.919   0.484   0.738
  389SOL    HW2 1586   2.992   0.428   0.765
  389SOL    HW3 1587   2.935   0.502   0.646
  389SOL    MW4 1588   2.931   0.479   0.730
  390SOL     OW 1589   2.861   0.728   0.873
  390SOL    HW2 1590   2.891   0.724   0.964
  390SOL    HW3 1591   2.872   0.638   0.841
  390SOL    MW4 1592   2.867   0.715   0.880
  391SOL     OW 1593   2.624   0.852   0.910
  391SOL    HW2 1594   2.711   0.813   0.903
  391SOL    HW3 1595   2.579   0.827   0.830
  391SOL    MW4 1596   2.629   0.844   0.899
  392SOL     OW 1597   2.681   1.125   0.852
  392SOL    HW2 1598   2.656   1.033   0.845
  392SOL    HW3 1599   2.607   1.173   0.816
  392SOL    MW4 1600   2.668   1.119   0.846
  393SOL     OW 1601   2.883   1.251   0.716
  393SOL    HW2 1602   2.959   1.212   0.758
  393SOL    HW3 1603   2.808   1.219   0.766
  393SOL    MW4 1604   2.883   1.242   0.728
  394SOL     OW 1605   2.913   1.516   0.824
  394SOL    HW2 1606   2.988   1.553   0.777
  394SOL    HW3 1607   2.897   1.431   0.783
  394SOL    MW4 1608   2.921   1.510   0.813
  395SOL     OW 1609   2.710   1.670   0.740
  395SOL    HW2 1610   2.711   1.759   0.776
  395SOL    HW3 1611   2.785   1.627   0.782
  395SOL    MW4 1612   2.720   1.676   0.750
  396SOL     OW 1613   2.734   1.933   0.844
  396SOL    HW2 1614   2.730   1.929   0.939
  396SOL    HW3 1615   2.656   1.981   0.818
  396SOL    MW4 1616   2.724   1.939   0.853
  397SOL     OW 1617   2.854   2.102   0.661
  397SOL    HW2 1618   2.875   2.178   0.716
  397SOL    HW3 1619   2.825   2.035   0.722
  397SOL    MW4 1620   2.853   2.104   0.676
  398SOL     OW 1621   2.899   2.301   0.852
  398SOL    HW2 1622   2.915   2.311   0.945
  398SOL    HW3 1623   2.823   2.357   0.834
  398SOL    MW4 1624   2.891   2.310   0.862
  399SOL     OW 1625   2.688   2.412   0.732
  399SOL    HW2 1626   2.684   2.422   0.637
  399SOL    HW3 1627   2.688   2.501   0.766
  399SOL    MW4 1628   2.688   2.425   0.724
  400SOL     OW 1629   2.703   2.664   0.849
  400SOL    HW2 1630   2.726   2.657   0.941
  400SOL    HW3 1631   2.776   2.712   0.810
  400SOL    MW4 1632   2.716   2.669   0.856
  401SOL     OW 1633   2.872   2.781   0.531
  401SOL    HW2 1634   2.880   2.701   0.479
  401SOL    HW3 1635   2.783   2.810   0.516
  401SOL    MW4 1636   2.862   2.774   0.522
  402SOL     OW 1637   2.878   3.087   0.871
  402SOL    HW2 1638   2.830   3.131   0.801
  402SOL    HW3 1639   2.888   2.997   0.839
  402SOL    MW4 1640   2.873   3.081   0.857
  403SOL     OW 1641   2.730   3.231   0.669
  403SOL    HW2 1642   2.734   3.303   0.732
  403SOL    HW3 1643   2.648   3.186   0.690
  403SOL    MW4 1644   2.719   3.234   0.680
  404SOL     OW 1645   2.733   3.448   0.846
  404SOL    HW2 1646   2.725   3.459   0.941
  404SOL    HW3 1647   2.813   3.496   0.824
  404SOL    MW4 1648   2.743   3.456   0.856
  405SOL     OW 1649   2.966   3.601   0.783
  405SOL    HW2 1650   2.962   3.693   0.811
  405SOL    HW3 1651   2.980   3.605   0.689
  405SOL    MW4 1652   2.967   3.614   0.774
  406SOL     OW 1653   2.924   3.870   0.842
  406SOL    HW2 1654   2.922   3.877   0.938
  406SOL    HW3 1655   2.842   3.910   0.814
  406SOL    MW4 1656   2.913   3.876   0.851
  407SOL     OW 1657   2.722   4.005   0.687
  407SOL    HW2 1658   2.643   3.950   0.690
  407SOL    HW3 1659   2.771   3.973   0.611
  407SOL    MW4 1660   2.718   3.993   0.677
  408SOL     OW 1661   2.861   4.304   0.853
  408SOL    HW2 1662   2.818   4.284   0.936
  408SOL    HW3 1663   2.955   4.294   0.872
  408SOL    MW4 1664   2.868   4.300   0.866
  409SOL     OW 1665   3.081   4.360   0.336
  409SOL    HW2 1666   3.171   4.372   0.368
  409SOL    HW3 1667   3.037   4.310   0.405
  409SOL    MW4 1668   3.087   4.355   0.349
  410SOL     OW 1669   3.376   4.632   0.866
  410SOL    HW2 1670   3.400   4.642   0.958
  410SOL    HW3 1671   3.284   4.658   0.862
  410SOL    MW4 1672   3.367   4.637   0.878
  411SOL     OW 1673   3.128   0.070   0.801
  411SOL    HW2 1674   3.133   0.166   0.801
  411SOL    HW3 1675   3.034   0.051   0.806
  411SOL    MW4 1676   3.116   0.080   0.801
  412SOL     OW 1677   3.149   0.345   0.799
  412SOL    HW2 1678   3.159   0.350   0.894
  412SOL    HW3 1679   3.205   0.415   0.766
  412SOL    MW4 1680   3.157   0.355   0.807
  413SOL     OW 1681   3.340   0.499   0.678
  413SOL    HW2 1682   3.397   0.474   0.750
  413SOL    HW3 1683   3.331   0.419   0.625
  413SOL    MW4 1684   3.346   0.485   0.680
  414SOL     OW 1685   3.288   0.767   0.789
  414SOL    HW2 1686   3.200   0.805   0.787
  414SOL    HW3 1687   3.278   0.681   0.748
  414SOL    MW4 1688   3.275   0.761   0.783
  415SOL     OW 1689   3.047   0.875   0.766
  415SOL    HW2 1690   3.048   0.952   0.822
  415SOL    HW3 1691   2.968   0.827   0.792
  415SOL    MW4 1692   3.037   0.879   0.777
  416SOL     OW 1693   3.114   1.164   0.831
  416SOL    HW2 1694   3.137   1.167   0.924
  416SOL    HW3 1695   3.199   1.166   0.786
  416SOL    MW4 1696   3.129   1.165   0.837
  417SOL     OW 1697   3.358   1.257   0.741
  417SOL    HW2 1698   3.421   1.240   0.811
  417SOL    HW3 1699   3.332   1.348   0.755
  417SOL    MW4 1700   3.363   1.267   0.752
  418SOL     OW 1701   3.327   1.529   0.847
  418SOL    HW2 1702   3.335   1.538   0.942
  418SOL    HW3 1703   3.417   1.534   0.815
  418SOL    MW4 1704   3.340   1.531   0.855
  419SOL     OW 1705   3.123   1.630   0.703
  419SOL    HW2 1706   3.196   1.586   0.745
  419SOL    HW3 1707   3.122   1.595   0.613
  419SOL    MW4 1708   3.132   1.620   0.696
  420SOL     OW 1709   3.185   1.874   0.815
  420SOL    HW2 1710   3.174   1.888   0.909
  420SOL    HW3 1711   3.174   1.780   0.803
  420SOL    MW4 1712   3.182   1.864   0.826
  421SOL     OW 1713   3.549   2.035   0.819
  421SOL    HW2 1714   3.491   2.105   0.849
  421SOL    HW3 1715   3.492   1.974   0.772
  421SOL    MW4 1716   3.534   2.036   0.817
  422SOL     OW 1717   3.389   2.279   0.818
  422SOL    HW2 1718   3.351   2.283   0.906
  422SOL    HW3 1719   3.476   2.317   0.828
  422SOL    MW4 1720   3.395   2.285   0.831
  423SOL     OW 1721   3.085   2.474   0.714
  423SOL    HW2 1722   3.145   2.411   0.672
  423SOL    HW3 1723   3.021   2.419   0.759
  423SOL    MW4 1724   3.085   2.458   0.714
  424SOL     OW 1725   3.158   2.695   0.870
  424SOL    HW2 1726   3.135   2.616   0.822
  424SOL    HW3 1727   3.213   2.745   0.810
  424SOL    MW4 1728   3.163   2.691   0.856
  425SOL     OW 1729   3.276   2.880   0.707
  425SOL    HW2 1730   3.213   2.894   0.636
  425SOL    HW3 1731   3.348   2.832   0.666
  425SOL    MW4 1732   3.277   2.876   0.692
  426SOL     OW 1733   3.374   3.104   0.834
  426SOL    HW2 1734   3.350   3.108   0.926
  426SOL    HW3 1735   3.346   3.017   0.805
  426SOL    MW4 1736   3.367   3.093   0.842
  427SOL     OW 1737   3.128   3.210   0.769
  427SOL    HW2 1738   3.214   3.178   0.795
  427SOL    HW3 1739   3.066   3.156   0.819
  427SOL    MW4 1740   3.131   3.199   0.779
  428SOL     OW 1741   3.219   3.460   0.872
  428SOL    HW2 1742   3.169   3.386   0.838
  428SOL    HW3 1743   3.161   3.535   0.861
  428SOL    MW4 1744   3.205   3.460   0.866
  429SOL     OW 1745   3.348   4.375   0.456
  429SOL    HW2 1746   3.372   4.284   0.438
  429SOL    HW3 1747   3.428   4.425   0.440
  429SOL    MW4 1748   3.362   4.370   0.451
  430SOL     OW 1749   3.461   3.962   0.818
  430SOL    HW2 1750   3.515   4.040   0.828
  430SOL    HW3 1751   3.419   3.950   0.904
  430SOL    MW4 1752   3.462   3.970   0.831
  431SOL     OW 1753   3.070   4.053   0.698
  431SOL    HW2 1754   3.139   4.002   0.655
  431SOL    HW3 1755   3.015   3.988   0.741
  431SOL    MW4 1756   3.072   4.038   0.698
  432SOL     OW 1757   3.128   4.260   0.876
  432SOL    HW2 1758   3.183   4.318   0.823
  432SOL    HW3 1759   3.137   4.174   0.834
  432SOL    MW4 1760   3.137   4.257   0.863
  433SOL     OW 1761   3.355   4.388   0.748
  433SOL    HW2 1762   3.351   4.461   0.809
  433SOL    HW3 1763   3.352   4.428   0.661
  433SOL    MW4 1764   3.354   4.403   0.745
  434SOL     OW 1765   3.813   0.040   0.863
  434SOL    HW2 1766   3.885   0.096   0.835
  434SOL    HW3 1767   3.736   0.076   0.819
  434SOL    MW4 1768   3.812   0.052   0.854
  435SOL     OW 1769   3.578   0.136   0.743
  435SOL    HW2 1770   3.509   0.084   0.785
  435SOL    HW3 1771   3.570   0.116   0.650
  435SOL    MW4 1772   3.568   0.127   0.737
  436SOL     OW 1773   3.544   0.393   0.827
  436SOL    HW2 1774   3.563   0.397   0.920
  436SOL    HW3 1775   3.575   0.307   0.799
  436SOL    MW4 1776   3.550   0.382   0.835
  437SOL     OW 1777   3.790   0.547   0.713
  437SOL    HW2 1778   3.796   0.630   0.761
  437SOL    HW3 1779   3.721   0.498   0.759
  437SOL    MW4 1780   3.782   0.551   0.726
  438SOL     OW 1781   3.795   0.786   0.853
  438SOL    HW2 1782   3.804   0.783   0.949
  438SOL    HW3 1783   3.866   0.843   0.824
  438SOL    MW4 1784   3.806   0.793   0.862
  439SOL     OW 1785   3.520   0.909   0.799
  439SOL    HW2 1786   3.586   0.846   0.829
  439SOL    HW3 1787   3.438   0.858   0.797
  439SOL    MW4 1788   3.518   0.894   0.803
  440SOL     OW 1789   3.580   1.175   0.894
  440SOL    HW2 1790   3.578   1.170   0.990
  440SOL    HW3 1791   3.555   1.087   0.865
  440SOL    MW4 1792   3.576   1.163   0.903
  441SOL     OW 1793   3.831   1.256   0.843
  441SOL    HW2 1794   3.743   1.228   0.868
  441SOL    HW3 1795   3.847   1.215   0.758
  441SOL    MW4 1796   3.822   1.247   0.835
  442SOL     OW 1797   3.830   1.531   0.850
  442SOL    HW2 1798   3.889   1.554   0.779
  442SOL    HW3 1799   3.835   1.436   0.856
  442SOL    MW4 1800   3.838   1.522   0.842
  443SOL     OW 1801   3.561   1.559   0.710
  443SOL    HW2 1802   3.542   1.650   0.689
  443SOL    HW3 1803   3.640   1.563   0.764
  443SOL    MW4 1804   3.569   1.572   0.714
  444SOL     OW 1805   3.799   1.978   0.629
  444SOL    HW2 1806   3.876   1.949   0.677
  444SOL    HW3 1807   3.728   1.978   0.693
  444SOL    MW4 1808   3.799   1.974   0.644
  445SOL     OW 1809   3.805   2.250   0.576
  445SOL    HW2 1810   3.790   2.278   0.666
  445SOL    HW3 1811   3.815   2.155   0.581
  445SOL    MW4 1812   3.804   2.242   0.588
  446SOL     OW 1813   4.077   1.657   0.417
  446SOL    HW2 1814   3.982   1.657   0.403
  446SOL    HW3 1815   4.101   1.749   0.420
  446SOL    MW4 1816   4.068   1.669   0.416
  447SOL     OW 1817   3.663   2.392   0.843
  447SOL    HW2 1818   3.648   2.486   0.850
  447SOL    HW3 1819   3.719   2.371   0.918
  447SOL    MW4 1820   3.669   2.401   0.854
  448SOL     OW 1821   3.632   2.670   0.853
  448SOL    HW2 1822   3.602   2.691   0.941
  448SOL    HW3 1823   3.703   2.733   0.837
  448SOL    MW4 1824   3.638   2.681   0.863
  449SOL     OW 1825   3.826   2.899   0.775
  449SOL    HW2 1826   3.776   2.974   0.809
  449SOL    HW3 1827   3.847   2.924   0.685
  449SOL    MW4 1828   3.822   2.912   0.767
  450SOL     OW 1829   3.673   3.095   0.886
  450SOL    HW2 1830   3.718   3.172   0.852
  450SOL    HW3 1831   3.582   3.106   0.858
  450SOL    MW4 1832   3.667   3.107   0.878
  451SOL     OW 1833   3.438   3.485   0.706
  451SOL    HW2 1834   3.446   3.408   0.650
  451SOL    HW3 1835   3.374   3.461   0.772
  451SOL    MW4 1836   3.431   3.472   0.707
  452SOL     OW 1837   3.635   3.517   0.886
  452SOL    HW2 1838   3.703   3.454   0.863
  452SOL    HW3 1839   3.563   3.497   0.826
  452SOL    MW4 1840   3.634   3.506   0.875
  453SOL     OW 1841   3.837   3.621   0.618
  453SOL    HW2 1842   3.758   3.653   0.661
  453SOL    HW3 1843   3.901   3.613   0.689
  453SOL    MW4 1844   3.835   3.624   0.633
  454SOL     OW 1845   3.686   3.806   0.830
  454SOL    HW2 1846   3.594   3.833   0.841
  454SOL    HW3 1847   3.686   3.714   0.854
  454SOL    MW4 1848   3.674   3.798   0.834
  455SOL     OW 1849   2.617   4.224   0.190
  455SOL    HW2 1850   2.628   4.239   0.096
  455SOL    HW3 1851   2.624   4.311   0.229
  455SOL    MW4 1852   2.619   4.237   0.183
  456SOL     OW 1853   3.597   4.205   0.829
  456SOL    HW2 1854   3.662   4.229   0.763
  456SOL    HW3 1855   3.520   4.257   0.806
  456SOL    MW4 1856   3.595   4.215   0.817
  457SOL     OW 1857   3.824   4.544   0.597
  457SOL    HW2 1858   3.821   4.450   0.609
  457SOL    HW3 1859   3.840   4.580   0.685
  457SOL    MW4 1860   3.826   4.537   0.610
  458SOL     OW 1861   4.221   4.649   0.806
  458SOL    HW2 1862   4.247   4.645   0.898
  458SOL    HW3 1863   4.154   4.717   0.803
  458SOL    MW4 1864   4.216   4.658   0.818
  459SOL     OW 1865   4.035   0.189   0.766
  459SOL    HW2 1866   4.034   0.280   0.795
  459SOL    HW3 1867   4.041   0.194   0.671
  459SOL    MW4 1868   4.036   0.202   0.757
  460SOL     OW 1869   4.026   0.460   0.853
  460SOL    HW2 1870   4.104   0.470   0.798
  460SOL    HW3 1871   3.958   0.508   0.807
  460SOL    MW4 1872   4.027   0.467   0.840
  461SOL     OW 1873   4.265   0.524   0.721
  461SOL    HW2 1874   4.335   0.472   0.760
  461SOL    HW3 1875   4.264   0.497   0.629
  461SOL    MW4 1876   4.274   0.513   0.714
  462SOL     OW 1877   4.246   0.777   0.860
  462SOL    HW2 1878   4.164   0.825   0.852
  462SOL    HW3 1879   4.231   0.695   0.813
  462SOL    MW4 1880   4.233   0.773   0.852
  463SOL     OW 1881   4.027   0.932   0.790
  463SOL    HW2 1882   4.070   1.002   0.839
  463SOL    HW3 1883   4.046   0.952   0.699
  463SOL    MW4 1884   4.035   0.944   0.785
  464SOL     OW 1885   4.105   1.157   0.913
  464SOL    HW2 1886   4.098   1.178   1.006
  464SOL    HW3 1887   4.024   1.190   0.875
  464SOL    MW4 1888   4.093   1.164   0.921
  465SOL     OW 1889   4.318   1.252   0.791
  465SOL    HW2 1890   4.246   1.221   0.847
  465SOL    HW3 1891   4.394   1.200   0.818
  465SOL    MW4 1892   4.318   1.241   0.802
  466SOL     OW 1893   4.322   1.519   0.802
  466SOL    HW2 1894   4.293   1.539   0.891
  466SOL    HW3 1895   4.338   1.425   0.802
  466SOL    MW4 1896   4.320   1.510   0.814
  467SOL     OW 1897   4.053   1.589   0.693
  467SOL    HW2 1898   4.131   1.547   0.729
  467SOL    HW3 1899   4.074   1.606   0.601
  467SOL    MW4 1900   4.066   1.586   0.686
  468SOL     OW 1901   4.016   1.857   0.786
  468SOL    HW2 1902   4.029   1.763   0.772
  468SOL    HW3 1903   4.094   1.898   0.750
  468SOL    MW4 1904   4.028   1.850   0.780
  469SOL     OW 1905   4.255   2.007   0.678
  469SOL    HW2 1906   4.327   1.952   0.709
  469SOL    HW3 1907   4.231   1.970   0.593
  469SOL    MW4 1908   4.261   1.995   0.671
  470SOL     OW 1909   4.233   2.287   0.768
  470SOL    HW2 1910   4.150   2.308   0.726
  470SOL    HW3 1911   4.243   2.193   0.757
  470SOL    MW4 1912   4.224   2.277   0.761
  471SOL     OW 1913   3.996   2.605   0.532
  471SOL    HW2 1914   4.001   2.646   0.618
  471SOL    HW3 1915   3.920   2.646   0.491
  471SOL    MW4 1916   3.987   2.616   0.538
  472SOL     OW 1917   4.043   2.736   0.797
  472SOL    HW2 1918   4.129   2.771   0.773
  472SOL    HW3 1919   3.986   2.813   0.799
  472SOL    MW4 1920   4.047   2.751   0.794
  473SOL     OW 1921   4.303   2.840   0.703
  473SOL    HW2 1922   4.368   2.780   0.738
  473SOL    HW3 1923   4.300   2.819   0.609
  473SOL    MW4 1924   4.311   2.829   0.695
  474SOL     OW 1925   4.301   3.092   0.841
  474SOL    HW2 1926   4.323   3.008   0.801
  474SOL    HW3 1927   4.361   3.154   0.799
  474SOL    MW4 1928   4.312   3.089   0.830
  475SOL     OW 1929   4.064   3.223   0.778
  475SOL    HW2 1930   4.098   3.310   0.800
  475SOL    HW3 1931   4.136   3.164   0.799
  475SOL    MW4 1932   4.078   3.227   0.784
  476SOL     OW 1933   3.991   3.650   0.861
  476SOL    HW2 1934   3.977   3.619   0.950
  476SOL    HW3 1935   4.038   3.733   0.871
  476SOL    MW4 1936   3.995   3.657   0.874
  477SOL     OW 1937   4.220   3.490   0.796
  477SOL    HW2 1938   4.144   3.544   0.818
  477SOL    HW3 1939   4.237   3.509   0.703
  477SOL    MW4 1940   4.212   3.500   0.786
  478SOL     OW 1941   4.147   3.879   0.894
  478SOL    HW2 1942   4.204   3.891   0.970
  478SOL    HW3 1943   4.088   3.955   0.896
  478SOL    MW4 1944   4.146   3.891   0.904
  479SOL     OW 1945   3.830   4.025   0.690
  479SOL    HW2 1946   3.776   3.965   0.742
  479SOL    HW3 1947   3.867   3.971   0.621
  479SOL    MW4 1948   3.828   4.010   0.688
  480SOL     OW 1949   4.037   4.143   0.878
  480SOL    HW2 1950   4.087   4.183   0.807
  480SOL    HW3 1951   3.948   4.136   0.842
  480SOL    MW4 1952   4.032   4.147   0.864
  481SOL     OW 1953   4.345   4.439   0.667
  481SOL    HW2 1954   4.299   4.508   0.714
  481SOL    HW3 1955   4.406   4.403   0.730
  481SOL    MW4 1956   4.347   4.443   0.681
  482SOL     OW 1957   0.217   4.666   1.097
  482SOL    HW2 1958   0.301   4.690   1.136
  482SOL    HW3 1959   0.232   4.672   1.002
  482SOL    MW4 1960   0.230   4.670   1.089
  483SOL     OW 1961   4.486   0.074   1.246
  483SOL    HW2 1962   4.414   0.051   1.188
  483SOL    HW3 1963   4.565   0.066   1.192
  483SOL    MW4 1964   4.487   0.070   1.231
  484SOL     OW 1965   4.482   0.353   1.158
  484SOL    HW2 1966   4.406   0.410   1.173
  484SOL    HW3 1967   4.465   0.276   1.213
  484SOL    MW4 1968   4.469   0.351   1.168
  485SOL     OW 1969   0.223   0.500   1.218
  485SOL    HW2 1970   0.206   0.585   1.177
  485SOL    HW3 1971   0.141   0.451   1.208
  485SOL    MW4 1972   0.210   0.505   1.212
  486SOL     OW 1973   0.183   0.753   1.119
  486SOL    HW2 1974   0.264   0.795   1.146
  486SOL    HW3 1975   0.116   0.791   1.176
  486SOL    MW4 1976   0.185   0.763   1.130
  487SOL     OW 1977   4.480   0.888   1.236
  487SOL    HW2 1978   4.492   0.881   1.331
  487SOL    HW3 1979   4.400   0.838   1.218
  487SOL    MW4 1980   4.471   0.880   1.246
  488SOL     OW 1981   4.479   1.118   1.083
  488SOL    HW2 1982   4.416   1.167   1.135
  488SOL    HW3 1983   4.497   1.039   1.134
  488SOL    MW4 1984   4.473   1.114   1.097
  489SOL     OW 1985   0.210   1.262   1.169
  489SOL    HW2 1986   0.295   1.234   1.135
  489SOL    HW3 1987   0.147   1.208   1.123
  489SOL    MW4 1988   0.213   1.251   1.158
  490SOL     OW 1989   0.216   1.531   1.120
  490SOL    HW2 1990   0.209   1.438   1.138
  490SOL    HW3 1991   0.218   1.537   1.024
  490SOL    MW4 1992   0.216   1.520   1.110
  491SOL     OW 1993   4.463   1.654   1.181
  491SOL    HW2 1994   4.467   1.746   1.153
  491SOL    HW3 1995   4.554   1.624   1.176
  491SOL    MW4 1996   4.475   1.662   1.176
  492SOL     OW 1997   0.009   1.905   1.094
  492SOL    HW2 1998  -0.073   1.950   1.113
  492SOL    HW3 1999   0.009   1.893   0.999
  492SOL    MW4 2000  -0.002   1.909   1.084
  493SOL     OW 2001   0.225   2.050   1.206
  493SOL    HW2 2002   0.232   2.133   1.158
  493SOL    HW3 2003   0.155   2.002   1.160
  493SOL    MW4 2004   0.216   2.055   1.193
  494SOL     OW 2005   0.256   2.320   1.104
  494SOL    HW2 2006   0.322   2.372   1.150
  494SOL    HW3 2007   0.172   2.358   1.132
  494SOL    MW4 2008   0.254   2.332   1.114
  495SOL     OW 2009   0.005   2.419   1.177
  495SOL    HW2 2010  -0.022   2.428   1.268
  495SOL    HW3 2011  -0.071   2.378   1.134
  495SOL    MW4 2012  -0.009   2.415   1.183
  496SOL     OW 2013   0.003   2.693   1.098
  496SOL    HW2 2014  -0.078   2.734   1.127
  496SOL    HW3 2015  -0.006   2.601   1.123
  496SOL    MW4 2016  -0.009   2.686   1.105
  497SOL     OW 2017   0.205   2.824   1.238
  497SOL    HW2 2018   0.187   2.828   1.332
  497SOL    HW3 2019   0.147   2.755   1.206
  497SOL    MW4 2020   0.195   2.815   1.246
  498SOL     OW 2021   0.196   3.067   1.106
  498SOL    HW2 2022   0.269   3.115   1.143
  498SOL    HW3 2023   0.197   2.983   1.151
  498SOL    MW4 2024   0.206   3.062   1.117
  499SOL     OW 2025   4.478   3.198   1.244
  499SOL    HW2 2026   4.406   3.145   1.210
  499SOL    HW3 2027   4.557   3.158   1.205
  499SOL    MW4 2028   4.479   3.186   1.234
  500SOL     OW 2029   0.033   3.474   1.161
  500SOL    HW2 2030   0.021   3.384   1.190
  500SOL    HW3 2031   0.024   3.471   1.065
  500SOL    MW4 2032   0.030   3.462   1.152
  501SOL     OW 2033   0.227   3.625   1.249
  501SOL    HW2 2034   0.235   3.629   1.344
  501SOL    HW3 2035   0.150   3.570   1.233
  501SOL    MW4 2036   0.218   3.619   1.260
  502SOL     OW 2037   0.208   3.872   1.128
  502SOL    HW2 2038   0.148   3.919   1.186
  502SOL    HW3 2039   0.215   3.784   1.166
  502SOL    MW4 2040   0.201   3.866   1.141
  503SOL     OW 2041   4.481   4.023   1.242
  503SOL    HW2 2042   4.485   3.999   1.334
  503SOL    HW3 2043   4.402   3.981   1.209
  503SOL    MW4 2044   4.471   4.014   1.250
  504SOL     OW 2045   4.465   4.286   1.159
  504SOL    HW2 2046   4.549   4.315   1.196
  504SOL    HW3 2047   4.461   4.193   1.180
  504SOL    MW4 2048   4.475   4.278   1.167
  505SOL     OW 2049   0.234   4.371   1.199
  505SOL    HW2 2050   0.234   4.373   1.295
  505SOL    HW3 2051   0.235   4.463   1.174
  505SOL    MW4 2052   0.234   4.383   1.209
  506SOL     OW 2053   0.680   4.640   1.112
  506SOL    HW2 2054   0.750   4.691   1.153
  506SOL    HW3 2055   0.699   4.549   1.133
  506SOL    MW4 2056   0.692   4.635   1.120
  507SOL     OW 2057   0.446   0.099   1.218
  507SOL    HW2 2058   0.449   0.187   1.180
  507SOL    HW3 2059   0.529   0.059   1.192
  507SOL    MW4 2060   0.458   0.105   1.209
  508SOL     OW 2061   0.429   0.358   1.106
  508SOL    HW2 2062   0.357   0.410   1.142
  508SOL    HW3 2063   0.414   0.359   1.011
  508SOL    MW4 2064   0.418   0.365   1.098
  509SOL     OW 2065   0.651   0.484   1.238
  509SOL    HW2 2066   0.644   0.571   1.198
  509SOL    HW3 2067   0.567   0.443   1.220
  509SOL    MW4 2068   0.639   0.490   1.230
  510SOL     OW 2069   0.653   0.727   1.145
  510SOL    HW2 2070   0.567   0.761   1.170
  510SOL    HW3 2071   0.651   0.724   1.049
  510SOL    MW4 2072   0.641   0.731   1.135
  511SOL     OW 2073   0.421   0.840   1.210
  511SOL    HW2 2074   0.436   0.839   1.305
  511SOL    HW3 2075   0.436   0.930   1.184
  511SOL    MW4 2076   0.425   0.851   1.219
  512SOL     OW 2077   0.444   1.103   1.120
  512SOL    HW2 2078   0.519   1.138   1.168
  512SOL    HW3 2079   0.473   1.100   1.029
  512SOL    MW4 2080   0.458   1.107   1.114
  513SOL     OW 2081   0.659   1.239   1.223
  513SOL    HW2 2082   0.747   1.203   1.209
  513SOL    HW3 2083   0.659   1.322   1.175
  513SOL    MW4 2084   0.671   1.245   1.215
  514SOL     OW 2085   0.650   1.488   1.075
  514SOL    HW2 2086   0.733   1.517   1.111
  514SOL    HW3 2087   0.587   1.555   1.103
  514SOL    MW4 2088   0.652   1.500   1.084
  515SOL     OW 2089   0.462   1.667   1.192
  515SOL    HW2 2090   0.456   1.673   1.288
  515SOL    HW3 2091   0.377   1.632   1.165
  515SOL    MW4 2092   0.450   1.663   1.201
  516SOL     OW 2093   0.477   1.938   1.113
  516SOL    HW2 2094   0.464   1.847   1.142
  516SOL    HW3 2095   0.397   1.982   1.139
  516SOL    MW4 2096   0.465   1.932   1.120
  517SOL     OW 2097   0.698   2.077   1.242
  517SOL    HW2 2098   0.686   2.083   1.337
  517SOL    HW3 2099   0.621   2.028   1.211
  517SOL    MW4 2100   0.686   2.071   1.250
  518SOL     OW 2101   0.717   2.331   1.099
  518SOL    HW2 2102   0.635   2.378   1.112
  518SOL    HW3 2103   0.712   2.257   1.159
  518SOL    MW4 2104   0.706   2.327   1.109
  519SOL     OW 2105   0.482   2.460   1.204
  519SOL    HW2 2106   0.464   2.461   1.298
  519SOL    HW3 2107   0.489   2.553   1.181
  519SOL    MW4 2108   0.481   2.473   1.214
  520SOL     OW 2109   0.446   2.715   1.121
  520SOL    HW2 2110   0.362   2.745   1.157
  520SOL    HW3 2111   0.438   2.728   1.027
  520SOL    MW4 2112   0.434   2.721   1.113
  521SOL     OW 2113   0.679   2.836   1.216
  521SOL    HW2 2114   0.673   2.930   1.199
  521SOL    HW3 2115   0.598   2.800   1.180
  521SOL    MW4 2116   0.668   2.844   1.209
  522SOL     OW 2117   0.639   3.104   1.157
  522SOL    HW2 2118   0.714   3.156   1.187
  522SOL    HW3 2119   0.648   3.102   1.061
  522SOL    MW4 2120   0.650   3.110   1.148
  523SOL     OW 2121   0.392   3.204   1.249
  523SOL    HW2 2122   0.401   3.293   1.216
  523SOL    HW3 2123   0.479   3.166   1.239
  523SOL    MW4 2124   0.405   3.211   1.243
  524SOL     OW 2125   0.447   3.479   1.178
  524SOL    HW2 2126   0.521   3.533   1.207
  524SOL    HW3 2127   0.370   3.532   1.199
  524SOL    MW4 2128   0.447   3.493   1.184
  525SOL     OW 2129   0.684   3.593   1.235
  525SOL    HW2 2130   0.700   3.609   1.328
  525SOL    HW3 2131   0.687   3.680   1.195
  525SOL    MW4 2132   0.687   3.607   1.242
  526SOL     OW 2133   0.683   3.817   1.107
  526SOL    HW2 2134   0.603   3.866   1.127
  526SOL    HW3 2135   0.684   3.811   1.012
  526SOL    MW4 2136   0.673   3.823   1.097
  527SOL     OW 2137   0.463   3.984   1.213
  527SOL    HW2 2138   0.477   4.071   1.176
  527SOL    HW3 2139   0.372   3.964   1.193
  527SOL    MW4 2140   0.453   3.993   1.205
  528SOL     OW 2141   0.474   4.240   1.110
  528SOL    HW2 2142   0.541   4.298   1.146
  528SOL    HW3 2143   0.392   4.278   1.138
  528SOL    MW4 2144   0.472   4.253   1.118
  529SOL     OW 2145   0.693   4.370   1.193
  529SOL    HW2 2146   0.688   4.358   1.288
  529SOL    HW3 2147   0.777   4.333   1.168
  529SOL    MW4 2148   0.703   4.363   1.202
  530SOL     OW 2149   1.077   4.641   1.120
  530SOL    HW2 2150   1.100   4.554   1.154
  530SOL    HW3 2151   1.098   4.636   1.027
  530SOL    MW4 2152   1.083   4.629   1.112
  531SOL     OW 2153   0.882   0.132   1.231
  531SOL    HW2 2154   0.891   0.122   1.325
  531SOL    HW3 2155   0.947   0.073   1.193
  531SOL    MW4 2156   0.892   0.123   1.238
  532SOL     OW 2157   0.908   0.390   1.132
  532SOL    HW2 2158   0.901   0.300   1.164
  532SOL    HW3 2159   0.828   0.432   1.164
  532SOL    MW4 2160   0.897   0.384   1.141
  533SOL     OW 2161   1.147   0.513   1.208
  533SOL    HW2 2162   1.142   0.494   1.301
  533SOL    HW3 2163   1.073   0.467   1.169
  533SOL    MW4 2164   1.137   0.505   1.215
  534SOL     OW 2165   1.096   0.764   1.138
  534SOL    HW2 2166   1.016   0.791   1.183
  534SOL    HW3 2167   1.103   0.671   1.155
  534SOL    MW4 2168   1.086   0.756   1.146
  535SOL     OW 2169   0.872   0.872   1.245
  535SOL    HW2 2170   0.875   0.956   1.199
  535SOL    HW3 2171   0.786   0.836   1.225
  535SOL    MW4 2172   0.861   0.878   1.236
  536SOL     OW 2173   0.918   1.104   1.133
  536SOL    HW2 2174   0.988   1.168   1.149
  536SOL    HW3 2175   0.904   1.106   1.039
  536SOL    MW4 2176   0.925   1.112   1.123
  537SOL     OW 2177   1.123   1.274   1.223
  537SOL    HW2 2178   1.132   1.275   1.318
  537SOL    HW3 2179   1.206   1.239   1.191
  537SOL    MW4 2180   1.135   1.270   1.231
  538SOL     OW 2181   1.159   1.542   1.105
  538SOL    HW2 2182   1.137   1.450   1.121
  538SOL    HW3 2183   1.159   1.551   1.010
  538SOL    MW4 2184   1.156   1.531   1.095
  539SOL     OW 2185   0.888   1.605   1.206
  539SOL    HW2 2186   0.917   1.692   1.179
  539SOL    HW3 2187   0.965   1.549   1.198
  539SOL    MW4 2188   0.902   1.609   1.201
  540SOL     OW 2189   0.931   1.882   1.193
  540SOL    HW2 2190   1.009   1.925   1.228
  540SOL    HW3 2191   0.858   1.935   1.225
  540SOL    MW4 2192   0.932   1.895   1.202
  541SOL     OW 2193   1.169   2.083   1.222
  541SOL    HW2 2194   1.146   2.073   1.315
  541SOL    HW3 2195   1.144   2.173   1.201
  541SOL    MW4 2196   1.163   2.094   1.232
  542SOL     OW 2197   1.136   2.350   1.104
  542SOL    HW2 2198   1.225   2.372   1.132
  542SOL    HW3 2199   1.079   2.392   1.169
  542SOL    MW4 2200   1.140   2.359   1.116
  543SOL     OW 2201   0.929   2.445   1.268
  543SOL    HW2 2202   0.936   2.475   1.359
  543SOL    HW3 2203   0.850   2.391   1.267
  543SOL    MW4 2204   0.919   2.442   1.280
  544SOL     OW 2205   0.923   2.726   1.193
  544SOL    HW2 2206   0.916   2.632   1.209
  544SOL    HW3 2207   0.835   2.760   1.206
  544SOL    MW4 2208   0.911   2.718   1.197
  545SOL     OW 2209   1.154   2.871   1.252
  545SOL    HW2 2210   1.167   2.878   1.347
  545SOL    HW3 2211   1.072   2.822   1.242
  545SOL    MW4 2212   1.145   2.865   1.263
  546SOL     OW 2213   1.139   3.123   1.135
  546SOL    HW2 2214   1.161   3.040   1.177
  546SOL    HW3 2215   1.163   3.110   1.043
  546SOL    MW4 2216   1.145   3.111   1.128
  547SOL     OW 2217   0.887   3.267   1.263
  547SOL    HW2 2218   0.892   3.346   1.210
  547SOL    HW3 2219   0.965   3.217   1.240
  547SOL    MW4 2220   0.898   3.271   1.253
  548SOL     OW 2221   0.926   3.500   1.141
  548SOL    HW2 2222   0.853   3.549   1.178
  548SOL    HW3 2223   0.910   3.499   1.047
  548SOL    MW4 2224   0.914   3.506   1.133
  549SOL     OW 2225   1.144   3.614   1.257
  549SOL    HW2 2226   1.224   3.585   1.213
  549SOL    HW3 2227   1.073   3.571   1.209
  549SOL    MW4 2228   1.145   3.605   1.245
  550SOL     OW 2229   1.125   3.869   1.128
  550SOL    HW2 2230   1.042   3.909   1.153
  550SOL    HW3 2231   1.118   3.778   1.160
  550SOL    MW4 2232   1.113   3.862   1.135
  551SOL     OW 2233   0.881   3.982   1.226
  551SOL    HW2 2234   0.872   3.984   1.321
  551SOL    HW3 2235   0.811   3.925   1.196
  551SOL    MW4 2236   0.870   3.975   1.234
  552SOL     OW 2237   0.921   4.250   1.119
  552SOL    HW2 2238   0.904   4.158   1.141
  552SOL    HW3 2239   0.900   4.256   1.026
  552SOL    MW4 2240   0.916   4.239   1.110
  553SOL     OW 2241   1.152   4.391   1.206
  553SOL    HW2 2242   1.145   4.386   1.301
  553SOL    HW3 2243   1.081   4.336   1.174
  553SOL    MW4 2244   1.142   4.383   1.214
  554SOL     OW 2245   1.508   4.659   1.187
  554SOL    HW2 2246   1.595   4.698   1.190
  554SOL    HW3 2247   1.521   4.567   1.211
  554SOL    MW4 2248   1.521   4.652   1.191
  555SOL     OW 2249   1.279   0.130   1.258
  555SOL    HW2 2250   1.361   0.083   1.240
  555SOL    HW3 2251   1.211   0.074   1.221
  555SOL    MW4 2252   1.281   0.116   1.251
  556SOL     OW 2253   1.338   0.344   1.097
  556SOL    HW2 2254   1.319   0.263   1.144
  556SOL    HW3 2255   1.281   0.409   1.137
  556SOL    MW4 2256   1.328   0.342   1.108
  557SOL     OW 2257   1.578   0.454   1.201
  557SOL    HW2 2258   1.573   0.539   1.159
  557SOL    HW3 2259   1.517   0.399   1.152
  557SOL    MW4 2260   1.569   0.458   1.189
  558SOL     OW 2261   1.562   0.714   1.087
  558SOL    HW2 2262   1.631   0.772   1.120
  558SOL    HW3 2263   1.566   0.722   0.992
  558SOL    MW4 2264   1.572   0.722   1.079
  559SOL     OW 2265   1.339   0.872   1.196
  559SOL    HW2 2266   1.397   0.812   1.147
  559SOL    HW3 2267   1.253   0.831   1.191
  559SOL    MW4 2268   1.335   0.858   1.189
  560SOL     OW 2269   1.331   1.134   1.116
  560SOL    HW2 2270   1.338   1.046   1.155
  560SOL    HW3 2271   1.333   1.118   1.022
  560SOL    MW4 2272   1.332   1.120   1.109
  561SOL     OW 2273   1.534   1.293   1.218
  561SOL    HW2 2274   1.609   1.240   1.191
  561SOL    HW3 2275   1.457   1.247   1.185
  561SOL    MW4 2276   1.534   1.280   1.210
  562SOL     OW 2277   1.593   1.520   1.074
  562SOL    HW2 2278   1.669   1.552   1.123
  562SOL    HW3 2279   1.568   1.440   1.119
  562SOL    MW4 2280   1.600   1.514   1.086
  563SOL     OW 2281   1.386   1.646   1.203
  563SOL    HW2 2282   1.459   1.602   1.160
  563SOL    HW3 2283   1.308   1.603   1.168
  563SOL    MW4 2284   1.385   1.634   1.193
  564SOL     OW 2285   1.395   1.900   1.110
  564SOL    HW2 2286   1.391   1.811   1.146
  564SOL    HW3 2287   1.322   1.946   1.152
  564SOL    MW4 2288   1.385   1.894   1.120
  565SOL     OW 2289   1.617   2.042   1.239
  565SOL    HW2 2290   1.612   2.126   1.193
  565SOL    HW3 2291   1.548   1.989   1.199
  565SOL    MW4 2292   1.607   2.046   1.227
  566SOL     OW 2293   1.585   2.279   1.108
  566SOL    HW2 2294   1.506   2.316   1.147
  566SOL    HW3 2295   1.578   2.300   1.015
  566SOL    MW4 2296   1.574   2.287   1.101
  567SOL     OW 2297   1.382   2.434   1.212
  567SOL    HW2 2298   1.346   2.435   1.301
  567SOL    HW3 2299   1.392   2.526   1.189
  567SOL    MW4 2300   1.379   2.446   1.221
  568SOL     OW 2301   1.381   2.711   1.149
  568SOL    HW2 2302   1.466   2.742   1.179
  568SOL    HW3 2303   1.317   2.768   1.192
  568SOL    MW4 2304   1.383   2.722   1.159
  569SOL     OW 2305   1.624   2.826   1.200
  569SOL    HW2 2306   1.709   2.786   1.179
  569SOL    HW3 2307   1.632   2.916   1.169
  569SOL    MW4 2308   1.637   2.832   1.193
  570SOL     OW 2309   1.601   3.103   1.147
  570SOL    HW2 2310   1.680   3.149   1.174
  570SOL    HW3 2311   1.529   3.160   1.173
  570SOL    MW4 2312   1.602   3.116   1.154
  571SOL     OW 2313   1.371   3.257   1.203
  571SOL    HW2 2314   1.372   3.246   1.298
  571SOL    HW3 2315   1.288   3.217   1.175
  571SOL    MW4 2316   1.360   3.250   1.212
  572SOL     OW 2317   1.381   3.539   1.146
  572SOL    HW2 2318   1.385   3.445   1.162
  572SOL    HW3 2319   1.368   3.547   1.051
  572SOL    MW4 2320   1.380   3.528   1.136
  573SOL     OW 2321   1.628   3.619   1.238
  573SOL    HW2 2322   1.625   3.713   1.219
  573SOL    HW3 2323   1.539   3.588   1.218
  573SOL    MW4 2324   1.616   3.627   1.233
  574SOL     OW 2325   1.591   3.898   1.135
  574SOL    HW2 2326   1.516   3.934   1.181
  574SOL    HW3 2327   1.580   3.927   1.044
  574SOL    MW4 2328   1.580   3.906   1.129
  575SOL     OW 2329   1.354   3.980   1.242
  575SOL    HW2 2330   1.359   4.068   1.205
  575SOL    HW3 2331   1.273   3.943   1.206
  575SOL    MW4 2332   1.344   3.987   1.232
  576SOL     OW 2333   1.371   4.225   1.114
  576SOL    HW2 2334   1.305   4.294   1.122
  576SOL    HW3 2335   1.375   4.208   1.020
  576SOL    MW4 2336   1.363   4.232   1.102
  577SOL     OW 2337   1.584   4.383   1.217
  577SOL    HW2 2338   1.586   4.367   1.311
  577SOL    HW3 2339   1.512   4.330   1.185
  577SOL    MW4 2340   1.575   4.374   1.225
  578SOL     OW 2341   2.023   4.651   1.095
  578SOL    HW2 2342   2.042   4.559   1.110
  578SOL    HW3 2343   2.039   4.665   1.002
  578SOL    MW4 2344   2.028   4.641   1.085
  579SOL     OW 2345   1.767   0.089   1.184
  579SOL    HW2 2346   1.783   0.182   1.164
  579SOL    HW3 2347   1.835   0.043   1.135
  579SOL    MW4 2348   1.778   0.095   1.175
  580SOL     OW 2349   1.828   0.355   1.136
  580SOL    HW2 2350   1.746   0.391   1.169
  580SOL    HW3 2351   1.830   0.379   1.044
  580SOL    MW4 2352   1.818   0.363   1.128
  581SOL     OW 2353   2.048   0.514   1.194
  581SOL    HW2 2354   2.046   0.515   1.290
  581SOL    HW3 2355   1.971   0.462   1.170
  581SOL    MW4 2356   2.037   0.507   1.204
  582SOL     OW 2357   2.005   0.773   1.093
  582SOL    HW2 2358   2.020   0.684   1.125
  582SOL    HW3 2359   2.016   0.767   0.998
  582SOL    MW4 2360   2.009   0.760   1.084
  583SOL     OW 2361   1.765   0.884   1.185
  583SOL    HW2 2362   1.760   0.884   1.280
  583SOL    HW3 2363   1.848   0.841   1.165
  583SOL    MW4 2364   1.775   0.879   1.195
  584SOL     OW 2365   1.750   1.148   1.094
  584SOL    HW2 2366   1.756   1.055   1.118
  584SOL    HW3 2367   1.765   1.149   0.999
  584SOL    MW4 2368   1.753   1.136   1.085
  585SOL     OW 2369   1.968   1.282   1.205
  585SOL    HW2 2370   2.050   1.250   1.170
  585SOL    HW3 2371   1.900   1.235   1.156
  585SOL    MW4 2372   1.970   1.272   1.194
  586SOL     OW 2373   2.026   1.527   1.088
  586SOL    HW2 2374   1.993   1.446   1.126
  586SOL    HW3 2375   2.033   1.508   0.994
  586SOL    MW4 2376   2.023   1.514   1.080
  587SOL     OW 2377   1.800   1.666   1.181
  587SOL    HW2 2378   1.797   1.753   1.140
  587SOL    HW3 2379   1.879   1.625   1.146
  587SOL    MW4 2380   1.810   1.672   1.171
  588SOL     OW 2381   1.811   1.923   1.077
  588SOL    HW2 2382   1.737   1.960   1.125
  588SOL    HW3 2383   1.781   1.919   0.986
  588SOL    MW4 2384   1.797   1.927   1.071
  589SOL     OW 2385   2.039   2.057   1.163
  589SOL    HW2 2386   2.042   2.061   1.259
  589SOL    HW3 2387   1.959   2.008   1.143
  589SOL    MW4 2388   2.029   2.051   1.173
  590SOL     OW 2389   2.014   2.335   1.120
  590SOL    HW2 2390   2.095   2.380   1.143
  590SOL    HW3 2391   2.032   2.242   1.135
  590SOL    MW4 2392   2.027   2.328   1.125
  591SOL     OW 2393   1.784   2.447   1.210
  591SOL    HW2 2394   1.862   2.400   1.178
  591SOL    HW3 2395   1.711   2.395   1.178
  591SOL    MW4 2396   1.785   2.434   1.202
  592SOL     OW 2397   1.862   2.699   1.141
  592SOL    HW2 2398   1.829   2.617   1.176
  592SOL    HW3 2399   1.858   2.688   1.046
  592SOL    MW4 2400   1.857   2.687   1.133
  593SOL     OW 2401   2.078   2.841   1.236
  593SOL    HW2 2402   2.066   2.917   1.179
  593SOL    HW3 2403   2.000   2.788   1.221
  593SOL    MW4 2404   2.066   2.844   1.227
  594SOL     OW 2405   2.045   3.077   1.103
  594SOL    HW2 2406   1.972   3.130   1.134
  594SOL    HW3 2407   2.049   3.093   1.009
  594SOL    MW4 2408   2.036   3.086   1.095
  595SOL     OW 2409   1.848   3.246   1.176
  595SOL    HW2 2410   1.824   3.253   1.268
  595SOL    HW3 2411   1.854   3.337   1.146
  595SOL    MW4 2412   1.845   3.259   1.184
  596SOL     OW 2413   1.847   3.522   1.090
  596SOL    HW2 2414   1.916   3.567   1.139
  596SOL    HW3 2415   1.766   3.547   1.134
  596SOL    MW4 2416   1.846   3.532   1.102
  597SOL     OW 2417   2.044   3.648   1.222
  597SOL    HW2 2418   2.038   3.627   1.315
  597SOL    HW3 2419   2.134   3.627   1.198
  597SOL    MW4 2420   2.055   3.643   1.231
  598SOL     OW 2421   2.031   3.916   1.176
  598SOL    HW2 2422   1.946   3.958   1.186
  598SOL    HW3 2423   2.016   3.826   1.203
  598SOL    MW4 2424   2.018   3.910   1.181
  599SOL     OW 2425   1.801   4.045   1.192
  599SOL    HW2 2426   1.804   4.049   1.288
  599SOL    HW3 2427   1.720   3.998   1.173
  599SOL    MW4 2428   1.791   4.039   1.202
  600SOL     OW 2429   1.816   4.291   1.086
  600SOL    HW2 2430   1.804   4.203   1.122
  600SOL    HW3 2431   1.738   4.339   1.114
  600SOL    MW4 2432   1.805   4.285   1.095
  601SOL     OW 2433   2.069   4.377   1.151
  601SOL    HW2 2434   2.070   4.384   1.247
  601SOL    HW3 2435   1.986   4.334   1.131
  601SOL    MW4 2436   2.058   4.372   1.161
  602SOL     OW 2437   2.437   0.027   1.077
  602SOL    HW2 2438   2.516   0.063   1.118
  602SOL    HW3 2439   2.365   0.063   1.127
  602SOL    MW4 2440   2.438   0.036   1.089
  603SOL     OW 2441   2.233   0.129   1.233
  603SOL    HW2 2442   2.251   0.218   1.204
  603SOL    HW3 2443   2.153   0.104   1.187
  603SOL    MW4 2444   2.225   0.138   1.223
  604SOL     OW 2445   2.248   0.360   1.087
  604SOL    HW2 2446   2.171   0.406   1.121
  604SOL    HW3 2447   2.235   0.361   0.992
  604SOL    MW4 2448   2.236   0.366   1.079
  605SOL     OW 2449   2.471   0.518   1.145
  605SOL    HW2 2450   2.464   0.507   1.240
  605SOL    HW3 2451   2.391   0.479   1.111
  605SOL    MW4 2452   2.460   0.512   1.153
  606SOL     OW 2453   2.437   0.801   1.118
  606SOL    HW2 2454   2.442   0.707   1.133
  606SOL    HW3 2455   2.477   0.814   1.032
  606SOL    MW4 2456   2.443   0.790   1.108
  607SOL     OW 2457   2.224   0.913   1.237
  607SOL    HW2 2458   2.299   0.877   1.190
  607SOL    HW3 2459   2.147   0.872   1.196
  607SOL    MW4 2460   2.223   0.903   1.226
  608SOL     OW 2461   2.213   1.167   1.123
  608SOL    HW2 2462   2.281   1.216   1.168
  608SOL    HW3 2463   2.207   1.083   1.169
  608SOL    MW4 2464   2.221   1.162   1.135
  609SOL     OW 2465   2.441   1.304   1.241
  609SOL    HW2 2466   2.517   1.257   1.208
  609SOL    HW3 2467   2.449   1.392   1.205
  609SOL    MW4 2468   2.452   1.310   1.232
  610SOL     OW 2469   2.483   1.546   1.119
  610SOL    HW2 2470   2.417   1.596   1.169
  610SOL    HW3 2471   2.461   1.563   1.028
  610SOL    MW4 2472   2.471   1.555   1.114
  611SOL     OW 2473   2.252   1.638   1.243
  611SOL    HW2 2474   2.233   1.725   1.208
  611SOL    HW3 2475   2.193   1.580   1.196
  611SOL    MW4 2476   2.241   1.642   1.232
  612SOL     OW 2477   2.264   1.888   1.098
  612SOL    HW2 2478   2.182   1.936   1.110
  612SOL    HW3 2479   2.266   1.867   1.004
  612SOL    MW4 2480   2.254   1.892   1.087
  613SOL     OW 2481   2.477   2.042   1.198
  613SOL    HW2 2482   2.550   1.980   1.192
  613SOL    HW3 2483   2.403   1.996   1.160
  613SOL    MW4 2484   2.477   2.028   1.192
  614SOL     OW 2485   2.450   2.289   1.092
  614SOL    HW2 2486   2.473   2.202   1.124
  614SOL    HW3 2487   2.421   2.275   1.002
  614SOL    MW4 2488   2.449   2.276   1.084
  615SOL     OW 2489   2.250   2.466   1.167
  615SOL    HW2 2490   2.238   2.452   1.261
  615SOL    HW3 2491   2.320   2.406   1.142
  615SOL    MW4 2492   2.258   2.456   1.176
  616SOL     OW 2493   2.296   2.731   1.076
  616SOL    HW2 2494   2.290   2.636   1.088
  616SOL    HW3 2495   2.228   2.767   1.133
  616SOL    MW4 2496   2.287   2.723   1.085
  617SOL     OW 2497   2.524   2.855   1.200
  617SOL    HW2 2498   2.505   2.863   1.293
  617SOL    HW3 2499   2.455   2.799   1.165
  617SOL    MW4 2500   2.513   2.849   1.207
  618SOL     OW 2501   2.491   3.108   1.106
  618SOL    HW2 2502   2.425   3.138   1.168
  618SOL    HW3 2503   2.513   3.019   1.136
  618SOL    MW4 2504   2.485   3.100   1.118
  619SOL     OW 2505   2.259   3.225   1.206
  619SOL    HW2 2506   2.250   3.313   1.170
  619SOL    HW3 2507   2.181   3.178   1.175
  619SOL    MW4 2508   2.248   3.230   1.197
  620SOL     OW 2509   2.272   3.493   1.127
  620SOL    HW2 2510   2.356   3.534   1.145
  620SOL    HW3 2511   2.259   3.504   1.033
  620SOL    MW4 2512   2.281   3.500   1.117
  621SOL     OW 2513   2.496   3.649   1.172
  621SOL    HW2 2514   2.492   3.655   1.267
  621SOL    HW3 2515   2.474   3.737   1.141
  621SOL    MW4 2516   2.493   3.661   1.180
  622SOL     OW 2517   2.468   3.910   1.059
  622SOL    HW2 2518   2.402   3.936   1.123
  622SOL    HW3 2519   2.425   3.917   0.975
  622SOL    MW4 2520   2.454   3.914   1.057
  623SOL     OW 2521   2.287   3.998   1.226
  623SOL    HW2 2522   2.277   4.074   1.170
  623SOL    HW3 2523   2.203   3.953   1.221
  623SOL    MW4 2524   2.275   4.002   1.218
  624SOL     OW 2525   2.295   4.230   1.078
  624SOL    HW2 2526   2.213   4.276   1.097
  624SOL    HW3 2527   2.295   4.220   0.983
  624SOL    MW4 2528   2.284   4.235   1.068
  625SOL     OW 2529   2.466   4.425   1.187
  625SOL    HW2 2530   2.412   4.359   1.143
  625SOL    HW3 2531   2.433   4.509   1.155
  625SOL    MW4 2532   2.455   4.427   1.177
  626SOL     OW 2533   2.903   0.023   1.135
  626SOL    HW2 2534   2.903  -0.064   1.175
  626SOL    HW3 2535   2.897   0.006   1.041
  626SOL    MW4 2536   2.902   0.009   1.128
  627SOL     OW 2537   2.652   0.119   1.217
  627SOL    HW2 2538   2.651   0.100   1.311
  627SOL    HW3 2539   2.732   0.076   1.185
  627SOL    MW4 2540   2.662   0.111   1.225
  628SOL     OW 2541   2.709   0.359   1.074
  628SOL    HW2 2542   2.693   0.273   1.114
  628SOL    HW3 2543   2.627   0.407   1.086
  628SOL    MW4 2544   2.696   0.354   1.081
  629SOL     OW 2545   2.929   0.483   1.210
  629SOL    HW2 2546   2.919   0.576   1.193
  629SOL    HW3 2547   2.857   0.442   1.163
  629SOL    MW4 2548   2.918   0.490   1.202
  630SOL     OW 2549   2.901   0.746   1.145
  630SOL    HW2 2550   2.971   0.811   1.148
  630SOL    HW3 2551   2.829   0.786   1.193
  630SOL    MW4 2552   2.901   0.760   1.152
  631SOL     OW 2553   2.671   0.905   1.240
  631SOL    HW2 2554   2.661   0.992   1.202
  631SOL    HW3 2555   2.599   0.854   1.204
  631SOL    MW4 2556   2.660   0.910   1.231
  632SOL     OW 2557   2.660   1.159   1.138
  632SOL    HW2 2558   2.745   1.182   1.174
  632SOL    HW3 2559   2.674   1.152   1.044
  632SOL    MW4 2560   2.673   1.161   1.130
  633SOL     OW 2561   2.919   1.240   1.230
  633SOL    HW2 2562   2.908   1.225   1.324
  633SOL    HW3 2563   2.919   1.335   1.220
  633SOL    MW4 2564   2.918   1.250   1.241
  634SOL     OW 2565   2.905   1.513   1.107
  634SOL    HW2 2566   2.980   1.568   1.131
  634SOL    HW3 2567   2.910   1.506   1.012
  634SOL    MW4 2568   2.915   1.520   1.098
  635SOL     OW 2569   2.709   1.653   1.241
  635SOL    HW2 2570   2.786   1.615   1.199
  635SOL    HW3 2571   2.635   1.611   1.198
  635SOL    MW4 2572   2.709   1.642   1.229
  636SOL     OW 2573   2.706   1.899   1.116
  636SOL    HW2 2574   2.778   1.951   1.151
  636SOL    HW3 2575   2.730   1.809   1.138
  636SOL    MW4 2576   2.719   1.894   1.124
  637SOL     OW 2577   2.927   2.041   1.167
  637SOL    HW2 2578   2.937   2.056   1.261
  637SOL    HW3 2579   2.917   2.129   1.130
  637SOL    MW4 2580   2.927   2.055   1.174
  638SOL     OW 2581   2.911   2.323   1.127
  638SOL    HW2 2582   2.983   2.368   1.173
  638SOL    HW3 2583   2.832   2.349   1.174
  638SOL    MW4 2584   2.910   2.332   1.140
  639SOL     OW 2585   2.670   2.406   1.215
  639SOL    HW2 2586   2.640   2.404   1.305
  639SOL    HW3 2587   2.604   2.358   1.166
  639SOL    MW4 2588   2.658   2.399   1.220
  640SOL     OW 2589   2.741   2.660   1.131
  640SOL    HW2 2590   2.729   2.577   1.177
  640SOL    HW3 2591   2.663   2.711   1.153
  640SOL    MW4 2592   2.729   2.656   1.140
  641SOL     OW 2593   2.925   2.821   1.248
  641SOL    HW2 2594   2.914   2.816   1.343
  641SOL    HW3 2595   2.851   2.772   1.212
  641SOL    MW4 2596   2.914   2.814   1.256
  642SOL     OW 2597   2.926   3.100   1.154
  642SOL    HW2 2598   2.920   3.014   1.196
  642SOL    HW3 2599   2.902   3.083   1.063
  642SOL    MW4 2600   2.922   3.086   1.148
  643SOL     OW 2601   2.696   3.233   1.243
  643SOL    HW2 2602   2.783   3.203   1.217
  643SOL    HW3 2603   2.636   3.176   1.195
  643SOL    MW4 2604   2.699   3.222   1.233
  644SOL     OW 2605   2.721   3.488   1.122
  644SOL    HW2 2606   2.695   3.409   1.169
  644SOL    HW3 2607   2.646   3.548   1.133
  644SOL    MW4 2608   2.708   3.486   1.130
  645SOL     OW 2609   2.911   3.660   1.222
  645SOL    HW2 2610   2.997   3.630   1.193
  645SOL    HW3 2611   2.849   3.598   1.183
  645SOL    MW4 2612   2.914   3.648   1.213
  646SOL     OW 2613   2.916   3.917   1.134
  646SOL    HW2 2614   2.992   3.954   1.178
  646SOL    HW3 2615   2.899   3.835   1.180
  646SOL    MW4 2616   2.924   3.911   1.146
  647SOL     OW 2617   2.673   4.032   1.200
  647SOL    HW2 2618   2.753   3.992   1.165
  647SOL    HW3 2619   2.602   3.985   1.156
  647SOL    MW4 2620   2.674   4.020   1.189
  648SOL     OW 2621   2.684   4.286   1.097
  648SOL    HW2 2622   2.673   4.195   1.127
  648SOL    HW3 2623   2.613   4.334   1.140
  648SOL    MW4 2624   2.673   4.280   1.107
  649SOL     OW 2625   2.915   4.422   1.241
  649SOL    HW2 2626   2.995   4.387   1.201
  649SOL    HW3 2627   2.845   4.365   1.209
  649SOL    MW4 2628   2.916   4.410   1.231
  650SOL     OW 2629   3.381   0.002   1.127
  650SOL    HW2 2630   3.459   0.050   1.158
  650SOL    HW3 2631   3.308   0.051   1.165
  650SOL    MW4 2632   3.382   0.015   1.136
  651SOL     OW 2633   3.152   0.135   1.224
  651SOL    HW2 2634   3.140   0.119   1.317
  651SOL    HW3 2635   3.076   0.095   1.182
  651SOL    MW4 2636   3.141   0.128   1.230
  652SOL     OW 2637   3.141   0.379   1.076
  652SOL    HW2 2638   3.160   0.297   1.121
  652SOL    HW3 2639   3.070   0.419   1.127
  652SOL    MW4 2640   3.134   0.374   1.088
  653SOL     OW 2641   3.351   0.509   1.201
  653SOL    HW2 2642   3.339   0.598   1.168
  653SOL    HW3 2643   3.280   0.459   1.163
  653SOL    MW4 2644   3.340   0.514   1.192
  654SOL     OW 2645   3.327   0.743   1.060
  654SOL    HW2 2646   3.269   0.806   1.102
  654SOL    HW3 2647   3.296   0.738   0.970
  654SOL    MW4 2648   3.315   0.751   1.054
  655SOL     OW 2649   3.130   0.908   1.181
  655SOL    HW2 2650   3.153   0.901   1.274
  655SOL    HW3 2651   3.134   1.002   1.162
  655SOL    MW4 2652   3.134   0.920   1.191
  656SOL     OW 2653   3.159   1.179   1.098
  656SOL    HW2 2654   3.234   1.219   1.142
  656SOL    HW3 2655   3.083   1.225   1.133
  656SOL    MW4 2656   3.159   1.190   1.108
  657SOL     OW 2657   3.376   1.277   1.230
  657SOL    HW2 2658   3.397   1.286   1.323
  657SOL    HW3 2659   3.372   1.366   1.198
  657SOL    MW4 2660   3.378   1.290   1.238
  658SOL     OW 2661   3.361   1.549   1.136
  658SOL    HW2 2662   3.432   1.593   1.182
  658SOL    HW3 2663   3.282   1.578   1.181
  658SOL    MW4 2664   3.360   1.558   1.148
  659SOL     OW 2665   3.116   1.641   1.217
  659SOL    HW2 2666   3.107   1.638   1.312
  659SOL    HW3 2667   3.120   1.735   1.196
  659SOL    MW4 2668   3.115   1.653   1.227
  660SOL     OW 2669   3.171   1.906   1.103
  660SOL    HW2 2670   3.236   1.958   1.151
  660SOL    HW3 2671   3.087   1.947   1.126
  660SOL    MW4 2672   3.169   1.919   1.113
  661SOL     OW 2673   3.395   2.026   1.249
  661SOL    HW2 2674   3.470   1.987   1.202
  661SOL    HW3 2675   3.373   2.104   1.198
  661SOL    MW4 2676   3.402   2.031   1.236
  662SOL     OW 2677   3.361   2.263   1.104
  662SOL    HW2 2678   3.435   2.316   1.132
  662SOL    HW3 2679   3.284   2.315   1.127
  662SOL    MW4 2680   3.361   2.277   1.111
  663SOL     OW 2681   3.157   2.406   1.258
  663SOL    HW2 2682   3.166   2.422   1.352
  663SOL    HW3 2683   3.156   2.494   1.219
  663SOL    MW4 2684   3.158   2.420   1.266
  664SOL     OW 2685   3.146   2.682   1.147
  664SOL    HW2 2686   3.066   2.721   1.182
  664SOL    HW3 2687   3.137   2.688   1.052
  664SOL    MW4 2688   3.134   2.688   1.140
  665SOL     OW 2689   3.363   2.870   1.212
  665SOL    HW2 2690   3.357   2.958   1.176
  665SOL    HW3 2691   3.288   2.824   1.176
  665SOL    MW4 2692   3.352   2.876   1.203
  666SOL     OW 2693   3.336   3.128   1.113
  666SOL    HW2 2694   3.416   3.149   1.162
  666SOL    HW3 2695   3.266   3.168   1.164
  666SOL    MW4 2696   3.338   3.136   1.126
  667SOL     OW 2697   3.127   3.271   1.253
  667SOL    HW2 2698   3.145   3.358   1.219
  667SOL    HW3 2699   3.052   3.240   1.203
  667SOL    MW4 2700   3.120   3.278   1.242
  668SOL     OW 2701   3.153   3.533   1.144
  668SOL    HW2 2702   3.229   3.587   1.164
  668SOL    HW3 2703   3.167   3.505   1.053
  668SOL    MW4 2704   3.165   3.536   1.134
  669SOL     OW 2705   3.386   3.667   1.235
  669SOL    HW2 2706   3.363   3.640   1.324
  669SOL    HW3 2707   3.452   3.604   1.207
  669SOL    MW4 2708   3.391   3.655   1.243
  670SOL     OW 2709   3.404   3.922   1.097
  670SOL    HW2 2710   3.327   3.970   1.128
  670SOL    HW3 2711   3.391   3.833   1.131
  670SOL    MW4 2712   3.392   3.916   1.106
  671SOL     OW 2713   3.159   4.040   1.214
  671SOL    HW2 2714   3.150   4.030   1.308
  671SOL    HW3 2715   3.145   4.133   1.197
  671SOL    MW4 2716   3.156   4.051   1.224
  672SOL     OW 2717   3.152   4.311   1.140
  672SOL    HW2 2718   3.238   4.340   1.170
  672SOL    HW3 2719   3.161   4.301   1.045
  672SOL    MW4 2720   3.164   4.314   1.131
  673SOL     OW 2721   3.395   4.417   1.233
  673SOL    HW2 2722   3.469   4.378   1.186
  673SOL    HW3 2723   3.381   4.501   1.189
  673SOL    MW4 2724   3.403   4.423   1.221
  674SOL     OW 2725   3.816   0.012   1.134
  674SOL    HW2 2726   3.822  -0.077   1.170
  674SOL    HW3 2727   3.804  -0.001   1.040
  674SOL    MW4 2728   3.816  -0.001   1.127
  675SOL     OW 2729   3.608   0.163   1.211
  675SOL    HW2 2730   3.628   0.255   1.192
  675SOL    HW3 2731   3.684   0.115   1.179
  675SOL    MW4 2732   3.621   0.169   1.204
  676SOL     OW 2733   3.606   0.422   1.113
  676SOL    HW2 2734   3.660   0.493   1.148
  676SOL    HW3 2735   3.518   0.439   1.147
  676SOL    MW4 2736   3.602   0.434   1.122
  677SOL     OW 2737   3.789   0.568   1.239
  677SOL    HW2 2738   3.855   0.515   1.194
  677SOL    HW3 2739   3.819   0.658   1.226
  677SOL    MW4 2740   3.802   0.573   1.231
  678SOL     OW 2741   3.832   0.814   1.125
  678SOL    HW2 2742   3.909   0.851   1.169
  678SOL    HW3 2743   3.757   0.854   1.169
  678SOL    MW4 2744   3.833   0.824   1.136
  679SOL     OW 2745   3.540   0.845   1.201
  679SOL    HW2 2746   3.552   0.938   1.183
  679SOL    HW3 2747   3.491   0.812   1.126
  679SOL    MW4 2748   3.535   0.853   1.189
  680SOL     OW 2749   3.580   1.116   1.165
  680SOL    HW2 2750   3.649   1.162   1.213
  680SOL    HW3 2751   3.500   1.163   1.187
  680SOL    MW4 2752   3.579   1.129   1.174
  681SOL     OW 2753   3.794   1.234   1.267
  681SOL    HW2 2754   3.816   1.251   1.358
  681SOL    HW3 2755   3.775   1.321   1.230
  681SOL    MW4 2756   3.795   1.248   1.274
  682SOL     OW 2757   3.788   1.515   1.146
  682SOL    HW2 2758   3.870   1.554   1.175
  682SOL    HW3 2759   3.781   1.539   1.054
  682SOL    MW4 2760   3.798   1.523   1.138
  683SOL     OW 2761   3.591   1.678   1.225
  683SOL    HW2 2762   3.596   1.762   1.179
  683SOL    HW3 2763   3.669   1.631   1.199
  683SOL    MW4 2764   3.602   1.683   1.216
  684SOL     OW 2765   3.604   1.921   1.076
  684SOL    HW2 2766   3.678   1.975   1.104
  684SOL    HW3 2767   3.591   1.943   0.984
  684SOL    MW4 2768   3.612   1.931   1.068
  685SOL     OW 2769   3.832   2.047   1.153
  685SOL    HW2 2770   3.831   2.050   1.248
  685SOL    HW3 2771   3.902   1.986   1.131
  685SOL    MW4 2772   3.841   2.039   1.162
  686SOL     OW 2773   3.802   2.309   1.072
  686SOL    HW2 2774   3.868   2.360   1.120
  686SOL    HW3 2775   3.815   2.219   1.101
  686SOL    MW4 2776   3.813   2.304   1.082
  687SOL     OW 2777   3.574   2.419   1.199
  687SOL    HW2 2778   3.588   2.403   1.292
  687SOL    HW3 2779   3.653   2.385   1.157
  687SOL    MW4 2780   3.586   2.412   1.206
  688SOL     OW 2781   3.552   2.691   1.141
  688SOL    HW2 2782   3.530   2.608   1.183
  688SOL    HW3 2783   3.483   2.751   1.170
  688SOL    MW4 2784   3.540   2.688   1.150
  689SOL     OW 2785   3.800   2.803   1.223
  689SOL    HW2 2786   3.800   2.805   1.318
  689SOL    HW3 2787   3.720   2.756   1.200
  689SOL    MW4 2788   3.790   2.797   1.232
  690SOL     OW 2789   3.784   3.089   1.143
  690SOL    HW2 2790   3.769   3.002   1.181
  690SOL    HW3 2791   3.747   3.083   1.055
  690SOL    MW4 2792   3.777   3.076   1.137
  691SOL     OW 2793   3.556   3.225   1.264
  691SOL    HW2 2794   3.567   3.313   1.229
  691SOL    HW3 2795   3.635   3.178   1.237
  691SOL    MW4 2796   3.568   3.230   1.256
  692SOL     OW 2797   3.581   3.473   1.154
  692SOL    HW2 2798   3.662   3.515   1.185
  692SOL    HW3 2799   3.587   3.478   1.059
  692SOL    MW4 2800   3.593   3.479   1.146
  693SOL     OW 2801   3.807   3.635   1.219
  693SOL    HW2 2802   3.805   3.645   1.314
  693SOL    HW3 2803   3.830   3.722   1.186
  693SOL    MW4 2804   3.810   3.648   1.227
  694SOL     OW 2805   3.811   3.881   1.083
  694SOL    HW2 2806   3.752   3.940   1.130
  694SOL    HW3 2807   3.768   3.868   0.998
  694SOL    MW4 2808   3.797   3.887   1.078
  695SOL     OW 2809   3.631   4.046   1.213
  695SOL    HW2 2810   3.622   4.042   1.308
  695SOL    HW3 2811   3.546   4.015   1.180
  695SOL    MW4 2812   3.618   4.041   1.221
  696SOL     OW 2813   3.592   4.288   1.092
  696SOL    HW2 2814   3.600   4.209   1.144
  696SOL    HW3 2815   3.599   4.258   1.001
  696SOL    MW4 2816   3.594   4.274   1.087
  697SOL     OW 2817   3.817   4.430   1.236
  697SOL    HW2 2818   3.835   4.427   1.330
  697SOL    HW3 2819   3.723   4.412   1.229
  697SOL    MW4 2820   3.807   4.428   1.248
  698SOL     OW 2821   4.271   0.001   1.084
  698SOL    HW2 2822   4.251  -0.085   1.122
  698SOL    HW3 2823   4.210   0.061   1.126
  698SOL    MW4 2824   4.260  -0.003   1.094
  699SOL     OW 2825   4.066   0.147   1.200
  699SOL    HW2 2826   4.068   0.163   1.295
  699SOL    HW3 2827   3.992   0.087   1.188
  699SOL    MW4 2828   4.056   0.141   1.211
  700SOL     OW 2829   3.983   0.400   1.131
  700SOL    HW2 2830   3.997   0.307   1.147
  700SOL    HW3 2831   3.990   0.408   1.035
  700SOL    MW4 2832   3.985   0.389   1.120
  701SOL     OW 2833   4.244   0.503   1.220
  701SOL    HW2 2834   4.239   0.494   1.315
  701SOL    HW3 2835   4.162   0.464   1.189
  701SOL    MW4 2836   4.232   0.497   1.229
  702SOL     OW 2837   4.250   0.758   1.148
  702SOL    HW2 2838   4.237   0.665   1.169
  702SOL    HW3 2839   4.244   0.762   1.053
  702SOL    MW4 2840   4.247   0.746   1.138
  703SOL     OW 2841   4.066   0.913   1.275
  703SOL    HW2 2842   4.060   0.881   1.365
  703SOL    HW3 2843   4.127   0.854   1.232
  703SOL    MW4 2844   4.073   0.901   1.282
  704SOL     OW 2845   4.047   1.173   1.170
  704SOL    HW2 2846   4.058   1.083   1.203
  704SOL    HW3 2847   3.958   1.197   1.196
  704SOL    MW4 2848   4.037   1.164   1.178
  705SOL     OW 2849   4.300   1.236   1.259
  705SOL    HW2 2850   4.314   1.248   1.353
  705SOL    HW3 2851   4.206   1.222   1.250
  705SOL    MW4 2852   4.290   1.235   1.270
  706SOL     OW 2853   4.261   1.478   1.079
  706SOL    HW2 2854   4.273   1.401   1.135
  706SOL    HW3 2855   4.334   1.536   1.102
  706SOL    MW4 2856   4.272   1.476   1.090
  707SOL     OW 2857   4.037   1.621   1.218
  707SOL    HW2 2858   4.052   1.622   1.313
  707SOL    HW3 2859   4.109   1.568   1.184
  707SOL    MW4 2860   4.048   1.614   1.226
  708SOL     OW 2861   4.034   1.875   1.091
  708SOL    HW2 2862   4.029   1.791   1.138
  708SOL    HW3 2863   4.014   1.853   1.000
  708SOL    MW4 2864   4.031   1.861   1.086
  709SOL     OW 2865   4.248   2.033   1.187
  709SOL    HW2 2866   4.247   2.123   1.157
  709SOL    HW3 2867   4.180   1.989   1.135
  709SOL    MW4 2868   4.238   2.039   1.177
  710SOL     OW 2869   4.258   2.312   1.076
  710SOL    HW2 2870   4.179   2.350   1.115
  710SOL    HW3 2871   4.246   2.324   0.982
  710SOL    MW4 2872   4.246   2.319   1.068
  711SOL     OW 2873   4.017   2.412   1.205
  711SOL    HW2 2874   4.029   2.420   1.300
  711SOL    HW3 2875   4.021   2.502   1.172
  711SOL    MW4 2876   4.019   2.425   1.213
  712SOL     OW 2877   4.024   2.686   1.128
  712SOL    HW2 2878   3.951   2.735   1.166
  712SOL    HW3 2879   4.016   2.699   1.034
  712SOL    MW4 2880   4.013   2.694   1.121
  713SOL     OW 2881   4.277   2.816   1.223
  713SOL    HW2 2882   4.281   2.904   1.186
  713SOL    HW3 2883   4.198   2.778   1.186
  713SOL    MW4 2884   4.267   2.823   1.213
  714SOL     OW 2885   4.264   3.077   1.114
  714SOL    HW2 2886   4.188   3.131   1.133
  714SOL    HW3 2887   4.280   3.090   1.020
  714SOL    MW4 2888   4.256   3.086   1.104
  715SOL     OW 2889   4.037   3.239   1.222
  715SOL    HW2 2890   4.030   3.248   1.317
  715SOL    HW3 2891   3.957   3.193   1.197
  715SOL    MW4 2892   4.026   3.234   1.231
  716SOL     OW 2893   4.054   3.520   1.119
  716SOL    HW2 2894   4.071   3.429   1.143
  716SOL    HW3 2895   3.970   3.541   1.161
  716SOL    MW4 2896   4.045   3.511   1.128
  717SOL     OW 2897   4.290   3.632   1.244
  717SOL    HW2 2898   4.212   3.591   1.206
  717SOL    HW3 2899   4.362   3.577   1.213
  717SOL    MW4 2900   4.289   3.619   1.235
  718SOL     OW 2901   4.252   3.889   1.144
  718SOL    HW2 2902   4.176   3.920   1.193
  718SOL    HW3 2903   4.269   3.801   1.177
  718SOL    MW4 2904   4.244   3.882   1.155
  719SOL     OW 2905   4.000   4.013   1.226
  719SOL    HW2 2906   4.006   4.099   1.185
  719SOL    HW3 2907   3.934   3.967   1.176
  719SOL    MW4 2908   3.992   4.018   1.214
  720SOL     OW 2909   4.039   4.279   1.134
  720SOL    HW2 2910   3.960   4.329   1.154
  720SOL    HW3 2911   4.034   4.263   1.040
  720SOL    MW4 2912   4.028   4.284   1.124
  721SOL     OW 2913   4.234   4.431   1.245
  721SOL    HW2 2914   4.168   4.370   1.213
  721SOL    HW3 2915   4.317   4.391   1.219
  721SOL    MW4 2916   4.236   4.417   1.238
  722SOL     OW 2917   0.240   4.602   1.633
  722SOL    HW2 2918   0.310   4.640   1.579
  722SOL    HW3 2919   0.161   4.650   1.608
  722SOL    MW4 2920   0.239   4.614   1.623
  723SOL     OW 2921   0.010   0.054   1.525
  723SOL    HW2 2922  -0.081   0.045   1.552
  723SOL    HW3 2923   0.008   0.042   1.430
  723SOL    MW4 2924  -0.002   0.051   1.516
  724SOL     OW 2925   4.470   0.311   1.586
  724SOL    HW2 2926   4.470   0.301   1.681
  724SOL    HW3 2927   4.490   0.224   1.552
  724SOL    MW4 2928   4.473   0.298   1.594
  725SOL     OW 2929   0.187   0.484   1.496
  725SOL    HW2 2930   0.107   0.434   1.513
  725SOL    HW3 2931   0.197   0.482   1.400
  725SOL    MW4 2932   0.178   0.477   1.485
  726SOL     OW 2933   0.235   0.744   1.611
  726SOL    HW2 2934   0.318   0.768   1.570
  726SOL    HW3 2935   0.211   0.660   1.571
  726SOL    MW4 2936   0.242   0.736   1.601
  727SOL     OW 2937   4.491   0.859   1.516
  727SOL    HW2 2938   4.486   0.950   1.545
  727SOL    HW3 2939   4.577   0.829   1.546
  727SOL    MW4 2940   4.502   0.867   1.524
  728SOL     OW 2941   0.044   1.129   1.608
  728SOL    HW2 2942   0.034   1.125   1.703
  728SOL    HW3 2943   0.121   1.184   1.594
  728SOL    MW4 2944   0.053   1.136   1.619
  729SOL     OW 2945   0.239   1.268   1.463
  729SOL    HW2 2946   0.261   1.359   1.484
  729SOL    HW3 2947   0.239   1.265   1.367
  729SOL    MW4 2948   0.242   1.280   1.453
  730SOL     OW 2949   0.234   1.531   1.567
  730SOL    HW2 2950   0.225   1.534   1.663
  730SOL    HW3 2951   0.149   1.562   1.535
  730SOL    MW4 2952   0.221   1.536   1.576
  731SOL     OW 2953   4.470   1.644   1.461
  731SOL    HW2 2954   4.468   1.736   1.486
  731SOL    HW3 2955   4.453   1.644   1.367
  731SOL    MW4 2956   4.468   1.656   1.452
  732SOL     OW 2957   0.006   1.906   1.588
  732SOL    HW2 2958   0.017   1.938   1.678
  732SOL    HW3 2959  -0.080   1.940   1.561
  732SOL    MW4 2960  -0.004   1.915   1.596
  733SOL     OW 2961   0.221   2.049   1.505
  733SOL    HW2 2962   0.141   2.001   1.525
  733SOL    HW3 2963   0.214   2.071   1.412
  733SOL    MW4 2964   0.210   2.046   1.496
  734SOL     OW 2965   0.195   2.321   1.595
  734SOL    HW2 2966   0.191   2.347   1.687
  734SOL    HW3 2967   0.206   2.226   1.596
  734SOL    MW4 2968   0.196   2.312   1.607
  735SOL     OW 2969   4.460   2.421   1.446
  735SOL    HW2 2970   4.389   2.389   1.501
  735SOL    HW3 2971   4.539   2.380   1.481
  735SOL    MW4 2972   4.461   2.412   1.458
  736SOL     OW 2973   4.437   2.669   1.592
  736SOL    HW2 2974   4.356   2.703   1.556
  736SOL    HW3 2975   4.444   2.581   1.555
  736SOL    MW4 2976   4.427   2.662   1.583
  737SOL     OW 2977   0.173   2.841   1.507
  737SOL    HW2 2978   0.242   2.792   1.551
  737SOL    HW3 2979   0.092   2.806   1.541
  737SOL    MW4 2980   0.172   2.830   1.517
  738SOL     OW 2981   0.198   3.072   1.638
  738SOL    HW2 2982   0.131   3.134   1.610
  738SOL    HW3 2983   0.177   2.990   1.593
  738SOL    MW4 2984   0.187   3.069   1.629
  739SOL     OW 2985   4.477   3.230   1.525
  739SOL    HW2 2986   4.490   3.324   1.532
  739SOL    HW3 2987   4.489   3.210   1.433
  739SOL    MW4 2988   4.480   3.240   1.514
  740SOL     OW 2989   0.016   3.495   1.570
  740SOL    HW2 2990   0.016   3.496   1.666
  740SOL    HW3 2991  -0.057   3.552   1.546
  740SOL    MW4 2992   0.006   3.503   1.580
  741SOL     OW 2993   0.260   3.610   1.521
  741SOL    HW2 2994   0.257   3.685   1.580
  741SOL    HW3 2995   0.186   3.556   1.546
  741SOL    MW4 2996   0.250   3.613   1.532
  742SOL     OW 2997   0.241   3.875   1.623
  742SOL    HW2 2998   0.223   3.885   1.717
  742SOL    HW3 2999   0.296   3.951   1.602
  742SOL    MW4 3000   0.246   3.887   1.633
  743SOL     OW 3001   0.015   3.971   1.510
  743SOL    HW2 3002   0.016   4.062   1.542
  743SOL    HW3 3003   0.100   3.935   1.536
  743SOL    MW4 3004   0.026   3.978   1.518
  744SOL     OW 3005   0.014   4.235   1.586
  744SOL    HW2 3006   0.009   4.248   1.680
  744SOL    HW3 3007  -0.043   4.303   1.550
  744SOL    MW4 3008   0.006   4.246   1.593
  745SOL     OW 3009   0.218   4.382   1.472
  745SOL    HW2 3010   0.164   4.316   1.516
  745SOL    HW3 3011   0.212   4.459   1.528
  745SOL    MW4 3012   0.210   4.383   1.485
  746SOL     OW 3013   0.677   4.608   1.605
  746SOL    HW2 3014   0.742   4.677   1.590
  746SOL    HW3 3015   0.594   4.648   1.578
  746SOL    MW4 3016   0.674   4.623   1.599
  747SOL     OW 3017   0.442   0.075   1.507
  747SOL    HW2 3018   0.437   0.163   1.544
  747SOL    HW3 3019   0.447   0.089   1.413
  747SOL    MW4 3020   0.442   0.089   1.500
  748SOL     OW 3021   0.429   0.331   1.608
  748SOL    HW2 3022   0.513   0.376   1.600
  748SOL    HW3 3023   0.369   0.385   1.556
  748SOL    MW4 3024   0.432   0.344   1.600
  749SOL     OW 3025   0.647   0.477   1.529
  749SOL    HW2 3026   0.650   0.569   1.553
  749SOL    HW3 3027   0.651   0.477   1.433
  749SOL    MW4 3028   0.648   0.489   1.519
  750SOL     OW 3029   0.700   0.741   1.572
  750SOL    HW2 3030   0.688   0.769   1.663
  750SOL    HW3 3031   0.773   0.794   1.541
  750SOL    MW4 3032   0.708   0.752   1.580
  751SOL     OW 3033   0.474   0.841   1.466
  751SOL    HW2 3034   0.463   0.929   1.502
  751SOL    HW3 3035   0.550   0.806   1.512
  751SOL    MW4 3036   0.483   0.848   1.477
  752SOL     OW 3037   0.440   1.082   1.593
  752SOL    HW2 3038   0.518   1.135   1.578
  752SOL    HW3 3039   0.368   1.135   1.560
  752SOL    MW4 3040   0.441   1.096   1.586
  753SOL     OW 3041   0.660   1.260   1.519
  753SOL    HW2 3042   0.663   1.354   1.539
  753SOL    HW3 3043   0.643   1.256   1.425
  753SOL    MW4 3044   0.658   1.272   1.510
  754SOL     OW 3045   0.650   1.532   1.604
  754SOL    HW2 3046   0.715   1.573   1.548
  754SOL    HW3 3047   0.568   1.576   1.582
  754SOL    MW4 3048   0.648   1.543   1.594
  755SOL     OW 3049   0.429   1.682   1.454
  755SOL    HW2 3050   0.428   1.762   1.506
  755SOL    HW3 3051   0.355   1.631   1.487
  755SOL    MW4 3052   0.419   1.686   1.465
  756SOL     OW 3053   0.468   1.926   1.558
  756SOL    HW2 3054   0.478   1.921   1.653
  756SOL    HW3 3055   0.381   1.964   1.545
  756SOL    MW4 3056   0.458   1.930   1.569
  757SOL     OW 3057   0.669   2.097   1.500
  757SOL    HW2 3058   0.732   2.029   1.525
  757SOL    HW3 3059   0.585   2.051   1.498
  757SOL    MW4 3060   0.666   2.082   1.503
  758SOL     OW 3061   0.679   2.358   1.617
  758SOL    HW2 3062   0.601   2.384   1.568
  758SOL    HW3 3063   0.697   2.269   1.586
  758SOL    MW4 3064   0.671   2.349   1.606
  759SOL     OW 3065   0.434   2.451   1.484
  759SOL    HW2 3066   0.424   2.540   1.517
  759SOL    HW3 3067   0.377   2.398   1.539
  759SOL    MW4 3068   0.425   2.455   1.496
  760SOL     OW 3069   0.413   2.705   1.595
  760SOL    HW2 3070   0.427   2.702   1.690
  760SOL    HW3 3071   0.490   2.749   1.561
  760SOL    MW4 3072   0.425   2.710   1.603
  761SOL     OW 3073   0.647   2.820   1.499
  761SOL    HW2 3074   0.644   2.911   1.531
  761SOL    HW3 3075   0.647   2.828   1.404
  761SOL    MW4 3076   0.647   2.833   1.491
  762SOL     OW 3077   0.625   3.091   1.573
  762SOL    HW2 3078   0.709   3.136   1.562
  762SOL    HW3 3079   0.559   3.155   1.547
  762SOL    MW4 3080   0.628   3.105   1.568
  763SOL     OW 3081   0.408   3.244   1.518
  763SOL    HW2 3082   0.340   3.182   1.546
  763SOL    HW3 3083   0.391   3.257   1.425
  763SOL    MW4 3084   0.397   3.237   1.510
  764SOL     OW 3085   0.497   3.496   1.604
  764SOL    HW2 3086   0.478   3.412   1.562
  764SOL    HW3 3087   0.425   3.553   1.576
  764SOL    MW4 3088   0.485   3.493   1.595
  765SOL     OW 3089   0.700   3.646   1.500
  765SOL    HW2 3090   0.775   3.613   1.550
  765SOL    HW3 3091   0.629   3.587   1.523
  765SOL    MW4 3092   0.701   3.634   1.510
  766SOL     OW 3093   0.678   3.904   1.619
  766SOL    HW2 3094   0.754   3.940   1.573
  766SOL    HW3 3095   0.675   3.812   1.594
  766SOL    MW4 3096   0.687   3.897   1.609
  767SOL     OW 3097   0.447   4.028   1.488
  767SOL    HW2 3098   0.518   3.967   1.506
  767SOL    HW3 3099   0.443   4.034   1.392
  767SOL    MW4 3100   0.456   4.021   1.478
  768SOL     OW 3101   0.484   4.282   1.609
  768SOL    HW2 3102   0.470   4.194   1.572
  768SOL    HW3 3103   0.406   4.331   1.583
  768SOL    MW4 3104   0.472   4.277   1.601
  769SOL     OW 3105   0.713   4.373   1.475
  769SOL    HW2 3106   0.634   4.335   1.514
  769SOL    HW3 3107   0.720   4.459   1.515
  769SOL    MW4 3108   0.703   4.379   1.485
  770SOL     OW 3109   1.123   0.001   1.638
  770SOL    HW2 3110   1.139  -0.002   1.733
  770SOL    HW3 3111   1.198   0.049   1.603
  770SOL    MW4 3112   1.135   0.007   1.646
  771SOL     OW 3113   0.894   0.106   1.516
  771SOL    HW2 3114   0.888   0.196   1.546
  771SOL    HW3 3115   0.973   0.072   1.558
  771SOL    MW4 3116   0.904   0.113   1.525
  772SOL     OW 3117   0.895   0.354   1.614
  772SOL    HW2 3118   0.893   0.366   1.709
  772SOL    HW3 3119   0.821   0.406   1.583
  772SOL    MW4 3120   0.885   0.363   1.623
  773SOL     OW 3121   1.100   0.502   1.491
  773SOL    HW2 3122   1.087   0.595   1.505
  773SOL    HW3 3123   1.028   0.459   1.537
  773SOL    MW4 3124   1.089   0.508   1.499
  774SOL     OW 3125   1.120   0.761   1.573
  774SOL    HW2 3126   1.138   0.762   1.668
  774SOL    HW3 3127   1.194   0.808   1.535
  774SOL    MW4 3128   1.132   0.767   1.581
  775SOL     OW 3129   0.898   0.935   1.518
  775SOL    HW2 3130   0.981   0.892   1.540
  775SOL    HW3 3131   0.889   0.921   1.423
  775SOL    MW4 3132   0.908   0.927   1.508
  776SOL     OW 3133   0.904   1.192   1.601
  776SOL    HW2 3134   0.906   1.098   1.584
  776SOL    HW3 3135   0.817   1.219   1.573
  776SOL    MW4 3136   0.893   1.183   1.595
  777SOL     OW 3137   1.152   1.287   1.498
  777SOL    HW2 3138   1.226   1.232   1.525
  777SOL    HW3 3139   1.075   1.233   1.514
  777SOL    MW4 3140   1.152   1.273   1.503
  778SOL     OW 3141   1.098   1.548   1.613
  778SOL    HW2 3142   1.177   1.591   1.580
  778SOL    HW3 3143   1.111   1.455   1.593
  778SOL    MW4 3144   1.111   1.541   1.606
  779SOL     OW 3145   0.884   1.658   1.491
  779SOL    HW2 3146   0.962   1.614   1.525
  779SOL    HW3 3147   0.892   1.651   1.396
  779SOL    MW4 3148   0.896   1.651   1.483
  780SOL     OW 3149   0.863   1.913   1.585
  780SOL    HW2 3150   0.946   1.955   1.562
  780SOL    HW3 3151   0.872   1.824   1.552
  780SOL    MW4 3152   0.876   1.907   1.577
  781SOL     OW 3153   1.107   2.028   1.493
  781SOL    HW2 3154   1.192   1.995   1.522
  781SOL    HW3 3155   1.105   2.119   1.522
  781SOL    MW4 3156   1.118   2.036   1.501
  782SOL     OW 3157   1.103   2.287   1.591
  782SOL    HW2 3158   1.175   2.339   1.556
  782SOL    HW3 3159   1.026   2.343   1.581
  782SOL    MW4 3160   1.103   2.301   1.585
  783SOL     OW 3161   0.907   2.488   1.551
  783SOL    HW2 3162   0.909   2.581   1.574
  783SOL    HW3 3163   0.820   2.459   1.579
  783SOL    MW4 3164   0.895   2.497   1.558
  784SOL     OW 3165   0.894   2.749   1.608
  784SOL    HW2 3166   0.893   2.763   1.703
  784SOL    HW3 3167   0.804   2.767   1.580
  784SOL    MW4 3168   0.882   2.753   1.617
  785SOL     OW 3169   1.142   2.887   1.539
  785SOL    HW2 3170   1.138   2.968   1.591
  785SOL    HW3 3171   1.058   2.845   1.556
  785SOL    MW4 3172   1.130   2.892   1.548
  786SOL     OW 3173   1.095   3.175   1.610
  786SOL    HW2 3174   1.116   3.187   1.703
  786SOL    HW3 3175   1.178   3.187   1.565
  786SOL    MW4 3176   1.109   3.178   1.617
  787SOL     OW 3177   0.840   3.257   1.537
  787SOL    HW2 3178   0.925   3.224   1.567
  787SOL    HW3 3179   0.845   3.254   1.441
  787SOL    MW4 3180   0.852   3.253   1.528
  788SOL     OW 3181   0.880   3.509   1.659
  788SOL    HW2 3182   0.958   3.534   1.609
  788SOL    HW3 3183   0.852   3.427   1.619
  788SOL    MW4 3184   0.886   3.501   1.647
  789SOL     OW 3185   1.095   3.624   1.523
  789SOL    HW2 3186   1.171   3.577   1.557
  789SOL    HW3 3187   1.109   3.628   1.429
  789SOL    MW4 3188   1.107   3.618   1.515
  790SOL     OW 3189   1.126   3.873   1.642
  790SOL    HW2 3190   1.200   3.916   1.598
  790SOL    HW3 3191   1.127   3.783   1.608
  790SOL    MW4 3192   1.136   3.867   1.631
  791SOL     OW 3193   0.906   3.995   1.499
  791SOL    HW2 3194   0.914   4.087   1.524
  791SOL    HW3 3195   0.963   3.949   1.560
  791SOL    MW4 3196   0.914   4.001   1.510
  792SOL     OW 3197   0.936   4.269   1.581
  792SOL    HW2 3198   0.911   4.241   1.669
  792SOL    HW3 3199   0.856   4.309   1.545
  792SOL    MW4 3200   0.922   4.270   1.587
  793SOL     OW 3201   1.145   4.439   1.490
  793SOL    HW2 3202   1.085   4.375   1.527
  793SOL    HW3 3203   1.115   4.523   1.524
  793SOL    MW4 3204   1.133   4.441   1.499
  794SOL     OW 3205   1.557   4.635   1.562
  794SOL    HW2 3206   1.544   4.629   1.657
  794SOL    HW3 3207   1.480   4.681   1.529
  794SOL    MW4 3208   1.545   4.640   1.570
  795SOL     OW 3209   1.348   0.124   1.522
  795SOL    HW2 3210   1.348   0.211   1.563
  795SOL    HW3 3211   1.311   0.139   1.435
  795SOL    MW4 3212   1.343   0.138   1.516
  796SOL     OW 3213   1.321   0.372   1.618
  796SOL    HW2 3214   1.386   0.411   1.559
  796SOL    HW3 3215   1.238   0.407   1.587
  796SOL    MW4 3216   1.319   0.382   1.606
  797SOL     OW 3217   1.542   0.470   1.485
  797SOL    HW2 3218   1.629   0.432   1.498
  797SOL    HW3 3219   1.531   0.471   1.389
  797SOL    MW4 3220   1.552   0.465   1.474
  798SOL     OW 3221   1.540   0.727   1.575
  798SOL    HW2 3222   1.586   0.728   1.659
  798SOL    HW3 3223   1.545   0.636   1.546
  798SOL    MW4 3224   1.547   0.715   1.582
  799SOL     OW 3225   1.351   0.893   1.478
  799SOL    HW2 3226   1.426   0.834   1.489
  799SOL    HW3 3227   1.336   0.895   1.384
  799SOL    MW4 3228   1.359   0.885   1.467
  800SOL     OW 3229   1.377   1.161   1.566
  800SOL    HW2 3230   1.375   1.144   1.660
  800SOL    HW3 3231   1.383   1.074   1.526
  800SOL    MW4 3232   1.377   1.147   1.573
  801SOL     OW 3233   1.598   1.310   1.503
  801SOL    HW2 3234   1.517   1.267   1.531
  801SOL    HW3 3235   1.589   1.318   1.408
  801SOL    MW4 3236   1.586   1.306   1.494
  802SOL     OW 3237   1.583   1.573   1.581
  802SOL    HW2 3238   1.575   1.566   1.676
  802SOL    HW3 3239   1.586   1.483   1.550
  802SOL    MW4 3240   1.582   1.560   1.590
  803SOL     OW 3241   1.326   1.663   1.498
  803SOL    HW2 3242   1.400   1.612   1.531
  803SOL    HW3 3243   1.341   1.670   1.404
  803SOL    MW4 3244   1.338   1.658   1.490
  804SOL     OW 3245   1.356   1.938   1.574
  804SOL    HW2 3246   1.343   1.914   1.666
  804SOL    HW3 3247   1.358   1.855   1.527
  804SOL    MW4 3248   1.355   1.924   1.580
  805SOL     OW 3249   1.594   2.055   1.521
  805SOL    HW2 3250   1.507   2.029   1.551
  805SOL    HW3 3251   1.593   2.037   1.427
  805SOL    MW4 3252   1.582   2.049   1.512
  806SOL     OW 3253   1.547   2.332   1.577
  806SOL    HW2 3254   1.631   2.376   1.560
  806SOL    HW3 3255   1.563   2.240   1.556
  806SOL    MW4 3256   1.560   2.326   1.572
  807SOL     OW 3257   1.313   2.447   1.466
  807SOL    HW2 3258   1.313   2.531   1.510
  807SOL    HW3 3259   1.383   2.397   1.508
  807SOL    MW4 3260   1.323   2.451   1.477
  808SOL     OW 3261   1.325   2.692   1.600
  808SOL    HW2 3262   1.399   2.735   1.556
  808SOL    HW3 3263   1.257   2.759   1.604
  808SOL    MW4 3264   1.326   2.706   1.595
  809SOL     OW 3265   1.571   2.840   1.477
  809SOL    HW2 3266   1.652   2.804   1.515
  809SOL    HW3 3267   1.591   2.849   1.384
  809SOL    MW4 3268   1.584   2.836   1.470
  810SOL     OW 3269   1.541   3.087   1.588
  810SOL    HW2 3270   1.603   3.138   1.536
  810SOL    HW3 3271   1.550   2.998   1.554
  810SOL    MW4 3272   1.550   3.082   1.577
  811SOL     OW 3273   1.341   3.251   1.481
  811SOL    HW2 3274   1.350   3.339   1.519
  811SOL    HW3 3275   1.403   3.197   1.531
  811SOL    MW4 3276   1.350   3.256   1.493
  812SOL     OW 3277   1.330   3.509   1.599
  812SOL    HW2 3278   1.334   3.506   1.694
  812SOL    HW3 3279   1.408   3.557   1.572
  812SOL    MW4 3280   1.341   3.515   1.608
  813SOL     OW 3281   1.561   3.617   1.506
  813SOL    HW2 3282   1.564   3.709   1.530
  813SOL    HW3 3283   1.581   3.616   1.412
  813SOL    MW4 3284   1.564   3.629   1.497
  814SOL     OW 3285   1.604   3.890   1.577
  814SOL    HW2 3286   1.609   3.886   1.673
  814SOL    HW3 3287   1.521   3.934   1.559
  814SOL    MW4 3288   1.594   3.895   1.588
  815SOL     OW 3289   1.334   4.001   1.507
  815SOL    HW2 3290   1.338   4.094   1.527
  815SOL    HW3 3291   1.342   3.997   1.411
  815SOL    MW4 3292   1.335   4.012   1.497
  816SOL     OW 3293   1.356   4.278   1.569
  816SOL    HW2 3294   1.444   4.311   1.550
  816SOL    HW3 3295   1.297   4.344   1.532
  816SOL    MW4 3296   1.360   4.291   1.561
  817SOL     OW 3297   1.601   4.365   1.489
  817SOL    HW2 3298   1.682   4.328   1.524
  817SOL    HW3 3299   1.595   4.451   1.530
  817SOL    MW4 3300   1.611   4.371   1.499
  818SOL     OW 3301   2.024   4.653   1.583
  818SOL    HW2 3302   2.020   4.647   1.678
  818SOL    HW3 3303   1.938   4.688   1.558
  818SOL    MW4 3304   2.012   4.657   1.592
  819SOL     OW 3305   1.797   0.102   1.479
  819SOL    HW2 3306   1.721   0.052   1.507
  819SOL    HW3 3307   1.797   0.095   1.384
  819SOL    MW4 3308   1.787   0.094   1.470
  820SOL     OW 3309   1.786   0.370   1.561
  820SOL    HW2 3310   1.861   0.408   1.517
  820SOL    HW3 3311   1.789   0.277   1.540
  820SOL    MW4 3312   1.796   0.363   1.553
  821SOL     OW 3313   2.019   0.503   1.477
  821SOL    HW2 3314   2.097   0.462   1.516
  821SOL    HW3 3315   2.000   0.577   1.535
  821SOL    MW4 3316   2.027   0.507   1.490
  822SOL     OW 3317   2.012   0.764   1.601
  822SOL    HW2 3318   2.088   0.804   1.559
  822SOL    HW3 3319   1.939   0.789   1.544
  822SOL    MW4 3320   2.012   0.773   1.588
  823SOL     OW 3321   1.771   0.852   1.468
  823SOL    HW2 3322   1.767   0.943   1.497
  823SOL    HW3 3323   1.699   0.809   1.514
  823SOL    MW4 3324   1.761   0.858   1.478
  824SOL     OW 3325   1.792   1.104   1.554
  824SOL    HW2 3326   1.876   1.144   1.531
  824SOL    HW3 3327   1.729   1.175   1.548
  824SOL    MW4 3328   1.795   1.119   1.550
  825SOL     OW 3329   2.022   1.246   1.466
  825SOL    HW2 3330   2.027   1.333   1.504
  825SOL    HW3 3331   2.009   1.262   1.372
  825SOL    MW4 3332   2.021   1.259   1.459
  826SOL     OW 3333   1.984   1.505   1.568
  826SOL    HW2 3334   2.068   1.550   1.575
  826SOL    HW3 3335   1.927   1.568   1.524
  826SOL    MW4 3336   1.988   1.519   1.563
  827SOL     OW 3337   1.823   1.698   1.459
  827SOL    HW2 3338   1.736   1.689   1.498
  827SOL    HW3 3339   1.806   1.717   1.367
  827SOL    MW4 3340   1.809   1.699   1.452
  828SOL     OW 3341   1.834   1.962   1.605
  828SOL    HW2 3342   1.843   1.878   1.561
  828SOL    HW3 3343   1.745   1.991   1.584
  828SOL    MW4 3344   1.823   1.955   1.596
  829SOL     OW 3345   2.048   2.051   1.442
  829SOL    HW2 3346   2.122   2.013   1.489
  829SOL    HW3 3347   1.973   2.034   1.499
  829SOL    MW4 3348   2.048   2.044   1.456
  830SOL     OW 3349   1.994   2.305   1.559
  830SOL    HW2 3350   2.019   2.295   1.651
  830SOL    HW3 3351   2.012   2.219   1.520
  830SOL    MW4 3352   1.999   2.292   1.566
  831SOL     OW 3353   1.767   2.469   1.490
  831SOL    HW2 3354   1.847   2.419   1.506
  831SOL    HW3 3355   1.765   2.482   1.395
  831SOL    MW4 3356   1.777   2.464   1.480
  832SOL     OW 3357   1.782   2.718   1.603
  832SOL    HW2 3358   1.858   2.749   1.554
  832SOL    HW3 3359   1.765   2.630   1.568
  832SOL    MW4 3360   1.790   2.710   1.592
  833SOL     OW 3361   2.039   2.825   1.511
  833SOL    HW2 3362   2.028   2.915   1.543
  833SOL    HW3 3363   2.058   2.836   1.418
  833SOL    MW4 3364   2.040   2.839   1.503
  834SOL     OW 3365   1.964   3.102   1.567
  834SOL    HW2 3366   1.993   3.077   1.654
  834SOL    HW3 3367   2.033   3.161   1.535
  834SOL    MW4 3368   1.977   3.107   1.574
  835SOL     OW 3369   1.752   3.223   1.443
  835SOL    HW2 3370   1.764   3.311   1.478
  835SOL    HW3 3371   1.823   3.172   1.481
  835SOL    MW4 3372   1.763   3.228   1.452
  836SOL     OW 3373   1.798   3.463   1.572
  836SOL    HW2 3374   1.790   3.464   1.667
  836SOL    HW3 3375   1.734   3.528   1.542
  836SOL    MW4 3376   1.788   3.472   1.581
  837SOL     OW 3377   2.040   3.595   1.510
  837SOL    HW2 3378   2.100   3.527   1.541
  837SOL    HW3 3379   1.953   3.559   1.527
  837SOL    MW4 3380   2.037   3.582   1.516
  838SOL     OW 3381   2.024   3.874   1.579
  838SOL    HW2 3382   2.109   3.918   1.578
  838SOL    HW3 3383   2.045   3.782   1.565
  838SOL    MW4 3384   2.038   3.868   1.577
  839SOL     OW 3385   1.816   4.037   1.488
  839SOL    HW2 3386   1.889   3.978   1.506
  839SOL    HW3 3387   1.739   3.990   1.520
  839SOL    MW4 3388   1.815   4.023   1.495
  840SOL     OW 3389   1.826   4.287   1.617
  840SOL    HW2 3390   1.893   4.349   1.590
  840SOL    HW3 3391   1.843   4.209   1.564
  840SOL    MW4 3392   1.837   4.285   1.606
  841SOL     OW 3393   2.060   4.404   1.427
  841SOL    HW2 3394   2.113   4.356   1.490
  841SOL    HW3 3395   2.045   4.490   1.468
  841SOL    MW4 3396   2.065   4.409   1.441
  842SOL     OW 3397   2.460   4.638   1.610
  842SOL    HW2 3398   2.469   4.667   1.701
  842SOL    HW3 3399   2.387   4.689   1.575
  842SOL    MW4 3400   2.452   4.648   1.617
  843SOL     OW 3401   2.256   0.125   1.514
  843SOL    HW2 3402   2.181   0.077   1.548
  843SOL    HW3 3403   2.242   0.127   1.419
  843SOL    MW4 3404   2.244   0.119   1.506
  844SOL     OW 3405   2.237   0.396   1.595
  844SOL    HW2 3406   2.252   0.420   1.686
  844SOL    HW3 3407   2.223   0.302   1.597
  844SOL    MW4 3408   2.237   0.387   1.607
  845SOL     OW 3409   2.454   0.457   1.432
  845SOL    HW2 3410   2.521   0.408   1.480
  845SOL    HW3 3411   2.371   0.427   1.470
  845SOL    MW4 3412   2.452   0.447   1.444
  846SOL     OW 3413   2.464   0.693   1.622
  846SOL    HW2 3414   2.394   0.743   1.580
  846SOL    HW3 3415   2.476   0.617   1.566
  846SOL    MW4 3416   2.457   0.690   1.609
  847SOL     OW 3417   2.255   0.861   1.513
  847SOL    HW2 3418   2.245   0.944   1.561
  847SOL    HW3 3419   2.241   0.885   1.422
  847SOL    MW4 3420   2.252   0.875   1.508
  848SOL     OW 3421   2.231   1.117   1.603
  848SOL    HW2 3422   2.230   1.152   1.692
  848SOL    HW3 3423   2.148   1.146   1.565
  848SOL    MW4 3424   2.219   1.126   1.610
  849SOL     OW 3425   2.429   1.292   1.516
  849SOL    HW2 3426   2.365   1.233   1.557
  849SOL    HW3 3427   2.403   1.294   1.423
  849SOL    MW4 3428   2.417   1.284   1.509
  850SOL     OW 3429   2.469   1.540   1.630
  850SOL    HW2 3430   2.542   1.588   1.590
  850SOL    HW3 3431   2.477   1.451   1.595
  850SOL    MW4 3432   2.479   1.534   1.620
  851SOL     OW 3433   2.215   1.641   1.534
  851SOL    HW2 3434   2.293   1.607   1.580
  851SOL    HW3 3435   2.239   1.639   1.442
  851SOL    MW4 3436   2.229   1.636   1.528
  852SOL     OW 3437   2.259   1.922   1.584
  852SOL    HW2 3438   2.259   1.915   1.680
  852SOL    HW3 3439   2.244   1.833   1.553
  852SOL    MW4 3440   2.257   1.909   1.593
  853SOL     OW 3441   2.439   2.097   1.461
  853SOL    HW2 3442   2.386   2.025   1.495
  853SOL    HW3 3443   2.426   2.094   1.367
  853SOL    MW4 3444   2.431   2.087   1.453
  854SOL     OW 3445   2.403   2.330   1.599
  854SOL    HW2 3446   2.410   2.313   1.693
  854SOL    HW3 3447   2.424   2.247   1.558
  854SOL    MW4 3448   2.407   2.317   1.606
  855SOL     OW 3449   2.202   2.445   1.446
  855SOL    HW2 3450   2.271   2.404   1.497
  855SOL    HW3 3451   2.121   2.411   1.483
  855SOL    MW4 3452   2.200   2.435   1.458
  856SOL     OW 3453   2.250   2.676   1.582
  856SOL    HW2 3454   2.236   2.596   1.532
  856SOL    HW3 3455   2.170   2.727   1.567
  856SOL    MW4 3456   2.237   2.672   1.573
  857SOL     OW 3457   2.433   2.834   1.466
  857SOL    HW2 3458   2.424   2.920   1.506
  857SOL    HW3 3459   2.382   2.776   1.521
  857SOL    MW4 3460   2.425   2.837   1.478
  858SOL     OW 3461   2.387   3.070   1.585
  858SOL    HW2 3462   2.456   3.128   1.552
  858SOL    HW3 3463   2.306   3.110   1.554
  858SOL    MW4 3464   2.385   3.083   1.576
  859SOL     OW 3465   2.180   3.235   1.479
  859SOL    HW2 3466   2.226   3.312   1.512
  859SOL    HW3 3467   2.222   3.217   1.394
  859SOL    MW4 3468   2.192   3.243   1.472
  860SOL     OW 3469   2.284   3.467   1.605
  860SOL    HW2 3470   2.290   3.470   1.700
  860SOL    HW3 3471   2.350   3.530   1.574
  860SOL    MW4 3472   2.293   3.476   1.613
  861SOL     OW 3473   2.501   3.639   1.442
  861SOL    HW2 3474   2.558   3.575   1.484
  861SOL    HW3 3475   2.509   3.718   1.496
  861SOL    MW4 3476   2.510   3.641   1.455
  862SOL     OW 3477   2.490   3.873   1.571
  862SOL    HW2 3478   2.488   3.881   1.666
  862SOL    HW3 3479   2.572   3.917   1.545
  862SOL    MW4 3480   2.501   3.880   1.580
  863SOL     OW 3481   2.261   4.007   1.515
  863SOL    HW2 3482   2.341   3.957   1.531
  863SOL    HW3 3483   2.244   3.996   1.421
  863SOL    MW4 3484   2.269   3.999   1.504
  864SOL     OW 3485   2.249   4.283   1.586
  864SOL    HW2 3486   2.327   4.326   1.551
  864SOL    HW3 3487   2.249   4.196   1.546
  864SOL    MW4 3488   2.259   4.277   1.576
  865SOL     OW 3489   2.489   4.396   1.473
  865SOL    HW2 3490   2.470   4.479   1.517
  865SOL    HW3 3491   2.467   4.412   1.381
  865SOL    MW4 3492   2.484   4.409   1.467
  866SOL     OW 3493   2.935   4.634   1.577
  866SOL    HW2 3494   2.917   4.624   1.670
  866SOL    HW3 3495   2.854   4.669   1.540
  866SOL    MW4 3496   2.922   4.637   1.585
  867SOL     OW 3497   2.697   0.056   1.497
  867SOL    HW2 3498   2.703   0.142   1.539
  867SOL    HW3 3499   2.612   0.021   1.525
  867SOL    MW4 3500   2.687   0.063   1.506
  868SOL     OW 3501   2.670   0.322   1.586
  868SOL    HW2 3502   2.652   0.342   1.677
  868SOL    HW3 3503   2.747   0.376   1.564
  868SOL    MW4 3504   2.678   0.332   1.595
  869SOL     OW 3505   2.884   0.468   1.503
  869SOL    HW2 3506   2.902   0.561   1.515
  869SOL    HW3 3507   2.884   0.455   1.408
  869SOL    MW4 3508   2.886   0.478   1.492
  870SOL     OW 3509   2.931   0.732   1.564
  870SOL    HW2 3510   2.916   0.710   1.656
  870SOL    HW3 3511   2.865   0.799   1.545
  870SOL    MW4 3512   2.920   0.738   1.574
  871SOL     OW 3513   2.678   0.859   1.516
  871SOL    HW2 3514   2.593   0.834   1.552
  871SOL    HW3 3515   2.661   0.870   1.422
  871SOL    MW4 3516   2.664   0.857   1.508
  872SOL     OW 3517   2.675   1.120   1.604
  872SOL    HW2 3518   2.688   1.030   1.576
  872SOL    HW3 3519   2.603   1.153   1.549
  872SOL    MW4 3520   2.667   1.113   1.593
  873SOL     OW 3521   2.908   1.253   1.502
  873SOL    HW2 3522   2.991   1.218   1.534
  873SOL    HW3 3523   2.841   1.201   1.547
  873SOL    MW4 3524   2.910   1.241   1.513
  874SOL     OW 3525   2.900   1.506   1.592
  874SOL    HW2 3526   2.824   1.556   1.563
  874SOL    HW3 3527   2.889   1.420   1.552
  874SOL    MW4 3528   2.888   1.502   1.583
  875SOL     OW 3529   2.680   1.661   1.504
  875SOL    HW2 3530   2.650   1.750   1.523
  875SOL    HW3 3531   2.702   1.664   1.411
  875SOL    MW4 3532   2.679   1.673   1.494
  876SOL     OW 3533   2.676   1.961   1.552
  876SOL    HW2 3534   2.667   1.943   1.646
  876SOL    HW3 3535   2.591   1.997   1.526
  876SOL    MW4 3536   2.664   1.964   1.561
  877SOL     OW 3537   2.886   2.080   1.444
  877SOL    HW2 3538   2.888   2.174   1.466
  877SOL    HW3 3539   2.810   2.046   1.490
  877SOL    MW4 3540   2.876   2.088   1.453
  878SOL     OW 3541   2.900   2.345   1.592
  878SOL    HW2 3542   2.896   2.338   1.687
  878SOL    HW3 3543   2.819   2.389   1.567
  878SOL    MW4 3544   2.889   2.350   1.601
  879SOL     OW 3545   2.659   2.449   1.498
  879SOL    HW2 3546   2.652   2.543   1.513
  879SOL    HW3 3547   2.584   2.412   1.544
  879SOL    MW4 3548   2.648   2.456   1.506
  880SOL     OW 3549   2.642   2.714   1.592
  880SOL    HW2 3550   2.727   2.756   1.579
  880SOL    HW3 3551   2.580   2.767   1.542
  880SOL    MW4 3552   2.645   2.727   1.584
  881SOL     OW 3553   2.893   2.811   1.525
  881SOL    HW2 3554   2.979   2.783   1.556
  881SOL    HW3 3555   2.880   2.897   1.565
  881SOL    MW4 3556   2.903   2.819   1.534
  882SOL     OW 3557   2.857   3.059   1.641
  882SOL    HW2 3558   2.862   3.065   1.737
  882SOL    HW3 3559   2.924   3.119   1.610
  882SOL    MW4 3560   2.866   3.067   1.650
  883SOL     OW 3561   2.646   3.198   1.520
  883SOL    HW2 3562   2.698   3.137   1.573
  883SOL    HW3 3563   2.681   3.188   1.432
  883SOL    MW4 3564   2.657   3.189   1.516
  884SOL     OW 3565   2.687   3.467   1.578
  884SOL    HW2 3566   2.690   3.479   1.673
  884SOL    HW3 3567   2.687   3.372   1.565
  884SOL    MW4 3568   2.687   3.456   1.589
  885SOL     OW 3569   2.946   3.623   1.493
  885SOL    HW2 3570   2.868   3.578   1.524
  885SOL    HW3 3571   2.938   3.623   1.398
  885SOL    MW4 3572   2.935   3.617   1.484
  886SOL     OW 3573   2.948   3.870   1.596
  886SOL    HW2 3574   2.871   3.913   1.560
  886SOL    HW3 3575   2.941   3.779   1.565
  886SOL    MW4 3576   2.937   3.864   1.587
  887SOL     OW 3577   2.727   3.985   1.473
  887SOL    HW2 3578   2.720   4.073   1.511
  887SOL    HW3 3579   2.695   3.995   1.384
  887SOL    MW4 3580   2.722   3.998   1.467
  888SOL     OW 3581   2.706   4.243   1.571
  888SOL    HW2 3582   2.783   4.300   1.563
  888SOL    HW3 3583   2.633   4.299   1.546
  888SOL    MW4 3584   2.707   4.258   1.567
  889SOL     OW 3585   2.949   4.369   1.508
  889SOL    HW2 3586   2.947   4.462   1.533
  889SOL    HW3 3587   2.941   4.369   1.413
  889SOL    MW4 3588   2.948   4.382   1.499
  890SOL     OW 3589   3.397   0.009   1.617
  890SOL    HW2 3590   3.481   0.040   1.585
  890SOL    HW3 3591   3.392  -0.082   1.588
  890SOL    MW4 3592   3.407   0.001   1.609
  891SOL     OW 3593   3.171   0.110   1.514
  891SOL    HW2 3594   3.236   0.059   1.562
  891SOL    HW3 3595   3.091   0.058   1.518
  891SOL    MW4 3596   3.169   0.096   1.520
  892SOL     OW 3597   3.136   0.376   1.591
  892SOL    HW2 3598   3.141   0.284   1.567
  892SOL    HW3 3599   3.048   0.403   1.565
  892SOL    MW4 3600   3.125   0.368   1.585
  893SOL     OW 3601   3.377   0.482   1.501
  893SOL    HW2 3602   3.296   0.439   1.527
  893SOL    HW3 3603   3.370   0.493   1.406
  893SOL    MW4 3604   3.366   0.478   1.492
  894SOL     OW 3605   3.371   0.751   1.566
  894SOL    HW2 3606   3.355   0.754   1.660
  894SOL    HW3 3607   3.366   0.658   1.543
  894SOL    MW4 3608   3.368   0.739   1.575
  895SOL     OW 3609   3.158   0.908   1.476
  895SOL    HW2 3610   3.233   0.850   1.493
  895SOL    HW3 3611   3.082   0.860   1.509
  895SOL    MW4 3612   3.158   0.894   1.483
  896SOL     OW 3613   3.168   1.162   1.601
  896SOL    HW2 3614   3.168   1.150   1.696
  896SOL    HW3 3615   3.165   1.073   1.565
  896SOL    MW4 3616   3.168   1.149   1.609
  897SOL     OW 3617   3.420   1.287   1.534
  897SOL    HW2 3618   3.496   1.238   1.565
  897SOL    HW3 3619   3.346   1.246   1.579
  897SOL    MW4 3620   3.420   1.275   1.544
  898SOL     OW 3621   3.370   1.555   1.585
  898SOL    HW2 3622   3.358   1.564   1.680
  898SOL    HW3 3623   3.383   1.461   1.571
  898SOL    MW4 3624   3.370   1.543   1.596
  899SOL     OW 3625   3.129   1.663   1.499
  899SOL    HW2 3626   3.216   1.626   1.512
  899SOL    HW3 3627   3.069   1.602   1.541
  899SOL    MW4 3628   3.132   1.650   1.506
  900SOL     OW 3629   3.086   1.938   1.572
  900SOL    HW2 3630   3.082   1.853   1.529
  900SOL    HW3 3631   3.016   1.990   1.531
  900SOL    MW4 3632   3.076   1.934   1.561
  901SOL     OW 3633   3.361   1.985   1.532
  901SOL    HW2 3634   3.267   1.967   1.543
  901SOL    HW3 3635   3.373   1.992   1.437
  901SOL    MW4 3636   3.350   1.983   1.521
  902SOL     OW 3637   3.380   2.272   1.620
  902SOL    HW2 3638   3.429   2.336   1.569
  902SOL    HW3 3639   3.375   2.195   1.562
  902SOL    MW4 3640   3.386   2.270   1.605
  903SOL     OW 3641   3.144   2.460   1.516
  903SOL    HW2 3642   3.219   2.427   1.567
  903SOL    HW3 3643   3.070   2.407   1.547
  903SOL    MW4 3644   3.144   2.449   1.527
  904SOL     OW 3645   3.138   2.712   1.640
  904SOL    HW2 3646   3.211   2.750   1.592
  904SOL    HW3 3647   3.125   2.626   1.600
  904SOL    MW4 3648   3.146   2.706   1.629
  905SOL     OW 3649   3.354   2.833   1.489
  905SOL    HW2 3650   3.345   2.921   1.528
  905SOL    HW3 3651   3.372   2.849   1.397
  905SOL    MW4 3652   3.355   2.847   1.482
  906SOL     OW 3653   3.353   3.076   1.630
  906SOL    HW2 3654   3.341   3.083   1.725
  906SOL    HW3 3655   3.426   3.134   1.611
  906SOL    MW4 3656   3.361   3.085   1.640
  907SOL     OW 3657   3.086   3.202   1.516
  907SOL    HW2 3658   3.165   3.168   1.558
  907SOL    HW3 3659   3.110   3.214   1.424
  907SOL    MW4 3660   3.099   3.199   1.509
  908SOL     OW 3661   3.155   3.470   1.578
  908SOL    HW2 3662   3.121   3.382   1.563
  908SOL    HW3 3663   3.092   3.528   1.534
  908SOL    MW4 3664   3.142   3.466   1.570
  909SOL     OW 3665   3.350   3.652   1.529
  909SOL    HW2 3666   3.439   3.620   1.543
  909SOL    HW3 3667   3.293   3.583   1.564
  909SOL    MW4 3668   3.354   3.639   1.535
  910SOL     OW 3669   3.384   3.908   1.584
  910SOL    HW2 3670   3.302   3.945   1.552
  910SOL    HW3 3671   3.378   3.815   1.563
  910SOL    MW4 3672   3.372   3.900   1.577
  911SOL     OW 3673   3.154   3.997   1.469
  911SOL    HW2 3674   3.175   4.076   1.519
  911SOL    HW3 3675   3.086   3.953   1.520
  911SOL    MW4 3676   3.148   4.002   1.482
  912SOL     OW 3677   3.166   4.246   1.602
  912SOL    HW2 3678   3.166   4.254   1.697
  912SOL    HW3 3679   3.083   4.286   1.574
  912SOL    MW4 3680   3.155   4.252   1.610
  913SOL     OW 3681   3.389   4.397   1.518
  913SOL    HW2 3682   3.307   4.356   1.547
  913SOL    HW3 3683   3.380   4.406   1.424
  913SOL    MW4 3684   3.377   4.393   1.510
  914SOL     OW 3685   3.831   4.661   1.607
  914SOL    HW2 3686   3.845   4.674   1.701
  914SOL    HW3 3687   3.906   4.703   1.566
  914SOL    MW4 3688   3.843   4.668   1.614
  915SOL     OW 3689   3.617   0.118   1.496
  915SOL    HW2 3690   3.702   0.083   1.521
  915SOL    HW3 3691   3.618   0.117   1.400
  915SOL    MW4 3692   3.628   0.114   1.486
  916SOL     OW 3693   3.618   0.376   1.587
  916SOL    HW2 3694   3.612   0.291   1.544
  916SOL    HW3 3695   3.535   0.419   1.567
  916SOL    MW4 3696   3.606   0.371   1.579
  917SOL     OW 3697   3.845   0.520   1.504
  917SOL    HW2 3698   3.775   0.477   1.552
  917SOL    HW3 3699   3.813   0.525   1.414
  917SOL    MW4 3700   3.831   0.515   1.498
  918SOL     OW 3701   3.807   0.775   1.638
  918SOL    HW2 3702   3.731   0.817   1.597
  918SOL    HW3 3703   3.818   0.693   1.591
  918SOL    MW4 3704   3.798   0.770   1.627
  919SOL     OW 3705   3.596   0.887   1.494
  919SOL    HW2 3706   3.513   0.844   1.515
  919SOL    HW3 3707   3.599   0.886   1.399
  919SOL    MW4 3708   3.585   0.881   1.484
  920SOL     OW 3709   3.617   1.122   1.629
  920SOL    HW2 3710   3.700   1.151   1.591
  920SOL    HW3 3711   3.601   1.037   1.587
  920SOL    MW4 3712   3.626   1.114   1.618
  921SOL     OW 3713   3.845   1.235   1.538
  921SOL    HW2 3714   3.927   1.190   1.557
  921SOL    HW3 3715   3.857   1.324   1.571
  921SOL    MW4 3716   3.857   1.241   1.545
  922SOL     OW 3717   3.828   1.509   1.611
  922SOL    HW2 3718   3.819   1.517   1.706
  922SOL    HW3 3719   3.760   1.566   1.575
  922SOL    MW4 3720   3.818   1.517   1.619
  923SOL     OW 3721   3.608   1.656   1.501
  923SOL    HW2 3722   3.533   1.600   1.518
  923SOL    HW3 3723   3.605   1.674   1.407
  923SOL    MW4 3724   3.598   1.651   1.491
  924SOL     OW 3725   3.618   1.905   1.584
  924SOL    HW2 3726   3.605   1.819   1.545
  924SOL    HW3 3727   3.535   1.950   1.569
  924SOL    MW4 3728   3.605   1.900   1.577
  925SOL     OW 3729   3.820   2.021   1.442
  925SOL    HW2 3730   3.826   2.104   1.490
  925SOL    HW3 3731   3.744   1.978   1.479
  925SOL    MW4 3732   3.811   2.026   1.454
  926SOL     OW 3733   3.787   2.299   1.537
  926SOL    HW2 3734   3.767   2.302   1.630
  926SOL    HW3 3735   3.872   2.341   1.529
  926SOL    MW4 3736   3.795   2.305   1.548
  927SOL     OW 3737   3.544   2.433   1.486
  927SOL    HW2 3738   3.558   2.516   1.531
  927SOL    HW3 3739   3.627   2.386   1.497
  927SOL    MW4 3740   3.557   2.438   1.493
  928SOL     OW 3741   3.575   2.686   1.575
  928SOL    HW2 3742   3.583   2.670   1.669
  928SOL    HW3 3743   3.492   2.732   1.565
  928SOL    MW4 3744   3.565   2.690   1.586
  929SOL     OW 3745   3.803   2.819   1.502
  929SOL    HW2 3746   3.876   2.763   1.529
  929SOL    HW3 3747   3.726   2.779   1.543
  929SOL    MW4 3748   3.803   2.806   1.511
  930SOL     OW 3749   3.788   3.081   1.596
  930SOL    HW2 3750   3.867   3.130   1.572
  930SOL    HW3 3751   3.793   3.000   1.547
  930SOL    MW4 3752   3.799   3.077   1.586
  931SOL     OW 3753   3.561   3.239   1.527
  931SOL    HW2 3754   3.635   3.187   1.558
  931SOL    HW3 3755   3.568   3.237   1.432
  931SOL    MW4 3756   3.572   3.232   1.519
  932SOL     OW 3757   3.590   3.513   1.612
  932SOL    HW2 3758   3.666   3.552   1.569
  932SOL    HW3 3759   3.584   3.425   1.575
  932SOL    MW4 3760   3.599   3.506   1.602
  933SOL     OW 3761   3.805   3.647   1.494
  933SOL    HW2 3762   3.887   3.606   1.523
  933SOL    HW3 3763   3.809   3.736   1.528
  933SOL    MW4 3764   3.817   3.653   1.502
  934SOL     OW 3765   3.814   3.901   1.587
  934SOL    HW2 3766   3.896   3.935   1.551
  934SOL    HW3 3767   3.748   3.965   1.561
  934SOL    MW4 3768   3.816   3.914   1.579
  935SOL     OW 3769   3.600   4.036   1.484
  935SOL    HW2 3770   3.575   4.116   1.529
  935SOL    HW3 3771   3.534   3.972   1.511
  935SOL    MW4 3772   3.588   4.038   1.494
  936SOL     OW 3773   3.631   4.302   1.602
  936SOL    HW2 3774   3.633   4.276   1.694
  936SOL    HW3 3775   3.541   4.332   1.588
  936SOL    MW4 3776   3.619   4.302   1.612
  937SOL     OW 3777   3.857   4.408   1.502
  937SOL    HW2 3778   3.776   4.364   1.528
  937SOL    HW3 3779   3.850   4.495   1.541
  937SOL    MW4 3780   3.845   4.414   1.511
  938SOL     OW 3781   4.244   0.001   1.593
  938SOL    HW2 3782   4.228  -0.017   1.686
  938SOL    HW3 3783   4.250  -0.086   1.553
  938SOL    MW4 3784   4.243  -0.013   1.600
  939SOL     OW 3785   4.053   0.134   1.480
  939SOL    HW2 3786   4.065   0.217   1.527
  939SOL    HW3 3787   4.115   0.074   1.521
  939SOL    MW4 3788   4.063   0.137   1.492
  940SOL     OW 3789   4.057   0.392   1.619
  940SOL    HW2 3790   4.032   0.391   1.711
  940SOL    HW3 3791   3.982   0.429   1.573
  940SOL    MW4 3792   4.044   0.397   1.625
  941SOL     OW 3793   4.278   0.495   1.511
  941SOL    HW2 3794   4.200   0.451   1.545
  941SOL    HW3 3795   4.351   0.441   1.542
  941SOL    MW4 3796   4.278   0.482   1.520
  942SOL     OW 3797   4.277   0.748   1.629
  942SOL    HW2 3798   4.279   0.655   1.610
  942SOL    HW3 3799   4.356   0.783   1.588
  942SOL    MW4 3800   4.288   0.740   1.621
  943SOL     OW 3801   4.044   0.858   1.537
  943SOL    HW2 3802   4.112   0.814   1.587
  943SOL    HW3 3803   3.963   0.836   1.582
  943SOL    MW4 3804   4.042   0.849   1.549
  944SOL     OW 3805   4.091   1.128   1.620
  944SOL    HW2 3806   4.072   1.115   1.712
  944SOL    HW3 3807   4.080   1.041   1.580
  944SOL    MW4 3808   4.087   1.114   1.627
  945SOL     OW 3809   4.305   1.276   1.537
  945SOL    HW2 3810   4.231   1.223   1.567
  945SOL    HW3 3811   4.382   1.228   1.568
  945SOL    MW4 3812   4.305   1.262   1.545
  946SOL     OW 3813   4.258   1.519   1.610
  946SOL    HW2 3814   4.267   1.428   1.581
  946SOL    HW3 3815   4.328   1.566   1.565
  946SOL    MW4 3816   4.268   1.513   1.600
  947SOL     OW 3817   4.040   1.624   1.496
  947SOL    HW2 3818   4.109   1.584   1.549
  947SOL    HW3 3819   3.960   1.579   1.523
  947SOL    MW4 3820   4.038   1.613   1.507
  948SOL     OW 3821   4.030   1.873   1.561
  948SOL    HW2 3822   4.032   1.781   1.538
  948SOL    HW3 3823   3.952   1.908   1.518
  948SOL    MW4 3824   4.020   1.866   1.552
  949SOL     OW 3825   4.238   2.012   1.476
  949SOL    HW2 3826   4.162   1.961   1.506
  949SOL    HW3 3827   4.231   2.012   1.381
  949SOL    MW4 3828   4.227   2.005   1.468
  950SOL     OW 3829   4.256   2.287   1.579
  950SOL    HW2 3830   4.284   2.276   1.670
  950SOL    HW3 3831   4.259   2.198   1.543
  950SOL    MW4 3832   4.260   2.273   1.586
  951SOL     OW 3833   4.030   2.406   1.490
  951SOL    HW2 3834   4.035   2.498   1.517
  951SOL    HW3 3835   4.110   2.367   1.523
  951SOL    MW4 3836   4.041   2.413   1.498
  952SOL     OW 3837   4.022   2.667   1.593
  952SOL    HW2 3838   4.020   2.687   1.687
  952SOL    HW3 3839   4.092   2.722   1.559
  952SOL    MW4 3840   4.031   2.677   1.601
  953SOL     OW 3841   4.229   2.835   1.502
  953SOL    HW2 3842   4.241   2.927   1.525
  953SOL    HW3 3843   4.241   2.832   1.407
  953SOL    MW4 3844   4.232   2.847   1.492
  954SOL     OW 3845   4.231   3.111   1.588
  954SOL    HW2 3846   4.226   3.094   1.682
  954SOL    HW3 3847   4.317   3.152   1.576
  954SOL    MW4 3848   4.242   3.114   1.599
  955SOL     OW 3849   4.006   3.244   1.497
  955SOL    HW2 3850   4.006   3.331   1.538
  955SOL    HW3 3851   4.082   3.200   1.534
  955SOL    MW4 3852   4.016   3.250   1.508
  956SOL     OW 3853   4.027   3.513   1.569
  956SOL    HW2 3854   4.043   3.491   1.661
  956SOL    HW3 3855   4.113   3.541   1.536
  956SOL    MW4 3856   4.041   3.514   1.577
  957SOL     OW 3857   4.267   3.624   1.511
  957SOL    HW2 3858   4.254   3.708   1.555
  957SOL    HW3 3859   4.280   3.646   1.419
  957SOL    MW4 3860   4.267   3.638   1.505
  958SOL     OW 3861   4.274   3.891   1.624
  958SOL    HW2 3862   4.209   3.938   1.572
  958SOL    HW3 3863   4.358   3.916   1.585
  958SOL    MW4 3864   4.277   3.901   1.612
  959SOL     OW 3865   4.055   4.001   1.494
  959SOL    HW2 3866   4.049   4.092   1.524
  959SOL    HW3 3867   4.050   4.006   1.399
  959SOL    MW4 3868   4.053   4.014   1.486
  960SOL     OW 3869   4.052   4.245   1.601
  960SOL    HW2 3870   4.037   4.244   1.696
  960SOL    HW3 3871   3.991   4.311   1.568
  960SOL    MW4 3872   4.042   4.254   1.609
  961SOL     OW 3873   4.279   4.397   1.503
  961SOL    HW2 3874   4.213   4.339   1.541
  961SOL    HW3 3875   4.250   4.411   1.413
  961SOL    MW4 3876   4.266   4.391   1.496
  962SOL     OW 3877   0.191   4.630   1.914
  962SOL    HW2 3878   0.268   4.684   1.934
  962SOL    HW3 3879   0.195   4.615   1.820
  962SOL    MW4 3880   0.202   4.635   1.904
  963SOL     OW 3881   4.457   0.110   1.969
  963SOL    HW2 3882   4.485   0.197   1.941
  963SOL    HW3 3883   4.534   0.054   1.954
  963SOL    MW4 3884   4.471   0.114   1.964
  964SOL     OW 3885   0.015   0.359   1.875
  964SOL    HW2 3886  -0.054   0.407   1.920
  964SOL    HW3 3887   0.096   0.394   1.911
  964SOL    MW4 3888   0.017   0.370   1.885
  965SOL     OW 3889   0.236   0.486   1.991
  965SOL    HW2 3890   0.315   0.432   1.979
  965SOL    HW3 3891   0.253   0.565   1.939
  965SOL    MW4 3892   0.249   0.489   1.983
  966SOL     OW 3893   0.239   0.755   1.887
  966SOL    HW2 3894   0.318   0.799   1.919
  966SOL    HW3 3895   0.240   0.769   1.792
  966SOL    MW4 3896   0.250   0.763   1.879
  967SOL     OW 3897   0.022   0.890   2.001
  967SOL    HW2 3898  -0.055   0.847   1.964
  967SOL    HW3 3899   0.097   0.846   1.959
  967SOL    MW4 3900   0.022   0.878   1.990
  968SOL     OW 3901   4.470   1.145   1.877
  968SOL    HW2 3902   4.395   1.191   1.915
  968SOL    HW3 3903   4.465   1.057   1.913
  968SOL    MW4 3904   4.460   1.140   1.887
  969SOL     OW 3905   0.194   1.291   1.962
  969SOL    HW2 3906   0.206   1.367   1.906
  969SOL    HW3 3907   0.113   1.251   1.930
  969SOL    MW4 3908   0.185   1.296   1.951
  970SOL     OW 3909   0.223   1.557   1.861
  970SOL    HW2 3910   0.304   1.599   1.888
  970SOL    HW3 3911   0.155   1.603   1.910
  970SOL    MW4 3912   0.225   1.568   1.871
  971SOL     OW 3913   0.008   1.716   1.949
  971SOL    HW2 3914   0.017   1.699   2.043
  971SOL    HW3 3915  -0.068   1.665   1.922
  971SOL    MW4 3916  -0.001   1.707   1.958
  972SOL     OW 3917   4.481   1.986   1.868
  972SOL    HW2 3918   4.396   2.015   1.900
  972SOL    HW3 3919   4.491   1.897   1.903
  972SOL    MW4 3920   4.471   1.978   1.877
  973SOL     OW 3921   0.231   2.082   1.958
  973SOL    HW2 3922   0.224   2.165   1.911
  973SOL    HW3 3923   0.151   2.034   1.935
  973SOL    MW4 3924   0.220   2.087   1.949
  974SOL     OW 3925   0.207   2.344   1.864
  974SOL    HW2 3926   0.289   2.386   1.893
  974SOL    HW3 3927   0.140   2.382   1.921
  974SOL    MW4 3928   0.209   2.354   1.876
  975SOL     OW 3929   0.003   2.429   2.022
  975SOL    HW2 3930  -0.011   2.415   2.116
  975SOL    HW3 3931   0.001   2.525   2.012
  975SOL    MW4 3932   0.001   2.440   2.033
  976SOL     OW 3933   0.006   2.699   1.858
  976SOL    HW2 3934  -0.057   2.762   1.894
  976SOL    HW3 3935  -0.026   2.681   1.770
  976SOL    MW4 3936  -0.007   2.705   1.851
  977SOL     OW 3937   0.219   2.816   2.000
  977SOL    HW2 3938   0.195   2.908   1.989
  977SOL    HW3 3939   0.159   2.769   1.942
  977SOL    MW4 3940   0.208   2.822   1.991
  978SOL     OW 3941   0.194   3.072   1.908
  978SOL    HW2 3942   0.266   3.127   1.939
  978SOL    HW3 3943   0.201   3.073   1.813
  978SOL    MW4 3944   0.204   3.079   1.900
  979SOL     OW 3945   4.464   3.223   1.960
  979SOL    HW2 3946   4.390   3.176   1.922
  979SOL    HW3 3947   4.538   3.162   1.955
  979SOL    MW4 3948   4.464   3.209   1.954
  980SOL     OW 3949   0.038   3.496   1.860
  980SOL    HW2 3950   0.115   3.534   1.903
  980SOL    HW3 3951   0.022   3.414   1.908
  980SOL    MW4 3952   0.046   3.490   1.872
  981SOL     OW 3953   0.260   3.601   1.971
  981SOL    HW2 3954   0.259   3.578   2.064
  981SOL    HW3 3955   0.339   3.560   1.937
  981SOL    MW4 3956   0.270   3.592   1.979
  982SOL     OW 3957   0.218   3.877   1.909
  982SOL    HW2 3958   0.301   3.918   1.936
  982SOL    HW3 3959   0.226   3.786   1.936
  982SOL    MW4 3960   0.230   3.870   1.916
  983SOL     OW 3961   0.010   4.029   1.988
  983SOL    HW2 3962   0.036   4.115   1.954
  983SOL    HW3 3963   0.072   3.968   1.948
  983SOL    MW4 3964   0.022   4.032   1.979
  984SOL     OW 3965   0.027   4.274   1.860
  984SOL    HW2 3966  -0.048   4.297   1.916
  984SOL    HW3 3967   0.101   4.318   1.901
  984SOL    MW4 3968   0.027   4.283   1.873
  985SOL     OW 3969   0.273   4.377   1.983
  985SOL    HW2 3970   0.265   4.369   2.078
  985SOL    HW3 3971   0.265   4.471   1.966
  985SOL    MW4 3972   0.271   4.388   1.993
  986SOL     OW 3973   0.701   4.627   1.886
  986SOL    HW2 3974   0.722   4.541   1.922
  986SOL    HW3 3975   0.683   4.610   1.794
  986SOL    MW4 3976   0.701   4.613   1.879
  987SOL     OW 3977   0.454   0.049   1.991
  987SOL    HW2 3978   0.452   0.141   1.962
  987SOL    HW3 3979   0.538   0.016   1.958
  987SOL    MW4 3980   0.465   0.057   1.983
  988SOL     OW 3981   0.438   0.325   1.895
  988SOL    HW2 3982   0.519   0.371   1.918
  988SOL    HW3 3983   0.432   0.334   1.800
  988SOL    MW4 3984   0.448   0.332   1.885
  989SOL     OW 3985   0.643   0.504   1.943
  989SOL    HW2 3986   0.660   0.537   2.031
  989SOL    HW3 3987   0.720   0.450   1.922
  989SOL    MW4 3988   0.656   0.501   1.951
  990SOL     OW 3989   0.682   0.774   1.865
  990SOL    HW2 3990   0.768   0.801   1.897
  990SOL    HW3 3991   0.680   0.679   1.876
  990SOL    MW4 3992   0.693   0.765   1.871
  991SOL     OW 3993   0.460   0.889   1.989
  991SOL    HW2 3994   0.462   0.974   1.945
  991SOL    HW3 3995   0.545   0.849   1.968
  991SOL    MW4 3996   0.472   0.895   1.980
  992SOL     OW 3997   0.440   1.137   1.882
  992SOL    HW2 3998   0.365   1.178   1.924
  992SOL    HW3 3999   0.422   1.144   1.788
  992SOL    MW4 4000   0.428   1.143   1.875
  993SOL     OW 4001   0.654   1.297   1.980
  993SOL    HW2 4002   0.676   1.281   2.072
  993SOL    HW3 4003   0.579   1.240   1.963
  993SOL    MW4 4004   0.647   1.287   1.990
  994SOL     OW 4005   0.688   1.542   1.873
  994SOL    HW2 4006   0.665   1.459   1.915
  994SOL    HW3 4007   0.679   1.524   1.779
  994SOL    MW4 4008   0.684   1.528   1.866
  995SOL     OW 4009   0.455   1.672   1.945
  995SOL    HW2 4010   0.445   1.669   2.040
  995SOL    HW3 4011   0.533   1.619   1.927
  995SOL    MW4 4012   0.464   1.665   1.955
  996SOL     OW 4013   0.467   1.946   1.854
  996SOL    HW2 4014   0.482   1.858   1.890
  996SOL    HW3 4015   0.386   1.975   1.896
  996SOL    MW4 4016   0.458   1.938   1.865
  997SOL     OW 4017   0.668   2.104   1.975
  997SOL    HW2 4018   0.689   2.077   2.065
  997SOL    HW3 4019   0.613   2.033   1.941
  997SOL    MW4 4020   0.663   2.091   1.983
  998SOL     OW 4021   0.703   2.361   1.888
  998SOL    HW2 4022   0.695   2.269   1.915
  998SOL    HW3 4023   0.684   2.360   1.795
  998SOL    MW4 4024   0.700   2.349   1.880
  999SOL     OW 4025   0.444   2.461   1.961
  999SOL    HW2 4026   0.441   2.457   2.056
  999SOL    HW3 4027   0.522   2.412   1.937
  999SOL    MW4 4028   0.454   2.454   1.970
 1000SOL     OW 4029   0.453   2.712   1.872
 1000SOL    HW2 4030   0.457   2.619   1.894
 1000SOL    HW3 4031   0.377   2.745   1.920
 1000SOL    MW4 4032   0.443   2.704   1.881
 1001SOL     OW 4033   0.678   2.841   1.975
 1001SOL    HW2 4034   0.683   2.837   2.070
 1001SOL    HW3 4035   0.597   2.795   1.953
 1001SOL    MW4 4036   0.668   2.834   1.985
 1002SOL     OW 4037   0.653   3.092   1.868
 1002SOL    HW2 4038   0.675   3.007   1.907
 1002SOL    HW3 4039   0.637   3.071   1.775
 1002SOL    MW4 4040   0.654   3.078   1.861
 1003SOL     OW 4041   0.420   3.216   1.988
 1003SOL    HW2 4042   0.428   3.302   1.947
 1003SOL    HW3 4043   0.492   3.164   1.951
 1003SOL    MW4 4044   0.431   3.220   1.978
 1004SOL     OW 4045   0.474   3.461   1.861
 1004SOL    HW2 4046   0.557   3.488   1.901
 1004SOL    HW3 4047   0.490   3.465   1.767
 1004SOL    MW4 4048   0.487   3.465   1.854
 1005SOL     OW 4049   0.663   3.606   2.016
 1005SOL    HW2 4050   0.750   3.577   1.991
 1005SOL    HW3 4051   0.652   3.691   1.972
 1005SOL    MW4 4052   0.673   3.614   2.007
 1006SOL     OW 4053   0.676   3.855   1.889
 1006SOL    HW2 4054   0.756   3.897   1.919
 1006SOL    HW3 4055   0.674   3.870   1.795
 1006SOL    MW4 4056   0.686   3.863   1.881
 1007SOL     OW 4057   0.460   3.988   2.012
 1007SOL    HW2 4058   0.454   4.080   1.985
 1007SOL    HW3 4059   0.536   3.954   1.964
 1007SOL    MW4 4060   0.470   3.996   2.002
 1008SOL     OW 4061   0.484   4.242   1.891
 1008SOL    HW2 4062   0.407   4.291   1.919
 1008SOL    HW3 4063   0.485   4.251   1.796
 1008SOL    MW4 4064   0.474   4.250   1.882
 1009SOL     OW 4065   0.719   4.369   1.984
 1009SOL    HW2 4066   0.795   4.331   1.940
 1009SOL    HW3 4067   0.643   4.328   1.943
 1009SOL    MW4 4068   0.719   4.359   1.973
 1010SOL     OW 4069   1.130   4.659   1.908
 1010SOL    HW2 4070   1.218   4.688   1.929
 1010SOL    HW3 4071   1.133   4.563   1.917
 1010SOL    MW4 4072   1.142   4.650   1.912
 1011SOL     OW 4073   0.899   0.125   1.995
 1011SOL    HW2 4074   0.978   0.085   1.959
 1011SOL    HW3 4075   0.827   0.073   1.959
 1011SOL    MW4 4076   0.900   0.113   1.986
 1012SOL     OW 4077   0.888   0.391   1.914
 1012SOL    HW2 4078   0.970   0.433   1.939
 1012SOL    HW3 4079   0.892   0.304   1.954
 1012SOL    MW4 4080   0.899   0.385   1.923
 1013SOL     OW 4081   1.147   0.483   1.951
 1013SOL    HW2 4082   1.228   0.438   1.929
 1013SOL    HW3 4083   1.159   0.572   1.916
 1013SOL    MW4 4084   1.159   0.489   1.943
 1014SOL     OW 4085   1.152   0.758   1.838
 1014SOL    HW2 4086   1.231   0.792   1.882
 1014SOL    HW3 4087   1.080   0.804   1.881
 1014SOL    MW4 4088   1.153   0.769   1.850
 1015SOL     OW 4089   0.919   0.891   1.947
 1015SOL    HW2 4090   0.918   0.894   2.043
 1015SOL    HW3 4091   0.898   0.981   1.920
 1015SOL    MW4 4092   0.916   0.904   1.956
 1016SOL     OW 4093   0.886   1.162   1.875
 1016SOL    HW2 4094   0.807   1.206   1.906
 1016SOL    HW3 4095   0.888   1.179   1.781
 1016SOL    MW4 4096   0.876   1.170   1.867
 1017SOL     OW 4097   1.134   1.281   1.974
 1017SOL    HW2 4098   1.141   1.374   1.956
 1017SOL    HW3 4099   1.048   1.256   1.939
 1017SOL    MW4 4100   1.123   1.290   1.967
 1018SOL     OW 4101   1.156   1.560   1.893
 1018SOL    HW2 4102   1.075   1.600   1.924
 1018SOL    HW3 4103   1.146   1.555   1.798
 1018SOL    MW4 4104   1.144   1.564   1.885
 1019SOL     OW 4105   0.905   1.696   1.966
 1019SOL    HW2 4106   0.900   1.776   1.914
 1019SOL    HW3 4107   0.840   1.638   1.927
 1019SOL    MW4 4108   0.896   1.699   1.954
 1020SOL     OW 4109   0.877   1.949   1.867
 1020SOL    HW2 4110   0.811   2.007   1.906
 1020SOL    HW3 4111   0.855   1.947   1.774
 1020SOL    MW4 4112   0.865   1.956   1.860
 1021SOL     OW 4113   1.122   2.031   1.976
 1021SOL    HW2 4114   1.128   2.121   1.945
 1021SOL    HW3 4115   1.040   1.999   1.939
 1021SOL    MW4 4116   1.112   2.038   1.967
 1022SOL     OW 4117   1.134   2.299   1.881
 1022SOL    HW2 4118   1.208   2.356   1.902
 1022SOL    HW3 4119   1.121   2.311   1.787
 1022SOL    MW4 4120   1.142   2.308   1.872
 1023SOL     OW 4121   0.940   2.465   1.973
 1023SOL    HW2 4122   1.005   2.399   1.949
 1023SOL    HW3 4123   0.861   2.440   1.925
 1023SOL    MW4 4124   0.938   2.453   1.963
 1024SOL     OW 4125   0.921   2.745   1.871
 1024SOL    HW2 4126   0.925   2.650   1.879
 1024SOL    HW3 4127   0.843   2.770   1.921
 1024SOL    MW4 4128   0.911   2.736   1.879
 1025SOL     OW 4129   1.166   2.862   1.970
 1025SOL    HW2 4130   1.161   2.849   2.065
 1025SOL    HW3 4131   1.083   2.826   1.938
 1025SOL    MW4 4132   1.154   2.855   1.979
 1026SOL     OW 4133   1.129   3.130   1.875
 1026SOL    HW2 4134   1.042   3.167   1.892
 1026SOL    HW3 4135   1.129   3.047   1.924
 1026SOL    MW4 4136   1.117   3.124   1.884
 1027SOL     OW 4137   0.874   3.206   1.977
 1027SOL    HW2 4138   0.862   3.208   2.072
 1027SOL    HW3 4139   0.792   3.173   1.943
 1027SOL    MW4 4140   0.862   3.202   1.985
 1028SOL     OW 4141   0.911   3.499   1.940
 1028SOL    HW2 4142   0.899   3.404   1.945
 1028SOL    HW3 4143   0.908   3.520   1.847
 1028SOL    MW4 4144   0.909   3.489   1.929
 1029SOL     OW 4145   1.189   3.614   2.040
 1029SOL    HW2 4146   1.180   3.623   2.135
 1029SOL    HW3 4147   1.106   3.575   2.012
 1029SOL    MW4 4148   1.177   3.610   2.049
 1030SOL     OW 4149   1.163   3.857   1.914
 1030SOL    HW2 4150   1.186   3.767   1.938
 1030SOL    HW3 4151   1.145   3.852   1.820
 1030SOL    MW4 4152   1.164   3.844   1.905
 1031SOL     OW 4153   0.929   3.969   1.991
 1031SOL    HW2 4154   0.920   3.965   2.087
 1031SOL    HW3 4155   1.011   3.923   1.974
 1031SOL    MW4 4156   0.939   3.962   2.002
 1032SOL     OW 4157   0.922   4.212   1.845
 1032SOL    HW2 4158   0.994   4.260   1.885
 1032SOL    HW3 4159   0.906   4.138   1.904
 1032SOL    MW4 4160   0.929   4.209   1.858
 1033SOL     OW 4161   1.121   4.371   1.954
 1033SOL    HW2 4162   1.117   4.369   2.049
 1033SOL    HW3 4163   1.207   4.337   1.932
 1033SOL    MW4 4164   1.131   4.366   1.964
 1034SOL     OW 4165   1.566   4.626   1.847
 1034SOL    HW2 4166   1.649   4.664   1.877
 1034SOL    HW3 4167   1.562   4.540   1.889
 1034SOL    MW4 4168   1.576   4.619   1.857
 1035SOL     OW 4169   1.370   0.108   1.973
 1035SOL    HW2 4170   1.369   0.070   2.060
 1035SOL    HW3 4171   1.439   0.062   1.927
 1035SOL    MW4 4172   1.379   0.097   1.978
 1036SOL     OW 4173   1.375   0.364   1.887
 1036SOL    HW2 4174   1.373   0.271   1.908
 1036SOL    HW3 4175   1.362   0.367   1.792
 1036SOL    MW4 4176   1.373   0.352   1.877
 1037SOL     OW 4177   1.604   0.511   1.967
 1037SOL    HW2 4178   1.679   0.454   1.949
 1037SOL    HW3 4179   1.527   0.454   1.955
 1037SOL    MW4 4180   1.604   0.496   1.963
 1038SOL     OW 4181   1.628   0.752   1.845
 1038SOL    HW2 4182   1.692   0.793   1.904
 1038SOL    HW3 4183   1.602   0.671   1.891
 1038SOL    MW4 4184   1.633   0.747   1.859
 1039SOL     OW 4185   1.391   0.869   1.947
 1039SOL    HW2 4186   1.391   0.844   2.039
 1039SOL    HW3 4187   1.470   0.828   1.911
 1039SOL    MW4 4188   1.402   0.860   1.954
 1040SOL     OW 4189   1.358   1.142   1.859
 1040SOL    HW2 4190   1.360   1.051   1.887
 1040SOL    HW3 4191   1.286   1.181   1.907
 1040SOL    MW4 4192   1.349   1.135   1.869
 1041SOL     OW 4193   1.578   1.268   1.961
 1041SOL    HW2 4194   1.582   1.355   1.920
 1041SOL    HW3 4195   1.494   1.232   1.931
 1041SOL    MW4 4196   1.567   1.275   1.952
 1042SOL     OW 4197   1.599   1.529   1.848
 1042SOL    HW2 4198   1.673   1.576   1.887
 1042SOL    HW3 4199   1.523   1.581   1.873
 1042SOL    MW4 4200   1.599   1.542   1.857
 1043SOL     OW 4201   1.393   1.678   1.972
 1043SOL    HW2 4202   1.384   1.686   2.067
 1043SOL    HW3 4203   1.314   1.632   1.944
 1043SOL    MW4 4204   1.381   1.673   1.980
 1044SOL     OW 4205   1.357   1.914   1.851
 1044SOL    HW2 4206   1.374   1.828   1.890
 1044SOL    HW3 4207   1.285   1.950   1.903
 1044SOL    MW4 4208   1.350   1.907   1.863
 1045SOL     OW 4209   1.604   2.046   1.953
 1045SOL    HW2 4210   1.601   2.138   1.926
 1045SOL    HW3 4211   1.527   2.007   1.911
 1045SOL    MW4 4212   1.593   2.053   1.944
 1046SOL     OW 4213   1.564   2.321   1.854
 1046SOL    HW2 4214   1.654   2.350   1.868
 1046SOL    HW3 4215   1.548   2.336   1.761
 1046SOL    MW4 4216   1.574   2.327   1.844
 1047SOL     OW 4217   1.356   2.452   1.984
 1047SOL    HW2 4218   1.368   2.536   1.939
 1047SOL    HW3 4219   1.431   2.400   1.959
 1047SOL    MW4 4220   1.367   2.456   1.975
 1048SOL     OW 4221   1.380   2.703   1.879
 1048SOL    HW2 4222   1.318   2.765   1.916
 1048SOL    HW3 4223   1.352   2.692   1.788
 1048SOL    MW4 4224   1.368   2.710   1.872
 1049SOL     OW 4225   1.605   2.849   1.978
 1049SOL    HW2 4226   1.681   2.806   1.939
 1049SOL    HW3 4227   1.530   2.797   1.949
 1049SOL    MW4 4228   1.605   2.837   1.969
 1050SOL     OW 4229   1.544   3.093   1.880
 1050SOL    HW2 4230   1.567   3.012   1.925
 1050SOL    HW3 4231   1.550   3.072   1.787
 1050SOL    MW4 4232   1.547   3.080   1.874
 1051SOL     OW 4233   1.346   3.230   1.999
 1051SOL    HW2 4234   1.418   3.177   1.965
 1051SOL    HW3 4235   1.267   3.189   1.964
 1051SOL    MW4 4236   1.345   3.217   1.990
 1052SOL     OW 4237   1.377   3.481   1.884
 1052SOL    HW2 4238   1.391   3.388   1.904
 1052SOL    HW3 4239   1.323   3.513   1.956
 1052SOL    MW4 4240   1.372   3.473   1.896
 1053SOL     OW 4241   1.623   3.600   1.975
 1053SOL    HW2 4242   1.630   3.604   2.071
 1053SOL    HW3 4243   1.539   3.556   1.960
 1053SOL    MW4 4244   1.613   3.595   1.986
 1054SOL     OW 4245   1.596   3.858   1.855
 1054SOL    HW2 4246   1.667   3.912   1.892
 1054SOL    HW3 4247   1.613   3.770   1.888
 1054SOL    MW4 4248   1.608   3.854   1.864
 1055SOL     OW 4249   1.376   4.009   1.960
 1055SOL    HW2 4250   1.445   3.958   1.919
 1055SOL    HW3 4251   1.298   3.954   1.952
 1055SOL    MW4 4252   1.375   3.995   1.954
 1056SOL     OW 4253   1.343   4.258   1.850
 1056SOL    HW2 4254   1.359   4.169   1.880
 1056SOL    HW3 4255   1.327   4.249   1.756
 1056SOL    MW4 4256   1.343   4.245   1.842
 1057SOL     OW 4257   1.557   4.372   1.956
 1057SOL    HW2 4258   1.539   4.357   2.049
 1057SOL    HW3 4259   1.488   4.323   1.910
 1057SOL    MW4 4260   1.545   4.364   1.962
 1058SOL     OW 4261   2.024   0.009   1.854
 1058SOL    HW2 4262   2.086   0.057   1.908
 1058SOL    HW3 4263   2.016  -0.077   1.896
 1058SOL    MW4 4264   2.031   0.004   1.867
 1059SOL     OW 4265   1.791   0.073   1.959
 1059SOL    HW2 4266   1.795   0.050   2.051
 1059SOL    HW3 4267   1.878   0.055   1.925
 1059SOL    MW4 4268   1.803   0.068   1.966
 1060SOL     OW 4269   1.795   0.342   1.852
 1060SOL    HW2 4270   1.787   0.248   1.868
 1060SOL    HW3 4271   1.786   0.351   1.757
 1060SOL    MW4 4272   1.793   0.331   1.842
 1061SOL     OW 4273   2.036   0.508   1.916
 1061SOL    HW2 4274   2.017   0.598   1.891
 1061SOL    HW3 4275   1.955   0.460   1.897
 1061SOL    MW4 4276   2.023   0.514   1.911
 1062SOL     OW 4277   1.996   0.758   1.869
 1062SOL    HW2 4278   2.082   0.789   1.897
 1062SOL    HW3 4279   1.999   0.765   1.773
 1062SOL    MW4 4280   2.008   0.763   1.860
 1063SOL     OW 4281   1.797   0.894   2.015
 1063SOL    HW2 4282   1.783   0.975   1.967
 1063SOL    HW3 4283   1.876   0.856   1.976
 1063SOL    MW4 4284   1.806   0.900   2.004
 1064SOL     OW 4285   1.782   1.111   1.848
 1064SOL    HW2 4286   1.703   1.159   1.873
 1064SOL    HW3 4287   1.781   1.112   1.752
 1064SOL    MW4 4288   1.771   1.118   1.838
 1065SOL     OW 4289   1.976   1.268   1.961
 1065SOL    HW2 4290   2.063   1.233   1.945
 1065SOL    HW3 4291   1.917   1.204   1.921
 1065SOL    MW4 4292   1.980   1.255   1.953
 1066SOL     OW 4293   2.036   1.510   1.845
 1066SOL    HW2 4294   2.008   1.424   1.878
 1066SOL    HW3 4295   2.009   1.510   1.753
 1066SOL    MW4 4296   2.029   1.498   1.837
 1067SOL     OW 4297   1.819   1.673   1.954
 1067SOL    HW2 4298   1.811   1.764   1.926
 1067SOL    HW3 4299   1.902   1.644   1.917
 1067SOL    MW4 4300   1.829   1.681   1.945
 1068SOL     OW 4301   1.825   1.938   1.875
 1068SOL    HW2 4302   1.745   1.981   1.907
 1068SOL    HW3 4303   1.822   1.950   1.780
 1068SOL    MW4 4304   1.814   1.946   1.867
 1069SOL     OW 4305   2.043   2.074   1.957
 1069SOL    HW2 4306   2.120   2.029   1.922
 1069SOL    HW3 4307   1.972   2.010   1.950
 1069SOL    MW4 4308   2.044   2.060   1.951
 1070SOL     OW 4309   2.028   2.317   1.834
 1070SOL    HW2 4310   2.109   2.357   1.864
 1070SOL    HW3 4311   2.024   2.233   1.880
 1070SOL    MW4 4312   2.038   2.312   1.844
 1071SOL     OW 4313   1.819   2.437   1.943
 1071SOL    HW2 4314   1.825   2.438   2.038
 1071SOL    HW3 4315   1.905   2.407   1.913
 1071SOL    MW4 4316   1.831   2.433   1.951
 1072SOL     OW 4317   1.821   2.701   1.873
 1072SOL    HW2 4318   1.814   2.607   1.890
 1072SOL    HW3 4319   1.812   2.709   1.778
 1072SOL    MW4 4320   1.819   2.689   1.863
 1073SOL     OW 4321   2.064   2.833   1.951
 1073SOL    HW2 4322   2.056   2.834   2.046
 1073SOL    HW3 4323   1.981   2.796   1.920
 1073SOL    MW4 4324   2.052   2.828   1.959
 1074SOL     OW 4325   2.033   3.070   1.830
 1074SOL    HW2 4326   1.949   3.109   1.858
 1074SOL    HW3 4327   2.034   2.984   1.873
 1074SOL    MW4 4328   2.022   3.064   1.840
 1075SOL     OW 4329   1.805   3.180   1.943
 1075SOL    HW2 4330   1.818   3.185   2.037
 1075SOL    HW3 4331   1.712   3.161   1.932
 1075SOL    MW4 4332   1.795   3.178   1.954
 1076SOL     OW 4333   1.819   3.466   1.842
 1076SOL    HW2 4334   1.827   3.378   1.878
 1076SOL    HW3 4335   1.744   3.504   1.887
 1076SOL    MW4 4336   1.811   3.459   1.853
 1077SOL     OW 4337   2.062   3.579   1.901
 1077SOL    HW2 4338   2.044   3.671   1.878
 1077SOL    HW3 4339   1.984   3.532   1.871
 1077SOL    MW4 4340   2.050   3.585   1.894
 1078SOL     OW 4341   2.006   3.860   1.867
 1078SOL    HW2 4342   2.090   3.895   1.898
 1078SOL    HW3 4343   2.003   3.881   1.774
 1078SOL    MW4 4344   2.017   3.867   1.859
 1079SOL     OW 4345   1.788   3.991   1.988
 1079SOL    HW2 4346   1.802   4.085   1.975
 1079SOL    HW3 4347   1.860   3.950   1.941
 1079SOL    MW4 4348   1.799   3.998   1.980
 1080SOL     OW 4349   1.788   4.236   1.884
 1080SOL    HW2 4350   1.716   4.293   1.913
 1080SOL    HW3 4351   1.790   4.245   1.789
 1080SOL    MW4 4352   1.779   4.244   1.875
 1081SOL     OW 4353   2.014   4.393   1.970
 1081SOL    HW2 4354   2.092   4.352   1.934
 1081SOL    HW3 4355   1.943   4.331   1.954
 1081SOL    MW4 4356   2.015   4.380   1.963
 1082SOL     OW 4357   2.445   0.012   1.879
 1082SOL    HW2 4358   2.519   0.057   1.919
 1082SOL    HW3 4359   2.454  -0.079   1.906
 1082SOL    MW4 4360   2.456   0.006   1.888
 1083SOL     OW 4361   2.226   0.139   1.987
 1083SOL    HW2 4362   2.234   0.110   2.078
 1083SOL    HW3 4363   2.305   0.104   1.944
 1083SOL    MW4 4364   2.238   0.130   1.993
 1084SOL     OW 4365   2.288   0.383   1.870
 1084SOL    HW2 4366   2.287   0.295   1.907
 1084SOL    HW3 4367   2.202   0.418   1.889
 1084SOL    MW4 4368   2.277   0.376   1.877
 1085SOL     OW 4369   2.486   0.499   2.023
 1085SOL    HW2 4370   2.563   0.475   1.970
 1085SOL    HW3 4371   2.412   0.458   1.978
 1085SOL    MW4 4372   2.487   0.491   2.010
 1086SOL     OW 4373   2.469   0.754   1.882
 1086SOL    HW2 4374   2.466   0.676   1.936
 1086SOL    HW3 4375   2.481   0.721   1.793
 1086SOL    MW4 4376   2.470   0.740   1.877
 1087SOL     OW 4377   2.235   0.883   1.963
 1087SOL    HW2 4378   2.226   0.862   2.056
 1087SOL    HW3 4379   2.307   0.827   1.933
 1087SOL    MW4 4380   2.243   0.873   1.971
 1088SOL     OW 4381   2.224   1.159   1.920
 1088SOL    HW2 4382   2.297   1.196   1.968
 1088SOL    HW3 4383   2.227   1.065   1.941
 1088SOL    MW4 4384   2.234   1.152   1.929
 1089SOL     OW 4385   2.476   1.278   2.010
 1089SOL    HW2 4386   2.478   1.284   2.105
 1089SOL    HW3 4387   2.467   1.369   1.981
 1089SOL    MW4 4388   2.475   1.291   2.019
 1090SOL     OW 4389   2.470   1.521   1.917
 1090SOL    HW2 4390   2.397   1.581   1.933
 1090SOL    HW3 4391   2.480   1.519   1.822
 1090SOL    MW4 4392   2.462   1.529   1.906
 1091SOL     OW 4393   2.238   1.689   1.954
 1091SOL    HW2 4394   2.232   1.669   2.048
 1091SOL    HW3 4395   2.172   1.634   1.913
 1091SOL    MW4 4396   2.229   1.679   1.961
 1092SOL     OW 4397   2.258   1.952   1.847
 1092SOL    HW2 4398   2.337   1.980   1.892
 1092SOL    HW3 4399   2.241   1.864   1.881
 1092SOL    MW4 4400   2.266   1.944   1.857
 1093SOL     OW 4401   2.474   2.004   1.996
 1093SOL    HW2 4402   2.550   1.965   1.952
 1093SOL    HW3 4403   2.466   2.092   1.957
 1093SOL    MW4 4404   2.483   2.011   1.985
 1094SOL     OW 4405   2.433   2.248   1.880
 1094SOL    HW2 4406   2.515   2.295   1.898
 1094SOL    HW3 4407   2.365   2.306   1.912
 1094SOL    MW4 4408   2.435   2.262   1.887
 1095SOL     OW 4409   2.252   2.425   1.948
 1095SOL    HW2 4410   2.249   2.430   2.044
 1095SOL    HW3 4411   2.265   2.516   1.920
 1095SOL    MW4 4412   2.253   2.438   1.957
 1096SOL     OW 4413   2.300   2.679   1.847
 1096SOL    HW2 4414   2.231   2.743   1.864
 1096SOL    HW3 4415   2.303   2.671   1.752
 1096SOL    MW4 4416   2.291   2.686   1.837
 1097SOL     OW 4417   2.488   2.835   1.984
 1097SOL    HW2 4418   2.468   2.927   1.968
 1097SOL    HW3 4419   2.417   2.787   1.942
 1097SOL    MW4 4420   2.476   2.841   1.977
 1098SOL     OW 4421   2.465   3.086   1.858
 1098SOL    HW2 4422   2.383   3.114   1.898
 1098SOL    HW3 4423   2.442   3.066   1.767
 1098SOL    MW4 4424   2.451   3.087   1.851
 1099SOL     OW 4425   2.255   3.224   1.959
 1099SOL    HW2 4426   2.247   3.200   2.051
 1099SOL    HW3 4427   2.187   3.172   1.915
 1099SOL    MW4 4428   2.245   3.214   1.965
 1100SOL     OW 4429   2.305   3.475   1.890
 1100SOL    HW2 4430   2.288   3.387   1.923
 1100SOL    HW3 4431   2.221   3.520   1.898
 1100SOL    MW4 4432   2.292   3.470   1.895
 1101SOL     OW 4433   2.513   3.628   2.006
 1101SOL    HW2 4434   2.492   3.617   2.099
 1101SOL    HW3 4435   2.448   3.574   1.960
 1101SOL    MW4 4436   2.501   3.619   2.012
 1102SOL     OW 4437   2.463   3.855   1.849
 1102SOL    HW2 4438   2.386   3.900   1.881
 1102SOL    HW3 4439   2.464   3.772   1.897
 1102SOL    MW4 4440   2.453   3.850   1.860
 1103SOL     OW 4441   2.241   3.983   1.940
 1103SOL    HW2 4442   2.262   3.993   2.033
 1103SOL    HW3 4443   2.243   4.073   1.906
 1103SOL    MW4 4444   2.244   3.996   1.948
 1104SOL     OW 4445   2.230   4.240   1.878
 1104SOL    HW2 4446   2.299   4.298   1.910
 1104SOL    HW3 4447   2.222   4.261   1.785
 1104SOL    MW4 4448   2.238   4.250   1.870
 1105SOL     OW 4449   2.461   4.387   1.968
 1105SOL    HW2 4450   2.486   4.383   2.061
 1105SOL    HW3 4451   2.536   4.349   1.922
 1105SOL    MW4 4452   2.474   4.381   1.974
 1106SOL     OW 4453   2.869   4.633   1.860
 1106SOL    HW2 4454   2.958   4.661   1.882
 1106SOL    HW3 4455   2.864   4.543   1.891
 1106SOL    MW4 4456   2.880   4.625   1.867
 1107SOL     OW 4457   2.680   0.140   1.953
 1107SOL    HW2 4458   2.682   0.132   2.049
 1107SOL    HW3 4459   2.745   0.075   1.923
 1107SOL    MW4 4460   2.689   0.130   1.962
 1108SOL     OW 4461   2.673   0.395   1.852
 1108SOL    HW2 4462   2.761   0.430   1.860
 1108SOL    HW3 4463   2.682   0.303   1.875
 1108SOL    MW4 4464   2.686   0.387   1.856
 1109SOL     OW 4465   2.922   0.504   1.944
 1109SOL    HW2 4466   2.995   0.455   1.906
 1109SOL    HW3 4467   2.948   0.596   1.935
 1109SOL    MW4 4468   2.935   0.510   1.938
 1110SOL     OW 4469   2.912   0.769   1.874
 1110SOL    HW2 4470   2.988   0.818   1.903
 1110SOL    HW3 4471   2.843   0.792   1.936
 1110SOL    MW4 4472   2.913   0.779   1.886
 1111SOL     OW 4473   2.675   0.893   1.993
 1111SOL    HW2 4474   2.684   0.970   1.938
 1111SOL    HW3 4475   2.605   0.842   1.953
 1111SOL    MW4 4476   2.667   0.896   1.981
 1112SOL     OW 4477   2.696   1.152   1.878
 1112SOL    HW2 4478   2.612   1.191   1.903
 1112SOL    HW3 4479   2.696   1.152   1.783
 1112SOL    MW4 4480   2.685   1.158   1.869
 1113SOL     OW 4481   2.935   1.269   1.982
 1113SOL    HW2 4482   2.920   1.359   1.952
 1113SOL    HW3 4483   2.853   1.223   1.963
 1113SOL    MW4 4484   2.922   1.275   1.975
 1114SOL     OW 4485   2.926   1.521   1.892
 1114SOL    HW2 4486   3.001   1.580   1.904
 1114SOL    HW3 4487   2.921   1.507   1.798
 1114SOL    MW4 4488   2.935   1.527   1.882
 1115SOL     OW 4489   2.706   1.658   2.004
 1115SOL    HW2 4490   2.781   1.621   1.957
 1115SOL    HW3 4491   2.633   1.601   1.981
 1115SOL    MW4 4492   2.706   1.645   1.995
 1116SOL     OW 4493   2.667   1.893   1.849
 1116SOL    HW2 4494   2.743   1.940   1.884
 1116SOL    HW3 4495   2.672   1.807   1.890
 1116SOL    MW4 4496   2.678   1.888   1.859
 1117SOL     OW 4497   2.895   2.017   1.960
 1117SOL    HW2 4498   2.914   2.015   2.054
 1117SOL    HW3 4499   2.974   1.985   1.918
 1117SOL    MW4 4500   2.908   2.013   1.967
 1118SOL     OW 4501   2.925   2.309   1.891
 1118SOL    HW2 4502   3.003   2.352   1.927
 1118SOL    HW3 4503   2.937   2.216   1.913
 1118SOL    MW4 4504   2.937   2.302   1.898
 1119SOL     OW 4505   2.665   2.385   1.922
 1119SOL    HW2 4506   2.672   2.480   1.932
 1119SOL    HW3 4507   2.756   2.356   1.913
 1119SOL    MW4 4508   2.678   2.394   1.922
 1120SOL     OW 4509   2.680   2.674   1.873
 1120SOL    HW2 4510   2.622   2.731   1.924
 1120SOL    HW3 4511   2.641   2.672   1.786
 1120SOL    MW4 4512   2.667   2.681   1.869
 1121SOL     OW 4513   2.888   2.788   2.003
 1121SOL    HW2 4514   2.891   2.879   1.975
 1121SOL    HW3 4515   2.822   2.748   1.947
 1121SOL    MW4 4516   2.879   2.795   1.992
 1122SOL     OW 4517   2.898   3.062   1.907
 1122SOL    HW2 4518   2.978   3.108   1.933
 1122SOL    HW3 4519   2.827   3.118   1.939
 1122SOL    MW4 4520   2.900   3.076   1.915
 1123SOL     OW 4521   2.681   3.214   1.952
 1123SOL    HW2 4522   2.686   3.306   1.925
 1123SOL    HW3 4523   2.610   3.177   1.900
 1123SOL    MW4 4524   2.673   3.221   1.942
 1124SOL     OW 4525   2.694   3.492   1.880
 1124SOL    HW2 4526   2.779   3.534   1.897
 1124SOL    HW3 4527   2.633   3.538   1.937
 1124SOL    MW4 4528   2.697   3.504   1.890
 1125SOL     OW 4529   2.927   3.624   1.964
 1125SOL    HW2 4530   2.939   3.601   2.056
 1125SOL    HW3 4531   2.999   3.581   1.918
 1125SOL    MW4 4532   2.938   3.616   1.970
 1126SOL     OW 4533   2.917   3.906   1.886
 1126SOL    HW2 4534   2.916   3.814   1.915
 1126SOL    HW3 4535   2.919   3.901   1.791
 1126SOL    MW4 4536   2.917   3.893   1.877
 1127SOL     OW 4537   2.667   3.992   1.971
 1127SOL    HW2 4538   2.749   3.947   1.953
 1127SOL    HW3 4539   2.599   3.932   1.941
 1127SOL    MW4 4540   2.669   3.978   1.965
 1128SOL     OW 4541   2.680   4.253   1.875
 1128SOL    HW2 4542   2.677   4.166   1.914
 1128SOL    HW3 4543   2.698   4.238   1.782
 1128SOL    MW4 4544   2.682   4.240   1.868
 1129SOL     OW 4545   2.918   4.381   1.966
 1129SOL    HW2 4546   2.913   4.387   2.062
 1129SOL    HW3 4547   2.836   4.341   1.940
 1129SOL    MW4 4548   2.907   4.377   1.975
 1130SOL     OW 4549   3.365   0.024   1.884
 1130SOL    HW2 4550   3.365  -0.070   1.906
 1130SOL    HW3 4551   3.381   0.026   1.790
 1130SOL    MW4 4552   3.367   0.012   1.875
 1131SOL     OW 4553   3.102   0.118   1.957
 1131SOL    HW2 4554   3.108   0.151   2.047
 1131SOL    HW3 4555   3.185   0.072   1.943
 1131SOL    MW4 4556   3.113   0.116   1.967
 1132SOL     OW 4557   3.175   0.385   1.880
 1132SOL    HW2 4558   3.155   0.301   1.922
 1132SOL    HW3 4559   3.173   0.365   1.786
 1132SOL    MW4 4560   3.172   0.371   1.873
 1133SOL     OW 4561   3.405   0.500   1.977
 1133SOL    HW2 4562   3.491   0.468   1.948
 1133SOL    HW3 4563   3.342   0.438   1.939
 1133SOL    MW4 4564   3.408   0.487   1.968
 1134SOL     OW 4565   3.358   0.748   1.848
 1134SOL    HW2 4566   3.283   0.784   1.896
 1134SOL    HW3 4567   3.370   0.660   1.884
 1134SOL    MW4 4568   3.350   0.741   1.860
 1135SOL     OW 4569   3.159   0.874   1.969
 1135SOL    HW2 4570   3.147   0.881   2.064
 1135SOL    HW3 4571   3.150   0.964   1.937
 1135SOL    MW4 4572   3.156   0.887   1.977
 1136SOL     OW 4573   3.160   1.136   1.876
 1136SOL    HW2 4574   3.232   1.175   1.926
 1136SOL    HW3 4575   3.085   1.193   1.892
 1136SOL    MW4 4576   3.160   1.148   1.885
 1137SOL     OW 4577   3.391   1.242   1.996
 1137SOL    HW2 4578   3.396   1.268   2.088
 1137SOL    HW3 4579   3.375   1.324   1.949
 1137SOL    MW4 4580   3.389   1.256   2.002
 1138SOL     OW 4581   3.348   1.521   1.868
 1138SOL    HW2 4582   3.435   1.548   1.897
 1138SOL    HW3 4583   3.288   1.582   1.910
 1138SOL    MW4 4584   3.352   1.533   1.877
 1139SOL     OW 4585   3.150   1.673   1.975
 1139SOL    HW2 4586   3.161   1.683   2.070
 1139SOL    HW3 4587   3.173   1.760   1.940
 1139SOL    MW4 4588   3.155   1.686   1.983
 1140SOL     OW 4589   3.152   1.926   1.879
 1140SOL    HW2 4590   3.225   1.956   1.934
 1140SOL    HW3 4591   3.171   1.962   1.792
 1140SOL    MW4 4592   3.164   1.935   1.875
 1141SOL     OW 4593   3.377   2.021   1.997
 1141SOL    HW2 4594   3.449   1.967   1.966
 1141SOL    HW3 4595   3.394   2.108   1.961
 1141SOL    MW4 4596   3.389   2.026   1.988
 1142SOL     OW 4597   3.398   2.271   1.896
 1142SOL    HW2 4598   3.319   2.322   1.911
 1142SOL    HW3 4599   3.402   2.260   1.801
 1142SOL    MW4 4600   3.388   2.276   1.886
 1143SOL     OW 4601   3.177   2.433   1.955
 1143SOL    HW2 4602   3.159   2.430   2.049
 1143SOL    HW3 4603   3.161   2.524   1.930
 1143SOL    MW4 4604   3.173   2.445   1.964
 1144SOL     OW 4605   3.128   2.703   1.925
 1144SOL    HW2 4606   3.047   2.744   1.956
 1144SOL    HW3 4607   3.125   2.714   1.830
 1144SOL    MW4 4608   3.117   2.710   1.917
 1145SOL     OW 4609   3.381   2.801   1.975
 1145SOL    HW2 4610   3.383   2.810   2.070
 1145SOL    HW3 4611   3.297   2.758   1.957
 1145SOL    MW4 4612   3.370   2.796   1.985
 1146SOL     OW 4613   3.343   3.085   1.917
 1146SOL    HW2 4614   3.418   3.139   1.941
 1146SOL    HW3 4615   3.368   2.996   1.941
 1146SOL    MW4 4616   3.356   3.081   1.924
 1147SOL     OW 4617   3.113   3.222   1.970
 1147SOL    HW2 4618   3.120   3.313   1.941
 1147SOL    HW3 4619   3.195   3.182   1.943
 1147SOL    MW4 4620   3.125   3.229   1.962
 1148SOL     OW 4621   3.141   3.492   1.863
 1148SOL    HW2 4622   3.217   3.532   1.905
 1148SOL    HW3 4623   3.168   3.480   1.772
 1148SOL    MW4 4624   3.155   3.495   1.857
 1149SOL     OW 4625   3.372   3.609   1.982
 1149SOL    HW2 4626   3.440   3.550   1.948
 1149SOL    HW3 4627   3.376   3.685   1.923
 1149SOL    MW4 4628   3.382   3.611   1.970
 1150SOL     OW 4629   3.374   3.850   1.847
 1150SOL    HW2 4630   3.302   3.900   1.886
 1150SOL    HW3 4631   3.372   3.874   1.754
 1150SOL    MW4 4632   3.364   3.860   1.840
 1151SOL     OW 4633   3.169   4.011   1.956
 1151SOL    HW2 4634   3.180   4.011   2.051
 1151SOL    HW3 4635   3.082   3.974   1.943
 1151SOL    MW4 4636   3.159   4.006   1.967
 1152SOL     OW 4637   3.150   4.263   1.872
 1152SOL    HW2 4638   3.150   4.174   1.907
 1152SOL    HW3 4639   3.068   4.301   1.904
 1152SOL    MW4 4640   3.139   4.257   1.881
 1153SOL     OW 4641   3.393   4.417   1.948
 1153SOL    HW2 4642   3.465   4.357   1.926
 1153SOL    HW3 4643   3.314   4.371   1.920
 1153SOL    MW4 4644   3.392   4.403   1.941
 1154SOL     OW 4645   3.835   0.005   1.879
 1154SOL    HW2 4646   3.830  -0.087   1.905
 1154SOL    HW3 4647   3.754   0.045   1.913
 1154SOL    MW4 4648   3.823  -0.002   1.887
 1155SOL     OW 4649   3.602   0.121   1.958
 1155SOL    HW2 4650   3.610   0.116   2.053
 1155SOL    HW3 4651   3.520   0.076   1.939
 1155SOL    MW4 4652   3.592   0.114   1.968
 1156SOL     OW 4653   3.633   0.375   1.868
 1156SOL    HW2 4654   3.621   0.283   1.891
 1156SOL    HW3 4655   3.625   0.377   1.772
 1156SOL    MW4 4656   3.630   0.363   1.858
 1157SOL     OW 4657   3.812   0.499   2.047
 1157SOL    HW2 4658   3.794   0.589   2.016
 1157SOL    HW3 4659   3.754   0.444   1.993
 1157SOL    MW4 4660   3.802   0.504   2.036
 1158SOL     OW 4661   3.793   0.741   1.926
 1158SOL    HW2 4662   3.720   0.787   1.967
 1158SOL    HW3 4663   3.794   0.773   1.836
 1158SOL    MW4 4664   3.783   0.751   1.920
 1159SOL     OW 4665   3.556   0.841   2.012
 1159SOL    HW2 4666   3.568   0.927   1.972
 1159SOL    HW3 4667   3.491   0.797   1.957
 1159SOL    MW4 4668   3.549   0.846   1.999
 1160SOL     OW 4669   3.622   1.115   1.893
 1160SOL    HW2 4670   3.538   1.145   1.927
 1160SOL    HW3 4671   3.618   1.130   1.799
 1160SOL    MW4 4672   3.611   1.121   1.885
 1161SOL     OW 4673   3.838   1.249   1.970
 1161SOL    HW2 4674   3.855   1.240   2.064
 1161SOL    HW3 4675   3.750   1.212   1.958
 1161SOL    MW4 4676   3.829   1.243   1.981
 1162SOL     OW 4677   3.831   1.502   1.884
 1162SOL    HW2 4678   3.904   1.546   1.926
 1162SOL    HW3 4679   3.841   1.410   1.909
 1162SOL    MW4 4680   3.842   1.495   1.893
 1163SOL     OW 4681   3.589   1.622   1.956
 1163SOL    HW2 4682   3.592   1.714   1.933
 1163SOL    HW3 4683   3.679   1.592   1.948
 1163SOL    MW4 4684   3.601   1.630   1.952
 1164SOL     OW 4685   3.603   1.898   1.873
 1164SOL    HW2 4686   3.664   1.961   1.912
 1164SOL    HW3 4687   3.610   1.913   1.779
 1164SOL    MW4 4688   3.612   1.909   1.866
 1165SOL     OW 4689   3.815   2.050   1.925
 1165SOL    HW2 4690   3.892   2.006   1.890
 1165SOL    HW3 4691   3.823   2.141   1.895
 1165SOL    MW4 4692   3.826   2.056   1.916
 1166SOL     OW 4693   3.794   2.315   1.814
 1166SOL    HW2 4694   3.875   2.358   1.842
 1166SOL    HW3 4695   3.725   2.361   1.862
 1166SOL    MW4 4696   3.796   2.327   1.824
 1167SOL     OW 4697   3.592   2.446   1.993
 1167SOL    HW2 4698   3.582   2.525   1.940
 1167SOL    HW3 4699   3.520   2.389   1.963
 1167SOL    MW4 4700   3.581   2.449   1.982
 1168SOL     OW 4701   3.600   2.682   1.858
 1168SOL    HW2 4702   3.674   2.734   1.890
 1168SOL    HW3 4703   3.522   2.729   1.889
 1168SOL    MW4 4704   3.599   2.695   1.866
 1169SOL     OW 4705   3.817   2.812   1.973
 1169SOL    HW2 4706   3.820   2.822   2.068
 1169SOL    HW3 4707   3.807   2.902   1.940
 1169SOL    MW4 4708   3.816   2.825   1.981
 1170SOL     OW 4709   3.795   3.063   1.867
 1170SOL    HW2 4710   3.715   3.107   1.897
 1170SOL    HW3 4711   3.790   3.069   1.771
 1170SOL    MW4 4712   3.784   3.070   1.858
 1171SOL     OW 4713   3.594   3.191   1.981
 1171SOL    HW2 4714   3.613   3.194   2.075
 1171SOL    HW3 4715   3.599   3.283   1.954
 1171SOL    MW4 4716   3.598   3.204   1.990
 1172SOL     OW 4717   3.585   3.470   1.898
 1172SOL    HW2 4718   3.664   3.518   1.922
 1172SOL    HW3 4719   3.582   3.475   1.802
 1172SOL    MW4 4720   3.595   3.477   1.888
 1173SOL     OW 4721   3.815   3.594   1.940
 1173SOL    HW2 4722   3.901   3.563   1.912
 1173SOL    HW3 4723   3.817   3.689   1.925
 1173SOL    MW4 4724   3.827   3.603   1.935
 1174SOL     OW 4725   3.823   3.880   1.876
 1174SOL    HW2 4726   3.742   3.924   1.902
 1174SOL    HW3 4727   3.819   3.877   1.780
 1174SOL    MW4 4728   3.811   3.885   1.866
 1175SOL     OW 4729   3.588   3.997   1.930
 1175SOL    HW2 4730   3.577   3.986   2.025
 1175SOL    HW3 4731   3.512   3.953   1.892
 1175SOL    MW4 4732   3.577   3.990   1.938
 1176SOL     OW 4733   3.625   4.266   1.893
 1176SOL    HW2 4734   3.713   4.296   1.915
 1176SOL    HW3 4735   3.622   4.175   1.920
 1176SOL    MW4 4736   3.636   4.258   1.899
 1177SOL     OW 4737   3.842   4.437   1.980
 1177SOL    HW2 4738   3.829   4.431   2.075
 1177SOL    HW3 4739   3.918   4.383   1.963
 1177SOL    MW4 4740   3.850   4.429   1.991
 1178SOL     OW 4741   4.244   4.614   1.878
 1178SOL    HW2 4742   4.174   4.661   1.922
 1178SOL    HW3 4743   4.324   4.662   1.902
 1178SOL    MW4 4744   4.246   4.626   1.887
 1179SOL     OW 4745   4.051   0.113   1.998
 1179SOL    HW2 4746   4.036   0.093   2.090
 1179SOL    HW3 4747   3.968   0.093   1.955
 1179SOL    MW4 4748   4.038   0.108   2.004
 1180SOL     OW 4749   4.006   0.374   1.899
 1180SOL    HW2 4750   4.012   0.292   1.948
 1180SOL    HW3 4751   3.943   0.427   1.948
 1180SOL    MW4 4752   3.999   0.370   1.912
 1181SOL     OW 4753   4.286   0.501   2.020
 1181SOL    HW2 4754   4.283   0.522   2.113
 1181SOL    HW3 4755   4.210   0.444   2.006
 1181SOL    MW4 4756   4.276   0.496   2.031
 1182SOL     OW 4757   4.276   0.749   1.901
 1182SOL    HW2 4758   4.293   0.659   1.927
 1182SOL    HW3 4759   4.277   0.747   1.805
 1182SOL    MW4 4760   4.278   0.737   1.892
 1183SOL     OW 4761   4.031   0.837   2.010
 1183SOL    HW2 4762   4.098   0.803   1.950
 1183SOL    HW3 4763   3.949   0.800   1.979
 1183SOL    MW4 4764   4.029   0.828   1.998
 1184SOL     OW 4765   4.051   1.090   1.898
 1184SOL    HW2 4766   4.043   1.001   1.934
 1184SOL    HW3 4767   3.969   1.133   1.923
 1184SOL    MW4 4768   4.039   1.084   1.906
 1185SOL     OW 4769   4.235   1.286   1.987
 1185SOL    HW2 4770   4.253   1.286   2.081
 1185SOL    HW3 4771   4.163   1.223   1.976
 1185SOL    MW4 4772   4.228   1.278   1.998
 1186SOL     OW 4773   4.290   1.554   1.889
 1186SOL    HW2 4774   4.274   1.469   1.929
 1186SOL    HW3 4775   4.278   1.539   1.795
 1186SOL    MW4 4776   4.286   1.541   1.882
 1187SOL     OW 4777   4.049   1.657   1.965
 1187SOL    HW2 4778   4.063   1.647   2.060
 1187SOL    HW3 4779   4.132   1.628   1.926
 1187SOL    MW4 4780   4.062   1.652   1.973
 1188SOL     OW 4781   4.017   1.910   1.837
 1188SOL    HW2 4782   4.014   1.821   1.874
 1188SOL    HW3 4783   4.038   1.897   1.745
 1188SOL    MW4 4784   4.019   1.896   1.830
 1189SOL     OW 4785   4.222   2.052   1.956
 1189SOL    HW2 4786   4.205   2.044   2.050
 1189SOL    HW3 4787   4.155   1.997   1.914
 1189SOL    MW4 4788   4.211   2.044   1.963
 1190SOL     OW 4789   4.289   2.306   1.861
 1190SOL    HW2 4790   4.273   2.222   1.905
 1190SOL    HW3 4791   4.368   2.340   1.903
 1190SOL    MW4 4792   4.297   2.300   1.873
 1191SOL     OW 4793   4.028   2.416   1.901
 1191SOL    HW2 4794   4.035   2.414   1.996
 1191SOL    HW3 4795   4.108   2.373   1.869
 1191SOL    MW4 4796   4.039   2.410   1.909
 1192SOL     OW 4797   4.044   2.708   1.857
 1192SOL    HW2 4798   4.044   2.612   1.860
 1192SOL    HW3 4799   3.963   2.733   1.903
 1192SOL    MW4 4800   4.033   2.699   1.864
 1193SOL     OW 4801   4.289   2.849   1.984
 1193SOL    HW2 4802   4.266   2.848   2.077
 1193SOL    HW3 4803   4.218   2.800   1.941
 1193SOL    MW4 4804   4.276   2.842   1.990
 1194SOL     OW 4805   4.231   3.082   1.873
 1194SOL    HW2 4806   4.160   3.133   1.914
 1194SOL    HW3 4807   4.243   3.007   1.931
 1194SOL    MW4 4808   4.223   3.079   1.886
 1195SOL     OW 4809   3.999   3.218   1.976
 1195SOL    HW2 4810   3.978   3.211   2.069
 1195SOL    HW3 4811   3.943   3.152   1.934
 1195SOL    MW4 4812   3.989   3.208   1.982
 1196SOL     OW 4813   4.057   3.469   1.862
 1196SOL    HW2 4814   4.133   3.510   1.903
 1196SOL    HW3 4815   4.036   3.394   1.919
 1196SOL    MW4 4816   4.064   3.464   1.875
 1197SOL     OW 4817   4.273   3.596   1.953
 1197SOL    HW2 4818   4.258   3.687   1.927
 1197SOL    HW3 4819   4.358   3.574   1.914
 1197SOL    MW4 4820   4.282   3.605   1.944
 1198SOL     OW 4821   4.279   3.879   1.898
 1198SOL    HW2 4822   4.356   3.920   1.938
 1198SOL    HW3 4823   4.287   3.900   1.805
 1198SOL    MW4 4824   4.290   3.887   1.891
 1199SOL     OW 4825   4.048   4.002   1.994
 1199SOL    HW2 4826   4.126   3.956   1.962
 1199SOL    HW3 4827   3.975   3.957   1.953
 1199SOL    MW4 4828   4.049   3.990   1.984
 1200SOL     OW 4829   4.034   4.256   1.878
 1200SOL    HW2 4830   4.120   4.279   1.912
 1200SOL    HW3 4831   4.020   4.166   1.908
 1200SOL    MW4 4832   4.044   4.247   1.887
 1201SOL     OW 4833   4.267   4.358   1.979
 1201SOL    HW2 4834   4.263   4.359   2.074
 1201SOL    HW3 4835   4.260   4.450   1.953
 1201SOL    MW4 4836   4.265   4.370   1.988
 1202SOL     OW 4837   0.254   4.654   2.374
 1202SOL    HW2 4838   0.250   4.666   2.469
 1202SOL    HW3 4839   0.337   4.696   2.348
 1202SOL    MW4 4840   0.265   4.661   2.383
 1203SOL     OW 4841   0.012   0.153   2.266
 1203SOL    HW2 4842   0.080   0.086   2.262
 1203SOL    HW3 4843  -0.020   0.160   2.175
 1203SOL    MW4 4844   0.017   0.145   2.253
 1204SOL     OW 4845   0.048   0.373   2.404
 1204SOL    HW2 4846   0.117   0.426   2.363
 1204SOL    HW3 4847   0.047   0.292   2.353
 1204SOL    MW4 4848   0.057   0.369   2.392
 1205SOL     OW 4849   0.267   0.531   2.280
 1205SOL    HW2 4850   0.348   0.485   2.301
 1205SOL    HW3 4851   0.263   0.531   2.185
 1205SOL    MW4 4852   0.277   0.525   2.271
 1206SOL     OW 4853   0.223   0.784   2.392
 1206SOL    HW2 4854   0.230   0.778   2.487
 1206SOL    HW3 4855   0.237   0.694   2.361
 1206SOL    MW4 4856   0.226   0.772   2.400
 1207SOL     OW 4857   4.485   0.918   2.297
 1207SOL    HW2 4858   4.563   0.876   2.336
 1207SOL    HW3 4859   4.502   0.915   2.203
 1207SOL    MW4 4860   4.498   0.912   2.290
 1208SOL     OW 4861   0.017   1.172   2.377
 1208SOL    HW2 4862   0.009   1.173   2.472
 1208SOL    HW3 4863   0.003   1.080   2.353
 1208SOL    MW4 4864   0.014   1.160   2.386
 1209SOL     OW 4865   0.248   1.272   2.243
 1209SOL    HW2 4866   0.182   1.229   2.299
 1209SOL    HW3 4867   0.203   1.286   2.160
 1209SOL    MW4 4868   0.233   1.268   2.239
 1210SOL     OW 4869   0.244   1.543   2.311
 1210SOL    HW2 4870   0.234   1.547   2.406
 1210SOL    HW3 4871   0.250   1.450   2.291
 1210SOL    MW4 4872   0.244   1.532   2.321
 1211SOL     OW 4873   0.013   1.671   2.229
 1211SOL    HW2 4874  -0.001   1.759   2.263
 1211SOL    HW3 4875   0.093   1.641   2.272
 1211SOL    MW4 4876   0.022   1.678   2.239
 1212SOL     OW 4877   4.480   1.918   2.325
 1212SOL    HW2 4878   4.404   1.956   2.280
 1212SOL    HW3 4879   4.551   1.981   2.310
 1212SOL    MW4 4880   4.479   1.932   2.317
 1213SOL     OW 4881   0.213   2.084   2.255
 1213SOL    HW2 4882   0.282   2.022   2.279
 1213SOL    HW3 4883   0.231   2.107   2.164
 1213SOL    MW4 4884   0.224   2.079   2.246
 1214SOL     OW 4885   0.221   2.325   2.376
 1214SOL    HW2 4886   0.244   2.310   2.468
 1214SOL    HW3 4887   0.205   2.238   2.341
 1214SOL    MW4 4888   0.222   2.312   2.384
 1215SOL     OW 4889   4.479   2.431   2.287
 1215SOL    HW2 4890   4.478   2.520   2.321
 1215SOL    HW3 4891   4.560   2.393   2.321
 1215SOL    MW4 4892   4.490   2.438   2.296
 1216SOL     OW 4893   4.455   2.687   2.359
 1216SOL    HW2 4894   4.468   2.689   2.454
 1216SOL    HW3 4895   4.536   2.723   2.322
 1216SOL    MW4 4896   4.467   2.692   2.366
 1217SOL     OW 4897   0.199   2.792   2.261
 1217SOL    HW2 4898   0.280   2.751   2.289
 1217SOL    HW3 4899   0.204   2.793   2.166
 1217SOL    MW4 4900   0.210   2.787   2.253
 1218SOL     OW 4901   0.239   3.058   2.361
 1218SOL    HW2 4902   0.152   3.092   2.342
 1218SOL    HW3 4903   0.242   2.972   2.320
 1218SOL    MW4 4904   0.228   3.051   2.353
 1219SOL     OW 4905   0.000   3.204   2.234
 1219SOL    HW2 4906  -0.014   3.288   2.278
 1219SOL    HW3 4907  -0.015   3.223   2.142
 1219SOL    MW4 4908  -0.004   3.218   2.228
 1220SOL     OW 4909   0.001   3.444   2.358
 1220SOL    HW2 4910   0.013   3.463   2.452
 1220SOL    HW3 4911  -0.073   3.499   2.332
 1220SOL    MW4 4912  -0.008   3.454   2.367
 1221SOL     OW 4913   0.227   3.561   2.248
 1221SOL    HW2 4914   0.291   3.526   2.310
 1221SOL    HW3 4915   0.143   3.526   2.278
 1221SOL    MW4 4916   0.224   3.552   2.260
 1222SOL     OW 4917   0.233   3.829   2.351
 1222SOL    HW2 4918   0.144   3.860   2.338
 1222SOL    HW3 4919   0.232   3.738   2.320
 1222SOL    MW4 4920   0.221   3.821   2.345
 1223SOL     OW 4921   0.005   3.979   2.266
 1223SOL    HW2 4922   0.002   4.069   2.296
 1223SOL    HW3 4923   0.015   3.985   2.171
 1223SOL    MW4 4924   0.006   3.991   2.258
 1224SOL     OW 4925   0.003   4.246   2.364
 1224SOL    HW2 4926   0.007   4.267   2.457
 1224SOL    HW3 4927   0.079   4.289   2.326
 1224SOL    MW4 4928   0.013   4.254   2.371
 1225SOL     OW 4929   0.229   4.391   2.278
 1225SOL    HW2 4930   0.306   4.345   2.310
 1225SOL    HW3 4931   0.243   4.482   2.304
 1225SOL    MW4 4932   0.241   4.397   2.285
 1226SOL     OW 4933   0.713   4.646   2.334
 1226SOL    HW2 4934   0.725   4.631   2.428
 1226SOL    HW3 4935   0.798   4.679   2.304
 1226SOL    MW4 4936   0.726   4.648   2.342
 1227SOL     OW 4937   0.477   0.105   2.255
 1227SOL    HW2 4938   0.561   0.063   2.272
 1227SOL    HW3 4939   0.455   0.080   2.165
 1227SOL    MW4 4940   0.485   0.096   2.245
 1228SOL     OW 4941   0.505   0.383   2.342
 1228SOL    HW2 4942   0.482   0.378   2.435
 1228SOL    HW3 4943   0.466   0.304   2.303
 1228SOL    MW4 4944   0.497   0.372   2.349
 1229SOL     OW 4945   0.702   0.546   2.212
 1229SOL    HW2 4946   0.703   0.632   2.254
 1229SOL    HW3 4947   0.626   0.502   2.250
 1229SOL    MW4 4948   0.692   0.551   2.222
 1230SOL     OW 4949   0.691   0.773   2.360
 1230SOL    HW2 4950   0.698   0.763   2.455
 1230SOL    HW3 4951   0.619   0.835   2.347
 1230SOL    MW4 4952   0.682   0.780   2.371
 1231SOL     OW 4953   0.457   0.872   2.291
 1231SOL    HW2 4954   0.380   0.835   2.335
 1231SOL    HW3 4955   0.442   0.854   2.198
 1231SOL    MW4 4956   0.445   0.865   2.284
 1232SOL     OW 4957   0.471   1.148   2.340
 1232SOL    HW2 4958   0.459   1.057   2.314
 1232SOL    HW3 4959   0.396   1.194   2.303
 1232SOL    MW4 4960   0.460   1.142   2.331
 1233SOL     OW 4961   0.714   1.248   2.245
 1233SOL    HW2 4962   0.727   1.335   2.282
 1233SOL    HW3 4963   0.627   1.222   2.275
 1233SOL    MW4 4964   0.704   1.256   2.254
 1234SOL     OW 4965   0.711   1.515   2.312
 1234SOL    HW2 4966   0.703   1.527   2.407
 1234SOL    HW3 4967   0.789   1.565   2.288
 1234SOL    MW4 4968   0.721   1.523   2.322
 1235SOL     OW 4969   0.506   1.667   2.228
 1235SOL    HW2 4970   0.577   1.613   2.264
 1235SOL    HW3 4971   0.426   1.620   2.249
 1235SOL    MW4 4972   0.505   1.654   2.235
 1236SOL     OW 4973   0.426   1.911   2.326
 1236SOL    HW2 4974   0.504   1.965   2.314
 1236SOL    HW3 4975   0.448   1.827   2.286
 1236SOL    MW4 4976   0.439   1.907   2.319
 1237SOL     OW 4977   0.676   2.055   2.266
 1237SOL    HW2 4978   0.751   2.028   2.318
 1237SOL    HW3 4979   0.665   2.148   2.285
 1237SOL    MW4 4980   0.684   2.064   2.275
 1238SOL     OW 4981   0.650   2.325   2.340
 1238SOL    HW2 4982   0.674   2.323   2.432
 1238SOL    HW3 4983   0.731   2.349   2.295
 1238SOL    MW4 4984   0.664   2.328   2.346
 1239SOL     OW 4985   0.421   2.445   2.226
 1239SOL    HW2 4986   0.492   2.410   2.279
 1239SOL    HW3 4987   0.342   2.405   2.262
 1239SOL    MW4 4988   0.420   2.435   2.237
 1240SOL     OW 4989   0.427   2.689   2.346
 1240SOL    HW2 4990   0.431   2.683   2.442
 1240SOL    HW3 4991   0.423   2.599   2.316
 1240SOL    MW4 4992   0.427   2.677   2.355
 1241SOL     OW 4993   0.655   2.822   2.284
 1241SOL    HW2 4994   0.728   2.765   2.309
 1241SOL    HW3 4995   0.577   2.769   2.301
 1241SOL    MW4 4996   0.655   2.807   2.289
 1242SOL     OW 4997   0.685   3.067   2.417
 1242SOL    HW2 4998   0.615   3.113   2.371
 1242SOL    HW3 4999   0.685   2.979   2.378
 1242SOL    MW4 5000   0.676   3.061   2.405
 1243SOL     OW 5001   0.477   3.178   2.269
 1243SOL    HW2 5002   0.388   3.149   2.290
 1243SOL    HW3 5003   0.476   3.194   2.175
 1243SOL    MW4 5004   0.465   3.176   2.259
 1244SOL     OW 5005   0.454   3.424   2.391
 1244SOL    HW2 5006   0.518   3.486   2.356
 1244SOL    HW3 5007   0.469   3.344   2.341
 1244SOL    MW4 5008   0.464   3.422   2.380
 1245SOL     OW 5009   0.656   3.590   2.315
 1245SOL    HW2 5010   0.654   3.679   2.349
 1245SOL    HW3 5011   0.664   3.600   2.220
 1245SOL    MW4 5012   0.657   3.603   2.307
 1246SOL     OW 5013   0.689   3.864   2.389
 1246SOL    HW2 5014   0.692   3.887   2.482
 1246SOL    HW3 5015   0.598   3.877   2.363
 1246SOL    MW4 5016   0.678   3.868   2.398
 1247SOL     OW 5017   0.468   3.982   2.308
 1247SOL    HW2 5018   0.386   3.942   2.336
 1247SOL    HW3 5019   0.466   3.977   2.213
 1247SOL    MW4 5020   0.457   3.976   2.299
 1248SOL     OW 5021   0.468   4.251   2.372
 1248SOL    HW2 5022   0.553   4.286   2.343
 1248SOL    HW3 5023   0.472   4.158   2.350
 1248SOL    MW4 5024   0.480   4.244   2.365
 1249SOL     OW 5025   0.679   4.367   2.248
 1249SOL    HW2 5026   0.689   4.458   2.273
 1249SOL    HW3 5027   0.702   4.365   2.155
 1249SOL    MW4 5028   0.684   4.379   2.239
 1250SOL     OW 5029   1.128   4.620   2.367
 1250SOL    HW2 5030   1.139   4.632   2.461
 1250SOL    HW3 5031   1.062   4.685   2.342
 1250SOL    MW4 5032   1.121   4.630   2.376
 1251SOL     OW 5033   0.930   0.140   2.269
 1251SOL    HW2 5034   0.912   0.225   2.310
 1251SOL    HW3 5035   0.906   0.152   2.177
 1251SOL    MW4 5036   0.925   0.153   2.262
 1252SOL     OW 5037   0.894   0.401   2.346
 1252SOL    HW2 5038   0.970   0.442   2.303
 1252SOL    HW3 5039   0.819   0.449   2.311
 1252SOL    MW4 5040   0.894   0.413   2.335
 1253SOL     OW 5041   1.145   0.521   2.245
 1253SOL    HW2 5042   1.215   0.459   2.268
 1253SOL    HW3 5043   1.148   0.526   2.150
 1253SOL    MW4 5044   1.154   0.513   2.236
 1254SOL     OW 5045   1.133   0.779   2.350
 1254SOL    HW2 5046   1.051   0.809   2.312
 1254SOL    HW3 5047   1.143   0.689   2.318
 1254SOL    MW4 5048   1.124   0.771   2.341
 1255SOL     OW 5049   0.910   0.887   2.251
 1255SOL    HW2 5050   0.934   0.969   2.296
 1255SOL    HW3 5051   0.841   0.850   2.306
 1255SOL    MW4 5052   0.904   0.893   2.264
 1256SOL     OW 5053   0.943   1.134   2.372
 1256SOL    HW2 5054   1.020   1.184   2.344
 1256SOL    HW3 5055   0.869   1.179   2.331
 1256SOL    MW4 5056   0.943   1.147   2.363
 1257SOL     OW 5057   1.139   1.286   2.249
 1257SOL    HW2 5058   1.216   1.237   2.279
 1257SOL    HW3 5059   1.137   1.271   2.155
 1257SOL    MW4 5060   1.149   1.277   2.241
 1258SOL     OW 5061   1.150   1.547   2.336
 1258SOL    HW2 5062   1.067   1.585   2.308
 1258SOL    HW3 5063   1.142   1.454   2.312
 1258SOL    MW4 5064   1.138   1.540   2.329
 1259SOL     OW 5065   0.917   1.674   2.250
 1259SOL    HW2 5066   0.905   1.762   2.286
 1259SOL    HW3 5067   0.903   1.684   2.156
 1259SOL    MW4 5068   0.914   1.687   2.243
 1260SOL     OW 5069   0.887   1.922   2.363
 1260SOL    HW2 5070   0.888   1.925   2.459
 1260SOL    HW3 5071   0.961   1.976   2.336
 1260SOL    MW4 5072   0.897   1.929   2.372
 1261SOL     OW 5073   1.107   2.032   2.270
 1261SOL    HW2 5074   1.186   1.991   2.305
 1261SOL    HW3 5075   1.123   2.036   2.175
 1261SOL    MW4 5076   1.120   2.027   2.262
 1262SOL     OW 5077   1.126   2.322   2.365
 1262SOL    HW2 5078   1.213   2.357   2.347
 1262SOL    HW3 5079   1.129   2.232   2.333
 1262SOL    MW4 5080   1.138   2.315   2.358
 1263SOL     OW 5081   0.892   2.431   2.250
 1263SOL    HW2 5082   0.977   2.403   2.282
 1263SOL    HW3 5083   0.905   2.448   2.157
 1263SOL    MW4 5084   0.905   2.429   2.242
 1264SOL     OW 5085   0.879   2.686   2.357
 1264SOL    HW2 5086   0.873   2.669   2.451
 1264SOL    HW3 5087   0.895   2.600   2.318
 1264SOL    MW4 5088   0.880   2.672   2.364
 1265SOL     OW 5089   1.093   2.820   2.239
 1265SOL    HW2 5090   1.156   2.768   2.287
 1265SOL    HW3 5091   1.008   2.798   2.279
 1265SOL    MW4 5092   1.090   2.810   2.251
 1266SOL     OW 5093   1.122   3.090   2.348
 1266SOL    HW2 5094   1.033   3.114   2.325
 1266SOL    HW3 5095   1.134   3.002   2.313
 1266SOL    MW4 5096   1.112   3.082   2.341
 1267SOL     OW 5097   0.872   3.206   2.259
 1267SOL    HW2 5098   0.874   3.290   2.307
 1267SOL    HW3 5099   0.805   3.155   2.303
 1267SOL    MW4 5100   0.864   3.211   2.271
 1268SOL     OW 5101   0.902   3.488   2.376
 1268SOL    HW2 5102   0.887   3.487   2.470
 1268SOL    HW3 5103   0.827   3.535   2.340
 1268SOL    MW4 5104   0.890   3.494   2.384
 1269SOL     OW 5105   1.149   3.631   2.301
 1269SOL    HW2 5106   1.226   3.589   2.340
 1269SOL    HW3 5107   1.075   3.581   2.336
 1269SOL    MW4 5108   1.150   3.619   2.311
 1270SOL     OW 5109   1.120   3.893   2.387
 1270SOL    HW2 5110   1.187   3.943   2.339
 1270SOL    HW3 5111   1.135   3.802   2.360
 1270SOL    MW4 5112   1.131   3.888   2.377
 1271SOL     OW 5113   0.904   3.980   2.277
 1271SOL    HW2 5114   0.984   3.944   2.315
 1271SOL    HW3 5115   0.833   3.932   2.320
 1271SOL    MW4 5116   0.906   3.969   2.288
 1272SOL     OW 5117   0.915   4.263   2.365
 1272SOL    HW2 5118   0.921   4.173   2.334
 1272SOL    HW3 5119   0.837   4.298   2.322
 1272SOL    MW4 5120   0.905   4.256   2.355
 1273SOL     OW 5121   1.122   4.373   2.233
 1273SOL    HW2 5122   1.048   4.336   2.282
 1273SOL    HW3 5123   1.129   4.462   2.265
 1273SOL    MW4 5124   1.113   4.380   2.244
 1274SOL     OW 5125   1.561   4.579   2.340
 1274SOL    HW2 5126   1.641   4.623   2.313
 1274SOL    HW3 5127   1.491   4.642   2.319
 1274SOL    MW4 5128   1.562   4.593   2.334
 1275SOL     OW 5129   1.371   0.067   2.243
 1275SOL    HW2 5130   1.361   0.158   2.271
 1275SOL    HW3 5131   1.295   0.022   2.280
 1275SOL    MW4 5132   1.360   0.073   2.251
 1276SOL     OW 5133   1.365   0.341   2.331
 1276SOL    HW2 5134   1.372   0.355   2.425
 1276SOL    HW3 5135   1.442   0.385   2.294
 1276SOL    MW4 5136   1.376   0.348   2.338
 1277SOL     OW 5137   1.587   0.481   2.240
 1277SOL    HW2 5138   1.654   0.416   2.258
 1277SOL    HW3 5139   1.598   0.503   2.148
 1277SOL    MW4 5140   1.597   0.475   2.230
 1278SOL     OW 5141   1.549   0.740   2.358
 1278SOL    HW2 5142   1.635   0.778   2.344
 1278SOL    HW3 5143   1.555   0.652   2.323
 1278SOL    MW4 5144   1.561   0.734   2.352
 1279SOL     OW 5145   1.365   0.859   2.212
 1279SOL    HW2 5146   1.441   0.832   2.262
 1279SOL    HW3 5147   1.290   0.836   2.268
 1279SOL    MW4 5148   1.365   0.852   2.226
 1280SOL     OW 5149   1.343   1.123   2.338
 1280SOL    HW2 5150   1.360   1.105   2.431
 1280SOL    HW3 5151   1.341   1.037   2.297
 1280SOL    MW4 5152   1.345   1.109   2.345
 1281SOL     OW 5153   1.586   1.248   2.264
 1281SOL    HW2 5154   1.493   1.233   2.279
 1281SOL    HW3 5155   1.597   1.239   2.169
 1281SOL    MW4 5156   1.575   1.245   2.254
 1282SOL     OW 5157   1.604   1.516   2.358
 1282SOL    HW2 5158   1.664   1.561   2.300
 1282SOL    HW3 5159   1.612   1.424   2.335
 1282SOL    MW4 5160   1.613   1.510   2.348
 1283SOL     OW 5161   1.385   1.679   2.287
 1283SOL    HW2 5162   1.452   1.619   2.320
 1283SOL    HW3 5163   1.302   1.640   2.315
 1283SOL    MW4 5164   1.383   1.666   2.295
 1284SOL     OW 5165   1.357   1.944   2.353
 1284SOL    HW2 5166   1.439   1.984   2.323
 1284SOL    HW3 5167   1.370   1.850   2.338
 1284SOL    MW4 5168   1.370   1.937   2.347
 1285SOL     OW 5169   1.595   2.035   2.247
 1285SOL    HW2 5170   1.681   1.997   2.263
 1285SOL    HW3 5171   1.591   2.044   2.152
 1285SOL    MW4 5172   1.606   2.031   2.236
 1286SOL     OW 5173   1.565   2.294   2.340
 1286SOL    HW2 5174   1.575   2.299   2.435
 1286SOL    HW3 5175   1.574   2.201   2.320
 1286SOL    MW4 5176   1.567   2.282   2.350
 1287SOL     OW 5177   1.350   2.434   2.281
 1287SOL    HW2 5178   1.431   2.388   2.304
 1287SOL    HW3 5179   1.349   2.433   2.185
 1287SOL    MW4 5180   1.361   2.428   2.271
 1288SOL     OW 5181   1.312   2.700   2.355
 1288SOL    HW2 5182   1.388   2.737   2.310
 1288SOL    HW3 5183   1.325   2.605   2.347
 1288SOL    MW4 5184   1.324   2.692   2.348
 1289SOL     OW 5185   1.539   2.838   2.264
 1289SOL    HW2 5186   1.559   2.924   2.301
 1289SOL    HW3 5187   1.562   2.845   2.172
 1289SOL    MW4 5188   1.544   2.850   2.257
 1290SOL     OW 5189   1.587   3.103   2.337
 1290SOL    HW2 5190   1.586   3.096   2.433
 1290SOL    HW3 5191   1.509   3.153   2.316
 1290SOL    MW4 5192   1.577   3.109   2.347
 1291SOL     OW 5193   1.370   3.262   2.273
 1291SOL    HW2 5194   1.295   3.212   2.305
 1291SOL    HW3 5195   1.361   3.258   2.177
 1291SOL    MW4 5196   1.359   3.255   2.264
 1292SOL     OW 5197   1.359   3.509   2.402
 1292SOL    HW2 5198   1.342   3.503   2.496
 1292SOL    HW3 5199   1.353   3.419   2.371
 1292SOL    MW4 5200   1.356   3.496   2.411
 1293SOL     OW 5201   1.627   3.596   2.261
 1293SOL    HW2 5202   1.620   3.689   2.286
 1293SOL    HW3 5203   1.560   3.553   2.315
 1293SOL    MW4 5204   1.617   3.603   2.272
 1294SOL     OW 5205   1.597   3.860   2.328
 1294SOL    HW2 5206   1.579   3.882   2.420
 1294SOL    HW3 5207   1.666   3.921   2.303
 1294SOL    MW4 5208   1.604   3.871   2.337
 1295SOL     OW 5209   1.362   3.983   2.247
 1295SOL    HW2 5210   1.439   3.934   2.278
 1295SOL    HW3 5211   1.375   3.990   2.152
 1295SOL    MW4 5212   1.374   3.977   2.239
 1296SOL     OW 5213   1.332   4.228   2.360
 1296SOL    HW2 5214   1.347   4.140   2.327
 1296SOL    HW3 5215   1.266   4.265   2.302
 1296SOL    MW4 5216   1.326   4.221   2.348
 1297SOL     OW 5217   1.536   4.333   2.229
 1297SOL    HW2 5218   1.473   4.291   2.287
 1297SOL    HW3 5219   1.538   4.424   2.258
 1297SOL    MW4 5220   1.528   4.340   2.240
 1298SOL     OW 5221   2.032   4.591   2.373
 1298SOL    HW2 5222   2.103   4.647   2.342
 1298SOL    HW3 5223   2.055   4.503   2.341
 1298SOL    MW4 5224   2.044   4.587   2.365
 1299SOL     OW 5225   1.798   0.023   2.233
 1299SOL    HW2 5226   1.799   0.114   2.264
 1299SOL    HW3 5227   1.872  -0.018   2.279
 1299SOL    MW4 5228   1.808   0.030   2.243
 1300SOL     OW 5229   1.819   0.308   2.332
 1300SOL    HW2 5230   1.813   0.310   2.428
 1300SOL    HW3 5231   1.886   0.373   2.310
 1300SOL    MW4 5232   1.827   0.317   2.342
 1301SOL     OW 5233   2.017   0.465   2.205
 1301SOL    HW2 5234   1.992   0.545   2.251
 1301SOL    HW3 5235   2.034   0.494   2.115
 1301SOL    MW4 5236   2.016   0.480   2.199
 1302SOL     OW 5237   1.998   0.714   2.392
 1302SOL    HW2 5238   2.082   0.753   2.367
 1302SOL    HW3 5239   1.933   0.780   2.368
 1302SOL    MW4 5240   2.001   0.728   2.385
 1303SOL     OW 5241   1.788   0.871   2.289
 1303SOL    HW2 5242   1.791   0.965   2.305
 1303SOL    HW3 5243   1.782   0.863   2.194
 1303SOL    MW4 5244   1.787   0.882   2.278
 1304SOL     OW 5245   1.802   1.123   2.381
 1304SOL    HW2 5246   1.883   1.152   2.339
 1304SOL    HW3 5247   1.733   1.168   2.332
 1304SOL    MW4 5248   1.803   1.133   2.369
 1305SOL     OW 5249   2.045   1.248   2.244
 1305SOL    HW2 5250   2.046   1.339   2.274
 1305SOL    HW3 5251   2.009   1.253   2.155
 1305SOL    MW4 5252   2.040   1.261   2.236
 1306SOL     OW 5253   2.037   1.502   2.350
 1306SOL    HW2 5254   2.034   1.514   2.445
 1306SOL    HW3 5255   1.954   1.536   2.319
 1306SOL    MW4 5256   2.026   1.508   2.359
 1307SOL     OW 5257   1.822   1.648   2.250
 1307SOL    HW2 5258   1.834   1.739   2.278
 1307SOL    HW3 5259   1.818   1.652   2.154
 1307SOL    MW4 5260   1.823   1.660   2.241
 1308SOL     OW 5261   1.850   1.916   2.315
 1308SOL    HW2 5262   1.857   1.924   2.410
 1308SOL    HW3 5263   1.931   1.956   2.282
 1308SOL    MW4 5264   1.862   1.922   2.323
 1309SOL     OW 5265   2.064   2.091   2.244
 1309SOL    HW2 5266   2.127   2.038   2.292
 1309SOL    HW3 5267   2.085   2.075   2.152
 1309SOL    MW4 5268   2.075   2.082   2.238
 1310SOL     OW 5269   2.021   2.332   2.330
 1310SOL    HW2 5270   2.111   2.361   2.316
 1310SOL    HW3 5271   2.021   2.241   2.299
 1310SOL    MW4 5272   2.033   2.324   2.324
 1311SOL     OW 5273   1.781   2.429   2.245
 1311SOL    HW2 5274   1.854   2.390   2.292
 1311SOL    HW3 5275   1.706   2.375   2.268
 1311SOL    MW4 5276   1.781   2.417   2.254
 1312SOL     OW 5277   1.771   2.703   2.331
 1312SOL    HW2 5278   1.758   2.610   2.309
 1312SOL    HW3 5279   1.694   2.747   2.295
 1312SOL    MW4 5280   1.759   2.696   2.323
 1313SOL     OW 5281   2.016   2.802   2.256
 1313SOL    HW2 5282   2.086   2.743   2.285
 1313SOL    HW3 5283   1.935   2.761   2.286
 1313SOL    MW4 5284   2.015   2.789   2.264
 1314SOL     OW 5285   2.033   3.081   2.343
 1314SOL    HW2 5286   2.111   3.127   2.314
 1314SOL    HW3 5287   2.047   2.990   2.317
 1314SOL    MW4 5288   2.045   3.075   2.336
 1315SOL     OW 5289   1.813   3.186   2.216
 1315SOL    HW2 5290   1.885   3.145   2.263
 1315SOL    HW3 5291   1.734   3.155   2.261
 1315SOL    MW4 5292   1.812   3.176   2.228
 1316SOL     OW 5293   1.838   3.445   2.326
 1316SOL    HW2 5294   1.827   3.361   2.283
 1316SOL    HW3 5295   1.764   3.498   2.294
 1316SOL    MW4 5296   1.826   3.441   2.316
 1317SOL     OW 5297   2.044   3.584   2.210
 1317SOL    HW2 5298   1.970   3.532   2.241
 1317SOL    HW3 5299   2.043   3.573   2.115
 1317SOL    MW4 5300   2.034   3.576   2.201
 1318SOL     OW 5301   2.033   3.836   2.309
 1318SOL    HW2 5302   2.031   3.814   2.402
 1318SOL    HW3 5303   2.030   3.751   2.265
 1318SOL    MW4 5304   2.032   3.822   2.316
 1319SOL     OW 5305   1.812   3.999   2.261
 1319SOL    HW2 5306   1.883   3.937   2.280
 1319SOL    HW3 5307   1.805   3.998   2.165
 1319SOL    MW4 5308   1.821   3.991   2.251
 1320SOL     OW 5309   1.796   4.273   2.346
 1320SOL    HW2 5310   1.814   4.184   2.318
 1320SOL    HW3 5311   1.701   4.283   2.336
 1320SOL    MW4 5312   1.786   4.263   2.341
 1321SOL     OW 5313   2.044   4.356   2.233
 1321SOL    HW2 5314   1.954   4.333   2.257
 1321SOL    HW3 5315   2.038   4.385   2.142
 1321SOL    MW4 5316   2.031   4.356   2.224
 1322SOL     OW 5317   2.484   4.639   2.376
 1322SOL    HW2 5318   2.557   4.678   2.328
 1322SOL    HW3 5319   2.480   4.549   2.343
 1322SOL    MW4 5320   2.493   4.632   2.365
 1323SOL     OW 5321   2.260   0.071   2.258
 1323SOL    HW2 5322   2.253   0.156   2.302
 1323SOL    HW3 5323   2.340   0.032   2.292
 1323SOL    MW4 5324   2.269   0.077   2.268
 1324SOL     OW 5325   2.229   0.336   2.343
 1324SOL    HW2 5326   2.300   0.399   2.326
 1324SOL    HW3 5327   2.154   0.371   2.294
 1324SOL    MW4 5328   2.229   0.349   2.334
 1325SOL     OW 5329   2.447   0.508   2.302
 1325SOL    HW2 5330   2.527   0.467   2.334
 1325SOL    HW3 5331   2.454   0.505   2.207
 1325SOL    MW4 5332   2.458   0.502   2.293
 1326SOL     OW 5333   2.448   0.767   2.372
 1326SOL    HW2 5334   2.529   0.801   2.332
 1326SOL    HW3 5335   2.442   0.677   2.340
 1326SOL    MW4 5336   2.458   0.760   2.363
 1327SOL     OW 5337   2.204   0.830   2.250
 1327SOL    HW2 5338   2.195   0.921   2.276
 1327SOL    HW3 5339   2.286   0.801   2.291
 1327SOL    MW4 5340   2.214   0.838   2.259
 1328SOL     OW 5341   2.243   1.082   2.350
 1328SOL    HW2 5342   2.317   1.141   2.337
 1328SOL    HW3 5343   2.169   1.127   2.308
 1328SOL    MW4 5344   2.243   1.096   2.343
 1329SOL     OW 5345   2.451   1.264   2.280
 1329SOL    HW2 5346   2.538   1.227   2.294
 1329SOL    HW3 5347   2.459   1.355   2.311
 1329SOL    MW4 5348   2.464   1.271   2.286
 1330SOL     OW 5349   2.467   1.531   2.333
 1330SOL    HW2 5350   2.449   1.514   2.426
 1330SOL    HW3 5351   2.560   1.552   2.330
 1330SOL    MW4 5352   2.477   1.531   2.345
 1331SOL     OW 5353   2.251   1.653   2.232
 1331SOL    HW2 5354   2.333   1.612   2.257
 1331SOL    HW3 5355   2.184   1.600   2.275
 1331SOL    MW4 5356   2.253   1.640   2.241
 1332SOL     OW 5357   2.236   1.904   2.345
 1332SOL    HW2 5358   2.318   1.944   2.316
 1332SOL    HW3 5359   2.223   1.829   2.287
 1332SOL    MW4 5360   2.245   1.899   2.333
 1333SOL     OW 5361   2.474   2.032   2.273
 1333SOL    HW2 5362   2.552   1.981   2.296
 1333SOL    HW3 5363   2.475   2.034   2.178
 1333SOL    MW4 5364   2.485   2.026   2.264
 1334SOL     OW 5365   2.457   2.301   2.353
 1334SOL    HW2 5366   2.544   2.334   2.331
 1334SOL    HW3 5367   2.459   2.209   2.325
 1334SOL    MW4 5368   2.469   2.293   2.346
 1335SOL     OW 5369   2.258   2.451   2.232
 1335SOL    HW2 5370   2.246   2.535   2.275
 1335SOL    HW3 5371   2.334   2.413   2.276
 1335SOL    MW4 5372   2.267   2.457   2.243
 1336SOL     OW 5373   2.233   2.676   2.391
 1336SOL    HW2 5374   2.235   2.721   2.475
 1336SOL    HW3 5375   2.294   2.725   2.336
 1336SOL    MW4 5376   2.241   2.689   2.394
 1337SOL     OW 5377   2.442   2.787   2.253
 1337SOL    HW2 5378   2.525   2.750   2.282
 1337SOL    HW3 5379   2.461   2.825   2.167
 1337SOL    MW4 5380   2.456   2.787   2.246
 1338SOL     OW 5381   2.481   3.038   2.361
 1338SOL    HW2 5382   2.555   3.068   2.307
 1338SOL    HW3 5383   2.456   2.954   2.322
 1338SOL    MW4 5384   2.488   3.031   2.349
 1339SOL     OW 5385   2.259   3.185   2.232
 1339SOL    HW2 5386   2.264   3.279   2.248
 1339SOL    HW3 5387   2.332   3.148   2.282
 1339SOL    MW4 5388   2.269   3.192   2.241
 1340SOL     OW 5389   2.248   3.450   2.331
 1340SOL    HW2 5390   2.219   3.449   2.423
 1340SOL    HW3 5391   2.179   3.496   2.284
 1340SOL    MW4 5392   2.235   3.456   2.337
 1341SOL     OW 5393   2.475   3.593   2.267
 1341SOL    HW2 5394   2.469   3.685   2.292
 1341SOL    HW3 5395   2.392   3.555   2.296
 1341SOL    MW4 5396   2.464   3.600   2.274
 1342SOL     OW 5397   2.481   3.853   2.331
 1342SOL    HW2 5398   2.475   3.845   2.426
 1342SOL    HW3 5399   2.405   3.907   2.307
 1342SOL    MW4 5400   2.470   3.859   2.340
 1343SOL     OW 5401   2.271   3.969   2.226
 1343SOL    HW2 5402   2.272   4.061   2.253
 1343SOL    HW3 5403   2.192   3.933   2.266
 1343SOL    MW4 5404   2.261   3.977   2.235
 1344SOL     OW 5405   2.276   4.238   2.320
 1344SOL    HW2 5406   2.281   4.250   2.415
 1344SOL    HW3 5407   2.191   4.275   2.295
 1344SOL    MW4 5408   2.265   4.244   2.329
 1345SOL     OW 5409   2.499   4.395   2.236
 1345SOL    HW2 5410   2.576   4.343   2.260
 1345SOL    HW3 5411   2.425   4.346   2.271
 1345SOL    MW4 5412   2.500   4.382   2.244
 1346SOL     OW 5413   2.927   0.021   2.332
 1346SOL    HW2 5414   3.005   0.072   2.312
 1346SOL    HW3 5415   2.949  -0.068   2.304
 1346SOL    MW4 5416   2.940   0.016   2.325
 1347SOL     OW 5417   2.686   0.088   2.227
 1347SOL    HW2 5418   2.663   0.170   2.269
 1347SOL    HW3 5419   2.776   0.071   2.256
 1347SOL    MW4 5420   2.695   0.096   2.237
 1348SOL     OW 5421   2.703   0.340   2.351
 1348SOL    HW2 5422   2.713   0.357   2.444
 1348SOL    HW3 5423   2.777   0.385   2.310
 1348SOL    MW4 5424   2.714   0.348   2.358
 1349SOL     OW 5425   2.905   0.464   2.230
 1349SOL    HW2 5426   2.889   0.558   2.240
 1349SOL    HW3 5427   2.899   0.449   2.135
 1349SOL    MW4 5428   2.902   0.475   2.219
 1350SOL     OW 5429   2.908   0.743   2.298
 1350SOL    HW2 5430   2.920   0.746   2.392
 1350SOL    HW3 5431   2.826   0.791   2.282
 1350SOL    MW4 5432   2.899   0.750   2.308
 1351SOL     OW 5433   2.669   0.882   2.275
 1351SOL    HW2 5434   2.679   0.971   2.308
 1351SOL    HW3 5435   2.667   0.892   2.180
 1351SOL    MW4 5436   2.670   0.895   2.267
 1352SOL     OW 5437   2.687   1.139   2.363
 1352SOL    HW2 5438   2.692   1.146   2.459
 1352SOL    HW3 5439   2.770   1.174   2.332
 1352SOL    MW4 5440   2.698   1.144   2.372
 1353SOL     OW 5441   2.934   1.258   2.269
 1353SOL    HW2 5442   3.023   1.231   2.291
 1353SOL    HW3 5443   2.934   1.267   2.174
 1353SOL    MW4 5444   2.945   1.256   2.260
 1354SOL     OW 5445   3.002   1.525   2.322
 1354SOL    HW2 5446   3.008   1.531   2.417
 1354SOL    HW3 5447   2.986   1.433   2.304
 1354SOL    MW4 5448   3.000   1.514   2.332
 1355SOL     OW 5449   2.734   1.628   2.285
 1355SOL    HW2 5450   2.824   1.599   2.297
 1355SOL    HW3 5451   2.725   1.642   2.191
 1355SOL    MW4 5452   2.745   1.626   2.275
 1356SOL     OW 5453   2.705   1.902   2.345
 1356SOL    HW2 5454   2.719   1.901   2.439
 1356SOL    HW3 5455   2.711   1.810   2.318
 1356SOL    MW4 5456   2.707   1.890   2.354
 1357SOL     OW 5457   2.943   2.031   2.268
 1357SOL    HW2 5458   3.020   1.990   2.307
 1357SOL    HW3 5459   2.870   1.975   2.297
 1357SOL    MW4 5460   2.943   2.018   2.277
 1358SOL     OW 5461   2.938   2.308   2.320
 1358SOL    HW2 5462   2.911   2.310   2.411
 1358SOL    HW3 5463   2.934   2.216   2.295
 1358SOL    MW4 5464   2.934   2.296   2.328
 1359SOL     OW 5465   2.682   2.409   2.238
 1359SOL    HW2 5466   2.767   2.364   2.246
 1359SOL    HW3 5467   2.670   2.422   2.144
 1359SOL    MW4 5468   2.692   2.405   2.227
 1360SOL     OW 5469   2.660   2.663   2.348
 1360SOL    HW2 5470   2.745   2.704   2.331
 1360SOL    HW3 5471   2.673   2.570   2.328
 1360SOL    MW4 5472   2.673   2.656   2.343
 1361SOL     OW 5473   2.901   2.786   2.280
 1361SOL    HW2 5474   2.908   2.881   2.293
 1361SOL    HW3 5475   2.901   2.775   2.185
 1361SOL    MW4 5476   2.902   2.797   2.269
 1362SOL     OW 5477   2.921   3.054   2.330
 1362SOL    HW2 5478   3.000   3.094   2.293
 1362SOL    HW3 5479   2.849   3.095   2.281
 1362SOL    MW4 5480   2.922   3.065   2.318
 1363SOL     OW 5481   2.691   3.174   2.226
 1363SOL    HW2 5482   2.687   3.258   2.272
 1363SOL    HW3 5483   2.688   3.197   2.133
 1363SOL    MW4 5484   2.690   3.188   2.220
 1364SOL     OW 5485   2.700   3.444   2.342
 1364SOL    HW2 5486   2.775   3.482   2.296
 1364SOL    HW3 5487   2.624   3.486   2.303
 1364SOL    MW4 5488   2.700   3.455   2.331
 1365SOL     OW 5489   2.931   3.580   2.242
 1365SOL    HW2 5490   3.013   3.541   2.274
 1365SOL    HW3 5491   2.926   3.665   2.286
 1365SOL    MW4 5492   2.941   3.586   2.252
 1366SOL     OW 5493   2.937   3.876   2.333
 1366SOL    HW2 5494   2.920   3.889   2.427
 1366SOL    HW3 5495   2.859   3.912   2.290
 1366SOL    MW4 5496   2.925   3.883   2.340
 1367SOL     OW 5497   2.703   3.993   2.242
 1367SOL    HW2 5498   2.628   3.946   2.279
 1367SOL    HW3 5499   2.681   4.005   2.150
 1367SOL    MW4 5500   2.690   3.988   2.235
 1368SOL     OW 5501   2.722   4.263   2.351
 1368SOL    HW2 5502   2.703   4.260   2.444
 1368SOL    HW3 5503   2.719   4.171   2.323
 1368SOL    MW4 5504   2.719   4.250   2.359
 1369SOL     OW 5505   2.916   4.417   2.239
 1369SOL    HW2 5506   2.993   4.369   2.269
 1369SOL    HW3 5507   2.843   4.374   2.282
 1369SOL    MW4 5508   2.917   4.405   2.248
 1370SOL     OW 5509   3.327   0.010   2.304
 1370SOL    HW2 5510   3.317  -0.006   2.398
 1370SOL    HW3 5511   3.413   0.051   2.296
 1370SOL    MW4 5512   3.337   0.013   2.316
 1371SOL     OW 5513   3.141   0.187   2.236
 1371SOL    HW2 5514   3.156   0.274   2.271
 1371SOL    HW3 5515   3.218   0.137   2.265
 1371SOL    MW4 5516   3.153   0.192   2.245
 1372SOL     OW 5517   3.127   0.432   2.385
 1372SOL    HW2 5518   3.202   0.472   2.342
 1372SOL    HW3 5519   3.055   0.444   2.323
 1372SOL    MW4 5520   3.127   0.439   2.371
 1373SOL     OW 5521   3.385   0.529   2.250
 1373SOL    HW2 5522   3.450   0.475   2.294
 1373SOL    HW3 5523   3.400   0.514   2.157
 1373SOL    MW4 5524   3.395   0.520   2.243
 1374SOL     OW 5525   3.355   0.767   2.401
 1374SOL    HW2 5526   3.438   0.808   2.373
 1374SOL    HW3 5527   3.356   0.681   2.360
 1374SOL    MW4 5528   3.366   0.761   2.392
 1375SOL     OW 5529   3.133   0.888   2.244
 1375SOL    HW2 5530   3.194   0.872   2.316
 1375SOL    HW3 5531   3.056   0.835   2.266
 1375SOL    MW4 5532   3.131   0.879   2.256
 1376SOL     OW 5533   3.182   1.157   2.350
 1376SOL    HW2 5534   3.262   1.188   2.309
 1376SOL    HW3 5535   3.167   1.071   2.311
 1376SOL    MW4 5536   3.190   1.150   2.340
 1377SOL     OW 5537   3.423   1.270   2.252
 1377SOL    HW2 5538   3.501   1.236   2.296
 1377SOL    HW3 5539   3.419   1.362   2.278
 1377SOL    MW4 5540   3.433   1.278   2.261
 1378SOL     OW 5541   3.405   1.535   2.356
 1378SOL    HW2 5542   3.387   1.535   2.450
 1378SOL    HW3 5543   3.337   1.590   2.319
 1378SOL    MW4 5544   3.394   1.542   2.364
 1379SOL     OW 5545   3.211   1.670   2.235
 1379SOL    HW2 5546   3.201   1.756   2.277
 1379SOL    HW3 5547   3.138   1.618   2.268
 1379SOL    MW4 5548   3.200   1.675   2.245
 1380SOL     OW 5549   3.174   1.911   2.382
 1380SOL    HW2 5550   3.189   1.928   2.475
 1380SOL    HW3 5551   3.240   1.964   2.337
 1380SOL    MW4 5552   3.185   1.920   2.388
 1381SOL     OW 5553   3.393   2.054   2.261
 1381SOL    HW2 5554   3.452   1.985   2.291
 1381SOL    HW3 5555   3.389   2.043   2.166
 1381SOL    MW4 5556   3.400   2.043   2.252
 1382SOL     OW 5557   3.402   2.329   2.344
 1382SOL    HW2 5558   3.325   2.366   2.299
 1382SOL    HW3 5559   3.396   2.234   2.328
 1382SOL    MW4 5560   3.391   2.321   2.336
 1383SOL     OW 5561   3.159   2.433   2.225
 1383SOL    HW2 5562   3.150   2.515   2.274
 1383SOL    HW3 5563   3.081   2.382   2.249
 1383SOL    MW4 5564   3.148   2.437   2.235
 1384SOL     OW 5565   3.128   2.680   2.368
 1384SOL    HW2 5566   3.123   2.691   2.463
 1384SOL    HW3 5567   3.050   2.724   2.334
 1384SOL    MW4 5568   3.117   2.687   2.376
 1385SOL     OW 5569   3.355   2.786   2.258
 1385SOL    HW2 5570   3.363   2.872   2.299
 1385SOL    HW3 5571   3.274   2.750   2.293
 1385SOL    MW4 5572   3.346   2.793   2.268
 1386SOL     OW 5573   3.376   3.046   2.356
 1386SOL    HW2 5574   3.455   3.086   2.321
 1386SOL    HW3 5575   3.304   3.088   2.309
 1386SOL    MW4 5576   3.377   3.057   2.345
 1387SOL     OW 5577   3.145   3.199   2.247
 1387SOL    HW2 5578   3.125   3.274   2.303
 1387SOL    HW3 5579   3.119   3.227   2.159
 1387SOL    MW4 5580   3.139   3.213   2.243
 1388SOL     OW 5581   3.141   3.462   2.338
 1388SOL    HW2 5582   3.134   3.464   2.433
 1388SOL    HW3 5583   3.227   3.498   2.318
 1388SOL    MW4 5584   3.151   3.467   2.348
 1389SOL     OW 5585   3.378   3.588   2.271
 1389SOL    HW2 5586   3.466   3.559   2.299
 1389SOL    HW3 5587   3.387   3.602   2.177
 1389SOL    MW4 5588   3.391   3.586   2.263
 1390SOL     OW 5589   3.350   3.858   2.353
 1390SOL    HW2 5590   3.432   3.870   2.306
 1390SOL    HW3 5591   3.324   3.768   2.331
 1390SOL    MW4 5592   3.357   3.847   2.344
 1391SOL     OW 5593   3.137   4.031   2.230
 1391SOL    HW2 5594   3.216   3.993   2.268
 1391SOL    HW3 5595   3.066   3.976   2.263
 1391SOL    MW4 5596   3.138   4.019   2.239
 1392SOL     OW 5597   3.143   4.296   2.346
 1392SOL    HW2 5598   3.217   4.339   2.301
 1392SOL    HW3 5599   3.137   4.210   2.305
 1392SOL    MW4 5600   3.152   4.290   2.335
 1393SOL     OW 5601   3.357   4.420   2.210
 1393SOL    HW2 5602   3.374   4.507   2.247
 1393SOL    HW3 5603   3.359   4.434   2.115
 1393SOL    MW4 5604   3.359   4.434   2.202
 1394SOL     OW 5605   3.797   4.645   2.388
 1394SOL    HW2 5606   3.809   4.653   2.482
 1394SOL    HW3 5607   3.881   4.672   2.351
 1394SOL    MW4 5608   3.809   4.650   2.395
 1395SOL     OW 5609   3.591   0.114   2.235
 1395SOL    HW2 5610   3.591   0.206   2.263
 1395SOL    HW3 5611   3.666   0.075   2.280
 1395SOL    MW4 5612   3.601   0.121   2.245
 1396SOL     OW 5613   3.573   0.361   2.361
 1396SOL    HW2 5614   3.566   0.355   2.457
 1396SOL    HW3 5615   3.658   0.402   2.346
 1396SOL    MW4 5616   3.584   0.365   2.372
 1397SOL     OW 5617   3.826   0.469   2.312
 1397SOL    HW2 5618   3.809   0.553   2.356
 1397SOL    HW3 5619   3.819   0.488   2.219
 1397SOL    MW4 5620   3.823   0.482   2.306
 1398SOL     OW 5621   3.824   0.742   2.412
 1398SOL    HW2 5622   3.844   0.737   2.506
 1398SOL    HW3 5623   3.892   0.799   2.376
 1398SOL    MW4 5624   3.836   0.749   2.420
 1399SOL     OW 5625   3.595   0.872   2.298
 1399SOL    HW2 5626   3.672   0.826   2.332
 1399SOL    HW3 5627   3.591   0.847   2.206
 1399SOL    MW4 5628   3.605   0.862   2.291
 1400SOL     OW 5629   3.631   1.152   2.374
 1400SOL    HW2 5630   3.621   1.160   2.469
 1400SOL    HW3 5631   3.625   1.057   2.358
 1400SOL    MW4 5632   3.629   1.140   2.385
 1401SOL     OW 5633   3.871   1.225   2.251
 1401SOL    HW2 5634   3.858   1.320   2.247
 1401SOL    HW3 5635   3.792   1.192   2.294
 1401SOL    MW4 5636   3.859   1.233   2.256
 1402SOL     OW 5637   3.847   1.489   2.310
 1402SOL    HW2 5638   3.839   1.487   2.405
 1402SOL    HW3 5639   3.780   1.550   2.281
 1402SOL    MW4 5640   3.837   1.496   2.318
 1403SOL     OW 5641   3.635   1.650   2.235
 1403SOL    HW2 5642   3.573   1.594   2.282
 1403SOL    HW3 5643   3.626   1.625   2.144
 1403SOL    MW4 5644   3.626   1.640   2.229
 1404SOL     OW 5645   3.599   1.888   2.361
 1404SOL    HW2 5646   3.673   1.937   2.324
 1404SOL    HW3 5647   3.606   1.801   2.322
 1404SOL    MW4 5648   3.610   1.883   2.351
 1405SOL     OW 5649   3.811   2.013   2.222
 1405SOL    HW2 5650   3.901   1.995   2.251
 1405SOL    HW3 5651   3.814   2.004   2.127
 1405SOL    MW4 5652   3.823   2.009   2.214
 1406SOL     OW 5653   3.874   2.253   2.353
 1406SOL    HW2 5654   3.807   2.319   2.334
 1406SOL    HW3 5655   3.841   2.173   2.311
 1406SOL    MW4 5656   3.860   2.251   2.345
 1407SOL     OW 5657   3.660   2.408   2.260
 1407SOL    HW2 5658   3.578   2.366   2.285
 1407SOL    HW3 5659   3.657   2.413   2.165
 1407SOL    MW4 5660   3.649   2.403   2.251
 1408SOL     OW 5661   3.582   2.679   2.347
 1408SOL    HW2 5662   3.600   2.590   2.317
 1408SOL    HW3 5663   3.490   2.693   2.324
 1408SOL    MW4 5664   3.572   2.669   2.340
 1409SOL     OW 5665   3.806   2.805   2.257
 1409SOL    HW2 5666   3.806   2.895   2.290
 1409SOL    HW3 5667   3.723   2.769   2.287
 1409SOL    MW4 5668   3.795   2.813   2.266
 1410SOL     OW 5669   3.799   3.064   2.383
 1410SOL    HW2 5670   3.815   3.068   2.477
 1410SOL    HW3 5671   3.865   3.123   2.345
 1410SOL    MW4 5672   3.810   3.072   2.390
 1411SOL     OW 5673   3.586   3.198   2.268
 1411SOL    HW2 5674   3.591   3.288   2.300
 1411SOL    HW3 5675   3.657   3.153   2.314
 1411SOL    MW4 5676   3.596   3.204   2.279
 1412SOL     OW 5677   3.618   3.479   2.344
 1412SOL    HW2 5678   3.620   3.485   2.440
 1412SOL    HW3 5679   3.696   3.528   2.316
 1412SOL    MW4 5680   3.629   3.486   2.353
 1413SOL     OW 5681   3.839   3.615   2.209
 1413SOL    HW2 5682   3.830   3.703   2.246
 1413SOL    HW3 5683   3.826   3.627   2.115
 1413SOL    MW4 5684   3.836   3.629   2.202
 1414SOL     OW 5685   3.823   3.879   2.305
 1414SOL    HW2 5686   3.813   3.868   2.400
 1414SOL    HW3 5687   3.906   3.925   2.295
 1414SOL    MW4 5688   3.833   3.883   2.316
 1415SOL     OW 5689   3.580   3.976   2.217
 1415SOL    HW2 5690   3.569   4.070   2.229
 1415SOL    HW3 5691   3.669   3.958   2.249
 1415SOL    MW4 5692   3.590   3.986   2.223
 1416SOL     OW 5693   3.572   4.252   2.272
 1416SOL    HW2 5694   3.651   4.304   2.257
 1416SOL    HW3 5695   3.500   4.313   2.258
 1416SOL    MW4 5696   3.573   4.267   2.268
 1417SOL     OW 5697   3.801   4.392   2.269
 1417SOL    HW2 5698   3.889   4.366   2.297
 1417SOL    HW3 5699   3.778   4.464   2.328
 1417SOL    MW4 5700   3.810   4.398   2.281
 1418SOL     OW 5701   4.286   4.639   2.327
 1418SOL    HW2 5702   4.287   4.636   2.423
 1418SOL    HW3 5703   4.346   4.711   2.305
 1418SOL    MW4 5704   4.294   4.648   2.337
 1419SOL     OW 5705   4.031   0.077   2.275
 1419SOL    HW2 5706   4.044   0.165   2.309
 1419SOL    HW3 5707   4.111   0.030   2.299
 1419SOL    MW4 5708   4.043   0.083   2.282
 1420SOL     OW 5709   4.075   0.336   2.384
 1420SOL    HW2 5710   4.151   0.388   2.358
 1420SOL    HW3 5711   4.000   0.389   2.360
 1420SOL    MW4 5712   4.075   0.350   2.378
 1421SOL     OW 5713   4.286   0.481   2.291
 1421SOL    HW2 5714   4.294   0.574   2.315
 1421SOL    HW3 5715   4.358   0.438   2.337
 1421SOL    MW4 5716   4.297   0.488   2.300
 1422SOL     OW 5717   4.288   0.742   2.365
 1422SOL    HW2 5718   4.208   0.788   2.340
 1422SOL    HW3 5719   4.359   0.801   2.343
 1422SOL    MW4 5720   4.287   0.756   2.359
 1423SOL     OW 5721   4.053   0.844   2.285
 1423SOL    HW2 5722   4.078   0.936   2.298
 1423SOL    HW3 5723   4.062   0.830   2.191
 1423SOL    MW4 5724   4.058   0.854   2.275
 1424SOL     OW 5725   4.083   1.100   2.375
 1424SOL    HW2 5726   4.068   1.109   2.469
 1424SOL    HW3 5727   4.014   1.152   2.334
 1424SOL    MW4 5728   4.072   1.108   2.382
 1425SOL     OW 5729   4.274   1.255   2.252
 1425SOL    HW2 5730   4.208   1.199   2.292
 1425SOL    HW3 5731   4.358   1.214   2.277
 1425SOL    MW4 5732   4.277   1.242   2.261
 1426SOL     OW 5733   4.299   1.506   2.344
 1426SOL    HW2 5734   4.308   1.415   2.315
 1426SOL    HW3 5735   4.372   1.551   2.301
 1426SOL    MW4 5736   4.310   1.500   2.334
 1427SOL     OW 5737   4.078   1.647   2.247
 1427SOL    HW2 5738   4.161   1.610   2.276
 1427SOL    HW3 5739   4.012   1.587   2.281
 1427SOL    MW4 5740   4.080   1.634   2.255
 1428SOL     OW 5741   4.030   1.897   2.348
 1428SOL    HW2 5742   4.011   1.885   2.441
 1428SOL    HW3 5743   4.046   1.809   2.315
 1428SOL    MW4 5744   4.030   1.884   2.356
 1429SOL     OW 5745   4.243   2.039   2.229
 1429SOL    HW2 5746   4.243   2.130   2.259
 1429SOL    HW3 5747   4.176   1.996   2.282
 1429SOL    MW4 5748   4.234   2.045   2.240
 1430SOL     OW 5749   4.246   2.297   2.315
 1430SOL    HW2 5750   4.188   2.355   2.265
 1430SOL    HW3 5751   4.329   2.344   2.318
 1430SOL    MW4 5752   4.249   2.311   2.309
 1431SOL     OW 5753   4.040   2.433   2.171
 1431SOL    HW2 5754   4.045   2.516   2.218
 1431SOL    HW3 5755   3.977   2.381   2.220
 1431SOL    MW4 5756   4.033   2.437   2.183
 1432SOL     OW 5757   4.012   2.665   2.367
 1432SOL    HW2 5758   3.996   2.659   2.461
 1432SOL    HW3 5759   3.941   2.720   2.334
 1432SOL    MW4 5760   4.001   2.671   2.375
 1433SOL     OW 5761   4.230   2.815   2.290
 1433SOL    HW2 5762   4.159   2.758   2.317
 1433SOL    HW3 5763   4.310   2.769   2.317
 1433SOL    MW4 5764   4.231   2.802   2.297
 1434SOL     OW 5765   4.250   3.096   2.334
 1434SOL    HW2 5766   4.260   3.001   2.335
 1434SOL    HW3 5767   4.331   3.128   2.294
 1434SOL    MW4 5768   4.262   3.087   2.329
 1435SOL     OW 5769   4.018   3.220   2.267
 1435SOL    HW2 5770   4.030   3.308   2.303
 1435SOL    HW3 5771   4.102   3.176   2.283
 1435SOL    MW4 5772   4.031   3.226   2.274
 1436SOL     OW 5773   4.035   3.494   2.340
 1436SOL    HW2 5774   4.117   3.534   2.311
 1436SOL    HW3 5775   3.967   3.537   2.288
 1436SOL    MW4 5776   4.037   3.505   2.329
 1437SOL     OW 5777   4.278   3.588   2.233
 1437SOL    HW2 5778   4.270   3.680   2.260
 1437SOL    HW3 5779   4.270   3.591   2.137
 1437SOL    MW4 5780   4.275   3.601   2.224
 1438SOL     OW 5781   4.254   3.854   2.318
 1438SOL    HW2 5782   4.252   3.862   2.413
 1438SOL    HW3 5783   4.338   3.893   2.292
 1438SOL    MW4 5784   4.265   3.860   2.327
 1439SOL     OW 5785   4.049   4.023   2.278
 1439SOL    HW2 5786   4.125   3.966   2.282
 1439SOL    HW3 5787   4.035   4.039   2.184
 1439SOL    MW4 5788   4.057   4.018   2.266
 1440SOL     OW 5789   4.031   4.287   2.387
 1440SOL    HW2 5790   4.113   4.324   2.354
 1440SOL    HW3 5791   4.031   4.197   2.355
 1440SOL    MW4 5792   4.042   4.280   2.378
 1441SOL     OW 5793   4.269   4.375   2.255
 1441SOL    HW2 5794   4.276   4.468   2.276
 1441SOL    HW3 5795   4.346   4.335   2.295
 1441SOL    MW4 5796   4.280   4.382   2.263
 1442SOL     OW 5797   0.244   4.660   2.639
 1442SOL    HW2 5798   0.240   4.570   2.669
 1442SOL    HW3 5799   0.161   4.699   2.668
 1442SOL    MW4 5800   0.232   4.653   2.647
 1443SOL     OW 5801   0.016   0.123   2.736
 1443SOL    HW2 5802   0.016   0.107   2.830
 1443SOL    HW3 5803   0.023   0.219   2.729
 1443SOL    MW4 5804   0.017   0.134   2.748
 1444SOL     OW 5805   0.019   0.405   2.674
 1444SOL    HW2 5806   0.104   0.439   2.702
 1444SOL    HW3 5807   0.032   0.380   2.583
 1444SOL    MW4 5808   0.032   0.406   2.666
 1445SOL     OW 5809   0.262   0.519   2.776
 1445SOL    HW2 5810   0.275   0.490   2.867
 1445SOL    HW3 5811   0.344   0.496   2.732
 1445SOL    MW4 5812   0.275   0.512   2.783
 1446SOL     OW 5813   0.234   0.765   2.664
 1446SOL    HW2 5814   0.311   0.814   2.692
 1446SOL    HW3 5815   0.244   0.679   2.705
 1446SOL    MW4 5816   0.246   0.760   2.673
 1447SOL     OW 5817   0.014   0.904   2.750
 1447SOL    HW2 5818  -0.058   0.859   2.705
 1447SOL    HW3 5819   0.092   0.853   2.727
 1447SOL    MW4 5820   0.015   0.891   2.741
 1448SOL     OW 5821   4.486   1.164   2.664
 1448SOL    HW2 5822   4.566   1.208   2.694
 1448SOL    HW3 5823   4.495   1.075   2.698
 1448SOL    MW4 5824   4.498   1.158   2.673
 1449SOL     OW 5825   0.232   1.290   2.749
 1449SOL    HW2 5826   0.316   1.246   2.736
 1449SOL    HW3 5827   0.230   1.358   2.681
 1449SOL    MW4 5828   0.243   1.293   2.738
 1450SOL     OW 5829   0.217   1.509   2.580
 1450SOL    HW2 5830   0.296   1.543   2.621
 1450SOL    HW3 5831   0.149   1.573   2.602
 1450SOL    MW4 5832   0.218   1.522   2.588
 1451SOL     OW 5833   0.010   1.655   2.682
 1451SOL    HW2 5834   0.016   1.661   2.777
 1451SOL    HW3 5835   0.009   1.745   2.652
 1451SOL    MW4 5836   0.011   1.668   2.691
 1452SOL     OW 5837   4.443   1.911   2.603
 1452SOL    HW2 5838   4.520   1.956   2.637
 1452SOL    HW3 5839   4.448   1.923   2.508
 1452SOL    MW4 5840   4.454   1.918   2.595
 1453SOL     OW 5841   0.177   2.012   2.721
 1453SOL    HW2 5842   0.260   1.972   2.692
 1453SOL    HW3 5843   0.184   2.103   2.693
 1453SOL    MW4 5844   0.189   2.019   2.713
 1454SOL     OW 5845   0.223   2.264   2.650
 1454SOL    HW2 5846   0.297   2.312   2.688
 1454SOL    HW3 5847   0.147   2.319   2.669
 1454SOL    MW4 5848   0.223   2.278   2.657
 1455SOL     OW 5849   0.004   2.416   2.703
 1455SOL    HW2 5850   0.013   2.428   2.798
 1455SOL    HW3 5851  -0.075   2.362   2.694
 1455SOL    MW4 5852  -0.006   2.411   2.714
 1456SOL     OW 5853   4.451   2.700   2.640
 1456SOL    HW2 5854   4.368   2.721   2.683
 1456SOL    HW3 5855   4.469   2.609   2.665
 1456SOL    MW4 5856   4.442   2.691   2.649
 1457SOL     OW 5857   0.216   2.808   2.741
 1457SOL    HW2 5858   0.220   2.898   2.709
 1457SOL    HW3 5859   0.124   2.783   2.733
 1457SOL    MW4 5860   0.205   2.817   2.736
 1458SOL     OW 5861   0.230   3.078   2.655
 1458SOL    HW2 5862   0.300   3.129   2.694
 1458SOL    HW3 5863   0.260   3.060   2.566
 1458SOL    MW4 5864   0.243   3.082   2.649
 1459SOL     OW 5865   4.457   3.218   2.717
 1459SOL    HW2 5866   4.388   3.156   2.693
 1459SOL    HW3 5867   4.539   3.175   2.690
 1459SOL    MW4 5868   4.459   3.204   2.710
 1460SOL     OW 5869   0.007   3.486   2.642
 1460SOL    HW2 5870   0.089   3.525   2.672
 1460SOL    HW3 5871   0.005   3.400   2.685
 1460SOL    MW4 5872   0.018   3.480   2.652
 1461SOL     OW 5873   0.236   3.609   2.751
 1461SOL    HW2 5874   0.224   3.586   2.843
 1461SOL    HW3 5875   0.327   3.583   2.732
 1461SOL    MW4 5876   0.247   3.602   2.760
 1462SOL     OW 5877   0.198   3.856   2.632
 1462SOL    HW2 5878   0.204   3.772   2.679
 1462SOL    HW3 5879   0.217   3.833   2.541
 1462SOL    MW4 5880   0.202   3.842   2.627
 1463SOL     OW 5881   4.466   4.006   2.746
 1463SOL    HW2 5882   4.482   4.098   2.729
 1463SOL    HW3 5883   4.537   3.960   2.699
 1463SOL    MW4 5884   4.478   4.012   2.737
 1464SOL     OW 5885   4.483   4.265   2.638
 1464SOL    HW2 5886   4.414   4.324   2.668
 1464SOL    HW3 5887   4.564   4.305   2.670
 1464SOL    MW4 5888   4.485   4.278   2.646
 1465SOL     OW 5889   0.217   4.383   2.732
 1465SOL    HW2 5890   0.241   4.395   2.824
 1465SOL    HW3 5891   0.284   4.323   2.699
 1465SOL    MW4 5892   0.229   4.377   2.740
 1466SOL     OW 5893   0.690   4.649   2.620
 1466SOL    HW2 5894   0.770   4.689   2.654
 1466SOL    HW3 5895   0.620   4.708   2.649
 1466SOL    MW4 5896   0.692   4.662   2.629
 1467SOL     OW 5897   0.487   0.124   2.701
 1467SOL    HW2 5898   0.493   0.100   2.793
 1467SOL    HW3 5899   0.400   0.097   2.674
 1467SOL    MW4 5900   0.477   0.118   2.710
 1468SOL     OW 5901   0.452   0.390   2.631
 1468SOL    HW2 5902   0.525   0.442   2.665
 1468SOL    HW3 5903   0.472   0.300   2.659
 1468SOL    MW4 5904   0.464   0.385   2.639
 1469SOL     OW 5905   0.657   0.505   2.763
 1469SOL    HW2 5906   0.667   0.498   2.857
 1469SOL    HW3 5907   0.734   0.460   2.726
 1469SOL    MW4 5908   0.668   0.498   2.770
 1470SOL     OW 5909   0.684   0.758   2.639
 1470SOL    HW2 5910   0.754   0.806   2.683
 1470SOL    HW3 5911   0.682   0.673   2.683
 1470SOL    MW4 5912   0.693   0.754   2.651
 1471SOL     OW 5913   0.461   0.896   2.717
 1471SOL    HW2 5914   0.467   0.988   2.692
 1471SOL    HW3 5915   0.541   0.856   2.681
 1471SOL    MW4 5916   0.473   0.902   2.709
 1472SOL     OW 5917   0.476   1.168   2.628
 1472SOL    HW2 5918   0.558   1.214   2.646
 1472SOL    HW3 5919   0.474   1.159   2.533
 1472SOL    MW4 5920   0.486   1.173   2.618
 1473SOL     OW 5921   0.709   1.265   2.721
 1473SOL    HW2 5922   0.694   1.252   2.815
 1473SOL    HW3 5923   0.799   1.236   2.707
 1473SOL    MW4 5924   0.719   1.259   2.731
 1474SOL     OW 5925   0.679   1.522   2.596
 1474SOL    HW2 5926   0.592   1.561   2.609
 1474SOL    HW3 5927   0.670   1.432   2.626
 1474SOL    MW4 5928   0.666   1.516   2.602
 1475SOL     OW 5929   0.427   1.636   2.675
 1475SOL    HW2 5930   0.436   1.638   2.770
 1475SOL    HW3 5931   0.426   1.729   2.649
 1475SOL    MW4 5932   0.428   1.649   2.684
 1476SOL     OW 5933   0.402   1.896   2.611
 1476SOL    HW2 5934   0.487   1.929   2.639
 1476SOL    HW3 5935   0.397   1.918   2.518
 1476SOL    MW4 5936   0.412   1.904   2.603
 1477SOL     OW 5937   0.628   2.034   2.709
 1477SOL    HW2 5938   0.627   2.037   2.804
 1477SOL    HW3 5939   0.716   2.002   2.687
 1477SOL    MW4 5940   0.640   2.030   2.718
 1478SOL     OW 5941   0.666   2.312   2.618
 1478SOL    HW2 5942   0.749   2.341   2.657
 1478SOL    HW3 5943   0.657   2.222   2.647
 1478SOL    MW4 5944   0.676   2.304   2.627
 1479SOL     OW 5945   0.440   2.418   2.723
 1479SOL    HW2 5946   0.433   2.512   2.704
 1479SOL    HW3 5947   0.515   2.389   2.672
 1479SOL    MW4 5948   0.449   2.427   2.714
 1480SOL     OW 5949   0.430   2.673   2.617
 1480SOL    HW2 5950   0.506   2.728   2.632
 1480SOL    HW3 5951   0.357   2.720   2.657
 1480SOL    MW4 5952   0.431   2.686   2.624
 1481SOL     OW 5953   0.638   2.831   2.728
 1481SOL    HW2 5954   0.640   2.813   2.822
 1481SOL    HW3 5955   0.659   2.924   2.721
 1481SOL    MW4 5956   0.641   2.841   2.740
 1482SOL     OW 5957   0.680   3.093   2.708
 1482SOL    HW2 5958   0.755   3.133   2.751
 1482SOL    HW3 5959   0.701   3.096   2.615
 1482SOL    MW4 5960   0.693   3.098   2.701
 1483SOL     OW 5961   0.446   3.196   2.784
 1483SOL    HW2 5962   0.425   3.175   2.875
 1483SOL    HW3 5963   0.536   3.164   2.772
 1483SOL    MW4 5964   0.455   3.189   2.795
 1484SOL     OW 5965   0.455   3.459   2.686
 1484SOL    HW2 5966   0.438   3.371   2.719
 1484SOL    HW3 5967   0.460   3.449   2.591
 1484SOL    MW4 5968   0.454   3.446   2.678
 1485SOL     OW 5969   0.676   3.626   2.729
 1485SOL    HW2 5970   0.695   3.622   2.823
 1485SOL    HW3 5971   0.600   3.567   2.718
 1485SOL    MW4 5972   0.668   3.617   2.740
 1486SOL     OW 5973   0.667   3.899   2.652
 1486SOL    HW2 5974   0.581   3.920   2.689
 1486SOL    HW3 5975   0.676   3.804   2.665
 1486SOL    MW4 5976   0.657   3.889   2.659
 1487SOL     OW 5977   0.416   3.979   2.755
 1487SOL    HW2 5978   0.410   4.064   2.712
 1487SOL    HW3 5979   0.336   3.933   2.731
 1487SOL    MW4 5980   0.405   3.984   2.746
 1488SOL     OW 5981   0.416   4.223   2.642
 1488SOL    HW2 5982   0.490   4.276   2.671
 1488SOL    HW3 5983   0.417   4.231   2.547
 1488SOL    MW4 5984   0.426   4.231   2.634
 1489SOL     OW 5985   0.646   4.386   2.697
 1489SOL    HW2 5986   0.725   4.338   2.674
 1489SOL    HW3 5987   0.664   4.476   2.671
 1489SOL    MW4 5988   0.659   4.391   2.691
 1490SOL     OW 5989   1.137   4.656   2.634
 1490SOL    HW2 5990   1.215   4.698   2.669
 1490SOL    HW3 5991   1.140   4.567   2.669
 1490SOL    MW4 5992   1.147   4.650   2.644
 1491SOL     OW 5993   0.912   0.126   2.712
 1491SOL    HW2 5994   0.922   0.133   2.807
 1491SOL    HW3 5995   0.988   0.075   2.684
 1491SOL    MW4 5996   0.924   0.121   2.721
 1492SOL     OW 5997   0.873   0.382   2.640
 1492SOL    HW2 5998   0.878   0.288   2.654
 1492SOL    HW3 5999   0.879   0.393   2.545
 1492SOL    MW4 6000   0.875   0.371   2.629
 1493SOL     OW 6001   1.123   0.480   2.725
 1493SOL    HW2 6002   1.121   0.573   2.705
 1493SOL    HW3 6003   1.039   0.446   2.695
 1493SOL    MW4 6004   1.112   0.488   2.718
 1494SOL     OW 6005   1.131   0.734   2.636
 1494SOL    HW2 6006   1.197   0.799   2.660
 1494SOL    HW3 6007   1.127   0.739   2.540
 1494SOL    MW4 6008   1.139   0.743   2.626
 1495SOL     OW 6009   0.921   0.889   2.741
 1495SOL    HW2 6010   0.927   0.886   2.837
 1495SOL    HW3 6011   0.999   0.842   2.711
 1495SOL    MW4 6012   0.932   0.882   2.750
 1496SOL     OW 6013   0.956   1.156   2.648
 1496SOL    HW2 6014   0.945   1.068   2.685
 1496SOL    HW3 6015   0.965   1.142   2.554
 1496SOL    MW4 6016   0.956   1.143   2.641
 1497SOL     OW 6017   1.188   1.282   2.727
 1497SOL    HW2 6018   1.172   1.375   2.713
 1497SOL    HW3 6019   1.108   1.239   2.701
 1497SOL    MW4 6020   1.176   1.289   2.722
 1498SOL     OW 6021   1.127   1.541   2.628
 1498SOL    HW2 6022   1.046   1.589   2.641
 1498SOL    HW3 6023   1.138   1.537   2.533
 1498SOL    MW4 6024   1.118   1.547   2.617
 1499SOL     OW 6025   0.865   1.684   2.710
 1499SOL    HW2 6026   0.863   1.673   2.805
 1499SOL    HW3 6027   0.797   1.626   2.677
 1499SOL    MW4 6028   0.856   1.675   2.718
 1500SOL     OW 6029   0.882   1.953   2.652
 1500SOL    HW2 6030   0.963   1.985   2.693
 1500SOL    HW3 6031   0.873   1.864   2.684
 1500SOL    MW4 6032   0.891   1.946   2.661
 1501SOL     OW 6033   1.121   2.029   2.741
 1501SOL    HW2 6034   1.208   1.998   2.714
 1501SOL    HW3 6035   1.114   2.116   2.701
 1501SOL    MW4 6036   1.132   2.036   2.733
 1502SOL     OW 6037   1.108   2.286   2.635
 1502SOL    HW2 6038   1.181   2.330   2.677
 1502SOL    HW3 6039   1.115   2.308   2.543
 1502SOL    MW4 6040   1.118   2.294   2.629
 1503SOL     OW 6041   0.877   2.414   2.742
 1503SOL    HW2 6042   0.881   2.502   2.703
 1503SOL    HW3 6043   0.952   2.368   2.705
 1503SOL    MW4 6044   0.888   2.420   2.732
 1504SOL     OW 6045   0.864   2.681   2.652
 1504SOL    HW2 6046   0.943   2.729   2.678
 1504SOL    HW3 6047   0.793   2.726   2.697
 1504SOL    MW4 6048   0.865   2.693   2.661
 1505SOL     OW 6049   1.083   2.832   2.718
 1505SOL    HW2 6050   1.106   2.825   2.811
 1505SOL    HW3 6051   1.159   2.795   2.672
 1505SOL    MW4 6052   1.096   2.826   2.724
 1506SOL     OW 6053   1.148   3.096   2.627
 1506SOL    HW2 6054   1.122   3.007   2.650
 1506SOL    HW3 6055   1.136   3.101   2.532
 1506SOL    MW4 6056   1.143   3.085   2.618
 1507SOL     OW 6057   0.919   3.208   2.771
 1507SOL    HW2 6058   0.903   3.286   2.718
 1507SOL    HW3 6059   1.006   3.179   2.743
 1507SOL    MW4 6060   0.928   3.215   2.760
 1508SOL     OW 6061   0.887   3.462   2.645
 1508SOL    HW2 6062   0.961   3.508   2.687
 1508SOL    HW3 6063   0.810   3.512   2.673
 1508SOL    MW4 6064   0.887   3.475   2.654
 1509SOL     OW 6065   1.102   3.599   2.745
 1509SOL    HW2 6066   1.101   3.626   2.837
 1509SOL    HW3 6067   1.100   3.681   2.696
 1509SOL    MW4 6068   1.102   3.613   2.751
 1510SOL     OW 6069   1.098   3.851   2.646
 1510SOL    HW2 6070   1.178   3.889   2.684
 1510SOL    HW3 6071   1.110   3.859   2.552
 1510SOL    MW4 6072   1.110   3.857   2.639
 1511SOL     OW 6073   0.893   4.008   2.759
 1511SOL    HW2 6074   0.958   3.963   2.705
 1511SOL    HW3 6075   0.809   3.970   2.732
 1511SOL    MW4 6076   0.890   3.997   2.749
 1512SOL     OW 6077   0.888   4.266   2.649
 1512SOL    HW2 6078   0.892   4.174   2.675
 1512SOL    HW3 6079   0.884   4.265   2.554
 1512SOL    MW4 6080   0.888   4.254   2.640
 1513SOL     OW 6081   1.144   4.351   2.760
 1513SOL    HW2 6082   1.137   4.378   2.852
 1513SOL    HW3 6083   1.055   4.327   2.735
 1513SOL    MW4 6084   1.131   4.351   2.769
 1514SOL     OW 6085   1.550   4.647   2.596
 1514SOL    HW2 6086   1.539   4.566   2.645
 1514SOL    HW3 6087   1.573   4.619   2.508
 1514SOL    MW4 6088   1.552   4.633   2.591
 1515SOL     OW 6089   1.354   0.132   2.729
 1515SOL    HW2 6090   1.340   0.221   2.698
 1515SOL    HW3 6091   1.413   0.093   2.664
 1515SOL    MW4 6092   1.360   0.139   2.717
 1516SOL     OW 6093   1.363   0.370   2.595
 1516SOL    HW2 6094   1.436   0.397   2.651
 1516SOL    HW3 6095   1.290   0.426   2.622
 1516SOL    MW4 6096   1.363   0.381   2.606
 1517SOL     OW 6097   1.595   0.476   2.730
 1517SOL    HW2 6098   1.665   0.448   2.671
 1517SOL    HW3 6099   1.586   0.570   2.713
 1517SOL    MW4 6100   1.603   0.484   2.720
 1518SOL     OW 6101   1.571   0.756   2.651
 1518SOL    HW2 6102   1.486   0.795   2.674
 1518SOL    HW3 6103   1.560   0.726   2.561
 1518SOL    MW4 6104   1.558   0.757   2.642
 1519SOL     OW 6105   1.332   0.890   2.725
 1519SOL    HW2 6106   1.345   0.892   2.820
 1519SOL    HW3 6107   1.361   0.976   2.695
 1519SOL    MW4 6108   1.338   0.901   2.734
 1520SOL     OW 6109   1.405   1.124   2.602
 1520SOL    HW2 6110   1.472   1.185   2.631
 1520SOL    HW3 6111   1.323   1.160   2.638
 1520SOL    MW4 6112   1.403   1.137   2.611
 1521SOL     OW 6113   1.606   1.266   2.719
 1521SOL    HW2 6114   1.601   1.253   2.814
 1521SOL    HW3 6115   1.679   1.210   2.691
 1521SOL    MW4 6116   1.615   1.257   2.728
 1522SOL     OW 6117   1.608   1.525   2.629
 1522SOL    HW2 6118   1.605   1.434   2.658
 1522SOL    HW3 6119   1.602   1.520   2.533
 1522SOL    MW4 6120   1.607   1.512   2.620
 1523SOL     OW 6121   1.398   1.695   2.708
 1523SOL    HW2 6122   1.476   1.648   2.680
 1523SOL    HW3 6123   1.326   1.633   2.694
 1523SOL    MW4 6124   1.399   1.681   2.703
 1524SOL     OW 6125   1.376   1.950   2.635
 1524SOL    HW2 6126   1.375   1.857   2.660
 1524SOL    HW3 6127   1.370   1.949   2.539
 1524SOL    MW4 6128   1.375   1.938   2.626
 1525SOL     OW 6129   1.602   2.090   2.731
 1525SOL    HW2 6130   1.665   2.030   2.692
 1525SOL    HW3 6131   1.516   2.059   2.702
 1525SOL    MW4 6132   1.599   2.078   2.722
 1526SOL     OW 6133   1.562   2.334   2.605
 1526SOL    HW2 6134   1.634   2.395   2.624
 1526SOL    HW3 6135   1.582   2.256   2.656
 1526SOL    MW4 6136   1.574   2.332   2.614
 1527SOL     OW 6137   1.331   2.423   2.709
 1527SOL    HW2 6138   1.336   2.511   2.671
 1527SOL    HW3 6139   1.409   2.379   2.676
 1527SOL    MW4 6140   1.342   2.429   2.700
 1528SOL     OW 6141   1.320   2.709   2.639
 1528SOL    HW2 6142   1.381   2.770   2.681
 1528SOL    HW3 6143   1.323   2.732   2.547
 1528SOL    MW4 6144   1.328   2.720   2.633
 1529SOL     OW 6145   1.534   2.839   2.733
 1529SOL    HW2 6146   1.549   2.838   2.828
 1529SOL    HW3 6147   1.614   2.802   2.696
 1529SOL    MW4 6148   1.547   2.834   2.741
 1530SOL     OW 6149   1.600   3.090   2.637
 1530SOL    HW2 6150   1.662   3.138   2.692
 1530SOL    HW3 6151   1.595   3.003   2.677
 1530SOL    MW4 6152   1.608   3.085   2.649
 1531SOL     OW 6153   1.361   3.225   2.741
 1531SOL    HW2 6154   1.437   3.191   2.694
 1531SOL    HW3 6155   1.286   3.185   2.697
 1531SOL    MW4 6156   1.361   3.215   2.729
 1532SOL     OW 6157   1.356   3.498   2.695
 1532SOL    HW2 6158   1.347   3.404   2.714
 1532SOL    HW3 6159   1.274   3.536   2.725
 1532SOL    MW4 6160   1.344   3.490   2.702
 1533SOL     OW 6161   1.585   3.634   2.696
 1533SOL    HW2 6162   1.665   3.588   2.672
 1533SOL    HW3 6163   1.516   3.568   2.689
 1533SOL    MW4 6164   1.586   3.619   2.692
 1534SOL     OW 6165   1.558   3.907   2.591
 1534SOL    HW2 6166   1.475   3.921   2.636
 1534SOL    HW3 6167   1.582   3.816   2.611
 1534SOL    MW4 6168   1.550   3.897   2.600
 1535SOL     OW 6169   1.328   3.952   2.722
 1535SOL    HW2 6170   1.342   3.951   2.817
 1535SOL    HW3 6171   1.347   4.042   2.696
 1535SOL    MW4 6172   1.332   3.964   2.731
 1536SOL     OW 6173   1.380   4.220   2.641
 1536SOL    HW2 6174   1.309   4.258   2.691
 1536SOL    HW3 6175   1.356   4.234   2.550
 1536SOL    MW4 6176   1.368   4.227   2.636
 1537SOL     OW 6177   1.581   4.406   2.737
 1537SOL    HW2 6178   1.591   4.395   2.831
 1537SOL    HW3 6179   1.517   4.339   2.712
 1537SOL    MW4 6180   1.574   4.395   2.746
 1538SOL     OW 6181   2.003   4.637   2.645
 1538SOL    HW2 6182   2.087   4.670   2.677
 1538SOL    HW3 6183   2.014   4.631   2.550
 1538SOL    MW4 6184   2.016   4.640   2.637
 1539SOL     OW 6185   1.761   0.093   2.727
 1539SOL    HW2 6186   1.829   0.028   2.713
 1539SOL    HW3 6187   1.679   0.048   2.704
 1539SOL    MW4 6188   1.759   0.079   2.722
 1540SOL     OW 6189   1.800   0.344   2.610
 1540SOL    HW2 6190   1.878   0.377   2.655
 1540SOL    HW3 6191   1.786   0.257   2.646
 1540SOL    MW4 6192   1.809   0.337   2.621
 1541SOL     OW 6193   2.010   0.447   2.732
 1541SOL    HW2 6194   2.097   0.408   2.722
 1541SOL    HW3 6195   2.022   0.540   2.710
 1541SOL    MW4 6196   2.023   0.454   2.728
 1542SOL     OW 6197   2.034   0.726   2.672
 1542SOL    HW2 6198   1.960   0.778   2.703
 1542SOL    HW3 6199   2.018   0.716   2.578
 1542SOL    MW4 6200   2.022   0.731   2.664
 1543SOL     OW 6201   1.808   0.843   2.760
 1543SOL    HW2 6202   1.799   0.931   2.723
 1543SOL    HW3 6203   1.731   0.795   2.727
 1543SOL    MW4 6204   1.797   0.848   2.751
 1544SOL     OW 6205   1.820   1.113   2.657
 1544SOL    HW2 6206   1.881   1.183   2.679
 1544SOL    HW3 6207   1.806   1.122   2.562
 1544SOL    MW4 6208   1.826   1.123   2.647
 1545SOL     OW 6209   2.025   1.283   2.736
 1545SOL    HW2 6210   2.041   1.289   2.831
 1545SOL    HW3 6211   2.100   1.234   2.703
 1545SOL    MW4 6212   2.037   1.277   2.744
 1546SOL     OW 6213   2.034   1.547   2.616
 1546SOL    HW2 6214   1.976   1.610   2.659
 1546SOL    HW3 6215   2.013   1.463   2.656
 1546SOL    MW4 6216   2.024   1.544   2.627
 1547SOL     OW 6217   1.826   1.682   2.735
 1547SOL    HW2 6218   1.805   1.693   2.827
 1547SOL    HW3 6219   1.751   1.634   2.699
 1547SOL    MW4 6220   1.813   1.677   2.742
 1548SOL     OW 6221   1.807   1.941   2.602
 1548SOL    HW2 6222   1.892   1.980   2.626
 1548SOL    HW3 6223   1.800   1.864   2.657
 1548SOL    MW4 6224   1.818   1.936   2.612
 1549SOL     OW 6225   2.033   2.058   2.665
 1549SOL    HW2 6226   2.023   2.054   2.761
 1549SOL    HW3 6227   2.032   2.151   2.645
 1549SOL    MW4 6228   2.031   2.070   2.675
 1550SOL     OW 6229   2.008   2.329   2.628
 1550SOL    HW2 6230   2.091   2.366   2.658
 1550SOL    HW3 6231   2.001   2.355   2.537
 1550SOL    MW4 6232   2.018   2.337   2.620
 1551SOL     OW 6233   1.776   2.479   2.715
 1551SOL    HW2 6234   1.762   2.488   2.809
 1551SOL    HW3 6235   1.844   2.413   2.707
 1551SOL    MW4 6236   1.783   2.471   2.726
 1552SOL     OW 6237   1.746   2.739   2.612
 1552SOL    HW2 6238   1.757   2.649   2.643
 1552SOL    HW3 6239   1.767   2.735   2.518
 1552SOL    MW4 6240   1.750   2.727   2.603
 1553SOL     OW 6241   1.966   2.838   2.738
 1553SOL    HW2 6242   2.047   2.798   2.705
 1553SOL    HW3 6243   1.896   2.787   2.697
 1553SOL    MW4 6244   1.968   2.826   2.728
 1554SOL     OW 6245   2.023   3.076   2.628
 1554SOL    HW2 6246   2.001   2.988   2.659
 1554SOL    HW3 6247   2.028   3.066   2.533
 1554SOL    MW4 6248   2.021   3.063   2.619
 1555SOL     OW 6249   1.791   3.259   2.748
 1555SOL    HW2 6250   1.810   3.343   2.705
 1555SOL    HW3 6251   1.869   3.206   2.733
 1555SOL    MW4 6252   1.804   3.263   2.740
 1556SOL     OW 6253   1.801   3.507   2.615
 1556SOL    HW2 6254   1.872   3.558   2.654
 1556SOL    HW3 6255   1.835   3.479   2.530
 1556SOL    MW4 6256   1.815   3.510   2.609
 1557SOL     OW 6257   2.026   3.606   2.722
 1557SOL    HW2 6258   2.033   3.605   2.818
 1557SOL    HW3 6259   2.081   3.534   2.694
 1557SOL    MW4 6260   2.034   3.597   2.731
 1558SOL     OW 6261   2.007   3.842   2.594
 1558SOL    HW2 6262   1.934   3.895   2.627
 1558SOL    HW3 6263   2.014   3.770   2.656
 1558SOL    MW4 6264   1.998   3.840   2.607
 1559SOL     OW 6265   1.805   4.005   2.724
 1559SOL    HW2 6266   1.824   4.095   2.698
 1559SOL    HW3 6267   1.719   3.986   2.687
 1559SOL    MW4 6268   1.796   4.014   2.716
 1560SOL     OW 6269   1.822   4.266   2.634
 1560SOL    HW2 6270   1.746   4.319   2.656
 1560SOL    HW3 6271   1.823   4.263   2.538
 1560SOL    MW4 6272   1.812   4.272   2.624
 1561SOL     OW 6273   2.096   4.378   2.722
 1561SOL    HW2 6274   2.018   4.333   2.690
 1561SOL    HW3 6275   2.088   4.467   2.687
 1561SOL    MW4 6276   2.085   4.384   2.713
 1562SOL     OW 6277   2.482   4.618   2.659
 1562SOL    HW2 6278   2.548   4.684   2.680
 1562SOL    HW3 6279   2.476   4.619   2.563
 1562SOL    MW4 6280   2.490   4.627   2.649
 1563SOL     OW 6281   2.246   0.059   2.752
 1563SOL    HW2 6282   2.257   0.071   2.846
 1563SOL    HW3 6283   2.327   0.018   2.723
 1563SOL    MW4 6284   2.258   0.055   2.760
 1564SOL     OW 6285   2.261   0.323   2.638
 1564SOL    HW2 6286   2.269   0.230   2.659
 1564SOL    HW3 6287   2.240   0.325   2.545
 1564SOL    MW4 6288   2.259   0.311   2.629
 1565SOL     OW 6289   2.478   0.484   2.695
 1565SOL    HW2 6290   2.453   0.572   2.666
 1565SOL    HW3 6291   2.398   0.432   2.684
 1565SOL    MW4 6292   2.464   0.489   2.689
 1566SOL     OW 6293   2.467   0.765   2.650
 1566SOL    HW2 6294   2.403   0.824   2.690
 1566SOL    HW3 6295   2.465   0.787   2.557
 1566SOL    MW4 6296   2.458   0.776   2.643
 1567SOL     OW 6297   2.250   0.893   2.752
 1567SOL    HW2 6298   2.267   0.910   2.845
 1567SOL    HW3 6299   2.189   0.820   2.752
 1567SOL    MW4 6300   2.244   0.886   2.765
 1568SOL     OW 6301   2.223   1.132   2.628
 1568SOL    HW2 6302   2.207   1.054   2.683
 1568SOL    HW3 6303   2.233   1.097   2.540
 1568SOL    MW4 6304   2.222   1.117   2.624
 1569SOL     OW 6305   2.447   1.250   2.740
 1569SOL    HW2 6306   2.531   1.237   2.697
 1569SOL    HW3 6307   2.383   1.208   2.683
 1569SOL    MW4 6308   2.449   1.243   2.727
 1570SOL     OW 6309   2.453   1.500   2.606
 1570SOL    HW2 6310   2.381   1.556   2.634
 1570SOL    HW3 6311   2.446   1.422   2.660
 1570SOL    MW4 6312   2.443   1.497   2.617
 1571SOL     OW 6313   2.265   1.663   2.709
 1571SOL    HW2 6314   2.263   1.753   2.675
 1571SOL    HW3 6315   2.184   1.623   2.677
 1571SOL    MW4 6316   2.254   1.670   2.700
 1572SOL     OW 6317   2.250   1.909   2.627
 1572SOL    HW2 6318   2.177   1.963   2.656
 1572SOL    HW3 6319   2.237   1.901   2.532
 1572SOL    MW4 6320   2.238   1.916   2.618
 1573SOL     OW 6321   2.467   2.051   2.704
 1573SOL    HW2 6322   2.447   2.141   2.675
 1573SOL    HW3 6323   2.389   2.001   2.681
 1573SOL    MW4 6324   2.454   2.057   2.697
 1574SOL     OW 6325   2.421   2.325   2.634
 1574SOL    HW2 6326   2.510   2.350   2.661
 1574SOL    HW3 6327   2.428   2.311   2.540
 1574SOL    MW4 6328   2.434   2.327   2.625
 1575SOL     OW 6329   2.217   2.495   2.711
 1575SOL    HW2 6330   2.210   2.476   2.805
 1575SOL    HW3 6331   2.297   2.448   2.684
 1575SOL    MW4 6332   2.227   2.486   2.720
 1576SOL     OW 6333   2.213   2.766   2.660
 1576SOL    HW2 6334   2.297   2.797   2.693
 1576SOL    HW3 6335   2.212   2.673   2.684
 1576SOL    MW4 6336   2.224   2.758   2.667
 1577SOL     OW 6337   2.478   2.815   2.760
 1577SOL    HW2 6338   2.550   2.757   2.736
 1577SOL    HW3 6339   2.497   2.898   2.717
 1577SOL    MW4 6340   2.490   2.818   2.751
 1578SOL     OW 6341   2.436   3.084   2.659
 1578SOL    HW2 6342   2.354   3.123   2.690
 1578SOL    HW3 6343   2.419   3.062   2.567
 1578SOL    MW4 6344   2.423   3.086   2.651
 1579SOL     OW 6345   2.215   3.220   2.744
 1579SOL    HW2 6346   2.225   3.193   2.835
 1579SOL    HW3 6347   2.137   3.175   2.714
 1579SOL    MW4 6348   2.206   3.211   2.752
 1580SOL     OW 6349   2.209   3.455   2.594
 1580SOL    HW2 6350   2.289   3.496   2.626
 1580SOL    HW3 6351   2.205   3.371   2.639
 1580SOL    MW4 6352   2.219   3.449   2.604
 1581SOL     OW 6353   2.456   3.529   2.699
 1581SOL    HW2 6354   2.464   3.534   2.794
 1581SOL    HW3 6355   2.460   3.621   2.671
 1581SOL    MW4 6356   2.458   3.542   2.708
 1582SOL     OW 6357   2.471   3.799   2.617
 1582SOL    HW2 6358   2.542   3.841   2.664
 1582SOL    HW3 6359   2.391   3.839   2.652
 1582SOL    MW4 6360   2.470   3.810   2.628
 1583SOL     OW 6361   2.245   3.955   2.683
 1583SOL    HW2 6362   2.229   3.963   2.777
 1583SOL    HW3 6363   2.165   3.916   2.649
 1583SOL    MW4 6364   2.232   3.951   2.691
 1584SOL     OW 6365   2.289   4.225   2.591
 1584SOL    HW2 6366   2.283   4.131   2.611
 1584SOL    HW3 6367   2.219   4.265   2.644
 1584SOL    MW4 6368   2.279   4.218   2.601
 1585SOL     OW 6369   2.444   4.373   2.767
 1585SOL    HW2 6370   2.381   4.329   2.710
 1585SOL    HW3 6371   2.438   4.466   2.744
 1585SOL    MW4 6372   2.435   4.379   2.757
 1586SOL     OW 6373   2.950   4.574   2.603
 1586SOL    HW2 6374   3.017   4.634   2.635
 1586SOL    HW3 6375   2.938   4.598   2.511
 1586SOL    MW4 6376   2.958   4.585   2.595
 1587SOL     OW 6377   2.715   0.095   2.709
 1587SOL    HW2 6378   2.726   0.087   2.804
 1587SOL    HW3 6379   2.779   0.034   2.673
 1587SOL    MW4 6380   2.725   0.086   2.717
 1588SOL     OW 6381   2.723   0.361   2.627
 1588SOL    HW2 6382   2.714   0.270   2.653
 1588SOL    HW3 6383   2.636   0.399   2.640
 1588SOL    MW4 6384   2.710   0.354   2.633
 1589SOL     OW 6385   2.908   0.520   2.769
 1589SOL    HW2 6386   2.933   0.581   2.699
 1589SOL    HW3 6387   2.848   0.459   2.726
 1589SOL    MW4 6388   2.903   0.520   2.754
 1590SOL     OW 6389   2.934   0.764   2.572
 1590SOL    HW2 6390   3.006   0.806   2.619
 1590SOL    HW3 6391   2.855   0.790   2.620
 1590SOL    MW4 6392   2.933   0.773   2.585
 1591SOL     OW 6393   2.713   0.869   2.716
 1591SOL    HW2 6394   2.715   0.870   2.812
 1591SOL    HW3 6395   2.633   0.822   2.694
 1591SOL    MW4 6396   2.703   0.863   2.726
 1592SOL     OW 6397   2.698   1.146   2.648
 1592SOL    HW2 6398   2.781   1.183   2.678
 1592SOL    HW3 6399   2.702   1.054   2.674
 1592SOL    MW4 6400   2.710   1.138   2.655
 1593SOL     OW 6401   2.944   1.279   2.723
 1593SOL    HW2 6402   2.936   1.271   2.819
 1593SOL    HW3 6403   3.019   1.224   2.701
 1593SOL    MW4 6404   2.953   1.271   2.733
 1594SOL     OW 6405   2.910   1.527   2.590
 1594SOL    HW2 6406   2.831   1.568   2.625
 1594SOL    HW3 6407   2.919   1.446   2.640
 1594SOL    MW4 6408   2.901   1.522   2.601
 1595SOL     OW 6409   2.682   1.638   2.697
 1595SOL    HW2 6410   2.671   1.630   2.792
 1595SOL    HW3 6411   2.605   1.596   2.660
 1595SOL    MW4 6412   2.671   1.631   2.705
 1596SOL     OW 6413   2.701   1.913   2.626
 1596SOL    HW2 6414   2.688   1.827   2.664
 1596SOL    HW3 6415   2.620   1.961   2.645
 1596SOL    MW4 6416   2.689   1.908   2.633
 1597SOL     OW 6417   2.924   2.050   2.705
 1597SOL    HW2 6418   2.919   2.125   2.645
 1597SOL    HW3 6419   2.850   1.995   2.681
 1597SOL    MW4 6420   2.914   2.053   2.694
 1598SOL     OW 6421   2.901   2.307   2.591
 1598SOL    HW2 6422   2.989   2.327   2.623
 1598SOL    HW3 6423   2.843   2.360   2.647
 1598SOL    MW4 6424   2.905   2.317   2.603
 1599SOL     OW 6425   2.664   2.420   2.722
 1599SOL    HW2 6426   2.662   2.426   2.817
 1599SOL    HW3 6427   2.674   2.510   2.691
 1599SOL    MW4 6428   2.665   2.432   2.730
 1600SOL     OW 6429   2.682   2.684   2.637
 1600SOL    HW2 6430   2.765   2.727   2.658
 1600SOL    HW3 6431   2.673   2.693   2.542
 1600SOL    MW4 6432   2.692   2.691   2.627
 1601SOL     OW 6433   2.921   2.812   2.718
 1601SOL    HW2 6434   2.923   2.816   2.813
 1601SOL    HW3 6435   2.929   2.904   2.691
 1601SOL    MW4 6436   2.923   2.825   2.727
 1602SOL     OW 6437   2.938   3.082   2.628
 1602SOL    HW2 6438   2.852   3.108   2.661
 1602SOL    HW3 6439   2.924   3.068   2.534
 1602SOL    MW4 6440   2.924   3.083   2.620
 1603SOL     OW 6441   2.684   3.185   2.712
 1603SOL    HW2 6442   2.711   3.261   2.661
 1603SOL    HW3 6443   2.607   3.152   2.666
 1603SOL    MW4 6444   2.678   3.191   2.699
 1604SOL     OW 6445   2.739   3.447   2.622
 1604SOL    HW2 6446   2.663   3.489   2.663
 1604SOL    HW3 6447   2.729   3.465   2.529
 1604SOL    MW4 6448   2.727   3.455   2.615
 1605SOL     OW 6449   2.926   3.641   2.689
 1605SOL    HW2 6450   2.936   3.626   2.783
 1605SOL    HW3 6451   2.880   3.564   2.656
 1605SOL    MW4 6452   2.921   3.629   2.697
 1606SOL     OW 6453   2.862   3.890   2.601
 1606SOL    HW2 6454   2.931   3.938   2.647
 1606SOL    HW3 6455   2.882   3.798   2.616
 1606SOL    MW4 6456   2.873   3.884   2.609
 1607SOL     OW 6457   2.659   4.012   2.725
 1607SOL    HW2 6458   2.664   4.097   2.682
 1607SOL    HW3 6459   2.732   3.963   2.689
 1607SOL    MW4 6460   2.669   4.017   2.715
 1608SOL     OW 6461   2.665   4.256   2.619
 1608SOL    HW2 6462   2.745   4.288   2.660
 1608SOL    HW3 6463   2.595   4.301   2.666
 1608SOL    MW4 6464   2.666   4.266   2.630
 1609SOL     OW 6465   2.910   4.351   2.761
 1609SOL    HW2 6466   2.918   4.370   2.855
 1609SOL    HW3 6467   2.933   4.433   2.718
 1609SOL    MW4 6468   2.914   4.364   2.768
 1610SOL     OW 6469   3.329   4.656   2.580
 1610SOL    HW2 6470   3.349   4.580   2.635
 1610SOL    HW3 6471   3.265   4.706   2.631
 1610SOL    MW4 6472   3.323   4.653   2.594
 1611SOL     OW 6473   3.101   0.098   2.712
 1611SOL    HW2 6474   3.092   0.093   2.807
 1611SOL    HW3 6475   3.099   0.191   2.693
 1611SOL    MW4 6476   3.099   0.109   2.722
 1612SOL     OW 6477   3.134   0.371   2.685
 1612SOL    HW2 6478   3.060   0.425   2.712
 1612SOL    HW3 6479   3.138   0.381   2.590
 1612SOL    MW4 6480   3.125   0.379   2.676
 1613SOL     OW 6481   3.374   0.465   2.783
 1613SOL    HW2 6482   3.358   0.547   2.737
 1613SOL    HW3 6483   3.294   0.414   2.768
 1613SOL    MW4 6484   3.361   0.469   2.775
 1614SOL     OW 6485   3.370   0.719   2.680
 1614SOL    HW2 6486   3.448   0.769   2.705
 1614SOL    HW3 6487   3.368   0.723   2.584
 1614SOL    MW4 6488   3.380   0.726   2.671
 1615SOL     OW 6489   3.139   0.873   2.714
 1615SOL    HW2 6490   3.122   0.882   2.808
 1615SOL    HW3 6491   3.219   0.821   2.710
 1615SOL    MW4 6492   3.147   0.867   2.726
 1616SOL     OW 6493   3.179   1.136   2.635
 1616SOL    HW2 6494   3.159   1.043   2.648
 1616SOL    HW3 6495   3.180   1.146   2.539
 1616SOL    MW4 6496   3.177   1.125   2.624
 1617SOL     OW 6497   3.408   1.268   2.711
 1617SOL    HW2 6498   3.403   1.277   2.806
 1617SOL    HW3 6499   3.325   1.227   2.687
 1617SOL    MW4 6500   3.396   1.264   2.721
 1618SOL     OW 6501   3.384   1.535   2.634
 1618SOL    HW2 6502   3.300   1.561   2.671
 1618SOL    HW3 6503   3.395   1.444   2.661
 1618SOL    MW4 6504   3.374   1.526   2.643
 1619SOL     OW 6505   3.138   1.647   2.744
 1619SOL    HW2 6506   3.167   1.736   2.726
 1619SOL    HW3 6507   3.060   1.635   2.690
 1619SOL    MW4 6508   3.132   1.657   2.735
 1620SOL     OW 6509   3.182   1.910   2.668
 1620SOL    HW2 6510   3.244   1.969   2.713
 1620SOL    HW3 6511   3.096   1.947   2.687
 1620SOL    MW4 6512   3.179   1.923   2.676
 1621SOL     OW 6513   3.406   2.039   2.754
 1621SOL    HW2 6514   3.396   2.066   2.845
 1621SOL    HW3 6515   3.411   2.120   2.704
 1621SOL    MW4 6516   3.406   2.053   2.759
 1622SOL     OW 6517   3.396   2.298   2.622
 1622SOL    HW2 6518   3.463   2.356   2.659
 1622SOL    HW3 6519   3.387   2.325   2.531
 1622SOL    MW4 6520   3.403   2.309   2.615
 1623SOL     OW 6521   3.143   2.382   2.706
 1623SOL    HW2 6522   3.143   2.476   2.687
 1623SOL    HW3 6523   3.231   2.353   2.682
 1623SOL    MW4 6524   3.155   2.391   2.701
 1624SOL     OW 6525   3.143   2.642   2.642
 1624SOL    HW2 6526   3.216   2.696   2.673
 1624SOL    HW3 6527   3.064   2.687   2.673
 1624SOL    MW4 6528   3.142   2.655   2.650
 1625SOL     OW 6529   3.341   2.827   2.703
 1625SOL    HW2 6530   3.339   2.812   2.798
 1625SOL    HW3 6531   3.431   2.804   2.678
 1625SOL    MW4 6532   3.353   2.822   2.713
 1626SOL     OW 6533   3.357   3.112   2.643
 1626SOL    HW2 6534   3.356   3.023   2.678
 1626SOL    HW3 6535   3.352   3.100   2.548
 1626SOL    MW4 6536   3.356   3.099   2.635
 1627SOL     OW 6537   3.127   3.240   2.730
 1627SOL    HW2 6538   3.205   3.193   2.701
 1627SOL    HW3 6539   3.053   3.186   2.699
 1627SOL    MW4 6540   3.127   3.227   2.722
 1628SOL     OW 6541   3.150   3.487   2.607
 1628SOL    HW2 6542   3.129   3.406   2.654
 1628SOL    HW3 6543   3.089   3.552   2.643
 1628SOL    MW4 6544   3.140   3.485   2.618
 1629SOL     OW 6545   3.375   3.621   2.699
 1629SOL    HW2 6546   3.360   3.608   2.793
 1629SOL    HW3 6547   3.303   3.574   2.657
 1629SOL    MW4 6548   3.364   3.613   2.706
 1630SOL     OW 6549   3.331   3.886   2.620
 1630SOL    HW2 6550   3.346   3.799   2.657
 1630SOL    HW3 6551   3.351   3.876   2.527
 1630SOL    MW4 6552   3.335   3.873   2.613
 1631SOL     OW 6553   3.101   3.983   2.724
 1631SOL    HW2 6554   3.113   4.074   2.696
 1631SOL    HW3 6555   3.173   3.936   2.681
 1631SOL    MW4 6556   3.112   3.989   2.714
 1632SOL     OW 6557   3.141   4.253   2.638
 1632SOL    HW2 6558   3.057   4.284   2.672
 1632SOL    HW3 6559   3.132   4.261   2.543
 1632SOL    MW4 6560   3.129   4.258   2.630
 1633SOL     OW 6561   3.360   4.432   2.711
 1633SOL    HW2 6562   3.371   4.416   2.805
 1633SOL    HW3 6563   3.284   4.381   2.686
 1633SOL    MW4 6564   3.352   4.423   2.720
 1634SOL     OW 6565   3.819   4.657   2.656
 1634SOL    HW2 6566   3.822   4.568   2.691
 1634SOL    HW3 6567   3.730   4.686   2.671
 1634SOL    MW4 6568   3.808   4.649   2.663
 1635SOL     OW 6569   3.564   0.072   2.703
 1635SOL    HW2 6570   3.568   0.168   2.693
 1635SOL    HW3 6571   3.486   0.046   2.655
 1635SOL    MW4 6572   3.554   0.082   2.695
 1636SOL     OW 6573   3.579   0.337   2.631
 1636SOL    HW2 6574   3.660   0.378   2.661
 1636SOL    HW3 6575   3.510   0.390   2.669
 1636SOL    MW4 6576   3.581   0.349   2.640
 1637SOL     OW 6577   3.831   0.445   2.756
 1637SOL    HW2 6578   3.843   0.458   2.850
 1637SOL    HW3 6579   3.916   0.412   2.726
 1637SOL    MW4 6580   3.844   0.442   2.764
 1638SOL     OW 6581   3.834   0.705   2.694
 1638SOL    HW2 6582   3.753   0.750   2.714
 1638SOL    HW3 6583   3.821   0.616   2.727
 1638SOL    MW4 6584   3.822   0.699   2.701
 1639SOL     OW 6585   3.617   0.859   2.761
 1639SOL    HW2 6586   3.622   0.871   2.855
 1639SOL    HW3 6587   3.617   0.947   2.724
 1639SOL    MW4 6588   3.618   0.872   2.768
 1640SOL     OW 6589   3.626   1.108   2.668
 1640SOL    HW2 6590   3.700   1.161   2.697
 1640SOL    HW3 6591   3.549   1.154   2.701
 1640SOL    MW4 6592   3.626   1.121   2.676
 1641SOL     OW 6593   3.860   1.254   2.730
 1641SOL    HW2 6594   3.929   1.201   2.689
 1641SOL    HW3 6595   3.858   1.335   2.679
 1641SOL    MW4 6596   3.869   1.257   2.718
 1642SOL     OW 6597   3.813   1.494   2.592
 1642SOL    HW2 6598   3.877   1.554   2.629
 1642SOL    HW3 6599   3.730   1.516   2.634
 1642SOL    MW4 6600   3.810   1.505   2.602
 1643SOL     OW 6601   3.615   1.613   2.766
 1643SOL    HW2 6602   3.631   1.704   2.741
 1643SOL    HW3 6603   3.536   1.589   2.718
 1643SOL    MW4 6604   3.607   1.622   2.756
 1644SOL     OW 6605   3.597   1.866   2.663
 1644SOL    HW2 6606   3.521   1.913   2.696
 1644SOL    HW3 6607   3.602   1.890   2.570
 1644SOL    MW4 6608   3.588   1.876   2.655
 1645SOL     OW 6609   3.799   2.043   2.760
 1645SOL    HW2 6610   3.870   1.998   2.714
 1645SOL    HW3 6611   3.719   1.998   2.732
 1645SOL    MW4 6612   3.798   2.031   2.750
 1646SOL     OW 6613   3.800   2.278   2.631
 1646SOL    HW2 6614   3.792   2.190   2.668
 1646SOL    HW3 6615   3.804   2.264   2.536
 1646SOL    MW4 6616   3.800   2.264   2.623
 1647SOL     OW 6617   3.602   2.462   2.713
 1647SOL    HW2 6618   3.586   2.457   2.808
 1647SOL    HW3 6619   3.669   2.395   2.696
 1647SOL    MW4 6620   3.609   2.452   2.724
 1648SOL     OW 6621   3.605   2.720   2.614
 1648SOL    HW2 6622   3.596   2.631   2.647
 1648SOL    HW3 6623   3.622   2.710   2.520
 1648SOL    MW4 6624   3.606   2.707   2.606
 1649SOL     OW 6625   3.819   2.823   2.763
 1649SOL    HW2 6626   3.886   2.767   2.724
 1649SOL    HW3 6627   3.736   2.791   2.727
 1649SOL    MW4 6628   3.817   2.812   2.753
 1650SOL     OW 6629   3.824   3.078   2.652
 1650SOL    HW2 6630   3.750   3.123   2.693
 1650SOL    HW3 6631   3.825   2.992   2.692
 1650SOL    MW4 6632   3.814   3.073   2.663
 1651SOL     OW 6633   3.604   3.244   2.762
 1651SOL    HW2 6634   3.605   3.333   2.726
 1651SOL    HW3 6635   3.535   3.200   2.713
 1651SOL    MW4 6636   3.595   3.250   2.751
 1652SOL     OW 6637   3.612   3.489   2.628
 1652SOL    HW2 6638   3.694   3.530   2.656
 1652SOL    HW3 6639   3.544   3.543   2.668
 1652SOL    MW4 6640   3.614   3.502   2.637
 1653SOL     OW 6641   3.834   3.626   2.731
 1653SOL    HW2 6642   3.918   3.597   2.697
 1653SOL    HW3 6643   3.814   3.705   2.680
 1653SOL    MW4 6644   3.842   3.632   2.719
 1654SOL     OW 6645   3.788   3.882   2.597
 1654SOL    HW2 6646   3.864   3.933   2.624
 1654SOL    HW3 6647   3.713   3.931   2.631
 1654SOL    MW4 6648   3.788   3.895   2.605
 1655SOL     OW 6649   3.582   4.033   2.715
 1655SOL    HW2 6650   3.596   4.114   2.665
 1655SOL    HW3 6651   3.496   4.003   2.686
 1655SOL    MW4 6652   3.572   4.040   2.704
 1656SOL     OW 6653   3.588   4.259   2.560
 1656SOL    HW2 6654   3.516   4.314   2.593
 1656SOL    HW3 6655   3.565   4.244   2.468
 1656SOL    MW4 6656   3.575   4.265   2.552
 1657SOL     OW 6657   3.780   4.381   2.714
 1657SOL    HW2 6658   3.857   4.330   2.690
 1657SOL    HW3 6659   3.707   4.337   2.669
 1657SOL    MW4 6660   3.780   4.369   2.705
 1658SOL     OW 6661   4.290   4.661   2.618
 1658SOL    HW2 6662   4.208   4.696   2.653
 1658SOL    HW3 6663   4.358   4.717   2.655
 1658SOL    MW4 6664   4.288   4.673   2.627
 1659SOL     OW 6665   4.066   0.096   2.732
 1659SOL    HW2 6666   4.065   0.093   2.828
 1659SOL    HW3 6667   3.982   0.057   2.707
 1659SOL    MW4 6668   4.054   0.090   2.742
 1660SOL     OW 6669   4.084   0.359   2.664
 1660SOL    HW2 6670   4.072   0.267   2.689
 1660SOL    HW3 6671   4.069   0.361   2.570
 1660SOL    MW4 6672   4.080   0.347   2.655
 1661SOL     OW 6673   4.269   0.527   2.778
 1661SOL    HW2 6674   4.206   0.460   2.752
 1661SOL    HW3 6675   4.353   0.493   2.750
 1661SOL    MW4 6676   4.272   0.514   2.771
 1662SOL     OW 6677   4.285   0.770   2.650
 1662SOL    HW2 6678   4.293   0.678   2.676
 1662SOL    HW3 6679   4.270   0.768   2.556
 1662SOL    MW4 6680   4.284   0.757   2.641
 1663SOL     OW 6681   4.066   0.830   2.794
 1663SOL    HW2 6682   4.146   0.801   2.750
 1663SOL    HW3 6683   3.997   0.775   2.758
 1663SOL    MW4 6684   4.067   0.819   2.784
 1664SOL     OW 6685   4.066   1.095   2.660
 1664SOL    HW2 6686   4.138   1.148   2.695
 1664SOL    HW3 6687   4.071   1.013   2.709
 1664SOL    MW4 6688   4.076   1.091   2.671
 1665SOL     OW 6689   4.249   1.269   2.756
 1665SOL    HW2 6690   4.251   1.361   2.729
 1665SOL    HW3 6691   4.328   1.231   2.716
 1665SOL    MW4 6692   4.260   1.276   2.747
 1666SOL     OW 6693   4.247   1.524   2.616
 1666SOL    HW2 6694   4.327   1.566   2.649
 1666SOL    HW3 6695   4.255   1.528   2.521
 1666SOL    MW4 6696   4.259   1.530   2.608
 1667SOL     OW 6697   4.009   1.640   2.709
 1667SOL    HW2 6698   4.016   1.659   2.803
 1667SOL    HW3 6699   4.090   1.595   2.688
 1667SOL    MW4 6700   4.020   1.636   2.719
 1668SOL     OW 6701   3.998   1.908   2.621
 1668SOL    HW2 6702   4.082   1.946   2.647
 1668SOL    HW3 6703   3.997   1.822   2.663
 1668SOL    MW4 6704   4.009   1.902   2.630
 1669SOL     OW 6705   4.226   2.043   2.742
 1669SOL    HW2 6706   4.228   2.124   2.692
 1669SOL    HW3 6707   4.303   1.995   2.714
 1669SOL    MW4 6708   4.236   2.047   2.732
 1670SOL     OW 6709   4.272   2.281   2.621
 1670SOL    HW2 6710   4.197   2.320   2.667
 1670SOL    HW3 6711   4.269   2.321   2.534
 1670SOL    MW4 6712   4.262   2.291   2.616
 1671SOL     OW 6713   4.044   2.374   2.732
 1671SOL    HW2 6714   4.025   2.388   2.825
 1671SOL    HW3 6715   3.963   2.337   2.697
 1671SOL    MW4 6716   4.030   2.371   2.740
 1672SOL     OW 6717   4.000   2.652   2.646
 1672SOL    HW2 6718   4.080   2.693   2.680
 1672SOL    HW3 6719   3.992   2.570   2.695
 1672SOL    MW4 6720   4.010   2.646   2.657
 1673SOL     OW 6721   4.219   2.803   2.738
 1673SOL    HW2 6722   4.229   2.830   2.829
 1673SOL    HW3 6723   4.230   2.884   2.688
 1673SOL    MW4 6724   4.222   2.817   2.743
 1674SOL     OW 6725   4.241   3.062   2.624
 1674SOL    HW2 6726   4.172   3.119   2.659
 1674SOL    HW3 6727   4.234   3.074   2.529
 1674SOL    MW4 6728   4.231   3.071   2.616
 1675SOL     OW 6729   4.053   3.237   2.721
 1675SOL    HW2 6730   4.033   3.320   2.679
 1675SOL    HW3 6731   3.974   3.184   2.710
 1675SOL    MW4 6732   4.040   3.241   2.714
 1676SOL     OW 6733   4.053   3.497   2.623
 1676SOL    HW2 6734   4.134   3.542   2.646
 1676SOL    HW3 6735   4.046   3.507   2.528
 1676SOL    MW4 6736   4.062   3.504   2.614
 1677SOL     OW 6737   4.271   3.629   2.731
 1677SOL    HW2 6738   4.291   3.621   2.824
 1677SOL    HW3 6739   4.345   3.586   2.687
 1677SOL    MW4 6740   4.284   3.622   2.737
 1678SOL     OW 6741   4.275   3.869   2.600
 1678SOL    HW2 6742   4.270   3.796   2.661
 1678SOL    HW3 6743   4.324   3.937   2.646
 1678SOL    MW4 6744   4.281   3.869   2.614
 1679SOL     OW 6745   4.039   3.993   2.692
 1679SOL    HW2 6746   4.063   3.972   2.782
 1679SOL    HW3 6747   4.109   3.954   2.639
 1679SOL    MW4 6748   4.051   3.985   2.697
 1680SOL     OW 6749   4.051   4.265   2.659
 1680SOL    HW2 6750   4.043   4.171   2.675
 1680SOL    HW3 6751   4.052   4.273   2.564
 1680SOL    MW4 6752   4.050   4.253   2.649
 1681SOL     OW 6753   4.252   4.408   2.771
 1681SOL    HW2 6754   4.181   4.352   2.739
 1681SOL    HW3 6755   4.244   4.489   2.720
 1681SOL    MW4 6756   4.241   4.411   2.760
 1682SOL     OW 6757   0.265   4.662   3.062
 1682SOL    HW2 6758   0.278   4.655   3.156
 1682SOL    HW3 6759   0.176   4.697   3.053
 1682SOL    MW4 6760   0.255   4.665   3.073
 1683SOL     OW 6761   4.489   0.099   2.996
 1683SOL    HW2 6762   4.415   0.051   3.034
 1683SOL    HW3 6763   4.490   0.182   3.043
 1683SOL    MW4 6764   4.479   0.104   3.007
 1684SOL     OW 6765   0.032   0.339   3.133
 1684SOL    HW2 6766   0.032   0.336   3.228
 1684SOL    HW3 6767  -0.044   0.394   3.111
 1684SOL    MW4 6768   0.022   0.346   3.142
 1685SOL     OW 6769   0.265   0.463   3.062
 1685SOL    HW2 6770   0.342   0.409   3.079
 1685SOL    HW3 6771   0.191   0.410   3.093
 1685SOL    MW4 6772   0.265   0.449   3.068
 1686SOL     OW 6773   0.227   0.739   3.085
 1686SOL    HW2 6774   0.219   0.742   3.180
 1686SOL    HW3 6775   0.228   0.646   3.064
 1686SOL    MW4 6776   0.226   0.727   3.095
 1687SOL     OW 6777   0.003   0.886   3.032
 1687SOL    HW2 6778   0.083   0.835   3.048
 1687SOL    HW3 6779  -0.009   0.881   2.937
 1687SOL    MW4 6780   0.012   0.878   3.021
 1688SOL     OW 6781   0.003   1.159   3.124
 1688SOL    HW2 6782  -0.084   1.185   3.094
 1688SOL    HW3 6783   0.005   1.064   3.115
 1688SOL    MW4 6784  -0.008   1.150   3.119
 1689SOL     OW 6785   0.221   1.269   3.024
 1689SOL    HW2 6786   0.142   1.221   3.048
 1689SOL    HW3 6787   0.211   1.286   2.930
 1689SOL    MW4 6788   0.209   1.265   3.015
 1690SOL     OW 6789   0.206   1.527   3.123
 1690SOL    HW2 6790   0.136   1.553   3.062
 1690SOL    HW3 6791   0.215   1.432   3.109
 1690SOL    MW4 6792   0.198   1.518   3.113
 1691SOL     OW 6793   0.006   1.677   2.969
 1691SOL    HW2 6794  -0.068   1.628   3.006
 1691SOL    HW3 6795   0.006   1.760   3.017
 1691SOL    MW4 6796  -0.004   1.681   2.981
 1692SOL     OW 6797   4.475   1.927   3.120
 1692SOL    HW2 6798   4.394   1.968   3.089
 1692SOL    HW3 6799   4.545   1.985   3.089
 1692SOL    MW4 6800   4.473   1.940   3.112
 1693SOL     OW 6801   0.190   2.071   3.007
 1693SOL    HW2 6802   0.208   2.164   3.020
 1693SOL    HW3 6803   0.174   2.063   2.913
 1693SOL    MW4 6804   0.190   2.082   2.996
 1694SOL     OW 6805   0.233   2.324   3.095
 1694SOL    HW2 6806   0.241   2.326   3.191
 1694SOL    HW3 6807   0.299   2.386   3.064
 1694SOL    MW4 6808   0.243   2.332   3.104
 1695SOL     OW 6809   0.022   2.465   2.980
 1695SOL    HW2 6810   0.005   2.548   3.024
 1695SOL    HW3 6811   0.079   2.417   3.040
 1695SOL    MW4 6812   0.027   2.470   2.993
 1696SOL     OW 6813   4.458   2.701   3.094
 1696SOL    HW2 6814   4.445   2.706   3.189
 1696SOL    HW3 6815   4.537   2.754   3.078
 1696SOL    MW4 6816   4.467   2.709   3.105
 1697SOL     OW 6817   0.201   2.840   3.026
 1697SOL    HW2 6818   0.278   2.790   3.055
 1697SOL    HW3 6819   0.204   2.834   2.930
 1697SOL    MW4 6820   0.212   2.832   3.017
 1698SOL     OW 6821   0.190   3.084   3.160
 1698SOL    HW2 6822   0.122   3.126   3.107
 1698SOL    HW3 6823   0.200   2.997   3.121
 1698SOL    MW4 6824   0.182   3.078   3.148
 1699SOL     OW 6825   4.484   3.209   3.002
 1699SOL    HW2 6826   4.406   3.183   3.050
 1699SOL    HW3 6827   4.458   3.206   2.910
 1699SOL    MW4 6828   4.471   3.205   2.996
 1700SOL     OW 6829   0.023   3.483   3.119
 1700SOL    HW2 6830  -0.041   3.538   3.073
 1700SOL    HW3 6831   0.012   3.396   3.080
 1700SOL    MW4 6832   0.013   3.479   3.108
 1701SOL     OW 6833   0.249   3.595   3.038
 1701SOL    HW2 6834   0.250   3.690   3.046
 1701SOL    HW3 6835   0.166   3.568   3.078
 1701SOL    MW4 6836   0.239   3.604   3.045
 1702SOL     OW 6837   0.248   3.870   3.080
 1702SOL    HW2 6838   0.234   3.868   3.175
 1702SOL    HW3 6839   0.329   3.920   3.069
 1702SOL    MW4 6840   0.257   3.877   3.091
 1703SOL     OW 6841   0.038   4.038   3.010
 1703SOL    HW2 6842   0.113   3.991   3.044
 1703SOL    HW3 6843   0.032   4.013   2.918
 1703SOL    MW4 6844   0.047   4.029   3.002
 1704SOL     OW 6845   0.052   4.297   3.085
 1704SOL    HW2 6846   0.052   4.287   3.180
 1704SOL    HW3 6847   0.049   4.207   3.051
 1704SOL    MW4 6848   0.052   4.284   3.093
 1705SOL     OW 6849   0.272   4.411   2.985
 1705SOL    HW2 6850   0.194   4.374   3.026
 1705SOL    HW3 6851   0.267   4.505   3.004
 1705SOL    MW4 6852   0.261   4.418   2.993
 1706SOL     OW 6853   0.697   4.643   3.111
 1706SOL    HW2 6854   0.692   4.551   3.083
 1706SOL    HW3 6855   0.631   4.687   3.057
 1706SOL    MW4 6856   0.688   4.637   3.100
 1707SOL     OW 6857   0.499   0.102   2.973
 1707SOL    HW2 6858   0.517   0.179   3.027
 1707SOL    HW3 6859   0.419   0.065   3.009
 1707SOL    MW4 6860   0.491   0.107   2.985
 1708SOL     OW 6861   0.504   0.317   3.127
 1708SOL    HW2 6862   0.499   0.317   3.222
 1708SOL    HW3 6863   0.574   0.379   3.106
 1708SOL    MW4 6864   0.513   0.325   3.136
 1709SOL     OW 6865   0.721   0.485   3.034
 1709SOL    HW2 6866   0.788   0.438   3.082
 1709SOL    HW3 6867   0.717   0.571   3.075
 1709SOL    MW4 6868   0.729   0.490   3.046
 1710SOL     OW 6869   0.702   0.769   3.106
 1710SOL    HW2 6870   0.696   0.771   3.201
 1710SOL    HW3 6871   0.624   0.816   3.076
 1710SOL    MW4 6872   0.691   0.776   3.115
 1711SOL     OW 6873   0.475   0.879   3.012
 1711SOL    HW2 6874   0.396   0.827   3.031
 1711SOL    HW3 6875   0.476   0.887   2.917
 1711SOL    MW4 6876   0.464   0.873   3.002
 1712SOL     OW 6877   0.456   1.144   3.106
 1712SOL    HW2 6878   0.462   1.053   3.079
 1712SOL    HW3 6879   0.374   1.176   3.068
 1712SOL    MW4 6880   0.446   1.136   3.098
 1713SOL     OW 6881   0.691   1.245   2.989
 1713SOL    HW2 6882   0.759   1.210   3.047
 1713SOL    HW3 6883   0.610   1.231   3.037
 1713SOL    MW4 6884   0.689   1.238   3.003
 1714SOL     OW 6885   0.651   1.505   3.075
 1714SOL    HW2 6886   0.658   1.503   3.170
 1714SOL    HW3 6887   0.654   1.414   3.048
 1714SOL    MW4 6888   0.652   1.493   3.084
 1715SOL     OW 6889   0.423   1.630   2.960
 1715SOL    HW2 6890   0.494   1.590   3.010
 1715SOL    HW3 6891   0.347   1.626   3.018
 1715SOL    MW4 6892   0.422   1.624   2.974
 1716SOL     OW 6893   0.413   1.887   3.100
 1716SOL    HW2 6894   0.419   1.816   3.037
 1716SOL    HW3 6895   0.334   1.936   3.076
 1716SOL    MW4 6896   0.403   1.884   3.089
 1717SOL     OW 6897   0.636   2.032   2.980
 1717SOL    HW2 6898   0.720   2.001   3.013
 1717SOL    HW3 6899   0.571   1.984   3.032
 1717SOL    MW4 6900   0.639   2.021   2.991
 1718SOL     OW 6901   0.670   2.285   3.087
 1718SOL    HW2 6902   0.655   2.283   3.182
 1718SOL    HW3 6903   0.656   2.195   3.058
 1718SOL    MW4 6904   0.666   2.273   3.096
 1719SOL     OW 6905   0.471   2.470   3.019
 1719SOL    HW2 6906   0.538   2.406   3.045
 1719SOL    HW3 6907   0.466   2.462   2.924
 1719SOL    MW4 6908   0.479   2.460   3.010
 1720SOL     OW 6909   0.438   2.717   3.112
 1720SOL    HW2 6910   0.519   2.753   3.076
 1720SOL    HW3 6911   0.441   2.624   3.089
 1720SOL    MW4 6912   0.449   2.710   3.105
 1721SOL     OW 6913   0.670   2.826   3.005
 1721SOL    HW2 6914   0.751   2.794   3.044
 1721SOL    HW3 6915   0.666   2.918   3.030
 1721SOL    MW4 6916   0.680   2.834   3.014
 1722SOL     OW 6917   0.675   3.092   3.112
 1722SOL    HW2 6918   0.671   3.087   3.208
 1722SOL    HW3 6919   0.592   3.133   3.087
 1722SOL    MW4 6920   0.663   3.097   3.122
 1723SOL     OW 6921   0.431   3.191   3.054
 1723SOL    HW2 6922   0.437   3.282   3.083
 1723SOL    HW3 6923   0.349   3.159   3.093
 1723SOL    MW4 6924   0.421   3.199   3.063
 1724SOL     OW 6925   0.467   3.440   3.122
 1724SOL    HW2 6926   0.465   3.477   3.211
 1724SOL    HW3 6927   0.395   3.485   3.077
 1724SOL    MW4 6928   0.457   3.451   3.128
 1725SOL     OW 6929   0.683   3.603   3.021
 1725SOL    HW2 6930   0.761   3.578   3.072
 1725SOL    HW3 6931   0.615   3.544   3.053
 1725SOL    MW4 6932   0.685   3.592   3.032
 1726SOL     OW 6933   0.668   3.878   3.113
 1726SOL    HW2 6934   0.663   3.874   3.208
 1726SOL    HW3 6935   0.662   3.787   3.085
 1726SOL    MW4 6936   0.667   3.866   3.122
 1727SOL     OW 6937   0.455   4.066   3.030
 1727SOL    HW2 6938   0.534   4.019   3.056
 1727SOL    HW3 6939   0.448   4.052   2.936
 1727SOL    MW4 6940   0.464   4.058   3.021
 1728SOL     OW 6941   0.479   4.322   3.132
 1728SOL    HW2 6942   0.452   4.231   3.117
 1728SOL    HW3 6943   0.419   4.374   3.078
 1728SOL    MW4 6944   0.467   4.317   3.123
 1729SOL     OW 6945   0.699   4.382   2.977
 1729SOL    HW2 6946   0.618   4.349   3.017
 1729SOL    HW3 6947   0.684   4.377   2.883
 1729SOL    MW4 6948   0.686   4.377   2.970
 1730SOL     OW 6949   1.123   4.637   3.143
 1730SOL    HW2 6950   1.207   4.669   3.110
 1730SOL    HW3 6951   1.060   4.665   3.077
 1730SOL    MW4 6952   1.126   4.645   3.130
 1731SOL     OW 6953   0.922   0.090   2.999
 1731SOL    HW2 6954   0.935   0.174   3.042
 1731SOL    HW3 6955   0.840   0.056   3.036
 1731SOL    MW4 6956   0.913   0.096   3.010
 1732SOL     OW 6957   0.935   0.338   3.131
 1732SOL    HW2 6958   0.949   0.334   3.226
 1732SOL    HW3 6959   1.015   0.379   3.098
 1732SOL    MW4 6960   0.948   0.343   3.139
 1733SOL     OW 6961   1.148   0.468   3.023
 1733SOL    HW2 6962   1.235   0.431   3.039
 1733SOL    HW3 6963   1.137   0.463   2.928
 1733SOL    MW4 6964   1.158   0.462   3.012
 1734SOL     OW 6965   1.170   0.751   3.073
 1734SOL    HW2 6966   1.170   0.759   3.169
 1734SOL    HW3 6967   1.183   0.657   3.057
 1734SOL    MW4 6968   1.171   0.740   3.084
 1735SOL     OW 6969   0.943   0.882   3.016
 1735SOL    HW2 6970   1.015   0.823   3.040
 1735SOL    HW3 6971   0.865   0.839   3.051
 1735SOL    MW4 6972   0.942   0.869   3.024
 1736SOL     OW 6973   0.934   1.156   3.103
 1736SOL    HW2 6974   1.014   1.202   3.075
 1736SOL    HW3 6975   0.930   1.078   3.047
 1736SOL    MW4 6976   0.944   1.152   3.092
 1737SOL     OW 6977   1.155   1.308   3.010
 1737SOL    HW2 6978   1.221   1.250   3.050
 1737SOL    HW3 6979   1.168   1.297   2.915
 1737SOL    MW4 6980   1.166   1.299   3.003
 1738SOL     OW 6981   1.141   1.570   3.084
 1738SOL    HW2 6982   1.209   1.610   3.029
 1738SOL    HW3 6983   1.148   1.476   3.066
 1738SOL    MW4 6984   1.151   1.563   3.075
 1739SOL     OW 6985   0.874   1.653   2.984
 1739SOL    HW2 6986   0.951   1.608   3.017
 1739SOL    HW3 6987   0.800   1.599   3.012
 1739SOL    MW4 6988   0.874   1.640   2.992
 1740SOL     OW 6989   0.865   1.923   3.072
 1740SOL    HW2 6990   0.862   1.920   3.168
 1740SOL    HW3 6991   0.871   1.831   3.045
 1740SOL    MW4 6992   0.866   1.910   3.081
 1741SOL     OW 6993   1.103   2.057   3.007
 1741SOL    HW2 6994   1.028   2.005   3.036
 1741SOL    HW3 6995   1.108   2.042   2.913
 1741SOL    MW4 6996   1.093   2.048   2.999
 1742SOL     OW 6997   1.112   2.306   3.127
 1742SOL    HW2 6998   1.047   2.364   3.088
 1742SOL    HW3 6999   1.089   2.219   3.093
 1742SOL    MW4 7000   1.100   2.302   3.117
 1743SOL     OW 7001   0.888   2.442   3.029
 1743SOL    HW2 7002   0.821   2.378   3.053
 1743SOL    HW3 7003   0.894   2.436   2.933
 1743SOL    MW4 7004   0.880   2.433   3.019
 1744SOL     OW 7005   0.874   2.707   3.126
 1744SOL    HW2 7006   0.855   2.696   3.219
 1744SOL    HW3 7007   0.875   2.618   3.091
 1744SOL    MW4 7008   0.872   2.694   3.134
 1745SOL     OW 7009   1.109   2.832   3.006
 1745SOL    HW2 7010   1.122   2.915   3.053
 1745SOL    HW3 7011   1.028   2.796   3.042
 1745SOL    MW4 7012   1.100   2.838   3.017
 1746SOL     OW 7013   1.146   3.082   3.120
 1746SOL    HW2 7014   1.209   3.154   3.104
 1746SOL    HW3 7015   1.065   3.112   3.078
 1746SOL    MW4 7016   1.144   3.096   3.112
 1747SOL     OW 7017   0.911   3.209   3.057
 1747SOL    HW2 7018   0.823   3.185   3.086
 1747SOL    HW3 7019   0.904   3.218   2.962
 1747SOL    MW4 7020   0.898   3.207   3.048
 1748SOL     OW 7021   0.929   3.499   3.145
 1748SOL    HW2 7022   1.010   3.530   3.105
 1748SOL    HW3 7023   0.931   3.404   3.133
 1748SOL    MW4 7024   0.940   3.491   3.138
 1749SOL     OW 7025   1.153   3.619   3.029
 1749SOL    HW2 7026   1.235   3.587   3.067
 1749SOL    HW3 7027   1.145   3.708   3.062
 1749SOL    MW4 7028   1.163   3.626   3.038
 1750SOL     OW 7029   1.142   3.877   3.104
 1750SOL    HW2 7030   1.156   3.885   3.199
 1750SOL    HW3 7031   1.061   3.924   3.088
 1750SOL    MW4 7032   1.133   3.884   3.115
 1751SOL     OW 7033   0.921   4.012   3.030
 1751SOL    HW2 7034   0.842   3.969   3.063
 1751SOL    HW3 7035   0.916   4.000   2.935
 1751SOL    MW4 7036   0.910   4.005   3.022
 1752SOL     OW 7037   0.886   4.259   3.153
 1752SOL    HW2 7038   0.900   4.174   3.110
 1752SOL    HW3 7039   0.815   4.299   3.102
 1752SOL    MW4 7040   0.878   4.253   3.140
 1753SOL     OW 7041   1.116   4.398   3.021
 1753SOL    HW2 7042   1.028   4.373   3.050
 1753SOL    HW3 7043   1.134   4.480   3.067
 1753SOL    MW4 7044   1.106   4.406   3.031
 1754SOL     OW 7045   1.593   4.635   3.083
 1754SOL    HW2 7046   1.575   4.643   3.176
 1754SOL    HW3 7047   1.510   4.660   3.041
 1754SOL    MW4 7048   1.580   4.640   3.090
 1755SOL     OW 7049   1.338   0.075   2.987
 1755SOL    HW2 7050   1.336   0.163   3.025
 1755SOL    HW3 7051   1.344   0.089   2.893
 1755SOL    MW4 7052   1.339   0.088   2.980
 1756SOL     OW 7053   1.374   0.340   3.089
 1756SOL    HW2 7054   1.363   0.347   3.184
 1756SOL    HW3 7055   1.456   0.386   3.071
 1756SOL    MW4 7056   1.383   0.347   3.099
 1757SOL     OW 7057   1.591   0.494   3.012
 1757SOL    HW2 7058   1.599   0.588   3.031
 1757SOL    HW3 7059   1.611   0.487   2.919
 1757SOL    MW4 7060   1.595   0.506   3.002
 1758SOL     OW 7061   1.612   0.746   3.098
 1758SOL    HW2 7062   1.597   0.734   3.192
 1758SOL    HW3 7063   1.534   0.792   3.067
 1758SOL    MW4 7064   1.600   0.751   3.106
 1759SOL     OW 7065   1.396   0.884   2.998
 1759SOL    HW2 7066   1.379   0.971   3.033
 1759SOL    HW3 7067   1.317   0.834   3.018
 1759SOL    MW4 7068   1.383   0.889   3.005
 1760SOL     OW 7069   1.345   1.148   3.110
 1760SOL    HW2 7070   1.360   1.158   3.204
 1760SOL    HW3 7071   1.420   1.192   3.069
 1760SOL    MW4 7072   1.357   1.155   3.117
 1761SOL     OW 7073   1.570   1.267   2.987
 1761SOL    HW2 7074   1.638   1.216   3.032
 1761SOL    HW3 7075   1.581   1.356   3.022
 1761SOL    MW4 7076   1.580   1.272   2.998
 1762SOL     OW 7077   1.581   1.525   3.069
 1762SOL    HW2 7078   1.647   1.594   3.068
 1762SOL    HW3 7079   1.500   1.568   3.044
 1762SOL    MW4 7080   1.579   1.540   3.065
 1763SOL     OW 7081   1.366   1.668   2.978
 1763SOL    HW2 7082   1.364   1.757   3.015
 1763SOL    HW3 7083   1.379   1.681   2.884
 1763SOL    MW4 7084   1.367   1.682   2.971
 1764SOL     OW 7085   1.336   1.915   3.092
 1764SOL    HW2 7086   1.335   1.922   3.188
 1764SOL    HW3 7087   1.259   1.963   3.063
 1764SOL    MW4 7088   1.326   1.922   3.101
 1765SOL     OW 7089   1.550   2.080   3.000
 1765SOL    HW2 7090   1.483   2.015   3.022
 1765SOL    HW3 7091   1.554   2.080   2.905
 1765SOL    MW4 7092   1.542   2.071   2.991
 1766SOL     OW 7093   1.535   2.324   3.134
 1766SOL    HW2 7094   1.451   2.366   3.117
 1766SOL    HW3 7095   1.532   2.242   3.084
 1766SOL    MW4 7096   1.524   2.319   3.125
 1767SOL     OW 7097   1.313   2.450   3.007
 1767SOL    HW2 7098   1.252   2.386   3.043
 1767SOL    HW3 7099   1.303   2.442   2.912
 1767SOL    MW4 7100   1.303   2.441   2.999
 1768SOL     OW 7101   1.336   2.707   3.135
 1768SOL    HW2 7102   1.329   2.625   3.086
 1768SOL    HW3 7103   1.255   2.754   3.116
 1768SOL    MW4 7104   1.325   2.703   3.126
 1769SOL     OW 7105   1.556   2.841   3.012
 1769SOL    HW2 7106   1.629   2.796   3.054
 1769SOL    HW3 7107   1.478   2.800   3.050
 1769SOL    MW4 7108   1.555   2.830   3.023
 1770SOL     OW 7109   1.552   3.124   3.090
 1770SOL    HW2 7110   1.567   3.126   3.185
 1770SOL    HW3 7111   1.566   3.032   3.066
 1770SOL    MW4 7112   1.556   3.112   3.100
 1771SOL     OW 7113   1.319   3.272   3.016
 1771SOL    HW2 7114   1.397   3.224   3.044
 1771SOL    HW3 7115   1.322   3.269   2.921
 1771SOL    MW4 7116   1.330   3.265   3.007
 1772SOL     OW 7117   1.393   3.513   3.102
 1772SOL    HW2 7118   1.371   3.511   3.195
 1772SOL    HW3 7119   1.360   3.430   3.067
 1772SOL    MW4 7120   1.386   3.502   3.110
 1773SOL     OW 7121   1.599   3.636   2.983
 1773SOL    HW2 7122   1.531   3.579   3.019
 1773SOL    HW3 7123   1.584   3.635   2.889
 1773SOL    MW4 7124   1.588   3.628   2.975
 1774SOL     OW 7125   1.578   3.860   3.131
 1774SOL    HW2 7126   1.660   3.902   3.104
 1774SOL    HW3 7127   1.576   3.778   3.081
 1774SOL    MW4 7128   1.589   3.855   3.121
 1775SOL     OW 7129   1.372   3.959   2.987
 1775SOL    HW2 7130   1.445   3.909   3.024
 1775SOL    HW3 7131   1.294   3.925   3.030
 1775SOL    MW4 7132   1.372   3.948   2.997
 1776SOL     OW 7133   1.355   4.235   3.077
 1776SOL    HW2 7134   1.345   4.141   3.060
 1776SOL    HW3 7135   1.272   4.274   3.051
 1776SOL    MW4 7136   1.343   4.228   3.071
 1777SOL     OW 7137   1.605   4.368   3.016
 1777SOL    HW2 7138   1.522   4.326   3.040
 1777SOL    HW3 7139   1.598   4.457   3.051
 1777SOL    MW4 7140   1.593   4.374   3.024
 1778SOL     OW 7141   2.042   4.661   3.080
 1778SOL    HW2 7142   2.046   4.684   3.173
 1778SOL    HW3 7143   1.959   4.699   3.051
 1778SOL    MW4 7144   2.032   4.669   3.089
 1779SOL     OW 7145   1.812   0.125   3.005
 1779SOL    HW2 7146   1.739   0.077   3.045
 1779SOL    HW3 7147   1.794   0.123   2.911
 1779SOL    MW4 7148   1.800   0.119   2.998
 1780SOL     OW 7149   1.852   0.372   3.128
 1780SOL    HW2 7150   1.845   0.282   3.096
 1780SOL    HW3 7151   1.774   0.415   3.093
 1780SOL    MW4 7152   1.840   0.366   3.119
 1781SOL     OW 7153   2.029   0.520   2.992
 1781SOL    HW2 7154   1.964   0.467   3.038
 1781SOL    HW3 7155   2.018   0.497   2.900
 1781SOL    MW4 7156   2.019   0.510   2.986
 1782SOL     OW 7157   2.041   0.774   3.142
 1782SOL    HW2 7158   1.963   0.819   3.110
 1782SOL    HW3 7159   2.041   0.690   3.095
 1782SOL    MW4 7160   2.031   0.769   3.132
 1783SOL     OW 7161   1.837   0.911   3.024
 1783SOL    HW2 7162   1.759   0.868   3.060
 1783SOL    HW3 7163   1.829   0.899   2.929
 1783SOL    MW4 7164   1.825   0.904   3.016
 1784SOL     OW 7165   1.820   1.173   3.097
 1784SOL    HW2 7166   1.836   1.174   3.192
 1784SOL    HW3 7167   1.829   1.081   3.073
 1784SOL    MW4 7168   1.823   1.161   3.107
 1785SOL     OW 7169   2.055   1.310   3.012
 1785SOL    HW2 7170   2.117   1.263   3.067
 1785SOL    HW3 7171   1.969   1.278   3.041
 1785SOL    MW4 7172   2.052   1.299   3.023
 1786SOL     OW 7173   2.032   1.567   3.090
 1786SOL    HW2 7174   2.040   1.555   3.185
 1786SOL    HW3 7175   2.013   1.480   3.056
 1786SOL    MW4 7176   2.031   1.554   3.098
 1787SOL     OW 7177   1.794   1.694   3.032
 1787SOL    HW2 7178   1.805   1.786   3.055
 1787SOL    HW3 7179   1.880   1.654   3.050
 1787SOL    MW4 7180   1.807   1.701   3.038
 1788SOL     OW 7181   1.796   1.967   3.101
 1788SOL    HW2 7182   1.862   2.028   3.068
 1788SOL    HW3 7183   1.713   2.005   3.073
 1788SOL    MW4 7184   1.794   1.980   3.093
 1789SOL     OW 7185   2.031   2.050   2.929
 1789SOL    HW2 7186   2.108   2.010   2.968
 1789SOL    HW3 7187   2.025   2.136   2.972
 1789SOL    MW4 7188   2.040   2.056   2.940
 1790SOL     OW 7189   1.951   2.297   3.066
 1790SOL    HW2 7190   2.025   2.356   3.056
 1790SOL    HW3 7191   1.877   2.346   3.030
 1790SOL    MW4 7192   1.951   2.311   3.060
 1791SOL     OW 7193   1.740   2.464   2.980
 1791SOL    HW2 7194   1.768   2.537   3.035
 1791SOL    HW3 7195   1.672   2.420   3.031
 1791SOL    MW4 7196   1.734   2.468   2.994
 1792SOL     OW 7197   1.764   2.693   3.145
 1792SOL    HW2 7198   1.787   2.695   3.238
 1792SOL    HW3 7199   1.835   2.741   3.103
 1792SOL    MW4 7200   1.776   2.700   3.152
 1793SOL     OW 7201   1.955   2.827   3.020
 1793SOL    HW2 7202   1.969   2.914   3.057
 1793SOL    HW3 7203   1.949   2.842   2.926
 1793SOL    MW4 7204   1.956   2.841   3.013
 1794SOL     OW 7205   1.990   3.089   3.120
 1794SOL    HW2 7206   1.999   3.090   3.215
 1794SOL    HW3 7207   1.910   3.140   3.104
 1794SOL    MW4 7208   1.980   3.096   3.131
 1795SOL     OW 7209   1.787   3.265   3.043
 1795SOL    HW2 7210   1.700   3.237   3.070
 1795SOL    HW3 7211   1.782   3.273   2.947
 1795SOL    MW4 7212   1.775   3.263   3.034
 1796SOL     OW 7213   1.808   3.519   3.132
 1796SOL    HW2 7214   1.779   3.430   3.111
 1796SOL    HW3 7215   1.748   3.575   3.083
 1796SOL    MW4 7216   1.796   3.514   3.122
 1797SOL     OW 7217   2.041   3.597   2.996
 1797SOL    HW2 7218   2.036   3.682   3.039
 1797SOL    HW3 7219   1.962   3.550   3.025
 1797SOL    MW4 7220   2.030   3.602   3.006
 1798SOL     OW 7221   2.034   3.837   3.125
 1798SOL    HW2 7222   2.042   3.863   3.217
 1798SOL    HW3 7223   1.948   3.869   3.098
 1798SOL    MW4 7224   2.024   3.844   3.133
 1799SOL     OW 7225   1.815   3.974   3.027
 1799SOL    HW2 7226   1.816   4.065   3.059
 1799SOL    HW3 7227   1.833   3.981   2.933
 1799SOL    MW4 7228   1.817   3.987   3.019
 1800SOL     OW 7229   1.818   4.233   3.112
 1800SOL    HW2 7230   1.896   4.283   3.088
 1800SOL    HW3 7231   1.745   4.281   3.073
 1800SOL    MW4 7232   1.819   4.246   3.104
 1801SOL     OW 7233   2.040   4.391   3.028
 1801SOL    HW2 7234   2.044   4.485   3.049
 1801SOL    HW3 7235   2.033   4.389   2.933
 1801SOL    MW4 7236   2.039   4.403   3.018
 1802SOL     OW 7237   2.490   4.645   3.145
 1802SOL    HW2 7238   2.473   4.557   3.113
 1802SOL    HW3 7239   2.415   4.696   3.113
 1802SOL    MW4 7240   2.478   4.640   3.136
 1803SOL     OW 7241   2.286   0.139   3.044
 1803SOL    HW2 7242   2.283   0.232   3.068
 1803SOL    HW3 7243   2.201   0.105   3.071
 1803SOL    MW4 7244   2.274   0.147   3.051
 1804SOL     OW 7245   2.258   0.408   3.097
 1804SOL    HW2 7246   2.237   0.388   3.188
 1804SOL    HW3 7247   2.175   0.434   3.058
 1804SOL    MW4 7248   2.244   0.408   3.104
 1805SOL     OW 7249   2.479   0.514   2.986
 1805SOL    HW2 7250   2.397   0.476   3.019
 1805SOL    HW3 7251   2.472   0.508   2.891
 1805SOL    MW4 7252   2.467   0.508   2.978
 1806SOL     OW 7253   2.483   0.754   3.116
 1806SOL    HW2 7254   2.565   0.789   3.080
 1806SOL    HW3 7255   2.474   0.669   3.073
 1806SOL    MW4 7256   2.493   0.747   3.106
 1807SOL     OW 7257   2.248   0.894   3.025
 1807SOL    HW2 7258   2.327   0.876   3.075
 1807SOL    HW3 7259   2.179   0.845   3.070
 1807SOL    MW4 7260   2.249   0.886   3.038
 1808SOL     OW 7261   2.231   1.141   3.147
 1808SOL    HW2 7262   2.233   1.120   3.240
 1808SOL    HW3 7263   2.209   1.058   3.104
 1808SOL    MW4 7264   2.228   1.127   3.153
 1809SOL     OW 7265   2.461   1.214   3.019
 1809SOL    HW2 7266   2.382   1.192   3.070
 1809SOL    HW3 7267   2.430   1.218   2.928
 1809SOL    MW4 7268   2.446   1.212   3.013
 1810SOL     OW 7269   2.460   1.489   3.114
 1810SOL    HW2 7270   2.390   1.539   3.073
 1810SOL    HW3 7271   2.449   1.400   3.081
 1810SOL    MW4 7272   2.450   1.484   3.104
 1811SOL     OW 7273   2.273   1.626   2.977
 1811SOL    HW2 7274   2.193   1.592   3.017
 1811SOL    HW3 7275   2.251   1.637   2.885
 1811SOL    MW4 7276   2.259   1.623   2.970
 1812SOL     OW 7277   2.238   1.905   3.039
 1812SOL    HW2 7278   2.317   1.956   3.020
 1812SOL    HW3 7279   2.258   1.817   3.009
 1812SOL    MW4 7280   2.251   1.900   3.033
 1813SOL     OW 7281   2.463   2.059   2.978
 1813SOL    HW2 7282   2.537   2.007   3.008
 1813SOL    HW3 7283   2.472   2.061   2.883
 1813SOL    MW4 7284   2.474   2.053   2.970
 1814SOL     OW 7285   2.389   2.307   3.047
 1814SOL    HW2 7286   2.395   2.299   3.142
 1814SOL    HW3 7287   2.418   2.222   3.014
 1814SOL    MW4 7288   2.393   2.295   3.055
 1815SOL     OW 7289   2.165   2.441   2.975
 1815SOL    HW2 7290   2.164   2.503   3.048
 1815SOL    HW3 7291   2.243   2.388   2.990
 1815SOL    MW4 7292   2.175   2.442   2.987
 1816SOL     OW 7293   2.184   2.680   3.116
 1816SOL    HW2 7294   2.267   2.704   3.075
 1816SOL    HW3 7295   2.118   2.721   3.060
 1816SOL    MW4 7296   2.186   2.688   3.103
 1817SOL     OW 7297   2.402   2.823   3.027
 1817SOL    HW2 7298   2.411   2.907   3.072
 1817SOL    HW3 7299   2.439   2.839   2.940
 1817SOL    MW4 7300   2.408   2.836   3.021
 1818SOL     OW 7301   2.462   3.078   3.106
 1818SOL    HW2 7302   2.540   3.117   3.066
 1818SOL    HW3 7303   2.388   3.121   3.064
 1818SOL    MW4 7304   2.463   3.089   3.095
 1819SOL     OW 7305   2.236   3.202   3.019
 1819SOL    HW2 7306   2.247   3.295   3.037
 1819SOL    HW3 7307   2.151   3.180   3.056
 1819SOL    MW4 7308   2.226   3.211   3.026
 1820SOL     OW 7309   2.271   3.461   3.081
 1820SOL    HW2 7310   2.344   3.509   3.043
 1820SOL    HW3 7311   2.193   3.499   3.041
 1820SOL    MW4 7312   2.270   3.472   3.071
 1821SOL     OW 7313   2.473   3.589   2.953
 1821SOL    HW2 7314   2.550   3.545   2.989
 1821SOL    HW3 7315   2.469   3.673   3.000
 1821SOL    MW4 7316   2.483   3.594   2.964
 1822SOL     OW 7317   2.441   3.841   3.063
 1822SOL    HW2 7318   2.424   3.841   3.157
 1822SOL    HW3 7319   2.511   3.905   3.051
 1822SOL    MW4 7320   2.448   3.849   3.074
 1823SOL     OW 7321   2.217   3.964   2.965
 1823SOL    HW2 7322   2.295   3.916   2.992
 1823SOL    HW3 7323   2.144   3.918   3.007
 1823SOL    MW4 7324   2.218   3.952   2.974
 1824SOL     OW 7325   2.236   4.203   3.142
 1824SOL    HW2 7326   2.219   4.119   3.099
 1824SOL    HW3 7327   2.163   4.259   3.115
 1824SOL    MW4 7328   2.224   4.199   3.133
 1825SOL     OW 7329   2.434   4.385   3.052
 1825SOL    HW2 7330   2.374   4.320   3.087
 1825SOL    HW3 7331   2.428   4.376   2.957
 1825SOL    MW4 7332   2.425   4.375   3.044
 1826SOL     OW 7333   2.944   0.018   3.118
 1826SOL    HW2 7334   3.034   0.043   3.097
 1826SOL    HW3 7335   2.934  -0.070   3.083
 1826SOL    MW4 7336   2.954   0.010   3.111
 1827SOL     OW 7337   2.700   0.118   3.004
 1827SOL    HW2 7338   2.787   0.105   3.042
 1827SOL    HW3 7339   2.642   0.067   3.060
 1827SOL    MW4 7340   2.704   0.110   3.016
 1828SOL     OW 7341   2.695   0.383   3.116
 1828SOL    HW2 7342   2.699   0.299   3.071
 1828SOL    HW3 7343   2.620   0.428   3.077
 1828SOL    MW4 7344   2.685   0.378   3.105
 1829SOL     OW 7345   2.949   0.477   3.042
 1829SOL    HW2 7346   2.865   0.455   3.081
 1829SOL    HW3 7347   2.932   0.483   2.948
 1829SOL    MW4 7348   2.936   0.475   3.035
 1830SOL     OW 7349   2.934   0.755   3.107
 1830SOL    HW2 7350   2.931   0.758   3.203
 1830SOL    HW3 7351   2.932   0.661   3.087
 1830SOL    MW4 7352   2.933   0.743   3.117
 1831SOL     OW 7353   2.714   0.875   3.005
 1831SOL    HW2 7354   2.710   0.962   3.046
 1831SOL    HW3 7355   2.798   0.839   3.035
 1831SOL    MW4 7356   2.724   0.882   3.015
 1832SOL     OW 7357   2.707   1.144   3.111
 1832SOL    HW2 7358   2.782   1.196   3.083
 1832SOL    HW3 7359   2.633   1.181   3.062
 1832SOL    MW4 7360   2.707   1.156   3.101
 1833SOL     OW 7361   2.913   1.278   3.016
 1833SOL    HW2 7362   2.992   1.250   3.061
 1833SOL    HW3 7363   2.903   1.370   3.041
 1833SOL    MW4 7364   2.922   1.287   3.025
 1834SOL     OW 7365   2.907   1.533   3.104
 1834SOL    HW2 7366   2.902   1.542   3.199
 1834SOL    HW3 7367   2.985   1.582   3.079
 1834SOL    MW4 7368   2.917   1.541   3.113
 1835SOL     OW 7369   2.675   1.623   2.977
 1835SOL    HW2 7370   2.745   1.583   3.028
 1835SOL    HW3 7371   2.594   1.598   3.022
 1835SOL    MW4 7372   2.673   1.614   2.989
 1836SOL     OW 7373   2.661   1.890   3.061
 1836SOL    HW2 7374   2.740   1.938   3.036
 1836SOL    HW3 7375   2.676   1.801   3.030
 1836SOL    MW4 7376   2.673   1.885   3.054
 1837SOL     OW 7377   2.880   2.048   2.989
 1837SOL    HW2 7378   2.877   2.140   3.013
 1837SOL    HW3 7379   2.888   2.048   2.894
 1837SOL    MW4 7380   2.881   2.060   2.980
 1838SOL     OW 7381   2.883   2.311   3.071
 1838SOL    HW2 7382   2.957   2.366   3.044
 1838SOL    HW3 7383   2.809   2.345   3.022
 1838SOL    MW4 7384   2.883   2.323   3.061
 1839SOL     OW 7385   2.636   2.432   2.993
 1839SOL    HW2 7386   2.635   2.524   3.017
 1839SOL    HW3 7387   2.549   2.400   3.018
 1839SOL    MW4 7388   2.624   2.440   3.000
 1840SOL     OW 7389   2.663   2.700   3.081
 1840SOL    HW2 7390   2.663   2.687   3.175
 1840SOL    HW3 7391   2.585   2.753   3.063
 1840SOL    MW4 7392   2.653   2.706   3.091
 1841SOL     OW 7393   2.894   2.846   2.989
 1841SOL    HW2 7394   2.972   2.809   3.029
 1841SOL    HW3 7395   2.822   2.791   3.020
 1841SOL    MW4 7396   2.895   2.834   2.998
 1842SOL     OW 7397   2.915   3.101   3.092
 1842SOL    HW2 7398   2.838   3.150   3.065
 1842SOL    HW3 7399   2.910   3.019   3.043
 1842SOL    MW4 7400   2.904   3.096   3.082
 1843SOL     OW 7401   2.682   3.220   2.995
 1843SOL    HW2 7402   2.666   3.310   3.022
 1843SOL    HW3 7403   2.659   3.219   2.902
 1843SOL    MW4 7404   2.677   3.232   2.986
 1844SOL     OW 7405   2.683   3.477   3.095
 1844SOL    HW2 7406   2.692   3.466   3.190
 1844SOL    HW3 7407   2.768   3.511   3.067
 1844SOL    MW4 7408   2.695   3.480   3.104
 1845SOL     OW 7409   2.913   3.610   2.977
 1845SOL    HW2 7410   2.995   3.589   3.022
 1845SOL    HW3 7411   2.891   3.698   3.006
 1845SOL    MW4 7412   2.921   3.619   2.986
 1846SOL     OW 7413   2.914   3.902   3.054
 1846SOL    HW2 7414   2.901   3.901   3.149
 1846SOL    HW3 7415   2.828   3.927   3.019
 1846SOL    MW4 7416   2.901   3.905   3.062
 1847SOL     OW 7417   2.654   4.018   3.012
 1847SOL    HW2 7418   2.673   4.102   3.054
 1847SOL    HW3 7419   2.655   4.038   2.919
 1847SOL    MW4 7420   2.657   4.032   3.005
 1848SOL     OW 7421   2.672   4.260   3.114
 1848SOL    HW2 7422   2.665   4.266   3.209
 1848SOL    HW3 7423   2.600   4.314   3.081
 1848SOL    MW4 7424   2.661   4.268   3.122
 1849SOL     OW 7425   2.887   4.429   3.030
 1849SOL    HW2 7426   2.955   4.369   3.060
 1849SOL    HW3 7427   2.805   4.383   3.049
 1849SOL    MW4 7428   2.885   4.415   3.036
 1850SOL     OW 7429   3.397   4.615   3.118
 1850SOL    HW2 7430   3.483   4.650   3.096
 1850SOL    HW3 7431   3.395   4.528   3.077
 1850SOL    MW4 7432   3.408   4.608   3.110
 1851SOL     OW 7433   3.191   0.089   2.995
 1851SOL    HW2 7434   3.219   0.175   3.028
 1851SOL    HW3 7435   3.254   0.027   3.031
 1851SOL    MW4 7436   3.203   0.092   3.004
 1852SOL     OW 7437   3.194   0.357   3.109
 1852SOL    HW2 7438   3.257   0.427   3.088
 1852SOL    HW3 7439   3.109   0.392   3.080
 1852SOL    MW4 7440   3.191   0.371   3.102
 1853SOL     OW 7441   3.415   0.541   3.054
 1853SOL    HW2 7442   3.485   0.482   3.084
 1853SOL    HW3 7443   3.400   0.516   2.963
 1853SOL    MW4 7444   3.422   0.530   3.046
 1854SOL     OW 7445   3.357   0.807   3.111
 1854SOL    HW2 7446   3.348   0.831   3.203
 1854SOL    HW3 7447   3.387   0.717   3.112
 1854SOL    MW4 7448   3.360   0.798   3.123
 1855SOL     OW 7449   3.127   0.913   2.976
 1855SOL    HW2 7450   3.213   0.878   2.998
 1855SOL    HW3 7451   3.068   0.872   3.039
 1855SOL    MW4 7452   3.130   0.903   2.987
 1856SOL     OW 7453   3.153   1.160   3.104
 1856SOL    HW2 7454   3.227   1.206   3.065
 1856SOL    HW3 7455   3.160   1.070   3.073
 1856SOL    MW4 7456   3.163   1.154   3.095
 1857SOL     OW 7457   3.392   1.285   3.022
 1857SOL    HW2 7458   3.469   1.264   3.075
 1857SOL    HW3 7459   3.374   1.377   3.042
 1857SOL    MW4 7460   3.400   1.295   3.031
 1858SOL     OW 7461   3.381   1.555   3.119
 1858SOL    HW2 7462   3.381   1.540   3.213
 1858SOL    HW3 7463   3.459   1.609   3.103
 1858SOL    MW4 7464   3.392   1.560   3.129
 1859SOL     OW 7465   3.133   1.689   3.027
 1859SOL    HW2 7466   3.213   1.655   3.066
 1859SOL    HW3 7467   3.135   1.658   2.936
 1859SOL    MW4 7468   3.144   1.681   3.020
 1860SOL     OW 7469   3.133   1.955   3.066
 1860SOL    HW2 7470   3.132   1.863   3.039
 1860SOL    HW3 7471   3.043   1.984   3.055
 1860SOL    MW4 7472   3.121   1.946   3.061
 1861SOL     OW 7473   3.348   2.106   3.009
 1861SOL    HW2 7474   3.419   2.078   3.067
 1861SOL    HW3 7475   3.276   2.046   3.029
 1861SOL    MW4 7476   3.348   2.094   3.019
 1862SOL     OW 7477   3.329   2.378   3.125
 1862SOL    HW2 7478   3.318   2.390   3.220
 1862SOL    HW3 7479   3.328   2.283   3.113
 1862SOL    MW4 7480   3.327   2.367   3.136
 1863SOL     OW 7481   3.111   2.467   2.986
 1863SOL    HW2 7482   3.181   2.422   3.032
 1863SOL    HW3 7483   3.122   2.442   2.894
 1863SOL    MW4 7484   3.122   2.458   2.980
 1864SOL     OW 7485   3.115   2.725   3.087
 1864SOL    HW2 7486   3.118   2.720   3.182
 1864SOL    HW3 7487   3.120   2.634   3.057
 1864SOL    MW4 7488   3.116   2.712   3.095
 1865SOL     OW 7489   3.337   2.850   2.980
 1865SOL    HW2 7490   3.313   2.940   3.000
 1865SOL    HW3 7491   3.271   2.797   3.025
 1865SOL    MW4 7492   3.325   2.855   2.988
 1866SOL     OW 7493   3.349   3.092   3.080
 1866SOL    HW2 7494   3.369   3.085   3.173
 1866SOL    HW3 7495   3.271   3.148   3.075
 1866SOL    MW4 7496   3.341   3.099   3.091
 1867SOL     OW 7497   3.133   3.248   3.015
 1867SOL    HW2 7498   3.058   3.198   3.046
 1867SOL    HW3 7499   3.127   3.244   2.919
 1867SOL    MW4 7500   3.122   3.241   3.006
 1868SOL     OW 7501   3.138   3.519   3.098
 1868SOL    HW2 7502   3.228   3.544   3.078
 1868SOL    HW3 7503   3.130   3.430   3.063
 1868SOL    MW4 7504   3.149   3.511   3.091
 1869SOL     OW 7505   3.378   3.621   2.990
 1869SOL    HW2 7506   3.444   3.576   3.042
 1869SOL    HW3 7507   3.373   3.708   3.028
 1869SOL    MW4 7508   3.386   3.626   3.002
 1870SOL     OW 7509   3.362   3.863   3.116
 1870SOL    HW2 7510   3.356   3.847   3.210
 1870SOL    HW3 7511   3.285   3.916   3.095
 1870SOL    MW4 7512   3.351   3.868   3.125
 1871SOL     OW 7513   3.153   4.004   3.004
 1871SOL    HW2 7514   3.066   3.973   3.029
 1871SOL    HW3 7515   3.150   4.006   2.908
 1871SOL    MW4 7516   3.141   4.000   2.994
 1872SOL     OW 7517   3.122   4.272   3.050
 1872SOL    HW2 7518   3.135   4.275   3.145
 1872SOL    HW3 7519   3.114   4.179   3.030
 1872SOL    MW4 7520   3.123   4.260   3.060
 1873SOL     OW 7521   3.365   4.386   2.994
 1873SOL    HW2 7522   3.431   4.329   3.033
 1873SOL    HW3 7523   3.282   4.341   3.009
 1873SOL    MW4 7524   3.363   4.373   3.002
 1874SOL     OW 7525   3.829   4.626   3.102
 1874SOL    HW2 7526   3.812   4.535   3.075
 1874SOL    HW3 7527   3.754   4.675   3.069
 1874SOL    MW4 7528   3.817   4.620   3.094
 1875SOL     OW 7529   3.615   0.081   2.980
 1875SOL    HW2 7530   3.612   0.172   3.011
 1875SOL    HW3 7531   3.585   0.086   2.889
 1875SOL    MW4 7532   3.610   0.094   2.972
 1876SOL     OW 7533   3.617   0.337   3.104
 1876SOL    HW2 7534   3.631   0.326   3.198
 1876SOL    HW3 7535   3.703   0.362   3.070
 1876SOL    MW4 7536   3.630   0.339   3.112
 1877SOL     OW 7537   3.882   0.472   3.030
 1877SOL    HW2 7538   3.962   0.445   3.076
 1877SOL    HW3 7539   3.857   0.554   3.071
 1877SOL    MW4 7540   3.889   0.479   3.041
 1878SOL     OW 7541   3.796   0.718   3.167
 1878SOL    HW2 7542   3.796   0.741   3.260
 1878SOL    HW3 7543   3.872   0.765   3.131
 1878SOL    MW4 7544   3.806   0.727   3.174
 1879SOL     OW 7545   3.606   0.887   3.032
 1879SOL    HW2 7546   3.672   0.843   3.085
 1879SOL    HW3 7547   3.524   0.841   3.051
 1879SOL    MW4 7548   3.604   0.875   3.041
 1880SOL     OW 7549   3.612   1.135   3.140
 1880SOL    HW2 7550   3.685   1.169   3.088
 1880SOL    HW3 7551   3.597   1.047   3.105
 1880SOL    MW4 7552   3.620   1.128   3.128
 1881SOL     OW 7553   3.805   1.297   2.991
 1881SOL    HW2 7554   3.818   1.390   3.009
 1881SOL    HW3 7555   3.814   1.289   2.896
 1881SOL    MW4 7556   3.808   1.308   2.980
 1882SOL     OW 7557   3.840   1.554   3.082
 1882SOL    HW2 7558   3.845   1.545   3.177
 1882SOL    HW3 7559   3.761   1.605   3.067
 1882SOL    MW4 7560   3.831   1.559   3.093
 1883SOL     OW 7561   3.607   1.691   3.043
 1883SOL    HW2 7562   3.585   1.784   3.054
 1883SOL    HW3 7563   3.607   1.678   2.948
 1883SOL    MW4 7564   3.604   1.702   3.032
 1884SOL     OW 7565   3.557   1.945   3.132
 1884SOL    HW2 7566   3.553   1.933   3.227
 1884SOL    HW3 7567   3.648   1.966   3.114
 1884SOL    MW4 7568   3.568   1.946   3.142
 1885SOL     OW 7569   3.799   2.049   3.040
 1885SOL    HW2 7570   3.800   2.143   3.061
 1885SOL    HW3 7571   3.796   2.047   2.944
 1885SOL    MW4 7572   3.799   2.061   3.030
 1886SOL     OW 7573   3.791   2.320   3.097
 1886SOL    HW2 7574   3.776   2.316   3.191
 1886SOL    HW3 7575   3.718   2.372   3.064
 1886SOL    MW4 7576   3.779   2.326   3.105
 1887SOL     OW 7577   3.554   2.444   2.988
 1887SOL    HW2 7578   3.562   2.534   3.017
 1887SOL    HW3 7579   3.474   2.412   3.030
 1887SOL    MW4 7580   3.544   2.451   2.997
 1888SOL     OW 7581   3.550   2.703   3.080
 1888SOL    HW2 7582   3.626   2.757   3.057
 1888SOL    HW3 7583   3.475   2.751   3.045
 1888SOL    MW4 7584   3.550   2.717   3.072
 1889SOL     OW 7585   3.810   2.832   3.042
 1889SOL    HW2 7586   3.804   2.924   3.067
 1889SOL    HW3 7587   3.805   2.833   2.946
 1889SOL    MW4 7588   3.808   2.845   3.032
 1890SOL     OW 7589   3.809   3.114   3.109
 1890SOL    HW2 7590   3.879   3.160   3.063
 1890SOL    HW3 7591   3.730   3.164   3.087
 1890SOL    MW4 7592   3.808   3.127   3.100
 1891SOL     OW 7593   3.575   3.242   3.032
 1891SOL    HW2 7594   3.493   3.197   3.053
 1891SOL    HW3 7595   3.582   3.236   2.936
 1891SOL    MW4 7596   3.565   3.235   3.022
 1892SOL     OW 7597   3.612   3.499   3.117
 1892SOL    HW2 7598   3.679   3.553   3.074
 1892SOL    HW3 7599   3.609   3.419   3.066
 1892SOL    MW4 7600   3.621   3.496   3.104
 1893SOL     OW 7601   3.826   3.624   2.997
 1893SOL    HW2 7602   3.834   3.715   3.027
 1893SOL    HW3 7603   3.822   3.631   2.902
 1893SOL    MW4 7604   3.826   3.637   2.989
 1894SOL     OW 7605   3.843   3.881   3.097
 1894SOL    HW2 7606   3.849   3.888   3.192
 1894SOL    HW3 7607   3.757   3.918   3.076
 1894SOL    MW4 7608   3.832   3.887   3.107
 1895SOL     OW 7609   3.570   3.968   2.990
 1895SOL    HW2 7610   3.489   3.922   3.010
 1895SOL    HW3 7611   3.561   3.993   2.898
 1895SOL    MW4 7612   3.558   3.966   2.980
 1896SOL     OW 7613   3.551   4.209   3.116
 1896SOL    HW2 7614   3.621   4.261   3.077
 1896SOL    HW3 7615   3.553   4.126   3.068
 1896SOL    MW4 7616   3.560   4.205   3.104
 1897SOL     OW 7617   3.767   4.363   2.997
 1897SOL    HW2 7618   3.851   4.321   3.016
 1897SOL    HW3 7619   3.770   4.379   2.902
 1897SOL    MW4 7620   3.779   4.360   2.987
 1898SOL     OW 7621   4.279   4.634   3.117
 1898SOL    HW2 7622   4.266   4.647   3.210
 1898SOL    HW3 7623   4.281   4.539   3.106
 1898SOL    MW4 7624   4.278   4.623   3.127
 1899SOL     OW 7625   4.064   0.102   3.015
 1899SOL    HW2 7626   4.135   0.046   3.047
 1899SOL    HW3 7627   3.984   0.056   3.040
 1899SOL    MW4 7628   4.063   0.089   3.022
 1900SOL     OW 7629   4.100   0.343   3.164
 1900SOL    HW2 7630   4.184   0.384   3.145
 1900SOL    HW3 7631   4.101   0.261   3.114
 1900SOL    MW4 7632   4.111   0.338   3.155
 1901SOL     OW 7633   4.309   0.507   3.061
 1901SOL    HW2 7634   4.292   0.591   3.102
 1901SOL    HW3 7635   4.295   0.523   2.967
 1901SOL    MW4 7636   4.305   0.520   3.054
 1902SOL     OW 7637   4.284   0.760   3.158
 1902SOL    HW2 7638   4.205   0.794   3.115
 1902SOL    HW3 7639   4.356   0.800   3.109
 1902SOL    MW4 7640   4.283   0.770   3.145
 1903SOL     OW 7641   3.999   0.878   3.077
 1903SOL    HW2 7642   3.994   0.972   3.095
 1903SOL    HW3 7643   4.014   0.872   2.983
 1903SOL    MW4 7644   4.000   0.890   3.067
 1904SOL     OW 7645   4.015   1.169   3.106
 1904SOL    HW2 7646   4.014   1.181   3.201
 1904SOL    HW3 7647   3.942   1.223   3.074
 1904SOL    MW4 7648   4.005   1.177   3.115
 1905SOL     OW 7649   4.256   1.290   3.034
 1905SOL    HW2 7650   4.178   1.246   3.067
 1905SOL    HW3 7651   4.254   1.274   2.939
 1905SOL    MW4 7652   4.245   1.282   3.026
 1906SOL     OW 7653   4.257   1.557   3.076
 1906SOL    HW2 7654   4.193   1.605   3.023
 1906SOL    HW3 7655   4.235   1.465   3.063
 1906SOL    MW4 7656   4.246   1.551   3.067
 1907SOL     OW 7657   4.046   1.701   2.967
 1907SOL    HW2 7658   4.030   1.791   2.993
 1907SOL    HW3 7659   3.985   1.649   3.020
 1907SOL    MW4 7660   4.036   1.706   2.978
 1908SOL     OW 7661   4.033   1.926   3.120
 1908SOL    HW2 7662   4.107   1.970   3.080
 1908SOL    HW3 7663   3.956   1.974   3.090
 1908SOL    MW4 7664   4.033   1.938   3.111
 1909SOL     OW 7665   4.259   2.069   3.016
 1909SOL    HW2 7666   4.281   2.158   3.044
 1909SOL    HW3 7667   4.245   2.076   2.922
 1909SOL    MW4 7668   4.260   2.082   3.008
 1910SOL     OW 7669   4.272   2.315   3.102
 1910SOL    HW2 7670   4.187   2.328   3.060
 1910SOL    HW3 7671   4.335   2.357   3.043
 1910SOL    MW4 7672   4.269   2.322   3.089
 1911SOL     OW 7673   4.022   2.431   3.009
 1911SOL    HW2 7674   4.026   2.517   3.051
 1911SOL    HW3 7675   3.937   2.396   3.035
 1911SOL    MW4 7676   4.012   2.438   3.018
 1912SOL     OW 7677   4.018   2.689   3.123
 1912SOL    HW2 7678   4.030   2.687   3.218
 1912SOL    HW3 7679   3.946   2.750   3.109
 1912SOL    MW4 7680   4.010   2.697   3.134
 1913SOL     OW 7681   4.232   2.841   2.999
 1913SOL    HW2 7682   4.156   2.802   3.043
 1913SOL    HW3 7683   4.307   2.790   3.030
 1913SOL    MW4 7684   4.232   2.829   3.009
 1914SOL     OW 7685   4.257   3.105   3.137
 1914SOL    HW2 7686   4.186   3.157   3.100
 1914SOL    HW3 7687   4.235   3.014   3.115
 1914SOL    MW4 7688   4.245   3.100   3.129
 1915SOL     OW 7689   4.051   3.234   2.990
 1915SOL    HW2 7690   4.058   3.327   3.011
 1915SOL    HW3 7691   4.048   3.231   2.894
 1915SOL    MW4 7692   4.052   3.246   2.980
 1916SOL     OW 7693   4.060   3.489   3.087
 1916SOL    HW2 7694   4.036   3.477   3.179
 1916SOL    HW3 7695   3.985   3.533   3.048
 1916SOL    MW4 7696   4.047   3.493   3.094
 1917SOL     OW 7697   4.291   3.625   3.018
 1917SOL    HW2 7698   4.306   3.709   3.062
 1917SOL    HW3 7699   4.205   3.596   3.050
 1917SOL    MW4 7700   4.282   3.632   3.028
 1918SOL     OW 7701   4.316   3.908   3.124
 1918SOL    HW2 7702   4.245   3.953   3.079
 1918SOL    HW3 7703   4.395   3.956   3.099
 1918SOL    MW4 7704   4.318   3.920   3.114
 1919SOL     OW 7705   4.093   4.003   2.991
 1919SOL    HW2 7706   4.068   4.086   3.032
 1919SOL    HW3 7707   4.020   3.944   3.009
 1919SOL    MW4 7708   4.080   4.006   2.999
 1920SOL     OW 7709   4.006   4.251   3.117
 1920SOL    HW2 7710   4.004   4.230   3.210
 1920SOL    HW3 7711   4.084   4.305   3.106
 1920SOL    MW4 7712   4.016   4.256   3.128
 1921SOL     OW 7713   4.258   4.361   3.033
 1921SOL    HW2 7714   4.342   4.322   3.056
 1921SOL    HW3 7715   4.270   4.394   2.944
 1921SOL    MW4 7716   4.271   4.360   3.024
 1922SOL     OW 7717   0.240   4.646   3.373
 1922SOL    HW2 7718   0.316   4.688   3.414
 1922SOL    HW3 7719   0.237   4.559   3.413
 1922SOL    MW4 7720   0.250   4.640   3.384
 1923SOL     OW 7721   0.018   0.104   3.491
 1923SOL    HW2 7722   0.029   0.194   3.461
 1923SOL    HW3 7723   0.095   0.058   3.458
 1923SOL    MW4 7724   0.029   0.109   3.483
 1924SOL     OW 7725   0.013   0.384   3.410
 1924SOL    HW2 7726  -0.068   0.412   3.453
 1924SOL    HW3 7727   0.080   0.444   3.442
 1924SOL    MW4 7728   0.011   0.396   3.420
 1925SOL     OW 7729   0.233   0.531   3.502
 1925SOL    HW2 7730   0.293   0.472   3.457
 1925SOL    HW3 7731   0.239   0.613   3.454
 1925SOL    MW4 7732   0.241   0.534   3.490
 1926SOL     OW 7733   0.247   0.762   3.362
 1926SOL    HW2 7734   0.322   0.813   3.391
 1926SOL    HW3 7735   0.175   0.790   3.419
 1926SOL    MW4 7736   0.247   0.772   3.373
 1927SOL     OW 7737   0.028   0.884   3.509
 1927SOL    HW2 7738   0.015   0.892   3.603
 1927SOL    HW3 7739   0.028   0.975   3.477
 1927SOL    MW4 7740   0.026   0.897   3.517
 1928SOL     OW 7741   4.489   1.137   3.414
 1928SOL    HW2 7742   4.569   1.187   3.431
 1928SOL    HW3 7743   4.475   1.146   3.320
 1928SOL    MW4 7744   4.498   1.145   3.404
 1929SOL     OW 7745   0.215   1.276   3.489
 1929SOL    HW2 7746   0.294   1.243   3.447
 1929SOL    HW3 7747   0.203   1.364   3.453
 1929SOL    MW4 7748   0.224   1.284   3.479
 1930SOL     OW 7749   0.221   1.536   3.401
 1930SOL    HW2 7750   0.303   1.575   3.433
 1930SOL    HW3 7751   0.225   1.549   3.306
 1930SOL    MW4 7752   0.232   1.543   3.392
 1931SOL     OW 7753   0.005   1.675   3.497
 1931SOL    HW2 7754  -0.070   1.644   3.446
 1931SOL    HW3 7755   0.078   1.620   3.470
 1931SOL    MW4 7756   0.005   1.664   3.487
 1932SOL     OW 7757   0.025   1.948   3.391
 1932SOL    HW2 7758   0.001   1.862   3.427
 1932SOL    HW3 7759   0.005   1.941   3.298
 1932SOL    MW4 7760   0.019   1.936   3.384
 1933SOL     OW 7761   0.249   2.089   3.484
 1933SOL    HW2 7762   0.260   2.078   3.579
 1933SOL    HW3 7763   0.164   2.049   3.466
 1933SOL    MW4 7764   0.239   2.082   3.494
 1934SOL     OW 7765   0.213   2.337   3.368
 1934SOL    HW2 7766   0.129   2.379   3.387
 1934SOL    HW3 7767   0.211   2.255   3.417
 1934SOL    MW4 7768   0.202   2.331   3.377
 1935SOL     OW 7769   4.464   2.455   3.459
 1935SOL    HW2 7770   4.479   2.452   3.554
 1935SOL    HW3 7771   4.398   2.388   3.443
 1935SOL    MW4 7772   4.457   2.446   3.470
 1936SOL     OW 7773   4.457   2.718   3.378
 1936SOL    HW2 7774   4.533   2.752   3.424
 1936SOL    HW3 7775   4.455   2.625   3.397
 1936SOL    MW4 7776   4.466   2.710   3.386
 1937SOL     OW 7777   0.197   2.839   3.487
 1937SOL    HW2 7778   0.283   2.811   3.457
 1937SOL    HW3 7779   0.192   2.931   3.463
 1937SOL    MW4 7780   0.207   2.847   3.480
 1938SOL     OW 7781   0.208   3.094   3.443
 1938SOL    HW2 7782   0.133   3.145   3.474
 1938SOL    HW3 7783   0.200   3.094   3.348
 1938SOL    MW4 7784   0.197   3.101   3.435
 1939SOL     OW 7785   0.001   3.267   3.534
 1939SOL    HW2 7786  -0.065   3.213   3.491
 1939SOL    HW3 7787   0.001   3.349   3.484
 1939SOL    MW4 7788  -0.008   3.271   3.522
 1940SOL     OW 7789   4.466   3.533   3.389
 1940SOL    HW2 7790   4.372   3.536   3.410
 1940SOL    HW3 7791   4.469   3.513   3.295
 1940SOL    MW4 7792   4.454   3.530   3.379
 1941SOL     OW 7793   0.213   3.623   3.479
 1941SOL    HW2 7794   0.206   3.632   3.575
 1941SOL    HW3 7795   0.131   3.580   3.453
 1941SOL    MW4 7796   0.201   3.619   3.489
 1942SOL     OW 7797   0.228   3.880   3.366
 1942SOL    HW2 7798   0.153   3.932   3.395
 1942SOL    HW3 7799   0.215   3.795   3.407
 1942SOL    MW4 7800   0.216   3.876   3.375
 1943SOL     OW 7801   0.008   4.011   3.478
 1943SOL    HW2 7802   0.007   4.021   3.573
 1943SOL    HW3 7803   0.009   4.101   3.444
 1943SOL    MW4 7804   0.008   4.024   3.486
 1944SOL     OW 7805   0.009   4.273   3.370
 1944SOL    HW2 7806  -0.078   4.304   3.396
 1944SOL    HW3 7807   0.070   4.319   3.428
 1944SOL    MW4 7808   0.006   4.283   3.381
 1945SOL     OW 7809   0.194   4.395   3.520
 1945SOL    HW2 7810   0.201   4.386   3.615
 1945SOL    HW3 7811   0.273   4.353   3.486
 1945SOL    MW4 7812   0.206   4.389   3.528
 1946SOL     OW 7813   0.653   4.661   3.408
 1946SOL    HW2 7814   0.722   4.709   3.452
 1946SOL    HW3 7815   0.674   4.669   3.315
 1946SOL    MW4 7816   0.665   4.668   3.401
 1947SOL     OW 7817   0.444   0.135   3.505
 1947SOL    HW2 7818   0.458   0.132   3.599
 1947SOL    HW3 7819   0.506   0.072   3.469
 1947SOL    MW4 7820   0.454   0.127   3.512
 1948SOL     OW 7821   0.443   0.373   3.386
 1948SOL    HW2 7822   0.528   0.403   3.417
 1948SOL    HW3 7823   0.432   0.287   3.426
 1948SOL    MW4 7824   0.453   0.366   3.395
 1949SOL     OW 7825   0.692   0.473   3.445
 1949SOL    HW2 7826   0.681   0.476   3.540
 1949SOL    HW3 7827   0.760   0.408   3.431
 1949SOL    MW4 7828   0.699   0.464   3.456
 1950SOL     OW 7829   0.688   0.743   3.370
 1950SOL    HW2 7830   0.609   0.773   3.415
 1950SOL    HW3 7831   0.688   0.648   3.381
 1950SOL    MW4 7832   0.678   0.735   3.378
 1951SOL     OW 7833   0.459   0.867   3.496
 1951SOL    HW2 7834   0.445   0.861   3.591
 1951SOL    HW3 7835   0.484   0.958   3.482
 1951SOL    MW4 7836   0.460   0.878   3.507
 1952SOL     OW 7837   0.433   1.155   3.385
 1952SOL    HW2 7838   0.522   1.176   3.414
 1952SOL    HW3 7839   0.440   1.146   3.290
 1952SOL    MW4 7840   0.445   1.156   3.376
 1953SOL     OW 7841   0.692   1.229   3.444
 1953SOL    HW2 7842   0.768   1.176   3.419
 1953SOL    HW3 7843   0.709   1.315   3.404
 1953SOL    MW4 7844   0.705   1.234   3.435
 1954SOL     OW 7845   0.694   1.512   3.347
 1954SOL    HW2 7846   0.769   1.542   3.398
 1954SOL    HW3 7847   0.619   1.559   3.383
 1954SOL    MW4 7848   0.694   1.522   3.358
 1955SOL     OW 7849   0.467   1.653   3.489
 1955SOL    HW2 7850   0.472   1.660   3.584
 1955SOL    HW3 7851   0.469   1.744   3.458
 1955SOL    MW4 7852   0.468   1.666   3.497
 1956SOL     OW 7853   0.450   1.921   3.369
 1956SOL    HW2 7854   0.381   1.980   3.398
 1956SOL    HW3 7855   0.432   1.907   3.276
 1956SOL    MW4 7856   0.439   1.927   3.360
 1957SOL     OW 7857   0.684   2.029   3.469
 1957SOL    HW2 7858   0.659   2.045   3.560
 1957SOL    HW3 7859   0.615   1.971   3.435
 1957SOL    MW4 7860   0.672   2.023   3.477
 1958SOL     OW 7861   0.653   2.318   3.381
 1958SOL    HW2 7862   0.725   2.370   3.416
 1958SOL    HW3 7863   0.673   2.228   3.408
 1958SOL    MW4 7864   0.665   2.313   3.389
 1959SOL     OW 7865   0.449   2.469   3.477
 1959SOL    HW2 7866   0.520   2.421   3.435
 1959SOL    HW3 7867   0.369   2.424   3.448
 1959SOL    MW4 7868   0.448   2.457   3.467
 1960SOL     OW 7869   0.425   2.734   3.403
 1960SOL    HW2 7870   0.445   2.648   3.440
 1960SOL    HW3 7871   0.429   2.721   3.308
 1960SOL    MW4 7872   0.429   2.721   3.395
 1961SOL     OW 7873   0.643   2.874   3.503
 1961SOL    HW2 7874   0.721   2.826   3.478
 1961SOL    HW3 7875   0.570   2.824   3.465
 1961SOL    MW4 7876   0.643   2.861   3.495
 1962SOL     OW 7877   0.632   3.127   3.392
 1962SOL    HW2 7878   0.554   3.172   3.423
 1962SOL    HW3 7879   0.630   3.042   3.435
 1962SOL    MW4 7880   0.622   3.122   3.402
 1963SOL     OW 7881   0.408   3.277   3.495
 1963SOL    HW2 7882   0.411   3.273   3.590
 1963SOL    HW3 7883   0.338   3.216   3.470
 1963SOL    MW4 7884   0.399   3.268   3.504
 1964SOL     OW 7885   0.444   3.534   3.370
 1964SOL    HW2 7886   0.438   3.444   3.402
 1964SOL    HW3 7887   0.369   3.579   3.410
 1964SOL    MW4 7888   0.433   3.528   3.380
 1965SOL     OW 7889   0.664   3.651   3.502
 1965SOL    HW2 7890   0.731   3.590   3.471
 1965SOL    HW3 7891   0.584   3.623   3.458
 1965SOL    MW4 7892   0.662   3.639   3.492
 1966SOL     OW 7893   0.702   3.897   3.396
 1966SOL    HW2 7894   0.621   3.945   3.417
 1966SOL    HW3 7895   0.693   3.814   3.444
 1966SOL    MW4 7896   0.690   3.892   3.405
 1967SOL     OW 7897   0.462   4.021   3.498
 1967SOL    HW2 7898   0.436   4.108   3.468
 1967SOL    HW3 7899   0.386   3.966   3.479
 1967SOL    MW4 7900   0.449   4.025   3.492
 1968SOL     OW 7901   0.418   4.300   3.408
 1968SOL    HW2 7902   0.489   4.341   3.457
 1968SOL    HW3 7903   0.441   4.315   3.316
 1968SOL    MW4 7904   0.431   4.307   3.402
 1969SOL     OW 7905   0.647   4.399   3.521
 1969SOL    HW2 7906   0.728   4.361   3.488
 1969SOL    HW3 7907   0.650   4.491   3.492
 1969SOL    MW4 7908   0.658   4.406   3.513
 1970SOL     OW 7909   1.110   0.037   3.420
 1970SOL    HW2 7910   1.196   0.062   3.452
 1970SOL    HW3 7911   1.120   0.032   3.325
 1970SOL    MW4 7912   1.123   0.040   3.412
 1971SOL     OW 7913   0.862   0.106   3.536
 1971SOL    HW2 7914   0.873   0.122   3.629
 1971SOL    HW3 7915   0.945   0.067   3.507
 1971SOL    MW4 7916   0.874   0.103   3.544
 1972SOL     OW 7917   0.952   0.345   3.397
 1972SOL    HW2 7918   1.020   0.396   3.442
 1972SOL    HW3 7919   0.943   0.265   3.449
 1972SOL    MW4 7920   0.960   0.341   3.410
 1973SOL     OW 7921   1.155   0.503   3.504
 1973SOL    HW2 7922   1.168   0.511   3.599
 1973SOL    HW3 7923   1.139   0.593   3.475
 1973SOL    MW4 7924   1.155   0.516   3.513
 1974SOL     OW 7925   1.160   0.743   3.345
 1974SOL    HW2 7926   1.234   0.783   3.389
 1974SOL    HW3 7927   1.083   0.780   3.388
 1974SOL    MW4 7928   1.159   0.753   3.356
 1975SOL     OW 7929   0.937   0.848   3.482
 1975SOL    HW2 7930   0.942   0.939   3.453
 1975SOL    HW3 7931   0.845   0.825   3.471
 1975SOL    MW4 7932   0.925   0.857   3.477
 1976SOL     OW 7933   0.944   1.091   3.387
 1976SOL    HW2 7934   0.999   1.157   3.428
 1976SOL    HW3 7935   0.957   1.104   3.293
 1976SOL    MW4 7936   0.953   1.101   3.380
 1977SOL     OW 7937   1.109   1.292   3.493
 1977SOL    HW2 7938   1.118   1.308   3.587
 1977SOL    HW3 7939   1.131   1.376   3.452
 1977SOL    MW4 7940   1.113   1.305   3.500
 1978SOL     OW 7941   1.141   1.538   3.364
 1978SOL    HW2 7942   1.210   1.593   3.401
 1978SOL    HW3 7943   1.142   1.557   3.270
 1978SOL    MW4 7944   1.150   1.548   3.357
 1979SOL     OW 7945   0.891   1.655   3.458
 1979SOL    HW2 7946   0.891   1.743   3.420
 1979SOL    HW3 7947   0.977   1.620   3.437
 1979SOL    MW4 7948   0.902   1.662   3.450
 1980SOL     OW 7949   0.882   1.905   3.335
 1980SOL    HW2 7950   0.969   1.922   3.369
 1980SOL    HW3 7951   0.823   1.950   3.396
 1980SOL    MW4 7952   0.885   1.914   3.347
 1981SOL     OW 7953   1.088   2.010   3.522
 1981SOL    HW2 7954   1.175   1.996   3.485
 1981SOL    HW3 7955   1.069   2.102   3.502
 1981SOL    MW4 7956   1.097   2.021   3.514
 1982SOL     OW 7957   1.062   2.292   3.405
 1982SOL    HW2 7958   1.144   2.326   3.441
 1982SOL    HW3 7959   1.077   2.291   3.310
 1982SOL    MW4 7960   1.075   2.297   3.397
 1983SOL     OW 7961   0.872   2.467   3.468
 1983SOL    HW2 7962   0.872   2.462   3.564
 1983SOL    HW3 7963   0.934   2.399   3.440
 1983SOL    MW4 7964   0.880   2.457   3.477
 1984SOL     OW 7965   0.872   2.746   3.399
 1984SOL    HW2 7966   0.954   2.794   3.413
 1984SOL    HW3 7967   0.891   2.657   3.429
 1984SOL    MW4 7968   0.886   2.741   3.405
 1985SOL     OW 7969   1.156   2.838   3.527
 1985SOL    HW2 7970   1.145   2.837   3.622
 1985SOL    HW3 7971   1.225   2.774   3.510
 1985SOL    MW4 7972   1.163   2.829   3.537
 1986SOL     OW 7973   1.100   3.074   3.406
 1986SOL    HW2 7974   1.126   2.987   3.435
 1986SOL    HW3 7975   1.104   3.070   3.311
 1986SOL    MW4 7976   1.104   3.062   3.398
 1987SOL     OW 7977   0.877   3.233   3.500
 1987SOL    HW2 7978   0.953   3.188   3.463
 1987SOL    HW3 7979   0.802   3.188   3.462
 1987SOL    MW4 7980   0.877   3.221   3.490
 1988SOL     OW 7981   0.886   3.507   3.411
 1988SOL    HW2 7982   0.856   3.418   3.430
 1988SOL    HW3 7983   0.909   3.506   3.318
 1988SOL    MW4 7984   0.885   3.495   3.402
 1989SOL     OW 7985   1.131   3.637   3.512
 1989SOL    HW2 7986   1.112   3.636   3.606
 1989SOL    HW3 7987   1.046   3.620   3.471
 1989SOL    MW4 7988   1.117   3.635   3.519
 1990SOL     OW 7989   1.144   3.902   3.400
 1990SOL    HW2 7990   1.216   3.953   3.437
 1990SOL    HW3 7991   1.146   3.819   3.447
 1990SOL    MW4 7992   1.154   3.898   3.411
 1991SOL     OW 7993   0.927   4.036   3.517
 1991SOL    HW2 7994   1.006   3.996   3.479
 1991SOL    HW3 7995   0.856   4.010   3.459
 1991SOL    MW4 7996   0.928   4.027   3.505
 1992SOL     OW 7997   0.887   4.292   3.429
 1992SOL    HW2 7998   0.912   4.205   3.458
 1992SOL    HW3 7999   0.888   4.287   3.333
 1992SOL    MW4 8000   0.890   4.280   3.420
 1993SOL     OW 8001   1.114   4.426   3.508
 1993SOL    HW2 8002   1.031   4.396   3.470
 1993SOL    HW3 8003   1.114   4.520   3.494
 1993SOL    MW4 8004   1.103   4.434   3.501
 1994SOL     OW 8005   1.562   0.003   3.355
 1994SOL    HW2 8006   1.557  -0.078   3.407
 1994SOL    HW3 8007   1.490   0.057   3.388
 1994SOL    MW4 8008   1.552  -0.001   3.366
 1995SOL     OW 8009   1.352   0.135   3.482
 1995SOL    HW2 8010   1.368   0.149   3.576
 1995SOL    HW3 8011   1.351   0.223   3.445
 1995SOL    MW4 8012   1.354   0.149   3.490
 1996SOL     OW 8013   1.377   0.385   3.365
 1996SOL    HW2 8014   1.452   0.413   3.417
 1996SOL    HW3 8015   1.306   0.445   3.390
 1996SOL    MW4 8016   1.377   0.397   3.375
 1997SOL     OW 8017   1.612   0.472   3.488
 1997SOL    HW2 8018   1.607   0.485   3.583
 1997SOL    HW3 8019   1.698   0.432   3.474
 1997SOL    MW4 8020   1.622   0.468   3.499
 1998SOL     OW 8021   1.599   0.739   3.379
 1998SOL    HW2 8022   1.512   0.778   3.391
 1998SOL    HW3 8023   1.594   0.655   3.426
 1998SOL    MW4 8024   1.587   0.733   3.387
 1999SOL     OW 8025   1.383   0.891   3.466
 1999SOL    HW2 8026   1.376   0.885   3.561
 1999SOL    HW3 8027   1.369   0.984   3.446
 1999SOL    MW4 8028   1.380   0.903   3.476
 2000SOL     OW 8029   1.356   1.158   3.402
 2000SOL    HW2 8030   1.434   1.213   3.412
 2000SOL    HW3 8031   1.285   1.209   3.441
 2000SOL    MW4 8032   1.357   1.172   3.408
 2001SOL     OW 8033   1.573   1.312   3.450
 2001SOL    HW2 8034   1.566   1.304   3.546
 2001SOL    HW3 8035   1.653   1.265   3.428
 2001SOL    MW4 8036   1.582   1.305   3.460
 2002SOL     OW 8037   1.564   1.572   3.350
 2002SOL    HW2 8038   1.563   1.489   3.398
 2002SOL    HW3 8039   1.577   1.546   3.259
 2002SOL    MW4 8040   1.565   1.558   3.344
 2003SOL     OW 8041   1.330   1.709   3.444
 2003SOL    HW2 8042   1.351   1.703   3.537
 2003SOL    HW3 8043   1.406   1.670   3.400
 2003SOL    MW4 8044   1.343   1.703   3.450
 2004SOL     OW 8045   1.355   1.980   3.385
 2004SOL    HW2 8046   1.417   2.027   3.440
 2004SOL    HW3 8047   1.370   1.888   3.405
 2004SOL    MW4 8048   1.365   1.974   3.395
 2005SOL     OW 8049   1.631   2.018   3.506
 2005SOL    HW2 8050   1.687   1.962   3.452
 2005SOL    HW3 8051   1.658   2.107   3.483
 2005SOL    MW4 8052   1.642   2.023   3.496
 2006SOL     OW 8053   1.568   2.295   3.408
 2006SOL    HW2 8054   1.489   2.338   3.441
 2006SOL    HW3 8055   1.563   2.304   3.313
 2006SOL    MW4 8056   1.557   2.302   3.400
 2007SOL     OW 8057   1.308   2.404   3.527
 2007SOL    HW2 8058   1.321   2.414   3.622
 2007SOL    HW3 8059   1.307   2.494   3.494
 2007SOL    MW4 8060   1.310   2.417   3.535
 2008SOL     OW 8061   1.360   2.666   3.418
 2008SOL    HW2 8062   1.433   2.723   3.445
 2008SOL    HW3 8063   1.363   2.668   3.322
 2008SOL    MW4 8064   1.370   2.674   3.409
 2009SOL     OW 8065   1.546   2.860   3.499
 2009SOL    HW2 8066   1.614   2.802   3.466
 2009SOL    HW3 8067   1.567   2.945   3.459
 2009SOL    MW4 8068   1.558   2.864   3.489
 2010SOL     OW 8069   1.577   3.109   3.387
 2010SOL    HW2 8070   1.655   3.150   3.425
 2010SOL    HW3 8071   1.503   3.149   3.433
 2010SOL    MW4 8072   1.578   3.119   3.398
 2011SOL     OW 8073   1.343   3.221   3.478
 2011SOL    HW2 8074   1.317   3.246   3.567
 2011SOL    HW3 8075   1.276   3.158   3.451
 2011SOL    MW4 8076   1.330   3.216   3.486
 2012SOL     OW 8077   1.335   3.482   3.374
 2012SOL    HW2 8078   1.344   3.397   3.417
 2012SOL    HW3 8079   1.258   3.522   3.415
 2012SOL    MW4 8080   1.326   3.476   3.385
 2013SOL     OW 8081   1.580   3.597   3.497
 2013SOL    HW2 8082   1.566   3.596   3.591
 2013SOL    HW3 8083   1.497   3.567   3.460
 2013SOL    MW4 8084   1.568   3.593   3.504
 2014SOL     OW 8085   1.582   3.874   3.415
 2014SOL    HW2 8086   1.583   3.783   3.444
 2014SOL    HW3 8087   1.572   3.869   3.320
 2014SOL    MW4 8088   1.581   3.862   3.406
 2015SOL     OW 8089   1.351   4.063   3.488
 2015SOL    HW2 8090   1.355   4.151   3.451
 2015SOL    HW3 8091   1.426   4.017   3.450
 2015SOL    MW4 8092   1.362   4.068   3.478
 2016SOL     OW 8093   1.345   4.315   3.366
 2016SOL    HW2 8094   1.260   4.337   3.405
 2016SOL    HW3 8095   1.326   4.304   3.273
 2016SOL    MW4 8096   1.331   4.317   3.359
 2017SOL     OW 8097   1.562   4.442   3.523
 2017SOL    HW2 8098   1.625   4.374   3.500
 2017SOL    HW3 8099   1.477   4.408   3.494
 2017SOL    MW4 8100   1.559   4.429   3.516
 2018SOL     OW 8101   2.032   4.666   3.356
 2018SOL    HW2 8102   2.105   4.705   3.404
 2018SOL    HW3 8103   1.954   4.704   3.396
 2018SOL    MW4 8104   2.031   4.676   3.368
 2019SOL     OW 8105   1.804   0.083   3.487
 2019SOL    HW2 8106   1.797   0.078   3.583
 2019SOL    HW3 8107   1.718   0.059   3.455
 2019SOL    MW4 8108   1.792   0.079   3.496
 2020SOL     OW 8109   1.837   0.353   3.400
 2020SOL    HW2 8110   1.816   0.261   3.416
 2020SOL    HW3 8111   1.853   0.357   3.305
 2020SOL    MW4 8112   1.836   0.341   3.389
 2021SOL     OW 8113   2.007   0.530   3.534
 2021SOL    HW2 8114   1.986   0.613   3.492
 2021SOL    HW3 8115   1.948   0.466   3.494
 2021SOL    MW4 8116   1.996   0.532   3.523
 2022SOL     OW 8117   2.010   0.784   3.418
 2022SOL    HW2 8118   2.089   0.813   3.463
 2022SOL    HW3 8119   2.035   0.781   3.326
 2022SOL    MW4 8120   2.024   0.787   3.412
 2023SOL     OW 8121   1.780   0.918   3.493
 2023SOL    HW2 8122   1.866   0.885   3.467
 2023SOL    HW3 8123   1.718   0.857   3.454
 2023SOL    MW4 8124   1.783   0.906   3.485
 2024SOL     OW 8125   1.807   1.180   3.386
 2024SOL    HW2 8126   1.890   1.222   3.407
 2024SOL    HW3 8127   1.806   1.101   3.440
 2024SOL    MW4 8128   1.818   1.175   3.396
 2025SOL     OW 8129   2.057   1.275   3.500
 2025SOL    HW2 8130   2.048   1.284   3.594
 2025SOL    HW3 8131   2.066   1.365   3.468
 2025SOL    MW4 8132   2.057   1.288   3.508
 2026SOL     OW 8133   2.025   1.537   3.373
 2026SOL    HW2 8134   2.098   1.587   3.408
 2026SOL    HW3 8135   1.947   1.579   3.410
 2026SOL    MW4 8136   2.024   1.549   3.383
 2027SOL     OW 8137   1.790   1.649   3.494
 2027SOL    HW2 8138   1.819   1.730   3.452
 2027SOL    HW3 8139   1.712   1.623   3.445
 2027SOL    MW4 8140   1.784   1.656   3.482
 2028SOL     OW 8141   1.861   1.890   3.378
 2028SOL    HW2 8142   1.913   1.961   3.416
 2028SOL    HW3 8143   1.879   1.895   3.284
 2028SOL    MW4 8144   1.870   1.900   3.370
 2029SOL     OW 8145   2.013   2.077   3.516
 2029SOL    HW2 8146   2.076   2.034   3.459
 2029SOL    HW3 8147   1.999   2.163   3.477
 2029SOL    MW4 8148   2.019   2.083   3.504
 2030SOL     OW 8149   1.970   2.296   3.361
 2030SOL    HW2 8150   2.045   2.355   3.362
 2030SOL    HW3 8151   1.943   2.293   3.269
 2030SOL    MW4 8152   1.977   2.304   3.349
 2031SOL     OW 8153   1.780   2.451   3.486
 2031SOL    HW2 8154   1.841   2.407   3.427
 2031SOL    HW3 8155   1.697   2.406   3.473
 2031SOL    MW4 8156   1.777   2.439   3.477
 2032SOL     OW 8157   1.763   2.719   3.418
 2032SOL    HW2 8158   1.838   2.767   3.453
 2032SOL    HW3 8159   1.776   2.629   3.446
 2032SOL    MW4 8160   1.775   2.714   3.426
 2033SOL     OW 8161   2.014   2.815   3.509
 2033SOL    HW2 8162   2.007   2.815   3.605
 2033SOL    HW3 8163   2.009   2.908   3.486
 2033SOL    MW4 8164   2.013   2.828   3.519
 2034SOL     OW 8165   2.039   3.081   3.427
 2034SOL    HW2 8166   2.115   3.136   3.444
 2034SOL    HW3 8167   1.964   3.137   3.446
 2034SOL    MW4 8168   2.039   3.096   3.432
 2035SOL     OW 8169   1.815   3.223   3.478
 2035SOL    HW2 8170   1.811   3.229   3.573
 2035SOL    HW3 8171   1.805   3.314   3.448
 2035SOL    MW4 8172   1.813   3.236   3.486
 2036SOL     OW 8173   1.795   3.474   3.396
 2036SOL    HW2 8174   1.716   3.517   3.430
 2036SOL    HW3 8175   1.796   3.497   3.303
 2036SOL    MW4 8176   1.785   3.483   3.388
 2037SOL     OW 8177   2.019   3.600   3.497
 2037SOL    HW2 8178   2.077   3.552   3.438
 2037SOL    HW3 8179   1.936   3.551   3.494
 2037SOL    MW4 8180   2.015   3.587   3.489
 2038SOL     OW 8181   2.017   3.848   3.396
 2038SOL    HW2 8182   1.950   3.893   3.447
 2038SOL    HW3 8183   2.021   3.760   3.433
 2038SOL    MW4 8184   2.009   3.842   3.407
 2039SOL     OW 8185   1.815   3.999   3.503
 2039SOL    HW2 8186   1.809   4.002   3.598
 2039SOL    HW3 8187   1.738   3.949   3.476
 2039SOL    MW4 8188   1.804   3.993   3.512
 2040SOL     OW 8189   1.767   4.271   3.416
 2040SOL    HW2 8190   1.774   4.183   3.453
 2040SOL    HW3 8191   1.773   4.258   3.321
 2040SOL    MW4 8192   1.768   4.258   3.408
 2041SOL     OW 8193   2.021   4.406   3.451
 2041SOL    HW2 8194   1.930   4.374   3.452
 2041SOL    HW3 8195   2.013   4.499   3.432
 2041SOL    MW4 8196   2.008   4.414   3.449
 2042SOL     OW 8197   2.453   0.021   3.421
 2042SOL    HW2 8198   2.463  -0.069   3.452
 2042SOL    HW3 8199   2.478   0.018   3.329
 2042SOL    MW4 8200   2.458   0.009   3.413
 2043SOL     OW 8201   2.224   0.138   3.503
 2043SOL    HW2 8202   2.220   0.219   3.452
 2043SOL    HW3 8203   2.307   0.098   3.477
 2043SOL    MW4 8204   2.235   0.143   3.493
 2044SOL     OW 8205   2.229   0.393   3.389
 2044SOL    HW2 8206   2.310   0.409   3.438
 2044SOL    HW3 8207   2.161   0.438   3.438
 2044SOL    MW4 8208   2.231   0.401   3.402
 2045SOL     OW 8209   2.466   0.476   3.520
 2045SOL    HW2 8210   2.538   0.432   3.476
 2045SOL    HW3 8211   2.468   0.566   3.488
 2045SOL    MW4 8212   2.476   0.482   3.510
 2046SOL     OW 8213   2.485   0.710   3.392
 2046SOL    HW2 8214   2.563   0.757   3.423
 2046SOL    HW3 8215   2.493   0.711   3.296
 2046SOL    MW4 8216   2.497   0.717   3.383
 2047SOL     OW 8217   2.260   0.854   3.521
 2047SOL    HW2 8218   2.268   0.937   3.475
 2047SOL    HW3 8219   2.324   0.797   3.479
 2047SOL    MW4 8220   2.269   0.857   3.509
 2048SOL     OW 8221   2.258   1.107   3.410
 2048SOL    HW2 8222   2.333   1.153   3.448
 2048SOL    HW3 8223   2.181   1.153   3.445
 2048SOL    MW4 8224   2.258   1.119   3.419
 2049SOL     OW 8225   2.466   1.264   3.517
 2049SOL    HW2 8226   2.480   1.257   3.612
 2049SOL    HW3 8227   2.537   1.215   3.478
 2049SOL    MW4 8228   2.477   1.257   3.524
 2050SOL     OW 8229   2.464   1.514   3.402
 2050SOL    HW2 8230   2.481   1.434   3.450
 2050SOL    HW3 8231   2.455   1.487   3.310
 2050SOL    MW4 8232   2.465   1.500   3.396
 2051SOL     OW 8233   2.262   1.691   3.450
 2051SOL    HW2 8234   2.258   1.702   3.545
 2051SOL    HW3 8235   2.334   1.629   3.436
 2051SOL    MW4 8236   2.271   1.684   3.461
 2052SOL     OW 8237   2.182   1.922   3.321
 2052SOL    HW2 8238   2.209   1.833   3.344
 2052SOL    HW3 8239   2.186   1.925   3.226
 2052SOL    MW4 8240   2.186   1.911   3.311
 2053SOL     OW 8241   2.413   2.039   3.417
 2053SOL    HW2 8242   2.415   2.044   3.512
 2053SOL    HW3 8243   2.336   1.986   3.397
 2053SOL    MW4 8244   2.403   2.033   3.427
 2054SOL     OW 8245   2.368   2.288   3.314
 2054SOL    HW2 8246   2.438   2.322   3.370
 2054SOL    HW3 8247   2.366   2.194   3.332
 2054SOL    MW4 8248   2.377   2.280   3.323
 2055SOL     OW 8249   2.160   2.481   3.431
 2055SOL    HW2 8250   2.198   2.567   3.417
 2055SOL    HW3 8251   2.216   2.422   3.380
 2055SOL    MW4 8252   2.173   2.484   3.422
 2056SOL     OW 8253   2.235   2.737   3.369
 2056SOL    HW2 8254   2.155   2.775   3.406
 2056SOL    HW3 8255   2.214   2.724   3.276
 2056SOL    MW4 8256   2.221   2.741   3.361
 2057SOL     OW 8257   2.473   2.816   3.482
 2057SOL    HW2 8258   2.481   2.904   3.446
 2057SOL    HW3 8259   2.384   2.788   3.461
 2057SOL    MW4 8260   2.463   2.824   3.475
 2058SOL     OW 8261   2.456   3.076   3.395
 2058SOL    HW2 8262   2.529   3.128   3.429
 2058SOL    HW3 8263   2.468   3.078   3.300
 2058SOL    MW4 8264   2.467   3.083   3.387
 2059SOL     OW 8265   2.255   3.248   3.468
 2059SOL    HW2 8266   2.251   3.241   3.563
 2059SOL    HW3 8267   2.315   3.178   3.441
 2059SOL    MW4 8268   2.262   3.238   3.477
 2060SOL     OW 8269   2.236   3.492   3.343
 2060SOL    HW2 8270   2.254   3.404   3.377
 2060SOL    HW3 8271   2.236   3.481   3.248
 2060SOL    MW4 8272   2.239   3.479   3.335
 2061SOL     OW 8273   2.466   3.601   3.456
 2061SOL    HW2 8274   2.467   3.691   3.422
 2061SOL    HW3 8275   2.389   3.561   3.417
 2061SOL    MW4 8276   2.456   3.608   3.447
 2062SOL     OW 8277   2.435   3.854   3.360
 2062SOL    HW2 8278   2.505   3.915   3.383
 2062SOL    HW3 8279   2.361   3.880   3.414
 2062SOL    MW4 8280   2.434   3.866   3.370
 2063SOL     OW 8281   2.226   3.966   3.523
 2063SOL    HW2 8282   2.228   4.053   3.482
 2063SOL    HW3 8283   2.145   3.927   3.490
 2063SOL    MW4 8284   2.216   3.973   3.513
 2064SOL     OW 8285   2.235   4.224   3.414
 2064SOL    HW2 8286   2.163   4.287   3.419
 2064SOL    HW3 8287   2.246   4.208   3.320
 2064SOL    MW4 8288   2.227   4.230   3.402
 2065SOL     OW 8289   2.447   4.396   3.500
 2065SOL    HW2 8290   2.453   4.384   3.595
 2065SOL    HW3 8291   2.381   4.332   3.472
 2065SOL    MW4 8292   2.439   4.386   3.509
 2066SOL     OW 8293   2.939   4.651   3.391
 2066SOL    HW2 8294   2.862   4.698   3.423
 2066SOL    HW3 8295   2.930   4.652   3.296
 2066SOL    MW4 8296   2.928   4.658   3.383
 2067SOL     OW 8297   2.719   0.113   3.466
 2067SOL    HW2 8298   2.722   0.204   3.438
 2067SOL    HW3 8299   2.626   0.092   3.471
 2067SOL    MW4 8300   2.707   0.122   3.463
 2068SOL     OW 8301   2.697   0.375   3.392
 2068SOL    HW2 8302   2.777   0.419   3.421
 2068SOL    HW3 8303   2.696   0.388   3.297
 2068SOL    MW4 8304   2.707   0.382   3.383
 2069SOL     OW 8305   2.931   0.475   3.500
 2069SOL    HW2 8306   2.931   0.471   3.596
 2069SOL    HW3 8307   2.936   0.568   3.480
 2069SOL    MW4 8308   2.932   0.486   3.510
 2070SOL     OW 8309   2.945   0.760   3.384
 2070SOL    HW2 8310   3.022   0.801   3.424
 2070SOL    HW3 8311   2.870   0.808   3.421
 2070SOL    MW4 8312   2.945   0.772   3.394
 2071SOL     OW 8313   2.691   0.849   3.511
 2071SOL    HW2 8314   2.685   0.844   3.606
 2071SOL    HW3 8315   2.686   0.943   3.491
 2071SOL    MW4 8316   2.689   0.861   3.521
 2072SOL     OW 8317   2.679   1.128   3.404
 2072SOL    HW2 8318   2.755   1.184   3.422
 2072SOL    HW3 8319   2.679   1.118   3.309
 2072SOL    MW4 8320   2.689   1.134   3.394
 2073SOL     OW 8321   2.910   1.272   3.468
 2073SOL    HW2 8322   2.913   1.249   3.561
 2073SOL    HW3 8323   2.999   1.257   3.437
 2073SOL    MW4 8324   2.922   1.267   3.476
 2074SOL     OW 8325   2.908   1.544   3.372
 2074SOL    HW2 8326   2.826   1.588   3.394
 2074SOL    HW3 8327   2.897   1.454   3.402
 2074SOL    MW4 8328   2.896   1.538   3.379
 2075SOL     OW 8329   2.686   1.661   3.473
 2075SOL    HW2 8330   2.674   1.750   3.440
 2075SOL    HW3 8331   2.606   1.615   3.446
 2075SOL    MW4 8332   2.674   1.666   3.465
 2076SOL     OW 8333   2.663   1.921   3.362
 2076SOL    HW2 8334   2.576   1.944   3.394
 2076SOL    HW3 8335   2.653   1.911   3.268
 2076SOL    MW4 8336   2.650   1.923   3.354
 2077SOL     OW 8337   2.886   2.059   3.432
 2077SOL    HW2 8338   2.862   2.064   3.525
 2077SOL    HW3 8339   2.808   2.023   3.390
 2077SOL    MW4 8340   2.872   2.055   3.439
 2078SOL     OW 8341   2.869   2.310   3.346
 2078SOL    HW2 8342   2.881   2.217   3.365
 2078SOL    HW3 8343   2.885   2.318   3.252
 2078SOL    MW4 8344   2.873   2.299   3.336
 2079SOL     OW 8345   2.610   2.417   3.409
 2079SOL    HW2 8346   2.629   2.432   3.502
 2079SOL    HW3 8347   2.692   2.383   3.373
 2079SOL    MW4 8348   2.623   2.414   3.417
 2080SOL     OW 8349   2.665   2.691   3.355
 2080SOL    HW2 8350   2.647   2.601   3.380
 2080SOL    HW3 8351   2.592   2.742   3.391
 2080SOL    MW4 8352   2.653   2.686   3.363
 2081SOL     OW 8353   2.895   2.836   3.464
 2081SOL    HW2 8354   2.890   2.827   3.559
 2081SOL    HW3 8355   2.818   2.791   3.431
 2081SOL    MW4 8356   2.884   2.829   3.472
 2082SOL     OW 8357   2.907   3.088   3.367
 2082SOL    HW2 8358   2.916   2.998   3.399
 2082SOL    HW3 8359   2.912   3.079   3.271
 2082SOL    MW4 8360   2.909   3.075   3.358
 2083SOL     OW 8361   2.675   3.213   3.468
 2083SOL    HW2 8362   2.676   3.203   3.563
 2083SOL    HW3 8363   2.744   3.154   3.437
 2083SOL    MW4 8364   2.685   3.204   3.476
 2084SOL     OW 8365   2.698   3.474   3.363
 2084SOL    HW2 8366   2.696   3.396   3.419
 2084SOL    HW3 8367   2.622   3.525   3.391
 2084SOL    MW4 8368   2.688   3.470   3.374
 2085SOL     OW 8369   2.920   3.622   3.457
 2085SOL    HW2 8370   2.916   3.701   3.403
 2085SOL    HW3 8371   2.846   3.569   3.427
 2085SOL    MW4 8372   2.910   3.626   3.446
 2086SOL     OW 8373   2.906   3.864   3.321
 2086SOL    HW2 8374   2.978   3.913   3.359
 2086SOL    HW3 8375   2.827   3.911   3.349
 2086SOL    MW4 8376   2.905   3.877   3.329
 2087SOL     OW 8377   2.658   4.007   3.424
 2087SOL    HW2 8378   2.648   4.001   3.519
 2087SOL    HW3 8379   2.665   4.101   3.407
 2087SOL    MW4 8380   2.658   4.019   3.435
 2088SOL     OW 8381   2.687   4.278   3.406
 2088SOL    HW2 8382   2.768   4.323   3.431
 2088SOL    HW3 8383   2.617   4.335   3.436
 2088SOL    MW4 8384   2.689   4.291   3.413
 2089SOL     OW 8385   2.939   4.363   3.490
 2089SOL    HW2 8386   2.940   4.341   3.583
 2089SOL    HW3 8387   2.943   4.458   3.487
 2089SOL    MW4 8388   2.939   4.372   3.502
 2090SOL     OW 8389   3.426   4.632   3.393
 2090SOL    HW2 8390   3.341   4.658   3.426
 2090SOL    HW3 8391   3.413   4.618   3.299
 2090SOL    MW4 8392   3.413   4.633   3.385
 2091SOL     OW 8393   3.185   0.052   3.478
 2091SOL    HW2 8394   3.188   0.146   3.458
 2091SOL    HW3 8395   3.100   0.024   3.444
 2091SOL    MW4 8396   3.174   0.061   3.471
 2092SOL     OW 8397   3.150   0.326   3.383
 2092SOL    HW2 8398   3.086   0.389   3.417
 2092SOL    HW3 8399   3.156   0.348   3.290
 2092SOL    MW4 8400   3.142   0.337   3.375
 2093SOL     OW 8401   3.392   0.474   3.441
 2093SOL    HW2 8402   3.391   0.489   3.535
 2093SOL    HW3 8403   3.310   0.428   3.423
 2093SOL    MW4 8404   3.381   0.470   3.451
 2094SOL     OW 8405   3.371   0.743   3.392
 2094SOL    HW2 8406   3.437   0.783   3.448
 2094SOL    HW3 8407   3.386   0.649   3.399
 2094SOL    MW4 8408   3.382   0.736   3.400
 2095SOL     OW 8409   3.159   0.902   3.517
 2095SOL    HW2 8410   3.158   0.986   3.472
 2095SOL    HW3 8411   3.230   0.853   3.476
 2095SOL    MW4 8412   3.168   0.906   3.506
 2096SOL     OW 8413   3.135   1.162   3.375
 2096SOL    HW2 8414   3.219   1.192   3.411
 2096SOL    HW3 8415   3.147   1.168   3.281
 2096SOL    MW4 8416   3.148   1.167   3.368
 2097SOL     OW 8417   3.362   1.266   3.513
 2097SOL    HW2 8418   3.442   1.223   3.484
 2097SOL    HW3 8419   3.374   1.358   3.491
 2097SOL    MW4 8420   3.374   1.272   3.507
 2098SOL     OW 8421   3.358   1.524   3.404
 2098SOL    HW2 8422   3.436   1.565   3.440
 2098SOL    HW3 8423   3.285   1.579   3.433
 2098SOL    MW4 8424   3.359   1.536   3.412
 2099SOL     OW 8425   3.136   1.684   3.470
 2099SOL    HW2 8426   3.124   1.776   3.446
 2099SOL    HW3 8427   3.060   1.639   3.432
 2099SOL    MW4 8428   3.124   1.690   3.462
 2100SOL     OW 8429   3.147   1.969   3.361
 2100SOL    HW2 8430   3.061   2.007   3.381
 2100SOL    HW3 8431   3.145   1.953   3.267
 2100SOL    MW4 8432   3.135   1.972   3.351
 2101SOL     OW 8433   3.352   2.102   3.450
 2101SOL    HW2 8434   3.345   2.196   3.432
 2101SOL    HW3 8435   3.268   2.066   3.424
 2101SOL    MW4 8436   3.340   2.110   3.444
 2102SOL     OW 8437   3.298   2.375   3.409
 2102SOL    HW2 8438   3.370   2.407   3.464
 2102SOL    HW3 8439   3.219   2.407   3.452
 2102SOL    MW4 8440   3.297   2.383   3.422
 2103SOL     OW 8441   3.050   2.464   3.495
 2103SOL    HW2 8442   3.049   2.545   3.444
 2103SOL    HW3 8443   2.986   2.408   3.452
 2103SOL    MW4 8444   3.042   2.467   3.483
 2104SOL     OW 8445   3.141   2.718   3.374
 2104SOL    HW2 8446   3.211   2.752   3.429
 2104SOL    HW3 8447   3.065   2.773   3.395
 2104SOL    MW4 8448   3.140   2.730   3.384
 2105SOL     OW 8449   3.382   2.808   3.511
 2105SOL    HW2 8450   3.452   2.760   3.467
 2105SOL    HW3 8451   3.386   2.896   3.473
 2105SOL    MW4 8452   3.392   2.814   3.501
 2106SOL     OW 8453   3.348   3.057   3.377
 2106SOL    HW2 8454   3.416   3.102   3.426
 2106SOL    HW3 8455   3.266   3.097   3.406
 2106SOL    MW4 8456   3.346   3.068   3.387
 2107SOL     OW 8457   3.120   3.186   3.505
 2107SOL    HW2 8458   3.122   3.278   3.477
 2107SOL    HW3 8459   3.046   3.148   3.458
 2107SOL    MW4 8460   3.111   3.193   3.495
 2108SOL     OW 8461   3.125   3.448   3.368
 2108SOL    HW2 8462   3.056   3.498   3.413
 2108SOL    HW3 8463   3.122   3.480   3.278
 2108SOL    MW4 8464   3.115   3.459   3.362
 2109SOL     OW 8465   3.354   3.558   3.495
 2109SOL    HW2 8466   3.359   3.649   3.466
 2109SOL    HW3 8467   3.283   3.520   3.444
 2109SOL    MW4 8468   3.345   3.565   3.485
 2110SOL     OW 8469   3.373   3.822   3.403
 2110SOL    HW2 8470   3.447   3.880   3.420
 2110SOL    HW3 8471   3.296   3.880   3.403
 2110SOL    MW4 8472   3.372   3.837   3.405
 2111SOL     OW 8473   3.162   3.999   3.382
 2111SOL    HW2 8474   3.152   4.009   3.477
 2111SOL    HW3 8475   3.168   4.088   3.349
 2111SOL    MW4 8476   3.161   4.012   3.390
 2112SOL     OW 8477   3.161   4.277   3.319
 2112SOL    HW2 8478   3.237   4.311   3.366
 2112SOL    HW3 8479   3.086   4.312   3.365
 2112SOL    MW4 8480   3.161   4.286   3.331
 2113SOL     OW 8481   3.387   4.371   3.472
 2113SOL    HW2 8482   3.380   4.367   3.568
 2113SOL    HW3 8483   3.410   4.462   3.454
 2113SOL    MW4 8484   3.389   4.383   3.483
 2114SOL     OW 8485   3.887   4.606   3.388
 2114SOL    HW2 8486   3.808   4.649   3.420
 2114SOL    HW3 8487   3.885   4.619   3.294
 2114SOL    MW4 8488   3.876   4.613   3.380
 2115SOL     OW 8489   3.655   0.075   3.486
 2115SOL    HW2 8490   3.648   0.166   3.455
 2115SOL    HW3 8491   3.576   0.033   3.453
 2115SOL    MW4 8492   3.644   0.082   3.477
 2116SOL     OW 8493   3.629   0.329   3.394
 2116SOL    HW2 8494   3.687   0.395   3.432
 2116SOL    HW3 8495   3.541   0.358   3.417
 2116SOL    MW4 8496   3.625   0.341   3.402
 2117SOL     OW 8497   3.813   0.509   3.518
 2117SOL    HW2 8498   3.811   0.509   3.614
 2117SOL    HW3 8499   3.876   0.440   3.495
 2117SOL    MW4 8500   3.821   0.500   3.528
 2118SOL     OW 8501   3.827   0.779   3.433
 2118SOL    HW2 8502   3.903   0.834   3.446
 2118SOL    HW3 8503   3.857   0.690   3.454
 2118SOL    MW4 8504   3.841   0.774   3.438
 2119SOL     OW 8505   3.582   0.879   3.527
 2119SOL    HW2 8506   3.581   0.901   3.620
 2119SOL    HW3 8507   3.667   0.835   3.514
 2119SOL    MW4 8508   3.593   0.876   3.537
 2120SOL     OW 8509   3.602   1.140   3.419
 2120SOL    HW2 8510   3.602   1.047   3.444
 2120SOL    HW3 8511   3.601   1.139   3.324
 2120SOL    MW4 8512   3.602   1.128   3.410
 2121SOL     OW 8513   3.814   1.299   3.490
 2121SOL    HW2 8514   3.813   1.293   3.585
 2121SOL    HW3 8515   3.734   1.254   3.462
 2121SOL    MW4 8516   3.803   1.292   3.499
 2122SOL     OW 8517   3.828   1.560   3.376
 2122SOL    HW2 8518   3.905   1.587   3.426
 2122SOL    HW3 8519   3.804   1.474   3.412
 2122SOL    MW4 8520   3.835   1.552   3.388
 2123SOL     OW 8521   3.591   1.658   3.488
 2123SOL    HW2 8522   3.571   1.749   3.467
 2123SOL    HW3 8523   3.674   1.641   3.444
 2123SOL    MW4 8524   3.599   1.668   3.479
 2124SOL     OW 8525   3.539   1.916   3.403
 2124SOL    HW2 8526   3.620   1.955   3.435
 2124SOL    HW3 8527   3.473   1.984   3.413
 2124SOL    MW4 8528   3.541   1.930   3.409
 2125SOL     OW 8529   3.790   2.051   3.452
 2125SOL    HW2 8530   3.790   2.055   3.548
 2125SOL    HW3 8531   3.871   2.005   3.430
 2125SOL    MW4 8532   3.801   2.045   3.462
 2126SOL     OW 8533   3.784   2.311   3.374
 2126SOL    HW2 8534   3.858   2.342   3.426
 2126SOL    HW3 8535   3.776   2.218   3.398
 2126SOL    MW4 8536   3.793   2.303   3.384
 2127SOL     OW 8537   3.563   2.447   3.474
 2127SOL    HW2 8538   3.562   2.526   3.420
 2127SOL    HW3 8539   3.632   2.392   3.435
 2127SOL    MW4 8540   3.572   2.450   3.462
 2128SOL     OW 8541   3.578   2.697   3.364
 2128SOL    HW2 8542   3.666   2.717   3.395
 2128SOL    HW3 8543   3.574   2.732   3.275
 2128SOL    MW4 8544   3.589   2.704   3.356
 2129SOL     OW 8545   3.815   2.790   3.478
 2129SOL    HW2 8546   3.796   2.798   3.571
 2129SOL    HW3 8547   3.808   2.880   3.445
 2129SOL    MW4 8548   3.812   2.803   3.486
 2130SOL     OW 8549   3.796   3.064   3.383
 2130SOL    HW2 8550   3.878   3.095   3.422
 2130SOL    HW3 8551   3.795   3.101   3.295
 2130SOL    MW4 8552   3.807   3.073   3.377
 2131SOL     OW 8553   3.575   3.197   3.465
 2131SOL    HW2 8554   3.595   3.286   3.437
 2131SOL    HW3 8555   3.651   3.146   3.438
 2131SOL    MW4 8556   3.588   3.202   3.458
 2132SOL     OW 8557   3.605   3.453   3.381
 2132SOL    HW2 8558   3.524   3.503   3.395
 2132SOL    HW3 8559   3.622   3.461   3.288
 2132SOL    MW4 8560   3.597   3.461   3.371
 2133SOL     OW 8561   3.822   3.595   3.491
 2133SOL    HW2 8562   3.820   3.607   3.586
 2133SOL    HW3 8563   3.747   3.539   3.472
 2133SOL    MW4 8564   3.812   3.589   3.501
 2134SOL     OW 8565   3.821   3.859   3.379
 2134SOL    HW2 8566   3.738   3.897   3.407
 2134SOL    HW3 8567   3.811   3.765   3.396
 2134SOL    MW4 8568   3.809   3.851   3.385
 2135SOL     OW 8569   3.574   3.990   3.465
 2135SOL    HW2 8570   3.582   3.992   3.560
 2135SOL    HW3 8571   3.584   4.081   3.438
 2135SOL    MW4 8572   3.576   4.002   3.474
 2136SOL     OW 8573   3.612   4.255   3.381
 2136SOL    HW2 8574   3.532   4.286   3.425
 2136SOL    HW3 8575   3.587   4.246   3.289
 2136SOL    MW4 8576   3.598   4.258   3.375
 2137SOL     OW 8577   3.833   4.369   3.506
 2137SOL    HW2 8578   3.755   4.329   3.467
 2137SOL    HW3 8579   3.846   4.450   3.457
 2137SOL    MW4 8580   3.824   4.374   3.494
 2138SOL     OW 8581   4.285   4.646   3.376
 2138SOL    HW2 8582   4.283   4.560   3.417
 2138SOL    HW3 8583   4.358   4.691   3.419
 2138SOL    MW4 8584   4.294   4.641   3.387
 2139SOL     OW 8585   4.072   0.077   3.518
 2139SOL    HW2 8586   4.156   0.060   3.475
 2139SOL    HW3 8587   4.009   0.025   3.469
 2139SOL    MW4 8588   4.075   0.068   3.506
 2140SOL     OW 8589   4.020   0.346   3.438
 2140SOL    HW2 8590   4.042   0.260   3.475
 2140SOL    HW3 8591   4.047   0.340   3.347
 2140SOL    MW4 8592   4.026   0.334   3.431
 2141SOL     OW 8593   4.269   0.494   3.481
 2141SOL    HW2 8594   4.268   0.589   3.468
 2141SOL    HW3 8595   4.179   0.466   3.460
 2141SOL    MW4 8596   4.257   0.503   3.477
 2142SOL     OW 8597   4.263   0.801   3.444
 2142SOL    HW2 8598   4.355   0.817   3.466
 2142SOL    HW3 8599   4.260   0.799   3.349
 2142SOL    MW4 8600   4.274   0.803   3.435
 2143SOL     OW 8601   4.028   0.941   3.497
 2143SOL    HW2 8602   4.028   1.028   3.457
 2143SOL    HW3 8603   4.111   0.902   3.468
 2143SOL    MW4 8604   4.039   0.947   3.488
 2144SOL     OW 8605   4.043   1.192   3.374
 2144SOL    HW2 8606   4.124   1.217   3.417
 2144SOL    HW3 8607   3.974   1.236   3.425
 2144SOL    MW4 8608   4.044   1.201   3.386
 2145SOL     OW 8609   4.274   1.311   3.512
 2145SOL    HW2 8610   4.296   1.389   3.462
 2145SOL    HW3 8611   4.337   1.245   3.484
 2145SOL    MW4 8612   4.285   1.312   3.502
 2146SOL     OW 8613   4.277   1.556   3.364
 2146SOL    HW2 8614   4.207   1.607   3.404
 2146SOL    HW3 8615   4.268   1.574   3.270
 2146SOL    MW4 8616   4.266   1.565   3.357
 2147SOL     OW 8617   4.068   1.670   3.501
 2147SOL    HW2 8618   4.051   1.681   3.595
 2147SOL    HW3 8619   4.047   1.756   3.463
 2147SOL    MW4 8620   4.063   1.683   3.508
 2148SOL     OW 8621   4.033   1.916   3.397
 2148SOL    HW2 8622   4.114   1.952   3.434
 2148SOL    HW3 8623   4.042   1.929   3.303
 2148SOL    MW4 8624   4.045   1.923   3.390
 2149SOL     OW 8625   4.272   2.037   3.509
 2149SOL    HW2 8626   4.254   2.120   3.464
 2149SOL    HW3 8627   4.353   2.005   3.468
 2149SOL    MW4 8628   4.280   2.044   3.497
 2150SOL     OW 8629   4.246   2.290   3.382
 2150SOL    HW2 8630   4.169   2.341   3.408
 2150SOL    HW3 8631   4.239   2.283   3.287
 2150SOL    MW4 8632   4.235   2.296   3.373
 2151SOL     OW 8633   4.010   2.410   3.494
 2151SOL    HW2 8634   4.040   2.401   3.584
 2151SOL    HW3 8635   4.021   2.503   3.474
 2151SOL    MW4 8636   4.016   2.421   3.503
 2152SOL     OW 8637   4.054   2.672   3.403
 2152SOL    HW2 8638   4.132   2.725   3.421
 2152SOL    HW3 8639   3.981   2.724   3.435
 2152SOL    MW4 8640   4.055   2.686   3.410
 2153SOL     OW 8641   4.240   2.836   3.483
 2153SOL    HW2 8642   4.232   2.851   3.577
 2153SOL    HW3 8643   4.319   2.782   3.475
 2153SOL    MW4 8644   4.249   2.830   3.495
 2154SOL     OW 8645   4.303   3.097   3.422
 2154SOL    HW2 8646   4.276   3.006   3.433
 2154SOL    HW3 8647   4.296   3.113   3.328
 2154SOL    MW4 8648   4.298   3.088   3.411
 2155SOL     OW 8649   4.031   3.174   3.493
 2155SOL    HW2 8650   4.026   3.250   3.435
 2155SOL    HW3 8651   4.121   3.143   3.484
 2155SOL    MW4 8652   4.042   3.180   3.484
 2156SOL     OW 8653   4.020   3.420   3.371
 2156SOL    HW2 8654   4.092   3.473   3.406
 2156SOL    HW3 8655   3.941   3.463   3.404
 2156SOL    MW4 8656   4.019   3.433   3.380
 2157SOL     OW 8657   4.211   3.596   3.475
 2157SOL    HW2 8658   4.240   3.583   3.565
 2157SOL    HW3 8659   4.230   3.687   3.456
 2157SOL    MW4 8660   4.217   3.606   3.484
 2158SOL     OW 8661   4.268   3.842   3.386
 2158SOL    HW2 8662   4.338   3.883   3.438
 2158SOL    HW3 8663   4.285   3.871   3.296
 2158SOL    MW4 8664   4.280   3.851   3.381
 2159SOL     OW 8665   4.045   3.980   3.509
 2159SOL    HW2 8666   4.119   3.931   3.474
 2159SOL    HW3 8667   3.968   3.931   3.480
 2159SOL    MW4 8668   4.044   3.967   3.500
 2160SOL     OW 8669   4.046   4.237   3.398
 2160SOL    HW2 8670   4.050   4.146   3.427
 2160SOL    HW3 8671   3.965   4.271   3.435
 2160SOL    MW4 8672   4.036   4.230   3.406
 2161SOL     OW 8673   4.268   4.382   3.479
 2161SOL    HW2 8674   4.280   4.377   3.574
 2161SOL    HW3 8675   4.190   4.329   3.462
 2161SOL    MW4 8676   4.259   4.374   3.489
 2162SOL     OW 8677   0.221   4.652   3.860
 2162SOL    HW2 8678   0.223   4.650   3.956
 2162SOL    HW3 8679   0.137   4.691   3.838
 2162SOL    MW4 8680   0.210   4.657   3.870
 2163SOL     OW 8681   4.462   0.114   3.770
 2163SOL    HW2 8682   4.474   0.201   3.807
 2163SOL    HW3 8683   4.476   0.125   3.676
 2163SOL    MW4 8684   4.466   0.127   3.762
 2164SOL     OW 8685   0.006   0.364   3.853
 2164SOL    HW2 8686  -0.074   0.414   3.835
 2164SOL    HW3 8687   0.076   0.428   3.851
 2164SOL    MW4 8688   0.004   0.379   3.850
 2165SOL     OW 8689   0.235   0.507   3.786
 2165SOL    HW2 8690   0.231   0.593   3.828
 2165SOL    HW3 8691   0.231   0.526   3.692
 2165SOL    MW4 8692   0.234   0.521   3.779
 2166SOL     OW 8693   0.207   0.761   3.889
 2166SOL    HW2 8694   0.203   0.767   3.984
 2166SOL    HW3 8695   0.126   0.802   3.858
 2166SOL    MW4 8696   0.195   0.767   3.897
 2167SOL     OW 8697   4.488   0.898   3.788
 2167SOL    HW2 8698   4.405   0.856   3.809
 2167SOL    HW3 8699   4.484   0.982   3.835
 2167SOL    MW4 8700   4.477   0.904   3.797
 2168SOL     OW 8701   4.484   1.155   3.893
 2168SOL    HW2 8702   4.416   1.209   3.854
 2168SOL    HW3 8703   4.565   1.183   3.849
 2168SOL    MW4 8704   4.486   1.166   3.882
 2169SOL     OW 8705   0.233   1.247   3.786
 2169SOL    HW2 8706   0.222   1.338   3.814
 2169SOL    HW3 8707   0.212   1.247   3.693
 2169SOL    MW4 8708   0.229   1.259   3.778
 2170SOL     OW 8709   0.213   1.522   3.857
 2170SOL    HW2 8710   0.235   1.520   3.950
 2170SOL    HW3 8711   0.142   1.586   3.850
 2170SOL    MW4 8712   0.207   1.530   3.868
 2171SOL     OW 8713   4.490   1.676   3.774
 2171SOL    HW2 8714   4.509   1.765   3.805
 2171SOL    HW3 8715   4.500   1.681   3.679
 2171SOL    MW4 8716   4.494   1.688   3.766
 2172SOL     OW 8717   0.026   1.925   3.874
 2172SOL    HW2 8718   0.014   1.929   3.969
 2172SOL    HW3 8719  -0.057   1.956   3.837
 2172SOL    MW4 8720   0.014   1.930   3.882
 2173SOL     OW 8721   0.257   2.038   3.763
 2173SOL    HW2 8722   0.249   2.132   3.782
 2173SOL    HW3 8723   0.176   2.000   3.799
 2173SOL    MW4 8724   0.245   2.046   3.770
 2174SOL     OW 8725   0.234   2.306   3.823
 2174SOL    HW2 8726   0.237   2.322   3.918
 2174SOL    HW3 8727   0.150   2.344   3.796
 2174SOL    MW4 8728   0.223   2.313   3.832
 2175SOL     OW 8729   0.006   2.429   3.728
 2175SOL    HW2 8730  -0.070   2.388   3.769
 2175SOL    HW3 8731  -0.004   2.522   3.747
 2175SOL    MW4 8732  -0.005   2.436   3.736
 2176SOL     OW 8733   4.477   2.678   3.819
 2176SOL    HW2 8734   4.468   2.686   3.914
 2176SOL    HW3 8735   4.547   2.740   3.796
 2176SOL    MW4 8736   4.485   2.687   3.828
 2177SOL     OW 8737   0.178   2.860   3.745
 2177SOL    HW2 8738   0.256   2.809   3.769
 2177SOL    HW3 8739   0.177   2.858   3.649
 2177SOL    MW4 8740   0.188   2.853   3.735
 2178SOL     OW 8741   0.195   3.099   3.879
 2178SOL    HW2 8742   0.214   3.082   3.971
 2178SOL    HW3 8743   0.191   3.013   3.839
 2178SOL    MW4 8744   0.197   3.085   3.886
 2179SOL     OW 8745   4.456   3.241   3.816
 2179SOL    HW2 8746   4.528   3.185   3.845
 2179SOL    HW3 8747   4.467   3.247   3.721
 2179SOL    MW4 8748   4.467   3.234   3.807
 2180SOL     OW 8749   4.459   3.513   3.896
 2180SOL    HW2 8750   4.517   3.564   3.839
 2180SOL    HW3 8751   4.446   3.431   3.849
 2180SOL    MW4 8752   4.465   3.509   3.883
 2181SOL     OW 8753   0.166   3.634   3.750
 2181SOL    HW2 8754   0.241   3.590   3.790
 2181SOL    HW3 8755   0.162   3.719   3.795
 2181SOL    MW4 8756   0.176   3.640   3.761
 2182SOL     OW 8757   0.193   3.881   3.881
 2182SOL    HW2 8758   0.170   3.922   3.964
 2182SOL    HW3 8759   0.275   3.923   3.855
 2182SOL    MW4 8760   0.201   3.892   3.888
 2183SOL     OW 8761   4.480   4.004   3.762
 2183SOL    HW2 8762   4.412   3.938   3.771
 2183SOL    HW3 8763   4.554   3.970   3.812
 2183SOL    MW4 8764   4.480   3.991   3.770
 2184SOL     OW 8765   4.476   4.242   3.905
 2184SOL    HW2 8766   4.555   4.285   3.870
 2184SOL    HW3 8767   4.473   4.158   3.858
 2184SOL    MW4 8768   4.486   4.236   3.894
 2185SOL     OW 8769   0.194   4.375   3.794
 2185SOL    HW2 8770   0.278   4.348   3.831
 2185SOL    HW3 8771   0.191   4.470   3.807
 2185SOL    MW4 8772   0.205   4.384   3.800
 2186SOL     OW 8773   0.688   0.011   3.898
 2186SOL    HW2 8774   0.688  -0.079   3.865
 2186SOL    HW3 8775   0.619   0.054   3.849
 2186SOL    MW4 8776   0.679   0.005   3.887
 2187SOL     OW 8777   0.472   0.116   3.767
 2187SOL    HW2 8778   0.468   0.201   3.810
 2187SOL    HW3 8779   0.397   0.068   3.800
 2187SOL    MW4 8780   0.462   0.121   3.777
 2188SOL     OW 8781   0.475   0.375   3.874
 2188SOL    HW2 8782   0.533   0.435   3.826
 2188SOL    HW3 8783   0.387   0.407   3.855
 2188SOL    MW4 8784   0.471   0.387   3.865
 2189SOL     OW 8785   0.689   0.516   3.725
 2189SOL    HW2 8786   0.778   0.497   3.756
 2189SOL    HW3 8787   0.666   0.598   3.767
 2189SOL    MW4 8788   0.698   0.524   3.734
 2190SOL     OW 8789   0.658   0.764   3.863
 2190SOL    HW2 8790   0.729   0.816   3.826
 2190SOL    HW3 8791   0.580   0.818   3.852
 2190SOL    MW4 8792   0.657   0.778   3.857
 2191SOL     OW 8793   0.424   0.886   3.770
 2191SOL    HW2 8794   0.429   0.972   3.810
 2191SOL    HW3 8795   0.355   0.841   3.819
 2191SOL    MW4 8796   0.416   0.891   3.782
 2192SOL     OW 8797   0.481   1.142   3.856
 2192SOL    HW2 8798   0.560   1.171   3.811
 2192SOL    HW3 8799   0.409   1.187   3.810
 2192SOL    MW4 8800   0.482   1.152   3.844
 2193SOL     OW 8801   0.687   1.264   3.725
 2193SOL    HW2 8802   0.770   1.242   3.767
 2193SOL    HW3 8803   0.701   1.244   3.632
 2193SOL    MW4 8804   0.700   1.258   3.718
 2194SOL     OW 8805   0.676   1.536   3.820
 2194SOL    HW2 8806   0.743   1.591   3.779
 2194SOL    HW3 8807   0.698   1.447   3.793
 2194SOL    MW4 8808   0.688   1.531   3.811
 2195SOL     OW 8809   0.438   1.660   3.770
 2195SOL    HW2 8810   0.509   1.598   3.788
 2195SOL    HW3 8811   0.358   1.609   3.788
 2195SOL    MW4 8812   0.437   1.645   3.775
 2196SOL     OW 8813   0.471   1.904   3.867
 2196SOL    HW2 8814   0.464   1.815   3.834
 2196SOL    HW3 8815   0.390   1.947   3.838
 2196SOL    MW4 8816   0.459   1.898   3.859
 2197SOL     OW 8817   0.621   2.105   3.730
 2197SOL    HW2 8818   0.653   2.174   3.787
 2197SOL    HW3 8819   0.580   2.042   3.789
 2197SOL    MW4 8820   0.620   2.106   3.745
 2198SOL     OW 8821   0.670   2.341   3.884
 2198SOL    HW2 8822   0.748   2.381   3.844
 2198SOL    HW3 8823   0.597   2.386   3.843
 2198SOL    MW4 8824   0.671   2.352   3.873
 2199SOL     OW 8825   0.434   2.476   3.758
 2199SOL    HW2 8826   0.353   2.427   3.772
 2199SOL    HW3 8827   0.439   2.487   3.663
 2199SOL    MW4 8828   0.424   2.471   3.747
 2200SOL     OW 8829   0.412   2.728   3.851
 2200SOL    HW2 8830   0.489   2.779   3.824
 2200SOL    HW3 8831   0.429   2.640   3.820
 2200SOL    MW4 8832   0.424   2.723   3.843
 2201SOL     OW 8833   0.648   2.853   3.798
 2201SOL    HW2 8834   0.727   2.806   3.823
 2201SOL    HW3 8835   0.650   2.855   3.703
 2201SOL    MW4 8836   0.658   2.847   3.789
 2202SOL     OW 8837   0.658   3.126   3.900
 2202SOL    HW2 8838   0.645   3.127   3.995
 2202SOL    HW3 8839   0.653   3.033   3.877
 2202SOL    MW4 8840   0.655   3.114   3.910
 2203SOL     OW 8841   0.422   3.254   3.786
 2203SOL    HW2 8842   0.503   3.210   3.813
 2203SOL    HW3 8843   0.352   3.196   3.816
 2203SOL    MW4 8844   0.424   3.241   3.794
 2204SOL     OW 8845   0.384   3.506   3.908
 2204SOL    HW2 8846   0.460   3.545   3.864
 2204SOL    HW3 8847   0.384   3.415   3.879
 2204SOL    MW4 8848   0.394   3.499   3.898
 2205SOL     OW 8849   0.597   3.646   3.784
 2205SOL    HW2 8850   0.617   3.737   3.808
 2205SOL    HW3 8851   0.618   3.641   3.691
 2205SOL    MW4 8852   0.602   3.657   3.775
 2206SOL     OW 8853   0.650   3.896   3.897
 2206SOL    HW2 8854   0.665   3.896   3.991
 2206SOL    HW3 8855   0.734   3.924   3.859
 2206SOL    MW4 8856   0.663   3.900   3.904
 2207SOL     OW 8857   0.414   4.028   3.791
 2207SOL    HW2 8858   0.492   3.984   3.826
 2207SOL    HW3 8859   0.420   4.015   3.697
 2207SOL    MW4 8860   0.425   4.020   3.783
 2208SOL     OW 8861   0.422   4.282   3.905
 2208SOL    HW2 8862   0.487   4.334   3.858
 2208SOL    HW3 8863   0.424   4.196   3.863
 2208SOL    MW4 8864   0.431   4.277   3.893
 2209SOL     OW 8865   0.628   4.426   3.790
 2209SOL    HW2 8866   0.690   4.360   3.821
 2209SOL    HW3 8867   0.643   4.429   3.695
 2209SOL    MW4 8868   0.638   4.418   3.781
 2210SOL     OW 8869   1.131   4.663   3.862
 2210SOL    HW2 8870   1.203   4.715   3.826
 2210SOL    HW3 8871   1.150   4.573   3.834
 2210SOL    MW4 8872   1.143   4.658   3.854
 2211SOL     OW 8873   0.907   0.149   3.794
 2211SOL    HW2 8874   0.985   0.105   3.828
 2211SOL    HW3 8875   0.835   0.117   3.849
 2211SOL    MW4 8876   0.908   0.139   3.806
 2212SOL     OW 8877   0.921   0.414   3.846
 2212SOL    HW2 8878   0.898   0.411   3.939
 2212SOL    HW3 8879   0.925   0.322   3.820
 2212SOL    MW4 8880   0.918   0.401   3.855
 2213SOL     OW 8881   1.170   0.511   3.774
 2213SOL    HW2 8882   1.227   0.449   3.818
 2213SOL    HW3 8883   1.082   0.474   3.785
 2213SOL    MW4 8884   1.166   0.498   3.781
 2214SOL     OW 8885   1.125   0.775   3.864
 2214SOL    HW2 8886   1.120   0.791   3.958
 2214SOL    HW3 8887   1.152   0.683   3.856
 2214SOL    MW4 8888   1.128   0.765   3.875
 2215SOL     OW 8889   0.895   0.872   3.761
 2215SOL    HW2 8890   0.969   0.828   3.803
 2215SOL    HW3 8891   0.911   0.863   3.668
 2215SOL    MW4 8892   0.907   0.865   3.755
 2216SOL     OW 8893   0.951   1.135   3.839
 2216SOL    HW2 8894   0.929   1.141   3.932
 2216SOL    HW3 8895   0.926   1.046   3.814
 2216SOL    MW4 8896   0.945   1.124   3.848
 2217SOL     OW 8897   1.145   1.308   3.769
 2217SOL    HW2 8898   1.138   1.398   3.800
 2217SOL    HW3 8899   1.070   1.263   3.810
 2217SOL    MW4 8900   1.134   1.314   3.779
 2218SOL     OW 8901   1.113   1.590   3.818
 2218SOL    HW2 8902   1.121   1.584   3.913
 2218SOL    HW3 8903   1.202   1.605   3.787
 2218SOL    MW4 8904   1.126   1.591   3.826
 2219SOL     OW 8905   0.877   1.705   3.733
 2219SOL    HW2 8906   0.961   1.671   3.763
 2219SOL    HW3 8907   0.883   1.702   3.637
 2219SOL    MW4 8908   0.889   1.700   3.724
 2220SOL     OW 8909   0.848   1.956   3.838
 2220SOL    HW2 8910   0.853   1.867   3.803
 2220SOL    HW3 8911   0.776   1.996   3.790
 2220SOL    MW4 8912   0.839   1.949   3.827
 2221SOL     OW 8913   1.114   2.040   3.802
 2221SOL    HW2 8914   1.026   2.015   3.831
 2221SOL    HW3 8915   1.110   2.038   3.706
 2221SOL    MW4 8916   1.102   2.036   3.793
 2222SOL     OW 8917   1.129   2.314   3.840
 2222SOL    HW2 8918   1.105   2.311   3.933
 2222SOL    HW3 8919   1.125   2.222   3.812
 2222SOL    MW4 8920   1.125   2.301   3.849
 2223SOL     OW 8921   0.884   2.440   3.744
 2223SOL    HW2 8922   0.879   2.523   3.791
 2223SOL    HW3 8923   0.966   2.401   3.773
 2223SOL    MW4 8924   0.894   2.446   3.754
 2224SOL     OW 8925   0.879   2.720   3.851
 2224SOL    HW2 8926   0.880   2.706   3.946
 2224SOL    HW3 8927   0.963   2.761   3.831
 2224SOL    MW4 8928   0.891   2.723   3.861
 2225SOL     OW 8929   1.135   2.825   3.808
 2225SOL    HW2 8930   1.214   2.779   3.836
 2225SOL    HW3 8931   1.143   2.913   3.846
 2225SOL    MW4 8932   1.146   2.831   3.817
 2226SOL     OW 8933   1.129   3.101   3.866
 2226SOL    HW2 8934   1.199   3.153   3.826
 2226SOL    HW3 8935   1.048   3.143   3.837
 2226SOL    MW4 8936   1.128   3.113   3.857
 2227SOL     OW 8937   0.900   3.245   3.787
 2227SOL    HW2 8938   0.825   3.198   3.824
 2227SOL    HW3 8939   0.881   3.251   3.694
 2227SOL    MW4 8940   0.887   3.240   3.780
 2228SOL     OW 8941   0.839   3.496   3.904
 2228SOL    HW2 8942   0.854   3.417   3.852
 2228SOL    HW3 8943   0.758   3.533   3.868
 2228SOL    MW4 8944   0.830   3.491   3.892
 2229SOL     OW 8945   1.088   3.622   3.787
 2229SOL    HW2 8946   1.113   3.707   3.823
 2229SOL    HW3 8947   1.010   3.597   3.835
 2229SOL    MW4 8948   1.081   3.630   3.798
 2230SOL     OW 8949   1.159   3.855   3.872
 2230SOL    HW2 8950   1.164   3.837   3.966
 2230SOL    HW3 8951   1.241   3.899   3.852
 2230SOL    MW4 8952   1.170   3.858   3.882
 2231SOL     OW 8953   0.900   4.009   3.823
 2231SOL    HW2 8954   0.969   3.951   3.854
 2231SOL    HW3 8955   0.919   4.021   3.730
 2231SOL    MW4 8956   0.912   4.003   3.815
 2232SOL     OW 8957   0.864   4.279   3.903
 2232SOL    HW2 8958   0.889   4.300   3.993
 2232SOL    HW3 8959   0.872   4.183   3.898
 2232SOL    MW4 8960   0.868   4.269   3.915
 2233SOL     OW 8961   1.157   4.356   3.786
 2233SOL    HW2 8962   1.074   4.312   3.804
 2233SOL    HW3 8963   1.155   4.374   3.693
 2233SOL    MW4 8964   1.146   4.352   3.776
 2234SOL     OW 8965   1.562   4.644   3.892
 2234SOL    HW2 8966   1.560   4.645   3.988
 2234SOL    HW3 8967   1.574   4.552   3.870
 2234SOL    MW4 8968   1.563   4.632   3.902
 2235SOL     OW 8969   1.330   0.137   3.760
 2235SOL    HW2 8970   1.340   0.221   3.805
 2235SOL    HW3 8971   1.405   0.085   3.789
 2235SOL    MW4 8972   1.341   0.141   3.770
 2236SOL     OW 8973   1.353   0.360   3.906
 2236SOL    HW2 8974   1.358   0.348   4.001
 2236SOL    HW3 8975   1.422   0.424   3.886
 2236SOL    MW4 8976   1.363   0.367   3.916
 2237SOL     OW 8977   1.602   0.490   3.776
 2237SOL    HW2 8978   1.672   0.458   3.833
 2237SOL    HW3 8979   1.586   0.579   3.805
 2237SOL    MW4 8980   1.609   0.497   3.787
 2238SOL     OW 8981   1.528   0.736   3.870
 2238SOL    HW2 8982   1.609   0.779   3.844
 2238SOL    HW3 8983   1.460   0.782   3.821
 2238SOL    MW4 8984   1.530   0.748   3.860
 2239SOL     OW 8985   1.348   0.898   3.732
 2239SOL    HW2 8986   1.359   0.990   3.759
 2239SOL    HW3 8987   1.272   0.868   3.782
 2239SOL    MW4 8988   1.339   0.906   3.742
 2240SOL     OW 8989   1.376   1.157   3.835
 2240SOL    HW2 8990   1.451   1.202   3.795
 2240SOL    HW3 8991   1.300   1.206   3.805
 2240SOL    MW4 8992   1.376   1.170   3.826
 2241SOL     OW 8993   1.610   1.315   3.748
 2241SOL    HW2 8994   1.679   1.265   3.792
 2241SOL    HW3 8995   1.620   1.404   3.781
 2241SOL    MW4 8996   1.621   1.320   3.758
 2242SOL     OW 8997   1.614   1.575   3.850
 2242SOL    HW2 8998   1.615   1.570   3.945
 2242SOL    HW3 8999   1.695   1.620   3.827
 2242SOL    MW4 9000   1.625   1.580   3.859
 2243SOL     OW 9001   1.358   1.660   3.736
 2243SOL    HW2 9002   1.362   1.749   3.772
 2243SOL    HW3 9003   1.447   1.625   3.749
 2243SOL    MW4 9004   1.371   1.667   3.742
 2244SOL     OW 9005   1.360   1.914   3.835
 2244SOL    HW2 9006   1.382   1.927   3.927
 2244SOL    HW3 9007   1.272   1.950   3.826
 2244SOL    MW4 9008   1.351   1.920   3.846
 2245SOL     OW 9009   1.586   2.066   3.770
 2245SOL    HW2 9010   1.511   2.010   3.788
 2245SOL    HW3 9011   1.611   2.044   3.680
 2245SOL    MW4 9012   1.580   2.056   3.761
 2246SOL     OW 9013   1.578   2.329   3.898
 2246SOL    HW2 9014   1.655   2.369   3.857
 2246SOL    HW3 9015   1.576   2.240   3.865
 2246SOL    MW4 9016   1.588   2.323   3.888
 2247SOL     OW 9017   1.363   2.442   3.797
 2247SOL    HW2 9018   1.431   2.381   3.825
 2247SOL    HW3 9019   1.282   2.405   3.832
 2247SOL    MW4 9020   1.361   2.429   3.805
 2248SOL     OW 9021   1.367   2.701   3.890
 2248SOL    HW2 9022   1.356   2.708   3.985
 2248SOL    HW3 9023   1.385   2.609   3.875
 2248SOL    MW4 9024   1.368   2.690   3.901
 2249SOL     OW 9025   1.565   2.852   3.763
 2249SOL    HW2 9026   1.483   2.815   3.798
 2249SOL    HW3 9027   1.552   2.854   3.668
 2249SOL    MW4 9028   1.552   2.848   3.755
 2250SOL     OW 9029   1.551   3.106   3.815
 2250SOL    HW2 9030   1.532   3.096   3.908
 2250SOL    HW3 9031   1.551   3.016   3.780
 2250SOL    MW4 9032   1.548   3.093   3.822
 2251SOL     OW 9033   1.322   3.269   3.766
 2251SOL    HW2 9034   1.311   3.338   3.832
 2251SOL    HW3 9035   1.399   3.220   3.796
 2251SOL    MW4 9036   1.331   3.272   3.779
 2252SOL     OW 9037   1.313   3.495   3.905
 2252SOL    HW2 9038   1.391   3.523   3.858
 2252SOL    HW3 9039   1.240   3.532   3.855
 2252SOL    MW4 9040   1.314   3.504   3.892
 2253SOL     OW 9041   1.524   3.615   3.757
 2253SOL    HW2 9042   1.606   3.572   3.780
 2253SOL    HW3 9043   1.525   3.697   3.807
 2253SOL    MW4 9044   1.535   3.620   3.767
 2254SOL     OW 9045   1.590   3.844   3.869
 2254SOL    HW2 9046   1.565   3.861   3.960
 2254SOL    HW3 9047   1.537   3.905   3.817
 2254SOL    MW4 9048   1.579   3.854   3.874
 2255SOL     OW 9049   1.382   3.987   3.755
 2255SOL    HW2 9050   1.379   4.073   3.798
 2255SOL    HW3 9051   1.371   4.007   3.662
 2255SOL    MW4 9052   1.380   4.001   3.748
 2256SOL     OW 9053   1.393   4.235   3.878
 2256SOL    HW2 9054   1.469   4.288   3.856
 2256SOL    HW3 9055   1.318   4.287   3.850
 2256SOL    MW4 9056   1.393   4.248   3.872
 2257SOL     OW 9057   1.589   4.389   3.788
 2257SOL    HW2 9058   1.681   4.372   3.809
 2257SOL    HW3 9059   1.589   4.416   3.697
 2257SOL    MW4 9060   1.601   4.390   3.779
 2258SOL     OW 9061   1.990   4.617   3.883
 2258SOL    HW2 9062   2.068   4.669   3.861
 2258SOL    HW3 9063   2.000   4.536   3.832
 2258SOL    MW4 9064   2.002   4.613   3.873
 2259SOL     OW 9065   1.787   0.112   3.787
 2259SOL    HW2 9066   1.862   0.058   3.810
 2259SOL    HW3 9067   1.712   0.067   3.825
 2259SOL    MW4 9068   1.787   0.099   3.795
 2260SOL     OW 9069   1.823   0.353   3.889
 2260SOL    HW2 9070   1.792   0.347   3.980
 2260SOL    HW3 9071   1.817   0.264   3.855
 2260SOL    MW4 9072   1.818   0.341   3.897
 2261SOL     OW 9073   2.034   0.517   3.822
 2261SOL    HW2 9074   1.967   0.455   3.850
 2261SOL    HW3 9075   2.022   0.524   3.727
 2261SOL    MW4 9076   2.024   0.510   3.813
 2262SOL     OW 9077   2.024   0.781   3.891
 2262SOL    HW2 9078   2.020   0.779   3.987
 2262SOL    HW3 9079   2.019   0.689   3.865
 2262SOL    MW4 9080   2.023   0.768   3.900
 2263SOL     OW 9081   1.760   0.888   3.817
 2263SOL    HW2 9082   1.847   0.867   3.850
 2263SOL    HW3 9083   1.767   0.877   3.722
 2263SOL    MW4 9084   1.773   0.884   3.809
 2264SOL     OW 9085   1.810   1.158   3.888
 2264SOL    HW2 9086   1.829   1.182   3.979
 2264SOL    HW3 9087   1.794   1.063   3.892
 2264SOL    MW4 9088   1.811   1.148   3.901
 2265SOL     OW 9089   2.025   1.277   3.775
 2265SOL    HW2 9090   2.094   1.225   3.815
 2265SOL    HW3 9091   1.944   1.232   3.797
 2265SOL    MW4 9092   2.024   1.264   3.783
 2266SOL     OW 9093   2.073   1.545   3.885
 2266SOL    HW2 9094   1.996   1.597   3.862
 2266SOL    HW3 9095   2.066   1.467   3.831
 2266SOL    MW4 9096   2.062   1.542   3.875
 2267SOL     OW 9097   1.857   1.666   3.764
 2267SOL    HW2 9098   1.848   1.761   3.777
 2267SOL    HW3 9099   1.839   1.653   3.671
 2267SOL    MW4 9100   1.853   1.677   3.754
 2268SOL     OW 9101   1.822   1.949   3.842
 2268SOL    HW2 9102   1.830   1.946   3.937
 2268SOL    HW3 9103   1.740   1.997   3.827
 2268SOL    MW4 9104   1.812   1.955   3.853
 2269SOL     OW 9105   2.049   2.089   3.803
 2269SOL    HW2 9106   1.965   2.057   3.837
 2269SOL    HW3 9107   2.035   2.098   3.709
 2269SOL    MW4 9108   2.036   2.086   3.795
 2270SOL     OW 9109   2.043   2.361   3.868
 2270SOL    HW2 9110   1.951   2.377   3.849
 2270SOL    HW3 9111   2.056   2.268   3.849
 2270SOL    MW4 9112   2.033   2.351   3.863
 2271SOL     OW 9113   1.798   2.422   3.770
 2271SOL    HW2 9114   1.778   2.511   3.800
 2271SOL    HW3 9115   1.819   2.432   3.677
 2271SOL    MW4 9116   1.798   2.435   3.762
 2272SOL     OW 9117   1.767   2.671   3.860
 2272SOL    HW2 9118   1.781   2.719   3.941
 2272SOL    HW3 9119   1.691   2.713   3.820
 2272SOL    MW4 9120   1.759   2.683   3.865
 2273SOL     OW 9121   2.023   2.830   3.797
 2273SOL    HW2 9122   2.094   2.776   3.831
 2273SOL    HW3 9123   1.944   2.776   3.810
 2273SOL    MW4 9124   2.022   2.815   3.803
 2274SOL     OW 9125   2.028   3.114   3.791
 2274SOL    HW2 9126   2.038   3.019   3.793
 2274SOL    HW3 9127   2.117   3.148   3.783
 2274SOL    MW4 9128   2.041   3.106   3.790
 2275SOL     OW 9129   1.785   3.262   3.752
 2275SOL    HW2 9130   1.865   3.210   3.768
 2275SOL    HW3 9131   1.714   3.201   3.769
 2275SOL    MW4 9132   1.786   3.247   3.757
 2276SOL     OW 9133   1.782   3.522   3.849
 2276SOL    HW2 9134   1.873   3.547   3.830
 2276SOL    HW3 9135   1.775   3.431   3.821
 2276SOL    MW4 9136   1.793   3.513   3.843
 2277SOL     OW 9137   2.033   3.612   3.771
 2277SOL    HW2 9138   2.098   3.555   3.812
 2277SOL    HW3 9139   2.052   3.606   3.677
 2277SOL    MW4 9140   2.044   3.604   3.764
 2278SOL     OW 9141   2.009   3.874   3.892
 2278SOL    HW2 9142   2.100   3.881   3.864
 2278SOL    HW3 9143   1.983   3.784   3.870
 2278SOL    MW4 9144   2.017   3.863   3.885
 2279SOL     OW 9145   1.784   4.007   3.775
 2279SOL    HW2 9146   1.869   3.991   3.816
 2279SOL    HW3 9147   1.726   3.940   3.812
 2279SOL    MW4 9148   1.787   3.996   3.785
 2280SOL     OW 9149   1.828   4.259   3.888
 2280SOL    HW2 9150   1.901   4.283   3.831
 2280SOL    HW3 9151   1.801   4.173   3.856
 2280SOL    MW4 9152   1.834   4.251   3.876
 2281SOL     OW 9153   2.024   4.391   3.748
 2281SOL    HW2 9154   2.100   4.345   3.784
 2281SOL    HW3 9155   2.034   4.383   3.653
 2281SOL    MW4 9156   2.035   4.384   3.740
 2282SOL     OW 9157   2.436   0.015   3.853
 2282SOL    HW2 9158   2.439  -0.004   3.947
 2282SOL    HW3 9159   2.523   0.049   3.833
 2282SOL    MW4 9160   2.448   0.017   3.863
 2283SOL     OW 9161   2.184   0.109   3.802
 2283SOL    HW2 9162   2.277   0.095   3.821
 2283SOL    HW3 9163   2.179   0.110   3.706
 2283SOL    MW4 9164   2.196   0.107   3.792
 2284SOL     OW 9165   2.271   0.382   3.877
 2284SOL    HW2 9166   2.240   0.302   3.833
 2284SOL    HW3 9167   2.199   0.445   3.866
 2284SOL    MW4 9168   2.257   0.379   3.870
 2285SOL     OW 9169   2.512   0.482   3.806
 2285SOL    HW2 9170   2.434   0.436   3.837
 2285SOL    HW3 9171   2.504   0.480   3.710
 2285SOL    MW4 9172   2.500   0.476   3.797
 2286SOL     OW 9173   2.511   0.723   3.953
 2286SOL    HW2 9174   2.435   0.771   3.920
 2286SOL    HW3 9175   2.513   0.643   3.900
 2286SOL    MW4 9176   2.501   0.719   3.942
 2287SOL     OW 9177   2.288   0.855   3.839
 2287SOL    HW2 9178   2.194   0.839   3.846
 2287SOL    HW3 9179   2.300   0.886   3.749
 2287SOL    MW4 9180   2.277   0.857   3.828
 2288SOL     OW 9181   2.248   1.125   3.891
 2288SOL    HW2 9182   2.261   1.157   3.981
 2288SOL    HW3 9183   2.273   1.033   3.894
 2288SOL    MW4 9184   2.253   1.117   3.903
 2289SOL     OW 9185   2.470   1.251   3.795
 2289SOL    HW2 9186   2.457   1.335   3.840
 2289SOL    HW3 9187   2.402   1.194   3.829
 2289SOL    MW4 9188   2.460   1.255   3.805
 2290SOL     OW 9189   2.446   1.526   3.887
 2290SOL    HW2 9190   2.533   1.540   3.849
 2290SOL    HW3 9191   2.389   1.585   3.838
 2290SOL    MW4 9192   2.450   1.535   3.875
 2291SOL     OW 9193   2.273   1.685   3.741
 2291SOL    HW2 9194   2.282   1.776   3.768
 2291SOL    HW3 9195   2.204   1.650   3.798
 2291SOL    MW4 9196   2.265   1.692   3.752
 2292SOL     OW 9197   2.286   1.947   3.858
 2292SOL    HW2 9198   2.304   1.948   3.953
 2292SOL    HW3 9199   2.212   2.007   3.847
 2292SOL    MW4 9200   2.279   1.955   3.869
 2293SOL     OW 9201   2.479   2.066   3.712
 2293SOL    HW2 9202   2.484   2.157   3.740
 2293SOL    HW3 9203   2.405   2.029   3.759
 2293SOL    MW4 9204   2.470   2.073   3.722
 2294SOL     OW 9205   2.471   2.320   3.794
 2294SOL    HW2 9206   2.533   2.376   3.749
 2294SOL    HW3 9207   2.386   2.341   3.754
 2294SOL    MW4 9208   2.468   2.330   3.783
 2295SOL     OW 9209   2.237   2.394   3.681
 2295SOL    HW2 9210   2.160   2.387   3.737
 2295SOL    HW3 9211   2.203   2.430   3.598
 2295SOL    MW4 9212   2.222   2.398   3.677
 2296SOL     OW 9213   2.249   2.733   3.915
 2296SOL    HW2 9214   2.220   2.798   3.979
 2296SOL    HW3 9215   2.237   2.649   3.959
 2296SOL    MW4 9216   2.243   2.730   3.929
 2297SOL     OW 9217   2.480   2.801   3.784
 2297SOL    HW2 9218   2.394   2.773   3.816
 2297SOL    HW3 9219   2.473   2.794   3.689
 2297SOL    MW4 9220   2.468   2.797   3.776
 2298SOL     OW 9221   2.485   3.067   3.869
 2298SOL    HW2 9222   2.463   3.056   3.962
 2298SOL    HW3 9223   2.494   2.977   3.837
 2298SOL    MW4 9224   2.483   3.053   3.877
 2299SOL     OW 9225   2.268   3.210   3.741
 2299SOL    HW2 9226   2.266   3.285   3.801
 2299SOL    HW3 9227   2.347   3.162   3.765
 2299SOL    MW4 9228   2.278   3.213   3.752
 2300SOL     OW 9229   2.246   3.467   3.870
 2300SOL    HW2 9230   2.243   3.486   3.964
 2300SOL    HW3 9231   2.320   3.517   3.838
 2300SOL    MW4 9232   2.255   3.476   3.878
 2301SOL     OW 9233   2.464   3.583   3.742
 2301SOL    HW2 9234   2.548   3.546   3.770
 2301SOL    HW3 9235   2.459   3.561   3.649
 2301SOL    MW4 9236   2.475   3.575   3.734
 2302SOL     OW 9237   2.483   3.835   3.866
 2302SOL    HW2 9238   2.543   3.888   3.813
 2302SOL    HW3 9239   2.485   3.749   3.826
 2302SOL    MW4 9240   2.491   3.831   3.854
 2303SOL     OW 9241   2.236   3.984   3.785
 2303SOL    HW2 9242   2.319   3.942   3.806
 2303SOL    HW3 9243   2.231   3.983   3.689
 2303SOL    MW4 9244   2.246   3.978   3.775
 2304SOL     OW 9245   2.245   4.261   3.847
 2304SOL    HW2 9246   2.244   4.273   3.942
 2304SOL    HW3 9247   2.248   4.166   3.834
 2304SOL    MW4 9248   2.245   4.250   3.858
 2305SOL     OW 9249   2.487   4.411   3.780
 2305SOL    HW2 9250   2.411   4.355   3.799
 2305SOL    HW3 9251   2.458   4.499   3.802
 2305SOL    MW4 9252   2.473   4.415   3.786
 2306SOL     OW 9253   2.945   4.589   3.826
 2306SOL    HW2 9254   2.947   4.565   3.918
 2306SOL    HW3 9255   3.021   4.647   3.814
 2306SOL    MW4 9256   2.956   4.594   3.836
 2307SOL     OW 9257   2.705   0.086   3.755
 2307SOL    HW2 9258   2.772   0.022   3.779
 2307SOL    HW3 9259   2.722   0.104   3.662
 2307SOL    MW4 9260   2.716   0.080   3.746
 2308SOL     OW 9261   2.745   0.344   3.876
 2308SOL    HW2 9262   2.744   0.258   3.833
 2308SOL    HW3 9263   2.669   0.390   3.840
 2308SOL    MW4 9264   2.735   0.338   3.866
 2309SOL     OW 9265   2.954   0.490   3.789
 2309SOL    HW2 9266   3.032   0.435   3.802
 2309SOL    HW3 9267   2.882   0.439   3.827
 2309SOL    MW4 9268   2.955   0.476   3.796
 2310SOL     OW 9269   2.952   0.765   3.889
 2310SOL    HW2 9270   3.031   0.802   3.850
 2310SOL    HW3 9271   2.961   0.670   3.873
 2310SOL    MW4 9272   2.964   0.757   3.882
 2311SOL     OW 9273   2.695   0.832   3.780
 2311SOL    HW2 9274   2.782   0.806   3.813
 2311SOL    HW3 9275   2.634   0.799   3.846
 2311SOL    MW4 9276   2.699   0.824   3.793
 2312SOL     OW 9277   2.695   1.101   3.882
 2312SOL    HW2 9278   2.684   1.019   3.835
 2312SOL    HW3 9279   2.617   1.152   3.859
 2312SOL    MW4 9280   2.683   1.097   3.873
 2313SOL     OW 9281   2.917   1.234   3.750
 2313SOL    HW2 9282   2.907   1.324   3.781
 2313SOL    HW3 9283   2.850   1.185   3.798
 2313SOL    MW4 9284   2.907   1.240   3.760
 2314SOL     OW 9285   2.920   1.492   3.846
 2314SOL    HW2 9286   2.910   1.515   3.939
 2314SOL    HW3 9287   2.973   1.563   3.810
 2314SOL    MW4 9288   2.926   1.505   3.854
 2315SOL     OW 9289   2.679   1.609   3.750
 2315SOL    HW2 9290   2.757   1.556   3.766
 2315SOL    HW3 9291   2.673   1.614   3.655
 2315SOL    MW4 9292   2.689   1.603   3.740
 2316SOL     OW 9293   2.679   1.908   3.795
 2316SOL    HW2 9294   2.680   1.822   3.753
 2316SOL    HW3 9295   2.610   1.956   3.750
 2316SOL    MW4 9296   2.670   1.903   3.784
 2317SOL     OW 9297   2.904   2.044   3.728
 2317SOL    HW2 9298   2.883   2.134   3.751
 2317SOL    HW3 9299   2.825   1.995   3.750
 2317SOL    MW4 9300   2.891   2.049   3.734
 2318SOL     OW 9301   2.855   2.320   3.783
 2318SOL    HW2 9302   2.854   2.310   3.878
 2318SOL    HW3 9303   2.942   2.353   3.763
 2318SOL    MW4 9304   2.866   2.323   3.793
 2319SOL     OW 9305   2.666   2.473   3.676
 2319SOL    HW2 9306   2.667   2.555   3.726
 2319SOL    HW3 9307   2.733   2.419   3.716
 2319SOL    MW4 9308   2.675   2.477   3.688
 2320SOL     OW 9309   2.700   2.672   3.860
 2320SOL    HW2 9310   2.688   2.631   3.946
 2320SOL    HW3 9311   2.617   2.715   3.842
 2320SOL    MW4 9312   2.687   2.672   3.869
 2321SOL     OW 9313   2.937   2.811   3.736
 2321SOL    HW2 9314   2.921   2.894   3.781
 2321SOL    HW3 9315   2.870   2.752   3.770
 2321SOL    MW4 9316   2.926   2.814   3.747
 2322SOL     OW 9317   2.912   3.059   3.877
 2322SOL    HW2 9318   2.995   3.100   3.852
 2322SOL    HW3 9319   2.845   3.119   3.843
 2322SOL    MW4 9320   2.914   3.072   3.869
 2323SOL     OW 9321   2.709   3.189   3.734
 2323SOL    HW2 9322   2.733   3.272   3.776
 2323SOL    HW3 9323   2.642   3.152   3.791
 2323SOL    MW4 9324   2.704   3.195   3.747
 2324SOL     OW 9325   2.695   3.481   3.847
 2324SOL    HW2 9326   2.698   3.475   3.942
 2324SOL    HW3 9327   2.768   3.539   3.824
 2324SOL    MW4 9328   2.705   3.488   3.856
 2325SOL     OW 9329   2.891   3.660   3.739
 2325SOL    HW2 9330   2.945   3.595   3.782
 2325SOL    HW3 9331   2.907   3.647   3.645
 2325SOL    MW4 9332   2.900   3.650   3.732
 2326SOL     OW 9333   2.917   3.924   3.813
 2326SOL    HW2 9334   2.937   3.932   3.906
 2326SOL    HW3 9335   2.902   3.830   3.800
 2326SOL    MW4 9336   2.918   3.912   3.824
 2327SOL     OW 9337   2.667   4.017   3.735
 2327SOL    HW2 9338   2.650   4.098   3.783
 2327SOL    HW3 9339   2.762   4.006   3.741
 2327SOL    MW4 9340   2.677   4.026   3.742
 2328SOL     OW 9341   2.706   4.279   3.906
 2328SOL    HW2 9342   2.786   4.299   3.858
 2328SOL    HW3 9343   2.638   4.331   3.862
 2328SOL    MW4 9344   2.707   4.289   3.894
 2329SOL     OW 9345   2.943   4.327   3.757
 2329SOL    HW2 9346   3.031   4.290   3.768
 2329SOL    HW3 9347   2.953   4.420   3.780
 2329SOL    MW4 9348   2.956   4.335   3.762
 2330SOL     OW 9349   3.427   4.628   3.855
 2330SOL    HW2 9350   3.427   4.625   3.951
 2330SOL    HW3 9351   3.499   4.687   3.833
 2330SOL    MW4 9352   3.436   4.636   3.865
 2331SOL     OW 9353   3.190   0.065   3.767
 2331SOL    HW2 9354   3.275   0.032   3.797
 2331SOL    HW3 9355   3.198   0.068   3.671
 2331SOL    MW4 9356   3.202   0.061   3.758
 2332SOL     OW 9357   3.202   0.339   3.828
 2332SOL    HW2 9358   3.203   0.335   3.924
 2332SOL    HW3 9359   3.189   0.248   3.801
 2332SOL    MW4 9360   3.200   0.326   3.837
 2333SOL     OW 9361   3.411   0.517   3.728
 2333SOL    HW2 9362   3.490   0.480   3.767
 2333SOL    HW3 9363   3.339   0.468   3.767
 2333SOL    MW4 9364   3.412   0.506   3.739
 2334SOL     OW 9365   3.398   0.775   3.884
 2334SOL    HW2 9366   3.407   0.767   3.978
 2334SOL    HW3 9367   3.376   0.687   3.853
 2334SOL    MW4 9368   3.396   0.762   3.892
 2335SOL     OW 9369   3.165   0.891   3.801
 2335SOL    HW2 9370   3.249   0.857   3.831
 2335SOL    HW3 9371   3.172   0.891   3.705
 2335SOL    MW4 9372   3.177   0.886   3.792
 2336SOL     OW 9373   3.123   1.145   3.907
 2336SOL    HW2 9374   3.143   1.056   3.878
 2336SOL    HW3 9375   3.056   1.175   3.845
 2336SOL    MW4 9376   3.117   1.137   3.895
 2337SOL     OW 9377   3.346   1.259   3.805
 2337SOL    HW2 9378   3.263   1.228   3.840
 2337SOL    HW3 9379   3.341   1.238   3.711
 2337SOL    MW4 9380   3.335   1.252   3.797
 2338SOL     OW 9381   3.367   1.548   3.833
 2338SOL    HW2 9382   3.280   1.577   3.806
 2338SOL    HW3 9383   3.369   1.455   3.809
 2338SOL    MW4 9384   3.356   1.539   3.826
 2339SOL     OW 9385   3.126   1.670   3.770
 2339SOL    HW2 9386   3.127   1.758   3.805
 2339SOL    HW3 9387   3.115   1.682   3.676
 2339SOL    MW4 9388   3.125   1.683   3.762
 2340SOL     OW 9389   3.116   1.931   3.863
 2340SOL    HW2 9390   3.099   1.941   3.956
 2340SOL    HW3 9391   3.034   1.957   3.820
 2340SOL    MW4 9392   3.103   1.936   3.869
 2341SOL     OW 9393   3.315   2.082   3.749
 2341SOL    HW2 9394   3.230   2.041   3.763
 2341SOL    HW3 9395   3.321   2.095   3.654
 2341SOL    MW4 9396   3.305   2.078   3.738
 2342SOL     OW 9397   3.367   2.355   3.813
 2342SOL    HW2 9398   3.285   2.397   3.786
 2342SOL    HW3 9399   3.353   2.262   3.793
 2342SOL    MW4 9400   3.354   2.348   3.807
 2343SOL     OW 9401   3.098   2.467   3.774
 2343SOL    HW2 9402   3.102   2.552   3.817
 2343SOL    HW3 9403   3.077   2.487   3.683
 2343SOL    MW4 9404   3.096   2.481   3.768
 2344SOL     OW 9405   3.195   2.698   3.899
 2344SOL    HW2 9406   3.182   2.695   3.993
 2344SOL    HW3 9407   3.122   2.750   3.866
 2344SOL    MW4 9408   3.184   2.704   3.907
 2345SOL     OW 9409   3.402   2.859   3.797
 2345SOL    HW2 9410   3.338   2.802   3.840
 2345SOL    HW3 9411   3.382   2.851   3.704
 2345SOL    MW4 9412   3.391   2.850   3.790
 2346SOL     OW 9413   3.375   3.122   3.921
 2346SOL    HW2 9414   3.449   3.159   3.874
 2346SOL    HW3 9415   3.379   3.028   3.904
 2346SOL    MW4 9416   3.385   3.115   3.913
 2347SOL     OW 9417   3.122   3.202   3.775
 2347SOL    HW2 9418   3.201   3.155   3.801
 2347SOL    HW3 9419   3.121   3.197   3.679
 2347SOL    MW4 9420   3.132   3.195   3.765
 2348SOL     OW 9421   3.074   3.473   3.845
 2348SOL    HW2 9422   3.157   3.513   3.820
 2348SOL    HW3 9423   3.086   3.379   3.829
 2348SOL    MW4 9424   3.086   3.466   3.840
 2349SOL     OW 9425   3.302   3.568   3.760
 2349SOL    HW2 9426   3.299   3.660   3.786
 2349SOL    HW3 9427   3.319   3.571   3.666
 2349SOL    MW4 9428   3.304   3.581   3.751
 2350SOL     OW 9429   3.360   3.844   3.819
 2350SOL    HW2 9430   3.443   3.867   3.779
 2350SOL    HW3 9431   3.294   3.881   3.761
 2350SOL    MW4 9432   3.362   3.852   3.806
 2351SOL     OW 9433   3.148   3.972   3.674
 2351SOL    HW2 9434   3.160   4.057   3.717
 2351SOL    HW3 9435   3.065   3.939   3.708
 2351SOL    MW4 9436   3.139   3.979   3.685
 2352SOL     OW 9437   3.177   4.206   3.812
 2352SOL    HW2 9438   3.174   4.201   3.908
 2352SOL    HW3 9439   3.242   4.274   3.794
 2352SOL    MW4 9440   3.186   4.214   3.823
 2353SOL     OW 9441   3.394   4.361   3.766
 2353SOL    HW2 9442   3.473   4.319   3.798
 2353SOL    HW3 9443   3.402   4.452   3.794
 2353SOL    MW4 9444   3.405   4.367   3.774
 2354SOL     OW 9445   3.843   4.638   3.876
 2354SOL    HW2 9446   3.925   4.679   3.847
 2354SOL    HW3 9447   3.840   4.555   3.828
 2354SOL    MW4 9448   3.853   4.633   3.866
 2355SOL     OW 9449   3.639   0.122   3.762
 2355SOL    HW2 9450   3.712   0.076   3.804
 2355SOL    HW3 9451   3.643   0.095   3.670
 2355SOL    MW4 9452   3.649   0.112   3.755
 2356SOL     OW 9453   3.579   0.381   3.900
 2356SOL    HW2 9454   3.655   0.439   3.892
 2356SOL    HW3 9455   3.604   0.301   3.854
 2356SOL    MW4 9456   3.592   0.378   3.893
 2357SOL     OW 9457   3.802   0.525   3.801
 2357SOL    HW2 9458   3.874   0.468   3.829
 2357SOL    HW3 9459   3.831   0.613   3.823
 2357SOL    MW4 9460   3.815   0.529   3.808
 2358SOL     OW 9461   3.870   0.796   3.883
 2358SOL    HW2 9462   3.932   0.861   3.850
 2358SOL    HW3 9463   3.784   0.830   3.856
 2358SOL    MW4 9464   3.867   0.809   3.875
 2359SOL     OW 9465   3.611   0.909   3.795
 2359SOL    HW2 9466   3.599   0.996   3.833
 2359SOL    HW3 9467   3.530   0.863   3.815
 2359SOL    MW4 9468   3.599   0.915   3.803
 2360SOL     OW 9469   3.585   1.157   3.926
 2360SOL    HW2 9470   3.647   1.191   3.861
 2360SOL    HW3 9471   3.501   1.196   3.902
 2360SOL    MW4 9472   3.582   1.166   3.914
 2361SOL     OW 9473   3.805   1.285   3.777
 2361SOL    HW2 9474   3.885   1.259   3.822
 2361SOL    HW3 9475   3.793   1.377   3.801
 2361SOL    MW4 9476   3.814   1.293   3.786
 2362SOL     OW 9477   3.778   1.564   3.857
 2362SOL    HW2 9478   3.769   1.581   3.951
 2362SOL    HW3 9479   3.705   1.611   3.817
 2362SOL    MW4 9480   3.768   1.572   3.864
 2363SOL     OW 9481   3.581   1.721   3.758
 2363SOL    HW2 9482   3.510   1.664   3.787
 2363SOL    HW3 9483   3.589   1.703   3.664
 2363SOL    MW4 9484   3.573   1.711   3.749
 2364SOL     OW 9485   3.555   1.974   3.870
 2364SOL    HW2 9486   3.566   1.881   3.850
 2364SOL    HW3 9487   3.468   1.996   3.836
 2364SOL    MW4 9488   3.545   1.965   3.863
 2365SOL     OW 9489   3.767   2.065   3.723
 2365SOL    HW2 9490   3.845   2.037   3.771
 2365SOL    HW3 9491   3.694   2.029   3.773
 2365SOL    MW4 9492   3.768   2.057   3.736
 2366SOL     OW 9493   3.814   2.309   3.840
 2366SOL    HW2 9494   3.741   2.370   3.830
 2366SOL    HW3 9495   3.791   2.235   3.784
 2366SOL    MW4 9496   3.801   2.308   3.831
 2367SOL     OW 9497   3.613   2.475   3.751
 2367SOL    HW2 9498   3.534   2.431   3.784
 2367SOL    HW3 9499   3.614   2.454   3.657
 2367SOL    MW4 9500   3.603   2.466   3.743
 2368SOL     OW 9501   3.616   2.709   3.883
 2368SOL    HW2 9502   3.621   2.629   3.832
 2368SOL    HW3 9503   3.550   2.762   3.838
 2368SOL    MW4 9504   3.608   2.706   3.870
 2369SOL     OW 9505   3.813   2.822   3.759
 2369SOL    HW2 9506   3.891   2.769   3.773
 2369SOL    HW3 9507   3.743   2.776   3.805
 2369SOL    MW4 9508   3.814   2.809   3.767
 2370SOL     OW 9509   3.817   3.080   3.882
 2370SOL    HW2 9510   3.737   3.128   3.859
 2370SOL    HW3 9511   3.807   2.995   3.840
 2370SOL    MW4 9512   3.805   3.075   3.873
 2371SOL     OW 9513   3.596   3.231   3.766
 2371SOL    HW2 9514   3.574   3.321   3.792
 2371SOL    HW3 9515   3.583   3.230   3.671
 2371SOL    MW4 9516   3.591   3.243   3.757
 2372SOL     OW 9517   3.563   3.497   3.835
 2372SOL    HW2 9518   3.570   3.518   3.928
 2372SOL    HW3 9519   3.473   3.519   3.812
 2372SOL    MW4 9520   3.552   3.503   3.844
 2373SOL     OW 9521   3.803   3.608   3.757
 2373SOL    HW2 9522   3.813   3.696   3.793
 2373SOL    HW3 9523   3.716   3.579   3.786
 2373SOL    MW4 9524   3.792   3.615   3.766
 2374SOL     OW 9525   3.819   3.854   3.861
 2374SOL    HW2 9526   3.815   3.863   3.957
 2374SOL    HW3 9527   3.885   3.917   3.833
 2374SOL    MW4 9528   3.827   3.864   3.870
 2375SOL     OW 9529   3.602   3.962   3.740
 2375SOL    HW2 9530   3.599   4.051   3.775
 2375SOL    HW3 9531   3.684   3.925   3.775
 2375SOL    MW4 9532   3.613   3.969   3.749
 2376SOL     OW 9533   3.632   4.231   3.844
 2376SOL    HW2 9534   3.642   4.227   3.939
 2376SOL    HW3 9535   3.697   4.294   3.815
 2376SOL    MW4 9536   3.642   4.238   3.853
 2377SOL     OW 9537   3.848   4.406   3.771
 2377SOL    HW2 9538   3.921   4.350   3.797
 2377SOL    HW3 9539   3.838   4.390   3.677
 2377SOL    MW4 9540   3.856   4.397   3.762
 2378SOL     OW 9541   4.262   4.620   3.887
 2378SOL    HW2 9542   4.266   4.612   3.982
 2378SOL    HW3 9543   4.339   4.671   3.863
 2378SOL    MW4 9544   4.272   4.626   3.896
 2379SOL     OW 9545   4.049   0.101   3.782
 2379SOL    HW2 9546   4.115   0.037   3.809
 2379SOL    HW3 9547   4.046   0.094   3.686
 2379SOL    MW4 9548   4.057   0.092   3.773
 2380SOL     OW 9549   4.044   0.361   3.845
 2380SOL    HW2 9550   4.028   0.371   3.939
 2380SOL    HW3 9551   4.032   0.268   3.828
 2380SOL    MW4 9552   4.040   0.350   3.855
 2381SOL     OW 9553   4.271   0.520   3.765
 2381SOL    HW2 9554   4.187   0.477   3.781
 2381SOL    HW3 9555   4.287   0.508   3.671
 2381SOL    MW4 9556   4.262   0.513   3.755
 2382SOL     OW 9557   4.256   0.776   3.865
 2382SOL    HW2 9558   4.178   0.810   3.820
 2382SOL    HW3 9559   4.267   0.688   3.830
 2382SOL    MW4 9560   4.247   0.769   3.854
 2383SOL     OW 9561   4.064   0.950   3.775
 2383SOL    HW2 9562   4.061   1.034   3.820
 2383SOL    HW3 9563   4.044   0.970   3.684
 2383SOL    MW4 9564   4.061   0.963   3.769
 2384SOL     OW 9565   4.041   1.198   3.894
 2384SOL    HW2 9566   4.039   1.210   3.989
 2384SOL    HW3 9567   4.127   1.230   3.867
 2384SOL    MW4 9568   4.052   1.204   3.903
 2385SOL     OW 9569   4.280   1.311   3.784
 2385SOL    HW2 9570   4.275   1.401   3.818
 2385SOL    HW3 9571   4.316   1.321   3.696
 2385SOL    MW4 9572   4.284   1.324   3.777
 2386SOL     OW 9573   4.276   1.568   3.902
 2386SOL    HW2 9574   4.195   1.606   3.868
 2386SOL    HW3 9575   4.345   1.606   3.848
 2386SOL    MW4 9576   4.274   1.578   3.890
 2387SOL     OW 9577   4.035   1.684   3.789
 2387SOL    HW2 9578   4.038   1.778   3.810
 2387SOL    HW3 9579   3.951   1.655   3.823
 2387SOL    MW4 9580   4.025   1.693   3.797
 2388SOL     OW 9581   4.016   1.960   3.829
 2388SOL    HW2 9582   4.001   1.946   3.922
 2388SOL    HW3 9583   4.107   1.989   3.823
 2388SOL    MW4 9584   4.026   1.962   3.840
 2389SOL     OW 9585   4.277   2.012   3.793
 2389SOL    HW2 9586   4.273   2.105   3.816
 2389SOL    HW3 9587   4.269   2.011   3.698
 2389SOL    MW4 9588   4.275   2.024   3.784
 2390SOL     OW 9589   4.284   2.285   3.840
 2390SOL    HW2 9590   4.269   2.296   3.934
 2390SOL    HW3 9591   4.212   2.332   3.798
 2390SOL    MW4 9592   4.273   2.293   3.847
 2391SOL     OW 9593   4.071   2.416   3.761
 2391SOL    HW2 9594   4.078   2.508   3.788
 2391SOL    HW3 9595   3.987   2.388   3.797
 2391SOL    MW4 9596   4.061   2.425   3.770
 2392SOL     OW 9597   4.038   2.692   3.821
 2392SOL    HW2 9598   4.024   2.705   3.915
 2392SOL    HW3 9599   4.111   2.750   3.799
 2392SOL    MW4 9600   4.046   2.701   3.830
 2393SOL     OW 9601   4.250   2.857   3.760
 2393SOL    HW2 9602   4.235   2.927   3.823
 2393SOL    HW3 9603   4.313   2.799   3.804
 2393SOL    MW4 9604   4.256   2.859   3.774
 2394SOL     OW 9605   4.235   3.101   3.906
 2394SOL    HW2 9606   4.157   3.135   3.862
 2394SOL    HW3 9607   4.307   3.152   3.869
 2394SOL    MW4 9608   4.234   3.112   3.895
 2395SOL     OW 9609   4.015   3.212   3.765
 2395SOL    HW2 9610   3.945   3.149   3.782
 2395SOL    HW3 9611   4.028   3.209   3.671
 2395SOL    MW4 9612   4.008   3.204   3.755
 2396SOL     OW 9613   3.993   3.460   3.884
 2396SOL    HW2 9614   3.980   3.372   3.849
 2396SOL    HW3 9615   3.931   3.515   3.836
 2396SOL    MW4 9616   3.983   3.455   3.873
 2397SOL     OW 9617   4.229   3.586   3.746
 2397SOL    HW2 9618   4.157   3.542   3.791
 2397SOL    HW3 9619   4.307   3.560   3.794
 2397SOL    MW4 9620   4.230   3.577   3.758
 2398SOL     OW 9621   4.255   3.828   3.882
 2398SOL    HW2 9622   4.197   3.897   3.849
 2398SOL    HW3 9623   4.244   3.756   3.820
 2398SOL    MW4 9624   4.246   3.828   3.869
 2399SOL     OW 9625   4.053   3.985   3.780
 2399SOL    HW2 9626   4.080   4.073   3.806
 2399SOL    HW3 9627   4.038   3.992   3.685
 2399SOL    MW4 9628   4.055   3.997   3.771
 2400SOL     OW 9629   4.082   4.244   3.873
 2400SOL    HW2 9630   4.088   4.260   3.967
 2400SOL    HW3 9631   4.151   4.299   3.835
 2400SOL    MW4 9632   4.092   4.254   3.880
 2401SOL     OW 9633   4.277   4.384   3.758
 2401SOL    HW2 9634   4.262   4.464   3.808
 2401SOL    HW3 9635   4.347   4.339   3.804
 2401SOL    MW4 9636   4.284   4.389   3.771
 2402SOL     OW 9637   0.228   0.002   4.148
 2402SOL    HW2 9638   0.310   0.035   4.184
 2402SOL    HW3 9639   0.220  -0.087   4.182
 2402SOL    MW4 9640   0.238  -0.006   4.157
 2403SOL     OW 9641   4.479   0.111   4.231
 2403SOL    HW2 9642   4.508   0.153   4.311
 2403SOL    HW3 9643   4.560   0.075   4.192
 2403SOL    MW4 9644   4.494   0.112   4.236
 2404SOL     OW 9645   4.469   0.385   4.135
 2404SOL    HW2 9646   4.482   0.297   4.172
 2404SOL    HW3 9647   4.470   0.370   4.040
 2404SOL    MW4 9648   4.471   0.371   4.127
 2405SOL     OW 9649   0.170   0.501   4.305
 2405SOL    HW2 9650   0.249   0.461   4.268
 2405SOL    HW3 9651   0.098   0.453   4.265
 2405SOL    MW4 9652   0.171   0.489   4.295
 2406SOL     OW 9653   0.229   0.733   4.168
 2406SOL    HW2 9654   0.164   0.795   4.200
 2406SOL    HW3 9655   0.212   0.652   4.218
 2406SOL    MW4 9656   0.218   0.730   4.179
 2407SOL     OW 9657   0.036   0.889   4.269
 2407SOL    HW2 9658  -0.042   0.870   4.216
 2407SOL    HW3 9659   0.051   0.982   4.256
 2407SOL    MW4 9660   0.027   0.899   4.260
 2408SOL     OW 9661   0.017   1.170   4.195
 2408SOL    HW2 9662   0.103   1.207   4.216
 2408SOL    HW3 9663   0.011   1.176   4.100
 2408SOL    MW4 9664   0.027   1.176   4.186
 2409SOL     OW 9665   0.265   1.262   4.276
 2409SOL    HW2 9666   0.272   1.254   4.371
 2409SOL    HW3 9667   0.329   1.199   4.242
 2409SOL    MW4 9668   0.275   1.252   4.284
 2410SOL     OW 9669   0.511   1.744   4.751
 2410SOL    HW2 9670   0.437   1.795   4.784
 2410SOL    HW3 9671   0.483   1.714   4.665
 2410SOL    MW4 9672   0.497   1.747   4.744
 2411SOL     OW 9673   4.444   1.709   4.349
 2411SOL    HW2 9674   4.445   1.636   4.287
 2411SOL    HW3 9675   4.451   1.787   4.295
 2411SOL    MW4 9676   4.446   1.710   4.334
 2412SOL     OW 9677   0.202   2.078   4.225
 2412SOL    HW2 9678   0.200   2.073   4.320
 2412SOL    HW3 9679   0.288   2.045   4.200
 2412SOL    MW4 9680   0.213   2.073   4.234
 2413SOL     OW 9681   0.459   1.401   4.633
 2413SOL    HW2 9682   0.426   1.481   4.592
 2413SOL    HW3 9683   0.506   1.431   4.710
 2413SOL    MW4 9684   0.461   1.415   4.638
 2414SOL     OW 9685   0.218   2.335   4.099
 2414SOL    HW2 9686   0.267   2.385   4.165
 2414SOL    HW3 9687   0.207   2.249   4.138
 2414SOL    MW4 9688   0.223   2.331   4.113
 2415SOL     OW 9689   4.471   2.425   4.209
 2415SOL    HW2 9690   4.400   2.369   4.178
 2415SOL    HW3 9691   4.550   2.390   4.167
 2415SOL    MW4 9692   4.472   2.413   4.200
 2416SOL     OW 9693   4.461   2.689   4.094
 2416SOL    HW2 9694   4.530   2.742   4.135
 2416SOL    HW3 9695   4.467   2.604   4.136
 2416SOL    MW4 9696   4.471   2.685   4.105
 2417SOL     OW 9697   0.157   2.848   4.223
 2417SOL    HW2 9698   0.231   2.792   4.202
 2417SOL    HW3 9699   0.186   2.936   4.198
 2417SOL    MW4 9700   0.171   2.852   4.217
 2418SOL     OW 9701   0.218   3.093   4.153
 2418SOL    HW2 9702   0.299   3.122   4.196
 2418SOL    HW3 9703   0.149   3.138   4.201
 2418SOL    MW4 9704   0.220   3.103   4.165
 2419SOL     OW 9705   0.019   3.246   4.274
 2419SOL    HW2 9706  -0.063   3.202   4.250
 2419SOL    HW3 9707   0.014   3.332   4.232
 2419SOL    MW4 9708   0.008   3.251   4.265
 2420SOL     OW 9709   4.467   3.493   4.177
 2420SOL    HW2 9710   4.386   3.519   4.222
 2420SOL    HW3 9711   4.442   3.491   4.084
 2420SOL    MW4 9712   4.453   3.496   4.170
 2421SOL     OW 9713   0.219   3.595   4.298
 2421SOL    HW2 9714   0.304   3.564   4.265
 2421SOL    HW3 9715   0.156   3.556   4.238
 2421SOL    MW4 9716   0.222   3.586   4.286
 2422SOL     OW 9717   0.060   3.943   4.124
 2422SOL    HW2 9718  -0.014   3.883   4.133
 2422SOL    HW3 9719   0.110   3.931   4.205
 2422SOL    MW4 9720   0.057   3.934   4.136
 2423SOL     OW 9721   0.101   3.927   4.582
 2423SOL    HW2 9722   0.141   3.842   4.597
 2423SOL    HW3 9723   0.009   3.907   4.561
 2423SOL    MW4 9724   0.094   3.914   4.581
 2424SOL     OW 9725   0.052   4.265   4.172
 2424SOL    HW2 9726   0.060   4.169   4.170
 2424SOL    HW3 9727   0.014   4.287   4.087
 2424SOL    MW4 9728   0.048   4.255   4.160
 2425SOL     OW 9729   0.279   4.424   4.255
 2425SOL    HW2 9730   0.269   4.441   4.349
 2425SOL    HW3 9731   0.203   4.370   4.233
 2425SOL    MW4 9732   0.268   4.419   4.265
 2426SOL     OW 9733   0.650   0.003   4.181
 2426SOL    HW2 9734   0.573   0.057   4.202
 2426SOL    HW3 9735   0.661   0.012   4.086
 2426SOL    MW4 9736   0.641   0.012   4.171
 2427SOL     OW 9737   0.433   0.169   4.254
 2427SOL    HW2 9738   0.423   0.175   4.349
 2427SOL    HW3 9739   0.424   0.259   4.224
 2427SOL    MW4 9740   0.431   0.182   4.262
 2428SOL     OW 9741   0.404   0.428   4.177
 2428SOL    HW2 9742   0.490   0.454   4.210
 2428SOL    HW3 9743   0.418   0.406   4.085
 2428SOL    MW4 9744   0.417   0.429   4.169
 2429SOL     OW 9745   0.662   0.535   4.228
 2429SOL    HW2 9746   0.736   0.485   4.194
 2429SOL    HW3 9747   0.676   0.624   4.195
 2429SOL    MW4 9748   0.673   0.540   4.219
 2430SOL     OW 9749   0.719   0.786   4.128
 2430SOL    HW2 9750   0.642   0.836   4.156
 2430SOL    HW3 9751   0.705   0.770   4.035
 2430SOL    MW4 9752   0.707   0.791   4.119
 2431SOL     OW 9753   0.474   0.873   4.211
 2431SOL    HW2 9754   0.466   0.957   4.166
 2431SOL    HW3 9755   0.394   0.825   4.189
 2431SOL    MW4 9756   0.463   0.878   4.202
 2432SOL     OW 9757   0.460   1.128   4.140
 2432SOL    HW2 9758   0.538   1.181   4.156
 2432SOL    HW3 9759   0.444   1.135   4.046
 2432SOL    MW4 9760   0.468   1.136   4.130
 2433SOL     OW 9761   0.671   1.301   4.200
 2433SOL    HW2 9762   0.684   1.315   4.294
 2433SOL    HW3 9763   0.666   1.389   4.164
 2433SOL    MW4 9764   0.672   1.314   4.208
 2434SOL     OW 9765   0.641   1.565   4.110
 2434SOL    HW2 9766   0.716   1.608   4.151
 2434SOL    HW3 9767   0.657   1.574   4.016
 2434SOL    MW4 9768   0.653   1.572   4.103
 2435SOL     OW 9769   0.218   1.521   4.126
 2435SOL    HW2 9770   0.238   1.443   4.178
 2435SOL    HW3 9771   0.124   1.534   4.139
 2435SOL    MW4 9772   0.208   1.513   4.135
 2436SOL     OW 9773   0.436   1.954   4.150
 2436SOL    HW2 9774   0.420   1.866   4.186
 2436SOL    HW3 9775   0.436   1.941   4.055
 2436SOL    MW4 9776   0.434   1.941   4.142
 2437SOL     OW 9777   0.658   2.089   4.246
 2437SOL    HW2 9778   0.661   2.085   4.342
 2437SOL    HW3 9779   0.579   2.040   4.224
 2437SOL    MW4 9780   0.648   2.082   4.256
 2438SOL     OW 9781   0.610   2.360   4.186
 2438SOL    HW2 9782   0.620   2.268   4.211
 2438SOL    HW3 9783   0.629   2.361   4.092
 2438SOL    MW4 9784   0.614   2.348   4.177
 2439SOL     OW 9785   0.369   2.481   4.284
 2439SOL    HW2 9786   0.374   2.571   4.252
 2439SOL    HW3 9787   0.455   2.445   4.265
 2439SOL    MW4 9788   0.381   2.488   4.277
 2440SOL     OW 9789   0.402   2.718   4.142
 2440SOL    HW2 9790   0.488   2.751   4.170
 2440SOL    HW3 9791   0.408   2.712   4.047
 2440SOL    MW4 9792   0.414   2.722   4.133
 2441SOL     OW 9793   0.661   2.805   4.228
 2441SOL    HW2 9794   0.693   2.789   4.317
 2441SOL    HW3 9795   0.651   2.900   4.222
 2441SOL    MW4 9796   0.664   2.815   4.239
 2442SOL     OW 9797   0.619   3.084   4.199
 2442SOL    HW2 9798   0.695   3.127   4.238
 2442SOL    HW3 9799   0.544   3.123   4.243
 2442SOL    MW4 9800   0.619   3.095   4.210
 2443SOL     OW 9801   0.408   3.220   4.310
 2443SOL    HW2 9802   0.396   3.269   4.392
 2443SOL    HW3 9803   0.437   3.286   4.247
 2443SOL    MW4 9804   0.410   3.235   4.313
 2444SOL     OW 9805   0.444   3.464   4.173
 2444SOL    HW2 9806   0.520   3.519   4.191
 2444SOL    HW3 9807   0.424   3.479   4.080
 2444SOL    MW4 9808   0.451   3.473   4.163
 2445SOL     OW 9809   0.661   3.627   4.255
 2445SOL    HW2 9810   0.634   3.602   4.344
 2445SOL    HW3 9811   0.742   3.579   4.240
 2445SOL    MW4 9812   0.668   3.618   4.265
 2446SOL     OW 9813   0.676   3.889   4.165
 2446SOL    HW2 9814   0.612   3.938   4.216
 2446SOL    HW3 9815   0.664   3.798   4.192
 2446SOL    MW4 9816   0.666   3.883   4.176
 2447SOL     OW 9817   0.485   4.011   4.323
 2447SOL    HW2 9818   0.490   4.090   4.269
 2447SOL    HW3 9819   0.394   3.981   4.313
 2447SOL    MW4 9820   0.474   4.017   4.314
 2448SOL     OW 9821   0.484   4.243   4.177
 2448SOL    HW2 9822   0.430   4.314   4.212
 2448SOL    HW3 9823   0.461   4.239   4.084
 2448SOL    MW4 9824   0.474   4.251   4.169
 2449SOL     OW 9825   0.709   4.404   4.230
 2449SOL    HW2 9826   0.640   4.342   4.207
 2449SOL    HW3 9827   0.668   4.490   4.221
 2449SOL    MW4 9828   0.695   4.408   4.226
 2450SOL     OW 9829   1.107   4.640   4.143
 2450SOL    HW2 9830   1.054   4.562   4.153
 2450SOL    HW3 9831   1.120   4.649   4.048
 2450SOL    MW4 9832   1.102   4.631   4.131
 2451SOL     OW 9833   0.885   0.142   4.220
 2451SOL    HW2 9834   0.961   0.092   4.191
 2451SOL    HW3 9835   0.811   0.083   4.206
 2451SOL    MW4 9836   0.885   0.127   4.214
 2452SOL     OW 9837   0.888   0.394   4.120
 2452SOL    HW2 9838   0.960   0.446   4.156
 2452SOL    HW3 9839   0.889   0.314   4.173
 2452SOL    MW4 9840   0.897   0.390   4.132
 2453SOL     OW 9841   1.108   0.544   4.200
 2453SOL    HW2 9842   1.109   0.561   4.295
 2453SOL    HW3 9843   1.181   0.483   4.187
 2453SOL    MW4 9844   1.118   0.538   4.211
 2454SOL     OW 9845   1.131   0.811   4.160
 2454SOL    HW2 9846   1.212   0.841   4.201
 2454SOL    HW3 9847   1.131   0.716   4.174
 2454SOL    MW4 9848   1.142   0.802   4.167
 2455SOL     OW 9849   0.902   0.920   4.282
 2455SOL    HW2 9850   0.990   0.886   4.266
 2455SOL    HW3 9851   0.845   0.865   4.228
 2455SOL    MW4 9852   0.906   0.908   4.273
 2456SOL     OW 9853   0.914   1.160   4.124
 2456SOL    HW2 9854   0.902   1.087   4.185
 2456SOL    HW3 9855   0.837   1.216   4.139
 2456SOL    MW4 9856   0.902   1.158   4.134
 2457SOL     OW 9857   1.145   1.314   4.172
 2457SOL    HW2 9858   1.155   1.321   4.267
 2457SOL    HW3 9859   1.074   1.252   4.160
 2457SOL    MW4 9860   1.137   1.307   4.183
 2458SOL     OW 9861   1.137   1.584   4.114
 2458SOL    HW2 9862   1.048   1.608   4.139
 2458SOL    HW3 9863   1.139   1.489   4.123
 2458SOL    MW4 9864   1.126   1.575   4.119
 2459SOL     OW 9865   0.867   1.668   4.199
 2459SOL    HW2 9866   0.854   1.646   4.291
 2459SOL    HW3 9867   0.886   1.762   4.200
 2459SOL    MW4 9868   0.868   1.678   4.212
 2460SOL     OW 9869   0.859   1.971   4.123
 2460SOL    HW2 9870   0.789   2.021   4.164
 2460SOL    HW3 9871   0.838   1.973   4.029
 2460SOL    MW4 9872   0.847   1.978   4.116
 2461SOL     OW 9873   1.132   2.025   4.184
 2461SOL    HW2 9874   1.150   2.014   4.277
 2461SOL    HW3 9875   1.044   1.991   4.172
 2461SOL    MW4 9876   1.123   2.019   4.195
 2462SOL     OW 9877   1.073   2.298   4.107
 2462SOL    HW2 9878   1.157   2.333   4.134
 2462SOL    HW3 9879   1.080   2.204   4.122
 2462SOL    MW4 9880   1.085   2.290   4.113
 2463SOL     OW 9881   0.865   2.431   4.256
 2463SOL    HW2 9882   0.914   2.383   4.190
 2463SOL    HW3 9883   0.773   2.407   4.240
 2463SOL    MW4 9884   0.859   2.421   4.246
 2464SOL     OW 9885   0.883   2.681   4.131
 2464SOL    HW2 9886   0.882   2.600   4.182
 2464SOL    HW3 9887   0.811   2.732   4.166
 2464SOL    MW4 9888   0.874   2.677   4.142
 2465SOL     OW 9889   1.124   2.839   4.234
 2465SOL    HW2 9890   1.140   2.927   4.199
 2465SOL    HW3 9891   1.049   2.806   4.184
 2465SOL    MW4 9892   1.116   2.846   4.223
 2466SOL     OW 9893   1.073   3.091   4.139
 2466SOL    HW2 9894   1.130   3.159   4.173
 2466SOL    HW3 9895   1.098   3.082   4.047
 2466SOL    MW4 9896   1.083   3.099   4.131
 2467SOL     OW 9897   0.868   3.225   4.260
 2467SOL    HW2 9898   0.872   3.199   4.352
 2467SOL    HW3 9899   0.938   3.174   4.218
 2467SOL    MW4 9900   0.878   3.215   4.267
 2468SOL     OW 9901   0.889   3.499   4.180
 2468SOL    HW2 9902   0.906   3.410   4.209
 2468SOL    HW3 9903   0.872   3.491   4.087
 2468SOL    MW4 9904   0.889   3.487   4.172
 2469SOL     OW 9905   1.032   3.618   4.389
 2469SOL    HW2 9906   0.978   3.697   4.393
 2469SOL    HW3 9907   1.003   3.573   4.310
 2469SOL    MW4 9908   1.021   3.622   4.379
 2470SOL     OW 9909   1.161   3.823   4.153
 2470SOL    HW2 9910   1.221   3.888   4.190
 2470SOL    HW3 9911   1.075   3.848   4.187
 2470SOL    MW4 9912   1.158   3.835   4.163
 2471SOL     OW 9913   0.917   3.880   4.299
 2471SOL    HW2 9914   0.934   3.953   4.359
 2471SOL    HW3 9915   0.829   3.898   4.264
 2471SOL    MW4 9916   0.908   3.892   4.302
 2472SOL     OW 9917   0.968   4.399   4.153
 2472SOL    HW2 9918   1.016   4.340   4.211
 2472SOL    HW3 9919   0.879   4.401   4.189
 2472SOL    MW4 9920   0.963   4.391   4.165
 2473SOL     OW 9921   1.126   4.243   4.333
 2473SOL    HW2 9922   1.170   4.305   4.391
 2473SOL    HW3 9923   1.187   4.229   4.261
 2473SOL    MW4 9924   1.140   4.249   4.331
 2474SOL     OW 9925   1.566   4.599   4.160
 2474SOL    HW2 9926   1.640   4.652   4.192
 2474SOL    HW3 9927   1.489   4.641   4.197
 2474SOL    MW4 9928   1.566   4.611   4.169
 2475SOL     OW 9929   1.332   4.637   4.307
 2475SOL    HW2 9930   1.318   4.710   4.368
 2475SOL    HW3 9931   1.258   4.643   4.246
 2475SOL    MW4 9932   1.320   4.648   4.307
 2476SOL     OW 9933   1.323   0.348   4.194
 2476SOL    HW2 9934   1.400   0.404   4.203
 2476SOL    HW3 9935   1.320   0.299   4.276
 2476SOL    MW4 9936   1.333   0.349   4.206
 2477SOL     OW 9937   1.554   0.501   4.232
 2477SOL    HW2 9938   1.545   0.507   4.328
 2477SOL    HW3 9939   1.571   0.591   4.205
 2477SOL    MW4 9940   1.555   0.514   4.241
 2478SOL     OW 9941   1.577   0.778   4.155
 2478SOL    HW2 9942   1.642   0.839   4.190
 2478SOL    HW3 9943   1.570   0.801   4.062
 2478SOL    MW4 9944   1.585   0.789   4.147
 2479SOL     OW 9945   1.359   0.939   4.238
 2479SOL    HW2 9946   1.386   1.012   4.182
 2479SOL    HW3 9947   1.433   0.878   4.236
 2479SOL    MW4 9948   1.372   0.941   4.231
 2480SOL     OW 9949   1.411   1.184   4.114
 2480SOL    HW2 9950   1.338   1.235   4.149
 2480SOL    HW3 9951   1.398   1.184   4.019
 2480SOL    MW4 9952   1.400   1.191   4.106
 2481SOL     OW 9953   1.620   1.317   4.223
 2481SOL    HW2 9954   1.623   1.286   4.314
 2481SOL    HW3 9955   1.552   1.264   4.182
 2481SOL    MW4 9956   1.612   1.306   4.230
 2482SOL     OW 9957   1.615   1.591   4.126
 2482SOL    HW2 9958   1.538   1.640   4.156
 2482SOL    HW3 9959   1.596   1.500   4.148
 2482SOL    MW4 9960   1.603   1.586   4.133
 2483SOL     OW 9961   1.365   1.687   4.236
 2483SOL    HW2 9962   1.373   1.774   4.198
 2483SOL    HW3 9963   1.283   1.653   4.201
 2483SOL    MW4 9964   1.355   1.694   4.226
 2484SOL     OW 9965   1.383   1.938   4.109
 2484SOL    HW2 9966   1.461   1.979   4.145
 2484SOL    HW3 9967   1.310   1.987   4.146
 2484SOL    MW4 9968   1.384   1.950   4.119
 2485SOL     OW 9969   1.627   2.046   4.208
 2485SOL    HW2 9970   1.718   2.019   4.193
 2485SOL    HW3 9971   1.626   2.140   4.190
 2485SOL    MW4 9972   1.639   2.054   4.203
 2486SOL     OW 9973   1.562   2.323   4.175
 2486SOL    HW2 9974   1.587   2.400   4.225
 2486SOL    HW3 9975   1.572   2.349   4.083
 2486SOL    MW4 9976   1.567   2.336   4.169
 2487SOL     OW 9977   1.591   2.922   4.180
 2487SOL    HW2 9978   1.594   2.895   4.272
 2487SOL    HW3 9979   1.663   2.875   4.139
 2487SOL    MW4 9980   1.601   2.912   4.187
 2488SOL     OW 9981   1.359   2.697   4.183
 2488SOL    HW2 9982   1.435   2.754   4.199
 2488SOL    HW3 9983   1.287   2.740   4.228
 2488SOL    MW4 9984   1.360   2.710   4.191
 2489SOL     OW 9985   1.600   2.339   4.558
 2489SOL    HW2 9986   1.595   2.388   4.640
 2489SOL    HW3 9987   1.677   2.283   4.568
 2489SOL    MW4 9988   1.610   2.338   4.570
 2490SOL     OW 9989   1.521   3.165   4.101
 2490SOL    HW2 9990   1.593   3.215   4.139
 2490SOL    HW3 9991   1.532   3.076   4.134
 2490SOL    MW4 9992   1.532   3.160   4.110
 2491SOL     OW 9993   1.244   3.257   4.260
 2491SOL    HW2 9994   1.332   3.227   4.236
 2491SOL    HW3 9995   1.250   3.352   4.258
 2491SOL    MW4 9996   1.257   3.266   4.257
 2492SOL     OW 9997   1.277   3.541   4.193
 2492SOL    HW2 9998   1.239   3.629   4.190
 2492SOL    HW3 9999   1.282   3.514   4.101
 2492SOL    MW410000   1.273   3.549   4.181
 2493SOL     OW10001   1.599   3.663   4.293
 2493SOL    HW210002   1.629   3.660   4.384
 2493SOL    HW310003   1.512   3.624   4.295
 2493SOL    MW410004   1.592   3.657   4.305
 2494SOL     OW10005   1.576   3.890   4.147
 2494SOL    HW210006   1.503   3.933   4.191
 2494SOL    HW310007   1.587   3.807   4.193
 2494SOL    MW410008   1.568   3.885   4.158
 2495SOL     OW10009   1.355   3.995   4.246
 2495SOL    HW210010   1.339   3.992   4.341
 2495SOL    HW310011   1.340   4.086   4.222
 2495SOL    MW410012   1.351   4.007   4.256
 2496SOL     OW10013   1.298   4.244   4.129
 2496SOL    HW210014   1.376   4.280   4.170
 2496SOL    HW310015   1.318   4.244   4.035
 2496SOL    MW410016   1.311   4.249   4.122
 2497SOL     OW10017   1.546   4.341   4.245
 2497SOL    HW210018   1.527   4.427   4.207
 2497SOL    HW310019   1.620   4.308   4.194
 2497SOL    MW410020   1.553   4.348   4.233
 2498SOL     OW10021   2.010   4.637   4.164
 2498SOL    HW210022   1.926   4.676   4.189
 2498SOL    HW310023   2.006   4.629   4.069
 2498SOL    MW410024   1.998   4.641   4.155
 2499SOL     OW10025   1.783   0.094   4.255
 2499SOL    HW210026   1.793   0.105   4.350
 2499SOL    HW310027   1.788   0.183   4.220
 2499SOL    MW410028   1.785   0.107   4.263
 2500SOL     OW10029   1.785   0.357   4.154
 2500SOL    HW210030   1.862   0.409   4.177
 2500SOL    HW310031   1.711   0.405   4.190
 2500SOL    MW410032   1.785   0.370   4.162
 2501SOL     OW10033   1.995   0.507   4.263
 2501SOL    HW210034   1.976   0.464   4.346
 2501SOL    HW310035   2.065   0.454   4.224
 2501SOL    MW410036   2.002   0.494   4.269
 2502SOL     OW10037   2.002   0.776   4.177
 2502SOL    HW210038   2.087   0.809   4.207
 2502SOL    HW310039   1.993   0.691   4.219
 2502SOL    MW410040   2.012   0.769   4.187
 2503SOL     OW10041   1.804   0.941   4.276
 2503SOL    HW210042   1.837   1.028   4.251
 2503SOL    HW310043   1.873   0.881   4.246
 2503SOL    MW410044   1.818   0.945   4.269
 2504SOL     OW10045   1.875   1.178   4.173
 2504SOL    HW210046   1.943   1.237   4.204
 2504SOL    HW310047   1.793   1.219   4.200
 2504SOL    MW410048   1.873   1.191   4.181
 2505SOL     OW10049   2.097   1.311   4.307
 2505SOL    HW210050   2.154   1.253   4.256
 2505SOL    HW310051   2.108   1.397   4.265
 2505SOL    MW410052   2.106   1.315   4.294
 2506SOL     OW10053   2.117   1.551   4.177
 2506SOL    HW210054   2.197   1.598   4.199
 2506SOL    HW310055   2.117   1.547   4.081
 2506SOL    MW410056   2.127   1.557   4.167
 2507SOL     OW10057   1.882   1.689   4.198
 2507SOL    HW210058   1.949   1.620   4.195
 2507SOL    HW310059   1.801   1.644   4.174
 2507SOL    MW410060   1.880   1.674   4.195
 2508SOL     OW10061   1.884   1.953   4.120
 2508SOL    HW210062   1.902   1.860   4.137
 2508SOL    HW310063   1.960   1.999   4.156
 2508SOL    MW410064   1.897   1.947   4.127
 2509SOL     OW10065   1.699   2.529   4.295
 2509SOL    HW210066   1.712   2.511   4.388
 2509SOL    HW310067   1.787   2.547   4.261
 2509SOL    MW410068   1.712   2.529   4.302
 2510SOL     OW10069   2.440   2.408   4.051
 2510SOL    HW210070   2.430   2.376   3.961
 2510SOL    HW310071   2.422   2.331   4.106
 2510SOL    MW410072   2.437   2.393   4.047
 2511SOL     OW10073   1.803   3.047   4.342
 2511SOL    HW210074   1.793   2.989   4.266
 2511SOL    HW310075   1.893   3.031   4.372
 2511SOL    MW410076   1.814   3.037   4.336
 2512SOL     OW10077   1.841   2.842   4.087
 2512SOL    HW210078   1.881   2.781   4.149
 2512SOL    HW310079   1.904   2.912   4.077
 2512SOL    MW410080   1.854   2.843   4.094
 2513SOL     OW10081   2.046   3.250   4.294
 2513SOL    HW210082   2.051   3.179   4.358
 2513SOL    HW310083   2.015   3.208   4.213
 2513SOL    MW410084   2.043   3.235   4.292
 2514SOL     OW10085   2.198   2.919   4.113
 2514SOL    HW210086   2.287   2.953   4.126
 2514SOL    HW310087   2.170   2.893   4.201
 2514SOL    MW410088   2.206   2.920   4.127
 2515SOL     OW10089   1.699   3.301   4.264
 2515SOL    HW210090   1.746   3.376   4.230
 2515SOL    HW310091   1.767   3.241   4.294
 2515SOL    MW410092   1.714   3.303   4.263
 2516SOL     OW10093   1.813   3.540   4.165
 2516SOL    HW210094   1.742   3.589   4.208
 2516SOL    HW310095   1.794   3.547   4.072
 2516SOL    MW410096   1.801   3.548   4.159
 2517SOL     OW10097   2.025   3.714   4.271
 2517SOL    HW210098   2.035   3.804   4.242
 2517SOL    HW310099   1.954   3.679   4.218
 2517SOL    MW410100   2.017   3.721   4.260
 2518SOL     OW10101   2.058   3.961   4.144
 2518SOL    HW210102   1.968   3.984   4.166
 2518SOL    HW310103   2.054   3.933   4.053
 2518SOL    MW410104   2.046   3.960   4.135
 2519SOL     OW10105   1.797   4.008   4.227
 2519SOL    HW210106   1.798   4.098   4.193
 2519SOL    HW310107   1.720   3.968   4.188
 2519SOL    MW410108   1.787   4.015   4.218
 2520SOL     OW10109   1.788   4.273   4.151
 2520SOL    HW210110   1.856   4.321   4.199
 2520SOL    HW310111   1.817   4.276   4.060
 2520SOL    MW410112   1.801   4.280   4.146
 2521SOL     OW10113   2.007   4.382   4.273
 2521SOL    HW210114   1.974   4.365   4.362
 2521SOL    HW310115   2.019   4.476   4.270
 2521SOL    MW410116   2.004   4.392   4.285
 2522SOL     OW10117   2.454   4.651   4.126
 2522SOL    HW210118   2.546   4.670   4.138
 2522SOL    HW310119   2.436   4.578   4.185
 2522SOL    MW410120   2.463   4.644   4.135
 2523SOL     OW10121   2.240   0.107   4.260
 2523SOL    HW210122   2.308   0.062   4.212
 2523SOL    HW310123   2.159   0.059   4.239
 2523SOL    MW410124   2.238   0.095   4.251
 2524SOL     OW10125   2.215   0.367   4.150
 2524SOL    HW210126   2.223   0.282   4.193
 2524SOL    HW310127   2.257   0.355   4.065
 2524SOL    MW410128   2.222   0.354   4.145
 2525SOL     OW10129   2.356   0.513   4.358
 2525SOL    HW210130   2.320   0.505   4.447
 2525SOL    HW310131   2.293   0.468   4.302
 2525SOL    MW410132   2.343   0.506   4.363
 2526SOL     OW10133   2.468   0.737   4.222
 2526SOL    HW210134   2.434   0.663   4.274
 2526SOL    HW310135   2.479   0.701   4.134
 2526SOL    MW410136   2.465   0.722   4.217
 2527SOL     OW10137   2.247   0.894   4.260
 2527SOL    HW210138   2.231   0.883   4.353
 2527SOL    HW310139   2.334   0.855   4.245
 2527SOL    MW410140   2.257   0.888   4.270
 2528SOL     OW10141   2.278   1.135   4.165
 2528SOL    HW210142   2.343   1.174   4.223
 2528SOL    HW310143   2.257   1.050   4.205
 2528SOL    MW410144   2.284   1.129   4.178
 2529SOL     OW10145   2.488   1.253   4.293
 2529SOL    HW210146   2.492   1.225   4.385
 2529SOL    HW310147   2.543   1.190   4.247
 2529SOL    MW410148   2.496   1.241   4.299
 2530SOL     OW10149   2.452   1.528   4.182
 2530SOL    HW210150   2.476   1.442   4.217
 2530SOL    HW310151   2.455   1.517   4.087
 2530SOL    MW410152   2.455   1.515   4.174
 2531SOL     OW10153   2.294   1.743   4.313
 2531SOL    HW210154   2.361   1.694   4.266
 2531SOL    HW310155   2.285   1.825   4.265
 2531SOL    MW410156   2.301   1.747   4.301
 2532SOL     OW10157   2.364   1.984   4.130
 2532SOL    HW210158   2.457   1.995   4.107
 2532SOL    HW310159   2.346   2.054   4.192
 2532SOL    MW410160   2.374   1.995   4.135
 2533SOL     OW10161   2.364   2.225   4.254
 2533SOL    HW210162   2.283   2.257   4.294
 2533SOL    HW310163   2.429   2.229   4.325
 2533SOL    MW410164   2.362   2.230   4.269
 2534SOL     OW10165   2.670   2.534   4.128
 2534SOL    HW210166   2.586   2.487   4.128
 2534SOL    HW310167   2.687   2.551   4.221
 2534SOL    MW410168   2.661   2.530   4.140
 2535SOL     OW10169   2.439   2.515   4.506
 2535SOL    HW210170   2.384   2.536   4.430
 2535SOL    HW310171   2.419   2.584   4.570
 2535SOL    MW410172   2.429   2.527   4.504
 2536SOL     OW10173   1.956   2.604   4.228
 2536SOL    HW210174   2.015   2.664   4.274
 2536SOL    HW310175   2.015   2.545   4.180
 2536SOL    MW410176   1.972   2.604   4.227
 2537SOL     OW10177   2.443   2.875   4.361
 2537SOL    HW210178   2.418   2.785   4.340
 2537SOL    HW310179   2.375   2.905   4.422
 2537SOL    MW410180   2.431   2.867   4.367
 2538SOL     OW10181   2.319   3.288   4.273
 2538SOL    HW210182   2.228   3.272   4.296
 2538SOL    HW310183   2.360   3.318   4.354
 2538SOL    MW410184   2.313   3.290   4.287
 2539SOL     OW10185   2.000   3.086   4.055
 2539SOL    HW210186   1.999   3.103   3.961
 2539SOL    HW310187   2.077   3.030   4.069
 2539SOL    MW410188   2.010   3.081   4.045
 2540SOL     OW10189   2.220   3.542   4.145
 2540SOL    HW210190   2.227   3.464   4.200
 2540SOL    HW310191   2.142   3.587   4.177
 2540SOL    MW410192   2.211   3.538   4.157
 2541SOL     OW10193   2.487   3.615   4.211
 2541SOL    HW210194   2.402   3.599   4.169
 2541SOL    HW310195   2.508   3.705   4.187
 2541SOL    MW410196   2.478   3.625   4.202
 2542SOL     OW10197   2.472   3.877   4.139
 2542SOL    HW210198   2.554   3.924   4.156
 2542SOL    HW310199   2.462   3.879   4.044
 2542SOL    MW410200   2.482   3.883   4.129
 2543SOL     OW10201   2.295   4.061   4.260
 2543SOL    HW210202   2.371   4.015   4.225
 2543SOL    HW310203   2.220   4.006   4.236
 2543SOL    MW410204   2.295   4.048   4.252
 2544SOL     OW10205   2.230   4.295   4.130
 2544SOL    HW210206   2.246   4.212   4.175
 2544SOL    HW310207   2.150   4.329   4.170
 2544SOL    MW410208   2.222   4.288   4.141
 2545SOL     OW10209   2.426   4.414   4.275
 2545SOL    HW210210   2.508   4.374   4.245
 2545SOL    HW310211   2.358   4.370   4.225
 2545SOL    MW410212   2.428   4.403   4.265
 2546SOL     OW10213   2.963   4.549   4.096
 2546SOL    HW210214   3.027   4.611   4.133
 2546SOL    HW310215   2.953   4.483   4.164
 2546SOL    MW410216   2.970   4.549   4.110
 2547SOL     OW10217   2.704   0.042   4.156
 2547SOL    HW210218   2.718   0.137   4.166
 2547SOL    HW310219   2.782   0.011   4.110
 2547SOL    MW410220   2.717   0.051   4.151
 2548SOL     OW10221   2.708   0.325   4.150
 2548SOL    HW210222   2.712   0.350   4.058
 2548SOL    HW310223   2.788   0.361   4.189
 2548SOL    MW410224   2.719   0.333   4.143
 2549SOL     OW10225   3.350   0.668   4.147
 2549SOL    HW210226   3.376   0.723   4.221
 2549SOL    HW310227   3.256   0.684   4.136
 2549SOL    MW410228   3.341   0.677   4.155
 2550SOL     OW10229   3.101   0.808   4.136
 2550SOL    HW210230   3.110   0.903   4.147
 2550SOL    HW310231   3.055   0.798   4.052
 2550SOL    MW410232   3.096   0.819   4.126
 2551SOL     OW10233   2.693   0.837   4.328
 2551SOL    HW210234   2.774   0.785   4.325
 2551SOL    HW310235   2.628   0.782   4.283
 2551SOL    MW410236   2.695   0.823   4.322
 2552SOL     OW10237   2.688   1.079   4.192
 2552SOL    HW210238   2.687   1.000   4.247
 2552SOL    HW310239   2.660   1.047   4.106
 2552SOL    MW410240   2.684   1.064   4.188
 2553SOL     OW10241   2.876   1.285   4.190
 2553SOL    HW210242   2.961   1.242   4.181
 2553SOL    HW310243   2.812   1.215   4.178
 2553SOL    MW410244   2.878   1.270   4.187
 2554SOL     OW10245   2.899   1.556   4.128
 2554SOL    HW210246   2.980   1.576   4.175
 2554SOL    HW310247   2.881   1.464   4.148
 2554SOL    MW410248   2.907   1.547   4.137
 2555SOL     OW10249   2.710   1.740   4.211
 2555SOL    HW210250   2.777   1.675   4.189
 2555SOL    HW310251   2.627   1.693   4.206
 2555SOL    MW410252   2.708   1.726   4.208
 2556SOL     OW10253   2.627   1.956   4.064
 2556SOL    HW210254   2.666   1.878   4.103
 2556SOL    HW310255   2.630   1.940   3.970
 2556SOL    MW410256   2.632   1.944   4.057
 2557SOL     OW10257   2.852   2.092   4.156
 2557SOL    HW210258   2.855   2.179   4.117
 2557SOL    HW310259   2.770   2.055   4.124
 2557SOL    MW410260   2.841   2.099   4.146
 2558SOL     OW10261   2.861   2.349   4.063
 2558SOL    HW210262   2.940   2.374   4.112
 2558SOL    HW310263   2.795   2.412   4.090
 2558SOL    MW410264   2.863   2.360   4.073
 2559SOL     OW10265   2.788   3.251   4.408
 2559SOL    HW210266   2.803   3.344   4.426
 2559SOL    HW310267   2.729   3.222   4.478
 2559SOL    MW410268   2.782   3.259   4.419
 2560SOL     OW10269   2.437   3.060   4.154
 2560SOL    HW210270   2.459   2.998   4.224
 2560SOL    HW310271   2.388   3.129   4.198
 2560SOL    MW410272   2.433   3.061   4.169
 2561SOL     OW10273   2.933   2.917   4.113
 2561SOL    HW210274   2.968   2.982   4.174
 2561SOL    HW310275   2.927   2.962   4.029
 2561SOL    MW410276   2.937   2.931   4.110
 2562SOL     OW10277   3.015   3.097   4.347
 2562SOL    HW210278   3.042   3.046   4.423
 2562SOL    HW310279   2.930   3.133   4.371
 2562SOL    MW410280   3.007   3.095   4.360
 2563SOL     OW10281   2.688   3.214   4.157
 2563SOL    HW210282   2.606   3.165   4.149
 2563SOL    HW310283   2.710   3.209   4.250
 2563SOL    MW410284   2.680   3.207   4.168
 2564SOL     OW10285   2.716   3.494   4.120
 2564SOL    HW210286   2.706   3.401   4.142
 2564SOL    HW310287   2.642   3.537   4.163
 2564SOL    MW410288   2.705   3.487   4.129
 2565SOL     OW10289   2.916   3.682   4.153
 2565SOL    HW210290   2.909   3.715   4.243
 2565SOL    HW310291   2.848   3.615   4.147
 2565SOL    MW410292   2.906   3.678   4.164
 2566SOL     OW10293   2.941   3.950   4.085
 2566SOL    HW210294   2.992   3.989   4.156
 2566SOL    HW310295   2.944   3.856   4.101
 2566SOL    MW410296   2.949   3.943   4.096
 2567SOL     OW10297   2.710   3.989   4.225
 2567SOL    HW210298   2.689   4.082   4.218
 2567SOL    HW310299   2.783   3.977   4.165
 2567SOL    MW410300   2.717   4.000   4.216
 2568SOL     OW10301   2.666   4.265   4.180
 2568SOL    HW210302   2.744   4.312   4.210
 2568SOL    HW310303   2.663   4.282   4.086
 2568SOL    MW410304   2.676   4.274   4.172
 2569SOL     OW10305   2.863   4.416   4.310
 2569SOL    HW210306   2.842   4.496   4.359
 2569SOL    HW310307   2.881   4.351   4.378
 2569SOL    MW410308   2.862   4.418   4.326
 2570SOL     OW10309   3.382   4.630   4.136
 2570SOL    HW210310   3.445   4.664   4.200
 2570SOL    HW310311   3.381   4.535   4.153
 2570SOL    MW410312   3.391   4.622   4.147
 2571SOL     OW10313   3.143   0.076   4.166
 2571SOL    HW210314   3.126   0.058   4.259
 2571SOL    HW310315   3.230   0.039   4.150
 2571SOL    MW410316   3.152   0.069   4.176
 2572SOL     OW10317   3.178   0.352   4.101
 2572SOL    HW210318   3.240   0.371   4.172
 2572SOL    HW310319   3.169   0.256   4.102
 2572SOL    MW410320   3.185   0.342   4.111
 2573SOL     OW10321   3.366   0.435   4.298
 2573SOL    HW210322   3.451   0.405   4.266
 2573SOL    HW310323   3.355   0.523   4.262
 2573SOL    MW410324   3.376   0.442   4.289
 2574SOL     OW10325   3.474   0.763   4.385
 2574SOL    HW210326   3.494   0.850   4.419
 2574SOL    HW310327   3.404   0.731   4.443
 2574SOL    MW410328   3.467   0.770   4.398
 2575SOL     OW10329   3.175   1.092   4.629
 2575SOL    HW210330   3.210   1.018   4.678
 2575SOL    HW310331   3.082   1.070   4.616
 2575SOL    MW410332   3.167   1.079   4.634
 2576SOL     OW10333   3.094   1.091   4.170
 2576SOL    HW210334   3.171   1.109   4.223
 2576SOL    HW310335   3.121   1.113   4.081
 2576SOL    MW410336   3.108   1.096   4.165
 2577SOL     OW10337   3.541   1.036   4.406
 2577SOL    HW210338   3.585   1.074   4.482
 2577SOL    HW310339   3.465   1.093   4.392
 2577SOL    MW410340   3.536   1.049   4.414
 2578SOL     OW10341   3.263   1.449   4.358
 2578SOL    HW210342   3.283   1.514   4.290
 2578SOL    HW310343   3.338   1.451   4.416
 2578SOL    MW410344   3.275   1.458   4.356
 2579SOL     OW10345   3.084   1.704   4.242
 2579SOL    HW210346   3.084   1.730   4.334
 2579SOL    HW310347   3.085   1.787   4.194
 2579SOL    MW410348   3.084   1.719   4.248
 2580SOL     OW10349   3.102   1.966   4.127
 2580SOL    HW210350   3.172   2.014   4.172
 2580SOL    HW310351   3.023   2.015   4.147
 2580SOL    MW410352   3.101   1.979   4.136
 2581SOL     OW10353   3.311   2.104   4.259
 2581SOL    HW210354   3.397   2.063   4.243
 2581SOL    HW310355   3.314   2.185   4.209
 2581SOL    MW410356   3.323   2.109   4.250
 2582SOL     OW10357   3.337   2.339   4.084
 2582SOL    HW210358   3.420   2.367   4.123
 2582SOL    HW310359   3.355   2.337   3.990
 2582SOL    MW410360   3.350   2.343   4.077
 2583SOL     OW10361   3.073   2.436   4.229
 2583SOL    HW210362   3.096   2.520   4.267
 2583SOL    HW310363   3.149   2.412   4.176
 2583SOL    MW410364   3.086   2.444   4.227
 2584SOL     OW10365   3.129   2.748   4.213
 2584SOL    HW210366   3.215   2.790   4.209
 2584SOL    HW310367   3.069   2.813   4.177
 2584SOL    MW410368   3.133   2.762   4.208
 2585SOL     OW10369   3.376   2.857   4.197
 2585SOL    HW210370   3.404   2.949   4.197
 2585SOL    HW310371   3.458   2.808   4.186
 2585SOL    MW410372   3.391   2.863   4.196
 2586SOL     OW10373   3.431   3.129   4.197
 2586SOL    HW210374   3.363   3.175   4.245
 2586SOL    HW310375   3.413   3.148   4.105
 2586SOL    MW410376   3.420   3.137   4.191
 2587SOL     OW10377   3.216   3.276   4.299
 2587SOL    HW210378   3.191   3.335   4.228
 2587SOL    HW310379   3.148   3.209   4.299
 2587SOL    MW410380   3.204   3.275   4.290
 2588SOL     OW10381   3.130   3.477   4.132
 2588SOL    HW210382   3.048   3.516   4.163
 2588SOL    HW310383   3.118   3.468   4.037
 2588SOL    MW410384   3.118   3.481   4.123
 2589SOL     OW10385   3.272   3.694   4.192
 2589SOL    HW210386   3.253   3.711   4.284
 2589SOL    HW310387   3.219   3.618   4.170
 2589SOL    MW410388   3.263   3.686   4.201
 2590SOL     OW10389   3.313   3.941   4.076
 2590SOL    HW210390   3.286   3.858   4.114
 2590SOL    HW310391   3.336   3.920   3.986
 2590SOL    MW410392   3.312   3.928   4.069
 2591SOL     OW10393   3.075   4.060   4.297
 2591SOL    HW210394   3.145   4.034   4.357
 2591SOL    HW310395   3.115   4.127   4.242
 2591SOL    MW410396   3.090   4.065   4.297
 2592SOL     OW10397   3.184   4.186   4.087
 2592SOL    HW210398   3.254   4.246   4.112
 2592SOL    HW310399   3.226   4.100   4.080
 2592SOL    MW410400   3.199   4.182   4.089
 2593SOL     OW10401   3.383   4.365   4.201
 2593SOL    HW210402   3.360   4.368   4.294
 2593SOL    HW310403   3.470   4.325   4.199
 2593SOL    MW410404   3.391   4.360   4.213
 2594SOL     OW10405   3.812   4.636   4.152
 2594SOL    HW210406   3.887   4.692   4.170
 2594SOL    HW310407   3.808   4.632   4.056
 2594SOL    MW410408   3.821   4.643   4.141
 2595SOL     OW10409   3.593   0.055   4.306
 2595SOL    HW210410   3.595   0.142   4.267
 2595SOL    HW310411   3.668   0.009   4.266
 2595SOL    MW410412   3.604   0.060   4.296
 2596SOL     OW10413   3.580   0.307   4.166
 2596SOL    HW210414   3.660   0.352   4.192
 2596SOL    HW310415   3.567   0.332   4.074
 2596SOL    MW410416   3.589   0.316   4.157
 2597SOL     OW10417   3.798   0.433   4.302
 2597SOL    HW210418   3.848   0.383   4.366
 2597SOL    HW310419   3.780   0.516   4.345
 2597SOL    MW410420   3.802   0.437   4.316
 2598SOL     OW10421   3.856   0.812   4.157
 2598SOL    HW210422   3.783   0.874   4.159
 2598SOL    HW310423   3.876   0.802   4.064
 2598SOL    MW410424   3.849   0.819   4.145
 2599SOL     OW10425   3.746   0.686   4.393
 2599SOL    HW210426   3.656   0.718   4.386
 2599SOL    HW310427   3.789   0.720   4.315
 2599SOL    MW410428   3.740   0.695   4.382
 2600SOL     OW10429   3.720   1.053   4.167
 2600SOL    HW210430   3.673   1.048   4.250
 2600SOL    HW310431   3.652   1.069   4.102
 2600SOL    MW410432   3.705   1.054   4.170
 2601SOL     OW10433   3.795   1.326   4.211
 2601SOL    HW210434   3.768   1.235   4.201
 2601SOL    HW310435   3.802   1.340   4.305
 2601SOL    MW410436   3.793   1.316   4.222
 2602SOL     OW10437   3.754   1.618   4.141
 2602SOL    HW210438   3.756   1.523   4.155
 2602SOL    HW310439   3.833   1.650   4.184
 2602SOL    MW410440   3.765   1.610   4.149
 2603SOL     OW10441   3.538   1.959   4.174
 2603SOL    HW210442   3.532   1.957   4.078
 2603SOL    HW310443   3.535   1.867   4.200
 2603SOL    MW410444   3.537   1.946   4.165
 2604SOL     OW10445   3.322   1.569   4.117
 2604SOL    HW210446   3.345   1.556   4.025
 2604SOL    HW310447   3.240   1.619   4.115
 2604SOL    MW410448   3.314   1.574   4.105
 2605SOL     OW10449   3.787   2.068   4.236
 2605SOL    HW210450   3.799   2.071   4.331
 2605SOL    HW310451   3.701   2.029   4.224
 2605SOL    MW410452   3.777   2.064   4.247
 2606SOL     OW10453   3.811   2.311   4.112
 2606SOL    HW210454   3.809   2.221   4.145
 2606SOL    HW310455   3.819   2.302   4.017
 2606SOL    MW410456   3.812   2.298   4.104
 2607SOL     OW10457   3.551   2.438   4.228
 2607SOL    HW210458   3.500   2.428   4.308
 2607SOL    HW310459   3.632   2.390   4.245
 2607SOL    MW410460   3.555   2.430   4.241
 2608SOL     OW10461   3.617   2.711   4.168
 2608SOL    HW210462   3.610   2.620   4.197
 2608SOL    HW310463   3.610   2.707   4.073
 2608SOL    MW410464   3.615   2.698   4.159
 2609SOL     OW10465   3.842   2.875   4.259
 2609SOL    HW210466   3.855   2.859   4.353
 2609SOL    HW310467   3.753   2.845   4.242
 2609SOL    MW410468   3.832   2.869   4.269
 2610SOL     OW10469   3.854   3.126   4.158
 2610SOL    HW210470   3.855   3.034   4.185
 2610SOL    HW310471   3.838   3.123   4.064
 2610SOL    MW410472   3.852   3.113   4.149
 2611SOL     OW10473   3.655   3.290   4.209
 2611SOL    HW210474   3.724   3.225   4.197
 2611SOL    HW310475   3.575   3.239   4.219
 2611SOL    MW410476   3.654   3.275   4.209
 2612SOL     OW10477   3.523   3.576   4.142
 2612SOL    HW210478   3.507   3.501   4.199
 2612SOL    HW310479   3.450   3.636   4.159
 2612SOL    MW410480   3.511   3.574   4.152
 2613SOL     OW10481   3.762   3.635   4.250
 2613SOL    HW210482   3.828   3.569   4.228
 2613SOL    HW310483   3.684   3.607   4.202
 2613SOL    MW410484   3.761   3.623   4.241
 2614SOL     OW10485   3.813   3.894   4.138
 2614SOL    HW210486   3.722   3.922   4.151
 2614SOL    HW310487   3.822   3.816   4.192
 2614SOL    MW410488   3.802   3.888   4.147
 2615SOL     OW10489   3.549   3.987   4.181
 2615SOL    HW210490   3.539   3.973   4.275
 2615SOL    HW310491   3.461   3.973   4.146
 2615SOL    MW410492   3.536   3.983   4.188
 2616SOL     OW10493   3.643   4.248   4.148
 2616SOL    HW210494   3.717   4.274   4.203
 2616SOL    HW310495   3.633   4.154   4.163
 2616SOL    MW410496   3.651   4.239   4.157
 2617SOL     OW10497   3.852   4.394   4.247
 2617SOL    HW210498   3.930   4.358   4.205
 2617SOL    HW310499   3.846   4.484   4.216
 2617SOL    MW410500   3.861   4.401   4.237
 2618SOL     OW10501   4.277   4.596   4.159
 2618SOL    HW210502   4.299   4.518   4.210
 2618SOL    HW310503   4.337   4.663   4.192
 2618SOL    MW410504   4.288   4.595   4.170
 2619SOL     OW10505   4.043   0.092   4.229
 2619SOL    HW210506   4.061   0.185   4.210
 2619SOL    HW310507   4.121   0.046   4.199
 2619SOL    MW410508   4.055   0.098   4.222
 2620SOL     OW10509   4.027   0.393   4.134
 2620SOL    HW210510   4.092   0.462   4.144
 2620SOL    HW310511   3.955   0.418   4.193
 2620SOL    MW410512   4.026   0.405   4.143
 2621SOL     OW10513   4.255   0.550   4.209
 2621SOL    HW210514   4.266   0.640   4.180
 2621SOL    HW310515   4.337   0.506   4.185
 2621SOL    MW410516   4.267   0.556   4.202
 2622SOL     OW10517   4.270   0.813   4.137
 2622SOL    HW210518   4.191   0.846   4.180
 2622SOL    HW310519   4.245   0.801   4.046
 2622SOL    MW410520   4.256   0.816   4.131
 2623SOL     OW10521   4.071   0.956   4.272
 2623SOL    HW210522   4.058   1.037   4.223
 2623SOL    HW310523   3.991   0.906   4.258
 2623SOL    MW410524   4.059   0.960   4.264
 2624SOL     OW10525   4.035   1.235   4.155
 2624SOL    HW210526   4.114   1.276   4.190
 2624SOL    HW310527   3.965   1.296   4.178
 2624SOL    MW410528   4.036   1.248   4.163
 2625SOL     OW10529   4.283   1.313   4.309
 2625SOL    HW210530   4.310   1.373   4.379
 2625SOL    HW310531   4.361   1.259   4.293
 2625SOL    MW410532   4.297   1.314   4.316
 2626SOL     OW10533   4.413   1.519   4.156
 2626SOL    HW210534   4.353   1.452   4.188
 2626SOL    HW310535   4.373   1.551   4.075
 2626SOL    MW410536   4.400   1.514   4.149
 2627SOL     OW10537   4.206   1.757   4.471
 2627SOL    HW210538   4.182   1.670   4.503
 2627SOL    HW310539   4.295   1.747   4.439
 2627SOL    MW410540   4.215   1.744   4.471
 2628SOL     OW10541   3.992   1.931   4.107
 2628SOL    HW210542   4.003   1.853   4.162
 2628SOL    HW310543   3.917   1.976   4.145
 2628SOL    MW410544   3.984   1.927   4.119
 2629SOL     OW10545   4.465   1.932   4.152
 2629SOL    HW210546   4.537   1.991   4.175
 2629SOL    HW310547   4.386   1.981   4.172
 2629SOL    MW410548   4.464   1.946   4.158
 2630SOL     OW10549   4.237   2.299   4.125
 2630SOL    HW210550   4.156   2.345   4.146
 2630SOL    HW310551   4.218   2.207   4.144
 2630SOL    MW410552   4.224   2.293   4.130
 2631SOL     OW10553   4.026   2.450   4.220
 2631SOL    HW210554   4.041   2.441   4.314
 2631SOL    HW310555   3.946   2.401   4.203
 2631SOL    MW410556   4.018   2.442   4.230
 2632SOL     OW10557   4.019   2.708   4.103
 2632SOL    HW210558   4.022   2.625   4.150
 2632SOL    HW310559   3.958   2.762   4.154
 2632SOL    MW410560   4.011   2.704   4.116
 2633SOL     OW10561   4.247   2.813   4.218
 2633SOL    HW210562   4.180   2.784   4.155
 2633SOL    HW310563   4.327   2.770   4.189
 2633SOL    MW410564   4.249   2.803   4.206
 2634SOL     OW10565   4.297   3.108   4.192
 2634SOL    HW210566   4.285   3.013   4.199
 2634SOL    HW310567   4.280   3.128   4.100
 2634SOL    MW410568   4.293   3.098   4.181
 2635SOL     OW10569   4.085   3.250   4.300
 2635SOL    HW210570   4.155   3.196   4.265
 2635SOL    HW310571   4.005   3.212   4.263
 2635SOL    MW410572   4.084   3.238   4.290
 2636SOL     OW10573   4.004   3.503   4.160
 2636SOL    HW210574   4.011   3.411   4.187
 2636SOL    HW310575   3.985   3.499   4.066
 2636SOL    MW410576   4.002   3.490   4.151
 2637SOL     OW10577   4.230   3.609   4.306
 2637SOL    HW210578   4.252   3.694   4.268
 2637SOL    HW310579   4.150   3.583   4.261
 2637SOL    MW410580   4.222   3.617   4.295
 2638SOL     OW10581   4.295   3.831   4.166
 2638SOL    HW210582   4.214   3.876   4.190
 2638SOL    HW310583   4.286   3.813   4.072
 2638SOL    MW410584   4.283   3.834   4.157
 2639SOL     OW10585   4.079   3.986   4.235
 2639SOL    HW210586   4.072   3.978   4.330
 2639SOL    HW310587   3.994   3.957   4.203
 2639SOL    MW410588   4.067   3.981   4.243
 2640SOL     OW10589   4.092   4.247   4.154
 2640SOL    HW210590   4.163   4.284   4.206
 2640SOL    HW310591   4.091   4.154   4.177
 2640SOL    MW410592   4.101   4.240   4.164
 2641SOL     OW10593   4.266   4.162   4.527
 2641SOL    HW210594   4.288   4.071   4.508
 2641SOL    HW310595   4.186   4.157   4.580
 2641SOL    MW410596   4.258   4.149   4.531
 2642SOL     OW10597   3.969   4.162   4.597
 2642SOL    HW210598   3.917   4.131   4.670
 2642SOL    HW310599   3.935   4.250   4.579
 2642SOL    MW410600   3.958   4.169   4.604
 2643SOL     OW10601   4.226   4.570   4.529
 2643SOL    HW210602   4.198   4.488   4.488
 2643SOL    HW310603   4.150   4.627   4.522
 2643SOL    MW410604   4.213   4.567   4.522
 2644SOL     OW10605   4.009   0.059   4.514
 2644SOL    HW210606   3.936   0.016   4.560
 2644SOL    HW310607   3.984   0.056   4.422
 2644SOL    MW410608   3.996   0.053   4.508
 2645SOL     OW10609   4.133   1.504   4.564
 2645SOL    HW210610   4.227   1.491   4.575
 2645SOL    HW310611   4.101   1.418   4.535
 2645SOL    MW410612   4.141   1.491   4.561
 2646SOL     OW10613   0.406   0.223   4.523
 2646SOL    HW210614   0.402   0.152   4.587
 2646SOL    HW310615   0.465   0.288   4.563
 2646SOL    MW410616   0.413   0.222   4.537
 2647SOL     OW10617   0.261   0.753   4.605
 2647SOL    HW210618   0.312   0.766   4.685
 2647SOL    HW310619   0.225   0.664   4.614
 2647SOL    MW410620   0.263   0.743   4.617
 2648SOL     OW10621   4.296   0.702   4.558
 2648SOL    HW210622   4.309   0.608   4.554
 2648SOL    HW310623   4.383   0.739   4.545
 2648SOL    MW410624   4.309   0.695   4.556
 2649SOL     OW10625   0.678   1.372   4.477
 2649SOL    HW210626   0.721   1.457   4.485
 2649SOL    HW310627   0.597   1.382   4.527
 2649SOL    MW410628   0.673   1.385   4.485
 2650SOL     OW10629   1.206   1.949   4.439
 2650SOL    HW210630   1.300   1.936   4.425
 2650SOL    HW310631   1.200   1.993   4.524
 2650SOL    MW410632   1.217   1.953   4.448
 2651SOL     OW10633   4.092   1.230   4.498
 2651SOL    HW210634   4.098   1.136   4.510
 2651SOL    HW310635   4.161   1.251   4.435
 2651SOL    MW410636   4.102   1.221   4.491
 2652SOL     OW10637   0.124   1.681   4.564
 2652SOL    HW210638   0.071   1.718   4.493
 2652SOL    HW310639   0.121   1.747   4.633
 2652SOL    MW410640   0.117   1.695   4.563
 2653SOL     OW10641   0.421   1.676   4.239
 2653SOL    HW210642   0.343   1.633   4.204
 2653SOL    HW310643   0.494   1.631   4.195
 2653SOL    MW410644   0.421   1.664   4.228
 2654SOL     OW10645   0.050   1.926   4.697
 2654SOL    HW210646   0.088   1.988   4.635
 2654SOL    HW310647  -0.027   1.971   4.733
 2654SOL    MW410648   0.045   1.940   4.694
 2655SOL     OW10649   4.280   2.272   4.557
 2655SOL    HW210650   4.370   2.302   4.545
 2655SOL    HW310651   4.227   2.352   4.551
 2655SOL    MW410652   4.285   2.287   4.554
 2656SOL     OW10653   0.654   2.994   4.561
 2656SOL    HW210654   0.697   2.910   4.549
 2656SOL    HW310655   0.725   3.058   4.553
 2656SOL    MW410656   0.669   2.992   4.558
 2657SOL     OW10657   0.285   3.040   4.610
 2657SOL    HW210658   0.354   3.076   4.666
 2657SOL    HW310659   0.282   3.099   4.535
 2657SOL    MW410660   0.294   3.052   4.607
 2658SOL     OW10661   0.062   2.355   4.481
 2658SOL    HW210662   0.010   2.386   4.407
 2658SOL    HW310663   0.129   2.423   4.493
 2658SOL    MW410664   0.064   2.368   4.473
 2659SOL     OW10665   3.770   3.349   4.440
 2659SOL    HW210666   3.754   3.335   4.346
 2659SOL    HW310667   3.781   3.261   4.476
 2659SOL    MW410668   3.769   3.336   4.432
 2660SOL     OW10669   0.366   3.356   4.557
 2660SOL    HW210670   0.286   3.377   4.605
 2660SOL    HW310671   0.423   3.316   4.622
 2660SOL    MW410672   0.363   3.353   4.572
 2661SOL     OW10673   4.046   3.901   4.503
 2661SOL    HW210674   3.982   3.833   4.521
 2661SOL    HW310675   4.006   3.981   4.536
 2661SOL    MW410676   4.032   3.903   4.510
 2662SOL     OW10677   0.000   4.652   4.586
 2662SOL    HW210678  -0.089   4.620   4.573
 2662SOL    HW310679  -0.003   4.743   4.557
 2662SOL    MW410680  -0.012   4.660   4.580
 2663SOL     OW10681   3.287   0.419   4.580
 2663SOL    HW210682   3.329   0.418   4.494
 2663SOL    HW310683   3.196   0.396   4.562
 2663SOL    MW410684   3.281   0.416   4.566
 2664SOL     OW10685   3.812   4.021   4.762
 2664SOL    HW210686   3.795   3.928   4.778
 2664SOL    HW310687   3.726   4.062   4.764
 2664SOL    MW410688   3.798   4.014   4.765
 2665SOL     OW10689   3.554   3.709   4.601
 2665SOL    HW210690   3.644   3.721   4.572
 2665SOL    HW310691   3.522   3.636   4.547
 2665SOL    MW410692   3.561   3.701   4.590
 2666SOL     OW10693   0.484   4.614   4.637
 2666SOL    HW210694   0.551   4.546   4.642
 2666SOL    HW310695   0.404   4.567   4.612
 2666SOL    MW410696   0.482   4.599   4.634
 2667SOL     OW10697   4.061   0.557   4.658
 2667SOL    HW210698   4.127   0.619   4.626
 2667SOL    HW310699   3.983   0.611   4.673
 2667SOL    MW410700   4.060   0.572   4.656
 2668SOL     OW10701   1.109   0.791   4.670
 2668SOL    HW210702   1.044   0.855   4.643
 2668SOL    HW310703   1.114   0.729   4.597
 2668SOL    MW410704   1.101   0.791   4.657
 2669SOL     OW10705   0.661   0.172   4.701
 2669SOL    HW210706   0.728   0.138   4.642
 2669SOL    HW310707   0.598   0.100   4.710
 2669SOL    MW410708   0.661   0.158   4.694
 2670SOL     OW10709   0.893   0.958   4.551
 2670SOL    HW210710   0.891   0.956   4.455
 2670SOL    HW310711   0.820   0.903   4.577
 2670SOL    MW410712   0.883   0.950   4.541
 2671SOL     OW10713   0.440   0.944   4.473
 2671SOL    HW210714   0.477   0.932   4.385
 2671SOL    HW310715   0.367   0.882   4.477
 2671SOL    MW410716   0.435   0.934   4.462
 2672SOL     OW10717   2.192   1.225   4.545
 2672SOL    HW210718   2.160   1.262   4.463
 2672SOL    HW310719   2.286   1.214   4.531
 2672SOL    MW410720   2.200   1.228   4.533
 2673SOL     OW10721   0.390   1.640   4.517
 2673SOL    HW210722   0.301   1.667   4.541
 2673SOL    HW310723   0.387   1.631   4.422
 2673SOL    MW410724   0.378   1.642   4.508
 2674SOL     OW10725   1.382   1.076   4.486
 2674SOL    HW210726   1.350   1.036   4.405
 2674SOL    HW310727   1.314   1.139   4.510
 2674SOL    MW410728   1.369   1.079   4.478
 2675SOL     OW10729   0.807   1.626   4.472
 2675SOL    HW210730   0.765   1.698   4.518
 2675SOL    HW310731   0.899   1.633   4.494
 2675SOL    MW410732   0.813   1.636   4.481
 2676SOL     OW10733   0.669   2.105   4.523
 2676SOL    HW210734   0.740   2.170   4.523
 2676SOL    HW310735   0.707   2.029   4.568
 2676SOL    MW410736   0.684   2.103   4.529
 2677SOL     OW10737   1.074   1.671   4.537
 2677SOL    HW210738   1.156   1.626   4.556
 2677SOL    HW310739   1.099   1.745   4.481
 2677SOL    MW410740   1.088   1.675   4.532
 2678SOL     OW10741   0.423   2.141   4.643
 2678SOL    HW210742   0.508   2.128   4.600
 2678SOL    HW310743   0.429   2.229   4.680
 2678SOL    MW410744   0.435   2.151   4.642
 2679SOL     OW10745   1.060   2.578   4.779
 2679SOL    HW210746   1.090   2.665   4.750
 2679SOL    HW310747   0.966   2.578   4.761
 2679SOL    MW410748   1.052   2.589   4.773
 2680SOL     OW10749   0.785   2.510   4.644
 2680SOL    HW210750   0.701   2.471   4.666
 2680SOL    HW310751   0.832   2.441   4.598
 2680SOL    MW410752   0.780   2.496   4.641
 2681SOL     OW10753   0.877   3.183   4.534
 2681SOL    HW210754   0.962   3.202   4.573
 2681SOL    HW310755   0.823   3.259   4.554
 2681SOL    MW410756   0.881   3.195   4.542
 2682SOL     OW10757   0.736   3.390   4.636
 2682SOL    HW210758   0.677   3.462   4.614
 2682SOL    HW310759   0.821   3.431   4.649
 2682SOL    MW410760   0.739   3.405   4.635
 2683SOL     OW10761   1.243   4.432   4.490
 2683SOL    HW210762   1.317   4.403   4.544
 2683SOL    HW310763   1.280   4.500   4.433
 2683SOL    MW410764   1.258   4.437   4.489
 2684SOL     OW10765   0.312   2.516   4.566
 2684SOL    HW210766   0.325   2.496   4.473
 2684SOL    HW310767   0.285   2.608   4.567
 2684SOL    MW410768   0.310   2.525   4.554
 2685SOL     OW10769   4.406   3.293   4.532
 2685SOL    HW210770   4.327   3.347   4.521
 2685SOL    HW310771   4.448   3.296   4.446
 2685SOL    MW410772   4.401   3.301   4.519
 2686SOL     OW10773   1.289   3.390   4.610
 2686SOL    HW210774   1.368   3.380   4.557
 2686SOL    HW310775   1.239   3.310   4.592
 2686SOL    MW410776   1.293   3.378   4.601
 2687SOL     OW10777   0.092   4.226   4.583
 2687SOL    HW210778   0.115   4.134   4.599
 2687SOL    HW310779   0.003   4.235   4.619
 2687SOL    MW410780   0.083   4.215   4.590
 2688SOL     OW10781   0.225   3.899   4.336
 2688SOL    HW210782   0.236   3.804   4.338
 2688SOL    HW310783   0.173   3.918   4.413
 2688SOL    MW410784   0.219   3.889   4.346
 2689SOL     OW10785   0.237   4.487   4.539
 2689SOL    HW210786   0.170   4.550   4.566
 2689SOL    HW310787   0.200   4.402   4.560
 2689SOL    MW410788   0.223   4.484   4.545
 2690SOL     OW10789   0.566   0.429   4.652
 2690SOL    HW210790   0.633   0.459   4.591
 2690SOL    HW310791   0.601   0.348   4.689
 2690SOL    MW410792   0.579   0.422   4.649
 2691SOL     OW10793   0.996   4.542   4.594
 2691SOL    HW210794   0.943   4.463   4.581
 2691SOL    HW310795   1.079   4.522   4.551
 2691SOL    MW410796   1.000   4.529   4.587
 2692SOL     OW10797   0.553   0.661   4.817
 2692SOL    HW210798   0.572   0.635   4.907
 2692SOL    HW310799   0.562   0.580   4.766
 2692SOL    MW410800   0.557   0.647   4.822
 2693SOL     OW10801   1.400   0.793   4.591
 2693SOL    HW210802   1.387   0.884   4.562
 2693SOL    HW310803   1.320   0.772   4.639
 2693SOL    MW410804   1.387   0.802   4.593
 2694SOL     OW10805   1.768   1.080   4.675
 2694SOL    HW210806   1.712   1.095   4.752
 2694SOL    HW310807   1.836   1.148   4.681
 2694SOL    MW410808   1.770   1.091   4.686
 2695SOL     OW10809   0.301   1.186   4.525
 2695SOL    HW210810   0.353   1.108   4.509
 2695SOL    HW310811   0.361   1.247   4.568
 2695SOL    MW410812   0.316   1.184   4.529
 2696SOL     OW10813   1.001   1.840   4.760
 2696SOL    HW210814   1.033   1.759   4.719
 2696SOL    HW310815   1.065   1.906   4.733
 2696SOL    MW410816   1.014   1.838   4.751
 2697SOL     OW10817   0.914   1.234   4.555
 2697SOL    HW210818   0.837   1.271   4.510
 2697SOL    HW310819   0.893   1.141   4.565
 2697SOL    MW410820   0.901   1.227   4.550
 2698SOL     OW10821   1.948   1.305   4.681
 2698SOL    HW210822   2.038   1.287   4.654
 2698SOL    HW310823   1.935   1.397   4.658
 2698SOL    MW410824   1.958   1.315   4.674
 2699SOL     OW10825   1.182   1.300   4.472
 2699SOL    HW210826   1.103   1.283   4.522
 2699SOL    HW310827   1.207   1.390   4.493
 2699SOL    MW410828   1.175   1.309   4.481
 2700SOL     OW10829   1.122   2.340   4.648
 2700SOL    HW210830   1.106   2.417   4.703
 2700SOL    HW310831   1.203   2.359   4.602
 2700SOL    MW410832   1.130   2.353   4.649
 2701SOL     OW10833   1.563   2.518   4.750
 2701SOL    HW210834   1.635   2.578   4.769
 2701SOL    HW310835   1.501   2.569   4.698
 2701SOL    MW410836   1.564   2.532   4.746
 2702SOL     OW10837   1.404   3.015   4.617
 2702SOL    HW210838   1.493   3.049   4.628
 2702SOL    HW310839   1.416   2.926   4.583
 2702SOL    MW410840   1.417   3.008   4.614
 2703SOL     OW10841   1.557   3.356   4.496
 2703SOL    HW210842   1.588   3.290   4.559
 2703SOL    HW310843   1.600   3.333   4.414
 2703SOL    MW410844   1.566   3.344   4.494
 2704SOL     OW10845   0.779   2.755   4.483
 2704SOL    HW210846   0.871   2.777   4.495
 2704SOL    HW310847   0.769   2.669   4.524
 2704SOL    MW410848   0.790   2.747   4.490
 2705SOL     OW10849   0.846   4.330   4.518
 2705SOL    HW210850   0.812   4.348   4.430
 2705SOL    HW310851   0.881   4.241   4.512
 2705SOL    MW410852   0.846   4.321   4.506
 2706SOL     OW10853   1.180   2.814   4.691
 2706SOL    HW210854   1.136   2.849   4.613
 2706SOL    HW310855   1.212   2.892   4.737
 2706SOL    MW410856   1.178   2.829   4.687
 2707SOL     OW10857   1.011   2.900   4.474
 2707SOL    HW210858   1.022   2.996   4.476
 2707SOL    HW310859   1.041   2.875   4.387
 2707SOL    MW410860   1.016   2.910   4.463
 2708SOL     OW10861   1.700   3.600   4.541
 2708SOL    HW210862   1.783   3.553   4.551
 2708SOL    HW310863   1.633   3.531   4.546
 2708SOL    MW410864   1.702   3.584   4.543
 2709SOL     OW10865   0.462   3.801   4.568
 2709SOL    HW210866   0.376   3.760   4.569
 2709SOL    HW310867   0.449   3.884   4.521
 2709SOL    MW410868   0.449   3.807   4.562
 2710SOL     OW10869   0.128   3.404   4.698
 2710SOL    HW210870   0.142   3.351   4.777
 2710SOL    HW310871   0.035   3.393   4.678
 2710SOL    MW410872   0.117   3.396   4.706
 2711SOL     OW10873   0.885   0.133   4.524
 2711SOL    HW210874   0.861   0.136   4.431
 2711SOL    HW310875   0.901   0.040   4.541
 2711SOL    MW410876   0.884   0.121   4.514
 2712SOL     OW10877   0.975   4.072   4.497
 2712SOL    HW210878   1.043   4.115   4.446
 2712SOL    HW310879   1.023   4.011   4.553
 2712SOL    MW410880   0.991   4.070   4.498
 2713SOL     OW10881   2.297   3.995   4.524
 2713SOL    HW210882   2.299   4.024   4.433
 2713SOL    HW310883   2.239   3.919   4.524
 2713SOL    MW410884   2.290   3.989   4.512
 2714SOL     OW10885   1.744   4.521   4.648
 2714SOL    HW210886   1.808   4.455   4.624
 2714SOL    HW310887   1.660   4.485   4.620
 2714SOL    MW410888   1.741   4.508   4.642
 2715SOL     OW10889   1.534   4.382   4.548
 2715SOL    HW210890   1.512   4.292   4.570
 2715SOL    HW310891   1.542   4.384   4.453
 2715SOL    MW410892   1.532   4.371   4.538
 2716SOL     OW10893   0.762   0.549   4.499
 2716SOL    HW210894   0.725   0.634   4.525
 2716SOL    HW310895   0.731   0.535   4.410
 2716SOL    MW410896   0.753   0.559   4.491
 2717SOL     OW10897   1.809   0.145   4.544
 2717SOL    HW210898   1.793   0.068   4.598
 2717SOL    HW310899   1.744   0.209   4.574
 2717SOL    MW410900   1.798   0.143   4.555
 2718SOL     OW10901   1.042   0.553   4.471
 2718SOL    HW210902   0.950   0.562   4.496
 2718SOL    HW310903   1.072   0.474   4.517
 2718SOL    MW410904   1.034   0.543   4.481
 2719SOL     OW10905   1.719   1.763   4.437
 2719SOL    HW210906   1.685   1.683   4.476
 2719SOL    HW310907   1.789   1.733   4.378
 2719SOL    MW410908   1.724   1.749   4.434
 2720SOL     OW10909   0.650   0.793   4.571
 2720SOL    HW210910   0.579   0.849   4.541
 2720SOL    HW310911   0.636   0.784   4.665
 2720SOL    MW410912   0.639   0.799   4.580
 2721SOL     OW10913   1.535   0.283   4.609
 2721SOL    HW210914   1.519   0.375   4.589
 2721SOL    HW310915   1.534   0.278   4.704
 2721SOL    MW410916   1.533   0.294   4.619
 2722SOL     OW10917   1.637   1.234   4.476
 2722SOL    HW210918   1.550   1.193   4.476
 2722SOL    HW310919   1.691   1.174   4.527
 2722SOL    MW410920   1.632   1.221   4.483
 2723SOL     OW10921   1.330   1.541   4.516
 2723SOL    HW210922   1.412   1.505   4.549
 2723SOL    HW310923   1.354   1.585   4.434
 2723SOL    MW410924   1.344   1.542   4.509
 2724SOL     OW10925   1.407   2.685   4.578
 2724SOL    HW210926   1.332   2.706   4.634
 2724SOL    HW310927   1.386   2.599   4.541
 2724SOL    MW410928   1.394   2.676   4.580
 2725SOL     OW10929   2.303   2.634   4.302
 2725SOL    HW210930   2.284   2.634   4.208
 2725SOL    HW310931   2.238   2.694   4.340
 2725SOL    MW410932   2.292   2.642   4.295
 2726SOL     OW10933   0.882   2.279   4.521
 2726SOL    HW210934   0.960   2.278   4.577
 2726SOL    HW310935   0.911   2.323   4.441
 2726SOL    MW410936   0.896   2.284   4.518
 2727SOL     OW10937   1.272   3.931   4.506
 2727SOL    HW210938   1.339   3.965   4.565
 2727SOL    HW310939   1.269   3.837   4.524
 2727SOL    MW410940   1.280   3.924   4.516
 2728SOL     OW10941   1.305   2.438   4.176
 2728SOL    HW210942   1.322   2.532   4.184
 2728SOL    HW310943   1.392   2.399   4.166
 2728SOL    MW410944   1.319   2.445   4.175
 2729SOL     OW10945   1.325   2.411   4.460
 2729SOL    HW210946   1.305   2.411   4.366
 2729SOL    HW310947   1.405   2.359   4.467
 2729SOL    MW410948   1.333   2.404   4.448
 2730SOL     OW10949   1.182   3.157   4.508
 2730SOL    HW210950   1.257   3.104   4.535
 2730SOL    HW310951   1.212   3.203   4.429
 2730SOL    MW410952   1.196   3.156   4.501
 2731SOL     OW10953   0.530   3.178   4.724
 2731SOL    HW210954   0.609   3.228   4.745
 2731SOL    HW310955   0.562   3.103   4.674
 2731SOL    MW410956   0.545   3.175   4.720
 2732SOL     OW10957   0.563   3.555   4.511
 2732SOL    HW210958   0.487   3.504   4.539
 2732SOL    HW310959   0.546   3.643   4.545
 2732SOL    MW410960   0.551   3.560   4.519
 2733SOL     OW10961   2.229   3.463   4.586
 2733SOL    HW210962   2.259   3.374   4.568
 2733SOL    HW310963   2.133   3.457   4.582
 2733SOL    MW410964   2.220   3.450   4.583
 2734SOL     OW10965   1.928   3.414   4.518
 2734SOL    HW210966   1.966   3.341   4.566
 2734SOL    HW310967   1.927   3.385   4.426
 2734SOL    MW410968   1.933   3.401   4.512
 2735SOL     OW10969   2.331   3.186   4.552
 2735SOL    HW210970   2.289   3.107   4.518
 2735SOL    HW310971   2.418   3.158   4.578
 2735SOL    MW410972   2.337   3.172   4.551
 2736SOL     OW10973   0.995   3.477   4.637
 2736SOL    HW210974   0.989   3.521   4.552
 2736SOL    HW310975   1.083   3.496   4.667
 2736SOL    MW410976   1.006   3.485   4.630
 2737SOL     OW10977   1.771   4.097   4.499
 2737SOL    HW210978   1.769   4.069   4.408
 2737SOL    HW310979   1.788   4.017   4.549
 2737SOL    MW410980   1.773   4.083   4.494
 2738SOL     OW10981   1.983   0.352   4.486
 2738SOL    HW210982   1.935   0.276   4.521
 2738SOL    HW310983   2.070   0.345   4.526
 2738SOL    MW410984   1.988   0.341   4.496
 2739SOL     OW10985   1.077   0.325   4.609
 2739SOL    HW210986   1.015   0.255   4.590
 2739SOL    HW310987   1.070   0.338   4.704
 2739SOL    MW410988   1.068   0.317   4.619
 2740SOL     OW10989   1.305   0.196   4.458
 2740SOL    HW210990   1.384   0.216   4.508
 2740SOL    HW310991   1.235   0.242   4.505
 2740SOL    MW410992   1.306   0.205   4.471
 2741SOL     OW10993   2.378   0.109   4.504
 2741SOL    HW210994   2.362   0.015   4.510
 2741SOL    HW310995   2.359   0.131   4.413
 2741SOL    MW410996   2.374   0.099   4.493
 2742SOL     OW10997   1.874   0.851   4.550
 2742SOL    HW210998   1.843   0.922   4.607
 2742SOL    HW310999   1.838   0.873   4.463
 2742SOL    MW411000   1.865   0.864   4.546
 2743SOL     OW11001   1.530   0.559   4.509
 2743SOL    HW211002   1.498   0.643   4.542
 2743SOL    HW311003   1.623   0.557   4.533
 2743SOL    MW411004   1.538   0.570   4.516
 2744SOL     OW11005   2.050   1.738   4.496
 2744SOL    HW211006   2.109   1.779   4.560
 2744SOL    HW311007   2.104   1.728   4.417
 2744SOL    MW411008   2.065   1.742   4.494
 2745SOL     OW11009   0.750   1.849   4.635
 2745SOL    HW211010   0.821   1.848   4.699
 2745SOL    HW311011   0.671   1.831   4.686
 2745SOL    MW411012   0.749   1.847   4.650
 2746SOL     OW11013   1.622   1.513   4.557
 2746SOL    HW211014   1.617   1.418   4.542
 2746SOL    HW311015   1.698   1.524   4.614
 2746SOL    MW411016   1.631   1.502   4.562
 2747SOL     OW11017   1.173   2.032   4.693
 2747SOL    HW211018   1.266   2.030   4.716
 2747SOL    HW311019   1.154   2.125   4.678
 2747SOL    MW411020   1.183   2.044   4.694
 2748SOL     OW11021   1.477   1.942   4.442
 2748SOL    HW211022   1.520   1.993   4.373
 2748SOL    HW311023   1.536   1.868   4.458
 2748SOL    MW411024   1.491   1.939   4.435
 2749SOL     OW11025   2.173   2.499   4.059
 2749SOL    HW211026   2.128   2.429   4.012
 2749SOL    HW311027   2.252   2.458   4.093
 2749SOL    MW411028   2.177   2.484   4.058
 2750SOL     OW11029   1.487   2.123   4.674
 2750SOL    HW211030   1.484   2.062   4.600
 2750SOL    HW311031   1.519   2.205   4.637
 2750SOL    MW411032   1.491   2.125   4.660
 2751SOL     OW11033   3.032   3.261   4.695
 2751SOL    HW211034   3.102   3.309   4.651
 2751SOL    HW311035   3.048   3.170   4.672
 2751SOL    MW411036   3.043   3.255   4.686
 2752SOL     OW11037   1.682   3.127   4.588
 2752SOL    HW211038   1.709   3.084   4.507
 2752SOL    HW311039   1.764   3.155   4.629
 2752SOL    MW411040   1.696   3.125   4.582
 2753SOL     OW11041   1.853   3.856   4.613
 2753SOL    HW211042   1.803   3.777   4.593
 2753SOL    HW311043   1.941   3.838   4.578
 2753SOL    MW411044   1.858   3.843   4.606
 2754SOL     OW11045   2.606   2.901   4.725
 2754SOL    HW211046   2.534   2.842   4.708
 2754SOL    HW311047   2.684   2.845   4.726
 2754SOL    MW411048   2.607   2.886   4.723
 2755SOL     OW11049   2.206   2.741   4.914
 2755SOL    HW211050   2.211   2.765   5.007
 2755SOL    HW311051   2.195   2.824   4.869
 2755SOL    MW411052   2.205   2.755   4.921
 2756SOL     OW11053   2.745   4.014   4.508
 2756SOL    HW211054   2.724   4.017   4.415
 2756SOL    HW311055   2.676   3.960   4.547
 2756SOL    MW411056   2.733   4.007   4.501
 2757SOL     OW11057   2.532   3.850   4.593
 2757SOL    HW211058   2.523   3.769   4.543
 2757SOL    HW311059   2.450   3.897   4.579
 2757SOL    MW411060   2.520   3.846   4.585
 2758SOL     OW11061   2.475   3.577   4.483
 2758SOL    HW211062   2.395   3.531   4.508
 2758SOL    HW311063   2.472   3.580   4.387
 2758SOL    MW411064   2.464   3.571   4.473
 2759SOL     OW11065   2.135   3.753   4.556
 2759SOL    HW211066   2.149   3.679   4.615
 2759SOL    HW311067   2.102   3.714   4.476
 2759SOL    MW411068   2.133   3.738   4.553
 2760SOL     OW11069   1.922   4.333   4.552
 2760SOL    HW211070   1.879   4.251   4.528
 2760SOL    HW311071   2.008   4.305   4.584
 2760SOL    MW411072   1.928   4.318   4.553
 2761SOL     OW11073   1.297   3.653   4.526
 2761SOL    HW211074   1.238   3.635   4.453
 2761SOL    HW311075   1.306   3.568   4.570
 2761SOL    MW411076   1.290   3.639   4.522
 2762SOL     OW11077   2.242   0.337   4.561
 2762SOL    HW211078   2.297   0.259   4.555
 2762SOL    HW311079   2.299   0.402   4.604
 2762SOL    MW411080   2.257   0.336   4.566
 2763SOL     OW11081   2.399   0.793   4.685
 2763SOL    HW211082   2.403   0.826   4.775
 2763SOL    HW311083   2.333   0.849   4.643
 2763SOL    MW411084   2.391   0.805   4.692
 2764SOL     OW11085   1.880   1.582   4.657
 2764SOL    HW211086   1.931   1.628   4.591
 2764SOL    HW311087   1.906   1.623   4.740
 2764SOL    MW411088   1.890   1.593   4.659
 2765SOL     OW11089   2.590   0.368   4.403
 2765SOL    HW211090   2.509   0.419   4.392
 2765SOL    HW311091   2.624   0.358   4.314
 2765SOL    MW411092   2.583   0.374   4.390
 2766SOL     OW11093   2.932   0.692   4.308
 2766SOL    HW211094   2.958   0.710   4.399
 2766SOL    HW311095   2.991   0.744   4.255
 2766SOL    MW411096   2.943   0.701   4.313
 2767SOL     OW11097   3.293   1.161   4.357
 2767SOL    HW211098   3.253   1.139   4.441
 2767SOL    HW311099   3.292   1.256   4.354
 2767SOL    MW411100   3.288   1.170   4.368
 2768SOL     OW11101   2.142   0.930   4.524
 2768SOL    HW211102   2.137   1.025   4.530
 2768SOL    HW311103   2.051   0.901   4.517
 2768SOL    MW411104   2.130   0.938   4.524
 2769SOL     OW11105   2.642   1.386   4.637
 2769SOL    HW211106   2.606   1.473   4.619
 2769SOL    HW311107   2.720   1.381   4.581
 2769SOL    MW411108   2.648   1.397   4.627
 2770SOL     OW11109   2.575   1.681   4.655
 2770SOL    HW211110   2.629   1.756   4.631
 2770SOL    HW311111   2.586   1.672   4.749
 2770SOL    MW411112   2.584   1.689   4.664
 2771SOL     OW11113   2.315   1.799   4.591
 2771SOL    HW211114   2.400   1.762   4.616
 2771SOL    HW311115   2.309   1.783   4.497
 2771SOL    MW411116   2.326   1.792   4.582
 2772SOL     OW11117   2.258   2.332   4.767
 2772SOL    HW211118   2.170   2.370   4.766
 2772SOL    HW311119   2.301   2.371   4.691
 2772SOL    MW411120   2.252   2.342   4.757
 2773SOL     OW11121   2.332   2.118   4.606
 2773SOL    HW211122   2.317   2.025   4.625
 2773SOL    HW311123   2.306   2.164   4.686
 2773SOL    MW411124   2.326   2.112   4.619
 2774SOL     OW11125   2.714   2.564   4.418
 2774SOL    HW211126   2.628   2.538   4.451
 2774SOL    HW311127   2.706   2.657   4.400
 2774SOL    MW411128   2.702   2.573   4.420
 2775SOL     OW11129   1.594   2.767   4.405
 2775SOL    HW211130   1.638   2.692   4.365
 2775SOL    HW311131   1.528   2.728   4.462
 2775SOL    MW411132   1.591   2.752   4.407
 2776SOL     OW11133   2.176   2.998   4.792
 2776SOL    HW211134   2.221   3.083   4.790
 2776SOL    HW311135   2.175   2.970   4.700
 2776SOL    MW411136   2.182   3.005   4.780
 2777SOL     OW11137   2.762   3.521   4.518
 2777SOL    HW211138   2.761   3.477   4.603
 2777SOL    HW311139   2.670   3.530   4.494
 2777SOL    MW411140   2.750   3.516   4.526
 2778SOL     OW11141   2.601   3.163   4.612
 2778SOL    HW211142   2.648   3.213   4.679
 2778SOL    HW311143   2.604   3.072   4.643
 2778SOL    MW411144   2.608   3.158   4.625
 2779SOL     OW11145   1.486   4.097   4.581
 2779SOL    HW211146   1.517   4.078   4.669
 2779SOL    HW311147   1.564   4.094   4.527
 2779SOL    MW411148   1.500   4.094   4.586
 2780SOL     OW11149   2.943   4.202   4.488
 2780SOL    HW211150   2.881   4.136   4.519
 2780SOL    HW311151   2.986   4.161   4.413
 2780SOL    MW411152   2.941   4.188   4.482
 2781SOL     OW11153   1.970   3.175   4.661
 2781SOL    HW211154   1.994   3.119   4.587
 2781SOL    HW311155   2.008   3.131   4.737
 2781SOL    MW411156   1.978   3.162   4.661
 2782SOL     OW11157   3.258   3.961   4.487
 2782SOL    HW211158   3.245   4.006   4.570
 2782SOL    HW311159   3.233   3.870   4.504
 2782SOL    MW411160   3.253   3.955   4.500
 2783SOL     OW11161   3.273   4.045   4.764
 2783SOL    HW211162   3.241   4.128   4.728
 2783SOL    HW311163   3.205   4.018   4.825
 2783SOL    MW411164   3.260   4.052   4.767
 2784SOL     OW11165   2.218   4.253   4.630
 2784SOL    HW211166   2.250   4.174   4.587
 2784SOL    HW311167   2.205   4.227   4.722
 2784SOL    MW411168   2.220   4.239   4.637
 2785SOL     OW11169   2.338   4.499   4.538
 2785SOL    HW211170   2.284   4.431   4.578
 2785SOL    HW311171   2.372   4.458   4.459
 2785SOL    MW411172   2.335   4.485   4.533
 2786SOL     OW11173   2.949   0.418   4.250
 2786SOL    HW211174   3.028   0.404   4.197
 2786SOL    HW311175   2.946   0.513   4.261
 2786SOL    MW411176   2.959   0.429   4.244
 2787SOL     OW11177   3.023   4.532   4.636
 2787SOL    HW211178   3.072   4.450   4.644
 2787SOL    HW311179   2.932   4.506   4.651
 2787SOL    MW411180   3.017   4.518   4.639
 2788SOL     OW11181   2.497   4.625   4.767
 2788SOL    HW211182   2.428   4.609   4.702
 2788SOL    HW311183   2.450   4.653   4.845
 2788SOL    MW411184   2.482   4.627   4.768
 2789SOL     OW11185   2.912   1.011   4.597
 2789SOL    HW211186   2.933   0.918   4.599
 2789SOL    HW311187   2.836   1.020   4.653
 2789SOL    MW411188   2.905   1.000   4.604
 2790SOL     OW11189   2.896   0.252   4.744
 2790SOL    HW211190   2.830   0.197   4.702
 2790SOL    HW311191   2.933   0.303   4.673
 2790SOL    MW411192   2.892   0.251   4.729
 2791SOL     OW11193   1.810   0.561   4.579
 2791SOL    HW211194   1.881   0.497   4.571
 2791SOL    HW311195   1.854   0.646   4.577
 2791SOL    MW411196   1.825   0.563   4.578
 2792SOL     OW11197   2.600   0.943   4.581
 2792SOL    HW211198   2.555   0.867   4.617
 2792SOL    HW311199   2.627   0.916   4.494
 2792SOL    MW411200   2.598   0.930   4.575
 2793SOL     OW11201   3.055   1.505   4.516
 2793SOL    HW211202   2.987   1.441   4.494
 2793SOL    HW311203   3.125   1.487   4.453
 2793SOL    MW411204   3.055   1.494   4.505
 2794SOL     OW11205   3.054   1.783   4.506
 2794SOL    HW211206   2.962   1.809   4.500
 2794SOL    HW311207   3.051   1.691   4.533
 2794SOL    MW411208   3.042   1.774   4.509
 2795SOL     OW11209   2.764   1.833   4.495
 2795SOL    HW211210   2.762   1.927   4.476
 2795SOL    HW311211   2.748   1.791   4.410
 2795SOL    MW411212   2.762   1.840   4.481
 2796SOL     OW11213   2.531   2.239   4.465
 2796SOL    HW211214   2.532   2.324   4.510
 2796SOL    HW311215   2.475   2.184   4.519
 2796SOL    MW411216   2.524   2.243   4.478
 2797SOL     OW11217   2.776   2.098   4.437
 2797SOL    HW211218   2.704   2.160   4.446
 2797SOL    HW311219   2.782   2.083   4.343
 2797SOL    MW411220   2.767   2.104   4.426
 2798SOL     OW11221   3.013   2.277   4.472
 2798SOL    HW211222   2.935   2.221   4.476
 2798SOL    HW311223   3.019   2.304   4.381
 2798SOL    MW411224   3.004   2.274   4.461
 2799SOL     OW11225   2.362   2.720   4.689
 2799SOL    HW211226   2.311   2.712   4.770
 2799SOL    HW311227   2.310   2.778   4.633
 2799SOL    MW411228   2.349   2.726   4.692
 2800SOL     OW11229   3.520   3.489   4.450
 2800SOL    HW211230   3.491   3.428   4.518
 2800SOL    HW311231   3.604   3.454   4.421
 2800SOL    MW411232   3.528   3.476   4.455
 2801SOL     OW11233   2.721   2.854   4.386
 2801SOL    HW211234   2.755   2.851   4.297
 2801SOL    HW311235   2.628   2.871   4.377
 2801SOL    MW411236   2.713   2.856   4.373
 2802SOL     OW11237   2.769   3.361   4.760
 2802SOL    HW211238   2.855   3.323   4.743
 2802SOL    HW311239   2.773   3.390   4.851
 2802SOL    MW411240   2.781   3.360   4.770
 2803SOL     OW11241   3.063   2.990   4.624
 2803SOL    HW211242   3.149   2.949   4.625
 2803SOL    HW311243   3.002   2.916   4.623
 2803SOL    MW411244   3.066   2.975   4.624
 2804SOL     OW11245   2.680   0.446   4.666
 2804SOL    HW211246   2.679   0.427   4.573
 2804SOL    HW311247   2.726   0.373   4.706
 2804SOL    MW411248   2.686   0.434   4.659
 2805SOL     OW11249   3.549   4.107   4.798
 2805SOL    HW211250   3.459   4.075   4.794
 2805SOL    HW311251   3.553   4.174   4.730
 2805SOL    MW411252   3.538   4.112   4.789
 2806SOL     OW11253   3.823   3.719   4.525
 2806SOL    HW211254   3.803   3.693   4.435
 2806SOL    HW311255   3.857   3.640   4.566
 2806SOL    MW411256   3.825   3.705   4.519
 2807SOL     OW11257   2.933   3.742   4.442
 2807SOL    HW211258   2.871   3.674   4.467
 2807SOL    HW311259   2.898   3.822   4.482
 2807SOL    MW411260   2.920   3.744   4.451
 2808SOL     OW11261   3.153   4.268   4.655
 2808SOL    HW211262   3.071   4.246   4.611
 2808SOL    HW311263   3.213   4.291   4.583
 2808SOL    MW411264   3.150   4.268   4.640
 2809SOL     OW11265   3.033   0.330   4.512
 2809SOL    HW211266   2.996   0.381   4.440
 2809SOL    HW311267   3.048   0.243   4.474
 2809SOL    MW411268   3.030   0.325   4.498
 2810SOL     OW11269   2.999   0.748   4.582
 2810SOL    HW211270   3.090   0.725   4.564
 2810SOL    HW311271   2.975   0.694   4.657
 2810SOL    MW411272   3.008   0.738   4.590
 2811SOL     OW11273   2.416   0.509   4.663
 2811SOL    HW211274   2.505   0.476   4.676
 2811SOL    HW311275   2.421   0.602   4.685
 2811SOL    MW411276   2.428   0.517   4.667
 2812SOL     OW11277   2.463   1.186   4.555
 2812SOL    HW211278   2.518   1.107   4.559
 2812SOL    HW311279   2.515   1.253   4.599
 2812SOL    MW411280   2.477   1.184   4.561
 2813SOL     OW11281   2.747   4.512   4.658
 2813SOL    HW211282   2.656   4.515   4.688
 2813SOL    HW311283   2.745   4.554   4.572
 2813SOL    MW411284   2.734   4.518   4.651
 2814SOL     OW11285   2.779   0.003   4.423
 2814SOL    HW211286   2.757   0.024   4.332
 2814SOL    HW311287   2.730   0.066   4.475
 2814SOL    MW411288   2.770   0.014   4.418
 2815SOL     OW11289   3.213   1.391   4.736
 2815SOL    HW211290   3.193   1.301   4.712
 2815SOL    HW311291   3.151   1.444   4.687
 2815SOL    MW411292   3.202   1.386   4.727
 2816SOL     OW11293   2.854   1.307   4.471
 2816SOL    HW211294   2.889   1.227   4.510
 2816SOL    HW311295   2.837   1.285   4.380
 2816SOL    MW411296   2.856   1.294   4.464
 2817SOL     OW11297   4.083   0.916   4.552
 2817SOL    HW211298   4.093   0.920   4.457
 2817SOL    HW311299   4.150   0.854   4.580
 2817SOL    MW411300   4.093   0.908   4.543
 2818SOL     OW11301   3.454   1.440   4.564
 2818SOL    HW211302   3.471   1.534   4.558
 2818SOL    HW311303   3.385   1.432   4.630
 2818SOL    MW411304   3.447   1.451   4.572
 2819SOL     OW11305   3.326   1.915   4.543
 2819SOL    HW211306   3.315   2.010   4.543
 2819SOL    HW311307   3.238   1.880   4.530
 2819SOL    MW411308   3.313   1.923   4.541
 2820SOL     OW11309   3.272   2.193   4.509
 2820SOL    HW211310   3.184   2.228   4.495
 2820SOL    HW311311   3.300   2.162   4.423
 2820SOL    MW411312   3.264   2.194   4.496
 2821SOL     OW11313   3.519   1.717   4.518
 2821SOL    HW211314   3.457   1.785   4.543
 2821SOL    HW311315   3.518   1.716   4.422
 2821SOL    MW411316   3.511   1.726   4.509
 2822SOL     OW11317   2.843   2.776   4.636
 2822SOL    HW211318   2.809   2.803   4.551
 2822SOL    HW311319   2.891   2.695   4.618
 2822SOL    MW411320   2.845   2.769   4.623
 2823SOL     OW11321   3.249   2.643   4.451
 2823SOL    HW211322   3.192   2.629   4.527
 2823SOL    HW311323   3.190   2.679   4.384
 2823SOL    MW411324   3.233   2.646   4.452
 2824SOL     OW11325   2.954   2.543   4.567
 2824SOL    HW211326   2.875   2.538   4.513
 2824SOL    HW311327   2.992   2.455   4.560
 2824SOL    MW411328   2.948   2.530   4.559
 2825SOL     OW11329   3.788   3.106   4.565
 2825SOL    HW211330   3.797   3.107   4.660
 2825SOL    HW311331   3.847   3.038   4.535
 2825SOL    MW411332   3.797   3.097   4.574
 2826SOL     OW11333   3.460   3.277   4.654
 2826SOL    HW211334   3.487   3.188   4.631
 2826SOL    HW311335   3.535   3.312   4.702
 2826SOL    MW411336   3.473   3.270   4.657
 2827SOL     OW11337   3.519   3.039   4.488
 2827SOL    HW211338   3.513   3.070   4.398
 2827SOL    HW311339   3.609   3.056   4.514
 2827SOL    MW411340   3.530   3.045   4.480
 2828SOL     OW11341   3.911   2.846   4.522
 2828SOL    HW211342   3.881   2.767   4.568
 2828SOL    HW311343   4.005   2.835   4.515
 2828SOL    MW411344   3.919   2.834   4.527
 2829SOL     OW11345   3.495   3.531   4.841
 2829SOL    HW211346   3.508   3.594   4.769
 2829SOL    HW311347   3.491   3.585   4.919
 2829SOL    MW411348   3.496   3.546   4.842
 2830SOL     OW11349   3.568   4.245   4.565
 2830SOL    HW211350   3.652   4.291   4.555
 2830SOL    HW311351   3.574   4.170   4.506
 2830SOL    MW411352   3.580   4.241   4.556
 2831SOL     OW11353   3.117   0.061   4.450
 2831SOL    HW211354   3.065   0.009   4.511
 2831SOL    HW311355   3.208   0.035   4.468
 2831SOL    MW411356   3.122   0.051   4.460
 2832SOL     OW11357   3.086   0.074   4.827
 2832SOL    HW211358   3.040  -0.005   4.799
 2832SOL    HW311359   3.026   0.146   4.805
 2832SOL    MW411360   3.072   0.073   4.820
 2833SOL     OW11361   3.343   4.373   4.476
 2833SOL    HW211362   3.415   4.324   4.515
 2833SOL    HW311363   3.373   4.464   4.476
 2833SOL    MW411364   3.357   4.379   4.481
 2834SOL     OW11365   3.526   3.970   4.458
 2834SOL    HW211366   3.547   3.886   4.497
 2834SOL    HW311367   3.430   3.973   4.459
 2834SOL    MW411368   3.516   3.960   4.464
 2835SOL     OW11369   3.382   0.004   4.484
 2835SOL    HW211370   3.367   0.059   4.561
 2835SOL    HW311371   3.452   0.048   4.436
 2835SOL    MW411372   3.389   0.017   4.488
 2836SOL     OW11373   3.343   0.871   4.768
 2836SOL    HW211374   3.434   0.876   4.736
 2836SOL    HW311375   3.352   0.870   4.863
 2836SOL    MW411376   3.356   0.872   4.776
 2837SOL     OW11377   2.655   0.146   4.618
 2837SOL    HW211378   2.593   0.183   4.554
 2837SOL    HW311379   2.601   0.086   4.670
 2837SOL    MW411380   2.639   0.143   4.616
 2838SOL     OW11381   3.892   1.549   4.690
 2838SOL    HW211382   3.984   1.546   4.661
 2838SOL    HW311383   3.894   1.508   4.777
 2838SOL    MW411384   3.905   1.543   4.698
 2839SOL     OW11385   3.856   0.765   4.627
 2839SOL    HW211386   3.820   0.736   4.544
 2839SOL    HW311387   3.938   0.809   4.604
 2839SOL    MW411388   3.862   0.767   4.613
 2840SOL     OW11389   0.009   0.884   4.551
 2840SOL    HW211390   0.023   0.897   4.457
 2840SOL    HW311391   0.087   0.839   4.581
 2840SOL    MW411392   0.021   0.880   4.542
 2841SOL     OW11393   4.307   0.424   4.450
 2841SOL    HW211394   4.289   0.483   4.377
 2841SOL    HW311395   4.226   0.375   4.462
 2841SOL    MW411396   4.294   0.425   4.442
 2842SOL     OW11397   3.512   1.692   4.250
 2842SOL    HW211398   3.585   1.658   4.199
 2842SOL    HW311399   3.435   1.649   4.213
 2842SOL    MW411400   3.511   1.682   4.239
 2843SOL     OW11401   3.997   1.704   4.286
 2843SOL    HW211402   4.082   1.725   4.325
 2843SOL    HW311403   3.935   1.709   4.359
 2843SOL    MW411404   4.000   1.707   4.301
 2844SOL     OW11405   3.723   2.372   4.535
 2844SOL    HW211406   3.631   2.383   4.511
 2844SOL    HW311407   3.734   2.278   4.544
 2844SOL    MW411408   3.712   2.361   4.533
 2845SOL     OW11409   3.817   1.734   4.502
 2845SOL    HW211410   3.723   1.731   4.481
 2845SOL    HW311411   3.826   1.678   4.579
 2845SOL    MW411412   3.806   1.726   4.509
 2846SOL     OW11413   0.307   1.938   4.804
 2846SOL    HW211414   0.348   2.004   4.749
 2846SOL    HW311415   0.214   1.941   4.779
 2846SOL    MW411416   0.300   1.947   4.793
 2847SOL     OW11417   3.870   2.055   4.527
 2847SOL    HW211418   3.965   2.056   4.514
 2847SOL    HW311419   3.857   1.986   4.593
 2847SOL    MW411420   3.881   2.046   4.534
 2848SOL     OW11421   3.833   2.603   4.624
 2848SOL    HW211422   3.800   2.530   4.572
 2848SOL    HW311423   3.808   2.582   4.714
 2848SOL    MW411424   3.825   2.591   4.629
 2849SOL     OW11425   4.111   2.511   4.515
 2849SOL    HW211426   4.038   2.539   4.570
 2849SOL    HW311427   4.159   2.592   4.496
 2849SOL    MW411428   4.108   2.525   4.520
 2850SOL     OW11429   0.009   3.058   4.676
 2850SOL    HW211430  -0.038   3.134   4.642
 2850SOL    HW311431   0.100   3.073   4.653
 2850SOL    MW411432   0.015   3.070   4.669
 2851SOL     OW11433   3.217   3.404   4.548
 2851SOL    HW211434   3.226   3.360   4.463
 2851SOL    HW311435   3.287   3.366   4.602
 2851SOL    MW411436   3.228   3.393   4.544
 2852SOL     OW11437   3.726   3.324   4.788
 2852SOL    HW211438   3.657   3.360   4.845
 2852SOL    HW311439   3.787   3.397   4.775
 2852SOL    MW411440   3.725   3.339   4.794
 2853SOL     OW11441   3.187   3.694   4.462
 2853SOL    HW211442   3.095   3.705   4.437
 2853SOL    HW311443   3.191   3.605   4.498
 2853SOL    MW411444   3.175   3.684   4.464
 2854SOL     OW11445   4.163   3.419   4.512
 2854SOL    HW211446   4.189   3.487   4.449
 2854SOL    HW311447   4.123   3.351   4.458
 2854SOL    MW411448   4.161   3.419   4.496
 2855SOL     OW11449   0.219   2.785   4.492
 2855SOL    HW211450   0.208   2.828   4.408
 2855SOL    HW311451   0.238   2.856   4.553
 2855SOL    MW411452   0.220   2.800   4.489
 2856SOL     OW11453   4.340   3.891   4.455
 2856SOL    HW211454   4.275   3.839   4.502
 2856SOL    HW311455   4.325   3.872   4.363
 2856SOL    MW411456   4.330   3.882   4.449
 2857SOL     OW11457   3.811   4.384   4.512
 2857SOL    HW211458   3.834   4.397   4.420
 2857SOL    HW311459   3.781   4.470   4.542
 2857SOL    MW411460   3.810   4.397   4.504
 2858SOL     OW11461   3.339   0.154   4.703
 2858SOL    HW211462   3.271   0.121   4.762
 2858SOL    HW311463   3.313   0.245   4.685
 2858SOL    MW411464   3.326   0.162   4.708
 2859SOL     OW11465   3.625   0.908   4.669
 2859SOL    HW211466   3.656   0.998   4.673
 2859SOL    HW311467   3.703   0.856   4.653
 2859SOL    MW411468   3.639   0.913   4.667
 2860SOL     OW11469   3.257   0.693   4.561
 2860SOL    HW211470   3.260   0.599   4.580
 2860SOL    HW311471   3.279   0.735   4.644
 2860SOL    MW411472   3.260   0.686   4.575
 2861SOL     OW11473   0.033   0.245   4.475
 2861SOL    HW211474   0.095   0.297   4.527
 2861SOL    HW311475  -0.043   0.301   4.464
 2861SOL    MW411476   0.031   0.259   4.480
 2862SOL     OW11477   0.190   0.487   4.585
 2862SOL    HW211478   0.262   0.427   4.606
 2862SOL    HW311479   0.195   0.497   4.490
 2862SOL    MW411480   0.200   0.480   4.575
 2863SOL     OW11481   4.025   0.344   4.479
 2863SOL    HW211482   4.035   0.400   4.555
 2863SOL    HW311483   4.002   0.258   4.515
 2863SOL    MW411484   4.024   0.340   4.493
 2864SOL     OW11485   3.650   1.203   4.603
 2864SOL    HW211486   3.580   1.267   4.614
 2864SOL    HW311487   3.722   1.252   4.563
 2864SOL    MW411488   3.650   1.217   4.599
 2865SOL     OW11489   0.033   1.189   4.604
 2865SOL    HW211490   0.129   1.188   4.604
 2865SOL    HW311491   0.007   1.098   4.613
 2865SOL    MW411492   0.042   1.177   4.606
 2866SOL     OW11493   4.418   1.436   4.536
 2866SOL    HW211494   4.483   1.501   4.563
 2866SOL    HW311495   4.443   1.356   4.583
 2866SOL    MW411496   4.430   1.434   4.546
 2867SOL     OW11497   3.838   1.343   4.492
 2867SOL    HW211498   3.920   1.294   4.504
 2867SOL    HW311499   3.850   1.423   4.544
 2867SOL    MW411500   3.850   1.347   4.501
 2868SOL     OW11501   3.308   2.883   4.572
 2868SOL    HW211502   3.307   2.802   4.521
 2868SOL    HW311503   3.383   2.932   4.537
 2868SOL    MW411504   3.318   2.879   4.561
 2869SOL     OW11505   4.209   2.037   4.229
 2869SOL    HW211506   4.123   2.014   4.194
 2869SOL    HW311507   4.195   2.040   4.324
 2869SOL    MW411508   4.196   2.034   4.237
 2870SOL     OW11509   0.178   2.106   4.520
 2870SOL    HW211510   0.257   2.120   4.573
 2870SOL    HW311511   0.140   2.194   4.511
 2870SOL    MW411512   0.184   2.120   4.526
 2871SOL     OW11513   4.143   2.041   4.486
 2871SOL    HW211514   4.171   1.953   4.510
 2871SOL    HW311515   4.204   2.099   4.533
 2871SOL    MW411516   4.155   2.037   4.496
 2872SOL     OW11517   3.445   2.420   4.490
 2872SOL    HW211518   3.392   2.500   4.488
 2872SOL    HW311519   3.386   2.353   4.525
 2872SOL    MW411520   3.430   2.422   4.494
 2873SOL     OW11521   0.537   2.387   4.717
 2873SOL    HW211522   0.460   2.427   4.675
 2873SOL    HW311523   0.527   2.408   4.810
 2873SOL    MW411524   0.525   2.395   4.723
 2874SOL     OW11525   4.201   2.771   4.478
 2874SOL    HW211526   4.286   2.774   4.523
 2874SOL    HW311527   4.222   2.790   4.387
 2874SOL    MW411528   4.215   2.774   4.472
 2875SOL     OW11529   4.435   2.783   4.600
 2875SOL    HW211530   4.442   2.875   4.625
 2875SOL    HW311531   4.517   2.765   4.552
 2875SOL    MW411532   4.447   2.792   4.597
 2876SOL     OW11533   0.213   3.675   4.554
 2876SOL    HW211534   0.212   3.632   4.468
 2876SOL    HW311535   0.184   3.606   4.615
 2876SOL    MW411536   0.209   3.660   4.551
 2877SOL     OW11537   3.725   4.648   4.567
 2877SOL    HW211538   3.676   4.669   4.646
 2877SOL    HW311539   3.662   4.657   4.496
 2877SOL    MW411540   3.710   4.652   4.568
 2878SOL     OW11541   3.580   0.029   4.784
 2878SOL    HW211542   3.494   0.058   4.754
 2878SOL    HW311543   3.583   0.054   4.876
 2878SOL    MW411544   3.569   0.036   4.792
 2879SOL     OW11545   3.921   3.481   4.633
 2879SOL    HW211546   3.873   3.420   4.577
 2879SOL    HW311547   4.011   3.475   4.603
 2879SOL    MW411548   3.926   3.472   4.622
 2880SOL     OW11549   2.888   0.562   4.783
 2880SOL    HW211550   2.806   0.522   4.755
 2880SOL    HW311551   2.931   0.494   4.836
 2880SOL    MW411552   2.883   0.548   4.786
 2881SOL     OW11553   4.300   4.349   4.314
 2881SOL    HW211554   4.391   4.337   4.289
 2881SOL    HW311555   4.287   4.287   4.386
 2881SOL    MW411556   4.310   4.339   4.320
 2882NA      NA11557   2.719   4.262   0.662
 2883NA      NA11558   0.728   2.085   0.365
   4.49070   4.66690  10.00000
