Gromacs Runs On Most of All Computer Systems in water t= 990.00000 step= 990000
11558
    1RG35     P    1   2.191   2.840   4.404
    1RG35   O1P    2   2.139   2.805   4.271
    1RG35   O2P    3   2.160   2.974   4.452
    1RG35   O5'    4   2.114   2.738   4.500
    1RG35   C5'    5   1.973   2.758   4.528
    1RG35  H5'1    6   1.918   2.781   4.437
    1RG35  H5'2    7   1.967   2.839   4.601
    1RG35   C4'    8   1.903   2.637   4.586
    1RG35   H4'    9   1.796   2.654   4.580
    1RG35   O4'   10   1.935   2.525   4.504
    1RG35   C1'   11   1.918   2.411   4.582
    1RG35   H1'   12   1.815   2.390   4.610
    1RG35    N9   13   1.977   2.297   4.516
    1RG35    C8   14   2.073   2.299   4.416
    1RG35    H8   15   2.137   2.381   4.387
    1RG35    N7   16   2.085   2.183   4.356
    1RG35    C5   17   1.994   2.099   4.420
    1RG35    C6   18   1.963   1.960   4.397
    1RG35    O6   19   2.018   1.883   4.314
    1RG35    N1   20   1.882   1.906   4.490
    1RG35    H1   21   1.857   1.809   4.476
    1RG35    C2   22   1.823   1.981   4.588
    1RG35    N2   23   1.737   1.918   4.655
    1RG35   H21   24   1.716   1.823   4.629
    1RG35   H22   25   1.676   1.969   4.718
    1RG35    N3   26   1.843   2.107   4.612
    1RG35    C4   27   1.929   2.164   4.523
    1RG35   C3'   28   1.939   2.602   4.730
    1RG35   H3'   29   2.022   2.660   4.770
    1RG35   C2'   30   1.980   2.451   4.717
    1RG35  H2'1   31   2.089   2.445   4.706
    1RG35   O2'   32   1.928   2.375   4.828
    1RG35  HO'2   33   1.965   2.287   4.825
    1RG35   O3'   34   1.828   2.609   4.815
    1RG35   H3T   35   1.849   2.564   4.897
    1RG35   O3P   36   2.331   2.797   4.421
    2SOL     OW   37   0.412   0.033   0.435
    2SOL    HW2   38   0.388  -0.059   0.422
    2SOL    HW3   39   0.506   0.036   0.417
    2SOL    MW4   40   0.421   0.021   0.431
    3SOL     OW   41   3.107   0.867   0.235
    3SOL    HW2   42   3.114   0.781   0.278
    3SOL    HW3   43   3.040   0.854   0.168
    3SOL    MW4   44   3.099   0.854   0.232
    4SOL     OW   45   3.832   0.214   0.247
    4SOL    HW2   46   3.862   0.249   0.163
    4SOL    HW3   47   3.838   0.289   0.307
    4SOL    MW4   48   3.837   0.229   0.244
    5SOL     OW   49   0.733   1.667   0.372
    5SOL    HW2   50   0.725   1.588   0.318
    5SOL    HW3   51   0.643   1.691   0.392
    5SOL    MW4   52   0.720   1.660   0.368
    6SOL     OW   53   1.475   0.751   0.428
    6SOL    HW2   54   1.424   0.782   0.503
    6SOL    HW3   55   1.449   0.809   0.356
    6SOL    MW4   56   1.465   0.763   0.428
    7SOL     OW   57   0.173   0.410   0.463
    7SOL    HW2   58   0.165   0.419   0.558
    7SOL    HW3   59   0.183   0.316   0.449
    7SOL    MW4   60   0.173   0.399   0.474
    8SOL     OW   61   0.466   0.791   0.397
    8SOL    HW2   62   0.448   0.804   0.490
    8SOL    HW3   63   0.466   0.696   0.385
    8SOL    MW4   64   0.464   0.780   0.408
    9SOL     OW   65   0.760   0.707   0.343
    9SOL    HW2   66   0.826   0.766   0.379
    9SOL    HW3   67   0.677   0.740   0.377
    9SOL    MW4   68   0.758   0.719   0.352
   10SOL     OW   69   0.494   1.071   0.328
   10SOL    HW2   70   0.502   1.062   0.233
   10SOL    HW3   71   0.469   0.983   0.358
   10SOL    MW4   72   0.492   1.058   0.319
   11SOL     OW   73   4.211   1.498   0.339
   11SOL    HW2   74   4.192   1.496   0.245
   11SOL    HW3   75   4.130   1.528   0.379
   11SOL    MW4   76   4.198   1.502   0.332
   12SOL     OW   77   4.114   2.417   0.652
   12SOL    HW2   78   4.029   2.374   0.646
   12SOL    HW3   79   4.102   2.501   0.609
   12SOL    MW4   80   4.101   2.423   0.646
   13SOL     OW   81   4.470   1.591   0.459
   13SOL    HW2   82   4.472   1.600   0.554
   13SOL    HW3   83   4.377   1.579   0.439
   13SOL    MW4   84   4.458   1.591   0.469
   14SOL     OW   85   0.777   2.237   0.111
   14SOL    HW2   86   0.851   2.215   0.167
   14SOL    HW3   87   0.719   2.161   0.116
   14SOL    MW4   88   0.779   2.224   0.119
   15SOL     OW   89   0.040   2.713   0.416
   15SOL    HW2   90   0.126   2.686   0.384
   15SOL    HW3   91   0.054   2.801   0.452
   15SOL    MW4   92   0.054   2.721   0.417
   16SOL     OW   93   4.141   3.406   0.390
   16SOL    HW2   94   4.161   3.429   0.299
   16SOL    HW3   95   4.151   3.311   0.394
   16SOL    MW4   96   4.145   3.397   0.379
   17SOL     OW   97   0.127   2.984   0.492
   17SOL    HW2   98   0.208   3.003   0.444
   17SOL    HW3   99   0.077   3.066   0.489
   17SOL    MW4  100   0.131   2.998   0.485
   18SOL     OW  101   0.580   3.264   0.384
   18SOL    HW2  102   0.643   3.286   0.453
   18SOL    HW3  103   0.543   3.348   0.358
   18SOL    MW4  104   0.584   3.278   0.390
   19SOL     OW  105   0.634   3.750   0.363
   19SOL    HW2  106   0.578   3.823   0.391
   19SOL    HW3  107   0.722   3.788   0.359
   19SOL    MW4  108   0.638   3.765   0.366
   20SOL     OW  109   4.178   3.734   0.301
   20SOL    HW2  110   4.199   3.825   0.321
   20SOL    HW3  111   4.204   3.686   0.379
   20SOL    MW4  112   4.184   3.740   0.314
   21SOL     OW  113   0.220   3.602   0.193
   21SOL    HW2  114   0.199   3.687   0.231
   21SOL    HW3  115   0.221   3.616   0.099
   21SOL    MW4  116   0.217   3.615   0.186
   22SOL     OW  117   4.395   4.454   0.515
   22SOL    HW2  118   4.339   4.459   0.437
   22SOL    HW3  119   4.337   4.421   0.584
   22SOL    MW4  120   4.380   4.450   0.514
   23SOL     OW  121   3.995   4.226   0.339
   23SOL    HW2  122   3.997   4.297   0.403
   23SOL    HW3  123   3.907   4.231   0.301
   23SOL    MW4  124   3.983   4.236   0.342
   24SOL     OW  125   4.223   0.244   0.421
   24SOL    HW2  126   4.281   0.206   0.355
   24SOL    HW3  127   4.241   0.193   0.501
   24SOL    MW4  128   4.233   0.232   0.423
   25SOL     OW  129   0.405   3.061   0.457
   25SOL    HW2  130   0.423   3.096   0.544
   25SOL    HW3  131   0.433   3.131   0.397
   25SOL    MW4  132   0.411   3.075   0.461
   26SOL     OW  133   0.342   4.441   0.381
   26SOL    HW2  134   0.260   4.395   0.398
   26SOL    HW3  135   0.410   4.375   0.396
   26SOL    MW4  136   0.340   4.426   0.385
   27SOL     OW  137   0.155   0.132   0.394
   27SOL    HW2  138   0.113   0.117   0.479
   27SOL    HW3  139   0.240   0.089   0.401
   27SOL    MW4  140   0.161   0.124   0.406
   28SOL     OW  141   0.017   1.126   0.441
   28SOL    HW2  142  -0.065   1.176   0.435
   28SOL    HW3  143  -0.010   1.035   0.432
   28SOL    MW4  144   0.002   1.121   0.439
   29SOL     OW  145   1.039   4.353   0.459
   29SOL    HW2  146   1.039   4.265   0.423
   29SOL    HW3  147   1.079   4.343   0.546
   29SOL    MW4  148   1.044   4.340   0.466
   30SOL     OW  149   1.197   0.999   0.451
   30SOL    HW2  150   1.234   0.959   0.530
   30SOL    HW3  151   1.160   1.082   0.482
   30SOL    MW4  152   1.197   1.004   0.466
   31SOL     OW  153   0.660   0.337   0.491
   31SOL    HW2  154   0.720   0.366   0.422
   31SOL    HW3  155   0.681   0.244   0.503
   31SOL    MW4  156   0.671   0.328   0.483
   32SOL     OW  157   0.272   1.257   0.408
   32SOL    HW2  158   0.342   1.204   0.369
   32SOL    HW3  159   0.191   1.213   0.384
   32SOL    MW4  160   0.271   1.245   0.399
   33SOL     OW  161   0.290   1.972   0.477
   33SOL    HW2  162   0.280   2.059   0.438
   33SOL    HW3  163   0.203   1.933   0.473
   33SOL    MW4  164   0.277   1.978   0.471
   34SOL     OW  165   0.871   1.988   0.462
   34SOL    HW2  166   0.905   2.059   0.407
   34SOL    HW3  167   0.779   1.981   0.437
   34SOL    MW4  168   0.863   1.996   0.451
   35SOL     OW  169   0.666   2.413   0.297
   35SOL    HW2  170   0.729   2.485   0.299
   35SOL    HW3  171   0.690   2.361   0.220
   35SOL    MW4  172   0.677   2.415   0.287
   36SOL     OW  173   0.826   3.046   0.299
   36SOL    HW2  174   0.767   3.119   0.282
   36SOL    HW3  175   0.771   2.980   0.342
   36SOL    MW4  176   0.811   3.047   0.303
   37SOL     OW  177   3.846   2.679   0.323
   37SOL    HW2  178   3.806   2.738   0.387
   37SOL    HW3  179   3.861   2.733   0.246
   37SOL    MW4  180   3.843   2.693   0.321
   38SOL     OW  181   1.203   2.105   0.455
   38SOL    HW2  182   1.154   2.092   0.537
   38SOL    HW3  183   1.277   2.160   0.480
   38SOL    MW4  184   1.207   2.110   0.469
   39SOL     OW  185   0.427   2.429   0.446
   39SOL    HW2  186   0.396   2.519   0.444
   39SOL    HW3  187   0.511   2.432   0.400
   39SOL    MW4  188   0.434   2.441   0.439
   40SOL     OW  189   4.186   3.147   0.468
   40SOL    HW2  190   4.239   3.067   0.461
   40SOL    HW3  191   4.103   3.117   0.503
   40SOL    MW4  192   4.182   3.132   0.472
   41SOL     OW  193   0.355   2.697   0.460
   41SOL    HW2  194   0.327   2.732   0.544
   41SOL    HW3  195   0.427   2.753   0.433
   41SOL    MW4  196   0.360   2.709   0.468
   42SOL     OW  197   0.900   0.162   0.257
   42SOL    HW2  198   0.911   0.138   0.165
   42SOL    HW3  199   0.873   0.254   0.255
   42SOL    MW4  200   0.898   0.171   0.245
   43SOL     OW  201   0.294   3.575   0.522
   43SOL    HW2  202   0.270   3.661   0.487
   43SOL    HW3  203   0.357   3.540   0.459
   43SOL    MW4  204   0.299   3.581   0.509
   44SOL     OW  205   0.474   3.514   0.318
   44SOL    HW2  206   0.405   3.546   0.260
   44SOL    HW3  207   0.537   3.586   0.323
   44SOL    MW4  208   0.473   3.528   0.311
   45SOL     OW  209   1.127   3.699   0.356
   45SOL    HW2  210   1.039   3.733   0.368
   45SOL    HW3  211   1.129   3.619   0.409
   45SOL    MW4  212   1.116   3.693   0.365
   46SOL     OW  213   0.115   4.272   0.468
   46SOL    HW2  214   0.037   4.328   0.477
   46SOL    HW3  215   0.080   4.184   0.455
   46SOL    MW4  216   0.100   4.268   0.467
   47SOL     OW  217   0.894   3.871   0.402
   47SOL    HW2  218   0.920   3.947   0.350
   47SOL    HW3  219   0.902   3.900   0.493
   47SOL    MW4  220   0.899   3.884   0.407
   48SOL     OW  221   0.530   4.234   0.462
   48SOL    HW2  222   0.609   4.285   0.446
   48SOL    HW3  223   0.507   4.254   0.553
   48SOL    MW4  224   0.537   4.243   0.472
   49SOL     OW  225   0.703   0.042   0.424
   49SOL    HW2  226   0.770   0.078   0.366
   49SOL    HW3  227   0.722  -0.051   0.428
   49SOL    MW4  228   0.714   0.035   0.417
   50SOL     OW  229   0.852   0.449   0.304
   50SOL    HW2  230   0.806   0.532   0.309
   50SOL    HW3  231   0.932   0.463   0.357
   50SOL    MW4  232   0.857   0.462   0.312
   51SOL     OW  233   0.430   0.507   0.415
   51SOL    HW2  234   0.346   0.465   0.434
   51SOL    HW3  235   0.495   0.445   0.447
   51SOL    MW4  236   0.427   0.493   0.422
   52SOL     OW  237   1.717   0.657   0.521
   52SOL    HW2  238   1.691   0.631   0.609
   52SOL    HW3  239   1.636   0.689   0.480
   52SOL    MW4  240   1.703   0.658   0.527
   53SOL     OW  241   2.096   0.884   0.553
   53SOL    HW2  242   2.125   0.839   0.474
   53SOL    HW3  243   2.003   0.900   0.539
   53SOL    MW4  244   2.088   0.880   0.541
   54SOL     OW  245   1.955   0.036   0.478
   54SOL    HW2  246   1.915  -0.051   0.478
   54SOL    HW3  247   1.881   0.096   0.473
   54SOL    MW4  248   1.940   0.032   0.478
   55SOL     OW  249   0.849   1.379   0.421
   55SOL    HW2  250   0.846   1.438   0.496
   55SOL    HW3  251   0.804   1.300   0.450
   55SOL    MW4  252   0.843   1.376   0.435
   56SOL     OW  253   0.734   1.155   0.500
   56SOL    HW2  254   0.663   1.119   0.447
   56SOL    HW3  255   0.807   1.094   0.488
   56SOL    MW4  256   0.734   1.142   0.492
   57SOL     OW  257   1.934   1.450   0.344
   57SOL    HW2  258   2.012   1.500   0.321
   57SOL    HW3  259   1.869   1.516   0.368
   57SOL    MW4  260   1.936   1.465   0.344
   58SOL     OW  261   0.925   0.943   0.444
   58SOL    HW2  262   0.917   0.910   0.534
   58SOL    HW3  263   1.019   0.949   0.429
   58SOL    MW4  264   0.936   0.939   0.454
   59SOL     OW  265   1.346   1.190   0.089
   59SOL    HW2  266   1.321   1.171  -0.002
   59SOL    HW3  267   1.433   1.229   0.082
   59SOL    MW4  268   1.354   1.192   0.076
   60SOL     OW  269   0.253   2.231   0.387
   60SOL    HW2  270   0.302   2.312   0.402
   60SOL    HW3  271   0.161   2.257   0.391
   60SOL    MW4  272   0.247   2.245   0.389
   61SOL     OW  273   0.016   1.872   0.484
   61SOL    HW2  274  -0.007   1.780   0.468
   61SOL    HW3  275  -0.011   1.887   0.575
   61SOL    MW4  276   0.009   1.862   0.494
   62SOL     OW  277   1.170   1.818   0.451
   62SOL    HW2  278   1.211   1.789   0.533
   62SOL    HW3  279   1.174   1.913   0.455
   62SOL    MW4  280   1.176   1.827   0.462
   63SOL     OW  281   1.018   1.567   0.282
   63SOL    HW2  282   1.101   1.521   0.289
   63SOL    HW3  283   0.953   1.504   0.312
   63SOL    MW4  284   1.020   1.553   0.287
   64SOL     OW  285   0.990   1.845   0.196
   64SOL    HW2  286   1.040   1.765   0.181
   64SOL    HW3  287   1.041   1.914   0.154
   64SOL    MW4  288   1.003   1.844   0.189
   65SOL     OW  289   0.814   2.655   0.316
   65SOL    HW2  290   0.749   2.718   0.346
   65SOL    HW3  291   0.889   2.708   0.288
   65SOL    MW4  292   0.815   2.670   0.316
   66SOL     OW  293   0.605   2.855   0.420
   66SOL    HW2  294   0.527   2.911   0.428
   66SOL    HW3  295   0.628   2.834   0.511
   66SOL    MW4  296   0.597   2.859   0.433
   67SOL     OW  297   0.974   3.228   0.460
   67SOL    HW2  298   0.895   3.255   0.508
   67SOL    HW3  299   0.941   3.181   0.384
   67SOL    MW4  300   0.959   3.226   0.456
   68SOL     OW  301   2.036   2.985   0.516
   68SOL    HW2  302   2.119   3.005   0.473
   68SOL    HW3  303   2.061   2.958   0.604
   68SOL    MW4  304   2.050   2.984   0.522
   69SOL     OW  305   1.242   3.934   0.261
   69SOL    HW2  306   1.314   3.906   0.204
   69SOL    HW3  307   1.206   3.852   0.295
   69SOL    MW4  308   1.247   3.919   0.258
   70SOL     OW  309   0.453   3.959   0.452
   70SOL    HW2  310   0.441   3.973   0.546
   70SOL    HW3  311   0.475   4.046   0.417
   70SOL    MW4  312   0.454   3.973   0.459
   71SOL     OW  313   1.030   4.115   0.290
   71SOL    HW2  314   1.101   4.051   0.287
   71SOL    HW3  315   0.998   4.118   0.200
   71SOL    MW4  316   1.035   4.107   0.277
   72SOL     OW  317   1.091   0.428   0.459
   72SOL    HW2  318   1.082   0.334   0.475
   72SOL    HW3  319   1.182   0.438   0.432
   72SOL    MW4  320   1.102   0.417   0.458
   73SOL     OW  321   0.754   4.414   0.468
   73SOL    HW2  322   0.748   4.395   0.561
   73SOL    HW3  323   0.840   4.381   0.441
   73SOL    MW4  324   0.765   4.407   0.476
   74SOL     OW  325   1.362   0.477   0.435
   74SOL    HW2  326   1.391   0.437   0.516
   74SOL    HW3  327   1.415   0.556   0.427
   74SOL    MW4  328   1.372   0.482   0.444
   75SOL     OW  329   2.010   4.662   0.742
   75SOL    HW2  330   2.014   4.566   0.752
   75SOL    HW3  331   1.995   4.675   0.648
   75SOL    MW4  332   2.009   4.651   0.731
   76SOL     OW  333   1.061   0.151   0.503
   76SOL    HW2  334   0.996   0.147   0.574
   76SOL    HW3  335   1.012   0.127   0.424
   76SOL    MW4  336   1.046   0.147   0.502
   77SOL     OW  337   2.129   0.186   0.316
   77SOL    HW2  338   2.105   0.152   0.229
   77SOL    HW3  339   2.066   0.146   0.376
   77SOL    MW4  340   2.118   0.176   0.312
   78SOL     OW  341   2.344   1.118   0.502
   78SOL    HW2  342   2.258   1.150   0.473
   78SOL    HW3  343   2.327   1.080   0.588
   78SOL    MW4  344   2.330   1.117   0.510
   79SOL     OW  345   1.640   1.140   0.421
   79SOL    HW2  346   1.578   1.085   0.373
   79SOL    HW3  347   1.689   1.186   0.354
   79SOL    MW4  348   1.638   1.139   0.406
   80SOL     OW  349   1.832   0.949   0.497
   80SOL    HW2  350   1.790   0.877   0.545
   80SOL    HW3  351   1.761   1.010   0.478
   80SOL    MW4  352   1.817   0.947   0.501
   81SOL     OW  353   1.413   1.020   0.309
   81SOL    HW2  354   1.335   1.032   0.363
   81SOL    HW3  355   1.387   1.050   0.221
   81SOL    MW4  356   1.399   1.026   0.304
   82SOL     OW  357   1.716   1.623   0.381
   82SOL    HW2  358   1.684   1.616   0.471
   82SOL    HW3  359   1.764   1.706   0.379
   82SOL    MW4  360   1.718   1.633   0.393
   83SOL     OW  361   0.965   2.211   0.327
   83SOL    HW2  362   1.055   2.191   0.353
   83SOL    HW3  363   0.946   2.295   0.369
   83SOL    MW4  364   0.975   2.220   0.336
   84SOL     OW  365   1.194   2.493   0.338
   84SOL    HW2  366   1.191   2.424   0.271
   84SOL    HW3  367   1.105   2.496   0.374
   84SOL    MW4  368   1.182   2.484   0.334
   85SOL     OW  369   2.292   2.160   0.397
   85SOL    HW2  370   2.356   2.089   0.396
   85SOL    HW3  371   2.336   2.231   0.445
   85SOL    MW4  372   2.307   2.160   0.403
   86SOL     OW  373   1.382   2.333   0.505
   86SOL    HW2  374   1.462   2.320   0.455
   86SOL    HW3  375   1.325   2.384   0.447
   86SOL    MW4  376   1.385   2.338   0.491
   87SOL     OW  377   1.102   1.261   0.478
   87SOL    HW2  378   1.021   1.298   0.444
   87SOL    HW3  379   1.171   1.301   0.424
   87SOL    MW4  380   1.100   1.271   0.466
   88SOL     OW  381   1.147   3.465   0.501
   88SOL    HW2  382   1.234   3.450   0.464
   88SOL    HW3  383   1.101   3.382   0.487
   88SOL    MW4  384   1.153   3.452   0.494
   89SOL     OW  385   1.854   2.331   0.474
   89SOL    HW2  386   1.920   2.262   0.472
   89SOL    HW3  387   1.903   2.411   0.451
   89SOL    MW4  388   1.869   2.333   0.471
   90SOL     OW  389   2.182   0.494   0.302
   90SOL    HW2  390   2.097   0.500   0.344
   90SOL    HW3  391   2.194   0.400   0.286
   90SOL    MW4  392   2.172   0.482   0.305
   91SOL     OW  393   1.469   3.791   0.109
   91SOL    HW2  394   1.524   3.758   0.038
   91SOL    HW3  395   1.396   3.730   0.113
   91SOL    MW4  396   1.467   3.778   0.100
   92SOL     OW  397   2.141   1.592   0.249
   92SOL    HW2  398   2.218   1.589   0.306
   92SOL    HW3  399   2.173   1.568   0.163
   92SOL    MW4  400   2.155   1.588   0.245
   93SOL     OW  401   1.640   3.863   0.339
   93SOL    HW2  402   1.597   3.875   0.255
   93SOL    HW3  403   1.589   3.918   0.399
   93SOL    MW4  404   1.628   3.872   0.336
   94SOL     OW  405   1.594   2.891   0.431
   94SOL    HW2  406   1.514   2.860   0.388
   94SOL    HW3  407   1.580   2.872   0.523
   94SOL    MW4  408   1.582   2.884   0.437
   95SOL     OW  409   2.107   4.019   0.445
   95SOL    HW2  410   2.036   3.956   0.431
   95SOL    HW3  411   2.185   3.976   0.411
   95SOL    MW4  412   2.107   4.005   0.438
   96SOL     OW  413   1.294   3.580   0.147
   96SOL    HW2  414   1.347   3.533   0.212
   96SOL    HW3  415   1.209   3.593   0.191
   96SOL    MW4  416   1.290   3.575   0.162
   97SOL     OW  417   1.851   4.441   0.483
   97SOL    HW2  418   1.921   4.376   0.481
   97SOL    HW3  419   1.776   4.395   0.521
   97SOL    MW4  420   1.851   4.427   0.488
   98SOL     OW  421   2.248   0.118   0.697
   98SOL    HW2  422   2.163   0.074   0.702
   98SOL    HW3  423   2.308   0.061   0.745
   98SOL    MW4  424   2.244   0.105   0.704
   99SOL     OW  425   2.583   4.384   0.288
   99SOL    HW2  426   2.645   4.397   0.359
   99SOL    HW3  427   2.637   4.384   0.208
   99SOL    MW4  428   2.598   4.386   0.287
  100SOL     OW  429   1.281   4.479   0.388
  100SOL    HW2  430   1.288   4.469   0.293
  100SOL    HW3  431   1.202   4.432   0.412
  100SOL    MW4  432   1.272   4.472   0.379
  101SOL     OW  433   2.429   0.582   0.411
  101SOL    HW2  434   2.348   0.556   0.366
  101SOL    HW3  435   2.430   0.678   0.405
  101SOL    MW4  436   2.418   0.591   0.405
  102SOL     OW  437   1.812   1.895   0.477
  102SOL    HW2  438   1.831   1.888   0.571
  102SOL    HW3  439   1.871   1.963   0.445
  102SOL    MW4  440   1.822   1.903   0.485
  103SOL     OW  441   2.067   1.216   0.451
  103SOL    HW2  442   2.062   1.156   0.377
  103SOL    HW3  443   2.018   1.294   0.422
  103SOL    MW4  444   2.060   1.219   0.437
  104SOL     OW  445   2.524   1.355   0.446
  104SOL    HW2  446   2.619   1.345   0.451
  104SOL    HW3  447   2.492   1.269   0.419
  104SOL    MW4  448   2.532   1.342   0.443
  105SOL     OW  449   2.574   1.734   0.490
  105SOL    HW2  450   2.659   1.731   0.446
  105SOL    HW3  451   2.593   1.709   0.581
  105SOL    MW4  452   2.587   1.731   0.496
  106SOL     OW  453   1.470   1.583   0.254
  106SOL    HW2  454   1.439   1.672   0.238
  106SOL    HW3  455   1.549   1.594   0.307
  106SOL    MW4  456   1.477   1.596   0.259
  107SOL     OW  457   1.384   1.849   0.266
  107SOL    HW2  458   1.429   1.912   0.323
  107SOL    HW3  459   1.308   1.821   0.318
  107SOL    MW4  460   1.380   1.854   0.280
  108SOL     OW  461   2.386   2.401   0.484
  108SOL    HW2  462   2.343   2.435   0.406
  108SOL    HW3  463   2.332   2.431   0.557
  108SOL    MW4  464   2.373   2.409   0.483
  109SOL     OW  465   1.856   3.209   0.454
  109SOL    HW2  466   1.927   3.145   0.467
  109SOL    HW3  467   1.893   3.274   0.394
  109SOL    MW4  468   1.870   3.209   0.448
  110SOL     OW  469   1.120   3.086   0.655
  110SOL    HW2  470   1.068   3.113   0.730
  110SOL    HW3  471   1.077   3.129   0.580
  110SOL    MW4  472   1.107   3.095   0.655
  111SOL     OW  473   1.575   3.183   0.457
  111SOL    HW2  474   1.667   3.192   0.483
  111SOL    HW3  475   1.569   3.094   0.423
  111SOL    MW4  476   1.587   3.173   0.456
  112SOL     OW  477   1.272   1.389   0.295
  112SOL    HW2  478   1.290   1.328   0.224
  112SOL    HW3  479   1.352   1.440   0.304
  112SOL    MW4  480   1.285   1.388   0.287
  113SOL     OW  481   3.722   1.530   0.413
  113SOL    HW2  482   3.685   1.550   0.499
  113SOL    HW3  483   3.665   1.577   0.352
  113SOL    MW4  484   3.709   1.539   0.416
  114SOL     OW  485   1.619   2.289   0.340
  114SOL    HW2  486   1.708   2.309   0.370
  114SOL    HW3  487   1.620   2.309   0.246
  114SOL    MW4  488   1.631   2.294   0.332
  115SOL     OW  489   1.548   2.011   0.432
  115SOL    HW2  490   1.548   2.092   0.382
  115SOL    HW3  491   1.637   1.978   0.424
  115SOL    MW4  492   1.560   2.018   0.425
  116SOL     OW  493   1.408   3.433   0.406
  116SOL    HW2  494   1.463   3.355   0.407
  116SOL    HW3  495   1.467   3.504   0.430
  116SOL    MW4  496   1.423   3.432   0.409
  117SOL     OW  497   2.263   3.377   0.447
  117SOL    HW2  498   2.267   3.378   0.542
  117SOL    HW3  499   2.352   3.399   0.419
  117SOL    MW4  500   2.275   3.380   0.455
  118SOL     OW  501   1.454   4.271   0.452
  118SOL    HW2  502   1.501   4.296   0.532
  118SOL    HW3  503   1.421   4.353   0.417
  118SOL    MW4  504   1.456   4.285   0.458
  119SOL     OW  505   1.614   3.625   0.476
  119SOL    HW2  506   1.587   3.706   0.433
  119SOL    HW3  507   1.706   3.614   0.451
  119SOL    MW4  508   1.623   3.634   0.467
  120SOL     OW  509   1.333   0.082   0.486
  120SOL    HW2  510   1.331  -0.004   0.443
  120SOL    HW3  511   1.242   0.098   0.512
  120SOL    MW4  512   1.321   0.073   0.484
  121SOL     OW  513   1.545   0.246   0.390
  121SOL    HW2  514   1.506   0.333   0.379
  121SOL    HW3  515   1.474   0.191   0.423
  121SOL    MW4  516   1.531   0.250   0.393
  122SOL     OW  517   2.643   0.122   0.474
  122SOL    HW2  518   2.557   0.100   0.438
  122SOL    HW3  519   2.653   0.216   0.457
  122SOL    MW4  520   2.633   0.132   0.467
  123SOL     OW  521   2.331   0.040   0.444
  123SOL    HW2  522   2.278   0.081   0.376
  123SOL    HW3  523   2.303   0.082   0.525
  123SOL    MW4  524   2.320   0.051   0.445
  124SOL     OW  525   2.366   1.571   0.421
  124SOL    HW2  526   2.422   1.493   0.412
  124SOL    HW3  527   2.428   1.643   0.432
  124SOL    MW4  528   2.382   1.570   0.421
  125SOL     OW  529   2.852   0.573   0.449
  125SOL    HW2  530   2.936   0.574   0.403
  125SOL    HW3  531   2.814   0.659   0.432
  125SOL    MW4  532   2.858   0.584   0.441
  126SOL     OW  533   1.995   1.017   0.279
  126SOL    HW2  534   2.039   0.935   0.257
  126SOL    HW3  535   1.929   0.992   0.344
  126SOL    MW4  536   1.992   1.003   0.285
  127SOL     OW  537   2.809   1.305   0.456
  127SOL    HW2  538   2.847   1.224   0.420
  127SOL    HW3  539   2.824   1.299   0.550
  127SOL    MW4  540   2.816   1.293   0.463
  128SOL     OW  541   2.857   1.621   0.517
  128SOL    HW2  542   2.841   1.541   0.467
  128SOL    HW3  543   2.876   1.590   0.606
  128SOL    MW4  544   2.857   1.606   0.522
  129SOL     OW  545   3.207   2.216   0.443
  129SOL    HW2  546   3.173   2.145   0.498
  129SOL    HW3  547   3.281   2.177   0.396
  129SOL    MW4  548   3.212   2.201   0.444
  130SOL     OW  549   3.030   4.399   0.563
  130SOL    HW2  550   3.070   4.472   0.515
  130SOL    HW3  551   3.103   4.340   0.580
  130SOL    MW4  552   3.045   4.401   0.559
  131SOL     OW  553   2.014   2.090   0.458
  131SOL    HW2  554   2.036   2.058   0.546
  131SOL    HW3  555   2.099   2.114   0.420
  131SOL    MW4  556   2.028   2.089   0.465
  132SOL     OW  557   1.541   1.538   0.607
  132SOL    HW2  558   1.601   1.575   0.672
  132SOL    HW3  559   1.460   1.588   0.617
  132SOL    MW4  560   1.539   1.549   0.617
  133SOL     OW  561   2.545   2.049   0.485
  133SOL    HW2  562   2.584   1.962   0.493
  133SOL    HW3  563   2.615   2.102   0.447
  133SOL    MW4  564   2.559   2.044   0.481
  134SOL     OW  565   2.777   2.211   0.410
  134SOL    HW2  566   2.858   2.245   0.371
  134SOL    HW3  567   2.807   2.161   0.486
  134SOL    MW4  568   2.792   2.209   0.415
  135SOL     OW  569   2.706   2.730   0.333
  135SOL    HW2  570   2.689   2.644   0.372
  135SOL    HW3  571   2.703   2.713   0.239
  135SOL    MW4  572   2.703   2.716   0.326
  136SOL     OW  573   1.271   2.761   0.388
  136SOL    HW2  574   1.250   2.751   0.481
  136SOL    HW3  575   1.254   2.675   0.351
  136SOL    MW4  576   1.266   2.749   0.396
  137SOL     OW  577   1.036   2.833   0.259
  137SOL    HW2  578   1.013   2.925   0.267
  137SOL    HW3  579   1.118   2.824   0.307
  137SOL    MW4  580   1.044   2.844   0.266
  138SOL     OW  581   1.884   3.600   0.447
  138SOL    HW2  582   1.933   3.552   0.380
  138SOL    HW3  583   1.911   3.560   0.530
  138SOL    MW4  584   1.894   3.589   0.449
  139SOL     OW  585   2.366   3.916   0.373
  139SOL    HW2  586   2.408   3.831   0.384
  139SOL    HW3  587   2.434   3.973   0.339
  139SOL    MW4  588   2.380   3.913   0.370
  140SOL     OW  589   1.876   3.872   0.477
  140SOL    HW2  590   1.900   3.780   0.495
  140SOL    HW3  591   1.813   3.866   0.406
  140SOL    MW4  592   1.871   3.859   0.470
  141SOL     OW  593   2.009   3.397   0.313
  141SOL    HW2  594   2.019   3.348   0.231
  141SOL    HW3  595   2.091   3.383   0.360
  141SOL    MW4  596   2.021   3.389   0.308
  142SOL     OW  597   2.334   4.419   0.428
  142SOL    HW2  598   2.392   4.402   0.354
  142SOL    HW3  599   2.334   4.514   0.437
  142SOL    MW4  600   2.341   4.429   0.419
  143SOL     OW  601   2.082   4.286   0.483
  143SOL    HW2  602   2.100   4.194   0.465
  143SOL    HW3  603   2.156   4.333   0.445
  143SOL    MW4  604   2.094   4.280   0.476
  144SOL     OW  605   3.115   4.633   0.416
  144SOL    HW2  606   3.032   4.628   0.370
  144SOL    HW3  607   3.095   4.679   0.498
  144SOL    MW4  608   3.102   4.638   0.421
  145SOL     OW  609   2.537   3.670   0.396
  145SOL    HW2  610   2.513   3.659   0.488
  145SOL    HW3  611   2.542   3.581   0.361
  145SOL    MW4  612   2.534   3.657   0.403
  146SOL     OW  613   2.436   4.194   0.563
  146SOL    HW2  614   2.385   4.269   0.533
  146SOL    HW3  615   2.371   4.125   0.579
  146SOL    MW4  616   2.421   4.194   0.561
  147SOL     OW  617   2.636   0.393   0.407
  147SOL    HW2  618   2.566   0.453   0.382
  147SOL    HW3  619   2.714   0.448   0.418
  147SOL    MW4  620   2.637   0.408   0.405
  148SOL     OW  621   1.941   0.505   0.446
  148SOL    HW2  622   1.908   0.415   0.448
  148SOL    HW3  623   1.863   0.559   0.461
  148SOL    MW4  624   1.926   0.500   0.448
  149SOL     OW  625   3.334   0.392   0.193
  149SOL    HW2  626   3.316   0.303   0.224
  149SOL    HW3  627   3.320   0.388   0.098
  149SOL    MW4  628   3.330   0.380   0.185
  150SOL     OW  629   1.818   1.243   0.192
  150SOL    HW2  630   1.859   1.310   0.247
  150SOL    HW3  631   1.886   1.176   0.182
  150SOL    MW4  632   1.832   1.243   0.198
  151SOL     OW  633   2.686   0.852   0.417
  151SOL    HW2  634   2.753   0.917   0.394
  151SOL    HW3  635   2.670   0.865   0.510
  151SOL    MW4  636   2.693   0.862   0.426
  152SOL     OW  637   3.101   1.744   0.471
  152SOL    HW2  638   3.012   1.709   0.467
  152SOL    HW3  639   3.089   1.837   0.491
  152SOL    MW4  640   3.087   1.751   0.473
  153SOL     OW  641   3.703   1.020   0.508
  153SOL    HW2  642   3.752   0.977   0.438
  153SOL    HW3  643   3.698   0.955   0.578
  153SOL    MW4  644   3.709   1.005   0.508
  154SOL     OW  645   3.972   1.905   0.400
  154SOL    HW2  646   4.059   1.945   0.402
  154SOL    HW3  647   3.919   1.962   0.456
  154SOL    MW4  648   3.976   1.918   0.408
  155SOL     OW  649   2.865   4.647   0.310
  155SOL    HW2  650   2.824   4.596   0.240
  155SOL    HW3  651   2.791   4.693   0.351
  155SOL    MW4  652   2.850   4.647   0.306
  156SOL     OW  653   3.108   1.994   0.563
  156SOL    HW2  654   3.028   2.030   0.600
  156SOL    HW3  655   3.156   1.959   0.638
  156SOL    MW4  656   3.104   1.994   0.578
  157SOL     OW  657   2.644   2.480   0.420
  157SOL    HW2  658   2.688   2.399   0.395
  157SOL    HW3  659   2.554   2.453   0.439
  157SOL    MW4  660   2.638   2.465   0.419
  158SOL     OW  661   2.999   2.314   0.296
  158SOL    HW2  662   3.007   2.291   0.204
  158SOL    HW3  663   3.078   2.279   0.337
  158SOL    MW4  664   3.010   2.306   0.289
  159SOL     OW  665   1.991   2.558   0.458
  159SOL    HW2  666   2.059   2.600   0.511
  159SOL    HW3  667   1.928   2.628   0.440
  159SOL    MW4  668   1.992   2.573   0.462
  160SOL     OW  669   2.565   2.986   0.448
  160SOL    HW2  670   2.618   2.914   0.413
  160SOL    HW3  671   2.521   2.949   0.525
  160SOL    MW4  672   2.566   2.971   0.454
  161SOL     OW  673   3.202   3.206   0.458
  161SOL    HW2  674   3.200   3.116   0.424
  161SOL    HW3  675   3.198   3.196   0.553
  161SOL    MW4  676   3.201   3.193   0.466
  162SOL     OW  677   3.445   3.347   0.434
  162SOL    HW2  678   3.446   3.377   0.343
  162SOL    HW3  679   3.367   3.293   0.441
  162SOL    MW4  680   3.435   3.344   0.423
  163SOL     OW  681   2.314   3.077   0.378
  163SOL    HW2  682   2.407   3.055   0.384
  163SOL    HW3  683   2.312   3.173   0.376
  163SOL    MW4  684   2.326   3.087   0.379
  164SOL     OW  685   1.434   4.004   0.460
  164SOL    HW2  686   1.445   4.098   0.446
  164SOL    HW3  687   1.373   3.977   0.391
  164SOL    MW4  688   1.427   4.013   0.449
  165SOL     OW  689   3.375   3.949   0.359
  165SOL    HW2  690   3.281   3.933   0.369
  165SOL    HW3  691   3.415   3.904   0.434
  165SOL    MW4  692   3.368   3.941   0.370
  166SOL     OW  693   2.979   3.417   0.475
  166SOL    HW2  694   2.900   3.364   0.465
  166SOL    HW3  695   3.050   3.354   0.487
  166SOL    MW4  696   2.978   3.402   0.475
  167SOL     OW  697   2.516   3.381   0.318
  167SOL    HW2  698   2.592   3.348   0.365
  167SOL    HW3  699   2.520   3.338   0.232
  167SOL    MW4  700   2.526   3.371   0.313
  168SOL     OW  701   3.757   4.203   0.688
  168SOL    HW2  702   3.718   4.132   0.638
  168SOL    HW3  703   3.736   4.282   0.638
  168SOL    MW4  704   3.749   4.204   0.675
  169SOL     OW  705   2.959   4.162   0.325
  169SOL    HW2  706   3.014   4.238   0.309
  169SOL    HW3  707   2.923   4.140   0.239
  169SOL    MW4  708   2.962   4.169   0.312
  170SOL     OW  709   3.319   0.142   0.308
  170SOL    HW2  710   3.262   0.070   0.336
  170SOL    HW3  711   3.405   0.119   0.343
  170SOL    MW4  712   3.323   0.129   0.316
  171SOL     OW  713   3.122   4.381   0.239
  171SOL    HW2  714   3.139   4.475   0.247
  171SOL    HW3  715   3.206   4.339   0.261
  171SOL    MW4  716   3.136   4.388   0.243
  172SOL     OW  717   2.775   4.118   0.092
  172SOL    HW2  718   2.763   4.056   0.020
  172SOL    HW3  719   2.704   4.098   0.153
  172SOL    MW4  720   2.764   4.107   0.090
  173SOL     OW  721   2.851   4.413   0.132
  173SOL    HW2  722   2.834   4.333   0.082
  173SOL    HW3  723   2.941   4.403   0.163
  173SOL    MW4  724   2.861   4.401   0.129
  174SOL     OW  725   2.920   1.022   0.384
  174SOL    HW2  726   2.987   0.974   0.333
  174SOL    HW3  727   2.950   1.014   0.474
  174SOL    MW4  728   2.933   1.014   0.389
  175SOL     OW  729   3.362   1.829   0.387
  175SOL    HW2  730   3.423   1.772   0.340
  175SOL    HW3  731   3.280   1.780   0.388
  175SOL    MW4  732   3.360   1.815   0.381
  176SOL     OW  733   3.232   0.772   0.527
  176SOL    HW2  734   3.180   0.847   0.553
  176SOL    HW3  735   3.292   0.806   0.461
  176SOL    MW4  736   3.233   0.786   0.522
  177SOL     OW  737   3.568   0.717   0.278
  177SOL    HW2  738   3.500   0.781   0.296
  177SOL    HW3  739   3.649   0.767   0.280
  177SOL    MW4  740   3.570   0.732   0.281
  178SOL     OW  741   3.582   1.884   0.593
  178SOL    HW2  742   3.512   1.868   0.529
  178SOL    HW3  743   3.540   1.939   0.660
  178SOL    MW4  744   3.567   1.889   0.593
  179SOL     OW  745   3.400   2.095   0.299
  179SOL    HW2  746   3.391   2.006   0.332
  179SOL    HW3  747   3.493   2.115   0.309
  179SOL    MW4  748   3.411   2.086   0.304
  180SOL     OW  749   3.486   1.172   0.442
  180SOL    HW2  750   3.554   1.108   0.462
  180SOL    HW3  751   3.463   1.210   0.528
  180SOL    MW4  752   3.492   1.169   0.456
  181SOL     OW  753   3.766   1.920   0.179
  181SOL    HW2  754   3.725   1.990   0.230
  181SOL    HW3  755   3.860   1.930   0.195
  181SOL    MW4  756   3.773   1.930   0.188
  182SOL     OW  757   3.329   2.422   0.604
  182SOL    HW2  758   3.288   2.351   0.554
  182SOL    HW3  759   3.362   2.379   0.683
  182SOL    MW4  760   3.328   2.407   0.608
  183SOL     OW  761   3.577   2.748   0.655
  183SOL    HW2  762   3.611   2.701   0.731
  183SOL    HW3  763   3.569   2.681   0.587
  183SOL    MW4  764   3.580   2.733   0.656
  184SOL     OW  765   1.861   2.812   0.403
  184SOL    HW2  766   1.918   2.868   0.456
  184SOL    HW3  767   1.776   2.857   0.405
  184SOL    MW4  768   1.857   2.826   0.411
  185SOL     OW  769   3.324   2.698   0.347
  185SOL    HW2  770   3.393   2.643   0.383
  185SOL    HW3  771   3.244   2.645   0.353
  185SOL    MW4  772   3.322   2.684   0.353
  186SOL     OW  773   2.946   2.861   0.739
  186SOL    HW2  774   2.958   2.840   0.646
  186SOL    HW3  775   3.027   2.830   0.780
  186SOL    MW4  776   2.959   2.855   0.732
  187SOL     OW  777   2.412   0.877   0.380
  187SOL    HW2  778   2.507   0.870   0.374
  187SOL    HW3  779   2.396   0.964   0.415
  187SOL    MW4  780   2.422   0.887   0.384
  188SOL     OW  781   2.758   4.116   0.516
  188SOL    HW2  782   2.744   4.021   0.514
  188SOL    HW3  783   2.835   4.130   0.462
  188SOL    MW4  784   2.766   4.105   0.509
  189SOL     OW  785   3.120   3.958   0.467
  189SOL    HW2  786   3.067   4.032   0.438
  189SOL    HW3  787   3.131   3.971   0.561
  189SOL    MW4  788   3.114   3.969   0.475
  190SOL     OW  789   3.873   3.459   0.444
  190SOL    HW2  790   3.858   3.545   0.404
  190SOL    HW3  791   3.968   3.448   0.441
  190SOL    MW4  792   3.883   3.469   0.438
  191SOL     OW  793   3.855   3.516   0.714
  191SOL    HW2  794   3.946   3.499   0.740
  191SOL    HW3  795   3.851   3.490   0.622
  191SOL    MW4  796   3.866   3.510   0.706
  192SOL     OW  797   2.739   3.849   0.471
  192SOL    HW2  798   2.812   3.788   0.481
  192SOL    HW3  799   2.662   3.793   0.457
  192SOL    MW4  800   2.738   3.833   0.471
  193SOL     OW  801   2.712   3.256   0.474
  193SOL    HW2  802   2.717   3.268   0.568
  193SOL    HW3  803   2.686   3.164   0.463
  193SOL    MW4  804   2.709   3.245   0.485
  194SOL     OW  805   4.392   0.148   0.242
  194SOL    HW2  806   4.362   0.059   0.221
  194SOL    HW3  807   4.472   0.134   0.292
  194SOL    MW4  808   4.399   0.134   0.246
  195SOL     OW  809   4.028   0.042   0.377
  195SOL    HW2  810   3.962   0.083   0.321
  195SOL    HW3  811   4.078   0.116   0.411
  195SOL    MW4  812   4.026   0.057   0.374
  196SOL     OW  813   3.125   0.582   0.355
  196SOL    HW2  814   3.178   0.618   0.426
  196SOL    HW3  815   3.183   0.522   0.309
  196SOL    MW4  816   3.139   0.579   0.358
  197SOL     OW  817   3.521   0.475   0.380
  197SOL    HW2  818   3.460   0.438   0.316
  197SOL    HW3  819   3.553   0.555   0.340
  197SOL    MW4  820   3.517   0.480   0.367
  198SOL     OW  821   4.235   0.520   0.394
  198SOL    HW2  822   4.326   0.549   0.405
  198SOL    HW3  823   4.242   0.427   0.375
  198SOL    MW4  824   4.248   0.512   0.393
  199SOL     OW  825   4.434   0.853   0.483
  199SOL    HW2  826   4.453   0.786   0.418
  199SOL    HW3  827   4.338   0.862   0.482
  199SOL    MW4  828   4.423   0.846   0.474
  200SOL     OW  829   3.981   0.634   0.364
  200SOL    HW2  830   4.067   0.593   0.371
  200SOL    HW3  831   3.919   0.562   0.376
  200SOL    MW4  832   3.984   0.619   0.366
  201SOL     OW  833   4.043   1.103   0.361
  201SOL    HW2  834   4.127   1.141   0.387
  201SOL    HW3  835   3.978   1.165   0.393
  201SOL    MW4  836   4.045   1.116   0.369
  202SOL     OW  837   3.837   1.272   0.441
  202SOL    HW2  838   3.773   1.201   0.451
  202SOL    HW3  839   3.784   1.352   0.446
  202SOL    MW4  840   3.821   1.273   0.443
  203SOL     OW  841   3.575   1.706   0.216
  203SOL    HW2  842   3.545   1.672   0.131
  203SOL    HW3  843   3.626   1.784   0.193
  203SOL    MW4  844   3.578   1.712   0.202
  204SOL     OW  845   3.372   0.899   0.331
  204SOL    HW2  846   3.302   0.898   0.265
  204SOL    HW3  847   3.398   0.991   0.338
  204SOL    MW4  848   3.366   0.911   0.323
  205SOL     OW  849   3.682   2.131   0.370
  205SOL    HW2  850   3.706   2.112   0.461
  205SOL    HW3  851   3.702   2.224   0.359
  205SOL    MW4  852   3.687   2.141   0.381
  206SOL     OW  853   3.943   3.099   0.567
  206SOL    HW2  854   3.974   3.132   0.651
  206SOL    HW3  855   3.858   3.142   0.554
  206SOL    MW4  856   3.936   3.109   0.576
  207SOL     OW  857   3.069   2.567   0.396
  207SOL    HW2  858   3.063   2.544   0.489
  207SOL    HW3  859   3.035   2.490   0.351
  207SOL    MW4  860   3.063   2.554   0.403
  208SOL     OW  861   2.977   3.704   0.520
  208SOL    HW2  862   3.045   3.743   0.465
  208SOL    HW3  863   2.973   3.613   0.491
  208SOL    MW4  864   2.986   3.697   0.509
  209SOL     OW  865   3.192   2.932   0.428
  209SOL    HW2  866   3.237   2.869   0.371
  209SOL    HW3  867   3.101   2.904   0.428
  209SOL    MW4  868   3.186   2.920   0.420
  210SOL     OW  869   3.797   2.861   0.534
  210SOL    HW2  870   3.742   2.838   0.609
  210SOL    HW3  871   3.846   2.938   0.563
  210SOL    MW4  872   3.796   2.868   0.548
  211SOL     OW  873   3.745   2.397   0.375
  211SOL    HW2  874   3.786   2.478   0.345
  211SOL    HW3  875   3.800   2.368   0.448
  211SOL    MW4  876   3.757   2.404   0.381
  212SOL     OW  877   3.749   4.231   0.161
  212SOL    HW2  878   3.773   4.222   0.069
  212SOL    HW3  879   3.733   4.141   0.191
  212SOL    MW4  880   3.750   4.218   0.153
  213SOL     OW  881   3.531   2.559   0.466
  213SOL    HW2  882   3.471   2.497   0.507
  213SOL    HW3  883   3.590   2.504   0.414
  213SOL    MW4  884   3.531   2.543   0.464
  214SOL     OW  885   3.452   3.819   0.617
  214SOL    HW2  886   3.416   3.853   0.699
  214SOL    HW3  887   3.447   3.724   0.626
  214SOL    MW4  888   3.447   3.811   0.629
  215SOL     OW  889   4.201   3.999   0.422
  215SOL    HW2  890   4.180   4.000   0.515
  215SOL    HW3  891   4.135   4.057   0.382
  215SOL    MW4  892   4.189   4.007   0.429
  216SOL     OW  893   3.636   4.001   0.266
  216SOL    HW2  894   3.659   3.969   0.353
  216SOL    HW3  895   3.543   3.978   0.256
  216SOL    MW4  896   3.626   3.994   0.276
  217SOL     OW  897   3.588   4.441   0.299
  217SOL    HW2  898   3.650   4.400   0.238
  217SOL    HW3  899   3.638   4.452   0.380
  217SOL    MW4  900   3.603   4.437   0.301
  218SOL     OW  901   0.027   0.027   0.623
  218SOL    HW2  902  -0.014  -0.052   0.589
  218SOL    HW3  903  -0.046   0.087   0.639
  218SOL    MW4  904   0.012   0.025   0.620
  219SOL     OW  905   4.134   0.848   0.465
  219SOL    HW2  906   4.076   0.780   0.431
  219SOL    HW3  907   4.098   0.930   0.430
  219SOL    MW4  908   4.122   0.850   0.456
  220SOL     OW  909   0.578   2.109   0.473
  220SOL    HW2  910   0.587   2.195   0.432
  220SOL    HW3  911   0.486   2.086   0.459
  220SOL    MW4  912   0.567   2.118   0.466
  221SOL     OW  913   0.008   0.611   0.365
  221SOL    HW2  914   0.055   0.533   0.394
  221SOL    HW3  915   0.020   0.612   0.270
  221SOL    MW4  916   0.016   0.601   0.356
  222SOL     OW  917   4.255   1.247   0.449
  222SOL    HW2  918   4.245   1.240   0.543
  222SOL    HW3  919   4.254   1.341   0.432
  222SOL    MW4  920   4.254   1.259   0.459
  223SOL     OW  921   3.594   0.073   0.366
  223SOL    HW2  922   3.585  -0.016   0.332
  223SOL    HW3  923   3.667   0.110   0.315
  223SOL    MW4  924   3.603   0.066   0.355
  224SOL     OW  925   3.816   0.853   0.320
  224SOL    HW2  926   3.873   0.908   0.266
  224SOL    HW3  927   3.866   0.773   0.334
  224SOL    MW4  928   3.830   0.850   0.315
  225SOL     OW  929   0.247   1.556   0.378
  225SOL    HW2  930   0.156   1.566   0.403
  225SOL    HW3  931   0.268   1.465   0.401
  225SOL    MW4  932   0.238   1.545   0.384
  226SOL     OW  933   4.251   2.289   0.438
  226SOL    HW2  934   4.193   2.336   0.497
  226SOL    HW3  935   4.327   2.347   0.428
  226SOL    MW4  936   4.253   2.303   0.444
  227SOL     OW  937   0.467   1.713   0.435
  227SOL    HW2  938   0.396   1.658   0.403
  227SOL    HW3  939   0.432   1.801   0.436
  227SOL    MW4  940   0.453   1.717   0.431
  228SOL     OW  941   0.951   2.453   0.456
  228SOL    HW2  942   0.916   2.433   0.542
  228SOL    HW3  943   0.884   2.508   0.415
  228SOL    MW4  944   0.938   2.458   0.462
  229SOL     OW  945   4.240   2.017   0.478
  229SOL    HW2  946   4.320   1.978   0.443
  229SOL    HW3  947   4.242   2.108   0.448
  229SOL    MW4  948   4.251   2.024   0.470
  230SOL     OW  949   4.472   2.445   0.443
  230SOL    HW2  950   4.499   2.536   0.430
  230SOL    HW3  951   4.493   2.427   0.535
  230SOL    MW4  952   4.478   2.455   0.454
  231SOL     OW  953   4.318   3.591   0.491
  231SOL    HW2  954   4.404   3.570   0.454
  231SOL    HW3  955   4.264   3.515   0.471
  231SOL    MW4  956   4.322   3.578   0.484
  232SOL     OW  957   4.267   2.870   0.463
  232SOL    HW2  958   4.193   2.810   0.476
  232SOL    HW3  959   4.338   2.814   0.431
  232SOL    MW4  960   4.267   2.855   0.460
  233SOL     OW  961   0.216   3.814   0.389
  233SOL    HW2  962   0.137   3.866   0.404
  233SOL    HW3  963   0.288   3.874   0.408
  233SOL    MW4  964   0.215   3.829   0.393
  234SOL     OW  965   0.069   3.452   0.388
  234SOL    HW2  966   0.096   3.484   0.302
  234SOL    HW3  967   0.133   3.488   0.448
  234SOL    MW4  968   0.081   3.461   0.384
  235SOL     OW  969   4.470   3.227   0.506
  235SOL    HW2  970   4.377   3.208   0.501
  235SOL    HW3  971   4.481   3.311   0.462
  235SOL    MW4  972   4.459   3.235   0.500
  236SOL     OW  973   3.908   3.734   0.383
  236SOL    HW2  974   3.868   3.776   0.308
  236SOL    HW3  975   4.002   3.742   0.368
  236SOL    MW4  976   3.915   3.740   0.371
  237SOL     OW  977   3.700   3.231   0.511
  237SOL    HW2  978   3.753   3.306   0.484
  237SOL    HW3  979   3.618   3.241   0.463
  237SOL    MW4  980   3.696   3.242   0.501
  238SOL     OW  981   0.010   3.995   0.461
  238SOL    HW2  982  -0.008   4.017   0.553
  238SOL    HW3  983  -0.073   4.014   0.416
  238SOL    MW4  984  -0.004   4.000   0.468
  239SOL     OW  985   4.238   4.536   0.277
  239SOL    HW2  986   4.200   4.460   0.232
  239SOL    HW3  987   4.162   4.587   0.306
  239SOL    MW4  988   4.223   4.532   0.275
  240SOL     OW  989   4.013   4.451   0.497
  240SOL    HW2  990   4.089   4.449   0.555
  240SOL    HW3  991   4.010   4.542   0.466
  240SOL    MW4  992   4.023   4.463   0.500
  241SOL     OW  993   3.739   4.434   0.536
  241SOL    HW2  994   3.707   4.506   0.590
  241SOL    HW3  995   3.834   4.433   0.551
  241SOL    MW4  996   3.747   4.444   0.545
  242SOL     OW  997   0.210   4.594   0.806
  242SOL    HW2  998   0.200   4.501   0.789
  242SOL    HW3  999   0.149   4.637   0.747
  242SOL    MW4 1000   0.201   4.588   0.796
  243SOL     OW 1001   4.277   0.139   0.681
  243SOL    HW2 1002   4.242   0.074   0.742
  243SOL    HW3 1003   4.311   0.209   0.738
  243SOL    MW4 1004   4.277   0.140   0.697
  244SOL     OW 1005   4.387   0.352   0.807
  244SOL    HW2 1006   4.391   0.348   0.903
  244SOL    HW3 1007   4.473   0.386   0.781
  244SOL    MW4 1008   4.399   0.356   0.816
  245SOL     OW 1009   0.169   0.459   0.739
  245SOL    HW2 1010   0.249   0.413   0.767
  245SOL    HW3 1011   0.184   0.550   0.766
  245SOL    MW4 1012   0.182   0.465   0.746
  246SOL     OW 1013   0.205   0.735   0.799
  246SOL    HW2 1014   0.210   0.745   0.894
  246SOL    HW3 1015   0.116   0.764   0.777
  246SOL    MW4 1016   0.194   0.740   0.809
  247SOL     OW 1017   4.444   0.817   0.757
  247SOL    HW2 1018   4.370   0.771   0.795
  247SOL    HW3 1019   4.427   0.815   0.663
  247SOL    MW4 1020   4.432   0.811   0.750
  248SOL     OW 1021   0.003   1.096   0.796
  248SOL    HW2 1022  -0.005   1.077   0.889
  248SOL    HW3 1023  -0.015   1.012   0.753
  248SOL    MW4 1024  -0.001   1.082   0.803
  249SOL     OW 1025   0.225   1.230   0.679
  249SOL    HW2 1026   0.138   1.191   0.688
  249SOL    HW3 1027   0.238   1.238   0.584
  249SOL    MW4 1028   0.215   1.226   0.668
  250SOL     OW 1029   0.236   1.470   0.817
  250SOL    HW2 1030   0.305   1.527   0.783
  250SOL    HW3 1031   0.235   1.396   0.756
  250SOL    MW4 1032   0.245   1.468   0.804
  251SOL     OW 1033   0.015   1.605   0.721
  251SOL    HW2 1034  -0.064   1.567   0.760
  251SOL    HW3 1035   0.086   1.546   0.747
  251SOL    MW4 1036   0.014   1.592   0.730
  252SOL     OW 1037   4.442   1.891   0.799
  252SOL    HW2 1038   4.523   1.943   0.793
  252SOL    HW3 1039   4.473   1.800   0.797
  252SOL    MW4 1040   4.457   1.886   0.798
  253SOL     OW 1041   0.205   1.987   0.745
  253SOL    HW2 1042   0.210   2.077   0.777
  253SOL    HW3 1043   0.238   1.991   0.655
  253SOL    MW4 1044   0.210   1.999   0.737
  254SOL     OW 1045   0.216   2.236   0.837
  254SOL    HW2 1046   0.218   2.254   0.931
  254SOL    HW3 1047   0.288   2.288   0.802
  254SOL    MW4 1048   0.226   2.245   0.845
  255SOL     OW 1049   0.005   2.407   0.708
  255SOL    HW2 1050  -0.065   2.382   0.769
  255SOL    HW3 1051   0.082   2.358   0.738
  255SOL    MW4 1052   0.006   2.398   0.720
  256SOL     OW 1053   0.015   2.674   0.792
  256SOL    HW2 1054   0.015   2.692   0.886
  256SOL    HW3 1055   0.006   2.579   0.785
  256SOL    MW4 1056   0.014   2.664   0.803
  257SOL     OW 1057   0.235   2.816   0.681
  257SOL    HW2 1058   0.155   2.763   0.690
  257SOL    HW3 1059   0.209   2.889   0.625
  257SOL    MW4 1060   0.221   2.818   0.675
  258SOL     OW 1061   0.208   3.045   0.841
  258SOL    HW2 1062   0.215   3.077   0.930
  258SOL    HW3 1063   0.202   2.949   0.850
  258SOL    MW4 1064   0.208   3.036   0.854
  259SOL     OW 1065   4.465   3.197   0.782
  259SOL    HW2 1066   4.525   3.123   0.795
  259SOL    HW3 1067   4.465   3.212   0.688
  259SOL    MW4 1068   4.473   3.189   0.771
  260SOL     OW 1069   0.042   3.450   0.871
  260SOL    HW2 1070  -0.039   3.497   0.855
  260SOL    HW3 1071   0.022   3.359   0.850
  260SOL    MW4 1072   0.029   3.444   0.866
  261SOL     OW 1073   0.249   3.606   0.805
  261SOL    HW2 1074   0.168   3.562   0.831
  261SOL    HW3 1075   0.256   3.588   0.711
  261SOL    MW4 1076   0.239   3.598   0.796
  262SOL     OW 1077   0.244   3.871   0.828
  262SOL    HW2 1078   0.234   3.880   0.923
  262SOL    HW3 1079   0.246   3.777   0.813
  262SOL    MW4 1080   0.243   3.860   0.838
  263SOL     OW 1081   0.005   4.020   0.740
  263SOL    HW2 1082  -0.066   3.960   0.765
  263SOL    HW3 1083   0.085   3.968   0.752
  263SOL    MW4 1084   0.007   4.005   0.745
  264SOL     OW 1085   4.403   4.249   0.851
  264SOL    HW2 1086   4.435   4.243   0.942
  264SOL    HW3 1087   4.427   4.165   0.812
  264SOL    MW4 1088   4.410   4.238   0.858
  265SOL     OW 1089   0.155   4.331   0.739
  265SOL    HW2 1090   0.085   4.297   0.796
  265SOL    HW3 1091   0.130   4.301   0.652
  265SOL    MW4 1092   0.142   4.322   0.735
  266SOL     OW 1093   0.676   4.629   0.790
  266SOL    HW2 1094   0.669   4.635   0.885
  266SOL    HW3 1095   0.594   4.668   0.758
  266SOL    MW4 1096   0.664   4.635   0.798
  267SOL     OW 1097   0.422   0.095   0.707
  267SOL    HW2 1098   0.351   0.041   0.742
  267SOL    HW3 1099   0.414   0.087   0.612
  267SOL    MW4 1100   0.412   0.087   0.699
  268SOL     OW 1101   0.413   0.369   0.824
  268SOL    HW2 1102   0.477   0.405   0.763
  268SOL    HW3 1103   0.417   0.274   0.810
  268SOL    MW4 1104   0.422   0.361   0.814
  269SOL     OW 1105   0.651   0.490   0.725
  269SOL    HW2 1106   0.733   0.468   0.770
  269SOL    HW3 1107   0.659   0.449   0.639
  269SOL    MW4 1108   0.663   0.482   0.720
  270SOL     OW 1109   0.656   0.770   0.770
  270SOL    HW2 1110   0.574   0.801   0.731
  270SOL    HW3 1111   0.665   0.680   0.737
  270SOL    MW4 1112   0.646   0.762   0.760
  271SOL     OW 1113   0.417   0.871   0.664
  271SOL    HW2 1114   0.424   0.959   0.699
  271SOL    HW3 1115   0.347   0.830   0.714
  271SOL    MW4 1116   0.409   0.877   0.675
  272SOL     OW 1117   0.432   1.105   0.817
  272SOL    HW2 1118   0.501   1.168   0.798
  272SOL    HW3 1119   0.353   1.142   0.777
  272SOL    MW4 1120   0.431   1.118   0.810
  273SOL     OW 1121   0.675   1.246   0.759
  273SOL    HW2 1122   0.672   1.341   0.746
  273SOL    HW3 1123   0.688   1.210   0.671
  273SOL    MW4 1124   0.676   1.254   0.745
  274SOL     OW 1125   0.686   1.526   0.748
  274SOL    HW2 1126   0.700   1.530   0.843
  274SOL    HW3 1127   0.603   1.570   0.734
  274SOL    MW4 1128   0.677   1.532   0.759
  275SOL     OW 1129   0.432   1.624   0.710
  275SOL    HW2 1130   0.451   1.713   0.738
  275SOL    HW3 1131   0.430   1.628   0.615
  275SOL    MW4 1132   0.434   1.636   0.701
  276SOL     OW 1133   0.660   2.033   0.725
  276SOL    HW2 1134   0.592   1.972   0.753
  276SOL    HW3 1135   0.631   2.063   0.639
  276SOL    MW4 1136   0.647   2.029   0.717
  277SOL     OW 1137   0.459   1.878   0.800
  277SOL    HW2 1138   0.470   1.868   0.895
  277SOL    HW3 1139   0.368   1.906   0.790
  277SOL    MW4 1140   0.448   1.880   0.812
  278SOL     OW 1141   0.625   2.310   0.815
  278SOL    HW2 1142   0.632   2.319   0.910
  278SOL    HW3 1143   0.621   2.215   0.801
  278SOL    MW4 1144   0.625   2.298   0.826
  279SOL     OW 1145   0.400   2.411   0.712
  279SOL    HW2 1146   0.476   2.364   0.744
  279SOL    HW3 1147   0.404   2.402   0.617
  279SOL    MW4 1148   0.410   2.404   0.704
  280SOL     OW 1149   0.444   2.686   0.810
  280SOL    HW2 1150   0.436   2.597   0.776
  280SOL    HW3 1151   0.373   2.735   0.767
  280SOL    MW4 1152   0.434   2.681   0.800
  281SOL     OW 1153   0.675   2.796   0.685
  281SOL    HW2 1154   0.755   2.750   0.712
  281SOL    HW3 1155   0.605   2.753   0.734
  281SOL    MW4 1156   0.677   2.784   0.695
  282SOL     OW 1157   0.710   3.078   0.764
  282SOL    HW2 1158   0.618   3.099   0.747
  282SOL    HW3 1159   0.719   2.987   0.735
  282SOL    MW4 1160   0.699   3.068   0.758
  283SOL     OW 1161   0.440   3.173   0.711
  283SOL    HW2 1162   0.444   3.259   0.754
  283SOL    HW3 1163   0.359   3.134   0.743
  283SOL    MW4 1164   0.430   3.179   0.721
  284SOL     OW 1165   0.442   3.413   0.852
  284SOL    HW2 1166   0.450   3.416   0.947
  284SOL    HW3 1167   0.372   3.475   0.832
  284SOL    MW4 1168   0.434   3.421   0.862
  285SOL     OW 1169   0.684   3.558   0.768
  285SOL    HW2 1170   0.593   3.536   0.786
  285SOL    HW3 1171   0.687   3.654   0.774
  285SOL    MW4 1172   0.673   3.568   0.771
  286SOL     OW 1173   0.700   3.832   0.822
  286SOL    HW2 1174   0.780   3.860   0.778
  286SOL    HW3 1175   0.630   3.877   0.776
  286SOL    MW4 1176   0.702   3.841   0.810
  287SOL     OW 1177   0.470   3.979   0.728
  287SOL    HW2 1178   0.470   4.070   0.758
  287SOL    HW3 1179   0.394   3.939   0.770
  287SOL    MW4 1180   0.460   3.986   0.738
  288SOL     OW 1181   0.431   4.252   0.755
  288SOL    HW2 1182   0.427   4.271   0.849
  288SOL    HW3 1183   0.343   4.271   0.723
  288SOL    MW4 1184   0.419   4.257   0.764
  289SOL     OW 1185   0.689   4.363   0.744
  289SOL    HW2 1186   0.600   4.330   0.760
  289SOL    HW3 1187   0.682   4.457   0.755
  289SOL    MW4 1188   0.676   4.371   0.748
  290SOL     OW 1189   1.087   4.624   0.850
  290SOL    HW2 1190   1.168   4.660   0.814
  290SOL    HW3 1191   1.020   4.688   0.826
  290SOL    MW4 1192   1.089   4.637   0.842
  291SOL     OW 1193   0.893   0.139   0.741
  291SOL    HW2 1194   0.873   0.224   0.779
  291SOL    HW3 1195   0.825   0.081   0.774
  291SOL    MW4 1196   0.881   0.142   0.750
  292SOL     OW 1197   0.879   0.389   0.832
  292SOL    HW2 1198   0.899   0.372   0.924
  292SOL    HW3 1199   0.961   0.423   0.795
  292SOL    MW4 1200   0.893   0.392   0.839
  293SOL     OW 1201   1.102   0.523   0.711
  293SOL    HW2 1202   1.162   0.454   0.739
  293SOL    HW3 1203   1.078   0.499   0.622
  293SOL    MW4 1204   1.106   0.511   0.703
  294SOL     OW 1205   1.135   0.788   0.847
  294SOL    HW2 1206   1.157   0.779   0.940
  294SOL    HW3 1207   1.109   0.699   0.820
  294SOL    MW4 1208   1.134   0.775   0.856
  295SOL     OW 1209   0.901   0.874   0.714
  295SOL    HW2 1210   0.971   0.837   0.768
  295SOL    HW3 1211   0.825   0.818   0.732
  295SOL    MW4 1212   0.900   0.862   0.724
  296SOL     OW 1213   0.919   1.139   0.803
  296SOL    HW2 1214   0.912   1.052   0.764
  296SOL    HW3 1215   0.829   1.170   0.809
  296SOL    MW4 1216   0.906   1.132   0.798
  297SOL     OW 1217   1.150   1.266   0.750
  297SOL    HW2 1218   1.080   1.207   0.775
  297SOL    HW3 1219   1.140   1.277   0.655
  297SOL    MW4 1220   1.139   1.260   0.741
  298SOL     OW 1221   1.122   1.546   0.782
  298SOL    HW2 1222   1.041   1.569   0.737
  298SOL    HW3 1223   1.130   1.451   0.770
  298SOL    MW4 1224   1.112   1.536   0.775
  299SOL     OW 1225   0.901   1.669   0.629
  299SOL    HW2 1226   0.900   1.744   0.688
  299SOL    HW3 1227   0.821   1.620   0.652
  299SOL    MW4 1228   0.890   1.672   0.640
  300SOL     OW 1229   0.873   1.892   0.800
  300SOL    HW2 1230   0.882   1.914   0.893
  300SOL    HW3 1231   0.792   1.937   0.773
  300SOL    MW4 1232   0.863   1.901   0.809
  301SOL     OW 1233   1.093   2.037   0.729
  301SOL    HW2 1234   1.090   2.118   0.779
  301SOL    HW3 1235   1.006   1.998   0.741
  301SOL    MW4 1236   1.081   2.042   0.737
  302SOL     OW 1237   1.083   2.287   0.827
  302SOL    HW2 1238   1.067   2.302   0.920
  302SOL    HW3 1239   1.152   2.349   0.805
  302SOL    MW4 1240   1.090   2.297   0.837
  303SOL     OW 1241   0.856   2.414   0.715
  303SOL    HW2 1242   0.927   2.363   0.755
  303SOL    HW3 1243   0.776   2.375   0.751
  303SOL    MW4 1244   0.855   2.402   0.725
  304SOL     OW 1245   0.924   2.688   0.770
  304SOL    HW2 1246   0.909   2.691   0.865
  304SOL    HW3 1247   0.903   2.598   0.746
  304SOL    MW4 1248   0.919   2.677   0.779
  305SOL     OW 1249   1.175   2.790   0.645
  305SOL    HW2 1250   1.151   2.883   0.647
  305SOL    HW3 1251   1.099   2.746   0.683
  305SOL    MW4 1252   1.161   2.797   0.651
  306SOL     OW 1253   0.960   3.160   0.871
  306SOL    HW2 1254   0.874   3.133   0.840
  306SOL    HW3 1255   0.958   3.256   0.866
  306SOL    MW4 1256   0.949   3.169   0.867
  307SOL     OW 1257   0.741   3.320   0.597
  307SOL    HW2 1258   0.733   3.400   0.648
  307SOL    HW3 1259   0.753   3.251   0.662
  307SOL    MW4 1260   0.741   3.321   0.612
  308SOL     OW 1261   0.916   3.443   0.869
  308SOL    HW2 1262   0.998   3.466   0.825
  308SOL    HW3 1263   0.852   3.507   0.837
  308SOL    MW4 1264   0.918   3.454   0.859
  309SOL     OW 1265   1.154   3.535   0.754
  309SOL    HW2 1266   1.234   3.495   0.787
  309SOL    HW3 1267   1.152   3.511   0.661
  309SOL    MW4 1268   1.164   3.527   0.746
  310SOL     OW 1269   1.141   3.813   0.792
  310SOL    HW2 1270   1.129   3.815   0.887
  310SOL    HW3 1271   1.144   3.720   0.770
  310SOL    MW4 1272   1.140   3.801   0.801
  311SOL     OW 1273   0.927   3.934   0.664
  311SOL    HW2 1274   0.925   4.023   0.699
  311SOL    HW3 1275   0.995   3.890   0.715
  311SOL    MW4 1276   0.936   3.940   0.676
  312SOL     OW 1277   0.907   4.193   0.777
  312SOL    HW2 1278   0.985   4.236   0.742
  312SOL    HW3 1279   0.837   4.257   0.764
  312SOL    MW4 1280   0.908   4.207   0.770
  313SOL     OW 1281   1.135   4.349   0.722
  313SOL    HW2 1282   1.209   4.317   0.772
  313SOL    HW3 1283   1.095   4.416   0.777
  313SOL    MW4 1284   1.139   4.353   0.736
  314SOL     OW 1285   1.604   4.634   0.790
  314SOL    HW2 1286   1.614   4.623   0.885
  314SOL    HW3 1287   1.520   4.679   0.780
  314SOL    MW4 1288   1.595   4.638   0.801
  315SOL     OW 1289   1.351   0.075   0.772
  315SOL    HW2 1290   1.340   0.169   0.787
  315SOL    HW3 1291   1.324   0.062   0.681
  315SOL    MW4 1292   1.346   0.086   0.762
  316SOL     OW 1293   1.287   0.336   0.787
  316SOL    HW2 1294   1.287   0.343   0.883
  316SOL    HW3 1295   1.362   0.390   0.760
  316SOL    MW4 1296   1.297   0.344   0.796
  317SOL     OW 1297   1.489   0.488   0.700
  317SOL    HW2 1298   1.486   0.563   0.760
  317SOL    HW3 1299   1.569   0.440   0.725
  317SOL    MW4 1300   1.499   0.491   0.711
  318SOL     OW 1301   1.519   0.739   0.822
  318SOL    HW2 1302   1.602   0.788   0.816
  318SOL    HW3 1303   1.452   0.804   0.800
  318SOL    MW4 1304   1.521   0.754   0.819
  319SOL     OW 1305   1.329   0.882   0.681
  319SOL    HW2 1306   1.355   0.971   0.705
  319SOL    HW3 1307   1.253   0.863   0.736
  319SOL    MW4 1308   1.323   0.891   0.691
  320SOL     OW 1309   1.388   1.124   0.805
  320SOL    HW2 1310   1.452   1.170   0.752
  320SOL    HW3 1311   1.311   1.181   0.806
  320SOL    MW4 1312   1.386   1.137   0.798
  321SOL     OW 1313   1.563   1.258   0.666
  321SOL    HW2 1314   1.558   1.353   0.655
  321SOL    HW3 1315   1.583   1.225   0.579
  321SOL    MW4 1316   1.565   1.267   0.653
  322SOL     OW 1317   1.722   1.653   0.792
  322SOL    HW2 1318   1.690   1.631   0.880
  322SOL    HW3 1319   1.804   1.606   0.783
  322SOL    MW4 1320   1.729   1.644   0.803
  323SOL     OW 1321   1.307   1.689   0.651
  323SOL    HW2 1322   1.319   1.762   0.712
  323SOL    HW3 1323   1.256   1.625   0.701
  323SOL    MW4 1324   1.302   1.690   0.666
  324SOL     OW 1325   1.334   1.916   0.813
  324SOL    HW2 1326   1.343   1.932   0.907
  324SOL    HW3 1327   1.252   1.960   0.789
  324SOL    MW4 1328   1.324   1.924   0.822
  325SOL     OW 1329   1.563   2.046   0.720
  325SOL    HW2 1330   1.555   2.042   0.625
  325SOL    HW3 1331   1.484   2.005   0.753
  325SOL    MW4 1332   1.552   2.040   0.712
  326SOL     OW 1333   1.560   2.332   0.795
  326SOL    HW2 1334   1.475   2.365   0.766
  326SOL    HW3 1335   1.559   2.239   0.771
  326SOL    MW4 1336   1.549   2.324   0.788
  327SOL     OW 1337   1.303   2.431   0.749
  327SOL    HW2 1338   1.345   2.514   0.769
  327SOL    HW3 1339   1.330   2.411   0.659
  327SOL    MW4 1340   1.312   2.439   0.740
  328SOL     OW 1341   1.386   2.697   0.801
  328SOL    HW2 1342   1.365   2.684   0.894
  328SOL    HW3 1343   1.309   2.742   0.765
  328SOL    MW4 1344   1.373   2.701   0.809
  329SOL     OW 1345   1.609   2.835   0.687
  329SOL    HW2 1346   1.606   2.922   0.727
  329SOL    HW3 1347   1.530   2.791   0.719
  329SOL    MW4 1348   1.598   2.841   0.697
  330SOL     OW 1349   1.607   3.111   0.813
  330SOL    HW2 1350   1.583   3.116   0.905
  330SOL    HW3 1351   1.527   3.137   0.766
  330SOL    MW4 1352   1.593   3.115   0.819
  331SOL     OW 1353   1.376   3.164   0.663
  331SOL    HW2 1354   1.292   3.126   0.639
  331SOL    HW3 1355   1.428   3.159   0.583
  331SOL    MW4 1356   1.372   3.158   0.650
  332SOL     OW 1357   1.410   3.408   0.818
  332SOL    HW2 1358   1.464   3.476   0.778
  332SOL    HW3 1359   1.411   3.336   0.755
  332SOL    MW4 1360   1.417   3.407   0.805
  333SOL     OW 1361   1.558   3.630   0.736
  333SOL    HW2 1362   1.639   3.601   0.779
  333SOL    HW3 1363   1.579   3.628   0.642
  333SOL    MW4 1364   1.572   3.626   0.729
  334SOL     OW 1365   1.607   3.889   0.855
  334SOL    HW2 1366   1.526   3.928   0.822
  334SOL    HW3 1367   1.597   3.795   0.836
  334SOL    MW4 1368   1.595   3.882   0.848
  335SOL     OW 1369   1.372   3.973   0.735
  335SOL    HW2 1370   1.298   3.914   0.748
  335SOL    HW3 1371   1.381   3.980   0.640
  335SOL    MW4 1372   1.364   3.966   0.724
  336SOL     OW 1373   1.367   4.234   0.821
  336SOL    HW2 1374   1.438   4.281   0.777
  336SOL    HW3 1375   1.373   4.145   0.788
  336SOL    MW4 1376   1.377   4.228   0.811
  337SOL     OW 1377   1.590   4.359   0.683
  337SOL    HW2 1378   1.647   4.315   0.746
  337SOL    HW3 1379   1.602   4.452   0.700
  337SOL    MW4 1380   1.599   4.365   0.694
  338SOL     OW 1381   1.791   0.159   0.749
  338SOL    HW2 1382   1.864   0.099   0.737
  338SOL    HW3 1383   1.716   0.102   0.766
  338SOL    MW4 1384   1.791   0.144   0.750
  339SOL     OW 1385   1.800   0.265   0.474
  339SOL    HW2 1386   1.713   0.267   0.435
  339SOL    HW3 1387   1.784   0.252   0.568
  339SOL    MW4 1388   1.786   0.264   0.481
  340SOL     OW 1389   1.739   0.413   0.801
  340SOL    HW2 1390   1.772   0.323   0.794
  340SOL    HW3 1391   1.816   0.468   0.783
  340SOL    MW4 1392   1.754   0.409   0.797
  341SOL     OW 1393   1.985   0.535   0.714
  341SOL    HW2 1394   1.978   0.531   0.618
  341SOL    HW3 1395   2.057   0.475   0.735
  341SOL    MW4 1396   1.994   0.527   0.704
  342SOL     OW 1397   2.109   0.762   0.802
  342SOL    HW2 1398   2.101   0.824   0.729
  342SOL    HW3 1399   2.075   0.679   0.767
  342SOL    MW4 1400   2.103   0.759   0.788
  343SOL     OW 1401   1.766   0.859   0.815
  343SOL    HW2 1402   1.793   0.950   0.802
  343SOL    HW3 1403   1.828   0.825   0.879
  343SOL    MW4 1404   1.778   0.867   0.822
  344SOL     OW 1405   1.811   1.140   0.798
  344SOL    HW2 1406   1.886   1.189   0.764
  344SOL    HW3 1407   1.737   1.170   0.745
  344SOL    MW4 1408   1.811   1.151   0.787
  345SOL     OW 1409   2.051   1.253   0.725
  345SOL    HW2 1410   2.117   1.204   0.774
  345SOL    HW3 1411   2.065   1.226   0.634
  345SOL    MW4 1412   2.062   1.243   0.719
  346SOL     OW 1413   1.969   1.529   0.766
  346SOL    HW2 1414   2.044   1.573   0.726
  346SOL    HW3 1415   1.990   1.436   0.762
  346SOL    MW4 1416   1.982   1.523   0.760
  347SOL     OW 1417   1.572   1.365   0.099
  347SOL    HW2 1418   1.654   1.324   0.126
  347SOL    HW3 1419   1.579   1.455   0.129
  347SOL    MW4 1420   1.584   1.371   0.106
  348SOL     OW 1421   1.788   1.919   0.814
  348SOL    HW2 1422   1.771   1.826   0.800
  348SOL    HW3 1423   1.705   1.962   0.792
  348SOL    MW4 1424   1.775   1.913   0.809
  349SOL     OW 1425   2.018   2.053   0.735
  349SOL    HW2 1426   2.036   2.138   0.775
  349SOL    HW3 1427   1.936   2.024   0.775
  349SOL    MW4 1428   2.009   2.060   0.746
  350SOL     OW 1429   2.018   2.326   0.807
  350SOL    HW2 1430   2.011   2.335   0.902
  350SOL    HW3 1431   1.942   2.373   0.773
  350SOL    MW4 1432   2.007   2.333   0.815
  351SOL     OW 1433   1.787   2.453   0.717
  351SOL    HW2 1434   1.711   2.401   0.742
  351SOL    HW3 1435   1.812   2.421   0.631
  351SOL    MW4 1436   1.781   2.442   0.709
  352SOL     OW 1437   1.827   2.722   0.828
  352SOL    HW2 1438   1.839   2.630   0.801
  352SOL    HW3 1439   1.744   2.747   0.788
  352SOL    MW4 1440   1.817   2.713   0.819
  353SOL     OW 1441   2.066   2.874   0.781
  353SOL    HW2 1442   2.139   2.816   0.801
  353SOL    HW3 1443   1.988   2.825   0.806
  353SOL    MW4 1444   2.065   2.860   0.787
  354SOL     OW 1445   2.103   3.150   0.863
  354SOL    HW2 1446   2.016   3.183   0.841
  354SOL    HW3 1447   2.104   3.060   0.828
  354SOL    MW4 1448   2.091   3.142   0.856
  355SOL     OW 1449   1.845   3.254   0.742
  355SOL    HW2 1450   1.757   3.217   0.751
  355SOL    HW3 1451   1.866   3.246   0.649
  355SOL    MW4 1452   1.836   3.248   0.731
  356SOL     OW 1453   1.778   3.501   0.852
  356SOL    HW2 1454   1.775   3.495   0.948
  356SOL    HW3 1455   1.795   3.411   0.824
  356SOL    MW4 1456   1.780   3.488   0.861
  357SOL     OW 1457   2.007   3.629   0.744
  357SOL    HW2 1458   2.000   3.716   0.783
  357SOL    HW3 1459   1.944   3.576   0.793
  357SOL    MW4 1460   1.998   3.633   0.756
  358SOL     OW 1461   2.016   3.873   0.866
  358SOL    HW2 1462   2.024   3.891   0.960
  358SOL    HW3 1463   1.943   3.927   0.838
  358SOL    MW4 1464   2.007   3.882   0.875
  359SOL     OW 1465   1.816   4.012   0.735
  359SOL    HW2 1466   1.736   3.975   0.774
  359SOL    HW3 1467   1.817   3.975   0.646
  359SOL    MW4 1468   1.805   4.002   0.728
  360SOL     OW 1469   1.776   4.256   0.856
  360SOL    HW2 1470   1.784   4.240   0.951
  360SOL    HW3 1471   1.787   4.169   0.817
  360SOL    MW4 1472   1.778   4.242   0.864
  361SOL     OW 1473   2.025   4.389   0.755
  361SOL    HW2 1474   1.953   4.333   0.781
  361SOL    HW3 1475   2.050   4.357   0.668
  361SOL    MW4 1476   2.019   4.377   0.747
  362SOL     OW 1477   2.669   0.113   0.755
  362SOL    HW2 1478   2.653   0.121   0.661
  362SOL    HW3 1479   2.667   0.203   0.787
  362SOL    MW4 1480   2.666   0.126   0.747
  363SOL     OW 1481   2.441   4.640   0.816
  363SOL    HW2 1482   2.517   4.691   0.788
  363SOL    HW3 1483   2.433   4.657   0.909
  363SOL    MW4 1484   2.450   4.649   0.824
  364SOL     OW 1485   2.214   0.396   0.812
  364SOL    HW2 1486   2.285   0.445   0.770
  364SOL    HW3 1487   2.222   0.308   0.776
  364SOL    MW4 1488   2.224   0.391   0.801
  365SOL     OW 1489   2.438   0.499   0.693
  365SOL    HW2 1490   2.452   0.504   0.599
  365SOL    HW3 1491   2.518   0.460   0.728
  365SOL    MW4 1492   2.450   0.495   0.685
  366SOL     OW 1493   2.167   0.777   0.267
  366SOL    HW2 1494   2.173   0.686   0.236
  366SOL    HW3 1495   2.258   0.803   0.282
  366SOL    MW4 1496   2.180   0.768   0.265
  367SOL     OW 1497   2.390   0.757   0.766
  367SOL    HW2 1498   2.418   0.675   0.727
  367SOL    HW3 1499   2.297   0.744   0.786
  367SOL    MW4 1500   2.381   0.745   0.764
  368SOL     OW 1501   2.301   1.041   0.760
  368SOL    HW2 1502   2.271   1.070   0.847
  368SOL    HW3 1503   2.307   0.946   0.767
  368SOL    MW4 1504   2.298   1.032   0.773
  369SOL     OW 1505   2.480   1.294   0.731
  369SOL    HW2 1506   2.402   1.242   0.752
  369SOL    HW3 1507   2.477   1.305   0.636
  369SOL    MW4 1508   2.470   1.288   0.722
  370SOL     OW 1509   2.419   1.546   0.820
  370SOL    HW2 1510   2.492   1.607   0.810
  370SOL    HW3 1511   2.449   1.465   0.779
  370SOL    MW4 1512   2.432   1.543   0.813
  371SOL     OW 1513   2.206   1.637   0.655
  371SOL    HW2 1514   2.271   1.593   0.710
  371SOL    HW3 1515   2.239   1.627   0.566
  371SOL    MW4 1516   2.219   1.630   0.650
  372SOL     OW 1517   2.232   1.872   0.780
  372SOL    HW2 1518   2.229   1.794   0.726
  372SOL    HW3 1519   2.158   1.925   0.750
  372SOL    MW4 1520   2.222   1.869   0.769
  373SOL     OW 1521   2.431   2.052   0.729
  373SOL    HW2 1522   2.354   1.996   0.740
  373SOL    HW3 1523   2.446   2.055   0.635
  373SOL    MW4 1524   2.423   2.045   0.718
  374SOL     OW 1525   2.463   2.323   0.802
  374SOL    HW2 1526   2.542   2.360   0.764
  374SOL    HW3 1527   2.460   2.233   0.769
  374SOL    MW4 1528   2.473   2.316   0.793
  375SOL     OW 1529   2.254   2.487   0.745
  375SOL    HW2 1530   2.329   2.436   0.775
  375SOL    HW3 1531   2.178   2.433   0.767
  375SOL    MW4 1532   2.254   2.473   0.752
  376SOL     OW 1533   2.304   2.741   0.830
  376SOL    HW2 1534   2.304   2.750   0.926
  376SOL    HW3 1535   2.270   2.653   0.815
  376SOL    MW4 1536   2.300   2.730   0.841
  377SOL     OW 1537   2.526   2.879   0.741
  377SOL    HW2 1538   2.598   2.832   0.784
  377SOL    HW3 1539   2.447   2.831   0.766
  377SOL    MW4 1540   2.525   2.866   0.750
  378SOL     OW 1541   2.489   3.157   0.814
  378SOL    HW2 1542   2.484   3.158   0.909
  378SOL    HW3 1543   2.478   3.064   0.791
  378SOL    MW4 1544   2.487   3.145   0.823
  379SOL     OW 1545   2.277   3.319   0.715
  379SOL    HW2 1546   2.205   3.270   0.755
  379SOL    HW3 1547   2.356   3.271   0.741
  379SOL    MW4 1548   2.278   3.306   0.723
  380SOL     OW 1549   2.262   3.574   0.832
  380SOL    HW2 1550   2.283   3.486   0.802
  380SOL    HW3 1551   2.178   3.594   0.792
  380SOL    MW4 1552   2.254   3.565   0.823
  381SOL     OW 1553   2.493   3.685   0.678
  381SOL    HW2 1554   2.561   3.645   0.732
  381SOL    HW3 1555   2.411   3.654   0.716
  381SOL    MW4 1556   2.491   3.676   0.690
  382SOL     OW 1557   2.469   3.910   0.827
  382SOL    HW2 1558   2.377   3.926   0.809
  382SOL    HW3 1559   2.486   3.823   0.791
  382SOL    MW4 1560   2.459   3.900   0.820
  383SOL     OW 1561   2.215   3.984   0.712
  383SOL    HW2 1562   2.148   3.945   0.768
  383SOL    HW3 1563   2.177   3.979   0.624
  383SOL    MW4 1564   2.201   3.978   0.708
  384SOL     OW 1565   2.237   4.231   0.846
  384SOL    HW2 1566   2.213   4.144   0.814
  384SOL    HW3 1567   2.171   4.289   0.808
  384SOL    MW4 1568   2.225   4.227   0.836
  385SOL     OW 1569   2.496   4.356   0.808
  385SOL    HW2 1570   2.412   4.310   0.816
  385SOL    HW3 1571   2.473   4.441   0.771
  385SOL    MW4 1572   2.482   4.361   0.804
  386SOL     OW 1573   2.890   4.635   0.787
  386SOL    HW2 1574   2.881   4.540   0.776
  386SOL    HW3 1575   2.803   4.669   0.767
  386SOL    MW4 1576   2.877   4.627   0.783
  387SOL     OW 1577   2.747   4.425   0.557
  387SOL    HW2 1578   2.840   4.408   0.565
  387SOL    HW3 1579   2.742   4.519   0.536
  387SOL    MW4 1580   2.758   4.435   0.555
  388SOL     OW 1581   2.652   0.383   0.831
  388SOL    HW2 1582   2.645   0.388   0.927
  388SOL    HW3 1583   2.740   0.415   0.812
  388SOL    MW4 1584   2.663   0.388   0.841
  389SOL     OW 1585   2.887   0.492   0.712
  389SOL    HW2 1586   2.965   0.436   0.710
  389SOL    HW3 1587   2.872   0.516   0.621
  389SOL    MW4 1588   2.895   0.488   0.700
  390SOL     OW 1589   2.914   0.782   0.792
  390SOL    HW2 1590   2.916   0.782   0.888
  390SOL    HW3 1591   2.915   0.690   0.768
  390SOL    MW4 1592   2.915   0.770   0.802
  391SOL     OW 1593   2.668   0.867   0.701
  391SOL    HW2 1594   2.747   0.825   0.734
  391SOL    HW3 1595   2.596   0.817   0.739
  391SOL    MW4 1596   2.669   0.855   0.710
  392SOL     OW 1597   2.668   1.127   0.838
  392SOL    HW2 1598   2.647   1.043   0.798
  392SOL    HW3 1599   2.608   1.189   0.798
  392SOL    MW4 1600   2.658   1.124   0.827
  393SOL     OW 1601   2.877   1.262   0.735
  393SOL    HW2 1602   2.963   1.230   0.762
  393SOL    HW3 1603   2.815   1.198   0.770
  393SOL    MW4 1604   2.880   1.249   0.743
  394SOL     OW 1605   2.893   1.536   0.807
  394SOL    HW2 1606   2.980   1.570   0.784
  394SOL    HW3 1607   2.899   1.442   0.788
  394SOL    MW4 1608   2.906   1.528   0.801
  395SOL     OW 1609   2.646   1.680   0.763
  395SOL    HW2 1610   2.666   1.773   0.773
  395SOL    HW3 1611   2.731   1.637   0.764
  395SOL    MW4 1612   2.659   1.686   0.764
  396SOL     OW 1613   2.689   1.957   0.806
  396SOL    HW2 1614   2.694   1.958   0.901
  396SOL    HW3 1615   2.601   1.989   0.785
  396SOL    MW4 1616   2.678   1.962   0.815
  397SOL     OW 1617   2.877   2.088   0.646
  397SOL    HW2 1618   2.895   2.155   0.713
  397SOL    HW3 1619   2.809   2.033   0.686
  397SOL    MW4 1620   2.870   2.090   0.660
  398SOL     OW 1621   2.906   2.322   0.801
  398SOL    HW2 1622   2.892   2.296   0.892
  398SOL    HW3 1623   2.827   2.371   0.778
  398SOL    MW4 1624   2.894   2.325   0.810
  399SOL     OW 1625   2.682   2.458   0.700
  399SOL    HW2 1626   2.674   2.472   0.606
  399SOL    HW3 1627   2.670   2.545   0.738
  399SOL    MW4 1628   2.680   2.471   0.693
  400SOL     OW 1629   2.720   2.706   0.836
  400SOL    HW2 1630   2.741   2.682   0.926
  400SOL    HW3 1631   2.793   2.761   0.808
  400SOL    MW4 1632   2.733   2.710   0.844
  401SOL     OW 1633   2.943   2.797   0.458
  401SOL    HW2 1634   2.990   2.718   0.433
  401SOL    HW3 1635   2.858   2.790   0.414
  401SOL    MW4 1636   2.938   2.786   0.449
  402SOL     OW 1637   2.963   3.124   0.832
  402SOL    HW2 1638   2.891   3.160   0.781
  402SOL    HW3 1639   2.967   3.032   0.807
  402SOL    MW4 1640   2.954   3.117   0.822
  403SOL     OW 1641   2.730   3.269   0.756
  403SOL    HW2 1642   2.736   3.354   0.801
  403SOL    HW3 1643   2.638   3.244   0.765
  403SOL    MW4 1644   2.719   3.277   0.763
  404SOL     OW 1645   2.702   3.550   0.809
  404SOL    HW2 1646   2.702   3.536   0.904
  404SOL    HW3 1647   2.793   3.575   0.789
  404SOL    MW4 1648   2.714   3.552   0.819
  405SOL     OW 1649   2.946   3.669   0.789
  405SOL    HW2 1650   2.932   3.752   0.835
  405SOL    HW3 1651   2.945   3.692   0.696
  405SOL    MW4 1652   2.944   3.683   0.783
  406SOL     OW 1653   2.910   3.922   0.888
  406SOL    HW2 1654   2.930   3.923   0.981
  406SOL    HW3 1655   2.827   3.968   0.880
  406SOL    MW4 1656   2.902   3.928   0.899
  407SOL     OW 1657   2.687   4.080   0.883
  407SOL    HW2 1658   2.681   4.155   0.941
  407SOL    HW3 1659   2.606   4.031   0.899
  407SOL    MW4 1660   2.675   4.083   0.893
  408SOL     OW 1661   2.840   4.338   0.826
  408SOL    HW2 1662   2.808   4.321   0.915
  408SOL    HW3 1663   2.935   4.326   0.832
  408SOL    MW4 1664   2.848   4.334   0.839
  409SOL     OW 1665   3.267   4.248   0.585
  409SOL    HW2 1666   3.304   4.237   0.497
  409SOL    HW3 1667   3.238   4.160   0.609
  409SOL    MW4 1668   3.268   4.235   0.576
  410SOL     OW 1669   3.385   0.038   0.808
  410SOL    HW2 1670   3.365   0.015   0.899
  410SOL    HW3 1671   3.299   0.057   0.769
  410SOL    MW4 1672   3.371   0.037   0.815
  411SOL     OW 1673   3.146   0.072   0.678
  411SOL    HW2 1674   3.154   0.168   0.681
  411SOL    HW3 1675   3.067   0.054   0.729
  411SOL    MW4 1676   3.137   0.082   0.685
  412SOL     OW 1677   3.157   0.342   0.738
  412SOL    HW2 1678   3.153   0.350   0.833
  412SOL    HW3 1679   3.237   0.388   0.713
  412SOL    MW4 1680   3.167   0.349   0.747
  413SOL     OW 1681   3.405   0.470   0.652
  413SOL    HW2 1682   3.453   0.403   0.701
  413SOL    HW3 1683   3.456   0.482   0.571
  413SOL    MW4 1684   3.418   0.463   0.648
  414SOL     OW 1685   3.379   0.732   0.766
  414SOL    HW2 1686   3.314   0.759   0.702
  414SOL    HW3 1687   3.400   0.641   0.743
  414SOL    MW4 1688   3.373   0.723   0.755
  415SOL     OW 1689   3.043   0.970   0.616
  415SOL    HW2 1690   3.087   1.032   0.673
  415SOL    HW3 1691   3.002   0.908   0.676
  415SOL    MW4 1692   3.043   0.970   0.631
  416SOL     OW 1693   3.157   1.155   0.790
  416SOL    HW2 1694   3.143   1.138   0.884
  416SOL    HW3 1695   3.248   1.182   0.784
  416SOL    MW4 1696   3.167   1.156   0.802
  417SOL     OW 1697   3.412   1.258   0.706
  417SOL    HW2 1698   3.482   1.211   0.753
  417SOL    HW3 1699   3.421   1.349   0.734
  417SOL    MW4 1700   3.423   1.264   0.716
  418SOL     OW 1701   3.366   1.530   0.767
  418SOL    HW2 1702   3.379   1.542   0.862
  418SOL    HW3 1703   3.442   1.573   0.727
  418SOL    MW4 1704   3.378   1.537   0.775
  419SOL     OW 1705   3.124   1.632   0.711
  419SOL    HW2 1706   3.203   1.581   0.726
  419SOL    HW3 1707   3.131   1.661   0.620
  419SOL    MW4 1708   3.135   1.629   0.701
  420SOL     OW 1709   3.204   1.885   0.801
  420SOL    HW2 1710   3.185   1.887   0.895
  420SOL    HW3 1711   3.180   1.797   0.773
  420SOL    MW4 1712   3.198   1.874   0.810
  421SOL     OW 1713   3.454   2.006   0.802
  421SOL    HW2 1714   3.429   2.098   0.804
  421SOL    HW3 1715   3.371   1.958   0.796
  421SOL    MW4 1716   3.440   2.012   0.802
  422SOL     OW 1717   3.428   2.277   0.815
  422SOL    HW2 1718   3.391   2.314   0.896
  422SOL    HW3 1719   3.520   2.302   0.818
  422SOL    MW4 1720   3.435   2.285   0.826
  423SOL     OW 1721   3.065   2.520   0.661
  423SOL    HW2 1722   3.155   2.489   0.668
  423SOL    HW3 1723   3.012   2.450   0.701
  423SOL    MW4 1724   3.070   2.506   0.667
  424SOL     OW 1725   3.158   2.694   0.842
  424SOL    HW2 1726   3.113   2.632   0.785
  424SOL    HW3 1727   3.208   2.749   0.782
  424SOL    MW4 1728   3.159   2.693   0.826
  425SOL     OW 1729   3.299   2.841   0.674
  425SOL    HW2 1730   3.278   2.875   0.587
  425SOL    HW3 1731   3.388   2.808   0.666
  425SOL    MW4 1732   3.308   2.841   0.662
  426SOL     OW 1733   3.369   3.068   0.811
  426SOL    HW2 1734   3.361   3.047   0.904
  426SOL    HW3 1735   3.338   2.989   0.766
  426SOL    MW4 1736   3.364   3.055   0.817
  427SOL     OW 1737   3.194   3.277   0.734
  427SOL    HW2 1738   3.263   3.224   0.775
  427SOL    HW3 1739   3.112   3.242   0.769
  427SOL    MW4 1740   3.192   3.266   0.744
  428SOL     OW 1741   3.193   3.545   0.812
  428SOL    HW2 1742   3.193   3.450   0.796
  428SOL    HW3 1743   3.102   3.571   0.797
  428SOL    MW4 1744   3.181   3.536   0.808
  429SOL     OW 1745   3.372   4.245   0.342
  429SOL    HW2 1746   3.385   4.150   0.335
  429SOL    HW3 1747   3.458   4.282   0.321
  429SOL    MW4 1748   3.385   4.237   0.338
  430SOL     OW 1749   3.369   3.945   0.844
  430SOL    HW2 1750   3.426   4.022   0.840
  430SOL    HW3 1751   3.353   3.931   0.937
  430SOL    MW4 1752   3.375   3.953   0.855
  431SOL     OW 1753   3.138   4.040   0.733
  431SOL    HW2 1754   3.221   4.007   0.768
  431SOL    HW3 1755   3.071   3.997   0.785
  431SOL    MW4 1756   3.140   4.030   0.744
  432SOL     OW 1757   3.126   4.278   0.889
  432SOL    HW2 1758   3.194   4.335   0.854
  432SOL    HW3 1759   3.135   4.196   0.840
  432SOL    MW4 1760   3.136   4.275   0.878
  433SOL     OW 1761   3.339   4.432   0.802
  433SOL    HW2 1762   3.374   4.519   0.785
  433SOL    HW3 1763   3.298   4.406   0.720
  433SOL    MW4 1764   3.338   4.440   0.789
  434SOL     OW 1765   3.857   0.017   0.829
  434SOL    HW2 1766   3.865   0.111   0.839
  434SOL    HW3 1767   3.786   0.005   0.765
  434SOL    MW4 1768   3.848   0.028   0.822
  435SOL     OW 1769   3.632   4.658   0.653
  435SOL    HW2 1770   3.561   4.692   0.707
  435SOL    HW3 1771   3.616   4.695   0.566
  435SOL    MW4 1772   3.621   4.668   0.648
  436SOL     OW 1773   3.555   0.293   0.834
  436SOL    HW2 1774   3.540   0.339   0.917
  436SOL    HW3 1775   3.510   0.209   0.845
  436SOL    MW4 1776   3.547   0.288   0.846
  437SOL     OW 1777   3.801   0.439   0.431
  437SOL    HW2 1778   3.832   0.420   0.519
  437SOL    HW3 1779   3.706   0.427   0.435
  437SOL    MW4 1780   3.792   0.435   0.443
  438SOL     OW 1781   3.811   0.680   0.815
  438SOL    HW2 1782   3.808   0.703   0.908
  438SOL    HW3 1783   3.890   0.724   0.782
  438SOL    MW4 1784   3.821   0.689   0.823
  439SOL     OW 1785   3.630   0.878   0.741
  439SOL    HW2 1786   3.694   0.816   0.777
  439SOL    HW3 1787   3.547   0.832   0.745
  439SOL    MW4 1788   3.628   0.864   0.746
  440SOL     OW 1789   3.621   1.143   0.826
  440SOL    HW2 1790   3.586   1.131   0.914
  440SOL    HW3 1791   3.625   1.055   0.789
  440SOL    MW4 1792   3.617   1.130   0.833
  441SOL     OW 1793   3.842   1.280   0.750
  441SOL    HW2 1794   3.756   1.242   0.766
  441SOL    HW3 1795   3.857   1.269   0.656
  441SOL    MW4 1796   3.833   1.273   0.740
  442SOL     OW 1797   3.821   1.546   0.863
  442SOL    HW2 1798   3.903   1.579   0.826
  442SOL    HW3 1799   3.824   1.452   0.848
  442SOL    MW4 1800   3.832   1.538   0.857
  443SOL     OW 1801   3.593   1.621   0.663
  443SOL    HW2 1802   3.592   1.716   0.658
  443SOL    HW3 1803   3.653   1.602   0.735
  443SOL    MW4 1804   3.601   1.631   0.672
  444SOL     OW 1805   3.823   2.011   0.609
  444SOL    HW2 1806   3.869   1.970   0.683
  444SOL    HW3 1807   3.738   1.967   0.606
  444SOL    MW4 1808   3.818   2.000   0.618
  445SOL     OW 1809   3.868   2.294   0.618
  445SOL    HW2 1810   3.805   2.330   0.680
  445SOL    HW3 1811   3.869   2.200   0.636
  445SOL    MW4 1812   3.860   2.287   0.628
  446SOL     OW 1813   3.982   1.616   0.461
  446SOL    HW2 1814   3.897   1.576   0.441
  446SOL    HW3 1815   3.978   1.702   0.418
  446SOL    MW4 1816   3.970   1.622   0.452
  447SOL     OW 1817   3.691   2.367   0.827
  447SOL    HW2 1818   3.694   2.460   0.847
  447SOL    HW3 1819   3.713   2.324   0.909
  447SOL    MW4 1820   3.694   2.373   0.840
  448SOL     OW 1821   3.732   2.634   0.851
  448SOL    HW2 1822   3.689   2.659   0.933
  448SOL    HW3 1823   3.807   2.693   0.843
  448SOL    MW4 1824   3.736   2.645   0.861
  449SOL     OW 1825   3.862   2.998   0.886
  449SOL    HW2 1826   3.786   3.044   0.850
  449SOL    HW3 1827   3.935   3.059   0.873
  449SOL    MW4 1828   3.861   3.012   0.880
  450SOL     OW 1829   3.641   3.115   0.761
  450SOL    HW2 1830   3.642   3.171   0.684
  450SOL    HW3 1831   3.549   3.090   0.771
  450SOL    MW4 1832   3.629   3.119   0.752
  451SOL     OW 1833   3.429   3.552   0.649
  451SOL    HW2 1834   3.426   3.486   0.580
  451SOL    HW3 1835   3.343   3.546   0.692
  451SOL    MW4 1836   3.417   3.542   0.646
  452SOL     OW 1837   3.601   3.542   0.884
  452SOL    HW2 1838   3.675   3.512   0.831
  452SOL    HW3 1839   3.524   3.513   0.836
  452SOL    MW4 1840   3.601   3.534   0.871
  453SOL     OW 1841   3.840   3.798   0.711
  453SOL    HW2 1842   3.775   3.802   0.781
  453SOL    HW3 1843   3.860   3.705   0.702
  453SOL    MW4 1844   3.834   3.787   0.719
  454SOL     OW 1845   3.662   3.844   0.904
  454SOL    HW2 1846   3.596   3.892   0.852
  454SOL    HW3 1847   3.622   3.759   0.920
  454SOL    MW4 1848   3.648   3.839   0.899
  455SOL     OW 1849   2.584   4.098   0.294
  455SOL    HW2 1850   2.563   4.191   0.282
  455SOL    HW3 1851   2.637   4.096   0.374
  455SOL    MW4 1852   2.588   4.110   0.303
  456SOL     OW 1853   3.501   4.200   0.834
  456SOL    HW2 1854   3.591   4.207   0.804
  456SOL    HW3 1855   3.466   4.289   0.828
  456SOL    MW4 1856   3.508   4.213   0.829
  457SOL     OW 1857   3.996   4.223   0.840
  457SOL    HW2 1858   3.914   4.226   0.790
  457SOL    HW3 1859   4.051   4.290   0.800
  457SOL    MW4 1860   3.993   4.232   0.828
  458SOL     OW 1861   4.145   4.625   0.838
  458SOL    HW2 1862   4.161   4.613   0.932
  458SOL    HW3 1863   4.050   4.640   0.833
  458SOL    MW4 1864   4.134   4.625   0.850
  459SOL     OW 1865   3.828   0.269   0.909
  459SOL    HW2 1866   3.859   0.316   0.832
  459SOL    HW3 1867   3.733   0.261   0.896
  459SOL    MW4 1868   3.819   0.274   0.897
  460SOL     OW 1869   3.916   0.442   0.696
  460SOL    HW2 1870   4.008   0.460   0.679
  460SOL    HW3 1871   3.881   0.525   0.728
  460SOL    MW4 1872   3.923   0.455   0.698
  461SOL     OW 1873   4.184   0.502   0.655
  461SOL    HW2 1874   4.200   0.496   0.560
  461SOL    HW3 1875   4.247   0.441   0.693
  461SOL    MW4 1876   4.195   0.493   0.647
  462SOL     OW 1877   4.190   0.731   0.836
  462SOL    HW2 1878   4.121   0.785   0.796
  462SOL    HW3 1879   4.191   0.651   0.784
  462SOL    MW4 1880   4.181   0.728   0.824
  463SOL     OW 1881   3.985   0.856   0.697
  463SOL    HW2 1882   3.989   0.947   0.726
  463SOL    HW3 1883   4.034   0.855   0.614
  463SOL    MW4 1884   3.992   0.867   0.689
  464SOL     OW 1885   4.039   1.105   0.843
  464SOL    HW2 1886   4.044   1.116   0.938
  464SOL    HW3 1887   3.966   1.161   0.817
  464SOL    MW4 1888   4.030   1.114   0.852
  465SOL     OW 1889   4.279   1.255   0.749
  465SOL    HW2 1890   4.210   1.190   0.764
  465SOL    HW3 1891   4.361   1.207   0.756
  465SOL    MW4 1892   4.280   1.240   0.752
  466SOL     OW 1893   4.260   1.517   0.812
  466SOL    HW2 1894   4.251   1.523   0.907
  466SOL    HW3 1895   4.273   1.424   0.795
  466SOL    MW4 1896   4.261   1.506   0.822
  467SOL     OW 1897   4.038   1.657   0.723
  467SOL    HW2 1898   4.118   1.609   0.745
  467SOL    HW3 1899   4.028   1.645   0.629
  467SOL    MW4 1900   4.047   1.649   0.714
  468SOL     OW 1901   3.961   1.906   0.816
  468SOL    HW2 1902   3.985   1.821   0.779
  468SOL    HW3 1903   4.034   1.964   0.792
  468SOL    MW4 1904   3.974   1.903   0.808
  469SOL     OW 1905   4.208   2.021   0.761
  469SOL    HW2 1906   4.277   1.962   0.793
  469SOL    HW3 1907   4.229   2.033   0.668
  469SOL    MW4 1908   4.220   2.015   0.753
  470SOL     OW 1909   4.260   2.275   0.859
  470SOL    HW2 1910   4.220   2.333   0.795
  470SOL    HW3 1911   4.246   2.187   0.824
  470SOL    MW4 1912   4.252   2.271   0.846
  471SOL     OW 1913   4.072   2.671   0.505
  471SOL    HW2 1914   4.008   2.695   0.572
  471SOL    HW3 1915   4.022   2.666   0.424
  471SOL    MW4 1916   4.057   2.673   0.503
  472SOL     OW 1917   3.982   2.758   0.792
  472SOL    HW2 1918   4.075   2.773   0.774
  472SOL    HW3 1919   3.946   2.846   0.804
  472SOL    MW4 1920   3.990   2.771   0.791
  473SOL     OW 1921   4.261   2.806   0.727
  473SOL    HW2 1922   4.337   2.748   0.726
  473SOL    HW3 1923   4.258   2.843   0.638
  473SOL    MW4 1924   4.271   2.804   0.715
  474SOL     OW 1925   4.282   3.042   0.913
  474SOL    HW2 1926   4.291   2.961   0.863
  474SOL    HW3 1927   4.325   3.108   0.859
  474SOL    MW4 1928   4.289   3.040   0.899
  475SOL     OW 1929   4.052   3.171   0.816
  475SOL    HW2 1930   4.067   3.263   0.838
  475SOL    HW3 1931   4.125   3.124   0.856
  475SOL    MW4 1932   4.063   3.177   0.824
  476SOL     OW 1933   4.099   3.456   0.867
  476SOL    HW2 1934   4.083   3.476   0.959
  476SOL    HW3 1935   4.165   3.520   0.839
  476SOL    MW4 1936   4.106   3.467   0.875
  477SOL     OW 1937   4.315   3.599   0.782
  477SOL    HW2 1938   4.312   3.694   0.798
  477SOL    HW3 1939   4.309   3.591   0.687
  477SOL    MW4 1940   4.314   3.611   0.772
  478SOL     OW 1941   4.287   3.877   0.836
  478SOL    HW2 1942   4.267   3.893   0.928
  478SOL    HW3 1943   4.202   3.883   0.791
  478SOL    MW4 1944   4.273   3.880   0.842
  479SOL     OW 1945   3.671   3.967   0.552
  479SOL    HW2 1946   3.740   3.908   0.581
  479SOL    HW3 1947   3.590   3.916   0.564
  479SOL    MW4 1948   3.669   3.953   0.558
  480SOL     OW 1949   4.066   3.981   0.702
  480SOL    HW2 1950   4.040   4.061   0.746
  480SOL    HW3 1951   3.989   3.924   0.707
  480SOL    MW4 1952   4.053   3.984   0.708
  481SOL     OW 1953   4.209   4.382   0.720
  481SOL    HW2 1954   4.213   4.464   0.770
  481SOL    HW3 1955   4.269   4.324   0.765
  481SOL    MW4 1956   4.217   4.385   0.732
  482SOL     OW 1957   0.173   4.603   1.074
  482SOL    HW2 1958   0.253   4.648   1.100
  482SOL    HW3 1959   0.183   4.589   0.980
  482SOL    MW4 1960   0.185   4.607   1.065
  483SOL     OW 1961   4.463   0.089   1.159
  483SOL    HW2 1962   4.387   0.041   1.125
  483SOL    HW3 1963   4.538   0.034   1.138
  483SOL    MW4 1964   4.463   0.076   1.152
  484SOL     OW 1965   4.433   0.354   1.074
  484SOL    HW2 1966   4.363   0.392   1.127
  484SOL    HW3 1967   4.447   0.267   1.112
  484SOL    MW4 1968   4.426   0.347   1.086
  485SOL     OW 1969   0.223   0.472   1.141
  485SOL    HW2 1970   0.223   0.566   1.122
  485SOL    HW3 1971   0.139   0.441   1.108
  485SOL    MW4 1972   0.212   0.481   1.134
  486SOL     OW 1973   0.214   0.730   1.077
  486SOL    HW2 1974   0.282   0.786   1.116
  486SOL    HW3 1975   0.133   0.765   1.114
  486SOL    MW4 1976   0.212   0.742   1.087
  487SOL     OW 1977   4.469   0.832   1.187
  487SOL    HW2 1978   4.455   0.835   1.281
  487SOL    HW3 1979   4.386   0.802   1.151
  487SOL    MW4 1980   4.456   0.829   1.194
  488SOL     OW 1981   4.472   1.129   1.070
  488SOL    HW2 1982   4.401   1.176   1.114
  488SOL    HW3 1983   4.486   1.052   1.124
  488SOL    MW4 1984   4.464   1.125   1.083
  489SOL     OW 1985   0.216   1.249   1.177
  489SOL    HW2 1986   0.288   1.199   1.140
  489SOL    HW3 1987   0.137   1.203   1.146
  489SOL    MW4 1988   0.215   1.236   1.168
  490SOL     OW 1989   0.223   1.512   1.100
  490SOL    HW2 1990   0.233   1.428   1.145
  490SOL    HW3 1991   0.227   1.489   1.007
  490SOL    MW4 1992   0.225   1.498   1.094
  491SOL     OW 1993   0.003   1.657   1.172
  491SOL    HW2 1994   0.015   1.735   1.117
  491SOL    HW3 1995   0.078   1.602   1.152
  491SOL    MW4 1996   0.014   1.660   1.162
  492SOL     OW 1997   0.007   1.917   1.077
  492SOL    HW2 1998  -0.063   1.947   1.135
  492SOL    HW3 1999  -0.032   1.919   0.989
  492SOL    MW4 2000  -0.007   1.922   1.073
  493SOL     OW 2001   0.256   2.017   1.169
  493SOL    HW2 2002   0.255   2.109   1.145
  493SOL    HW3 2003   0.179   1.979   1.127
  493SOL    MW4 2004   0.246   2.024   1.160
  494SOL     OW 2005   0.211   2.294   1.104
  494SOL    HW2 2006   0.281   2.357   1.117
  494SOL    HW3 2007   0.130   2.344   1.112
  494SOL    MW4 2008   0.210   2.309   1.106
  495SOL     OW 2009   4.472   2.443   1.193
  495SOL    HW2 2010   4.478   2.440   1.288
  495SOL    HW3 2011   4.394   2.392   1.171
  495SOL    MW4 2012   4.463   2.436   1.202
  496SOL     OW 2013   0.035   2.693   1.077
  496SOL    HW2 2014  -0.023   2.763   1.111
  496SOL    HW3 2015   0.005   2.614   1.122
  496SOL    MW4 2016   0.023   2.692   1.088
  497SOL     OW 2017   0.272   2.810   1.159
  497SOL    HW2 2018   0.259   2.814   1.254
  497SOL    HW3 2019   0.197   2.760   1.126
  497SOL    MW4 2020   0.260   2.804   1.167
  498SOL     OW 2021   0.191   3.069   1.137
  498SOL    HW2 2022   0.271   3.118   1.160
  498SOL    HW3 2023   0.220   2.978   1.132
  498SOL    MW4 2024   0.206   3.064   1.140
  499SOL     OW 2025   0.020   3.262   1.273
  499SOL    HW2 2026  -0.072   3.240   1.256
  499SOL    HW3 2027   0.070   3.195   1.227
  499SOL    MW4 2028   0.015   3.250   1.265
  500SOL     OW 2029   0.054   3.510   1.146
  500SOL    HW2 2030   0.053   3.435   1.205
  500SOL    HW3 2031   0.032   3.473   1.060
  500SOL    MW4 2032   0.051   3.495   1.142
  501SOL     OW 2033   0.262   3.667   1.229
  501SOL    HW2 2034   0.241   3.677   1.322
  501SOL    HW3 2035   0.200   3.602   1.197
  501SOL    MW4 2036   0.251   3.660   1.237
  502SOL     OW 2037   0.243   3.912   1.108
  502SOL    HW2 2038   0.154   3.934   1.138
  502SOL    HW3 2039   0.261   3.827   1.148
  502SOL    MW4 2040   0.233   3.904   1.117
  503SOL     OW 2041   0.002   3.988   1.195
  503SOL    HW2 2042  -0.017   4.004   1.287
  503SOL    HW3 2043  -0.082   3.959   1.158
  503SOL    MW4 2044  -0.012   3.986   1.202
  504SOL     OW 2045   4.479   4.257   1.115
  504SOL    HW2 2046   4.567   4.290   1.137
  504SOL    HW3 2047   4.481   4.164   1.139
  504SOL    MW4 2048   4.491   4.249   1.121
  505SOL     OW 2049   0.240   4.348   1.171
  505SOL    HW2 2050   0.245   4.366   1.264
  505SOL    HW3 2051   0.219   4.432   1.131
  505SOL    MW4 2052   0.238   4.361   1.178
  506SOL     OW 2053   0.672   4.658   1.063
  506SOL    HW2 2054   0.732   4.711   1.116
  506SOL    HW3 2055   0.680   4.570   1.099
  506SOL    MW4 2056   0.681   4.654   1.075
  507SOL     OW 2057   0.420   0.110   1.147
  507SOL    HW2 2058   0.427   0.205   1.138
  507SOL    HW3 2059   0.503   0.077   1.114
  507SOL    MW4 2060   0.432   0.119   1.142
  508SOL     OW 2061   0.482   0.380   1.098
  508SOL    HW2 2062   0.403   0.423   1.130
  508SOL    HW3 2063   0.481   0.394   1.004
  508SOL    MW4 2064   0.472   0.388   1.090
  509SOL     OW 2065   0.723   0.503   1.164
  509SOL    HW2 2066   0.718   0.596   1.143
  509SOL    HW3 2067   0.638   0.468   1.137
  509SOL    MW4 2068   0.711   0.511   1.158
  510SOL     OW 2069   0.685   0.756   1.055
  510SOL    HW2 2070   0.601   0.797   1.072
  510SOL    HW3 2071   0.684   0.737   0.961
  510SOL    MW4 2072   0.674   0.759   1.045
  511SOL     OW 2073   0.470   0.856   1.174
  511SOL    HW2 2074   0.459   0.857   1.269
  511SOL    HW3 2075   0.464   0.948   1.148
  511SOL    MW4 2076   0.468   0.868   1.183
  512SOL     OW 2077   0.448   1.128   1.088
  512SOL    HW2 2078   0.514   1.191   1.118
  512SOL    HW3 2079   0.441   1.144   0.994
  512SOL    MW4 2080   0.456   1.138   1.079
  513SOL     OW 2081   0.663   1.288   1.145
  513SOL    HW2 2082   0.739   1.233   1.125
  513SOL    HW3 2083   0.673   1.363   1.086
  513SOL    MW4 2084   0.675   1.291   1.134
  514SOL     OW 2085   0.689   1.543   1.023
  514SOL    HW2 2086   0.765   1.578   1.070
  514SOL    HW3 2087   0.613   1.583   1.066
  514SOL    MW4 2088   0.689   1.553   1.035
  515SOL     OW 2089   0.469   1.614   1.171
  515SOL    HW2 2090   0.478   1.613   1.267
  515SOL    HW3 2091   0.383   1.576   1.155
  515SOL    MW4 2092   0.459   1.609   1.182
  516SOL     OW 2093   0.456   1.857   1.072
  516SOL    HW2 2094   0.451   1.772   1.116
  516SOL    HW3 2095   0.380   1.905   1.104
  516SOL    MW4 2096   0.445   1.852   1.082
  517SOL     OW 2097   0.632   2.064   1.178
  517SOL    HW2 2098   0.624   2.067   1.273
  517SOL    HW3 2099   0.567   1.999   1.150
  517SOL    MW4 2100   0.623   2.056   1.187
  518SOL     OW 2101   0.654   2.332   1.094
  518SOL    HW2 2102   0.570   2.373   1.115
  518SOL    HW3 2103   0.648   2.244   1.132
  518SOL    MW4 2104   0.642   2.326   1.102
  519SOL     OW 2105   0.419   2.461   1.168
  519SOL    HW2 2106   0.428   2.464   1.263
  519SOL    HW3 2107   0.446   2.548   1.139
  519SOL    MW4 2108   0.424   2.473   1.177
  520SOL     OW 2109   0.512   2.707   1.073
  520SOL    HW2 2110   0.427   2.746   1.093
  520SOL    HW3 2111   0.512   2.694   0.979
  520SOL    MW4 2112   0.501   2.710   1.063
  521SOL     OW 2113   0.705   2.845   1.217
  521SOL    HW2 2114   0.699   2.935   1.183
  521SOL    HW3 2115   0.638   2.797   1.169
  521SOL    MW4 2116   0.696   2.851   1.206
  522SOL     OW 2117   0.690   3.098   1.098
  522SOL    HW2 2118   0.776   3.136   1.118
  522SOL    HW3 2119   0.675   3.119   1.006
  522SOL    MW4 2120   0.699   3.106   1.089
  523SOL     OW 2121   0.454   3.181   1.187
  523SOL    HW2 2122   0.467   3.275   1.177
  523SOL    HW3 2123   0.539   3.142   1.167
  523SOL    MW4 2124   0.467   3.189   1.183
  524SOL     OW 2125   0.441   3.454   1.128
  524SOL    HW2 2126   0.528   3.487   1.151
  524SOL    HW3 2127   0.381   3.522   1.158
  524SOL    MW4 2128   0.445   3.467   1.135
  525SOL     OW 2129   0.674   3.562   1.210
  525SOL    HW2 2130   0.646   3.575   1.301
  525SOL    HW3 2131   0.652   3.645   1.167
  525SOL    MW4 2132   0.667   3.575   1.217
  526SOL     OW 2133   0.653   3.810   1.122
  526SOL    HW2 2134   0.595   3.882   1.146
  526SOL    HW3 2135   0.663   3.817   1.027
  526SOL    MW4 2136   0.647   3.820   1.113
  527SOL     OW 2137   0.489   4.029   1.172
  527SOL    HW2 2138   0.482   4.119   1.139
  527SOL    HW3 2139   0.403   3.990   1.152
  527SOL    MW4 2140   0.476   4.036   1.165
  528SOL     OW 2141   0.457   4.282   1.036
  528SOL    HW2 2142   0.531   4.325   1.079
  528SOL    HW3 2143   0.380   4.312   1.084
  528SOL    MW4 2144   0.457   4.292   1.048
  529SOL     OW 2145   0.698   4.385   1.165
  529SOL    HW2 2146   0.675   4.351   1.252
  529SOL    HW3 2147   0.783   4.345   1.146
  529SOL    MW4 2148   0.706   4.375   1.174
  530SOL     OW 2149   1.109   4.637   1.124
  530SOL    HW2 2150   1.123   4.544   1.143
  530SOL    HW3 2151   1.089   4.640   1.030
  530SOL    MW4 2152   1.108   4.625   1.114
  531SOL     OW 2153   0.897   0.121   1.221
  531SOL    HW2 2154   0.885   0.118   1.316
  531SOL    HW3 2155   0.975   0.069   1.205
  531SOL    MW4 2156   0.905   0.114   1.231
  532SOL     OW 2157   0.947   0.362   1.090
  532SOL    HW2 2158   0.933   0.272   1.120
  532SOL    HW3 2159   0.871   0.410   1.122
  532SOL    MW4 2160   0.935   0.356   1.098
  533SOL     OW 2161   1.175   0.485   1.236
  533SOL    HW2 2162   1.174   0.484   1.332
  533SOL    HW3 2163   1.090   0.449   1.211
  533SOL    MW4 2164   1.163   0.480   1.245
  534SOL     OW 2165   1.156   0.737   1.127
  534SOL    HW2 2166   1.068   0.762   1.156
  534SOL    HW3 2167   1.166   0.647   1.158
  534SOL    MW4 2168   1.146   0.728   1.135
  535SOL     OW 2169   0.880   0.896   1.173
  535SOL    HW2 2170   0.893   0.984   1.139
  535SOL    HW3 2171   0.807   0.861   1.122
  535SOL    MW4 2172   0.872   0.903   1.161
  536SOL     OW 2173   0.903   1.155   1.083
  536SOL    HW2 2174   0.975   1.215   1.102
  536SOL    HW3 2175   0.902   1.148   0.988
  536SOL    MW4 2176   0.912   1.162   1.073
  537SOL     OW 2177   1.145   1.320   1.159
  537SOL    HW2 2178   1.148   1.333   1.254
  537SOL    HW3 2179   1.218   1.262   1.140
  537SOL    MW4 2180   1.155   1.314   1.169
  538SOL     OW 2181   1.170   1.572   1.052
  538SOL    HW2 2182   1.167   1.483   1.087
  538SOL    HW3 2183   1.151   1.561   0.958
  538SOL    MW4 2184   1.167   1.559   1.044
  539SOL     OW 2185   0.919   1.649   1.152
  539SOL    HW2 2186   0.907   1.744   1.149
  539SOL    HW3 2187   1.009   1.636   1.123
  539SOL    MW4 2188   0.930   1.660   1.147
  540SOL     OW 2189   0.867   1.949   1.088
  540SOL    HW2 2190   0.935   1.999   1.133
  540SOL    HW3 2191   0.785   1.980   1.126
  540SOL    MW4 2192   0.865   1.960   1.099
  541SOL     OW 2193   1.093   2.057   1.193
  541SOL    HW2 2194   1.104   2.049   1.288
  541SOL    HW3 2195   1.101   2.151   1.176
  541SOL    MW4 2196   1.095   2.069   1.203
  542SOL     OW 2197   1.099   2.318   1.090
  542SOL    HW2 2198   1.177   2.351   1.134
  542SOL    HW3 2199   1.026   2.357   1.139
  542SOL    MW4 2200   1.099   2.328   1.102
  543SOL     OW 2201   0.872   2.467   1.195
  543SOL    HW2 2202   0.889   2.462   1.289
  543SOL    HW3 2203   0.782   2.435   1.185
  543SOL    MW4 2204   0.862   2.462   1.206
  544SOL     OW 2205   0.873   2.701   1.040
  544SOL    HW2 2206   0.877   2.613   1.079
  544SOL    HW3 2207   0.822   2.752   1.101
  544SOL    MW4 2208   0.867   2.696   1.053
  545SOL     OW 2209   1.108   2.849   1.147
  545SOL    HW2 2210   1.082   2.854   1.239
  545SOL    HW3 2211   1.046   2.788   1.108
  545SOL    MW4 2212   1.096   2.842   1.154
  546SOL     OW 2213   1.145   3.111   1.084
  546SOL    HW2 2214   1.135   3.017   1.100
  546SOL    HW3 2215   1.083   3.129   1.013
  546SOL    MW4 2216   1.136   3.101   1.076
  547SOL     OW 2217   0.901   3.234   1.194
  547SOL    HW2 2218   0.921   3.326   1.178
  547SOL    HW3 2219   0.983   3.188   1.177
  547SOL    MW4 2220   0.914   3.240   1.190
  548SOL     OW 2221   0.930   3.501   1.157
  548SOL    HW2 2222   0.845   3.532   1.189
  548SOL    HW3 2223   0.918   3.492   1.062
  548SOL    MW4 2224   0.917   3.504   1.148
  549SOL     OW 2225   1.174   3.611   1.236
  549SOL    HW2 2226   1.256   3.583   1.197
  549SOL    HW3 2227   1.109   3.548   1.204
  549SOL    MW4 2228   1.176   3.599   1.227
  550SOL     OW 2229   1.108   3.852   1.106
  550SOL    HW2 2230   1.036   3.895   1.152
  550SOL    HW3 2231   1.121   3.770   1.154
  550SOL    MW4 2232   1.100   3.847   1.118
  551SOL     OW 2233   0.886   3.982   1.209
  551SOL    HW2 2234   0.870   4.008   1.300
  551SOL    HW3 2235   0.809   3.930   1.185
  551SOL    MW4 2236   0.874   3.978   1.218
  552SOL     OW 2237   0.912   4.211   1.057
  552SOL    HW2 2238   0.898   4.128   1.101
  552SOL    HW3 2239   0.895   4.193   0.965
  552SOL    MW4 2240   0.908   4.198   1.051
  553SOL     OW 2241   1.111   4.359   1.162
  553SOL    HW2 2242   1.095   4.349   1.256
  553SOL    HW3 2243   1.048   4.299   1.121
  553SOL    MW4 2244   1.100   4.350   1.169
  554SOL     OW 2245   1.610   4.627   1.066
  554SOL    HW2 2246   1.684   4.678   1.100
  554SOL    HW3 2247   1.604   4.552   1.125
  554SOL    MW4 2248   1.619   4.624   1.079
  555SOL     OW 2249   1.373   0.089   1.160
  555SOL    HW2 2250   1.450   0.039   1.134
  555SOL    HW3 2251   1.299   0.035   1.131
  555SOL    MW4 2252   1.373   0.075   1.153
  556SOL     OW 2253   1.348   0.346   1.066
  556SOL    HW2 2254   1.358   0.257   1.098
  556SOL    HW3 2255   1.284   0.386   1.125
  556SOL    MW4 2256   1.341   0.340   1.078
  557SOL     OW 2257   1.542   0.481   1.200
  557SOL    HW2 2258   1.555   0.570   1.166
  557SOL    HW3 2259   1.475   0.444   1.143
  557SOL    MW4 2260   1.535   0.488   1.188
  558SOL     OW 2261   1.586   0.752   1.123
  558SOL    HW2 2262   1.646   0.825   1.141
  558SOL    HW3 2263   1.575   0.753   1.028
  558SOL    MW4 2264   1.593   0.761   1.112
  559SOL     OW 2265   1.365   0.919   1.174
  559SOL    HW2 2266   1.438   0.865   1.142
  559SOL    HW3 2267   1.287   0.866   1.156
  559SOL    MW4 2268   1.364   0.905   1.168
  560SOL     OW 2269   1.390   1.174   1.082
  560SOL    HW2 2270   1.409   1.087   1.117
  560SOL    HW3 2271   1.401   1.165   0.988
  560SOL    MW4 2272   1.394   1.161   1.074
  561SOL     OW 2273   1.597   1.317   1.199
  561SOL    HW2 2274   1.671   1.269   1.162
  561SOL    HW3 2275   1.519   1.277   1.160
  561SOL    MW4 2276   1.596   1.306   1.189
  562SOL     OW 2277   1.623   1.575   1.066
  562SOL    HW2 2278   1.682   1.621   1.126
  562SOL    HW3 2279   1.610   1.489   1.105
  562SOL    MW4 2280   1.629   1.570   1.079
  563SOL     OW 2281   1.357   1.701   1.182
  563SOL    HW2 2282   1.432   1.663   1.136
  563SOL    HW3 2283   1.282   1.655   1.146
  563SOL    MW4 2284   1.357   1.690   1.171
  564SOL     OW 2285   1.329   1.957   1.095
  564SOL    HW2 2286   1.338   1.870   1.135
  564SOL    HW3 2287   1.255   1.997   1.142
  564SOL    MW4 2288   1.320   1.951   1.107
  565SOL     OW 2289   1.579   2.072   1.191
  565SOL    HW2 2290   1.585   2.161   1.156
  565SOL    HW3 2291   1.491   2.043   1.168
  565SOL    MW4 2292   1.568   2.080   1.183
  566SOL     OW 2293   1.576   2.330   1.086
  566SOL    HW2 2294   1.494   2.366   1.120
  566SOL    HW3 2295   1.570   2.342   0.991
  566SOL    MW4 2296   1.564   2.336   1.078
  567SOL     OW 2297   1.331   2.408   1.182
  567SOL    HW2 2298   1.346   2.417   1.276
  567SOL    HW3 2299   1.329   2.498   1.149
  567SOL    MW4 2300   1.333   2.421   1.190
  568SOL     OW 2301   1.333   2.678   1.090
  568SOL    HW2 2302   1.417   2.713   1.119
  568SOL    HW3 2303   1.270   2.747   1.109
  568SOL    MW4 2304   1.336   2.692   1.096
  569SOL     OW 2305   1.561   2.822   1.152
  569SOL    HW2 2306   1.651   2.789   1.148
  569SOL    HW3 2307   1.570   2.917   1.143
  569SOL    MW4 2308   1.574   2.830   1.150
  570SOL     OW 2309   1.572   3.097   1.093
  570SOL    HW2 2310   1.644   3.146   1.132
  570SOL    HW3 2311   1.493   3.133   1.134
  570SOL    MW4 2312   1.571   3.108   1.103
  571SOL     OW 2313   1.357   3.225   1.199
  571SOL    HW2 2314   1.336   3.235   1.291
  571SOL    HW3 2315   1.282   3.178   1.162
  571SOL    MW4 2316   1.345   3.220   1.206
  572SOL     OW 2317   1.364   3.472   1.074
  572SOL    HW2 2318   1.368   3.385   1.112
  572SOL    HW3 2319   1.388   3.460   0.982
  572SOL    MW4 2320   1.367   3.459   1.067
  573SOL     OW 2321   1.575   3.583   1.219
  573SOL    HW2 2322   1.586   3.665   1.171
  573SOL    HW3 2323   1.503   3.538   1.174
  573SOL    MW4 2324   1.567   3.588   1.207
  574SOL     OW 2325   1.579   3.830   1.136
  574SOL    HW2 2326   1.499   3.878   1.156
  574SOL    HW3 2327   1.605   3.862   1.050
  574SOL    MW4 2328   1.572   3.840   1.128
  575SOL     OW 2329   1.361   3.970   1.180
  575SOL    HW2 2330   1.361   4.050   1.127
  575SOL    HW3 2331   1.278   3.927   1.160
  575SOL    MW4 2332   1.350   3.975   1.170
  576SOL     OW 2333   1.369   4.243   1.106
  576SOL    HW2 2334   1.286   4.284   1.129
  576SOL    HW3 2335   1.367   4.238   1.011
  576SOL    MW4 2336   1.358   4.248   1.097
  577SOL     OW 2337   1.567   4.407   1.234
  577SOL    HW2 2338   1.542   4.395   1.326
  577SOL    HW3 2339   1.515   4.342   1.187
  577SOL    MW4 2340   1.557   4.396   1.240
  578SOL     OW 2341   2.000   4.654   1.034
  578SOL    HW2 2342   2.002   4.563   1.063
  578SOL    HW3 2343   1.997   4.649   0.939
  578SOL    MW4 2344   2.000   4.642   1.025
  579SOL     OW 2345   1.794   0.124   1.166
  579SOL    HW2 2346   1.779   0.216   1.147
  579SOL    HW3 2347   1.879   0.105   1.128
  579SOL    MW4 2348   1.803   0.134   1.159
  580SOL     OW 2349   1.767   0.374   1.082
  580SOL    HW2 2350   1.689   0.417   1.117
  580SOL    HW3 2351   1.762   0.389   0.988
  580SOL    MW4 2352   1.756   0.382   1.074
  581SOL     OW 2353   1.970   0.528   1.166
  581SOL    HW2 2354   1.971   0.520   1.262
  581SOL    HW3 2355   1.901   0.468   1.138
  581SOL    MW4 2356   1.961   0.519   1.175
  582SOL     OW 2357   1.963   0.777   1.055
  582SOL    HW2 2358   1.977   0.688   1.088
  582SOL    HW3 2359   2.025   0.785   0.983
  582SOL    MW4 2360   1.973   0.766   1.050
  583SOL     OW 2361   1.790   0.935   1.188
  583SOL    HW2 2362   1.776   0.936   1.283
  583SOL    HW3 2363   1.857   0.867   1.174
  583SOL    MW4 2364   1.797   0.926   1.199
  584SOL     OW 2365   1.799   1.174   1.075
  584SOL    HW2 2366   1.787   1.086   1.111
  584SOL    HW3 2367   1.817   1.160   0.982
  584SOL    MW4 2368   1.800   1.160   1.068
  585SOL     OW 2369   2.033   1.322   1.127
  585SOL    HW2 2370   2.099   1.270   1.081
  585SOL    HW3 2371   1.953   1.271   1.119
  585SOL    MW4 2372   2.031   1.308   1.120
  586SOL     OW 2373   2.016   1.589   1.048
  586SOL    HW2 2374   2.015   1.497   1.076
  586SOL    HW3 2375   2.007   1.585   0.953
  586SOL    MW4 2376   2.015   1.576   1.039
  587SOL     OW 2377   1.804   1.732   1.199
  587SOL    HW2 2378   1.808   1.821   1.164
  587SOL    HW3 2379   1.880   1.688   1.160
  587SOL    MW4 2380   1.815   1.738   1.189
  588SOL     OW 2381   1.813   1.968   1.084
  588SOL    HW2 2382   1.730   2.014   1.095
  588SOL    HW3 2383   1.818   1.947   0.991
  588SOL    MW4 2384   1.803   1.971   1.073
  589SOL     OW 2385   2.059   2.079   1.125
  589SOL    HW2 2386   2.076   2.066   1.218
  589SOL    HW3 2387   1.972   2.039   1.111
  589SOL    MW4 2388   2.050   2.072   1.135
  590SOL     OW 2389   2.025   2.346   1.078
  590SOL    HW2 2390   2.104   2.384   1.116
  590SOL    HW3 2391   2.036   2.252   1.090
  590SOL    MW4 2392   2.037   2.339   1.084
  591SOL     OW 2393   1.797   2.471   1.171
  591SOL    HW2 2394   1.885   2.438   1.154
  591SOL    HW3 2395   1.739   2.402   1.138
  591SOL    MW4 2396   1.801   2.457   1.164
  592SOL     OW 2397   1.834   2.726   1.103
  592SOL    HW2 2398   1.819   2.634   1.123
  592SOL    HW3 2399   1.826   2.732   1.008
  592SOL    MW4 2400   1.831   2.715   1.093
  593SOL     OW 2401   2.043   2.849   1.252
  593SOL    HW2 2402   2.053   2.943   1.234
  593SOL    HW3 2403   1.963   2.825   1.206
  593SOL    MW4 2404   2.034   2.858   1.244
  594SOL     OW 2405   2.065   3.118   1.140
  594SOL    HW2 2406   1.976   3.151   1.155
  594SOL    HW3 2407   2.079   3.128   1.045
  594SOL    MW4 2408   2.055   3.124   1.129
  595SOL     OW 2409   1.812   3.196   1.223
  595SOL    HW2 2410   1.799   3.199   1.318
  595SOL    HW3 2411   1.819   3.288   1.197
  595SOL    MW4 2412   1.811   3.208   1.232
  596SOL     OW 2413   1.811   3.459   1.120
  596SOL    HW2 2414   1.886   3.503   1.160
  596SOL    HW3 2415   1.734   3.502   1.157
  596SOL    MW4 2416   1.811   3.470   1.130
  597SOL     OW 2417   2.032   3.623   1.216
  597SOL    HW2 2418   2.024   3.628   1.312
  597SOL    HW3 2419   2.122   3.597   1.201
  597SOL    MW4 2420   2.043   3.620   1.227
  598SOL     OW 2421   2.052   3.893   1.137
  598SOL    HW2 2422   1.963   3.922   1.160
  598SOL    HW3 2423   2.053   3.799   1.157
  598SOL    MW4 2424   2.040   3.884   1.143
  599SOL     OW 2425   1.792   3.975   1.207
  599SOL    HW2 2426   1.795   3.981   1.302
  599SOL    HW3 2427   1.718   3.917   1.189
  599SOL    MW4 2428   1.783   3.968   1.217
  600SOL     OW 2429   1.792   4.258   1.125
  600SOL    HW2 2430   1.766   4.178   1.171
  600SOL    HW3 2431   1.722   4.321   1.144
  600SOL    MW4 2432   1.779   4.256   1.134
  601SOL     OW 2433   2.012   4.420   1.209
  601SOL    HW2 2434   2.022   4.453   1.299
  601SOL    HW3 2435   1.934   4.365   1.212
  601SOL    MW4 2436   2.003   4.417   1.222
  602SOL     OW 2437   2.429   4.651   1.099
  602SOL    HW2 2438   2.501   4.714   1.109
  602SOL    HW3 2439   2.352   4.700   1.128
  602SOL    MW4 2440   2.428   4.666   1.104
  603SOL     OW 2441   2.201   0.131   1.204
  603SOL    HW2 2442   2.203   0.217   1.161
  603SOL    HW3 2443   2.136   0.081   1.154
  603SOL    MW4 2444   2.193   0.136   1.192
  604SOL     OW 2445   2.217   0.406   1.101
  604SOL    HW2 2446   2.129   0.438   1.123
  604SOL    HW3 2447   2.216   0.399   1.006
  604SOL    MW4 2448   2.205   0.410   1.091
  605SOL     OW 2449   2.448   0.557   1.174
  605SOL    HW2 2450   2.426   0.564   1.267
  605SOL    HW3 2451   2.374   0.511   1.135
  605SOL    MW4 2452   2.435   0.552   1.181
  606SOL     OW 2453   2.381   0.798   1.061
  606SOL    HW2 2454   2.407   0.714   1.099
  606SOL    HW3 2455   2.390   0.786   0.967
  606SOL    MW4 2456   2.386   0.786   1.054
  607SOL     OW 2457   2.161   0.944   1.165
  607SOL    HW2 2458   2.238   0.892   1.145
  607SOL    HW3 2459   2.088   0.893   1.131
  607SOL    MW4 2460   2.161   0.931   1.158
  608SOL     OW 2461   2.228   1.166   1.003
  608SOL    HW2 2462   2.289   1.225   1.047
  608SOL    HW3 2463   2.219   1.092   1.062
  608SOL    MW4 2464   2.235   1.164   1.016
  609SOL     OW 2465   2.431   1.266   1.159
  609SOL    HW2 2466   2.511   1.228   1.122
  609SOL    HW3 2467   2.442   1.361   1.148
  609SOL    MW4 2468   2.443   1.274   1.152
  610SOL     OW 2469   2.449   1.548   1.093
  610SOL    HW2 2470   2.376   1.600   1.129
  610SOL    HW3 2471   2.433   1.546   0.999
  610SOL    MW4 2472   2.437   1.555   1.085
  611SOL     OW 2473   2.242   1.716   1.178
  611SOL    HW2 2474   2.253   1.802   1.138
  611SOL    HW3 2475   2.167   1.678   1.132
  611SOL    MW4 2476   2.233   1.722   1.167
  612SOL     OW 2477   2.298   1.951   1.044
  612SOL    HW2 2478   2.220   2.002   1.066
  612SOL    HW3 2479   2.285   1.928   0.952
  612SOL    MW4 2480   2.286   1.955   1.034
  613SOL     OW 2481   2.482   2.099   1.180
  613SOL    HW2 2482   2.575   2.086   1.158
  613SOL    HW3 2483   2.436   2.031   1.131
  613SOL    MW4 2484   2.489   2.088   1.171
  614SOL     OW 2485   2.481   2.361   1.076
  614SOL    HW2 2486   2.463   2.277   1.118
  614SOL    HW3 2487   2.471   2.343   0.982
  614SOL    MW4 2488   2.477   2.348   1.069
  615SOL     OW 2489   2.242   2.473   1.177
  615SOL    HW2 2490   2.249   2.487   1.271
  615SOL    HW3 2491   2.331   2.446   1.150
  615SOL    MW4 2492   2.255   2.471   1.186
  616SOL     OW 2493   2.289   2.730   1.110
  616SOL    HW2 2494   2.283   2.635   1.123
  616SOL    HW3 2495   2.214   2.765   1.158
  616SOL    MW4 2496   2.278   2.722   1.118
  617SOL     OW 2497   2.504   2.893   1.167
  617SOL    HW2 2498   2.498   2.899   1.262
  617SOL    HW3 2499   2.428   2.840   1.142
  617SOL    MW4 2500   2.493   2.887   1.176
  618SOL     OW 2501   2.518   3.165   1.089
  618SOL    HW2 2502   2.448   3.201   1.143
  618SOL    HW3 2503   2.515   3.071   1.106
  618SOL    MW4 2504   2.508   3.157   1.098
  619SOL     OW 2505   2.287   3.261   1.216
  619SOL    HW2 2506   2.268   3.343   1.170
  619SOL    HW3 2507   2.209   3.208   1.203
  619SOL    MW4 2508   2.274   3.265   1.208
  620SOL     OW 2509   2.266   3.512   1.125
  620SOL    HW2 2510   2.353   3.536   1.158
  620SOL    HW3 2511   2.268   3.536   1.033
  620SOL    MW4 2512   2.278   3.518   1.117
  621SOL     OW 2513   2.500   3.639   1.200
  621SOL    HW2 2514   2.509   3.647   1.295
  621SOL    HW3 2515   2.489   3.729   1.169
  621SOL    MW4 2516   2.500   3.652   1.209
  622SOL     OW 2517   2.501   3.911   1.106
  622SOL    HW2 2518   2.427   3.961   1.142
  622SOL    HW3 2519   2.479   3.900   1.013
  622SOL    MW4 2520   2.488   3.916   1.099
  623SOL     OW 2521   2.292   4.024   1.218
  623SOL    HW2 2522   2.276   4.109   1.176
  623SOL    HW3 2523   2.216   3.972   1.195
  623SOL    MW4 2524   2.280   4.029   1.209
  624SOL     OW 2525   2.250   4.269   1.114
  624SOL    HW2 2526   2.173   4.314   1.151
  624SOL    HW3 2527   2.231   4.262   1.021
  624SOL    MW4 2528   2.237   4.274   1.107
  625SOL     OW 2529   2.503   4.400   1.204
  625SOL    HW2 2530   2.429   4.348   1.173
  625SOL    HW3 2531   2.488   4.487   1.167
  625SOL    MW4 2532   2.491   4.405   1.195
  626SOL     OW 2533   2.895   0.009   1.090
  626SOL    HW2 2534   2.899  -0.082   1.121
  626SOL    HW3 2535   2.919   0.005   0.998
  626SOL    MW4 2536   2.898  -0.004   1.082
  627SOL     OW 2537   2.645   0.134   1.187
  627SOL    HW2 2538   2.653   0.129   1.282
  627SOL    HW3 2539   2.725   0.094   1.153
  627SOL    MW4 2540   2.656   0.128   1.195
  628SOL     OW 2541   2.675   0.403   1.112
  628SOL    HW2 2542   2.670   0.321   1.160
  628SOL    HW3 2543   2.608   0.459   1.152
  628SOL    MW4 2544   2.666   0.400   1.124
  629SOL     OW 2545   2.936   0.515   1.152
  629SOL    HW2 2546   2.936   0.609   1.137
  629SOL    HW3 2547   2.844   0.489   1.146
  629SOL    MW4 2548   2.924   0.524   1.150
  630SOL     OW 2549   2.911   0.785   1.063
  630SOL    HW2 2550   2.980   0.833   1.110
  630SOL    HW3 2551   2.830   0.832   1.087
  630SOL    MW4 2552   2.909   0.798   1.073
  631SOL     OW 2553   2.644   0.873   1.184
  631SOL    HW2 2554   2.654   0.960   1.147
  631SOL    HW3 2555   2.565   0.838   1.144
  631SOL    MW4 2556   2.635   0.880   1.174
  632SOL     OW 2557   2.662   1.149   1.107
  632SOL    HW2 2558   2.742   1.194   1.135
  632SOL    HW3 2559   2.671   1.142   1.011
  632SOL    MW4 2560   2.674   1.154   1.098
  633SOL     OW 2561   2.898   1.293   1.194
  633SOL    HW2 2562   2.897   1.302   1.289
  633SOL    HW3 2563   2.880   1.381   1.161
  633SOL    MW4 2564   2.895   1.306   1.202
  634SOL     OW 2565   2.901   1.543   1.108
  634SOL    HW2 2566   2.989   1.575   1.128
  634SOL    HW3 2567   2.896   1.543   1.013
  634SOL    MW4 2568   2.912   1.547   1.098
  635SOL     OW 2569   2.681   1.688   1.183
  635SOL    HW2 2570   2.761   1.639   1.163
  635SOL    HW3 2571   2.610   1.634   1.147
  635SOL    MW4 2572   2.682   1.674   1.176
  636SOL     OW 2573   2.713   1.959   1.075
  636SOL    HW2 2574   2.795   1.995   1.108
  636SOL    HW3 2575   2.711   1.869   1.110
  636SOL    MW4 2576   2.723   1.952   1.084
  637SOL     OW 2577   2.966   2.065   1.155
  637SOL    HW2 2578   2.967   2.076   1.250
  637SOL    HW3 2579   2.965   2.154   1.120
  637SOL    MW4 2580   2.966   2.078   1.163
  638SOL     OW 2581   2.927   2.321   1.077
  638SOL    HW2 2582   3.002   2.367   1.114
  638SOL    HW3 2583   2.851   2.373   1.106
  638SOL    MW4 2584   2.927   2.334   1.086
  639SOL     OW 2585   2.709   2.464   1.187
  639SOL    HW2 2586   2.700   2.444   1.281
  639SOL    HW3 2587   2.624   2.441   1.150
  639SOL    MW4 2588   2.696   2.459   1.195
  640SOL     OW 2589   2.723   2.733   1.123
  640SOL    HW2 2590   2.699   2.646   1.156
  640SOL    HW3 2591   2.649   2.788   1.147
  640SOL    MW4 2592   2.710   2.729   1.131
  641SOL     OW 2593   2.958   2.885   1.216
  641SOL    HW2 2594   2.970   2.862   1.309
  641SOL    HW3 2595   2.883   2.834   1.188
  641SOL    MW4 2596   2.950   2.875   1.225
  642SOL     OW 2597   2.966   3.157   1.127
  642SOL    HW2 2598   2.961   3.068   1.163
  642SOL    HW3 2599   2.957   3.145   1.033
  642SOL    MW4 2600   2.964   3.143   1.120
  643SOL     OW 2601   2.737   3.283   1.233
  643SOL    HW2 2602   2.817   3.242   1.199
  643SOL    HW3 2603   2.666   3.231   1.196
  643SOL    MW4 2604   2.738   3.271   1.223
  644SOL     OW 2605   2.727   3.526   1.083
  644SOL    HW2 2606   2.727   3.445   1.133
  644SOL    HW3 2607   2.657   3.579   1.121
  644SOL    MW4 2608   2.718   3.523   1.094
  645SOL     OW 2609   2.961   3.636   1.230
  645SOL    HW2 2610   3.043   3.610   1.187
  645SOL    HW3 2611   2.893   3.592   1.180
  645SOL    MW4 2612   2.963   3.627   1.217
  646SOL     OW 2613   2.967   3.900   1.152
  646SOL    HW2 2614   3.040   3.940   1.199
  646SOL    HW3 2615   2.970   3.807   1.176
  646SOL    MW4 2616   2.977   3.893   1.162
  647SOL     OW 2617   2.722   4.047   1.224
  647SOL    HW2 2618   2.796   3.996   1.192
  647SOL    HW3 2619   2.645   3.996   1.196
  647SOL    MW4 2620   2.722   4.034   1.216
  648SOL     OW 2621   2.724   4.284   1.089
  648SOL    HW2 2622   2.723   4.210   1.149
  648SOL    HW3 2623   2.648   4.336   1.114
  648SOL    MW4 2624   2.714   4.281   1.100
  649SOL     OW 2625   2.940   4.421   1.206
  649SOL    HW2 2626   3.017   4.365   1.195
  649SOL    HW3 2627   2.868   4.371   1.168
  649SOL    MW4 2628   2.941   4.407   1.200
  650SOL     OW 2629   3.359   4.651   1.075
  650SOL    HW2 2630   3.437   4.692   1.112
  650SOL    HW3 2631   3.286   4.700   1.112
  650SOL    MW4 2632   3.360   4.663   1.084
  651SOL     OW 2633   3.142   0.127   1.189
  651SOL    HW2 2634   3.148   0.117   1.284
  651SOL    HW3 2635   3.054   0.098   1.167
  651SOL    MW4 2636   3.131   0.122   1.199
  652SOL     OW 2637   3.113   0.343   1.021
  652SOL    HW2 2638   3.144   0.272   1.076
  652SOL    HW3 2639   3.035   0.376   1.065
  652SOL    MW4 2640   3.107   0.338   1.034
  653SOL     OW 2641   3.327   0.482   1.157
  653SOL    HW2 2642   3.326   0.572   1.124
  653SOL    HW3 2643   3.248   0.443   1.121
  653SOL    MW4 2644   3.316   0.489   1.148
  654SOL     OW 2645   3.346   0.747   1.056
  654SOL    HW2 2646   3.266   0.793   1.080
  654SOL    HW3 2647   3.358   0.765   0.963
  654SOL    MW4 2648   3.337   0.755   1.047
  655SOL     OW 2649   3.137   0.908   1.172
  655SOL    HW2 2650   3.178   0.912   1.258
  655SOL    HW3 2651   3.130   1.000   1.144
  655SOL    MW4 2652   3.141   0.921   1.179
  656SOL     OW 2653   3.104   1.169   1.080
  656SOL    HW2 2654   3.182   1.206   1.119
  656SOL    HW3 2655   3.031   1.219   1.117
  656SOL    MW4 2656   3.104   1.180   1.090
  657SOL     OW 2657   3.326   1.309   1.170
  657SOL    HW2 2658   3.345   1.322   1.263
  657SOL    HW3 2659   3.337   1.395   1.131
  657SOL    MW4 2660   3.330   1.322   1.177
  658SOL     OW 2661   3.390   1.559   1.050
  658SOL    HW2 2662   3.465   1.580   1.105
  658SOL    HW3 2663   3.316   1.604   1.091
  658SOL    MW4 2664   3.390   1.568   1.062
  659SOL     OW 2665   3.170   1.678   1.168
  659SOL    HW2 2666   3.187   1.694   1.261
  659SOL    HW3 2667   3.183   1.763   1.126
  659SOL    MW4 2668   3.174   1.691   1.175
  660SOL     OW 2669   3.190   1.939   1.078
  660SOL    HW2 2670   3.265   1.990   1.107
  660SOL    HW3 2671   3.114   1.992   1.102
  660SOL    MW4 2672   3.190   1.953   1.085
  661SOL     OW 2673   3.399   2.077   1.212
  661SOL    HW2 2674   3.473   2.032   1.172
  661SOL    HW3 2675   3.396   2.163   1.169
  661SOL    MW4 2676   3.408   2.083   1.201
  662SOL     OW 2677   3.362   2.324   1.091
  662SOL    HW2 2678   3.427   2.375   1.138
  662SOL    HW3 2679   3.278   2.354   1.126
  662SOL    MW4 2680   3.359   2.335   1.102
  663SOL     OW 2681   3.140   2.447   1.196
  663SOL    HW2 2682   3.157   2.442   1.290
  663SOL    HW3 2683   3.132   2.541   1.178
  663SOL    MW4 2684   3.141   2.459   1.206
  664SOL     OW 2685   3.162   2.732   1.122
  664SOL    HW2 2686   3.081   2.778   1.144
  664SOL    HW3 2687   3.158   2.721   1.027
  664SOL    MW4 2688   3.150   2.737   1.112
  665SOL     OW 2689   3.409   2.851   1.197
  665SOL    HW2 2690   3.383   2.939   1.169
  665SOL    HW3 2691   3.331   2.797   1.180
  665SOL    MW4 2692   3.395   2.855   1.191
  666SOL     OW 2693   3.401   3.114   1.109
  666SOL    HW2 2694   3.478   3.139   1.159
  666SOL    HW3 2695   3.330   3.166   1.147
  666SOL    MW4 2696   3.402   3.124   1.121
  667SOL     OW 2697   3.201   3.281   1.192
  667SOL    HW2 2698   3.198   3.368   1.152
  667SOL    HW3 2699   3.116   3.242   1.171
  667SOL    MW4 2700   3.190   3.288   1.184
  668SOL     OW 2701   3.178   3.542   1.103
  668SOL    HW2 2702   3.263   3.573   1.135
  668SOL    HW3 2703   3.185   3.546   1.008
  668SOL    MW4 2704   3.190   3.547   1.095
  669SOL     OW 2705   3.413   3.637   1.193
  669SOL    HW2 2706   3.406   3.642   1.288
  669SOL    HW3 2707   3.486   3.577   1.177
  669SOL    MW4 2708   3.422   3.630   1.203
  670SOL     OW 2709   3.373   3.899   1.113
  670SOL    HW2 2710   3.300   3.927   1.167
  670SOL    HW3 2711   3.391   3.809   1.142
  670SOL    MW4 2712   3.366   3.890   1.124
  671SOL     OW 2713   3.188   4.005   1.272
  671SOL    HW2 2714   3.175   4.006   1.367
  671SOL    HW3 2715   3.188   4.097   1.246
  671SOL    MW4 2716   3.187   4.018   1.281
  672SOL     OW 2717   3.177   4.277   1.159
  672SOL    HW2 2718   3.249   4.335   1.184
  672SOL    HW3 2719   3.169   4.287   1.065
  672SOL    MW4 2720   3.185   4.286   1.150
  673SOL     OW 2721   3.379   4.430   1.234
  673SOL    HW2 2722   3.447   4.387   1.181
  673SOL    HW3 2723   3.364   4.513   1.190
  673SOL    MW4 2724   3.386   4.435   1.221
  674SOL     OW 2725   3.802   4.633   1.113
  674SOL    HW2 2726   3.801   4.538   1.115
  674SOL    HW3 2727   3.819   4.655   1.022
  674SOL    MW4 2728   3.804   4.624   1.101
  675SOL     OW 2729   3.574   0.103   1.180
  675SOL    HW2 2730   3.578   0.197   1.160
  675SOL    HW3 2731   3.664   0.072   1.169
  675SOL    MW4 2732   3.586   0.111   1.176
  676SOL     OW 2733   3.570   0.370   1.118
  676SOL    HW2 2734   3.636   0.420   1.166
  676SOL    HW3 2735   3.487   0.413   1.139
  676SOL    MW4 2736   3.568   0.382   1.127
  677SOL     OW 2737   3.788   0.498   1.229
  677SOL    HW2 2738   3.859   0.448   1.189
  677SOL    HW3 2739   3.798   0.587   1.195
  677SOL    MW4 2740   3.798   0.503   1.219
  678SOL     OW 2741   3.806   0.747   1.079
  678SOL    HW2 2742   3.876   0.783   1.133
  678SOL    HW3 2743   3.725   0.774   1.123
  678SOL    MW4 2744   3.804   0.756   1.092
  679SOL     OW 2745   3.564   0.878   1.185
  679SOL    HW2 2746   3.560   0.969   1.157
  679SOL    HW3 2747   3.488   0.836   1.143
  679SOL    MW4 2748   3.554   0.884   1.176
  680SOL     OW 2749   3.525   1.132   1.087
  680SOL    HW2 2750   3.595   1.179   1.132
  680SOL    HW3 2751   3.444   1.175   1.114
  680SOL    MW4 2752   3.524   1.144   1.096
  681SOL     OW 2753   3.763   1.245   1.206
  681SOL    HW2 2754   3.777   1.241   1.301
  681SOL    HW3 2755   3.779   1.336   1.183
  681SOL    MW4 2756   3.767   1.256   1.216
  682SOL     OW 2757   3.810   1.505   1.144
  682SOL    HW2 2758   3.898   1.536   1.166
  682SOL    HW3 2759   3.802   1.521   1.050
  682SOL    MW4 2760   3.820   1.511   1.135
  683SOL     OW 2761   3.602   1.681   1.203
  683SOL    HW2 2762   3.597   1.759   1.148
  683SOL    HW3 2763   3.684   1.638   1.178
  683SOL    MW4 2764   3.612   1.686   1.193
  684SOL     OW 2765   3.574   1.912   1.059
  684SOL    HW2 2766   3.649   1.951   1.104
  684SOL    HW3 2767   3.580   1.943   0.969
  684SOL    MW4 2768   3.585   1.921   1.053
  685SOL     OW 2769   3.796   2.063   1.177
  685SOL    HW2 2770   3.817   2.072   1.270
  685SOL    HW3 2771   3.857   1.997   1.144
  685SOL    MW4 2772   3.807   2.055   1.185
  686SOL     OW 2773   3.804   2.311   1.068
  686SOL    HW2 2774   3.871   2.358   1.118
  686SOL    HW3 2775   3.794   2.228   1.115
  686SOL    MW4 2776   3.811   2.306   1.081
  687SOL     OW 2777   3.585   2.444   1.197
  687SOL    HW2 2778   3.597   2.426   1.290
  687SOL    HW3 2779   3.651   2.389   1.154
  687SOL    MW4 2780   3.595   2.434   1.203
  688SOL     OW 2781   3.630   2.713   1.103
  688SOL    HW2 2782   3.614   2.633   1.154
  688SOL    HW3 2783   3.553   2.767   1.118
  688SOL    MW4 2784   3.618   2.709   1.112
  689SOL     OW 2785   3.852   2.804   1.229
  689SOL    HW2 2786   3.841   2.804   1.324
  689SOL    HW3 2787   3.768   2.772   1.195
  689SOL    MW4 2788   3.839   2.800   1.237
  690SOL     OW 2789   3.845   3.071   1.137
  690SOL    HW2 2790   3.839   2.988   1.183
  690SOL    HW3 2791   3.832   3.049   1.045
  690SOL    MW4 2792   3.842   3.057   1.131
  691SOL     OW 2793   3.636   3.209   1.240
  691SOL    HW2 2794   3.646   3.302   1.218
  691SOL    HW3 2795   3.696   3.164   1.180
  691SOL    MW4 2796   3.646   3.216   1.230
  692SOL     OW 2797   3.636   3.461   1.151
  692SOL    HW2 2798   3.708   3.517   1.180
  692SOL    HW3 2799   3.642   3.462   1.056
  692SOL    MW4 2800   3.647   3.469   1.142
  693SOL     OW 2801   3.856   3.640   1.197
  693SOL    HW2 2802   3.855   3.654   1.291
  693SOL    HW3 2803   3.876   3.726   1.160
  693SOL    MW4 2804   3.859   3.653   1.204
  694SOL     OW 2805   3.833   3.895   1.107
  694SOL    HW2 2806   3.763   3.935   1.159
  694SOL    HW3 2807   3.793   3.879   1.021
  694SOL    MW4 2808   3.818   3.898   1.102
  695SOL     OW 2809   3.606   4.029   1.241
  695SOL    HW2 2810   3.604   4.028   1.336
  695SOL    HW3 2811   3.527   3.982   1.214
  695SOL    MW4 2812   3.595   4.023   1.250
  696SOL     OW 2813   3.546   4.267   1.102
  696SOL    HW2 2814   3.563   4.189   1.154
  696SOL    HW3 2815   3.514   4.235   1.018
  696SOL    MW4 2816   3.544   4.253   1.098
  697SOL     OW 2817   3.788   4.346   1.199
  697SOL    HW2 2818   3.773   4.355   1.293
  697SOL    HW3 2819   3.702   4.320   1.163
  697SOL    MW4 2820   3.774   4.344   1.206
  698SOL     OW 2821   4.224   4.618   1.095
  698SOL    HW2 2822   4.250   4.533   1.129
  698SOL    HW3 2823   4.177   4.660   1.168
  698SOL    MW4 2824   4.221   4.612   1.109
  699SOL     OW 2825   4.017   0.059   1.246
  699SOL    HW2 2826   3.991   0.068   1.337
  699SOL    HW3 2827   3.941   0.020   1.203
  699SOL    MW4 2828   4.004   0.055   1.252
  700SOL     OW 2829   3.977   0.322   1.140
  700SOL    HW2 2830   3.992   0.238   1.184
  700SOL    HW3 2831   3.931   0.299   1.059
  700SOL    MW4 2832   3.973   0.308   1.135
  701SOL     OW 2833   4.215   0.472   1.189
  701SOL    HW2 2834   4.221   0.472   1.285
  701SOL    HW3 2835   4.141   0.414   1.170
  701SOL    MW4 2836   4.206   0.464   1.199
  702SOL     OW 2837   4.235   0.733   1.105
  702SOL    HW2 2838   4.236   0.640   1.127
  702SOL    HW3 2839   4.215   0.735   1.011
  702SOL    MW4 2840   4.232   0.721   1.096
  703SOL     OW 2841   4.008   0.881   1.223
  703SOL    HW2 2842   4.010   0.865   1.317
  703SOL    HW3 2843   4.089   0.842   1.190
  703SOL    MW4 2844   4.019   0.874   1.231
  704SOL     OW 2845   4.028   1.167   1.110
  704SOL    HW2 2846   4.011   1.079   1.142
  704SOL    HW3 2847   3.955   1.220   1.143
  704SOL    MW4 2848   4.016   1.163   1.119
  705SOL     OW 2849   4.285   1.260   1.218
  705SOL    HW2 2850   4.287   1.245   1.313
  705SOL    HW3 2851   4.201   1.223   1.190
  705SOL    MW4 2852   4.274   1.253   1.227
  706SOL     OW 2853   4.252   1.523   1.087
  706SOL    HW2 2854   4.244   1.432   1.115
  706SOL    HW3 2855   4.338   1.550   1.120
  706SOL    MW4 2856   4.262   1.515   1.095
  707SOL     OW 2857   4.041   1.646   1.214
  707SOL    HW2 2858   4.069   1.664   1.304
  707SOL    HW3 2859   4.111   1.591   1.177
  707SOL    MW4 2860   4.054   1.641   1.221
  708SOL     OW 2861   4.038   1.905   1.083
  708SOL    HW2 2862   4.037   1.814   1.114
  708SOL    HW3 2863   4.009   1.899   0.992
  708SOL    MW4 2864   4.034   1.892   1.075
  709SOL     OW 2865   4.257   2.020   1.196
  709SOL    HW2 2866   4.236   2.113   1.186
  709SOL    HW3 2867   4.178   1.974   1.168
  709SOL    MW4 2868   4.244   2.026   1.191
  710SOL     OW 2869   4.235   2.295   1.132
  710SOL    HW2 2870   4.159   2.352   1.149
  710SOL    HW3 2871   4.233   2.282   1.037
  710SOL    MW4 2872   4.224   2.301   1.121
  711SOL     OW 2873   4.012   2.471   1.172
  711SOL    HW2 2874   4.024   2.482   1.266
  711SOL    HW3 2875   4.037   2.555   1.134
  711SOL    MW4 2876   4.017   2.483   1.179
  712SOL     OW 2877   4.071   2.727   1.074
  712SOL    HW2 2878   3.995   2.755   1.127
  712SOL    HW3 2879   4.042   2.737   0.984
  712SOL    MW4 2880   4.057   2.732   1.069
  713SOL     OW 2881   4.296   2.845   1.214
  713SOL    HW2 2882   4.291   2.940   1.204
  713SOL    HW3 2883   4.225   2.811   1.161
  713SOL    MW4 2884   4.286   2.853   1.206
  714SOL     OW 2885   4.259   3.109   1.203
  714SOL    HW2 2886   4.175   3.139   1.237
  714SOL    HW3 2887   4.250   3.113   1.108
  714SOL    MW4 2888   4.247   3.113   1.195
  715SOL     OW 2889   4.024   3.232   1.285
  715SOL    HW2 2890   4.028   3.210   1.378
  715SOL    HW3 2891   3.953   3.178   1.251
  715SOL    MW4 2892   4.015   3.222   1.293
  716SOL     OW 2893   4.059   3.462   1.133
  716SOL    HW2 2894   4.034   3.375   1.163
  716SOL    HW3 2895   3.992   3.520   1.169
  716SOL    MW4 2896   4.047   3.458   1.141
  717SOL     OW 2897   4.267   3.617   1.229
  717SOL    HW2 2898   4.208   3.553   1.188
  717SOL    HW3 2899   4.354   3.589   1.202
  717SOL    MW4 2900   4.271   3.605   1.220
  718SOL     OW 2901   4.253   3.882   1.112
  718SOL    HW2 2902   4.179   3.937   1.141
  718SOL    HW3 2903   4.244   3.802   1.163
  718SOL    MW4 2904   4.242   3.879   1.123
  719SOL     OW 2905   4.051   4.024   1.226
  719SOL    HW2 2906   4.037   4.111   1.188
  719SOL    HW3 2907   3.975   3.974   1.195
  719SOL    MW4 2908   4.039   4.029   1.217
  720SOL     OW 2909   4.033   4.270   1.111
  720SOL    HW2 2910   3.946   4.298   1.139
  720SOL    HW3 2911   4.024   4.258   1.016
  720SOL    MW4 2912   4.020   4.272   1.102
  721SOL     OW 2913   4.259   4.375   1.217
  721SOL    HW2 2914   4.185   4.335   1.172
  721SOL    HW3 2915   4.336   4.334   1.177
  721SOL    MW4 2916   4.260   4.365   1.205
  722SOL     OW 2917   0.239   4.635   1.571
  722SOL    HW2 2918   0.294   4.694   1.519
  722SOL    HW3 2919   0.150   4.666   1.556
  722SOL    MW4 2920   0.234   4.647   1.562
  723SOL     OW 2921   4.487   0.074   1.436
  723SOL    HW2 2922   4.414   0.028   1.477
  723SOL    HW3 2923   4.462   0.081   1.344
  723SOL    MW4 2924   4.474   0.069   1.430
  724SOL     OW 2925   4.471   0.336   1.499
  724SOL    HW2 2926   4.477   0.334   1.595
  724SOL    HW3 2927   4.493   0.247   1.472
  724SOL    MW4 2928   4.475   0.324   1.508
  725SOL     OW 2929   0.207   0.478   1.440
  725SOL    HW2 2930   0.129   0.430   1.466
  725SOL    HW3 2931   0.206   0.475   1.344
  725SOL    MW4 2932   0.197   0.471   1.431
  726SOL     OW 2933   0.204   0.726   1.534
  726SOL    HW2 2934   0.281   0.772   1.499
  726SOL    HW3 2935   0.215   0.636   1.505
  726SOL    MW4 2936   0.216   0.720   1.526
  727SOL     OW 2937   4.462   0.846   1.468
  727SOL    HW2 2938   4.471   0.930   1.512
  727SOL    HW3 2939   4.546   0.802   1.481
  727SOL    MW4 2940   4.474   0.851   1.475
  728SOL     OW 2941   0.010   1.095   1.586
  728SOL    HW2 2942   0.020   1.115   1.679
  728SOL    HW3 2943   0.088   1.134   1.545
  728SOL    MW4 2944   0.022   1.103   1.593
  729SOL     OW 2945   0.223   1.216   1.445
  729SOL    HW2 2946   0.217   1.306   1.475
  729SOL    HW3 2947   0.219   1.221   1.350
  729SOL    MW4 2948   0.222   1.228   1.437
  730SOL     OW 2949   0.194   1.481   1.546
  730SOL    HW2 2950   0.198   1.509   1.638
  730SOL    HW3 2951   0.134   1.542   1.505
  730SOL    MW4 2952   0.187   1.493   1.553
  731SOL     OW 2953   0.010   1.649   1.443
  731SOL    HW2 2954   0.022   1.741   1.468
  731SOL    HW3 2955   0.003   1.652   1.347
  731SOL    MW4 2956   0.011   1.662   1.433
  732SOL     OW 2957   0.042   1.912   1.548
  732SOL    HW2 2958   0.048   1.898   1.642
  732SOL    HW3 2959  -0.049   1.940   1.533
  732SOL    MW4 2960   0.031   1.914   1.558
  733SOL     OW 2961   0.251   2.073   1.459
  733SOL    HW2 2962   0.184   2.022   1.504
  733SOL    HW3 2963   0.242   2.048   1.367
  733SOL    MW4 2964   0.241   2.063   1.453
  734SOL     OW 2965   0.237   2.303   1.587
  734SOL    HW2 2966   0.214   2.284   1.678
  734SOL    HW3 2967   0.243   2.216   1.546
  734SOL    MW4 2968   0.235   2.289   1.594
  735SOL     OW 2969   0.019   2.420   1.454
  735SOL    HW2 2970  -0.065   2.392   1.493
  735SOL    HW3 2971   0.086   2.384   1.513
  735SOL    MW4 2972   0.017   2.412   1.467
  736SOL     OW 2973   0.012   2.683   1.543
  736SOL    HW2 2974  -0.077   2.703   1.515
  736SOL    HW3 2975   0.027   2.593   1.514
  736SOL    MW4 2976   0.003   2.673   1.535
  737SOL     OW 2977   0.226   2.834   1.432
  737SOL    HW2 2978   0.296   2.784   1.473
  737SOL    HW3 2979   0.145   2.788   1.455
  737SOL    MW4 2980   0.224   2.822   1.440
  738SOL     OW 2981   0.229   3.060   1.581
  738SOL    HW2 2982   0.145   3.104   1.589
  738SOL    HW3 2983   0.213   2.988   1.521
  738SOL    MW4 2984   0.216   3.056   1.574
  739SOL     OW 2985   4.484   3.205   1.549
  739SOL    HW2 2986   4.504   3.289   1.591
  739SOL    HW3 2987   4.506   3.220   1.456
  739SOL    MW4 2988   4.490   3.218   1.542
  740SOL     OW 2989   0.010   3.471   1.628
  740SOL    HW2 2990   0.006   3.492   1.721
  740SOL    HW3 2991  -0.078   3.492   1.595
  740SOL    MW4 2992  -0.002   3.476   1.636
  741SOL     OW 2993   0.195   3.630   1.499
  741SOL    HW2 2994   0.186   3.717   1.537
  741SOL    HW3 2995   0.123   3.580   1.538
  741SOL    MW4 2996   0.184   3.635   1.509
  742SOL     OW 2997   0.208   3.923   1.562
  742SOL    HW2 2998   0.233   3.905   1.652
  742SOL    HW3 2999   0.287   3.960   1.522
  742SOL    MW4 3000   0.222   3.926   1.568
  743SOL     OW 3001   4.466   4.019   1.470
  743SOL    HW2 3002   4.464   4.107   1.507
  743SOL    HW3 3003   4.547   3.980   1.505
  743SOL    MW4 3004   4.477   4.026   1.479
  744SOL     OW 3005   4.485   4.281   1.576
  744SOL    HW2 3006   4.491   4.273   1.671
  744SOL    HW3 3007   4.398   4.317   1.560
  744SOL    MW4 3008   4.474   4.285   1.586
  745SOL     OW 3009   0.243   4.397   1.444
  745SOL    HW2 3010   0.166   4.354   1.480
  745SOL    HW3 3011   0.239   4.486   1.478
  745SOL    MW4 3012   0.232   4.403   1.453
  746SOL     OW 3013   0.668   4.620   1.553
  746SOL    HW2 3014   0.745   4.677   1.540
  746SOL    HW3 3015   0.597   4.665   1.508
  746SOL    MW4 3016   0.669   4.634   1.545
  747SOL     OW 3017   0.443   0.081   1.443
  747SOL    HW2 3018   0.453   0.165   1.488
  747SOL    HW3 3019   0.460   0.100   1.351
  747SOL    MW4 3020   0.447   0.094   1.437
  748SOL     OW 3021   0.431   0.346   1.555
  748SOL    HW2 3022   0.512   0.392   1.532
  748SOL    HW3 3023   0.362   0.395   1.512
  748SOL    MW4 3024   0.433   0.358   1.546
  749SOL     OW 3025   0.675   0.478   1.455
  749SOL    HW2 3026   0.662   0.570   1.475
  749SOL    HW3 3027   0.716   0.477   1.369
  749SOL    MW4 3028   0.678   0.490   1.446
  750SOL     OW 3029   0.676   0.745   1.545
  750SOL    HW2 3030   0.669   0.756   1.640
  750SOL    HW3 3031   0.758   0.788   1.522
  750SOL    MW4 3032   0.686   0.752   1.555
  751SOL     OW 3033   0.429   0.866   1.448
  751SOL    HW2 3034   0.438   0.954   1.486
  751SOL    HW3 3035   0.498   0.815   1.490
  751SOL    MW4 3036   0.439   0.871   1.458
  752SOL     OW 3037   0.451   1.147   1.557
  752SOL    HW2 3038   0.519   1.197   1.513
  752SOL    HW3 3039   0.370   1.169   1.510
  752SOL    MW4 3040   0.449   1.156   1.545
  753SOL     OW 3041   0.675   1.278   1.435
  753SOL    HW2 3042   0.716   1.361   1.460
  753SOL    HW3 3043   0.660   1.286   1.341
  753SOL    MW4 3044   0.678   1.290   1.426
  754SOL     OW 3045   0.692   1.543   1.567
  754SOL    HW2 3046   0.758   1.594   1.521
  754SOL    HW3 3047   0.609   1.567   1.526
  754SOL    MW4 3048   0.690   1.553   1.556
  755SOL     OW 3049   0.441   1.590   1.444
  755SOL    HW2 3050   0.418   1.671   1.489
  755SOL    HW3 3051   0.366   1.533   1.457
  755SOL    MW4 3052   0.428   1.593   1.452
  756SOL     OW 3053   0.438   1.868   1.527
  756SOL    HW2 3054   0.447   1.884   1.621
  756SOL    HW3 3055   0.385   1.941   1.495
  756SOL    MW4 3056   0.432   1.880   1.535
  757SOL     OW 3057   0.662   2.047   1.448
  757SOL    HW2 3058   0.750   2.023   1.477
  757SOL    HW3 3059   0.607   1.973   1.472
  757SOL    MW4 3060   0.666   2.034   1.455
  758SOL     OW 3061   0.663   2.307   1.541
  758SOL    HW2 3062   0.584   2.355   1.515
  758SOL    HW3 3063   0.653   2.221   1.501
  758SOL    MW4 3064   0.651   2.302   1.532
  759SOL     OW 3065   0.443   2.451   1.441
  759SOL    HW2 3066   0.434   2.542   1.470
  759SOL    HW3 3067   0.368   2.406   1.480
  759SOL    MW4 3068   0.432   2.457   1.450
  760SOL     OW 3069   0.418   2.696   1.565
  760SOL    HW2 3070   0.424   2.689   1.660
  760SOL    HW3 3071   0.500   2.737   1.538
  760SOL    MW4 3072   0.430   2.700   1.574
  761SOL     OW 3073   0.655   2.831   1.489
  761SOL    HW2 3074   0.666   2.922   1.515
  761SOL    HW3 3075   0.662   2.832   1.394
  761SOL    MW4 3076   0.658   2.843   1.480
  762SOL     OW 3077   0.673   3.089   1.558
  762SOL    HW2 3078   0.747   3.145   1.537
  762SOL    HW3 3079   0.596   3.140   1.530
  762SOL    MW4 3080   0.673   3.103   1.552
  763SOL     OW 3081   0.447   3.217   1.459
  763SOL    HW2 3082   0.365   3.174   1.483
  763SOL    HW3 3083   0.462   3.189   1.368
  763SOL    MW4 3084   0.438   3.207   1.450
  764SOL     OW 3085   0.403   3.461   1.596
  764SOL    HW2 3086   0.422   3.390   1.535
  764SOL    HW3 3087   0.341   3.517   1.549
  764SOL    MW4 3088   0.397   3.459   1.582
  765SOL     OW 3089   0.626   3.622   1.477
  765SOL    HW2 3090   0.703   3.576   1.510
  765SOL    HW3 3091   0.553   3.584   1.526
  765SOL    MW4 3092   0.626   3.611   1.488
  766SOL     OW 3093   0.639   3.889   1.588
  766SOL    HW2 3094   0.716   3.926   1.545
  766SOL    HW3 3095   0.634   3.799   1.553
  766SOL    MW4 3096   0.648   3.882   1.577
  767SOL     OW 3097   0.447   4.004   1.437
  767SOL    HW2 3098   0.527   3.964   1.471
  767SOL    HW3 3099   0.457   4.001   1.341
  767SOL    MW4 3100   0.459   3.998   1.429
  768SOL     OW 3101   0.437   4.266   1.595
  768SOL    HW2 3102   0.430   4.180   1.555
  768SOL    HW3 3103   0.372   4.320   1.549
  768SOL    MW4 3104   0.428   4.262   1.584
  769SOL     OW 3105   0.657   4.359   1.462
  769SOL    HW2 3106   0.581   4.319   1.503
  769SOL    HW3 3107   0.655   4.450   1.491
  769SOL    MW4 3108   0.647   4.366   1.471
  770SOL     OW 3109   1.141   4.632   1.576
  770SOL    HW2 3110   1.136   4.666   1.665
  770SOL    HW3 3111   1.210   4.683   1.534
  770SOL    MW4 3112   1.149   4.643   1.582
  771SOL     OW 3113   0.888   0.076   1.495
  771SOL    HW2 3114   0.901   0.161   1.537
  771SOL    HW3 3115   0.968   0.027   1.514
  771SOL    MW4 3116   0.900   0.081   1.503
  772SOL     OW 3117   0.880   0.352   1.581
  772SOL    HW2 3118   0.879   0.359   1.677
  772SOL    HW3 3119   0.814   0.415   1.551
  772SOL    MW4 3120   0.871   0.361   1.590
  773SOL     OW 3121   1.123   0.477   1.505
  773SOL    HW2 3122   1.113   0.569   1.530
  773SOL    HW3 3123   1.042   0.435   1.534
  773SOL    MW4 3124   1.111   0.484   1.512
  774SOL     OW 3125   1.111   0.758   1.548
  774SOL    HW2 3126   1.119   0.743   1.643
  774SOL    HW3 3127   1.192   0.803   1.524
  774SOL    MW4 3128   1.123   0.762   1.558
  775SOL     OW 3129   0.889   0.887   1.451
  775SOL    HW2 3130   0.966   0.845   1.488
  775SOL    HW3 3131   0.903   0.885   1.356
  775SOL    MW4 3132   0.901   0.881   1.443
  776SOL     OW 3133   0.940   1.146   1.525
  776SOL    HW2 3134   0.923   1.056   1.498
  776SOL    HW3 3135   0.854   1.188   1.526
  776SOL    MW4 3136   0.927   1.140   1.521
  777SOL     OW 3137   1.136   1.318   1.452
  777SOL    HW2 3138   1.219   1.283   1.486
  777SOL    HW3 3139   1.071   1.253   1.477
  777SOL    MW4 3140   1.139   1.305   1.460
  778SOL     OW 3141   1.110   1.586   1.544
  778SOL    HW2 3142   1.198   1.619   1.521
  778SOL    HW3 3143   1.111   1.495   1.515
  778SOL    MW4 3144   1.122   1.579   1.537
  779SOL     OW 3145   0.876   1.671   1.421
  779SOL    HW2 3146   0.964   1.657   1.457
  779SOL    HW3 3147   0.885   1.657   1.327
  779SOL    MW4 3148   0.889   1.667   1.414
  780SOL     OW 3149   0.889   1.920   1.573
  780SOL    HW2 3150   0.969   1.958   1.537
  780SOL    HW3 3151   0.884   1.833   1.533
  780SOL    MW4 3152   0.899   1.914   1.563
  781SOL     OW 3153   1.152   2.052   1.459
  781SOL    HW2 3154   1.227   2.011   1.501
  781SOL    HW3 3155   1.141   2.135   1.505
  781SOL    MW4 3156   1.160   2.058   1.471
  782SOL     OW 3157   1.113   2.308   1.569
  782SOL    HW2 3158   1.183   2.366   1.540
  782SOL    HW3 3159   1.034   2.347   1.531
  782SOL    MW4 3160   1.111   2.321   1.560
  783SOL     OW 3161   0.888   2.431   1.487
  783SOL    HW2 3162   0.868   2.520   1.517
  783SOL    HW3 3163   0.812   2.380   1.514
  783SOL    MW4 3164   0.875   2.436   1.494
  784SOL     OW 3165   0.890   2.728   1.571
  784SOL    HW2 3166   0.883   2.739   1.665
  784SOL    HW3 3167   0.809   2.765   1.536
  784SOL    MW4 3168   0.879   2.735   1.579
  785SOL     OW 3169   1.074   2.893   1.424
  785SOL    HW2 3170   1.066   2.981   1.459
  785SOL    HW3 3171   1.007   2.842   1.470
  785SOL    MW4 3172   1.064   2.898   1.434
  786SOL     OW 3173   1.114   3.129   1.554
  786SOL    HW2 3174   1.122   3.128   1.650
  786SOL    HW3 3175   1.198   3.162   1.523
  786SOL    MW4 3176   1.126   3.133   1.563
  787SOL     OW 3177   0.886   3.241   1.475
  787SOL    HW2 3178   0.973   3.212   1.503
  787SOL    HW3 3179   0.885   3.227   1.380
  787SOL    MW4 3180   0.898   3.236   1.466
  788SOL     OW 3181   0.856   3.490   1.542
  788SOL    HW2 3182   0.944   3.524   1.527
  788SOL    HW3 3183   0.859   3.400   1.509
  788SOL    MW4 3184   0.868   3.483   1.536
  789SOL     OW 3185   1.124   3.583   1.507
  789SOL    HW2 3186   1.207   3.561   1.549
  789SOL    HW3 3187   1.146   3.593   1.414
  789SOL    MW4 3188   1.138   3.581   1.500
  790SOL     OW 3189   1.089   3.858   1.564
  790SOL    HW2 3190   1.172   3.885   1.526
  790SOL    HW3 3191   1.082   3.765   1.545
  790SOL    MW4 3192   1.099   3.849   1.556
  791SOL     OW 3193   0.870   4.016   1.479
  791SOL    HW2 3194   0.881   4.097   1.528
  791SOL    HW3 3195   0.947   3.964   1.501
  791SOL    MW4 3196   0.881   4.020   1.488
  792SOL     OW 3197   0.889   4.269   1.592
  792SOL    HW2 3198   0.893   4.300   1.683
  792SOL    HW3 3199   0.802   4.295   1.562
  792SOL    MW4 3200   0.878   4.276   1.600
  793SOL     OW 3201   1.109   4.355   1.453
  793SOL    HW2 3202   1.023   4.329   1.488
  793SOL    HW3 3203   1.121   4.445   1.484
  793SOL    MW4 3204   1.099   4.364   1.461
  794SOL     OW 3205   1.563   4.629   1.556
  794SOL    HW2 3206   1.550   4.627   1.650
  794SOL    HW3 3207   1.489   4.680   1.522
  794SOL    MW4 3208   1.551   4.635   1.564
  795SOL     OW 3209   1.357   0.084   1.436
  795SOL    HW2 3210   1.383   0.171   1.467
  795SOL    HW3 3211   1.351   0.093   1.341
  795SOL    MW4 3212   1.359   0.097   1.428
  796SOL     OW 3213   1.362   0.331   1.544
  796SOL    HW2 3214   1.435   0.391   1.532
  796SOL    HW3 3215   1.284   0.383   1.524
  796SOL    MW4 3216   1.361   0.346   1.540
  797SOL     OW 3217   1.571   0.505   1.484
  797SOL    HW2 3218   1.653   0.463   1.509
  797SOL    HW3 3219   1.566   0.492   1.389
  797SOL    MW4 3220   1.581   0.497   1.474
  798SOL     OW 3221   1.555   0.763   1.547
  798SOL    HW2 3222   1.562   0.774   1.642
  798SOL    HW3 3223   1.565   0.669   1.533
  798SOL    MW4 3224   1.557   0.752   1.558
  799SOL     OW 3225   1.334   0.920   1.484
  799SOL    HW2 3226   1.411   0.867   1.506
  799SOL    HW3 3227   1.336   0.925   1.388
  799SOL    MW4 3228   1.345   0.913   1.474
  800SOL     OW 3229   1.368   1.175   1.561
  800SOL    HW2 3230   1.359   1.175   1.656
  800SOL    HW3 3231   1.364   1.082   1.538
  800SOL    MW4 3232   1.366   1.162   1.571
  801SOL     OW 3233   1.612   1.295   1.490
  801SOL    HW2 3234   1.531   1.247   1.507
  801SOL    HW3 3235   1.607   1.318   1.397
  801SOL    MW4 3236   1.601   1.292   1.480
  802SOL     OW 3237   1.598   1.554   1.592
  802SOL    HW2 3238   1.582   1.564   1.686
  802SOL    HW3 3239   1.622   1.461   1.581
  802SOL    MW4 3240   1.599   1.543   1.603
  803SOL     OW 3241   1.368   1.649   1.495
  803SOL    HW2 3242   1.447   1.622   1.542
  803SOL    HW3 3243   1.398   1.663   1.405
  803SOL    MW4 3244   1.382   1.647   1.489
  804SOL     OW 3245   1.360   1.899   1.587
  804SOL    HW2 3246   1.345   1.907   1.681
  804SOL    HW3 3247   1.351   1.806   1.569
  804SOL    MW4 3248   1.357   1.888   1.597
  805SOL     OW 3249   1.551   2.088   1.467
  805SOL    HW2 3250   1.493   2.019   1.498
  805SOL    HW3 3251   1.553   2.077   1.372
  805SOL    MW4 3252   1.544   2.078   1.459
  806SOL     OW 3253   1.558   2.360   1.569
  806SOL    HW2 3254   1.626   2.396   1.512
  806SOL    HW3 3255   1.549   2.269   1.541
  806SOL    MW4 3256   1.566   2.352   1.558
  807SOL     OW 3257   1.328   2.478   1.465
  807SOL    HW2 3258   1.319   2.573   1.480
  807SOL    HW3 3259   1.399   2.452   1.523
  807SOL    MW4 3260   1.336   2.487   1.475
  808SOL     OW 3261   1.308   2.751   1.527
  808SOL    HW2 3262   1.385   2.803   1.501
  808SOL    HW3 3263   1.234   2.796   1.486
  808SOL    MW4 3264   1.309   2.764   1.518
  809SOL     OW 3265   1.550   2.874   1.437
  809SOL    HW2 3266   1.611   2.810   1.474
  809SOL    HW3 3267   1.542   2.850   1.345
  809SOL    MW4 3268   1.557   2.863   1.430
  810SOL     OW 3269   1.582   3.117   1.566
  810SOL    HW2 3270   1.661   3.164   1.538
  810SOL    HW3 3271   1.582   3.037   1.513
  810SOL    MW4 3272   1.593   3.112   1.555
  811SOL     OW 3273   1.353   3.248   1.479
  811SOL    HW2 3274   1.338   3.324   1.534
  811SOL    HW3 3275   1.431   3.206   1.516
  811SOL    MW4 3276   1.361   3.252   1.491
  812SOL     OW 3277   1.349   3.506   1.631
  812SOL    HW2 3278   1.349   3.492   1.725
  812SOL    HW3 3279   1.437   3.539   1.611
  812SOL    MW4 3280   1.361   3.509   1.641
  813SOL     OW 3281   1.591   3.619   1.518
  813SOL    HW2 3282   1.585   3.704   1.561
  813SOL    HW3 3283   1.581   3.639   1.425
  813SOL    MW4 3284   1.589   3.633   1.511
  814SOL     OW 3285   1.583   3.870   1.613
  814SOL    HW2 3286   1.564   3.888   1.705
  814SOL    HW3 3287   1.504   3.898   1.567
  814SOL    MW4 3288   1.570   3.876   1.619
  815SOL     OW 3289   1.357   3.967   1.466
  815SOL    HW2 3290   1.359   4.056   1.501
  815SOL    HW3 3291   1.376   3.977   1.373
  815SOL    MW4 3292   1.360   3.980   1.458
  816SOL     OW 3293   1.322   4.207   1.583
  816SOL    HW2 3294   1.391   4.265   1.549
  816SOL    HW3 3295   1.244   4.232   1.534
  816SOL    MW4 3296   1.321   4.218   1.572
  817SOL     OW 3297   1.537   4.361   1.504
  817SOL    HW2 3298   1.622   4.319   1.515
  817SOL    HW3 3299   1.552   4.452   1.529
  817SOL    MW4 3300   1.550   4.368   1.509
  818SOL     OW 3301   2.047   0.022   1.585
  818SOL    HW2 3302   2.047  -0.001   1.678
  818SOL    HW3 3303   1.969   0.077   1.574
  818SOL    MW4 3304   2.037   0.026   1.596
  819SOL     OW 3305   1.784   0.114   1.457
  819SOL    HW2 3306   1.705   0.069   1.487
  819SOL    HW3 3307   1.784   0.101   1.362
  819SOL    MW4 3308   1.774   0.107   1.448
  820SOL     OW 3309   1.801   0.368   1.567
  820SOL    HW2 3310   1.858   0.422   1.512
  820SOL    HW3 3311   1.794   0.285   1.521
  820SOL    MW4 3312   1.807   0.364   1.554
  821SOL     OW 3313   1.994   0.554   1.436
  821SOL    HW2 3314   2.080   0.517   1.453
  821SOL    HW3 3315   1.990   0.632   1.491
  821SOL    MW4 3316   2.005   0.560   1.445
  822SOL     OW 3317   2.026   0.797   1.564
  822SOL    HW2 3318   2.100   0.846   1.528
  822SOL    HW3 3319   1.949   0.835   1.522
  822SOL    MW4 3320   2.026   0.808   1.554
  823SOL     OW 3321   1.755   0.923   1.461
  823SOL    HW2 3322   1.759   0.997   1.521
  823SOL    HW3 3323   1.678   0.873   1.490
  823SOL    MW4 3324   1.745   0.926   1.473
  824SOL     OW 3325   1.819   1.151   1.605
  824SOL    HW2 3326   1.895   1.182   1.555
  824SOL    HW3 3327   1.745   1.198   1.567
  824SOL    MW4 3328   1.819   1.162   1.593
  825SOL     OW 3329   2.011   1.294   1.452
  825SOL    HW2 3330   2.014   1.381   1.490
  825SOL    HW3 3331   1.989   1.308   1.360
  825SOL    MW4 3332   2.008   1.307   1.445
  826SOL     OW 3333   2.022   1.566   1.545
  826SOL    HW2 3334   2.099   1.613   1.515
  826SOL    HW3 3335   1.948   1.618   1.513
  826SOL    MW4 3336   2.022   1.579   1.537
  827SOL     OW 3337   1.789   1.725   1.495
  827SOL    HW2 3338   1.724   1.667   1.535
  827SOL    HW3 3339   1.779   1.711   1.401
  827SOL    MW4 3340   1.779   1.715   1.488
  828SOL     OW 3341   1.794   2.011   1.541
  828SOL    HW2 3342   1.794   1.916   1.542
  828SOL    HW3 3343   1.707   2.035   1.508
  828SOL    MW4 3344   1.782   2.002   1.536
  829SOL     OW 3345   2.064   2.055   1.382
  829SOL    HW2 3346   2.132   2.022   1.440
  829SOL    HW3 3347   1.983   2.047   1.432
  829SOL    MW4 3348   2.062   2.050   1.396
  830SOL     OW 3349   2.049   2.374   1.536
  830SOL    HW2 3350   2.047   2.356   1.631
  830SOL    HW3 3351   2.065   2.288   1.497
  830SOL    MW4 3352   2.051   2.360   1.544
  831SOL     OW 3353   1.797   2.464   1.443
  831SOL    HW2 3354   1.880   2.429   1.474
  831SOL    HW3 3355   1.806   2.468   1.347
  831SOL    MW4 3356   1.809   2.460   1.434
  832SOL     OW 3357   1.763   2.721   1.562
  832SOL    HW2 3358   1.852   2.757   1.561
  832SOL    HW3 3359   1.773   2.631   1.533
  832SOL    MW4 3360   1.776   2.714   1.558
  833SOL     OW 3361   2.021   2.839   1.529
  833SOL    HW2 3362   2.031   2.934   1.541
  833SOL    HW3 3363   2.023   2.826   1.434
  833SOL    MW4 3364   2.023   2.850   1.518
  834SOL     OW 3365   2.054   3.122   1.550
  834SOL    HW2 3366   2.043   3.123   1.645
  834SOL    HW3 3367   2.135   3.170   1.535
  834SOL    MW4 3368   2.063   3.129   1.561
  835SOL     OW 3369   1.813   3.237   1.502
  835SOL    HW2 3370   1.823   3.332   1.511
  835SOL    HW3 3371   1.902   3.203   1.511
  835SOL    MW4 3372   1.826   3.245   1.504
  836SOL     OW 3373   1.832   3.494   1.599
  836SOL    HW2 3374   1.825   3.471   1.692
  836SOL    HW3 3375   1.753   3.546   1.582
  836SOL    MW4 3376   1.821   3.498   1.609
  837SOL     OW 3377   2.032   3.621   1.472
  837SOL    HW2 3378   2.113   3.578   1.498
  837SOL    HW3 3379   1.963   3.574   1.519
  837SOL    MW4 3380   2.034   3.609   1.482
  838SOL     OW 3381   2.031   3.875   1.571
  838SOL    HW2 3382   2.108   3.926   1.548
  838SOL    HW3 3383   2.040   3.793   1.522
  838SOL    MW4 3384   2.042   3.871   1.561
  839SOL     OW 3385   1.798   4.005   1.484
  839SOL    HW2 3386   1.872   3.952   1.512
  839SOL    HW3 3387   1.723   3.969   1.532
  839SOL    MW4 3388   1.798   3.993   1.494
  840SOL     OW 3389   1.792   4.286   1.541
  840SOL    HW2 3390   1.873   4.330   1.515
  840SOL    HW3 3391   1.808   4.194   1.523
  840SOL    MW4 3392   1.805   4.280   1.535
  841SOL     OW 3393   2.019   4.429   1.486
  841SOL    HW2 3394   2.089   4.381   1.531
  841SOL    HW3 3395   2.025   4.518   1.522
  841SOL    MW4 3396   2.029   4.434   1.497
  842SOL     OW 3397   2.487   4.656   1.584
  842SOL    HW2 3398   2.473   4.636   1.677
  842SOL    HW3 3399   2.408   4.703   1.557
  842SOL    MW4 3400   2.475   4.659   1.593
  843SOL     OW 3401   2.268   0.119   1.476
  843SOL    HW2 3402   2.180   0.099   1.508
  843SOL    HW3 3403   2.260   0.116   1.381
  843SOL    MW4 3404   2.255   0.116   1.468
  844SOL     OW 3405   2.208   0.402   1.564
  844SOL    HW2 3406   2.205   0.398   1.659
  844SOL    HW3 3407   2.222   0.311   1.537
  844SOL    MW4 3408   2.210   0.390   1.573
  845SOL     OW 3409   2.431   0.556   1.445
  845SOL    HW2 3410   2.509   0.503   1.463
  845SOL    HW3 3411   2.360   0.508   1.489
  845SOL    MW4 3412   2.432   0.542   1.453
  846SOL     OW 3413   2.409   0.788   1.584
  846SOL    HW2 3414   2.344   0.828   1.526
  846SOL    HW3 3415   2.425   0.701   1.547
  846SOL    MW4 3416   2.403   0.782   1.572
  847SOL     OW 3417   2.234   0.913   1.428
  847SOL    HW2 3418   2.236   0.997   1.473
  847SOL    HW3 3419   2.203   0.934   1.340
  847SOL    MW4 3420   2.231   0.927   1.422
  848SOL     OW 3421   2.224   1.157   1.541
  848SOL    HW2 3422   2.228   1.159   1.637
  848SOL    HW3 3423   2.150   1.213   1.519
  848SOL    MW4 3424   2.215   1.165   1.551
  849SOL     OW 3425   2.472   1.268   1.427
  849SOL    HW2 3426   2.394   1.226   1.463
  849SOL    HW3 3427   2.456   1.271   1.333
  849SOL    MW4 3428   2.459   1.263   1.420
  850SOL     OW 3429   2.471   1.551   1.512
  850SOL    HW2 3430   2.559   1.589   1.505
  850SOL    HW3 3431   2.481   1.463   1.475
  850SOL    MW4 3432   2.484   1.544   1.506
  851SOL     OW 3433   2.242   1.706   1.443
  851SOL    HW2 3434   2.321   1.657   1.467
  851SOL    HW3 3435   2.250   1.718   1.349
  851SOL    MW4 3436   2.254   1.701   1.434
  852SOL     OW 3437   2.276   1.954   1.565
  852SOL    HW2 3438   2.270   1.944   1.660
  852SOL    HW3 3439   2.273   1.865   1.532
  852SOL    MW4 3440   2.275   1.941   1.573
  853SOL     OW 3441   2.491   2.088   1.462
  853SOL    HW2 3442   2.413   2.046   1.498
  853SOL    HW3 3443   2.478   2.086   1.367
  853SOL    MW4 3444   2.479   2.082   1.454
  854SOL     OW 3445   2.451   2.333   1.584
  854SOL    HW2 3446   2.454   2.319   1.679
  854SOL    HW3 3447   2.473   2.248   1.546
  854SOL    MW4 3448   2.454   2.320   1.592
  855SOL     OW 3449   2.267   2.499   1.460
  855SOL    HW2 3450   2.325   2.435   1.500
  855SOL    HW3 3451   2.181   2.480   1.497
  855SOL    MW4 3452   2.263   2.488   1.470
  856SOL     OW 3453   2.285   2.751   1.545
  856SOL    HW2 3454   2.294   2.663   1.509
  856SOL    HW3 3455   2.193   2.773   1.532
  856SOL    MW4 3456   2.274   2.742   1.538
  857SOL     OW 3457   2.492   2.914   1.428
  857SOL    HW2 3458   2.500   2.992   1.484
  857SOL    HW3 3459   2.424   2.862   1.470
  857SOL    MW4 3460   2.484   2.918   1.441
  858SOL     OW 3461   2.492   3.122   1.626
  858SOL    HW2 3462   2.563   3.174   1.587
  858SOL    HW3 3463   2.413   3.149   1.579
  858SOL    MW4 3464   2.491   3.133   1.615
  859SOL     OW 3465   2.283   3.251   1.483
  859SOL    HW2 3466   2.258   3.342   1.496
  859SOL    HW3 3467   2.279   3.238   1.389
  859SOL    MW4 3468   2.280   3.261   1.473
  860SOL     OW 3469   2.262   3.521   1.552
  860SOL    HW2 3470   2.258   3.496   1.644
  860SOL    HW3 3471   2.344   3.570   1.544
  860SOL    MW4 3472   2.272   3.524   1.563
  861SOL     OW 3473   2.506   3.640   1.498
  861SOL    HW2 3474   2.584   3.591   1.527
  861SOL    HW3 3475   2.503   3.716   1.556
  861SOL    MW4 3476   2.516   3.643   1.509
  862SOL     OW 3477   2.468   3.898   1.630
  862SOL    HW2 3478   2.490   3.884   1.722
  862SOL    HW3 3479   2.545   3.940   1.593
  862SOL    MW4 3480   2.481   3.902   1.638
  863SOL     OW 3481   2.242   4.024   1.479
  863SOL    HW2 3482   2.299   3.974   1.538
  863SOL    HW3 3483   2.276   4.005   1.392
  863SOL    MW4 3484   2.254   4.015   1.476
  864SOL     OW 3485   2.222   4.277   1.590
  864SOL    HW2 3486   2.295   4.323   1.549
  864SOL    HW3 3487   2.212   4.197   1.537
  864SOL    MW4 3488   2.230   4.273   1.577
  865SOL     OW 3489   2.455   4.390   1.484
  865SOL    HW2 3490   2.477   4.478   1.513
  865SOL    HW3 3491   2.470   4.391   1.389
  865SOL    MW4 3492   2.460   4.401   1.475
  866SOL     OW 3493   2.900   4.638   1.555
  866SOL    HW2 3494   2.878   4.653   1.647
  866SOL    HW3 3495   2.841   4.696   1.507
  866SOL    MW4 3496   2.889   4.648   1.561
  867SOL     OW 3497   2.682   0.131   1.460
  867SOL    HW2 3498   2.668   0.218   1.496
  867SOL    HW3 3499   2.611   0.078   1.496
  867SOL    MW4 3500   2.671   0.136   1.469
  868SOL     OW 3501   2.664   0.431   1.541
  868SOL    HW2 3502   2.671   0.410   1.634
  868SOL    HW3 3503   2.754   0.448   1.512
  868SOL    MW4 3504   2.677   0.431   1.549
  869SOL     OW 3505   2.914   0.509   1.440
  869SOL    HW2 3506   2.918   0.601   1.469
  869SOL    HW3 3507   2.918   0.514   1.345
  869SOL    MW4 3508   2.915   0.522   1.431
  870SOL     OW 3509   2.936   0.757   1.583
  870SOL    HW2 3510   2.938   0.764   1.678
  870SOL    HW3 3511   2.864   0.813   1.556
  870SOL    MW4 3512   2.927   0.765   1.592
  871SOL     OW 3513   2.655   0.900   1.471
  871SOL    HW2 3514   2.583   0.853   1.514
  871SOL    HW3 3515   2.645   0.881   1.378
  871SOL    MW4 3516   2.644   0.891   1.465
  872SOL     OW 3517   2.689   1.147   1.559
  872SOL    HW2 3518   2.666   1.059   1.529
  872SOL    HW3 3519   2.613   1.201   1.534
  872SOL    MW4 3520   2.676   1.142   1.551
  873SOL     OW 3521   2.913   1.296   1.471
  873SOL    HW2 3522   2.993   1.246   1.485
  873SOL    HW3 3523   2.844   1.242   1.510
  873SOL    MW4 3524   2.914   1.282   1.478
  874SOL     OW 3525   2.940   1.543   1.590
  874SOL    HW2 3526   2.866   1.593   1.556
  874SOL    HW3 3527   2.929   1.455   1.555
  874SOL    MW4 3528   2.929   1.538   1.581
  875SOL     OW 3529   2.723   1.684   1.470
  875SOL    HW2 3530   2.701   1.776   1.487
  875SOL    HW3 3531   2.718   1.676   1.375
  875SOL    MW4 3532   2.719   1.695   1.459
  876SOL     OW 3533   2.717   1.960   1.570
  876SOL    HW2 3534   2.712   1.927   1.659
  876SOL    HW3 3535   2.634   2.006   1.557
  876SOL    MW4 3536   2.705   1.962   1.580
  877SOL     OW 3537   2.937   2.089   1.438
  877SOL    HW2 3538   2.932   2.181   1.464
  877SOL    HW3 3539   2.865   2.047   1.485
  877SOL    MW4 3540   2.927   2.096   1.447
  878SOL     OW 3541   2.922   2.335   1.548
  878SOL    HW2 3542   2.930   2.308   1.640
  878SOL    HW3 3543   2.837   2.379   1.543
  878SOL    MW4 3544   2.912   2.337   1.560
  879SOL     OW 3545   2.675   2.458   1.475
  879SOL    HW2 3546   2.669   2.553   1.486
  879SOL    HW3 3547   2.604   2.423   1.529
  879SOL    MW4 3548   2.665   2.466   1.484
  880SOL     OW 3549   2.684   2.741   1.544
  880SOL    HW2 3550   2.775   2.767   1.535
  880SOL    HW3 3551   2.634   2.811   1.502
  880SOL    MW4 3552   2.689   2.754   1.538
  881SOL     OW 3553   2.934   2.824   1.491
  881SOL    HW2 3554   3.012   2.791   1.536
  881SOL    HW3 3555   2.927   2.915   1.519
  881SOL    MW4 3556   2.943   2.832   1.501
  882SOL     OW 3557   2.938   3.098   1.579
  882SOL    HW2 3558   2.937   3.110   1.674
  882SOL    HW3 3559   3.014   3.149   1.549
  882SOL    MW4 3560   2.948   3.107   1.587
  883SOL     OW 3561   2.712   3.246   1.513
  883SOL    HW2 3562   2.794   3.199   1.524
  883SOL    HW3 3563   2.710   3.272   1.421
  883SOL    MW4 3564   2.722   3.243   1.503
  884SOL     OW 3565   2.741   3.497   1.596
  884SOL    HW2 3566   2.746   3.499   1.692
  884SOL    HW3 3567   2.735   3.404   1.574
  884SOL    MW4 3568   2.741   3.485   1.606
  885SOL     OW 3569   2.966   3.626   1.503
  885SOL    HW2 3570   2.889   3.575   1.526
  885SOL    HW3 3571   2.964   3.632   1.407
  885SOL    MW4 3572   2.956   3.620   1.493
  886SOL     OW 3573   2.909   3.875   1.604
  886SOL    HW2 3574   2.826   3.913   1.573
  886SOL    HW3 3575   2.914   3.790   1.560
  886SOL    MW4 3576   2.898   3.869   1.594
  887SOL     OW 3577   2.676   4.003   1.503
  887SOL    HW2 3578   2.684   4.093   1.536
  887SOL    HW3 3579   2.690   4.010   1.409
  887SOL    MW4 3580   2.679   4.016   1.495
  888SOL     OW 3581   2.680   4.265   1.596
  888SOL    HW2 3582   2.758   4.306   1.559
  888SOL    HW3 3583   2.606   4.314   1.558
  888SOL    MW4 3584   2.680   4.277   1.586
  889SOL     OW 3585   2.917   4.381   1.493
  889SOL    HW2 3586   2.903   4.473   1.514
  889SOL    HW3 3587   2.931   4.381   1.398
  889SOL    MW4 3588   2.917   4.393   1.483
  890SOL     OW 3589   3.355   4.656   1.596
  890SOL    HW2 3590   3.427   4.706   1.556
  890SOL    HW3 3591   3.369   4.566   1.567
  890SOL    MW4 3592   3.366   4.651   1.587
  891SOL     OW 3593   3.147   0.111   1.459
  891SOL    HW2 3594   3.218   0.078   1.514
  891SOL    HW3 3595   3.072   0.057   1.483
  891SOL    MW4 3596   3.146   0.099   1.469
  892SOL     OW 3597   3.139   0.366   1.554
  892SOL    HW2 3598   3.142   0.277   1.520
  892SOL    HW3 3599   3.055   0.401   1.523
  892SOL    MW4 3600   3.128   0.359   1.545
  893SOL     OW 3601   3.350   0.515   1.429
  893SOL    HW2 3602   3.278   0.467   1.469
  893SOL    HW3 3603   3.332   0.512   1.335
  893SOL    MW4 3604   3.338   0.508   1.422
  894SOL     OW 3605   3.361   0.767   1.569
  894SOL    HW2 3606   3.358   0.767   1.665
  894SOL    HW3 3607   3.372   0.675   1.545
  894SOL    MW4 3608   3.362   0.755   1.579
  895SOL     OW 3609   3.154   0.886   1.449
  895SOL    HW2 3610   3.214   0.847   1.512
  895SOL    HW3 3611   3.067   0.868   1.485
  895SOL    MW4 3612   3.150   0.879   1.462
  896SOL     OW 3613   3.162   1.159   1.537
  896SOL    HW2 3614   3.178   1.171   1.631
  896SOL    HW3 3615   3.154   1.064   1.526
  896SOL    MW4 3616   3.163   1.148   1.548
  897SOL     OW 3617   3.376   1.306   1.440
  897SOL    HW2 3618   3.442   1.257   1.489
  897SOL    HW3 3619   3.293   1.265   1.466
  897SOL    MW4 3620   3.373   1.294   1.450
  898SOL     OW 3621   3.409   1.554   1.563
  898SOL    HW2 3622   3.391   1.542   1.656
  898SOL    HW3 3623   3.405   1.466   1.525
  898SOL    MW4 3624   3.406   1.541   1.570
  899SOL     OW 3625   3.167   1.642   1.452
  899SOL    HW2 3626   3.250   1.606   1.482
  899SOL    HW3 3627   3.101   1.597   1.505
  899SOL    MW4 3628   3.169   1.631   1.463
  900SOL     OW 3629   3.137   1.906   1.552
  900SOL    HW2 3630   3.138   1.825   1.502
  900SOL    HW3 3631   3.083   1.966   1.501
  900SOL    MW4 3632   3.130   1.903   1.539
  901SOL     OW 3633   3.381   2.023   1.485
  901SOL    HW2 3634   3.296   1.980   1.497
  901SOL    HW3 3635   3.388   2.036   1.390
  901SOL    MW4 3636   3.371   2.019   1.474
  902SOL     OW 3637   3.371   2.280   1.599
  902SOL    HW2 3638   3.454   2.315   1.567
  902SOL    HW3 3639   3.383   2.185   1.597
  902SOL    MW4 3640   3.384   2.272   1.595
  903SOL     OW 3641   3.183   2.439   1.474
  903SOL    HW2 3642   3.250   2.379   1.505
  903SOL    HW3 3643   3.100   2.393   1.488
  903SOL    MW4 3644   3.181   2.425   1.480
  904SOL     OW 3645   3.162   2.696   1.598
  904SOL    HW2 3646   3.236   2.741   1.559
  904SOL    HW3 3647   3.169   2.606   1.569
  904SOL    MW4 3648   3.173   2.690   1.589
  905SOL     OW 3649   3.380   2.823   1.496
  905SOL    HW2 3650   3.395   2.912   1.527
  905SOL    HW3 3651   3.399   2.826   1.402
  905SOL    MW4 3652   3.384   2.835   1.488
  906SOL     OW 3653   3.399   3.076   1.584
  906SOL    HW2 3654   3.392   3.087   1.679
  906SOL    HW3 3655   3.472   3.131   1.558
  906SOL    MW4 3656   3.408   3.084   1.593
  907SOL     OW 3657   3.194   3.237   1.470
  907SOL    HW2 3658   3.267   3.178   1.490
  907SOL    HW3 3659   3.203   3.254   1.376
  907SOL    MW4 3660   3.205   3.231   1.460
  908SOL     OW 3661   3.199   3.504   1.602
  908SOL    HW2 3662   3.194   3.422   1.553
  908SOL    HW3 3663   3.124   3.555   1.572
  908SOL    MW4 3664   3.188   3.500   1.592
  909SOL     OW 3665   3.390   3.671   1.474
  909SOL    HW2 3666   3.474   3.628   1.494
  909SOL    HW3 3667   3.326   3.622   1.525
  909SOL    MW4 3668   3.393   3.659   1.483
  910SOL     OW 3669   3.375   3.887   1.637
  910SOL    HW2 3670   3.301   3.939   1.605
  910SOL    HW3 3671   3.372   3.807   1.584
  910SOL    MW4 3672   3.365   3.883   1.626
  911SOL     OW 3673   3.153   4.001   1.539
  911SOL    HW2 3674   3.152   4.090   1.574
  911SOL    HW3 3675   3.072   3.961   1.573
  911SOL    MW4 3676   3.142   4.008   1.548
  912SOL     OW 3677   3.143   4.271   1.606
  912SOL    HW2 3678   3.150   4.272   1.702
  912SOL    HW3 3679   3.058   4.310   1.588
  912SOL    MW4 3680   3.133   4.276   1.617
  913SOL     OW 3681   3.378   4.399   1.521
  913SOL    HW2 3682   3.289   4.371   1.545
  913SOL    HW3 3683   3.378   4.400   1.426
  913SOL    MW4 3684   3.366   4.395   1.512
  914SOL     OW 3685   3.762   4.638   1.578
  914SOL    HW2 3686   3.753   4.657   1.671
  914SOL    HW3 3687   3.848   4.674   1.554
  914SOL    MW4 3688   3.772   4.645   1.587
  915SOL     OW 3689   3.552   0.145   1.471
  915SOL    HW2 3690   3.612   0.073   1.489
  915SOL    HW3 3691   3.556   0.157   1.376
  915SOL    MW4 3692   3.560   0.137   1.461
  916SOL     OW 3693   3.579   0.406   1.564
  916SOL    HW2 3694   3.577   0.310   1.556
  916SOL    HW3 3695   3.496   0.434   1.524
  916SOL    MW4 3696   3.567   0.397   1.557
  917SOL     OW 3697   3.829   0.524   1.499
  917SOL    HW2 3698   3.755   0.476   1.536
  917SOL    HW3 3699   3.816   0.519   1.404
  917SOL    MW4 3700   3.818   0.517   1.491
  918SOL     OW 3701   3.785   0.774   1.565
  918SOL    HW2 3702   3.711   0.813   1.518
  918SOL    HW3 3703   3.795   0.688   1.525
  918SOL    MW4 3704   3.776   0.768   1.553
  919SOL     OW 3705   3.572   0.909   1.449
  919SOL    HW2 3706   3.494   0.865   1.483
  919SOL    HW3 3707   3.563   0.904   1.354
  919SOL    MW4 3708   3.561   0.902   1.441
  920SOL     OW 3709   3.583   1.154   1.564
  920SOL    HW2 3710   3.667   1.193   1.539
  920SOL    HW3 3711   3.584   1.067   1.524
  920SOL    MW4 3712   3.594   1.147   1.555
  921SOL     OW 3713   3.832   1.263   1.474
  921SOL    HW2 3714   3.904   1.216   1.515
  921SOL    HW3 3715   3.850   1.355   1.492
  921SOL    MW4 3716   3.844   1.269   1.482
  922SOL     OW 3717   3.882   1.522   1.557
  922SOL    HW2 3718   3.868   1.524   1.652
  922SOL    HW3 3719   3.813   1.577   1.521
  922SOL    MW4 3720   3.871   1.529   1.565
  923SOL     OW 3721   3.655   1.670   1.480
  923SOL    HW2 3722   3.578   1.623   1.512
  923SOL    HW3 3723   3.635   1.688   1.388
  923SOL    MW4 3724   3.642   1.666   1.472
  924SOL     OW 3725   3.640   1.925   1.574
  924SOL    HW2 3726   3.643   1.834   1.545
  924SOL    HW3 3727   3.553   1.956   1.548
  924SOL    MW4 3728   3.629   1.917   1.567
  925SOL     OW 3729   3.849   2.059   1.464
  925SOL    HW2 3730   3.846   2.145   1.507
  925SOL    HW3 3731   3.783   2.007   1.511
  925SOL    MW4 3732   3.840   2.063   1.476
  926SOL     OW 3733   3.829   2.303   1.585
  926SOL    HW2 3734   3.846   2.293   1.678
  926SOL    HW3 3735   3.898   2.362   1.554
  926SOL    MW4 3736   3.840   2.310   1.593
  927SOL     OW 3737   3.589   2.400   1.476
  927SOL    HW2 3738   3.594   2.492   1.503
  927SOL    HW3 3739   3.672   2.362   1.506
  927SOL    MW4 3740   3.601   2.407   1.483
  928SOL     OW 3741   3.574   2.674   1.592
  928SOL    HW2 3742   3.560   2.661   1.686
  928SOL    HW3 3743   3.504   2.733   1.566
  928SOL    MW4 3744   3.563   2.680   1.601
  929SOL     OW 3745   3.814   2.811   1.524
  929SOL    HW2 3746   3.893   2.779   1.566
  929SOL    HW3 3747   3.743   2.761   1.565
  929SOL    MW4 3748   3.815   2.800   1.535
  930SOL     OW 3749   3.780   3.067   1.602
  930SOL    HW2 3750   3.860   3.113   1.576
  930SOL    HW3 3751   3.788   2.981   1.562
  930SOL    MW4 3752   3.791   3.062   1.593
  931SOL     OW 3753   3.610   3.250   1.507
  931SOL    HW2 3754   3.674   3.190   1.545
  931SOL    HW3 3755   3.615   3.233   1.413
  931SOL    MW4 3756   3.619   3.240   1.500
  932SOL     OW 3757   3.615   3.544   1.547
  932SOL    HW2 3758   3.706   3.571   1.537
  932SOL    HW3 3759   3.618   3.448   1.549
  932SOL    MW4 3760   3.628   3.535   1.546
  933SOL     OW 3761   3.865   3.649   1.481
  933SOL    HW2 3762   3.904   3.579   1.534
  933SOL    HW3 3763   3.857   3.723   1.541
  933SOL    MW4 3764   3.869   3.650   1.496
  934SOL     OW 3765   3.797   3.883   1.648
  934SOL    HW2 3766   3.873   3.936   1.626
  934SOL    HW3 3767   3.723   3.930   1.609
  934SOL    MW4 3768   3.797   3.896   1.640
  935SOL     OW 3769   3.593   4.008   1.518
  935SOL    HW2 3770   3.597   4.095   1.557
  935SOL    HW3 3771   3.509   3.972   1.546
  935SOL    MW4 3772   3.583   4.014   1.526
  936SOL     OW 3773   3.592   4.251   1.639
  936SOL    HW2 3774   3.586   4.253   1.734
  936SOL    HW3 3775   3.520   4.307   1.610
  936SOL    MW4 3776   3.581   4.259   1.648
  937SOL     OW 3777   3.791   4.364   1.492
  937SOL    HW2 3778   3.724   4.322   1.547
  937SOL    HW3 3779   3.789   4.456   1.519
  937SOL    MW4 3780   3.782   4.370   1.503
  938SOL     OW 3781   4.262   4.637   1.590
  938SOL    HW2 3782   4.266   4.631   1.685
  938SOL    HW3 3783   4.249   4.547   1.561
  938SOL    MW4 3784   4.261   4.625   1.598
  939SOL     OW 3785   4.012   0.079   1.527
  939SOL    HW2 3786   4.005   0.173   1.547
  939SOL    HW3 3787   4.104   0.058   1.541
  939SOL    MW4 3788   4.023   0.089   1.531
  940SOL     OW 3789   4.008   0.338   1.594
  940SOL    HW2 3790   4.007   0.367   1.685
  940SOL    HW3 3791   3.953   0.402   1.548
  940SOL    MW4 3792   4.001   0.351   1.600
  941SOL     OW 3793   4.224   0.464   1.467
  941SOL    HW2 3794   4.153   0.420   1.515
  941SOL    HW3 3795   4.302   0.413   1.488
  941SOL    MW4 3796   4.225   0.452   1.476
  942SOL     OW 3797   4.246   0.712   1.585
  942SOL    HW2 3798   4.240   0.621   1.555
  942SOL    HW3 3799   4.327   0.744   1.547
  942SOL    MW4 3800   4.256   0.704   1.576
  943SOL     OW 3801   4.034   0.864   1.485
  943SOL    HW2 3802   4.110   0.816   1.516
  943SOL    HW3 3803   3.959   0.809   1.508
  943SOL    MW4 3804   4.034   0.851   1.492
  944SOL     OW 3805   4.058   1.119   1.594
  944SOL    HW2 3806   4.064   1.129   1.689
  944SOL    HW3 3807   4.047   1.025   1.581
  944SOL    MW4 3808   4.057   1.108   1.605
  945SOL     OW 3809   4.297   1.269   1.526
  945SOL    HW2 3810   4.214   1.223   1.540
  945SOL    HW3 3811   4.363   1.212   1.566
  945SOL    MW4 3812   4.295   1.255   1.533
  946SOL     OW 3813   4.311   1.545   1.582
  946SOL    HW2 3814   4.304   1.450   1.574
  946SOL    HW3 3815   4.383   1.569   1.524
  946SOL    MW4 3816   4.319   1.535   1.573
  947SOL     OW 3817   4.095   1.699   1.505
  947SOL    HW2 3818   4.176   1.654   1.531
  947SOL    HW3 3819   4.025   1.640   1.534
  947SOL    MW4 3820   4.096   1.685   1.512
  948SOL     OW 3821   4.068   1.945   1.615
  948SOL    HW2 3822   4.082   1.854   1.589
  948SOL    HW3 3823   3.994   1.974   1.562
  948SOL    MW4 3824   4.060   1.937   1.604
  949SOL     OW 3825   4.275   2.049   1.483
  949SOL    HW2 3826   4.207   2.001   1.530
  949SOL    HW3 3827   4.267   2.019   1.393
  949SOL    MW4 3828   4.265   2.039   1.478
  950SOL     OW 3829   4.259   2.322   1.555
  950SOL    HW2 3830   4.249   2.326   1.650
  950SOL    HW3 3831   4.263   2.228   1.535
  950SOL    MW4 3832   4.258   2.310   1.565
  951SOL     OW 3833   4.032   2.441   1.449
  951SOL    HW2 3834   4.041   2.519   1.503
  951SOL    HW3 3835   4.111   2.391   1.465
  951SOL    MW4 3836   4.043   2.445   1.458
  952SOL     OW 3837   4.031   2.677   1.596
  952SOL    HW2 3838   4.020   2.691   1.690
  952SOL    HW3 3839   4.102   2.736   1.571
  952SOL    MW4 3840   4.038   2.687   1.605
  953SOL     OW 3841   4.247   2.822   1.507
  953SOL    HW2 3842   4.268   2.903   1.553
  953SOL    HW3 3843   4.240   2.848   1.415
  953SOL    MW4 3844   4.249   2.836   1.501
  954SOL     OW 3845   4.263   3.067   1.625
  954SOL    HW2 3846   4.259   3.080   1.720
  954SOL    HW3 3847   4.345   3.109   1.599
  954SOL    MW4 3848   4.274   3.074   1.634
  955SOL     OW 3849   4.022   3.175   1.542
  955SOL    HW2 3850   4.034   3.266   1.569
  955SOL    HW3 3851   4.099   3.130   1.576
  955SOL    MW4 3852   4.033   3.181   1.550
  956SOL     OW 3853   4.001   3.462   1.617
  956SOL    HW2 3854   4.029   3.459   1.708
  956SOL    HW3 3855   4.074   3.502   1.571
  956SOL    MW4 3856   4.014   3.467   1.623
  957SOL     OW 3857   4.249   3.593   1.507
  957SOL    HW2 3858   4.248   3.688   1.521
  957SOL    HW3 3859   4.256   3.582   1.412
  957SOL    MW4 3860   4.250   3.604   1.496
  958SOL     OW 3861   4.264   3.872   1.561
  958SOL    HW2 3862   4.177   3.911   1.549
  958SOL    HW3 3863   4.324   3.936   1.523
  958SOL    MW4 3864   4.261   3.886   1.555
  959SOL     OW 3865   4.011   4.004   1.513
  959SOL    HW2 3866   4.013   4.096   1.541
  959SOL    HW3 3867   4.017   4.008   1.418
  959SOL    MW4 3868   4.012   4.017   1.504
  960SOL     OW 3869   4.023   4.279   1.594
  960SOL    HW2 3870   4.021   4.289   1.689
  960SOL    HW3 3871   3.937   4.308   1.564
  960SOL    MW4 3872   4.012   4.284   1.603
  961SOL     OW 3873   4.245   4.387   1.484
  961SOL    HW2 3874   4.167   4.343   1.515
  961SOL    HW3 3875   4.236   4.387   1.389
  961SOL    MW4 3876   4.234   4.381   1.475
  962SOL     OW 3877   0.234   4.656   1.869
  962SOL    HW2 3878   0.309   4.703   1.906
  962SOL    HW3 3879   0.254   4.650   1.776
  962SOL    MW4 3880   0.247   4.662   1.862
  963SOL     OW 3881   4.490   0.119   1.922
  963SOL    HW2 3882   4.493   0.208   1.886
  963SOL    HW3 3883   4.579   0.086   1.914
  963SOL    MW4 3884   4.502   0.127   1.916
  964SOL     OW 3885   4.481   0.369   1.783
  964SOL    HW2 3886   4.408   0.405   1.833
  964SOL    HW3 3887   4.559   0.405   1.825
  964SOL    MW4 3888   4.482   0.379   1.795
  965SOL     OW 3889   0.180   0.487   1.975
  965SOL    HW2 3890   0.257   0.441   1.941
  965SOL    HW3 3891   0.174   0.566   1.920
  965SOL    MW4 3892   0.190   0.491   1.963
  966SOL     OW 3893   0.194   0.717   1.812
  966SOL    HW2 3894   0.267   0.768   1.847
  966SOL    HW3 3895   0.199   0.729   1.717
  966SOL    MW4 3896   0.204   0.725   1.804
  967SOL     OW 3897   4.473   0.874   1.925
  967SOL    HW2 3898   4.393   0.826   1.906
  967SOL    HW3 3899   4.543   0.822   1.886
  967SOL    MW4 3900   4.472   0.861   1.918
  968SOL     OW 3901   0.002   1.141   1.856
  968SOL    HW2 3902  -0.071   1.192   1.892
  968SOL    HW3 3903  -0.016   1.051   1.884
  968SOL    MW4 3904  -0.010   1.136   1.865
  969SOL     OW 3905   0.228   1.288   1.948
  969SOL    HW2 3906   0.215   1.365   1.892
  969SOL    HW3 3907   0.146   1.240   1.941
  969SOL    MW4 3908   0.215   1.292   1.940
  970SOL     OW 3909   0.247   1.529   1.802
  970SOL    HW2 3910   0.335   1.558   1.824
  970SOL    HW3 3911   0.189   1.578   1.861
  970SOL    MW4 3912   0.251   1.539   1.813
  971SOL     OW 3913   0.058   1.645   1.958
  971SOL    HW2 3914   0.066   1.648   2.053
  971SOL    HW3 3915  -0.033   1.618   1.942
  971SOL    MW4 3916   0.047   1.642   1.968
  972SOL     OW 3917   0.017   1.876   1.826
  972SOL    HW2 3918  -0.049   1.927   1.873
  972SOL    HW3 3919   0.018   1.791   1.869
  972SOL    MW4 3920   0.009   1.872   1.838
  973SOL     OW 3921   0.246   2.017   1.959
  973SOL    HW2 3922   0.241   2.111   1.943
  973SOL    HW3 3923   0.168   1.981   1.917
  973SOL    MW4 3924   0.235   2.025   1.952
  974SOL     OW 3925   0.201   2.268   1.865
  974SOL    HW2 3926   0.267   2.330   1.895
  974SOL    HW3 3927   0.118   2.304   1.896
  974SOL    MW4 3928   0.199   2.281   1.873
  975SOL     OW 3929   4.472   2.424   1.931
  975SOL    HW2 3930   4.472   2.447   2.024
  975SOL    HW3 3931   4.481   2.507   1.886
  975SOL    MW4 3932   4.473   2.438   1.937
  976SOL     OW 3933   4.482   2.682   1.817
  976SOL    HW2 3934   4.399   2.730   1.821
  976SOL    HW3 3935   4.501   2.676   1.724
  976SOL    MW4 3936   4.473   2.688   1.806
  977SOL     OW 3937   0.208   2.798   1.935
  977SOL    HW2 3938   0.212   2.894   1.927
  977SOL    HW3 3939   0.129   2.773   1.887
  977SOL    MW4 3940   0.198   2.808   1.927
  978SOL     OW 3941   0.224   3.064   1.859
  978SOL    HW2 3942   0.302   3.111   1.891
  978SOL    HW3 3943   0.243   3.048   1.766
  978SOL    MW4 3944   0.237   3.068   1.851
  979SOL     OW 3945   0.023   3.219   1.984
  979SOL    HW2 3946  -0.060   3.177   1.957
  979SOL    HW3 3947   0.091   3.166   1.943
  979SOL    MW4 3948   0.021   3.206   1.975
  980SOL     OW 3949   0.004   3.476   1.897
  980SOL    HW2 3950   0.077   3.531   1.926
  980SOL    HW3 3951   0.023   3.389   1.934
  980SOL    MW4 3952   0.016   3.471   1.906
  981SOL     OW 3953   0.218   3.647   1.965
  981SOL    HW2 3954   0.215   3.654   2.060
  981SOL    HW3 3955   0.287   3.582   1.948
  981SOL    MW4 3956   0.227   3.639   1.975
  982SOL     OW 3957   0.252   3.888   1.863
  982SOL    HW2 3958   0.318   3.923   1.922
  982SOL    HW3 3959   0.231   3.801   1.897
  982SOL    MW4 3960   0.258   3.881   1.875
  983SOL     OW 3961   4.490   3.984   1.912
  983SOL    HW2 3962   4.488   4.077   1.892
  983SOL    HW3 3963   4.580   3.956   1.892
  983SOL    MW4 3964   4.502   3.992   1.907
  984SOL     OW 3965   0.007   4.261   1.862
  984SOL    HW2 3966  -0.068   4.300   1.907
  984SOL    HW3 3967   0.083   4.306   1.898
  984SOL    MW4 3968   0.007   4.272   1.872
  985SOL     OW 3969   0.222   4.402   1.977
  985SOL    HW2 3970   0.226   4.429   2.068
  985SOL    HW3 3971   0.215   4.483   1.928
  985SOL    MW4 3972   0.221   4.416   1.982
  986SOL     OW 3973   0.682   0.018   1.810
  986SOL    HW2 3974   0.663  -0.062   1.859
  986SOL    HW3 3975   0.676  -0.008   1.718
  986SOL    MW4 3976   0.679   0.004   1.805
  987SOL     OW 3977   0.446   0.134   1.949
  987SOL    HW2 3978   0.435   0.219   1.907
  987SOL    HW3 3979   0.518   0.092   1.900
  987SOL    MW4 3980   0.454   0.139   1.937
  988SOL     OW 3981   0.408   0.383   1.829
  988SOL    HW2 3982   0.483   0.433   1.861
  988SOL    HW3 3983   0.413   0.389   1.733
  988SOL    MW4 3984   0.418   0.390   1.820
  989SOL     OW 3985   0.640   0.477   1.928
  989SOL    HW2 3986   0.639   0.484   2.023
  989SOL    HW3 3987   0.720   0.429   1.908
  989SOL    MW4 3988   0.650   0.471   1.937
  990SOL     OW 3989   0.638   0.725   1.821
  990SOL    HW2 3990   0.721   0.766   1.843
  990SOL    HW3 3991   0.644   0.637   1.859
  990SOL    MW4 3992   0.650   0.719   1.829
  991SOL     OW 3993   0.414   0.881   1.916
  991SOL    HW2 3994   0.420   0.974   1.894
  991SOL    HW3 3995   0.497   0.844   1.886
  991SOL    MW4 3996   0.426   0.889   1.909
  992SOL     OW 3997   0.420   1.141   1.833
  992SOL    HW2 3998   0.353   1.198   1.869
  992SOL    HW3 3999   0.424   1.164   1.740
  992SOL    MW4 4000   0.412   1.152   1.825
  993SOL     OW 4001   0.678   1.249   1.898
  993SOL    HW2 4002   0.682   1.261   1.993
  993SOL    HW3 4003   0.599   1.197   1.885
  993SOL    MW4 4004   0.668   1.243   1.909
  994SOL     OW 4005   0.706   1.525   1.855
  994SOL    HW2 4006   0.715   1.431   1.865
  994SOL    HW3 4007   0.692   1.539   1.762
  994SOL    MW4 4008   0.705   1.515   1.844
  995SOL     OW 4009   0.455   1.636   1.938
  995SOL    HW2 4010   0.444   1.639   2.033
  995SOL    HW3 4011   0.536   1.586   1.925
  995SOL    MW4 4012   0.464   1.630   1.949
  996SOL     OW 4013   0.480   1.903   1.838
  996SOL    HW2 4014   0.479   1.811   1.861
  996SOL    HW3 4015   0.398   1.938   1.873
  996SOL    MW4 4016   0.469   1.896   1.845
  997SOL     OW 4017   0.690   2.060   1.931
  997SOL    HW2 4018   0.682   2.077   2.025
  997SOL    HW3 4019   0.607   2.018   1.908
  997SOL    MW4 4020   0.678   2.057   1.940
  998SOL     OW 4021   0.657   2.319   1.821
  998SOL    HW2 4022   0.669   2.230   1.855
  998SOL    HW3 4023   0.664   2.310   1.726
  998SOL    MW4 4024   0.659   2.306   1.813
  999SOL     OW 4025   0.458   2.424   1.957
  999SOL    HW2 4026   0.482   2.439   2.048
  999SOL    HW3 4027   0.537   2.388   1.916
  999SOL    MW4 4028   0.471   2.421   1.963
 1000SOL     OW 4029   0.456   2.679   1.840
 1000SOL    HW2 4030   0.450   2.596   1.887
 1000SOL    HW3 4031   0.374   2.724   1.859
 1000SOL    MW4 4032   0.444   2.674   1.849
 1001SOL     OW 4033   0.647   2.842   1.952
 1001SOL    HW2 4034   0.639   2.836   2.047
 1001SOL    HW3 4035   0.571   2.795   1.919
 1001SOL    MW4 4036   0.636   2.835   1.960
 1002SOL     OW 4037   0.716   3.089   1.840
 1002SOL    HW2 4038   0.698   3.004   1.880
 1002SOL    HW3 4039   0.689   3.078   1.749
 1002SOL    MW4 4040   0.710   3.076   1.833
 1003SOL     OW 4041   0.463   3.191   1.916
 1003SOL    HW2 4042   0.453   3.281   1.883
 1003SOL    HW3 4043   0.556   3.171   1.902
 1003SOL    MW4 4044   0.474   3.200   1.910
 1004SOL     OW 4045   0.412   3.470   1.869
 1004SOL    HW2 4046   0.479   3.528   1.907
 1004SOL    HW3 4047   0.420   3.484   1.774
 1004SOL    MW4 4048   0.422   3.480   1.861
 1005SOL     OW 4049   0.614   3.653   1.958
 1005SOL    HW2 4050   0.691   3.607   1.923
 1005SOL    HW3 4051   0.620   3.741   1.922
 1005SOL    MW4 4052   0.625   3.658   1.949
 1006SOL     OW 4053   0.685   3.906   1.860
 1006SOL    HW2 4054   0.760   3.962   1.880
 1006SOL    HW3 4055   0.668   3.921   1.767
 1006SOL    MW4 4056   0.692   3.915   1.850
 1007SOL     OW 4057   0.482   4.024   1.998
 1007SOL    HW2 4058   0.498   4.111   1.961
 1007SOL    HW3 4059   0.555   3.971   1.968
 1007SOL    MW4 4060   0.494   4.028   1.989
 1008SOL     OW 4061   0.457   4.284   1.867
 1008SOL    HW2 4062   0.377   4.321   1.906
 1008SOL    HW3 4063   0.437   4.276   1.774
 1008SOL    MW4 4064   0.443   4.288   1.860
 1009SOL     OW 4065   0.646   4.448   1.941
 1009SOL    HW2 4066   0.731   4.408   1.924
 1009SOL    HW3 4067   0.583   4.380   1.918
 1009SOL    MW4 4068   0.649   4.434   1.936
 1010SOL     OW 4069   1.135   0.037   1.848
 1010SOL    HW2 4070   1.206   0.095   1.878
 1010SOL    HW3 4071   1.149  -0.044   1.897
 1010SOL    MW4 4072   1.146   0.034   1.859
 1011SOL     OW 4073   0.881   0.097   1.963
 1011SOL    HW2 4074   0.960   0.066   1.919
 1011SOL    HW3 4075   0.810   0.076   1.902
 1011SOL    MW4 4076   0.882   0.090   1.949
 1012SOL     OW 4077   0.889   0.368   1.852
 1012SOL    HW2 4078   0.961   0.417   1.891
 1012SOL    HW3 4079   0.897   0.280   1.888
 1012SOL    MW4 4080   0.899   0.363   1.862
 1013SOL     OW 4081   1.125   0.499   1.950
 1013SOL    HW2 4082   1.207   0.465   1.916
 1013SOL    HW3 4083   1.119   0.587   1.913
 1013SOL    MW4 4084   1.135   0.506   1.941
 1014SOL     OW 4085   1.116   0.752   1.815
 1014SOL    HW2 4086   1.189   0.811   1.836
 1014SOL    HW3 4087   1.040   0.792   1.856
 1014SOL    MW4 4088   1.116   0.765   1.823
 1015SOL     OW 4089   0.877   0.876   1.900
 1015SOL    HW2 4090   0.883   0.887   1.994
 1015SOL    HW3 4091   0.901   0.962   1.864
 1015SOL    MW4 4092   0.881   0.889   1.907
 1016SOL     OW 4093   0.935   1.140   1.822
 1016SOL    HW2 4094   0.851   1.184   1.836
 1016SOL    HW3 4095   0.943   1.135   1.726
 1016SOL    MW4 4096   0.925   1.145   1.811
 1017SOL     OW 4097   1.124   1.305   1.972
 1017SOL    HW2 4098   1.136   1.385   1.921
 1017SOL    HW3 4099   1.051   1.260   1.929
 1017SOL    MW4 4100   1.116   1.309   1.959
 1018SOL     OW 4101   1.136   1.536   1.820
 1018SOL    HW2 4102   1.063   1.579   1.865
 1018SOL    HW3 4103   1.116   1.546   1.727
 1018SOL    MW4 4104   1.123   1.543   1.814
 1019SOL     OW 4105   0.939   1.675   1.952
 1019SOL    HW2 4106   0.941   1.766   1.922
 1019SOL    HW3 4107   0.850   1.646   1.933
 1019SOL    MW4 4108   0.928   1.684   1.945
 1020SOL     OW 4109   0.916   1.928   1.868
 1020SOL    HW2 4110   0.833   1.962   1.901
 1020SOL    HW3 4111   0.903   1.918   1.774
 1020SOL    MW4 4112   0.904   1.932   1.860
 1021SOL     OW 4113   1.130   2.095   1.952
 1021SOL    HW2 4114   1.118   2.185   1.922
 1021SOL    HW3 4115   1.073   2.043   1.895
 1021SOL    MW4 4116   1.121   2.100   1.940
 1022SOL     OW 4117   1.113   2.348   1.857
 1022SOL    HW2 4118   1.191   2.401   1.877
 1022SOL    HW3 4119   1.109   2.346   1.762
 1022SOL    MW4 4120   1.123   2.355   1.847
 1023SOL     OW 4121   0.871   2.451   1.938
 1023SOL    HW2 4122   0.955   2.410   1.918
 1023SOL    HW3 4123   0.806   2.398   1.892
 1023SOL    MW4 4124   0.873   2.439   1.929
 1024SOL     OW 4125   0.887   2.734   1.860
 1024SOL    HW2 4126   0.892   2.640   1.875
 1024SOL    HW3 4127   0.799   2.758   1.888
 1024SOL    MW4 4128   0.876   2.725   1.865
 1025SOL     OW 4129   1.112   2.885   1.903
 1025SOL    HW2 4130   1.113   2.888   1.999
 1025SOL    HW3 4131   1.033   2.836   1.881
 1025SOL    MW4 4132   1.102   2.879   1.913
 1026SOL     OW 4133   1.139   3.142   1.836
 1026SOL    HW2 4134   1.058   3.176   1.874
 1026SOL    HW3 4135   1.141   3.050   1.863
 1026SOL    MW4 4136   1.129   3.135   1.845
 1027SOL     OW 4137   0.913   3.259   1.925
 1027SOL    HW2 4138   0.897   3.260   2.020
 1027SOL    HW3 4139   0.843   3.204   1.890
 1027SOL    MW4 4140   0.902   3.252   1.933
 1028SOL     OW 4141   0.832   3.507   1.848
 1028SOL    HW2 4142   0.856   3.418   1.872
 1028SOL    HW3 4143   0.841   3.509   1.753
 1028SOL    MW4 4144   0.836   3.496   1.839
 1029SOL     OW 4145   1.074   3.622   1.921
 1029SOL    HW2 4146   1.085   3.642   2.014
 1029SOL    HW3 4147   0.984   3.589   1.913
 1029SOL    MW4 4148   1.064   3.620   1.932
 1030SOL     OW 4149   1.090   3.884   1.838
 1030SOL    HW2 4150   1.083   3.793   1.866
 1030SOL    HW3 4151   1.073   3.881   1.744
 1030SOL    MW4 4152   1.087   3.872   1.829
 1031SOL     OW 4153   0.905   4.064   1.954
 1031SOL    HW2 4154   0.904   4.057   2.050
 1031SOL    HW3 4155   0.979   4.011   1.927
 1031SOL    MW4 4156   0.915   4.056   1.963
 1032SOL     OW 4157   0.879   4.334   1.871
 1032SOL    HW2 4158   0.955   4.385   1.898
 1032SOL    HW3 4159   0.900   4.244   1.897
 1032SOL    MW4 4160   0.892   4.329   1.878
 1033SOL     OW 4161   1.147   4.435   1.962
 1033SOL    HW2 4162   1.124   4.402   2.049
 1033SOL    HW3 4163   1.225   4.385   1.937
 1033SOL    MW4 4164   1.154   4.424   1.970
 1034SOL     OW 4165   1.561   4.637   1.843
 1034SOL    HW2 4166   1.637   4.689   1.868
 1034SOL    HW3 4167   1.583   4.547   1.867
 1034SOL    MW4 4168   1.574   4.632   1.849
 1035SOL     OW 4169   1.371   0.143   1.917
 1035SOL    HW2 4170   1.371   0.126   2.011
 1035SOL    HW3 4171   1.434   0.081   1.881
 1035SOL    MW4 4172   1.379   0.133   1.925
 1036SOL     OW 4173   1.356   0.411   1.820
 1036SOL    HW2 4174   1.367   0.326   1.861
 1036SOL    HW3 4175   1.340   0.392   1.728
 1036SOL    MW4 4176   1.355   0.398   1.814
 1037SOL     OW 4177   1.574   0.532   1.950
 1037SOL    HW2 4178   1.656   0.496   1.917
 1037SOL    HW3 4179   1.505   0.485   1.902
 1037SOL    MW4 4180   1.575   0.521   1.939
 1038SOL     OW 4181   1.572   0.768   1.830
 1038SOL    HW2 4182   1.631   0.835   1.867
 1038SOL    HW3 4183   1.582   0.693   1.888
 1038SOL    MW4 4184   1.581   0.767   1.842
 1039SOL     OW 4185   1.340   0.918   1.886
 1039SOL    HW2 4186   1.334   0.917   1.982
 1039SOL    HW3 4187   1.412   0.859   1.866
 1039SOL    MW4 4188   1.348   0.910   1.896
 1040SOL     OW 4189   1.352   1.191   1.845
 1040SOL    HW2 4190   1.347   1.096   1.853
 1040SOL    HW3 4191   1.268   1.222   1.879
 1040SOL    MW4 4192   1.340   1.183   1.851
 1041SOL     OW 4193   1.596   1.296   1.953
 1041SOL    HW2 4194   1.580   1.390   1.958
 1041SOL    HW3 4195   1.514   1.260   1.920
 1041SOL    MW4 4196   1.583   1.304   1.949
 1042SOL     OW 4197   1.554   1.564   1.868
 1042SOL    HW2 4198   1.629   1.620   1.890
 1042SOL    HW3 4199   1.478   1.611   1.902
 1042SOL    MW4 4200   1.554   1.578   1.876
 1043SOL     OW 4201   1.330   1.673   1.953
 1043SOL    HW2 4202   1.322   1.648   2.045
 1043SOL    HW3 4203   1.259   1.627   1.909
 1043SOL    MW4 4204   1.320   1.663   1.959
 1044SOL     OW 4205   1.345   1.935   1.868
 1044SOL    HW2 4206   1.332   1.852   1.914
 1044SOL    HW3 4207   1.288   1.997   1.914
 1044SOL    MW4 4208   1.336   1.932   1.880
 1045SOL     OW 4209   1.579   2.069   1.953
 1045SOL    HW2 4210   1.575   2.158   1.918
 1045SOL    HW3 4211   1.502   2.025   1.916
 1045SOL    MW4 4212   1.568   2.075   1.943
 1046SOL     OW 4213   1.585   2.351   1.852
 1046SOL    HW2 4214   1.668   2.394   1.870
 1046SOL    HW3 4215   1.570   2.364   1.758
 1046SOL    MW4 4216   1.594   2.358   1.842
 1047SOL     OW 4217   1.334   2.491   1.941
 1047SOL    HW2 4218   1.342   2.573   1.892
 1047SOL    HW3 4219   1.417   2.446   1.926
 1047SOL    MW4 4220   1.346   2.496   1.933
 1048SOL     OW 4221   1.341   2.732   1.796
 1048SOL    HW2 4222   1.264   2.775   1.831
 1048SOL    HW3 4223   1.331   2.739   1.701
 1048SOL    MW4 4224   1.330   2.739   1.788
 1049SOL     OW 4225   1.548   2.837   1.956
 1049SOL    HW2 4226   1.629   2.801   1.919
 1049SOL    HW3 4227   1.478   2.791   1.910
 1049SOL    MW4 4228   1.550   2.826   1.945
 1050SOL     OW 4229   1.569   3.114   1.849
 1050SOL    HW2 4230   1.549   3.026   1.882
 1050SOL    HW3 4231   1.558   3.107   1.754
 1050SOL    MW4 4232   1.565   3.101   1.840
 1051SOL     OW 4233   1.353   3.248   1.993
 1051SOL    HW2 4234   1.432   3.210   1.954
 1051SOL    HW3 4235   1.282   3.219   1.935
 1051SOL    MW4 4236   1.354   3.239   1.980
 1052SOL     OW 4237   1.331   3.505   1.915
 1052SOL    HW2 4238   1.339   3.418   1.955
 1052SOL    HW3 4239   1.237   3.522   1.912
 1052SOL    MW4 4240   1.320   3.496   1.920
 1053SOL     OW 4241   1.566   3.618   1.961
 1053SOL    HW2 4242   1.573   3.603   2.056
 1053SOL    HW3 4243   1.477   3.591   1.939
 1053SOL    MW4 4244   1.555   3.613   1.971
 1054SOL     OW 4245   1.550   3.901   1.881
 1054SOL    HW2 4246   1.634   3.937   1.908
 1054SOL    HW3 4247   1.553   3.809   1.908
 1054SOL    MW4 4248   1.561   3.893   1.888
 1055SOL     OW 4249   1.304   4.008   1.961
 1055SOL    HW2 4250   1.387   3.968   1.933
 1055SOL    HW3 4251   1.238   3.968   1.904
 1055SOL    MW4 4252   1.306   3.997   1.950
 1056SOL     OW 4253   1.344   4.270   1.849
 1056SOL    HW2 4254   1.335   4.182   1.886
 1056SOL    HW3 4255   1.329   4.258   1.755
 1056SOL    MW4 4256   1.341   4.257   1.842
 1057SOL     OW 4257   1.598   4.363   1.901
 1057SOL    HW2 4258   1.600   4.374   1.996
 1057SOL    HW3 4259   1.516   4.317   1.883
 1057SOL    MW4 4260   1.587   4.359   1.911
 1058SOL     OW 4261   2.013   0.009   1.854
 1058SOL    HW2 4262   2.083   0.059   1.897
 1058SOL    HW3 4263   2.029  -0.082   1.880
 1058SOL    MW4 4264   2.024   0.003   1.863
 1059SOL     OW 4265   1.769   0.129   1.938
 1059SOL    HW2 4266   1.784   0.132   2.033
 1059SOL    HW3 4267   1.846   0.084   1.903
 1059SOL    MW4 4268   1.781   0.123   1.946
 1060SOL     OW 4269   1.802   0.382   1.851
 1060SOL    HW2 4270   1.771   0.299   1.889
 1060SOL    HW3 4271   1.808   0.363   1.757
 1060SOL    MW4 4272   1.799   0.368   1.844
 1061SOL     OW 4273   2.019   0.514   1.956
 1061SOL    HW2 4274   1.997   0.606   1.941
 1061SOL    HW3 4275   1.947   0.466   1.915
 1061SOL    MW4 4276   2.007   0.520   1.949
 1062SOL     OW 4277   2.006   0.782   1.859
 1062SOL    HW2 4278   2.091   0.817   1.886
 1062SOL    HW3 4279   2.005   0.791   1.764
 1062SOL    MW4 4280   2.017   0.788   1.850
 1063SOL     OW 4281   1.783   0.912   1.959
 1063SOL    HW2 4282   1.799   1.006   1.950
 1063SOL    HW3 4283   1.864   0.871   1.931
 1063SOL    MW4 4284   1.796   0.919   1.954
 1064SOL     OW 4285   1.826   1.169   1.879
 1064SOL    HW2 4286   1.750   1.224   1.899
 1064SOL    HW3 4287   1.840   1.182   1.785
 1064SOL    MW4 4288   1.818   1.178   1.869
 1065SOL     OW 4289   2.049   1.310   1.927
 1065SOL    HW2 4290   2.122   1.260   1.890
 1065SOL    HW3 4291   1.971   1.259   1.906
 1065SOL    MW4 4292   2.049   1.297   1.920
 1066SOL     OW 4293   2.010   1.559   1.843
 1066SOL    HW2 4294   2.024   1.469   1.873
 1066SOL    HW3 4295   2.014   1.553   1.747
 1066SOL    MW4 4296   2.013   1.546   1.834
 1067SOL     OW 4297   1.783   1.704   1.925
 1067SOL    HW2 4298   1.800   1.792   1.892
 1067SOL    HW3 4299   1.856   1.652   1.892
 1067SOL    MW4 4300   1.795   1.709   1.916
 1068SOL     OW 4301   1.815   1.973   1.829
 1068SOL    HW2 4302   1.739   2.015   1.870
 1068SOL    HW3 4303   1.801   1.984   1.735
 1068SOL    MW4 4304   1.803   1.980   1.822
 1069SOL     OW 4305   2.057   2.099   1.909
 1069SOL    HW2 4306   2.136   2.048   1.889
 1069SOL    HW3 4307   1.984   2.043   1.881
 1069SOL    MW4 4308   2.058   2.085   1.903
 1070SOL     OW 4309   2.069   2.350   1.799
 1070SOL    HW2 4310   2.140   2.398   1.843
 1070SOL    HW3 4311   2.056   2.272   1.853
 1070SOL    MW4 4312   2.077   2.346   1.812
 1071SOL     OW 4313   1.830   2.473   1.899
 1071SOL    HW2 4314   1.824   2.460   1.994
 1071SOL    HW3 4315   1.910   2.428   1.873
 1071SOL    MW4 4316   1.840   2.465   1.908
 1072SOL     OW 4317   1.773   2.730   1.836
 1072SOL    HW2 4318   1.796   2.638   1.852
 1072SOL    HW3 4319   1.768   2.737   1.741
 1072SOL    MW4 4320   1.776   2.719   1.825
 1073SOL     OW 4321   2.000   2.852   1.923
 1073SOL    HW2 4322   1.999   2.832   2.017
 1073SOL    HW3 4323   1.922   2.809   1.889
 1073SOL    MW4 4324   1.990   2.844   1.931
 1074SOL     OW 4325   2.022   3.105   1.834
 1074SOL    HW2 4326   1.945   3.152   1.868
 1074SOL    HW3 4327   2.010   3.015   1.863
 1074SOL    MW4 4328   2.010   3.100   1.842
 1075SOL     OW 4329   1.808   3.226   1.932
 1075SOL    HW2 4330   1.793   3.218   2.026
 1075SOL    HW3 4331   1.727   3.192   1.893
 1075SOL    MW4 4332   1.795   3.221   1.939
 1076SOL     OW 4333   1.831   3.514   1.880
 1076SOL    HW2 4334   1.807   3.425   1.907
 1076SOL    HW3 4335   1.753   3.566   1.900
 1076SOL    MW4 4336   1.817   3.509   1.887
 1077SOL     OW 4337   2.080   3.601   1.963
 1077SOL    HW2 4338   2.069   3.688   1.926
 1077SOL    HW3 4339   1.998   3.555   1.942
 1077SOL    MW4 4340   2.068   3.606   1.955
 1078SOL     OW 4341   2.044   3.853   1.858
 1078SOL    HW2 4342   2.123   3.903   1.881
 1078SOL    HW3 4343   2.040   3.857   1.763
 1078SOL    MW4 4344   2.054   3.860   1.848
 1079SOL     OW 4345   1.805   3.987   1.921
 1079SOL    HW2 4346   1.816   4.074   1.883
 1079SOL    HW3 4347   1.885   3.940   1.898
 1079SOL    MW4 4348   1.817   3.992   1.913
 1080SOL     OW 4349   1.821   4.257   1.816
 1080SOL    HW2 4350   1.737   4.295   1.841
 1080SOL    HW3 4351   1.820   4.258   1.721
 1080SOL    MW4 4352   1.810   4.262   1.807
 1081SOL     OW 4353   2.037   4.401   1.952
 1081SOL    HW2 4354   2.116   4.361   1.914
 1081SOL    HW3 4355   1.965   4.346   1.922
 1081SOL    MW4 4356   2.038   4.388   1.943
 1082SOL     OW 4357   2.458   4.649   1.856
 1082SOL    HW2 4358   2.540   4.693   1.880
 1082SOL    HW3 4359   2.450   4.576   1.918
 1082SOL    MW4 4360   2.468   4.645   1.868
 1083SOL     OW 4361   2.252   0.140   1.932
 1083SOL    HW2 4362   2.249   0.134   2.027
 1083SOL    HW3 4363   2.330   0.090   1.907
 1083SOL    MW4 4364   2.262   0.132   1.941
 1084SOL     OW 4365   2.255   0.419   1.849
 1084SOL    HW2 4366   2.262   0.330   1.882
 1084SOL    HW3 4367   2.187   0.460   1.902
 1084SOL    MW4 4368   2.247   0.413   1.860
 1085SOL     OW 4369   2.503   0.529   1.944
 1085SOL    HW2 4370   2.583   0.482   1.921
 1085SOL    HW3 4371   2.433   0.480   1.900
 1085SOL    MW4 4372   2.504   0.516   1.935
 1086SOL     OW 4373   2.509   0.795   1.856
 1086SOL    HW2 4374   2.500   0.701   1.872
 1086SOL    HW3 4375   2.476   0.807   1.767
 1086SOL    MW4 4376   2.503   0.784   1.846
 1087SOL     OW 4377   2.237   0.891   1.934
 1087SOL    HW2 4378   2.235   0.908   2.028
 1087SOL    HW3 4379   2.326   0.860   1.918
 1087SOL    MW4 4380   2.249   0.889   1.944
 1088SOL     OW 4381   2.252   1.171   1.816
 1088SOL    HW2 4382   2.323   1.220   1.857
 1088SOL    HW3 4383   2.259   1.083   1.853
 1088SOL    MW4 4384   2.262   1.166   1.827
 1089SOL     OW 4385   2.448   1.308   1.933
 1089SOL    HW2 4386   2.445   1.335   2.025
 1089SOL    HW3 4387   2.453   1.390   1.884
 1089SOL    MW4 4388   2.448   1.323   1.938
 1090SOL     OW 4389   2.481   1.558   1.809
 1090SOL    HW2 4390   2.403   1.600   1.845
 1090SOL    HW3 4391   2.464   1.554   1.715
 1090SOL    MW4 4392   2.468   1.563   1.802
 1091SOL     OW 4393   2.245   1.670   1.920
 1091SOL    HW2 4394   2.255   1.655   2.014
 1091SOL    HW3 4395   2.161   1.629   1.898
 1091SOL    MW4 4396   2.235   1.663   1.930
 1092SOL     OW 4397   2.255   1.940   1.845
 1092SOL    HW2 4398   2.331   1.979   1.887
 1092SOL    HW3 4399   2.257   1.848   1.872
 1092SOL    MW4 4400   2.265   1.933   1.854
 1093SOL     OW 4401   2.480   2.041   1.957
 1093SOL    HW2 4402   2.559   2.007   1.916
 1093SOL    HW3 4403   2.471   2.129   1.920
 1093SOL    MW4 4404   2.489   2.048   1.946
 1094SOL     OW 4405   2.457   2.303   1.853
 1094SOL    HW2 4406   2.539   2.343   1.883
 1094SOL    HW3 4407   2.389   2.365   1.880
 1094SOL    MW4 4408   2.459   2.316   1.861
 1095SOL     OW 4409   2.264   2.462   1.954
 1095SOL    HW2 4410   2.256   2.471   2.049
 1095SOL    HW3 4411   2.245   2.549   1.919
 1095SOL    MW4 4412   2.261   2.475   1.962
 1096SOL     OW 4413   2.262   2.730   1.825
 1096SOL    HW2 4414   2.184   2.777   1.855
 1096SOL    HW3 4415   2.258   2.736   1.729
 1096SOL    MW4 4416   2.251   2.737   1.816
 1097SOL     OW 4417   2.500   2.806   1.941
 1097SOL    HW2 4418   2.497   2.899   1.917
 1097SOL    HW3 4419   2.420   2.770   1.905
 1097SOL    MW4 4420   2.489   2.814   1.933
 1098SOL     OW 4421   2.477   3.083   1.897
 1098SOL    HW2 4422   2.393   3.110   1.933
 1098SOL    HW3 4423   2.467   3.095   1.802
 1098SOL    MW4 4424   2.465   3.088   1.889
 1099SOL     OW 4425   2.247   3.209   1.951
 1099SOL    HW2 4426   2.237   3.214   2.046
 1099SOL    HW3 4427   2.160   3.187   1.919
 1099SOL    MW4 4428   2.234   3.207   1.959
 1100SOL     OW 4429   2.306   3.476   1.850
 1100SOL    HW2 4430   2.290   3.388   1.881
 1100SOL    HW3 4431   2.247   3.531   1.901
 1100SOL    MW4 4432   2.296   3.472   1.861
 1101SOL     OW 4433   2.524   3.609   1.962
 1101SOL    HW2 4434   2.508   3.594   2.055
 1101SOL    HW3 4435   2.451   3.564   1.918
 1101SOL    MW4 4436   2.512   3.601   1.968
 1102SOL     OW 4437   2.534   3.881   1.903
 1102SOL    HW2 4438   2.446   3.906   1.933
 1102SOL    HW3 4439   2.541   3.788   1.926
 1102SOL    MW4 4440   2.523   3.872   1.910
 1103SOL     OW 4441   2.279   3.984   1.951
 1103SOL    HW2 4442   2.250   3.992   2.041
 1103SOL    HW3 4443   2.273   4.072   1.915
 1103SOL    MW4 4444   2.275   3.996   1.958
 1104SOL     OW 4445   2.270   4.263   1.877
 1104SOL    HW2 4446   2.333   4.326   1.913
 1104SOL    HW3 4447   2.265   4.286   1.784
 1104SOL    MW4 4448   2.278   4.275   1.870
 1105SOL     OW 4449   2.465   4.424   1.991
 1105SOL    HW2 4450   2.462   4.420   2.087
 1105SOL    HW3 4451   2.553   4.394   1.969
 1105SOL    MW4 4452   2.476   4.419   2.001
 1106SOL     OW 4453   2.880   0.004   1.820
 1106SOL    HW2 4454   2.944   0.062   1.862
 1106SOL    HW3 4455   2.898  -0.082   1.858
 1106SOL    MW4 4456   2.891   0.000   1.831
 1107SOL     OW 4457   2.669   0.150   1.916
 1107SOL    HW2 4458   2.666   0.144   2.012
 1107SOL    HW3 4459   2.738   0.089   1.890
 1107SOL    MW4 4460   2.678   0.141   1.926
 1108SOL     OW 4461   2.740   0.398   1.817
 1108SOL    HW2 4462   2.802   0.443   1.875
 1108SOL    HW3 4463   2.737   0.309   1.850
 1108SOL    MW4 4464   2.748   0.392   1.829
 1109SOL     OW 4465   2.950   0.505   1.957
 1109SOL    HW2 4466   3.033   0.465   1.931
 1109SOL    HW3 4467   2.943   0.584   1.902
 1109SOL    MW4 4468   2.960   0.510   1.946
 1110SOL     OW 4469   2.924   0.777   1.863
 1110SOL    HW2 4470   3.000   0.827   1.890
 1110SOL    HW3 4471   2.851   0.816   1.911
 1110SOL    MW4 4472   2.924   0.789   1.873
 1111SOL     OW 4473   2.713   0.949   1.986
 1111SOL    HW2 4474   2.711   1.033   1.940
 1111SOL    HW3 4475   2.645   0.897   1.945
 1111SOL    MW4 4476   2.704   0.954   1.974
 1112SOL     OW 4477   2.702   1.192   1.837
 1112SOL    HW2 4478   2.616   1.224   1.865
 1112SOL    HW3 4479   2.688   1.159   1.748
 1112SOL    MW4 4480   2.689   1.191   1.829
 1113SOL     OW 4481   2.943   1.281   1.966
 1113SOL    HW2 4482   2.949   1.370   1.933
 1113SOL    HW3 4483   2.874   1.240   1.914
 1113SOL    MW4 4484   2.935   1.287   1.955
 1114SOL     OW 4485   2.918   1.553   1.859
 1114SOL    HW2 4486   2.988   1.609   1.894
 1114SOL    HW3 4487   2.939   1.544   1.766
 1114SOL    MW4 4488   2.930   1.559   1.852
 1115SOL     OW 4489   2.679   1.675   1.970
 1115SOL    HW2 4490   2.758   1.626   1.946
 1115SOL    HW3 4491   2.609   1.634   1.917
 1115SOL    MW4 4492   2.680   1.663   1.959
 1116SOL     OW 4493   2.703   1.924   1.857
 1116SOL    HW2 4494   2.771   1.967   1.908
 1116SOL    HW3 4495   2.697   1.836   1.894
 1116SOL    MW4 4496   2.711   1.918   1.868
 1117SOL     OW 4497   2.916   2.050   1.979
 1117SOL    HW2 4498   2.930   2.054   2.074
 1117SOL    HW3 4499   2.979   1.986   1.948
 1117SOL    MW4 4500   2.926   2.042   1.988
 1118SOL     OW 4501   2.937   2.277   1.831
 1118SOL    HW2 4502   2.990   2.344   1.873
 1118SOL    HW3 4503   2.952   2.198   1.884
 1118SOL    MW4 4504   2.946   2.275   1.844
 1119SOL     OW 4505   2.701   2.420   1.937
 1119SOL    HW2 4506   2.716   2.501   1.888
 1119SOL    HW3 4507   2.776   2.365   1.916
 1119SOL    MW4 4508   2.713   2.424   1.928
 1120SOL     OW 4509   2.706   2.672   1.809
 1120SOL    HW2 4510   2.629   2.712   1.851
 1120SOL    HW3 4511   2.689   2.679   1.715
 1120SOL    MW4 4512   2.693   2.678   1.802
 1121SOL     OW 4513   2.888   2.836   1.948
 1121SOL    HW2 4514   2.878   2.924   1.911
 1121SOL    HW3 4515   2.824   2.782   1.901
 1121SOL    MW4 4516   2.879   2.840   1.937
 1122SOL     OW 4517   2.935   3.128   1.843
 1122SOL    HW2 4518   3.012   3.154   1.894
 1122SOL    HW3 4519   2.861   3.146   1.900
 1122SOL    MW4 4520   2.936   3.134   1.857
 1123SOL     OW 4521   2.714   3.206   1.965
 1123SOL    HW2 4522   2.715   3.295   1.929
 1123SOL    HW3 4523   2.633   3.168   1.930
 1123SOL    MW4 4524   2.703   3.213   1.956
 1124SOL     OW 4525   2.747   3.478   1.871
 1124SOL    HW2 4526   2.819   3.523   1.914
 1124SOL    HW3 4527   2.669   3.525   1.899
 1124SOL    MW4 4528   2.746   3.490   1.880
 1125SOL     OW 4529   2.942   3.639   1.981
 1125SOL    HW2 4530   2.957   3.663   2.072
 1125SOL    HW3 4531   3.018   3.586   1.957
 1125SOL    MW4 4532   2.954   3.635   1.990
 1126SOL     OW 4533   2.959   3.893   1.869
 1126SOL    HW2 4534   2.963   3.802   1.899
 1126SOL    HW3 4535   2.940   3.887   1.776
 1126SOL    MW4 4536   2.957   3.880   1.861
 1127SOL     OW 4537   2.729   4.054   1.999
 1127SOL    HW2 4538   2.806   4.007   1.966
 1127SOL    HW3 4539   2.656   3.994   1.984
 1127SOL    MW4 4540   2.729   4.040   1.992
 1128SOL     OW 4541   2.689   4.302   1.872
 1128SOL    HW2 4542   2.696   4.212   1.904
 1128SOL    HW3 4543   2.695   4.294   1.777
 1128SOL    MW4 4544   2.691   4.289   1.864
 1129SOL     OW 4545   2.905   4.440   2.011
 1129SOL    HW2 4546   2.908   4.440   2.106
 1129SOL    HW3 4547   2.832   4.381   1.989
 1129SOL    MW4 4548   2.896   4.432   2.020
 1130SOL     OW 4549   3.350   4.653   1.877
 1130SOL    HW2 4550   3.339   4.568   1.918
 1130SOL    HW3 4551   3.359   4.633   1.783
 1130SOL    MW4 4552   3.350   4.639   1.870
 1131SOL     OW 4553   3.098   0.108   1.963
 1131SOL    HW2 4554   3.109   0.127   2.056
 1131SOL    HW3 4555   3.172   0.051   1.941
 1131SOL    MW4 4556   3.109   0.103   1.973
 1132SOL     OW 4557   3.151   0.362   1.849
 1132SOL    HW2 4558   3.134   0.271   1.873
 1132SOL    HW3 4559   3.140   0.364   1.754
 1132SOL    MW4 4560   3.147   0.351   1.839
 1133SOL     OW 4561   3.379   0.497   1.961
 1133SOL    HW2 4562   3.456   0.465   1.915
 1133SOL    HW3 4563   3.305   0.454   1.918
 1133SOL    MW4 4564   3.379   0.487   1.949
 1134SOL     OW 4565   3.392   0.754   1.846
 1134SOL    HW2 4566   3.315   0.803   1.876
 1134SOL    HW3 4567   3.383   0.669   1.888
 1134SOL    MW4 4568   3.380   0.749   1.856
 1135SOL     OW 4569   3.177   0.915   1.922
 1135SOL    HW2 4570   3.156   0.922   2.015
 1135SOL    HW3 4571   3.195   1.005   1.894
 1135SOL    MW4 4572   3.177   0.928   1.930
 1136SOL     OW 4573   3.192   1.173   1.826
 1136SOL    HW2 4574   3.253   1.216   1.886
 1136SOL    HW3 4575   3.105   1.191   1.861
 1136SOL    MW4 4576   3.189   1.181   1.838
 1137SOL     OW 4577   3.393   1.267   1.975
 1137SOL    HW2 4578   3.373   1.259   2.068
 1137SOL    HW3 4579   3.373   1.358   1.954
 1137SOL    MW4 4580   3.388   1.278   1.985
 1138SOL     OW 4581   3.385   1.519   1.846
 1138SOL    HW2 4582   3.457   1.563   1.892
 1138SOL    HW3 4583   3.308   1.571   1.866
 1138SOL    MW4 4584   3.385   1.531   1.855
 1139SOL     OW 4585   3.160   1.675   1.945
 1139SOL    HW2 4586   3.145   1.671   2.039
 1139SOL    HW3 4587   3.145   1.766   1.922
 1139SOL    MW4 4588   3.156   1.686   1.954
 1140SOL     OW 4589   3.105   1.921   1.830
 1140SOL    HW2 4590   3.189   1.957   1.859
 1140SOL    HW3 4591   3.111   1.920   1.735
 1140SOL    MW4 4592   3.117   1.926   1.821
 1141SOL     OW 4593   3.346   2.021   1.916
 1141SOL    HW2 4594   3.424   1.983   1.878
 1141SOL    HW3 4595   3.350   2.114   1.892
 1141SOL    MW4 4596   3.357   2.028   1.908
 1142SOL     OW 4597   3.324   2.290   1.879
 1142SOL    HW2 4598   3.271   2.357   1.922
 1142SOL    HW3 4599   3.302   2.296   1.786
 1142SOL    MW4 4600   3.314   2.299   1.873
 1143SOL     OW 4601   3.119   2.450   1.958
 1143SOL    HW2 4602   3.132   2.440   2.053
 1143SOL    HW3 4603   3.134   2.543   1.941
 1143SOL    MW4 4604   3.123   2.461   1.968
 1144SOL     OW 4605   3.136   2.713   1.871
 1144SOL    HW2 4606   3.054   2.756   1.892
 1144SOL    HW3 4607   3.145   2.722   1.776
 1144SOL    MW4 4608   3.127   2.720   1.861
 1145SOL     OW 4609   3.384   2.837   1.966
 1145SOL    HW2 4610   3.369   2.836   2.061
 1145SOL    HW3 4611   3.304   2.800   1.929
 1145SOL    MW4 4612   3.371   2.832   1.974
 1146SOL     OW 4613   3.383   3.101   1.855
 1146SOL    HW2 4614   3.457   3.156   1.883
 1146SOL    HW3 4615   3.390   3.023   1.910
 1146SOL    MW4 4616   3.394   3.098   1.866
 1147SOL     OW 4617   3.170   3.220   1.979
 1147SOL    HW2 4618   3.174   3.310   1.948
 1147SOL    HW3 4619   3.237   3.174   1.929
 1147SOL    MW4 4620   3.179   3.226   1.969
 1148SOL     OW 4621   3.183   3.486   1.901
 1148SOL    HW2 4622   3.261   3.536   1.926
 1148SOL    HW3 4623   3.178   3.496   1.806
 1148SOL    MW4 4624   3.193   3.494   1.892
 1149SOL     OW 4625   3.407   3.643   1.981
 1149SOL    HW2 4626   3.479   3.601   1.933
 1149SOL    HW3 4627   3.403   3.732   1.945
 1149SOL    MW4 4628   3.416   3.649   1.970
 1150SOL     OW 4629   3.402   3.902   1.905
 1150SOL    HW2 4630   3.326   3.952   1.934
 1150SOL    HW3 4631   3.390   3.891   1.810
 1150SOL    MW4 4632   3.391   3.907   1.896
 1151SOL     OW 4633   3.181   4.040   1.980
 1151SOL    HW2 4634   3.181   4.031   2.075
 1151SOL    HW3 4635   3.102   3.993   1.952
 1151SOL    MW4 4636   3.170   4.032   1.989
 1152SOL     OW 4637   3.103   4.292   1.888
 1152SOL    HW2 4638   3.108   4.208   1.933
 1152SOL    HW3 4639   3.030   4.337   1.930
 1152SOL    MW4 4640   3.094   4.287   1.900
 1153SOL     OW 4641   3.331   4.405   2.010
 1153SOL    HW2 4642   3.410   4.360   1.982
 1153SOL    HW3 4643   3.260   4.344   1.990
 1153SOL    MW4 4644   3.332   4.391   2.004
 1154SOL     OW 4645   3.747   4.661   1.864
 1154SOL    HW2 4646   3.751   4.572   1.900
 1154SOL    HW3 4647   3.687   4.708   1.921
 1154SOL    MW4 4648   3.740   4.655   1.876
 1155SOL     OW 4649   3.547   0.128   2.004
 1155SOL    HW2 4650   3.535   0.154   2.095
 1155SOL    HW3 4651   3.465   0.086   1.980
 1155SOL    MW4 4652   3.535   0.126   2.013
 1156SOL     OW 4653   3.604   0.384   1.852
 1156SOL    HW2 4654   3.580   0.296   1.881
 1156SOL    HW3 4655   3.594   0.382   1.757
 1156SOL    MW4 4656   3.600   0.372   1.843
 1157SOL     OW 4657   3.805   0.538   1.987
 1157SOL    HW2 4658   3.802   0.628   1.953
 1157SOL    HW3 4659   3.727   0.496   1.952
 1157SOL    MW4 4660   3.794   0.544   1.978
 1158SOL     OW 4661   3.793   0.786   1.863
 1158SOL    HW2 4662   3.713   0.829   1.893
 1158SOL    HW3 4663   3.787   0.788   1.768
 1158SOL    MW4 4664   3.781   0.792   1.855
 1159SOL     OW 4665   3.587   0.904   1.990
 1159SOL    HW2 4666   3.581   0.988   1.943
 1159SOL    HW3 4667   3.516   0.852   1.954
 1159SOL    MW4 4668   3.577   0.909   1.979
 1160SOL     OW 4669   3.582   1.128   1.851
 1160SOL    HW2 4670   3.519   1.188   1.891
 1160SOL    HW3 4671   3.579   1.149   1.758
 1160SOL    MW4 4672   3.573   1.139   1.844
 1161SOL     OW 4673   3.806   1.263   1.950
 1161SOL    HW2 4674   3.798   1.282   2.044
 1161SOL    HW3 4675   3.728   1.212   1.929
 1161SOL    MW4 4676   3.795   1.259   1.960
 1162SOL     OW 4677   3.830   1.524   1.838
 1162SOL    HW2 4678   3.912   1.554   1.877
 1162SOL    HW3 4679   3.821   1.433   1.867
 1162SOL    MW4 4680   3.840   1.516   1.847
 1163SOL     OW 4681   3.590   1.649   1.957
 1163SOL    HW2 4682   3.595   1.736   1.917
 1163SOL    HW3 4683   3.673   1.606   1.933
 1163SOL    MW4 4684   3.602   1.655   1.949
 1164SOL     OW 4685   3.592   1.907   1.840
 1164SOL    HW2 4686   3.662   1.962   1.875
 1164SOL    HW3 4687   3.606   1.907   1.746
 1164SOL    MW4 4688   3.603   1.914   1.832
 1165SOL     OW 4689   3.800   2.022   1.953
 1165SOL    HW2 4690   3.877   1.978   1.918
 1165SOL    HW3 4691   3.810   2.113   1.925
 1165SOL    MW4 4692   3.811   2.029   1.945
 1166SOL     OW 4693   3.840   2.276   1.858
 1166SOL    HW2 4694   3.912   2.334   1.883
 1166SOL    HW3 4695   3.761   2.323   1.883
 1166SOL    MW4 4696   3.839   2.290   1.864
 1167SOL     OW 4697   3.605   2.386   1.958
 1167SOL    HW2 4698   3.580   2.467   1.913
 1167SOL    HW3 4699   3.526   2.331   1.953
 1167SOL    MW4 4700   3.591   2.389   1.951
 1168SOL     OW 4701   3.571   2.661   1.871
 1168SOL    HW2 4702   3.648   2.693   1.919
 1168SOL    HW3 4703   3.498   2.712   1.906
 1168SOL    MW4 4704   3.572   2.672   1.882
 1169SOL     OW 4705   3.798   2.786   1.975
 1169SOL    HW2 4706   3.804   2.787   2.071
 1169SOL    HW3 4707   3.788   2.879   1.951
 1169SOL    MW4 4708   3.798   2.799   1.985
 1170SOL     OW 4709   3.780   3.036   1.874
 1170SOL    HW2 4710   3.710   3.088   1.913
 1170SOL    HW3 4711   3.769   3.048   1.779
 1170SOL    MW4 4712   3.769   3.045   1.867
 1171SOL     OW 4713   3.609   3.232   1.975
 1171SOL    HW2 4714   3.618   3.236   2.070
 1171SOL    HW3 4715   3.597   3.323   1.948
 1171SOL    MW4 4716   3.609   3.244   1.984
 1172SOL     OW 4717   3.589   3.492   1.841
 1172SOL    HW2 4718   3.676   3.508   1.877
 1172SOL    HW3 4719   3.596   3.514   1.749
 1172SOL    MW4 4720   3.601   3.497   1.834
 1173SOL     OW 4721   3.820   3.595   1.969
 1173SOL    HW2 4722   3.905   3.568   1.937
 1173SOL    HW3 4723   3.814   3.688   1.946
 1173SOL    MW4 4724   3.830   3.604   1.962
 1174SOL     OW 4725   3.821   3.861   1.912
 1174SOL    HW2 4726   3.763   3.932   1.939
 1174SOL    HW3 4727   3.814   3.858   1.817
 1174SOL    MW4 4728   3.812   3.870   1.903
 1175SOL     OW 4729   3.636   4.035   1.984
 1175SOL    HW2 4730   3.646   4.033   2.079
 1175SOL    HW3 4731   3.566   3.973   1.965
 1175SOL    MW4 4732   3.628   4.027   1.994
 1176SOL     OW 4733   3.554   4.280   1.899
 1176SOL    HW2 4734   3.629   4.335   1.924
 1176SOL    HW3 4735   3.572   4.195   1.939
 1176SOL    MW4 4736   3.566   4.276   1.908
 1177SOL     OW 4737   3.775   4.414   1.968
 1177SOL    HW2 4738   3.798   4.441   2.056
 1177SOL    HW3 4739   3.857   4.384   1.929
 1177SOL    MW4 4740   3.789   4.414   1.974
 1178SOL     OW 4741   4.222   4.641   1.869
 1178SOL    HW2 4742   4.145   4.694   1.891
 1178SOL    HW3 4743   4.296   4.699   1.889
 1178SOL    MW4 4744   4.221   4.656   1.874
 1179SOL     OW 4745   3.994   0.111   1.959
 1179SOL    HW2 4746   3.977   0.100   2.053
 1179SOL    HW3 4747   3.922   0.065   1.916
 1179SOL    MW4 4748   3.983   0.103   1.966
 1180SOL     OW 4749   4.004   0.369   1.880
 1180SOL    HW2 4750   3.989   0.280   1.913
 1180SOL    HW3 4751   3.929   0.419   1.913
 1180SOL    MW4 4752   3.992   0.364   1.889
 1181SOL     OW 4753   4.259   0.465   1.935
 1181SOL    HW2 4754   4.256   0.476   2.030
 1181SOL    HW3 4755   4.173   0.429   1.913
 1181SOL    MW4 4756   4.247   0.461   1.944
 1182SOL     OW 4757   4.245   0.729   1.857
 1182SOL    HW2 4758   4.251   0.641   1.894
 1182SOL    HW3 4759   4.248   0.715   1.762
 1182SOL    MW4 4760   4.246   0.716   1.849
 1183SOL     OW 4761   4.032   0.870   1.982
 1183SOL    HW2 4762   4.100   0.818   1.939
 1183SOL    HW3 4763   3.949   0.834   1.949
 1183SOL    MW4 4764   4.030   0.858   1.972
 1184SOL     OW 4765   4.047   1.135   1.872
 1184SOL    HW2 4766   4.032   1.046   1.903
 1184SOL    HW3 4767   3.964   1.181   1.890
 1184SOL    MW4 4768   4.034   1.130   1.879
 1185SOL     OW 4769   4.281   1.293   1.932
 1185SOL    HW2 4770   4.288   1.284   2.027
 1185SOL    HW3 4771   4.207   1.237   1.908
 1185SOL    MW4 4772   4.272   1.285   1.942
 1186SOL     OW 4773   4.292   1.562   1.866
 1186SOL    HW2 4774   4.294   1.473   1.901
 1186SOL    HW3 4775   4.297   1.551   1.771
 1186SOL    MW4 4776   4.293   1.549   1.858
 1187SOL     OW 4777   4.041   1.625   1.967
 1187SOL    HW2 4778   4.047   1.646   2.061
 1187SOL    HW3 4779   4.129   1.594   1.944
 1187SOL    MW4 4780   4.053   1.624   1.977
 1188SOL     OW 4781   4.058   1.911   1.902
 1188SOL    HW2 4782   4.032   1.821   1.920
 1188SOL    HW3 4783   4.051   1.920   1.807
 1188SOL    MW4 4784   4.054   1.900   1.892
 1189SOL     OW 4785   4.284   2.040   1.953
 1189SOL    HW2 4786   4.284   2.063   2.046
 1189SOL    HW3 4787   4.201   1.993   1.941
 1189SOL    MW4 4788   4.273   2.037   1.964
 1190SOL     OW 4789   4.248   2.291   1.822
 1190SOL    HW2 4790   4.252   2.200   1.851
 1190SOL    HW3 4791   4.324   2.333   1.864
 1190SOL    MW4 4792   4.259   2.285   1.831
 1191SOL     OW 4793   4.043   2.458   1.929
 1191SOL    HW2 4794   4.062   2.475   2.021
 1191SOL    HW3 4795   4.113   2.399   1.901
 1191SOL    MW4 4796   4.055   2.453   1.938
 1192SOL     OW 4797   4.032   2.724   1.865
 1192SOL    HW2 4798   4.043   2.630   1.877
 1192SOL    HW3 4799   3.941   2.742   1.891
 1192SOL    MW4 4800   4.021   2.714   1.870
 1193SOL     OW 4801   4.263   2.833   1.948
 1193SOL    HW2 4802   4.270   2.824   2.043
 1193SOL    HW3 4803   4.175   2.802   1.927
 1193SOL    MW4 4804   4.252   2.828   1.958
 1194SOL     OW 4805   4.265   3.101   1.903
 1194SOL    HW2 4806   4.170   3.114   1.899
 1194SOL    HW3 4807   4.275   3.012   1.937
 1194SOL    MW4 4808   4.254   3.091   1.907
 1195SOL     OW 4809   4.008   3.175   1.951
 1195SOL    HW2 4810   4.027   3.183   2.045
 1195SOL    HW3 4811   3.920   3.136   1.949
 1195SOL    MW4 4812   3.999   3.171   1.963
 1196SOL     OW 4813   4.037   3.471   1.901
 1196SOL    HW2 4814   4.112   3.518   1.936
 1196SOL    HW3 4815   4.042   3.385   1.942
 1196SOL    MW4 4816   4.047   3.466   1.911
 1197SOL     OW 4817   4.259   3.600   1.981
 1197SOL    HW2 4818   4.259   3.692   1.956
 1197SOL    HW3 4819   4.339   3.564   1.943
 1197SOL    MW4 4820   4.269   3.607   1.972
 1198SOL     OW 4821   4.260   3.845   1.840
 1198SOL    HW2 4822   4.336   3.896   1.868
 1198SOL    HW3 4823   4.268   3.840   1.745
 1198SOL    MW4 4824   4.271   3.851   1.832
 1199SOL     OW 4825   4.056   3.992   1.957
 1199SOL    HW2 4826   4.121   3.943   1.907
 1199SOL    HW3 4827   3.976   3.941   1.949
 1199SOL    MW4 4828   4.054   3.979   1.950
 1200SOL     OW 4829   3.991   4.278   1.862
 1200SOL    HW2 4830   4.069   4.320   1.899
 1200SOL    HW3 4831   3.989   4.192   1.904
 1200SOL    MW4 4832   4.001   4.272   1.873
 1201SOL     OW 4833   4.222   4.396   1.959
 1201SOL    HW2 4834   4.219   4.403   2.054
 1201SOL    HW3 4835   4.231   4.487   1.929
 1201SOL    MW4 4836   4.223   4.409   1.967
 1202SOL     OW 4837   0.234   0.012   2.324
 1202SOL    HW2 4838   0.240   0.023   2.419
 1202SOL    HW3 4839   0.312   0.055   2.290
 1202SOL    MW4 4840   0.245   0.019   2.332
 1203SOL     OW 4841   4.467   0.073   2.205
 1203SOL    HW2 4842   4.554   0.049   2.236
 1203SOL    HW3 4843   4.476   0.078   2.109
 1203SOL    MW4 4844   4.480   0.071   2.196
 1204SOL     OW 4845   4.456   0.336   2.325
 1204SOL    HW2 4846   4.542   0.373   2.307
 1204SOL    HW3 4847   4.463   0.244   2.298
 1204SOL    MW4 4848   4.468   0.329   2.319
 1205SOL     OW 4849   0.203   0.455   2.243
 1205SOL    HW2 4850   0.295   0.434   2.262
 1205SOL    HW3 4851   0.198   0.458   2.148
 1205SOL    MW4 4852   0.215   0.453   2.233
 1206SOL     OW 4853   0.210   0.722   2.295
 1206SOL    HW2 4854   0.212   0.737   2.390
 1206SOL    HW3 4855   0.193   0.629   2.286
 1206SOL    MW4 4856   0.208   0.712   2.307
 1207SOL     OW 4857   4.485   0.871   2.201
 1207SOL    HW2 4858   4.564   0.818   2.212
 1207SOL    HW3 4859   4.476   0.881   2.106
 1207SOL    MW4 4860   4.494   0.865   2.190
 1208SOL     OW 4861   0.033   1.105   2.310
 1208SOL    HW2 4862   0.013   1.097   2.403
 1208SOL    HW3 4863   0.026   1.016   2.276
 1208SOL    MW4 4864   0.030   1.093   2.318
 1209SOL     OW 4865   0.230   1.274   2.240
 1209SOL    HW2 4866   0.160   1.210   2.255
 1209SOL    HW3 4867   0.237   1.280   2.145
 1209SOL    MW4 4868   0.222   1.266   2.229
 1210SOL     OW 4869   0.226   1.539   2.358
 1210SOL    HW2 4870   0.239   1.520   2.451
 1210SOL    HW3 4871   0.226   1.453   2.316
 1210SOL    MW4 4872   0.228   1.525   2.365
 1211SOL     OW 4873   0.018   1.676   2.234
 1211SOL    HW2 4874  -0.004   1.761   2.271
 1211SOL    HW3 4875   0.094   1.647   2.284
 1211SOL    MW4 4876   0.025   1.683   2.246
 1212SOL     OW 4877   4.478   1.943   2.350
 1212SOL    HW2 4878   4.418   2.009   2.316
 1212SOL    HW3 4879   4.565   1.974   2.324
 1212SOL    MW4 4880   4.482   1.956   2.342
 1213SOL     OW 4881   0.224   2.021   2.237
 1213SOL    HW2 4882   0.302   1.979   2.274
 1213SOL    HW3 4883   0.230   2.004   2.143
 1213SOL    MW4 4884   0.235   2.013   2.229
 1214SOL     OW 4885   0.248   2.290   2.301
 1214SOL    HW2 4886   0.217   2.290   2.392
 1214SOL    HW3 4887   0.240   2.199   2.274
 1214SOL    MW4 4888   0.243   2.278   2.310
 1215SOL     OW 4889   4.488   2.425   2.217
 1215SOL    HW2 4890   4.489   2.515   2.250
 1215SOL    HW3 4891   4.576   2.392   2.236
 1215SOL    MW4 4892   4.500   2.433   2.224
 1216SOL     OW 4893   4.483   2.682   2.350
 1216SOL    HW2 4894   4.488   2.694   2.445
 1216SOL    HW3 4895   4.567   2.713   2.317
 1216SOL    MW4 4896   4.495   2.688   2.358
 1217SOL     OW 4897   0.224   2.780   2.250
 1217SOL    HW2 4898   0.310   2.751   2.280
 1217SOL    HW3 4899   0.225   2.764   2.156
 1217SOL    MW4 4900   0.235   2.774   2.242
 1218SOL     OW 4901   0.247   3.038   2.336
 1218SOL    HW2 4902   0.160   3.071   2.312
 1218SOL    HW3 4903   0.249   2.949   2.301
 1218SOL    MW4 4904   0.236   3.030   2.328
 1219SOL     OW 4905   4.483   3.170   2.268
 1219SOL    HW2 4906   4.491   3.256   2.309
 1219SOL    HW3 4907   4.477   3.188   2.174
 1219SOL    MW4 4908   4.483   3.184   2.261
 1220SOL     OW 4909   0.018   3.466   2.334
 1220SOL    HW2 4910   0.014   3.452   2.429
 1220SOL    HW3 4911  -0.058   3.521   2.315
 1220SOL    MW4 4912   0.008   3.471   2.344
 1221SOL     OW 4913   0.223   3.630   2.267
 1221SOL    HW2 4914   0.303   3.581   2.285
 1221SOL    HW3 4915   0.152   3.567   2.282
 1221SOL    MW4 4916   0.224   3.615   2.271
 1222SOL     OW 4917   0.234   3.906   2.350
 1222SOL    HW2 4918   0.152   3.943   2.319
 1222SOL    HW3 4919   0.243   3.823   2.304
 1222SOL    MW4 4920   0.225   3.900   2.340
 1223SOL     OW 4921   0.009   3.990   2.233
 1223SOL    HW2 4922  -0.006   4.084   2.242
 1223SOL    HW3 4923   0.008   3.975   2.138
 1223SOL    MW4 4924   0.007   4.000   2.221
 1224SOL     OW 4925   4.484   4.261   2.299
 1224SOL    HW2 4926   4.478   4.254   2.394
 1224SOL    HW3 4927   4.565   4.311   2.284
 1224SOL    MW4 4928   4.494   4.267   2.309
 1225SOL     OW 4929   0.205   4.408   2.249
 1225SOL    HW2 4930   0.286   4.365   2.277
 1225SOL    HW3 4931   0.211   4.495   2.289
 1225SOL    MW4 4932   0.217   4.414   2.258
 1226SOL     OW 4933   0.703   0.008   2.315
 1226SOL    HW2 4934   0.703   0.006   2.411
 1226SOL    HW3 4935   0.780   0.059   2.292
 1226SOL    MW4 4936   0.713   0.015   2.325
 1227SOL     OW 4937   0.472   0.123   2.224
 1227SOL    HW2 4938   0.562   0.104   2.248
 1227SOL    HW3 4939   0.469   0.115   2.129
 1227SOL    MW4 4940   0.483   0.120   2.215
 1228SOL     OW 4941   0.469   0.390   2.315
 1228SOL    HW2 4942   0.481   0.391   2.410
 1228SOL    HW3 4943   0.478   0.298   2.291
 1228SOL    MW4 4944   0.472   0.378   2.325
 1229SOL     OW 4945   0.674   0.528   2.200
 1229SOL    HW2 4946   0.672   0.610   2.250
 1229SOL    HW3 4947   0.596   0.481   2.229
 1229SOL    MW4 4948   0.663   0.533   2.211
 1230SOL     OW 4949   0.681   0.781   2.307
 1230SOL    HW2 4950   0.652   0.802   2.396
 1230SOL    HW3 4951   0.606   0.803   2.252
 1230SOL    MW4 4952   0.667   0.787   2.312
 1231SOL     OW 4953   0.445   0.867   2.175
 1231SOL    HW2 4954   0.373   0.817   2.213
 1231SOL    HW3 4955   0.424   0.873   2.082
 1231SOL    MW4 4956   0.433   0.862   2.168
 1232SOL     OW 4957   0.454   1.116   2.313
 1232SOL    HW2 4958   0.444   1.028   2.275
 1232SOL    HW3 4959   0.377   1.164   2.283
 1232SOL    MW4 4960   0.443   1.111   2.304
 1233SOL     OW 4961   0.665   1.274   2.195
 1233SOL    HW2 4962   0.637   1.348   2.248
 1233SOL    HW3 4963   0.617   1.199   2.230
 1233SOL    MW4 4964   0.655   1.274   2.207
 1234SOL     OW 4965   0.655   1.507   2.329
 1234SOL    HW2 4966   0.653   1.524   2.423
 1234SOL    HW3 4967   0.735   1.550   2.299
 1234SOL    MW4 4968   0.665   1.515   2.337
 1235SOL     OW 4969   0.450   1.646   2.230
 1235SOL    HW2 4970   0.528   1.601   2.265
 1235SOL    HW3 4971   0.378   1.614   2.285
 1235SOL    MW4 4972   0.451   1.636   2.242
 1236SOL     OW 4973   0.475   1.899   2.354
 1236SOL    HW2 4974   0.539   1.943   2.299
 1236SOL    HW3 4975   0.465   1.812   2.315
 1236SOL    MW4 4976   0.482   1.893   2.342
 1237SOL     OW 4977   0.655   2.057   2.209
 1237SOL    HW2 4978   0.735   2.015   2.239
 1237SOL    HW3 4979   0.656   2.143   2.251
 1237SOL    MW4 4980   0.666   2.063   2.218
 1238SOL     OW 4981   0.670   2.297   2.336
 1238SOL    HW2 4982   0.659   2.289   2.431
 1238SOL    HW3 4983   0.743   2.358   2.325
 1238SOL    MW4 4984   0.678   2.304   2.347
 1239SOL     OW 4985   0.472   2.452   2.235
 1239SOL    HW2 4986   0.541   2.396   2.270
 1239SOL    HW3 4987   0.392   2.400   2.246
 1239SOL    MW4 4988   0.470   2.437   2.241
 1240SOL     OW 4989   0.458   2.690   2.378
 1240SOL    HW2 4990   0.443   2.663   2.469
 1240SOL    HW3 4991   0.459   2.608   2.329
 1240SOL    MW4 4992   0.456   2.676   2.384
 1241SOL     OW 4993   0.635   2.832   2.233
 1241SOL    HW2 4994   0.723   2.801   2.254
 1241SOL    HW3 4995   0.578   2.788   2.296
 1241SOL    MW4 4996   0.639   2.822   2.244
 1242SOL     OW 4997   0.688   3.095   2.325
 1242SOL    HW2 4998   0.602   3.136   2.315
 1242SOL    HW3 4999   0.677   3.008   2.285
 1242SOL    MW4 5000   0.675   3.089   2.318
 1243SOL     OW 5001   0.464   3.212   2.201
 1243SOL    HW2 5002   0.378   3.182   2.230
 1243SOL    HW3 5003   0.467   3.191   2.108
 1243SOL    MW4 5004   0.453   3.205   2.193
 1244SOL     OW 5005   0.437   3.473   2.304
 1244SOL    HW2 5006   0.523   3.513   2.296
 1244SOL    HW3 5007   0.450   3.381   2.281
 1244SOL    MW4 5008   0.450   3.466   2.300
 1245SOL     OW 5009   0.664   3.616   2.222
 1245SOL    HW2 5010   0.670   3.709   2.246
 1245SOL    HW3 5011   0.661   3.617   2.126
 1245SOL    MW4 5012   0.664   3.629   2.212
 1246SOL     OW 5013   0.701   3.875   2.321
 1246SOL    HW2 5014   0.701   3.857   2.415
 1246SOL    HW3 5015   0.624   3.930   2.307
 1246SOL    MW4 5016   0.691   3.880   2.332
 1247SOL     OW 5017   0.488   4.022   2.266
 1247SOL    HW2 5018   0.401   3.992   2.293
 1247SOL    HW3 5019   0.491   4.007   2.172
 1247SOL    MW4 5020   0.477   4.016   2.257
 1248SOL     OW 5021   0.415   4.289   2.335
 1248SOL    HW2 5022   0.484   4.335   2.288
 1248SOL    HW3 5023   0.426   4.197   2.308
 1248SOL    MW4 5024   0.426   4.283   2.325
 1249SOL     OW 5025   0.639   4.409   2.222
 1249SOL    HW2 5026   0.650   4.492   2.268
 1249SOL    HW3 5027   0.632   4.432   2.130
 1249SOL    MW4 5028   0.639   4.423   2.216
 1250SOL     OW 5029   1.150   0.017   2.328
 1250SOL    HW2 5030   1.134  -0.001   2.421
 1250SOL    HW3 5031   1.080   0.077   2.303
 1250SOL    MW4 5032   1.139   0.023   2.337
 1251SOL     OW 5033   0.923   0.150   2.231
 1251SOL    HW2 5034   0.919   0.245   2.244
 1251SOL    HW3 5035   0.913   0.138   2.136
 1251SOL    MW4 5036   0.921   0.161   2.220
 1252SOL     OW 5037   0.881   0.423   2.331
 1252SOL    HW2 5038   0.958   0.472   2.302
 1252SOL    HW3 5039   0.807   0.469   2.292
 1252SOL    MW4 5040   0.881   0.435   2.322
 1253SOL     OW 5041   1.116   0.527   2.248
 1253SOL    HW2 5042   1.192   0.485   2.287
 1253SOL    HW3 5043   1.126   0.513   2.154
 1253SOL    MW4 5044   1.128   0.520   2.241
 1254SOL     OW 5045   1.126   0.798   2.314
 1254SOL    HW2 5046   1.041   0.837   2.293
 1254SOL    HW3 5047   1.117   0.706   2.289
 1254SOL    MW4 5048   1.114   0.791   2.308
 1255SOL     OW 5049   0.899   0.894   2.198
 1255SOL    HW2 5050   0.890   0.983   2.231
 1255SOL    HW3 5051   0.827   0.846   2.240
 1255SOL    MW4 5052   0.888   0.899   2.208
 1256SOL     OW 5053   0.916   1.161   2.301
 1256SOL    HW2 5054   0.989   1.217   2.275
 1256SOL    HW3 5055   0.838   1.208   2.273
 1256SOL    MW4 5056   0.915   1.174   2.294
 1257SOL     OW 5057   1.123   1.323   2.236
 1257SOL    HW2 5058   1.197   1.263   2.250
 1257SOL    HW3 5059   1.112   1.327   2.141
 1257SOL    MW4 5060   1.131   1.315   2.225
 1258SOL     OW 5061   1.066   1.556   2.375
 1258SOL    HW2 5062   0.993   1.586   2.322
 1258SOL    HW3 5063   1.097   1.477   2.329
 1258SOL    MW4 5064   1.061   1.549   2.362
 1259SOL     OW 5065   0.854   1.657   2.216
 1259SOL    HW2 5066   0.855   1.752   2.227
 1259SOL    HW3 5067   0.883   1.642   2.126
 1259SOL    MW4 5068   0.858   1.667   2.206
 1260SOL     OW 5069   0.868   1.916   2.268
 1260SOL    HW2 5070   0.863   1.913   2.363
 1260SOL    HW3 5071   0.942   1.974   2.249
 1260SOL    MW4 5072   0.877   1.924   2.278
 1261SOL     OW 5073   1.084   2.068   2.221
 1261SOL    HW2 5074   1.150   2.007   2.253
 1261SOL    HW3 5075   1.091   2.063   2.126
 1261SOL    MW4 5076   1.094   2.059   2.213
 1262SOL     OW 5077   1.106   2.318   2.325
 1262SOL    HW2 5078   1.188   2.354   2.291
 1262SOL    HW3 5079   1.104   2.227   2.294
 1262SOL    MW4 5080   1.116   2.311   2.316
 1263SOL     OW 5081   0.874   2.471   2.230
 1263SOL    HW2 5082   0.956   2.423   2.245
 1263SOL    HW3 5083   0.858   2.463   2.136
 1263SOL    MW4 5084   0.883   2.464   2.220
 1264SOL     OW 5085   0.902   2.738   2.343
 1264SOL    HW2 5086   0.900   2.724   2.438
 1264SOL    HW3 5087   0.886   2.651   2.306
 1264SOL    MW4 5088   0.899   2.724   2.351
 1265SOL     OW 5089   1.095   2.850   2.187
 1265SOL    HW2 5090   1.173   2.802   2.215
 1265SOL    HW3 5091   1.027   2.823   2.248
 1265SOL    MW4 5092   1.096   2.840   2.199
 1266SOL     OW 5093   1.107   3.101   2.312
 1266SOL    HW2 5094   1.051   3.175   2.287
 1266SOL    HW3 5095   1.078   3.030   2.256
 1266SOL    MW4 5096   1.095   3.102   2.302
 1267SOL     OW 5097   0.895   3.274   2.210
 1267SOL    HW2 5098   0.879   3.359   2.250
 1267SOL    HW3 5099   0.826   3.217   2.244
 1267SOL    MW4 5100   0.884   3.278   2.219
 1268SOL     OW 5101   0.902   3.545   2.314
 1268SOL    HW2 5102   0.879   3.526   2.404
 1268SOL    HW3 5103   0.821   3.574   2.273
 1268SOL    MW4 5104   0.888   3.546   2.320
 1269SOL     OW 5105   1.144   3.612   2.193
 1269SOL    HW2 5106   1.218   3.558   2.220
 1269SOL    HW3 5107   1.071   3.581   2.246
 1269SOL    MW4 5108   1.144   3.601   2.203
 1270SOL     OW 5109   1.109   3.894   2.317
 1270SOL    HW2 5110   1.186   3.943   2.290
 1270SOL    HW3 5111   1.113   3.813   2.267
 1270SOL    MW4 5112   1.120   3.890   2.307
 1271SOL     OW 5113   0.905   4.042   2.228
 1271SOL    HW2 5114   0.981   3.993   2.258
 1271SOL    HW3 5115   0.830   3.992   2.260
 1271SOL    MW4 5116   0.905   4.029   2.236
 1272SOL     OW 5117   0.879   4.306   2.351
 1272SOL    HW2 5118   0.895   4.222   2.309
 1272SOL    HW3 5119   0.802   4.341   2.307
 1272SOL    MW4 5120   0.871   4.300   2.339
 1273SOL     OW 5121   1.127   4.409   2.238
 1273SOL    HW2 5122   1.044   4.384   2.277
 1273SOL    HW3 5123   1.143   4.498   2.271
 1273SOL    MW4 5124   1.118   4.417   2.247
 1274SOL     OW 5125   1.589   4.648   2.316
 1274SOL    HW2 5126   1.668   4.692   2.282
 1274SOL    HW3 5127   1.517   4.704   2.289
 1274SOL    MW4 5128   1.590   4.661   2.308
 1275SOL     OW 5129   1.376   0.130   2.206
 1275SOL    HW2 5130   1.375   0.220   2.238
 1275SOL    HW3 5131   1.309   0.085   2.257
 1275SOL    MW4 5132   1.367   0.136   2.217
 1276SOL     OW 5133   1.327   0.394   2.352
 1276SOL    HW2 5134   1.340   0.396   2.446
 1276SOL    HW3 5135   1.399   0.446   2.316
 1276SOL    MW4 5136   1.338   0.401   2.359
 1277SOL     OW 5137   1.553   0.490   2.220
 1277SOL    HW2 5138   1.629   0.437   2.241
 1277SOL    HW3 5139   1.560   0.507   2.126
 1277SOL    MW4 5140   1.564   0.485   2.210
 1278SOL     OW 5141   1.550   0.759   2.289
 1278SOL    HW2 5142   1.637   0.787   2.260
 1278SOL    HW3 5143   1.544   0.668   2.259
 1278SOL    MW4 5144   1.561   0.750   2.281
 1279SOL     OW 5145   1.329   0.897   2.177
 1279SOL    HW2 5146   1.402   0.855   2.223
 1279SOL    HW3 5147   1.251   0.868   2.225
 1279SOL    MW4 5148   1.329   0.888   2.189
 1280SOL     OW 5149   1.339   1.150   2.315
 1280SOL    HW2 5150   1.339   1.133   2.409
 1280SOL    HW3 5151   1.343   1.064   2.274
 1280SOL    MW4 5152   1.339   1.137   2.322
 1281SOL     OW 5153   1.605   1.257   2.222
 1281SOL    HW2 5154   1.517   1.225   2.241
 1281SOL    HW3 5155   1.607   1.265   2.126
 1281SOL    MW4 5156   1.594   1.254   2.212
 1282SOL     OW 5157   1.544   1.516   2.320
 1282SOL    HW2 5158   1.616   1.578   2.306
 1282SOL    HW3 5159   1.565   1.442   2.264
 1282SOL    MW4 5160   1.557   1.515   2.311
 1283SOL     OW 5161   1.289   1.646   2.220
 1283SOL    HW2 5162   1.364   1.595   2.249
 1283SOL    HW3 5163   1.225   1.636   2.290
 1283SOL    MW4 5164   1.290   1.638   2.233
 1284SOL     OW 5165   1.316   1.934   2.310
 1284SOL    HW2 5166   1.395   1.970   2.269
 1284SOL    HW3 5167   1.308   1.846   2.273
 1284SOL    MW4 5168   1.325   1.927   2.300
 1285SOL     OW 5169   1.538   2.073   2.213
 1285SOL    HW2 5170   1.622   2.041   2.245
 1285SOL    HW3 5171   1.544   2.067   2.118
 1285SOL    MW4 5172   1.550   2.068   2.205
 1286SOL     OW 5173   1.550   2.342   2.277
 1286SOL    HW2 5174   1.565   2.349   2.371
 1286SOL    HW3 5175   1.541   2.248   2.261
 1286SOL    MW4 5176   1.551   2.331   2.287
 1287SOL     OW 5177   1.325   2.476   2.228
 1287SOL    HW2 5178   1.407   2.429   2.244
 1287SOL    HW3 5179   1.322   2.488   2.134
 1287SOL    MW4 5180   1.336   2.471   2.218
 1288SOL     OW 5181   1.335   2.746   2.299
 1288SOL    HW2 5182   1.422   2.776   2.275
 1288SOL    HW3 5183   1.337   2.652   2.286
 1288SOL    MW4 5184   1.347   2.738   2.294
 1289SOL     OW 5185   1.593   2.830   2.230
 1289SOL    HW2 5186   1.596   2.916   2.272
 1289SOL    HW3 5187   1.586   2.848   2.137
 1289SOL    MW4 5188   1.593   2.844   2.224
 1290SOL     OW 5189   1.595   3.069   2.353
 1290SOL    HW2 5190   1.619   3.076   2.445
 1290SOL    HW3 5191   1.513   3.120   2.346
 1290SOL    MW4 5192   1.587   3.077   2.364
 1291SOL     OW 5193   1.364   3.183   2.262
 1291SOL    HW2 5194   1.285   3.133   2.284
 1291SOL    HW3 5195   1.356   3.201   2.169
 1291SOL    MW4 5196   1.352   3.179   2.253
 1292SOL     OW 5197   1.349   3.462   2.340
 1292SOL    HW2 5198   1.338   3.473   2.434
 1292SOL    HW3 5199   1.372   3.370   2.329
 1292SOL    MW4 5200   1.351   3.451   2.351
 1293SOL     OW 5201   1.581   3.593   2.252
 1293SOL    HW2 5202   1.573   3.683   2.281
 1293SOL    HW3 5203   1.497   3.553   2.273
 1293SOL    MW4 5204   1.569   3.599   2.258
 1294SOL     OW 5205   1.582   3.852   2.308
 1294SOL    HW2 5206   1.584   3.874   2.401
 1294SOL    HW3 5207   1.644   3.913   2.268
 1294SOL    MW4 5208   1.590   3.863   2.315
 1295SOL     OW 5209   1.339   4.012   2.237
 1295SOL    HW2 5210   1.420   3.966   2.256
 1295SOL    HW3 5211   1.330   4.008   2.142
 1295SOL    MW4 5212   1.348   4.006   2.227
 1296SOL     OW 5213   1.352   4.274   2.301
 1296SOL    HW2 5214   1.343   4.181   2.285
 1296SOL    HW3 5215   1.266   4.311   2.281
 1296SOL    MW4 5216   1.339   4.267   2.296
 1297SOL     OW 5217   1.570   4.406   2.172
 1297SOL    HW2 5218   1.499   4.359   2.216
 1297SOL    HW3 5219   1.573   4.491   2.215
 1297SOL    MW4 5220   1.561   4.411   2.183
 1298SOL     OW 5221   2.017   4.626   2.350
 1298SOL    HW2 5222   2.094   4.663   2.309
 1298SOL    HW3 5223   2.017   4.534   2.324
 1298SOL    MW4 5224   2.027   4.619   2.341
 1299SOL     OW 5225   1.807   0.097   2.227
 1299SOL    HW2 5226   1.807   0.187   2.260
 1299SOL    HW3 5227   1.883   0.057   2.268
 1299SOL    MW4 5228   1.817   0.104   2.237
 1300SOL     OW 5229   1.775   0.360   2.289
 1300SOL    HW2 5230   1.760   0.373   2.382
 1300SOL    HW3 5231   1.853   0.412   2.270
 1300SOL    MW4 5232   1.783   0.369   2.299
 1301SOL     OW 5233   2.000   0.503   2.222
 1301SOL    HW2 5234   2.014   0.595   2.245
 1301SOL    HW3 5235   2.005   0.501   2.126
 1301SOL    MW4 5236   2.002   0.515   2.212
 1302SOL     OW 5237   2.025   0.757   2.318
 1302SOL    HW2 5238   2.097   0.813   2.291
 1302SOL    HW3 5239   1.946   0.802   2.286
 1302SOL    MW4 5240   2.024   0.770   2.310
 1303SOL     OW 5241   1.806   0.871   2.228
 1303SOL    HW2 5242   1.821   0.958   2.264
 1303SOL    HW3 5243   1.802   0.884   2.133
 1303SOL    MW4 5244   1.807   0.884   2.220
 1304SOL     OW 5245   1.827   1.127   2.313
 1304SOL    HW2 5246   1.896   1.191   2.294
 1304SOL    HW3 5247   1.746   1.171   2.286
 1304SOL    MW4 5248   1.826   1.141   2.307
 1305SOL     OW 5249   2.029   1.303   2.208
 1305SOL    HW2 5250   1.990   1.386   2.238
 1305SOL    HW3 5251   2.042   1.315   2.114
 1305SOL    MW4 5252   2.025   1.316   2.200
 1306SOL     OW 5253   1.993   1.593   2.300
 1306SOL    HW2 5254   2.005   1.581   2.395
 1306SOL    HW3 5255   1.909   1.638   2.292
 1306SOL    MW4 5256   1.984   1.597   2.312
 1307SOL     OW 5257   1.745   1.714   2.229
 1307SOL    HW2 5258   1.758   1.802   2.265
 1307SOL    HW3 5259   1.778   1.720   2.139
 1307SOL    MW4 5260   1.751   1.726   2.222
 1308SOL     OW 5261   1.773   1.966   2.309
 1308SOL    HW2 5262   1.783   1.975   2.404
 1308SOL    HW3 5263   1.849   2.010   2.272
 1308SOL    MW4 5264   1.784   1.973   2.316
 1309SOL     OW 5265   2.013   2.090   2.189
 1309SOL    HW2 5266   2.077   2.026   2.220
 1309SOL    HW3 5267   2.031   2.099   2.096
 1309SOL    MW4 5268   2.024   2.083   2.181
 1310SOL     OW 5269   2.012   2.343   2.319
 1310SOL    HW2 5270   2.095   2.386   2.297
 1310SOL    HW3 5271   2.016   2.258   2.276
 1310SOL    MW4 5272   2.023   2.338   2.311
 1311SOL     OW 5273   1.796   2.439   2.169
 1311SOL    HW2 5274   1.857   2.387   2.221
 1311SOL    HW3 5275   1.711   2.421   2.208
 1311SOL    MW4 5276   1.793   2.430   2.181
 1312SOL     OW 5277   1.790   2.672   2.325
 1312SOL    HW2 5278   1.792   2.593   2.271
 1312SOL    HW3 5279   1.721   2.725   2.287
 1312SOL    MW4 5280   1.781   2.668   2.313
 1313SOL     OW 5281   1.996   2.827   2.199
 1313SOL    HW2 5282   2.076   2.784   2.231
 1313SOL    HW3 5283   1.925   2.779   2.242
 1313SOL    MW4 5284   1.997   2.815   2.209
 1314SOL     OW 5285   2.024   3.103   2.331
 1314SOL    HW2 5286   2.089   3.158   2.287
 1314SOL    HW3 5287   2.034   3.017   2.289
 1314SOL    MW4 5288   2.034   3.099   2.320
 1315SOL     OW 5289   1.805   3.207   2.211
 1315SOL    HW2 5290   1.881   3.183   2.263
 1315SOL    HW3 5291   1.732   3.159   2.250
 1315SOL    MW4 5292   1.805   3.197   2.223
 1316SOL     OW 5293   1.822   3.463   2.317
 1316SOL    HW2 5294   1.811   3.380   2.270
 1316SOL    HW3 5295   1.741   3.511   2.299
 1316SOL    MW4 5296   1.810   3.458   2.308
 1317SOL     OW 5297   2.008   3.633   2.223
 1317SOL    HW2 5298   1.954   3.557   2.245
 1317SOL    HW3 5299   2.032   3.620   2.131
 1317SOL    MW4 5300   2.004   3.621   2.214
 1318SOL     OW 5301   1.981   3.889   2.325
 1318SOL    HW2 5302   2.004   3.894   2.418
 1318SOL    HW3 5303   1.984   3.795   2.305
 1318SOL    MW4 5304   1.984   3.877   2.335
 1319SOL     OW 5305   1.767   4.026   2.197
 1319SOL    HW2 5306   1.846   3.991   2.238
 1319SOL    HW3 5307   1.780   4.010   2.103
 1319SOL    MW4 5308   1.779   4.019   2.190
 1320SOL     OW 5309   1.785   4.277   2.294
 1320SOL    HW2 5310   1.784   4.187   2.260
 1320SOL    HW3 5311   1.713   4.320   2.247
 1320SOL    MW4 5312   1.775   4.271   2.283
 1321SOL     OW 5313   2.043   4.365   2.247
 1321SOL    HW2 5314   1.957   4.328   2.268
 1321SOL    HW3 5315   2.044   4.372   2.152
 1321SOL    MW4 5316   2.032   4.361   2.237
 1322SOL     OW 5317   2.469   0.019   2.346
 1322SOL    HW2 5318   2.537   0.062   2.293
 1322SOL    HW3 5319   2.478  -0.074   2.327
 1322SOL    MW4 5320   2.479   0.012   2.337
 1323SOL     OW 5321   2.248   0.108   2.213
 1323SOL    HW2 5322   2.239   0.199   2.242
 1323SOL    HW3 5323   2.312   0.070   2.273
 1323SOL    MW4 5324   2.255   0.115   2.225
 1324SOL     OW 5325   2.239   0.376   2.311
 1324SOL    HW2 5326   2.318   0.419   2.277
 1324SOL    HW3 5327   2.167   0.430   2.281
 1324SOL    MW4 5328   2.240   0.389   2.303
 1325SOL     OW 5329   2.464   0.532   2.231
 1325SOL    HW2 5330   2.545   0.488   2.256
 1325SOL    HW3 5331   2.476   0.552   2.138
 1325SOL    MW4 5332   2.476   0.529   2.222
 1326SOL     OW 5333   2.412   0.803   2.326
 1326SOL    HW2 5334   2.494   0.844   2.299
 1326SOL    HW3 5335   2.423   0.711   2.302
 1326SOL    MW4 5336   2.424   0.796   2.319
 1327SOL     OW 5337   2.213   0.949   2.213
 1327SOL    HW2 5338   2.213   1.030   2.265
 1327SOL    HW3 5339   2.288   0.900   2.246
 1327SOL    MW4 5340   2.223   0.953   2.225
 1328SOL     OW 5341   2.242   1.185   2.356
 1328SOL    HW2 5342   2.314   1.226   2.307
 1328SOL    HW3 5343   2.163   1.220   2.316
 1328SOL    MW4 5344   2.241   1.195   2.344
 1329SOL     OW 5345   2.457   1.345   2.215
 1329SOL    HW2 5346   2.539   1.306   2.246
 1329SOL    HW3 5347   2.442   1.419   2.274
 1329SOL    MW4 5348   2.466   1.350   2.227
 1330SOL     OW 5349   2.420   1.561   2.363
 1330SOL    HW2 5350   2.435   1.570   2.457
 1330SOL    HW3 5351   2.491   1.611   2.323
 1330SOL    MW4 5352   2.432   1.569   2.370
 1331SOL     OW 5353   2.234   1.663   2.195
 1331SOL    HW2 5354   2.287   1.605   2.250
 1331SOL    HW3 5355   2.143   1.638   2.215
 1331SOL    MW4 5356   2.229   1.652   2.205
 1332SOL     OW 5357   2.205   1.920   2.286
 1332SOL    HW2 5358   2.278   1.982   2.282
 1332SOL    HW3 5359   2.240   1.839   2.251
 1332SOL    MW4 5360   2.219   1.917   2.281
 1333SOL     OW 5361   2.439   2.053   2.251
 1333SOL    HW2 5362   2.502   1.990   2.284
 1333SOL    HW3 5363   2.450   2.051   2.156
 1333SOL    MW4 5364   2.448   2.045   2.243
 1334SOL     OW 5365   2.467   2.303   2.368
 1334SOL    HW2 5366   2.540   2.349   2.327
 1334SOL    HW3 5367   2.462   2.219   2.322
 1334SOL    MW4 5368   2.476   2.298   2.357
 1335SOL     OW 5369   2.244   2.459   2.233
 1335SOL    HW2 5370   2.242   2.547   2.269
 1335SOL    HW3 5371   2.319   2.417   2.274
 1335SOL    MW4 5372   2.253   2.465   2.243
 1336SOL     OW 5373   2.241   2.711   2.305
 1336SOL    HW2 5374   2.235   2.735   2.397
 1336SOL    HW3 5375   2.313   2.766   2.271
 1336SOL    MW4 5376   2.250   2.721   2.313
 1337SOL     OW 5377   2.468   2.836   2.207
 1337SOL    HW2 5378   2.544   2.804   2.256
 1337SOL    HW3 5379   2.494   2.831   2.116
 1337SOL    MW4 5380   2.482   2.831   2.202
 1338SOL     OW 5381   2.425   3.080   2.328
 1338SOL    HW2 5382   2.497   3.139   2.307
 1338SOL    HW3 5383   2.443   3.001   2.277
 1338SOL    MW4 5384   2.437   3.077   2.318
 1339SOL     OW 5385   2.210   3.242   2.212
 1339SOL    HW2 5386   2.233   3.331   2.242
 1339SOL    HW3 5387   2.281   3.187   2.246
 1339SOL    MW4 5388   2.223   3.247   2.220
 1340SOL     OW 5389   2.246   3.542   2.302
 1340SOL    HW2 5390   2.249   3.535   2.397
 1340SOL    HW3 5391   2.162   3.584   2.283
 1340SOL    MW4 5392   2.235   3.547   2.312
 1341SOL     OW 5393   2.502   3.614   2.235
 1341SOL    HW2 5394   2.512   3.709   2.245
 1341SOL    HW3 5395   2.415   3.595   2.268
 1341SOL    MW4 5396   2.492   3.624   2.241
 1342SOL     OW 5397   2.499   3.875   2.335
 1342SOL    HW2 5398   2.486   3.854   2.427
 1342SOL    HW3 5399   2.423   3.929   2.312
 1342SOL    MW4 5400   2.487   3.880   2.344
 1343SOL     OW 5401   2.249   4.033   2.245
 1343SOL    HW2 5402   2.250   4.123   2.277
 1343SOL    HW3 5403   2.172   3.994   2.287
 1343SOL    MW4 5404   2.239   4.040   2.255
 1344SOL     OW 5405   2.296   4.287   2.346
 1344SOL    HW2 5406   2.290   4.282   2.442
 1344SOL    HW3 5407   2.215   4.331   2.320
 1344SOL    MW4 5408   2.284   4.292   2.355
 1345SOL     OW 5409   2.512   4.425   2.272
 1345SOL    HW2 5410   2.576   4.391   2.334
 1345SOL    HW3 5411   2.433   4.372   2.287
 1345SOL    MW4 5412   2.510   4.414   2.282
 1346SOL     OW 5413   2.907   0.045   2.321
 1346SOL    HW2 5414   2.984   0.099   2.302
 1346SOL    HW3 5415   2.933  -0.043   2.292
 1346SOL    MW4 5416   2.921   0.040   2.314
 1347SOL     OW 5417   2.674   0.147   2.187
 1347SOL    HW2 5418   2.662   0.232   2.228
 1347SOL    HW3 5419   2.763   0.120   2.213
 1347SOL    MW4 5420   2.684   0.154   2.196
 1348SOL     OW 5421   2.681   0.393   2.313
 1348SOL    HW2 5422   2.689   0.386   2.408
 1348SOL    HW3 5423   2.761   0.438   2.286
 1348SOL    MW4 5424   2.693   0.398   2.322
 1349SOL     OW 5425   2.903   0.508   2.232
 1349SOL    HW2 5426   2.897   0.601   2.256
 1349SOL    HW3 5427   2.894   0.507   2.137
 1349SOL    MW4 5428   2.901   0.520   2.223
 1350SOL     OW 5429   2.914   0.782   2.309
 1350SOL    HW2 5430   2.929   0.777   2.404
 1350SOL    HW3 5431   2.824   0.814   2.301
 1350SOL    MW4 5432   2.904   0.785   2.321
 1351SOL     OW 5433   2.676   0.923   2.269
 1351SOL    HW2 5434   2.658   1.004   2.317
 1351SOL    HW3 5435   2.719   0.952   2.188
 1351SOL    MW4 5436   2.679   0.937   2.265
 1352SOL     OW 5437   2.679   1.208   2.340
 1352SOL    HW2 5438   2.689   1.204   2.435
 1352SOL    HW3 5439   2.767   1.225   2.307
 1352SOL    MW4 5440   2.692   1.210   2.348
 1353SOL     OW 5441   2.916   1.305   2.253
 1353SOL    HW2 5442   2.988   1.258   2.295
 1353SOL    HW3 5443   2.926   1.286   2.160
 1353SOL    MW4 5444   2.927   1.296   2.246
 1354SOL     OW 5445   2.895   1.576   2.317
 1354SOL    HW2 5446   2.909   1.579   2.412
 1354SOL    HW3 5447   2.898   1.482   2.295
 1354SOL    MW4 5448   2.897   1.564   2.327
 1355SOL     OW 5449   2.652   1.668   2.246
 1355SOL    HW2 5450   2.738   1.635   2.269
 1355SOL    HW3 5451   2.647   1.659   2.151
 1355SOL    MW4 5452   2.662   1.662   2.237
 1356SOL     OW 5453   2.664   1.924   2.343
 1356SOL    HW2 5454   2.660   1.946   2.436
 1356SOL    HW3 5455   2.653   1.829   2.340
 1356SOL    MW4 5456   2.662   1.915   2.355
 1357SOL     OW 5457   2.914   2.056   2.250
 1357SOL    HW2 5458   2.996   2.013   2.276
 1357SOL    HW3 5459   2.846   1.994   2.276
 1357SOL    MW4 5460   2.916   2.042   2.257
 1358SOL     OW 5461   2.873   2.329   2.316
 1358SOL    HW2 5462   2.864   2.333   2.412
 1358SOL    HW3 5463   2.875   2.236   2.296
 1358SOL    MW4 5464   2.872   2.317   2.326
 1359SOL     OW 5465   2.654   2.442   2.205
 1359SOL    HW2 5466   2.728   2.398   2.247
 1359SOL    HW3 5467   2.679   2.446   2.112
 1359SOL    MW4 5468   2.667   2.437   2.198
 1360SOL     OW 5469   2.666   2.704   2.351
 1360SOL    HW2 5470   2.750   2.731   2.314
 1360SOL    HW3 5471   2.645   2.622   2.308
 1360SOL    MW4 5472   2.674   2.697   2.341
 1361SOL     OW 5473   2.879   2.820   2.225
 1361SOL    HW2 5474   2.878   2.905   2.270
 1361SOL    HW3 5475   2.876   2.843   2.132
 1361SOL    MW4 5476   2.878   2.834   2.219
 1362SOL     OW 5477   2.887   3.051   2.371
 1362SOL    HW2 5478   2.963   3.098   2.336
 1362SOL    HW3 5479   2.812   3.093   2.329
 1362SOL    MW4 5480   2.887   3.063   2.361
 1363SOL     OW 5481   2.674   3.184   2.253
 1363SOL    HW2 5482   2.688   3.277   2.267
 1363SOL    HW3 5483   2.698   3.169   2.162
 1363SOL    MW4 5484   2.679   3.194   2.243
 1364SOL     OW 5485   2.731   3.470   2.320
 1364SOL    HW2 5486   2.819   3.507   2.311
 1364SOL    HW3 5487   2.673   3.535   2.280
 1364SOL    MW4 5488   2.735   3.483   2.314
 1365SOL     OW 5489   2.918   3.689   2.258
 1365SOL    HW2 5490   3.003   3.648   2.273
 1365SOL    HW3 5491   2.925   3.774   2.301
 1365SOL    MW4 5492   2.930   3.695   2.265
 1366SOL     OW 5493   2.952   3.936   2.393
 1366SOL    HW2 5494   2.928   3.912   2.483
 1366SOL    HW3 5495   2.878   3.989   2.362
 1366SOL    MW4 5496   2.939   3.940   2.401
 1367SOL     OW 5497   2.708   4.077   2.279
 1367SOL    HW2 5498   2.635   4.018   2.296
 1367SOL    HW3 5499   2.708   4.088   2.184
 1367SOL    MW4 5500   2.699   4.071   2.268
 1368SOL     OW 5501   2.710   4.307   2.429
 1368SOL    HW2 5502   2.707   4.300   2.524
 1368SOL    HW3 5503   2.701   4.217   2.398
 1368SOL    MW4 5504   2.708   4.294   2.437
 1369SOL     OW 5505   2.902   4.441   2.280
 1369SOL    HW2 5506   2.978   4.386   2.304
 1369SOL    HW3 5507   2.830   4.404   2.331
 1369SOL    MW4 5508   2.903   4.429   2.290
 1370SOL     OW 5509   3.331   4.666   2.380
 1370SOL    HW2 5510   3.347   4.647   2.472
 1370SOL    HW3 5511   3.404   4.722   2.354
 1370SOL    MW4 5512   3.342   4.671   2.389
 1371SOL     OW 5513   3.143   0.168   2.247
 1371SOL    HW2 5514   3.146   0.246   2.302
 1371SOL    HW3 5515   3.197   0.104   2.294
 1371SOL    MW4 5516   3.150   0.170   2.261
 1372SOL     OW 5517   3.102   0.399   2.391
 1372SOL    HW2 5518   3.187   0.425   2.356
 1372SOL    HW3 5519   3.038   0.444   2.336
 1372SOL    MW4 5520   3.104   0.408   2.379
 1373SOL     OW 5521   3.329   0.503   2.256
 1373SOL    HW2 5522   3.406   0.474   2.306
 1373SOL    HW3 5523   3.351   0.484   2.165
 1373SOL    MW4 5524   3.342   0.496   2.250
 1374SOL     OW 5525   3.309   0.767   2.314
 1374SOL    HW2 5526   3.389   0.815   2.291
 1374SOL    HW3 5527   3.330   0.675   2.300
 1374SOL    MW4 5528   3.322   0.762   2.309
 1375SOL     OW 5529   3.117   0.909   2.190
 1375SOL    HW2 5530   3.188   0.859   2.231
 1375SOL    HW3 5531   3.038   0.865   2.220
 1375SOL    MW4 5532   3.116   0.897   2.199
 1376SOL     OW 5533   3.133   1.152   2.336
 1376SOL    HW2 5534   3.211   1.197   2.302
 1376SOL    HW3 5535   3.141   1.063   2.303
 1376SOL    MW4 5536   3.144   1.146   2.327
 1377SOL     OW 5537   3.339   1.284   2.243
 1377SOL    HW2 5538   3.426   1.256   2.271
 1377SOL    HW3 5539   3.340   1.379   2.254
 1377SOL    MW4 5540   3.351   1.293   2.249
 1378SOL     OW 5541   3.334   1.561   2.314
 1378SOL    HW2 5542   3.322   1.580   2.407
 1378SOL    HW3 5543   3.259   1.602   2.272
 1378SOL    MW4 5544   3.322   1.569   2.321
 1379SOL     OW 5545   3.119   1.703   2.213
 1379SOL    HW2 5546   3.126   1.792   2.248
 1379SOL    HW3 5547   3.035   1.670   2.246
 1379SOL    MW4 5548   3.109   1.710   2.222
 1380SOL     OW 5549   3.155   1.930   2.344
 1380SOL    HW2 5550   3.159   1.918   2.438
 1380SOL    HW3 5551   3.226   1.992   2.324
 1380SOL    MW4 5552   3.165   1.937   2.354
 1381SOL     OW 5553   3.378   2.080   2.210
 1381SOL    HW2 5554   3.451   2.026   2.242
 1381SOL    HW3 5555   3.380   2.070   2.115
 1381SOL    MW4 5556   3.388   2.072   2.202
 1382SOL     OW 5557   3.374   2.320   2.329
 1382SOL    HW2 5558   3.286   2.350   2.305
 1382SOL    HW3 5559   3.384   2.237   2.282
 1382SOL    MW4 5560   3.364   2.313   2.320
 1383SOL     OW 5561   3.130   2.433   2.248
 1383SOL    HW2 5562   3.107   2.523   2.269
 1383SOL    HW3 5563   3.056   2.381   2.278
 1383SOL    MW4 5564   3.117   2.438   2.255
 1384SOL     OW 5565   3.125   2.703   2.312
 1384SOL    HW2 5566   3.114   2.701   2.407
 1384SOL    HW3 5567   3.054   2.759   2.280
 1384SOL    MW4 5568   3.114   2.710   2.320
 1385SOL     OW 5569   3.356   2.838   2.241
 1385SOL    HW2 5570   3.343   2.928   2.270
 1385SOL    HW3 5571   3.276   2.792   2.268
 1385SOL    MW4 5572   3.344   2.844   2.249
 1386SOL     OW 5573   3.331   3.111   2.329
 1386SOL    HW2 5574   3.406   3.154   2.288
 1386SOL    HW3 5575   3.255   3.156   2.291
 1386SOL    MW4 5576   3.331   3.123   2.318
 1387SOL     OW 5577   3.095   3.214   2.263
 1387SOL    HW2 5578   3.092   3.305   2.292
 1387SOL    HW3 5579   3.108   3.219   2.168
 1387SOL    MW4 5580   3.097   3.226   2.254
 1388SOL     OW 5581   3.098   3.491   2.314
 1388SOL    HW2 5582   3.103   3.490   2.410
 1388SOL    HW3 5583   3.184   3.522   2.286
 1388SOL    MW4 5584   3.110   3.495   2.323
 1389SOL     OW 5585   3.339   3.613   2.253
 1389SOL    HW2 5586   3.413   3.558   2.277
 1389SOL    HW3 5587   3.351   3.631   2.160
 1389SOL    MW4 5588   3.350   3.608   2.244
 1390SOL     OW 5589   3.392   3.883   2.358
 1390SOL    HW2 5590   3.466   3.936   2.331
 1390SOL    HW3 5591   3.413   3.795   2.327
 1390SOL    MW4 5592   3.404   3.878   2.350
 1391SOL     OW 5593   3.170   4.035   2.264
 1391SOL    HW2 5594   3.248   3.981   2.277
 1391SOL    HW3 5595   3.104   3.997   2.322
 1391SOL    MW4 5596   3.172   4.023   2.273
 1392SOL     OW 5597   3.142   4.307   2.332
 1392SOL    HW2 5598   3.225   4.352   2.313
 1392SOL    HW3 5599   3.155   4.218   2.298
 1392SOL    MW4 5600   3.155   4.301   2.325
 1393SOL     OW 5601   3.384   4.398   2.278
 1393SOL    HW2 5602   3.372   4.492   2.294
 1393SOL    HW3 5603   3.371   4.387   2.184
 1393SOL    MW4 5604   3.381   4.409   2.268
 1394SOL     OW 5605   3.765   0.038   2.401
 1394SOL    HW2 5606   3.780   0.018   2.493
 1394SOL    HW3 5607   3.848   0.072   2.369
 1394SOL    MW4 5608   3.778   0.040   2.409
 1395SOL     OW 5609   3.537   0.149   2.283
 1395SOL    HW2 5610   3.537   0.236   2.323
 1395SOL    HW3 5611   3.614   0.106   2.320
 1395SOL    MW4 5612   3.547   0.155   2.294
 1396SOL     OW 5613   3.542   0.403   2.399
 1396SOL    HW2 5614   3.572   0.384   2.488
 1396SOL    HW3 5615   3.621   0.429   2.352
 1396SOL    MW4 5616   3.556   0.404   2.405
 1397SOL     OW 5617   3.768   0.513   2.256
 1397SOL    HW2 5618   3.790   0.596   2.296
 1397SOL    HW3 5619   3.780   0.527   2.162
 1397SOL    MW4 5620   3.772   0.526   2.249
 1398SOL     OW 5621   3.792   0.775   2.330
 1398SOL    HW2 5622   3.783   0.775   2.426
 1398SOL    HW3 5623   3.871   0.826   2.313
 1398SOL    MW4 5624   3.801   0.782   2.341
 1399SOL     OW 5625   3.551   0.906   2.263
 1399SOL    HW2 5626   3.624   0.849   2.290
 1399SOL    HW3 5627   3.566   0.920   2.169
 1399SOL    MW4 5628   3.563   0.900   2.254
 1400SOL     OW 5629   3.578   1.196   2.332
 1400SOL    HW2 5630   3.567   1.201   2.427
 1400SOL    HW3 5631   3.587   1.102   2.315
 1400SOL    MW4 5632   3.577   1.184   2.342
 1401SOL     OW 5633   3.828   1.288   2.226
 1401SOL    HW2 5634   3.840   1.379   2.254
 1401SOL    HW3 5635   3.751   1.258   2.274
 1401SOL    MW4 5636   3.820   1.296   2.236
 1402SOL     OW 5637   3.845   1.544   2.337
 1402SOL    HW2 5638   3.826   1.524   2.428
 1402SOL    HW3 5639   3.762   1.572   2.300
 1402SOL    MW4 5640   3.832   1.545   2.344
 1403SOL     OW 5641   3.599   1.640   2.246
 1403SOL    HW2 5642   3.512   1.620   2.283
 1403SOL    HW3 5643   3.582   1.659   2.154
 1403SOL    MW4 5644   3.585   1.640   2.239
 1404SOL     OW 5645   3.569   1.912   2.317
 1404SOL    HW2 5646   3.653   1.937   2.277
 1404SOL    HW3 5647   3.566   1.817   2.306
 1404SOL    MW4 5648   3.580   1.903   2.310
 1405SOL     OW 5649   3.807   2.025   2.236
 1405SOL    HW2 5650   3.886   1.978   2.262
 1405SOL    HW3 5651   3.809   2.025   2.140
 1405SOL    MW4 5652   3.818   2.019   2.227
 1406SOL     OW 5653   3.816   2.307   2.298
 1406SOL    HW2 5654   3.728   2.339   2.280
 1406SOL    HW3 5655   3.810   2.212   2.292
 1406SOL    MW4 5656   3.804   2.299   2.295
 1407SOL     OW 5657   3.588   2.476   2.222
 1407SOL    HW2 5658   3.520   2.415   2.250
 1407SOL    HW3 5659   3.601   2.456   2.129
 1407SOL    MW4 5660   3.581   2.465   2.214
 1408SOL     OW 5661   3.581   2.727   2.354
 1408SOL    HW2 5662   3.597   2.646   2.306
 1408SOL    HW3 5663   3.506   2.767   2.309
 1408SOL    MW4 5664   3.573   2.721   2.342
 1409SOL     OW 5665   3.821   2.857   2.270
 1409SOL    HW2 5666   3.839   2.949   2.288
 1409SOL    HW3 5667   3.739   2.839   2.316
 1409SOL    MW4 5668   3.813   2.867   2.279
 1410SOL     OW 5669   3.825   3.128   2.359
 1410SOL    HW2 5670   3.846   3.111   2.451
 1410SOL    HW3 5671   3.909   3.152   2.320
 1410SOL    MW4 5672   3.839   3.129   2.366
 1411SOL     OW 5673   3.571   3.232   2.249
 1411SOL    HW2 5674   3.547   3.312   2.296
 1411SOL    HW3 5675   3.651   3.202   2.293
 1411SOL    MW4 5676   3.578   3.239   2.261
 1412SOL     OW 5677   3.561   3.478   2.344
 1412SOL    HW2 5678   3.555   3.484   2.440
 1412SOL    HW3 5679   3.651   3.504   2.324
 1412SOL    MW4 5680   3.572   3.482   2.354
 1413SOL     OW 5681   3.815   3.585   2.262
 1413SOL    HW2 5682   3.814   3.676   2.291
 1413SOL    HW3 5683   3.800   3.590   2.168
 1413SOL    MW4 5684   3.813   3.598   2.254
 1414SOL     OW 5685   3.813   3.865   2.364
 1414SOL    HW2 5686   3.813   3.861   2.459
 1414SOL    HW3 5687   3.893   3.914   2.342
 1414SOL    MW4 5688   3.824   3.871   2.373
 1415SOL     OW 5689   3.625   4.048   2.283
 1415SOL    HW2 5690   3.633   4.138   2.315
 1415SOL    HW3 5691   3.695   4.000   2.329
 1415SOL    MW4 5692   3.635   4.054   2.293
 1416SOL     OW 5693   3.623   4.352   2.391
 1416SOL    HW2 5694   3.680   4.415   2.345
 1416SOL    HW3 5695   3.535   4.372   2.358
 1416SOL    MW4 5696   3.619   4.363   2.380
 1417SOL     OW 5697   3.819   4.487   2.230
 1417SOL    HW2 5698   3.877   4.425   2.273
 1417SOL    HW3 5699   3.820   4.564   2.286
 1417SOL    MW4 5700   3.827   4.489   2.243
 1418SOL     OW 5701   4.232   4.647   2.329
 1418SOL    HW2 5702   4.258   4.643   2.421
 1418SOL    HW3 5703   4.308   4.684   2.284
 1418SOL    MW4 5704   4.245   4.651   2.335
 1419SOL     OW 5705   3.984   0.120   2.242
 1419SOL    HW2 5706   4.006   0.209   2.267
 1419SOL    HW3 5707   4.059   0.068   2.272
 1419SOL    MW4 5708   3.997   0.125   2.249
 1420SOL     OW 5709   3.998   0.392   2.344
 1420SOL    HW2 5710   4.075   0.413   2.291
 1420SOL    HW3 5711   3.925   0.431   2.296
 1420SOL    MW4 5712   3.998   0.400   2.331
 1421SOL     OW 5713   4.229   0.475   2.205
 1421SOL    HW2 5714   4.241   0.559   2.250
 1421SOL    HW3 5715   4.297   0.418   2.242
 1421SOL    MW4 5716   4.240   0.479   2.216
 1422SOL     OW 5717   4.274   0.728   2.326
 1422SOL    HW2 5718   4.190   0.772   2.311
 1422SOL    HW3 5719   4.339   0.786   2.287
 1422SOL    MW4 5720   4.271   0.742   2.319
 1423SOL     OW 5721   4.052   0.897   2.278
 1423SOL    HW2 5722   4.069   0.985   2.312
 1423SOL    HW3 5723   4.055   0.907   2.183
 1423SOL    MW4 5724   4.055   0.910   2.270
 1424SOL     OW 5725   4.080   1.168   2.331
 1424SOL    HW2 5726   4.060   1.172   2.424
 1424SOL    HW3 5727   4.007   1.213   2.289
 1424SOL    MW4 5728   4.068   1.174   2.338
 1425SOL     OW 5729   4.311   1.256   2.210
 1425SOL    HW2 5730   4.238   1.224   2.263
 1425SOL    HW3 5731   4.386   1.203   2.237
 1425SOL    MW4 5732   4.311   1.245   2.221
 1426SOL     OW 5733   4.300   1.502   2.316
 1426SOL    HW2 5734   4.317   1.416   2.276
 1426SOL    HW3 5735   4.366   1.559   2.278
 1426SOL    MW4 5736   4.311   1.498   2.306
 1427SOL     OW 5737   4.068   1.648   2.236
 1427SOL    HW2 5738   4.139   1.598   2.278
 1427SOL    HW3 5739   3.988   1.608   2.269
 1427SOL    MW4 5740   4.067   1.636   2.246
 1428SOL     OW 5741   4.049   1.930   2.326
 1428SOL    HW2 5742   4.062   1.926   2.420
 1428SOL    HW3 5743   4.063   1.840   2.296
 1428SOL    MW4 5744   4.053   1.917   2.334
 1429SOL     OW 5745   4.254   2.085   2.214
 1429SOL    HW2 5746   4.235   2.166   2.262
 1429SOL    HW3 5747   4.182   2.026   2.236
 1429SOL    MW4 5748   4.242   2.088   2.223
 1430SOL     OW 5749   4.241   2.331   2.348
 1430SOL    HW2 5750   4.164   2.372   2.307
 1430SOL    HW3 5751   4.314   2.355   2.292
 1430SOL    MW4 5752   4.240   2.339   2.336
 1431SOL     OW 5753   4.041   2.479   2.220
 1431SOL    HW2 5754   4.033   2.566   2.258
 1431SOL    HW3 5755   3.964   2.431   2.251
 1431SOL    MW4 5756   4.029   2.484   2.229
 1432SOL     OW 5757   4.033   2.706   2.354
 1432SOL    HW2 5758   4.040   2.690   2.448
 1432SOL    HW3 5759   3.950   2.752   2.344
 1432SOL    MW4 5760   4.023   2.710   2.365
 1433SOL     OW 5761   4.270   2.780   2.233
 1433SOL    HW2 5762   4.200   2.752   2.292
 1433SOL    HW3 5763   4.350   2.748   2.273
 1433SOL    MW4 5764   4.271   2.772   2.246
 1434SOL     OW 5765   4.256   3.036   2.350
 1434SOL    HW2 5766   4.267   2.949   2.313
 1434SOL    HW3 5767   4.341   3.079   2.337
 1434SOL    MW4 5768   4.269   3.030   2.343
 1435SOL     OW 5769   4.055   3.201   2.226
 1435SOL    HW2 5770   4.078   3.285   2.265
 1435SOL    HW3 5771   4.123   3.141   2.257
 1435SOL    MW4 5772   4.067   3.204   2.235
 1436SOL     OW 5773   4.079   3.455   2.331
 1436SOL    HW2 5774   4.158   3.507   2.313
 1436SOL    HW3 5775   4.008   3.507   2.293
 1436SOL    MW4 5776   4.080   3.469   2.324
 1437SOL     OW 5777   4.295   3.617   2.272
 1437SOL    HW2 5778   4.275   3.708   2.292
 1437SOL    HW3 5779   4.279   3.610   2.177
 1437SOL    MW4 5780   4.290   3.628   2.262
 1438SOL     OW 5781   4.252   3.882   2.310
 1438SOL    HW2 5782   4.253   3.879   2.405
 1438SOL    HW3 5783   4.326   3.938   2.286
 1438SOL    MW4 5784   4.262   3.889   2.319
 1439SOL     OW 5785   4.024   4.031   2.248
 1439SOL    HW2 5786   4.103   3.991   2.283
 1439SOL    HW3 5787   4.033   4.025   2.153
 1439SOL    MW4 5788   4.035   4.025   2.240
 1440SOL     OW 5789   3.986   4.298   2.331
 1440SOL    HW2 5790   4.066   4.323   2.284
 1440SOL    HW3 5791   3.964   4.211   2.296
 1440SOL    MW4 5792   3.993   4.290   2.320
 1441SOL     OW 5793   4.243   4.395   2.238
 1441SOL    HW2 5794   4.245   4.486   2.265
 1441SOL    HW3 5795   4.323   4.357   2.274
 1441SOL    MW4 5796   4.254   4.402   2.246
 1442SOL     OW 5797   0.246   0.016   2.602
 1442SOL    HW2 5798   0.236  -0.074   2.634
 1442SOL    HW3 5799   0.164   0.059   2.624
 1442SOL    MW4 5800   0.234   0.010   2.609
 1443SOL     OW 5801   0.004   0.129   2.661
 1443SOL    HW2 5802   0.013   0.121   2.756
 1443SOL    HW3 5803  -0.011   0.223   2.647
 1443SOL    MW4 5804   0.003   0.140   2.672
 1444SOL     OW 5805   4.466   0.404   2.595
 1444SOL    HW2 5806   4.557   0.431   2.607
 1444SOL    HW3 5807   4.459   0.389   2.500
 1444SOL    MW4 5808   4.477   0.405   2.584
 1445SOL     OW 5809   0.242   0.520   2.652
 1445SOL    HW2 5810   0.235   0.525   2.747
 1445SOL    HW3 5811   0.324   0.474   2.636
 1445SOL    MW4 5812   0.252   0.515   2.662
 1446SOL     OW 5813   0.220   0.788   2.574
 1446SOL    HW2 5814   0.297   0.820   2.622
 1446SOL    HW3 5815   0.215   0.695   2.597
 1446SOL    MW4 5816   0.230   0.780   2.583
 1447SOL     OW 5817   4.475   0.901   2.686
 1447SOL    HW2 5818   4.418   0.826   2.669
 1447SOL    HW3 5819   4.558   0.878   2.642
 1447SOL    MW4 5820   4.479   0.888   2.678
 1448SOL     OW 5821   4.443   1.149   2.577
 1448SOL    HW2 5822   4.516   1.195   2.620
 1448SOL    HW3 5823   4.444   1.061   2.616
 1448SOL    MW4 5824   4.453   1.143   2.588
 1449SOL     OW 5825   0.163   1.276   2.683
 1449SOL    HW2 5826   0.240   1.235   2.645
 1449SOL    HW3 5827   0.172   1.369   2.661
 1449SOL    MW4 5828   0.174   1.283   2.675
 1450SOL     OW 5829   0.229   1.533   2.650
 1450SOL    HW2 5830   0.304   1.583   2.682
 1450SOL    HW3 5831   0.153   1.587   2.671
 1450SOL    MW4 5832   0.229   1.547   2.657
 1451SOL     OW 5833   4.471   1.651   2.706
 1451SOL    HW2 5834   4.453   1.643   2.799
 1451SOL    HW3 5835   4.466   1.745   2.689
 1451SOL    MW4 5836   4.468   1.662   2.716
 1452SOL     OW 5837   4.451   1.921   2.632
 1452SOL    HW2 5838   4.535   1.961   2.656
 1452SOL    HW3 5839   4.455   1.911   2.537
 1452SOL    MW4 5840   4.463   1.925   2.623
 1453SOL     OW 5841   0.200   2.048   2.688
 1453SOL    HW2 5842   0.288   2.014   2.673
 1453SOL    HW3 5843   0.202   2.137   2.652
 1453SOL    MW4 5844   0.212   2.056   2.681
 1454SOL     OW 5845   0.213   2.295   2.566
 1454SOL    HW2 5846   0.301   2.327   2.589
 1454SOL    HW3 5847   0.153   2.356   2.609
 1454SOL    MW4 5848   0.217   2.307   2.575
 1455SOL     OW 5849   0.038   2.450   2.716
 1455SOL    HW2 5850   0.023   2.444   2.810
 1455SOL    HW3 5851  -0.028   2.391   2.678
 1455SOL    MW4 5852   0.027   2.441   2.723
 1456SOL     OW 5853   4.474   2.701   2.630
 1456SOL    HW2 5854   4.400   2.740   2.675
 1456SOL    HW3 5855   4.483   2.614   2.669
 1456SOL    MW4 5856   4.466   2.694   2.641
 1457SOL     OW 5857   0.193   2.805   2.776
 1457SOL    HW2 5858   0.206   2.889   2.734
 1457SOL    HW3 5859   0.105   2.778   2.748
 1457SOL    MW4 5860   0.183   2.812   2.767
 1458SOL     OW 5861   0.237   3.059   2.642
 1458SOL    HW2 5862   0.314   3.115   2.654
 1458SOL    HW3 5863   0.227   3.051   2.547
 1458SOL    MW4 5864   0.246   3.065   2.631
 1459SOL     OW 5865   0.006   3.207   2.703
 1459SOL    HW2 5866  -0.076   3.162   2.681
 1459SOL    HW3 5867   0.074   3.142   2.687
 1459SOL    MW4 5868   0.004   3.193   2.698
 1460SOL     OW 5869   4.471   3.453   2.603
 1460SOL    HW2 5870   4.553   3.492   2.636
 1460SOL    HW3 5871   4.479   3.360   2.625
 1460SOL    MW4 5872   4.483   3.446   2.610
 1461SOL     OW 5873   0.209   3.566   2.724
 1461SOL    HW2 5874   0.212   3.575   2.819
 1461SOL    HW3 5875   0.291   3.520   2.702
 1461SOL    MW4 5876   0.220   3.561   2.733
 1462SOL     OW 5877   0.224   3.845   2.619
 1462SOL    HW2 5878   0.233   3.751   2.633
 1462SOL    HW3 5879   0.227   3.856   2.524
 1462SOL    MW4 5880   0.225   3.834   2.608
 1463SOL     OW 5881   4.486   3.987   2.675
 1463SOL    HW2 5882   4.500   4.078   2.652
 1463SOL    HW3 5883   4.564   3.942   2.643
 1463SOL    MW4 5884   4.498   3.993   2.668
 1464SOL     OW 5885   0.007   4.253   2.587
 1464SOL    HW2 5886  -0.051   4.299   2.648
 1464SOL    HW3 5887   0.095   4.283   2.611
 1464SOL    MW4 5888   0.011   4.263   2.598
 1465SOL     OW 5889   0.246   4.421   2.708
 1465SOL    HW2 5890   0.248   4.395   2.800
 1465SOL    HW3 5891   0.315   4.368   2.667
 1465SOL    MW4 5892   0.255   4.411   2.715
 1466SOL     OW 5893   0.693   4.652   2.598
 1466SOL    HW2 5894   0.761   4.719   2.606
 1466SOL    HW3 5895   0.621   4.685   2.652
 1466SOL    MW4 5896   0.693   4.665   2.606
 1467SOL     OW 5897   0.475   0.108   2.703
 1467SOL    HW2 5898   0.454   0.115   2.796
 1467SOL    HW3 5899   0.392   0.083   2.662
 1467SOL    MW4 5900   0.461   0.106   2.710
 1468SOL     OW 5901   0.482   0.367   2.597
 1468SOL    HW2 5902   0.543   0.403   2.662
 1468SOL    HW3 5903   0.476   0.274   2.618
 1468SOL    MW4 5904   0.489   0.360   2.608
 1469SOL     OW 5905   0.663   0.569   2.747
 1469SOL    HW2 5906   0.666   0.549   2.841
 1469SOL    HW3 5907   0.732   0.515   2.709
 1469SOL    MW4 5908   0.673   0.560   2.754
 1470SOL     OW 5909   0.645   0.798   2.590
 1470SOL    HW2 5910   0.737   0.822   2.605
 1470SOL    HW3 5911   0.633   0.718   2.641
 1470SOL    MW4 5912   0.655   0.791   2.599
 1471SOL     OW 5913   0.420   0.893   2.715
 1471SOL    HW2 5914   0.421   0.984   2.686
 1471SOL    HW3 5915   0.504   0.857   2.689
 1471SOL    MW4 5916   0.431   0.900   2.708
 1472SOL     OW 5917   0.395   1.137   2.590
 1472SOL    HW2 5918   0.481   1.176   2.605
 1472SOL    HW3 5919   0.389   1.128   2.495
 1472SOL    MW4 5920   0.405   1.141   2.580
 1473SOL     OW 5921   0.637   1.258   2.651
 1473SOL    HW2 5922   0.623   1.239   2.743
 1473SOL    HW3 5923   0.722   1.219   2.631
 1473SOL    MW4 5924   0.647   1.251   2.660
 1474SOL     OW 5925   0.669   1.542   2.626
 1474SOL    HW2 5926   0.596   1.584   2.670
 1474SOL    HW3 5927   0.660   1.449   2.646
 1474SOL    MW4 5928   0.658   1.536   2.635
 1475SOL     OW 5929   0.451   1.688   2.732
 1475SOL    HW2 5930   0.443   1.688   2.828
 1475SOL    HW3 5931   0.458   1.781   2.709
 1475SOL    MW4 5932   0.451   1.700   2.742
 1476SOL     OW 5933   0.449   1.965   2.632
 1476SOL    HW2 5934   0.523   2.016   2.664
 1476SOL    HW3 5935   0.466   1.954   2.539
 1476SOL    MW4 5936   0.461   1.970   2.624
 1477SOL     OW 5937   0.712   2.062   2.693
 1477SOL    HW2 5938   0.722   2.056   2.788
 1477SOL    HW3 5939   0.775   1.999   2.659
 1477SOL    MW4 5940   0.722   2.053   2.701
 1478SOL     OW 5941   0.685   2.317   2.606
 1478SOL    HW2 5942   0.766   2.365   2.625
 1478SOL    HW3 5943   0.700   2.230   2.644
 1478SOL    MW4 5944   0.698   2.312   2.614
 1479SOL     OW 5945   0.425   2.409   2.689
 1479SOL    HW2 5946   0.425   2.503   2.675
 1479SOL    HW3 5947   0.514   2.381   2.668
 1479SOL    MW4 5948   0.437   2.417   2.684
 1480SOL     OW 5949   0.403   2.675   2.652
 1480SOL    HW2 5950   0.475   2.733   2.678
 1480SOL    HW3 5951   0.326   2.710   2.698
 1480SOL    MW4 5952   0.402   2.687   2.662
 1481SOL     OW 5953   0.634   2.821   2.724
 1481SOL    HW2 5954   0.645   2.822   2.819
 1481SOL    HW3 5955   0.651   2.911   2.697
 1481SOL    MW4 5956   0.638   2.833   2.733
 1482SOL     OW 5957   0.670   3.078   2.596
 1482SOL    HW2 5958   0.745   3.127   2.630
 1482SOL    HW3 5959   0.684   3.075   2.502
 1482SOL    MW4 5960   0.682   3.084   2.588
 1483SOL     OW 5961   0.451   3.226   2.698
 1483SOL    HW2 5962   0.459   3.212   2.793
 1483SOL    HW3 5963   0.514   3.165   2.660
 1483SOL    MW4 5964   0.460   3.216   2.706
 1484SOL     OW 5965   0.441   3.471   2.585
 1484SOL    HW2 5966   0.441   3.378   2.609
 1484SOL    HW3 5967   0.430   3.471   2.490
 1484SOL    MW4 5968   0.440   3.459   2.576
 1485SOL     OW 5969   0.659   3.596   2.664
 1485SOL    HW2 5970   0.668   3.581   2.759
 1485SOL    HW3 5971   0.579   3.550   2.640
 1485SOL    MW4 5972   0.649   3.588   2.674
 1486SOL     OW 5973   0.670   3.875   2.613
 1486SOL    HW2 5974   0.593   3.922   2.643
 1486SOL    HW3 5975   0.650   3.783   2.630
 1486SOL    MW4 5976   0.657   3.869   2.619
 1487SOL     OW 5977   0.462   4.019   2.692
 1487SOL    HW2 5978   0.450   4.108   2.658
 1487SOL    HW3 5979   0.379   3.975   2.674
 1487SOL    MW4 5980   0.450   4.025   2.686
 1488SOL     OW 5981   0.443   4.274   2.611
 1488SOL    HW2 5982   0.522   4.315   2.645
 1488SOL    HW3 5983   0.449   4.285   2.516
 1488SOL    MW4 5984   0.454   4.281   2.603
 1489SOL     OW 5985   0.649   4.408   2.715
 1489SOL    HW2 5986   0.705   4.340   2.678
 1489SOL    HW3 5987   0.678   4.489   2.673
 1489SOL    MW4 5988   0.660   4.409   2.704
 1490SOL     OW 5989   1.119   4.617   2.599
 1490SOL    HW2 5990   1.199   4.660   2.629
 1490SOL    HW3 5991   1.119   4.532   2.643
 1490SOL    MW4 5992   1.129   4.611   2.609
 1491SOL     OW 5993   0.929   0.140   2.684
 1491SOL    HW2 5994   0.938   0.150   2.779
 1491SOL    HW3 5995   0.990   0.070   2.661
 1491SOL    MW4 5996   0.938   0.132   2.694
 1492SOL     OW 5997   0.836   0.386   2.620
 1492SOL    HW2 5998   0.874   0.300   2.637
 1492SOL    HW3 5999   0.855   0.403   2.527
 1492SOL    MW4 6000   0.843   0.377   2.610
 1493SOL     OW 6001   1.114   0.483   2.706
 1493SOL    HW2 6002   1.113   0.566   2.658
 1493SOL    HW3 6003   1.023   0.453   2.701
 1493SOL    MW4 6004   1.102   0.490   2.699
 1494SOL     OW 6005   1.133   0.727   2.573
 1494SOL    HW2 6006   1.207   0.783   2.594
 1494SOL    HW3 6007   1.117   0.742   2.480
 1494SOL    MW4 6008   1.140   0.736   2.563
 1495SOL     OW 6009   0.900   0.886   2.647
 1495SOL    HW2 6010   0.894   0.900   2.742
 1495SOL    HW3 6011   0.984   0.841   2.635
 1495SOL    MW4 6012   0.910   0.882   2.658
 1496SOL     OW 6013   0.880   1.162   2.570
 1496SOL    HW2 6014   0.903   1.076   2.605
 1496SOL    HW3 6015   0.895   1.155   2.476
 1496SOL    MW4 6016   0.885   1.150   2.562
 1497SOL     OW 6017   1.096   1.302   2.686
 1497SOL    HW2 6018   1.109   1.396   2.669
 1497SOL    HW3 6019   1.014   1.280   2.641
 1497SOL    MW4 6020   1.087   1.312   2.678
 1498SOL     OW 6021   1.132   1.594   2.647
 1498SOL    HW2 6022   1.048   1.613   2.689
 1498SOL    HW3 6023   1.111   1.586   2.554
 1498SOL    MW4 6024   1.119   1.595   2.640
 1499SOL     OW 6025   0.872   1.713   2.711
 1499SOL    HW2 6026   0.860   1.729   2.805
 1499SOL    HW3 6027   0.799   1.656   2.688
 1499SOL    MW4 6028   0.861   1.708   2.721
 1500SOL     OW 6029   0.907   1.920   2.539
 1500SOL    HW2 6030   0.979   1.973   2.573
 1500SOL    HW3 6031   0.911   1.838   2.588
 1500SOL    MW4 6032   0.917   1.916   2.550
 1501SOL     OW 6033   1.101   2.037   2.712
 1501SOL    HW2 6034   1.173   2.001   2.660
 1501SOL    HW3 6035   1.104   2.131   2.694
 1501SOL    MW4 6036   1.111   2.045   2.703
 1502SOL     OW 6037   1.134   2.313   2.614
 1502SOL    HW2 6038   1.219   2.354   2.632
 1502SOL    HW3 6039   1.122   2.324   2.520
 1502SOL    MW4 6040   1.144   2.320   2.604
 1503SOL     OW 6041   0.904   2.428   2.735
 1503SOL    HW2 6042   0.899   2.515   2.697
 1503SOL    HW3 6043   0.978   2.386   2.690
 1503SOL    MW4 6044   0.913   2.434   2.724
 1504SOL     OW 6045   0.874   2.683   2.618
 1504SOL    HW2 6046   0.942   2.746   2.640
 1504SOL    HW3 6047   0.792   2.724   2.645
 1504SOL    MW4 6048   0.872   2.697   2.625
 1505SOL     OW 6049   1.083   2.832   2.689
 1505SOL    HW2 6050   1.106   2.825   2.782
 1505SOL    HW3 6051   1.159   2.795   2.643
 1505SOL    MW4 6052   1.096   2.826   2.695
 1506SOL     OW 6053   1.148   3.096   2.606
 1506SOL    HW2 6054   1.122   3.007   2.629
 1506SOL    HW3 6055   1.136   3.101   2.511
 1506SOL    MW4 6056   1.143   3.085   2.596
 1507SOL     OW 6057   0.919   3.208   2.706
 1507SOL    HW2 6058   0.903   3.286   2.653
 1507SOL    HW3 6059   1.006   3.179   2.678
 1507SOL    MW4 6060   0.928   3.215   2.695
 1508SOL     OW 6061   0.887   3.462   2.575
 1508SOL    HW2 6062   0.961   3.508   2.617
 1508SOL    HW3 6063   0.810   3.512   2.604
 1508SOL    MW4 6064   0.887   3.475   2.585
 1509SOL     OW 6065   1.102   3.599   2.691
 1509SOL    HW2 6066   1.101   3.626   2.783
 1509SOL    HW3 6067   1.100   3.681   2.642
 1509SOL    MW4 6068   1.102   3.613   2.696
 1510SOL     OW 6069   1.098   3.851   2.577
 1510SOL    HW2 6070   1.178   3.889   2.615
 1510SOL    HW3 6071   1.110   3.859   2.483
 1510SOL    MW4 6072   1.110   3.857   2.570
 1511SOL     OW 6073   0.893   4.008   2.716
 1511SOL    HW2 6074   0.958   3.963   2.662
 1511SOL    HW3 6075   0.809   3.970   2.689
 1511SOL    MW4 6076   0.890   3.997   2.706
 1512SOL     OW 6077   0.888   4.266   2.632
 1512SOL    HW2 6078   0.892   4.174   2.657
 1512SOL    HW3 6079   0.884   4.265   2.536
 1512SOL    MW4 6080   0.888   4.254   2.623
 1513SOL     OW 6081   1.144   4.351   2.696
 1513SOL    HW2 6082   1.137   4.378   2.788
 1513SOL    HW3 6083   1.055   4.327   2.671
 1513SOL    MW4 6084   1.131   4.351   2.705
 1514SOL     OW 6085   1.570   4.616   2.601
 1514SOL    HW2 6086   1.568   4.521   2.613
 1514SOL    HW3 6087   1.583   4.628   2.507
 1514SOL    MW4 6088   1.572   4.605   2.590
 1515SOL     OW 6089   1.344   0.089   2.678
 1515SOL    HW2 6090   1.356   0.183   2.665
 1515SOL    HW3 6091   1.422   0.049   2.640
 1515SOL    MW4 6092   1.356   0.096   2.671
 1516SOL     OW 6093   1.343   0.369   2.626
 1516SOL    HW2 6094   1.413   0.418   2.670
 1516SOL    HW3 6095   1.262   0.407   2.661
 1516SOL    MW4 6096   1.342   0.381   2.636
 1517SOL     OW 6097   1.580   0.523   2.692
 1517SOL    HW2 6098   1.657   0.483   2.651
 1517SOL    HW3 6099   1.570   0.607   2.646
 1517SOL    MW4 6100   1.589   0.529   2.680
 1518SOL     OW 6101   1.570   0.763   2.561
 1518SOL    HW2 6102   1.504   0.829   2.581
 1518SOL    HW3 6103   1.567   0.754   2.466
 1518SOL    MW4 6104   1.561   0.771   2.551
 1519SOL     OW 6105   1.349   0.902   2.665
 1519SOL    HW2 6106   1.365   0.898   2.760
 1519SOL    HW3 6107   1.316   0.990   2.650
 1519SOL    MW4 6108   1.347   0.913   2.676
 1520SOL     OW 6109   1.310   1.165   2.575
 1520SOL    HW2 6110   1.378   1.214   2.621
 1520SOL    HW3 6111   1.228   1.208   2.599
 1520SOL    MW4 6112   1.308   1.177   2.584
 1521SOL     OW 6113   1.559   1.267   2.675
 1521SOL    HW2 6114   1.574   1.285   2.768
 1521SOL    HW3 6115   1.637   1.218   2.648
 1521SOL    MW4 6116   1.571   1.263   2.684
 1522SOL     OW 6117   1.544   1.529   2.596
 1522SOL    HW2 6118   1.550   1.437   2.624
 1522SOL    HW3 6119   1.528   1.524   2.502
 1522SOL    MW4 6120   1.543   1.516   2.588
 1523SOL     OW 6121   1.375   1.717   2.702
 1523SOL    HW2 6122   1.441   1.659   2.664
 1523SOL    HW3 6123   1.295   1.664   2.703
 1523SOL    MW4 6124   1.373   1.702   2.697
 1524SOL     OW 6125   1.330   1.957   2.582
 1524SOL    HW2 6126   1.359   1.869   2.604
 1524SOL    HW3 6127   1.335   1.962   2.487
 1524SOL    MW4 6128   1.335   1.946   2.573
 1525SOL     OW 6129   1.541   2.103   2.682
 1525SOL    HW2 6130   1.611   2.047   2.649
 1525SOL    HW3 6131   1.460   2.059   2.656
 1525SOL    MW4 6132   1.539   2.090   2.674
 1526SOL     OW 6133   1.565   2.360   2.559
 1526SOL    HW2 6134   1.632   2.404   2.612
 1526SOL    HW3 6135   1.557   2.273   2.598
 1526SOL    MW4 6136   1.573   2.354   2.571
 1527SOL     OW 6137   1.364   2.469   2.716
 1527SOL    HW2 6138   1.342   2.555   2.681
 1527SOL    HW3 6139   1.437   2.439   2.662
 1527SOL    MW4 6140   1.370   2.476   2.704
 1528SOL     OW 6141   1.313   2.711   2.574
 1528SOL    HW2 6142   1.396   2.753   2.596
 1528SOL    HW3 6143   1.313   2.706   2.478
 1528SOL    MW4 6144   1.324   2.716   2.564
 1529SOL     OW 6145   1.535   2.822   2.698
 1529SOL    HW2 6146   1.546   2.817   2.793
 1529SOL    HW3 6147   1.620   2.794   2.663
 1529SOL    MW4 6148   1.548   2.817   2.706
 1530SOL     OW 6149   1.585   3.091   2.636
 1530SOL    HW2 6150   1.650   3.122   2.698
 1530SOL    HW3 6151   1.566   3.001   2.663
 1530SOL    MW4 6152   1.591   3.083   2.648
 1531SOL     OW 6153   1.351   3.252   2.732
 1531SOL    HW2 6154   1.429   3.207   2.699
 1531SOL    HW3 6155   1.278   3.200   2.700
 1531SOL    MW4 6156   1.352   3.239   2.723
 1532SOL     OW 6157   1.357   3.498   2.614
 1532SOL    HW2 6158   1.363   3.414   2.660
 1532SOL    HW3 6159   1.269   3.530   2.634
 1532SOL    MW4 6160   1.346   3.491   2.623
 1533SOL     OW 6161   1.593   3.623   2.721
 1533SOL    HW2 6162   1.650   3.579   2.658
 1533SOL    HW3 6163   1.504   3.598   2.695
 1533SOL    MW4 6164   1.589   3.614   2.709
 1534SOL     OW 6165   1.595   3.885   2.579
 1534SOL    HW2 6166   1.505   3.909   2.602
 1534SOL    HW3 6167   1.611   3.803   2.626
 1534SOL    MW4 6168   1.585   3.877   2.588
 1535SOL     OW 6169   1.328   3.965   2.672
 1535SOL    HW2 6170   1.351   3.975   2.765
 1535SOL    HW3 6171   1.316   4.055   2.641
 1535SOL    MW4 6172   1.330   3.979   2.680
 1536SOL     OW 6173   1.339   4.211   2.573
 1536SOL    HW2 6174   1.269   4.259   2.619
 1536SOL    HW3 6175   1.344   4.252   2.487
 1536SOL    MW4 6176   1.330   4.223   2.568
 1537SOL     OW 6177   1.556   4.338   2.663
 1537SOL    HW2 6178   1.533   4.354   2.755
 1537SOL    HW3 6179   1.482   4.288   2.629
 1537SOL    MW4 6180   1.543   4.334   2.671
 1538SOL     OW 6181   1.979   0.011   2.637
 1538SOL    HW2 6182   2.064   0.041   2.668
 1538SOL    HW3 6183   1.994  -0.018   2.547
 1538SOL    MW4 6184   1.992   0.011   2.629
 1539SOL     OW 6185   1.741   0.149   2.704
 1539SOL    HW2 6186   1.825   0.113   2.677
 1539SOL    HW3 6187   1.676   0.085   2.673
 1539SOL    MW4 6188   1.743   0.136   2.696
 1540SOL     OW 6189   1.775   0.398   2.576
 1540SOL    HW2 6190   1.853   0.428   2.622
 1540SOL    HW3 6191   1.758   0.311   2.611
 1540SOL    MW4 6192   1.783   0.391   2.587
 1541SOL     OW 6193   2.000   0.511   2.702
 1541SOL    HW2 6194   2.071   0.463   2.659
 1541SOL    HW3 6195   2.003   0.598   2.662
 1541SOL    MW4 6196   2.010   0.516   2.691
 1542SOL     OW 6197   2.021   0.768   2.595
 1542SOL    HW2 6198   1.939   0.804   2.627
 1542SOL    HW3 6199   2.011   0.765   2.500
 1542SOL    MW4 6200   2.009   0.772   2.587
 1543SOL     OW 6201   1.794   0.867   2.703
 1543SOL    HW2 6202   1.783   0.955   2.667
 1543SOL    HW3 6203   1.724   0.816   2.663
 1543SOL    MW4 6204   1.783   0.872   2.693
 1544SOL     OW 6205   1.807   1.111   2.606
 1544SOL    HW2 6206   1.873   1.177   2.628
 1544SOL    HW3 6207   1.817   1.099   2.511
 1544SOL    MW4 6208   1.817   1.118   2.596
 1545SOL     OW 6209   2.038   1.281   2.670
 1545SOL    HW2 6210   2.039   1.280   2.766
 1545SOL    HW3 6211   2.127   1.256   2.645
 1545SOL    MW4 6212   2.050   1.277   2.680
 1546SOL     OW 6213   1.989   1.553   2.576
 1546SOL    HW2 6214   1.911   1.597   2.611
 1546SOL    HW3 6215   1.984   1.464   2.610
 1546SOL    MW4 6216   1.978   1.547   2.585
 1547SOL     OW 6217   1.759   1.687   2.655
 1547SOL    HW2 6218   1.759   1.706   2.749
 1547SOL    HW3 6219   1.696   1.615   2.645
 1547SOL    MW4 6220   1.751   1.680   2.666
 1548SOL     OW 6221   1.779   1.966   2.581
 1548SOL    HW2 6222   1.859   1.998   2.623
 1548SOL    HW3 6223   1.776   1.873   2.604
 1548SOL    MW4 6224   1.789   1.958   2.590
 1549SOL     OW 6225   1.999   2.062   2.713
 1549SOL    HW2 6226   2.007   2.058   2.808
 1549SOL    HW3 6227   2.017   2.154   2.692
 1549SOL    MW4 6228   2.002   2.074   2.723
 1550SOL     OW 6229   2.000   2.316   2.614
 1550SOL    HW2 6230   2.074   2.376   2.628
 1550SOL    HW3 6231   1.984   2.321   2.520
 1550SOL    MW4 6232   2.008   2.325   2.603
 1551SOL     OW 6233   1.773   2.467   2.689
 1551SOL    HW2 6234   1.785   2.472   2.784
 1551SOL    HW3 6235   1.854   2.427   2.657
 1551SOL    MW4 6236   1.785   2.462   2.698
 1552SOL     OW 6237   1.761   2.717   2.595
 1552SOL    HW2 6238   1.767   2.630   2.635
 1552SOL    HW3 6239   1.743   2.700   2.503
 1552SOL    MW4 6240   1.759   2.703   2.589
 1553SOL     OW 6241   1.993   2.842   2.685
 1553SOL    HW2 6242   2.066   2.796   2.644
 1553SOL    HW3 6243   1.915   2.792   2.659
 1553SOL    MW4 6244   1.992   2.829   2.676
 1554SOL     OW 6245   2.041   3.099   2.621
 1554SOL    HW2 6246   2.027   3.009   2.649
 1554SOL    HW3 6247   2.037   3.096   2.525
 1554SOL    MW4 6248   2.039   3.087   2.612
 1555SOL     OW 6249   1.825   3.222   2.728
 1555SOL    HW2 6250   1.800   3.294   2.670
 1555SOL    HW3 6251   1.898   3.179   2.684
 1555SOL    MW4 6252   1.831   3.226   2.715
 1556SOL     OW 6253   1.771   3.460   2.581
 1556SOL    HW2 6254   1.842   3.511   2.619
 1556SOL    HW3 6255   1.795   3.451   2.489
 1556SOL    MW4 6256   1.784   3.466   2.574
 1557SOL     OW 6257   1.995   3.605   2.682
 1557SOL    HW2 6258   1.986   3.627   2.775
 1557SOL    HW3 6259   2.086   3.579   2.672
 1557SOL    MW4 6260   2.006   3.605   2.693
 1558SOL     OW 6261   2.008   3.868   2.597
 1558SOL    HW2 6262   1.943   3.922   2.640
 1558SOL    HW3 6263   1.989   3.779   2.627
 1558SOL    MW4 6264   1.997   3.863   2.607
 1559SOL     OW 6265   1.802   4.016   2.706
 1559SOL    HW2 6266   1.794   4.096   2.655
 1559SOL    HW3 6267   1.736   3.957   2.668
 1559SOL    MW4 6268   1.792   4.019   2.694
 1560SOL     OW 6269   1.814   4.264   2.584
 1560SOL    HW2 6270   1.730   4.298   2.615
 1560SOL    HW3 6271   1.808   4.268   2.489
 1560SOL    MW4 6272   1.802   4.269   2.576
 1561SOL     OW 6273   2.028   4.405   2.699
 1561SOL    HW2 6274   1.967   4.347   2.654
 1561SOL    HW3 6275   2.009   4.492   2.665
 1561SOL    MW4 6276   2.018   4.409   2.689
 1562SOL     OW 6277   2.464   4.657   2.633
 1562SOL    HW2 6278   2.541   4.702   2.668
 1562SOL    HW3 6279   2.466   4.674   2.539
 1562SOL    MW4 6280   2.474   4.665   2.625
 1563SOL     OW 6281   2.228   0.098   2.704
 1563SOL    HW2 6282   2.229   0.125   2.796
 1563SOL    HW3 6283   2.317   0.069   2.686
 1563SOL    MW4 6284   2.240   0.098   2.714
 1564SOL     OW 6285   2.231   0.356   2.612
 1564SOL    HW2 6286   2.238   0.265   2.642
 1564SOL    HW3 6287   2.231   0.351   2.517
 1564SOL    MW4 6288   2.232   0.343   2.604
 1565SOL     OW 6289   2.451   0.509   2.704
 1565SOL    HW2 6290   2.449   0.595   2.663
 1565SOL    HW3 6291   2.370   0.466   2.674
 1565SOL    MW4 6292   2.440   0.514   2.695
 1566SOL     OW 6293   2.474   0.759   2.597
 1566SOL    HW2 6294   2.392   0.799   2.625
 1566SOL    HW3 6295   2.472   0.765   2.501
 1566SOL    MW4 6296   2.463   0.765   2.588
 1567SOL     OW 6297   2.252   0.889   2.694
 1567SOL    HW2 6298   2.251   0.891   2.790
 1567SOL    HW3 6299   2.167   0.853   2.670
 1567SOL    MW4 6300   2.241   0.884   2.703
 1568SOL     OW 6301   2.266   1.151   2.622
 1568SOL    HW2 6302   2.265   1.059   2.649
 1568SOL    HW3 6303   2.247   1.149   2.528
 1568SOL    MW4 6304   2.263   1.138   2.613
 1569SOL     OW 6305   2.483   1.302   2.745
 1569SOL    HW2 6306   2.558   1.257   2.706
 1569SOL    HW3 6307   2.407   1.256   2.710
 1569SOL    MW4 6308   2.483   1.290   2.735
 1570SOL     OW 6309   2.464   1.548   2.634
 1570SOL    HW2 6310   2.380   1.578   2.669
 1570SOL    HW3 6311   2.475   1.460   2.671
 1570SOL    MW4 6312   2.455   1.540   2.644
 1571SOL     OW 6313   2.212   1.683   2.699
 1571SOL    HW2 6314   2.223   1.769   2.658
 1571SOL    HW3 6315   2.139   1.643   2.652
 1571SOL    MW4 6316   2.204   1.689   2.688
 1572SOL     OW 6317   2.227   1.942   2.564
 1572SOL    HW2 6318   2.140   1.962   2.598
 1572SOL    HW3 6319   2.218   1.949   2.469
 1572SOL    MW4 6320   2.214   1.946   2.556
 1573SOL     OW 6321   2.461   2.034   2.737
 1573SOL    HW2 6322   2.449   2.128   2.723
 1573SOL    HW3 6323   2.397   1.993   2.679
 1573SOL    MW4 6324   2.451   2.041   2.728
 1574SOL     OW 6325   2.443   2.313   2.634
 1574SOL    HW2 6326   2.533   2.340   2.651
 1574SOL    HW3 6327   2.436   2.309   2.538
 1574SOL    MW4 6328   2.454   2.316   2.623
 1575SOL     OW 6329   2.220   2.477   2.690
 1575SOL    HW2 6330   2.236   2.496   2.783
 1575SOL    HW3 6331   2.295   2.424   2.663
 1575SOL    MW4 6332   2.232   2.473   2.699
 1576SOL     OW 6333   2.242   2.718   2.582
 1576SOL    HW2 6334   2.311   2.762   2.631
 1576SOL    HW3 6335   2.230   2.634   2.627
 1576SOL    MW4 6336   2.249   2.713   2.594
 1577SOL     OW 6337   2.449   2.835   2.750
 1577SOL    HW2 6338   2.520   2.777   2.723
 1577SOL    HW3 6339   2.451   2.906   2.686
 1577SOL    MW4 6340   2.459   2.837   2.738
 1578SOL     OW 6341   2.461   3.067   2.595
 1578SOL    HW2 6342   2.390   3.113   2.640
 1578SOL    HW3 6343   2.434   3.064   2.503
 1578SOL    MW4 6344   2.448   3.072   2.589
 1579SOL     OW 6345   2.265   3.231   2.697
 1579SOL    HW2 6346   2.269   3.238   2.792
 1579SOL    HW3 6347   2.181   3.187   2.680
 1579SOL    MW4 6348   2.254   3.226   2.707
 1580SOL     OW 6349   2.235   3.497   2.590
 1580SOL    HW2 6350   2.309   3.532   2.639
 1580SOL    HW3 6351   2.236   3.403   2.608
 1580SOL    MW4 6352   2.245   3.489   2.599
 1581SOL     OW 6353   2.467   3.597   2.734
 1581SOL    HW2 6354   2.438   3.621   2.822
 1581SOL    HW3 6355   2.462   3.679   2.685
 1581SOL    MW4 6356   2.462   3.611   2.739
 1582SOL     OW 6357   2.458   3.842   2.612
 1582SOL    HW2 6358   2.534   3.887   2.648
 1582SOL    HW3 6359   2.383   3.895   2.639
 1582SOL    MW4 6360   2.458   3.855   2.620
 1583SOL     OW 6361   2.235   3.998   2.695
 1583SOL    HW2 6362   2.236   4.007   2.790
 1583SOL    HW3 6363   2.159   3.944   2.677
 1583SOL    MW4 6364   2.225   3.992   2.705
 1584SOL     OW 6365   2.268   4.277   2.607
 1584SOL    HW2 6366   2.269   4.185   2.631
 1584SOL    HW3 6367   2.192   4.314   2.653
 1584SOL    MW4 6368   2.258   4.270   2.616
 1585SOL     OW 6369   2.453   4.416   2.762
 1585SOL    HW2 6370   2.386   4.368   2.713
 1585SOL    HW3 6371   2.462   4.499   2.714
 1585SOL    MW4 6372   2.445   4.421   2.749
 1586SOL     OW 6373   2.876   0.008   2.600
 1586SOL    HW2 6374   2.955   0.042   2.640
 1586SOL    HW3 6375   2.896   0.005   2.506
 1586SOL    MW4 6376   2.889   0.012   2.593
 1587SOL     OW 6377   2.662   0.145   2.704
 1587SOL    HW2 6378   2.672   0.150   2.800
 1587SOL    HW3 6379   2.742   0.103   2.674
 1587SOL    MW4 6380   2.674   0.140   2.713
 1588SOL     OW 6381   2.679   0.404   2.595
 1588SOL    HW2 6382   2.668   0.317   2.634
 1588SOL    HW3 6383   2.607   0.456   2.631
 1588SOL    MW4 6384   2.668   0.399   2.605
 1589SOL     OW 6385   2.894   0.519   2.716
 1589SOL    HW2 6386   2.906   0.606   2.677
 1589SOL    HW3 6387   2.811   0.488   2.679
 1589SOL    MW4 6388   2.885   0.526   2.706
 1590SOL     OW 6389   2.934   0.757   2.601
 1590SOL    HW2 6390   3.006   0.801   2.646
 1590SOL    HW3 6391   2.855   0.800   2.634
 1590SOL    MW4 6392   2.933   0.768   2.611
 1591SOL     OW 6393   2.725   0.899   2.703
 1591SOL    HW2 6394   2.727   0.910   2.799
 1591SOL    HW3 6395   2.634   0.878   2.683
 1591SOL    MW4 6396   2.713   0.898   2.713
 1592SOL     OW 6397   2.700   1.175   2.620
 1592SOL    HW2 6398   2.774   1.228   2.650
 1592SOL    HW3 6399   2.729   1.085   2.631
 1592SOL    MW4 6400   2.714   1.170   2.625
 1593SOL     OW 6401   2.909   1.342   2.710
 1593SOL    HW2 6402   2.909   1.352   2.805
 1593SOL    HW3 6403   2.990   1.295   2.690
 1593SOL    MW4 6404   2.920   1.337   2.720
 1594SOL     OW 6405   2.924   1.606   2.613
 1594SOL    HW2 6406   2.839   1.643   2.634
 1594SOL    HW3 6407   2.919   1.516   2.643
 1594SOL    MW4 6408   2.912   1.599   2.620
 1595SOL     OW 6409   2.686   1.719   2.700
 1595SOL    HW2 6410   2.687   1.709   2.795
 1595SOL    HW3 6411   2.616   1.661   2.670
 1595SOL    MW4 6412   2.677   1.710   2.708
 1596SOL     OW 6413   2.713   1.983   2.609
 1596SOL    HW2 6414   2.732   1.896   2.645
 1596SOL    HW3 6415   2.634   2.011   2.656
 1596SOL    MW4 6416   2.705   1.975   2.620
 1597SOL     OW 6417   2.950   2.058   2.714
 1597SOL    HW2 6418   2.960   2.151   2.693
 1597SOL    HW3 6419   2.867   2.033   2.674
 1597SOL    MW4 6420   2.940   2.067   2.706
 1598SOL     OW 6421   2.935   2.321   2.590
 1598SOL    HW2 6422   3.005   2.377   2.624
 1598SOL    HW3 6423   2.856   2.353   2.634
 1598SOL    MW4 6424   2.933   2.333   2.601
 1599SOL     OW 6425   2.692   2.400   2.706
 1599SOL    HW2 6426   2.691   2.401   2.802
 1599SOL    HW3 6427   2.708   2.491   2.682
 1599SOL    MW4 6428   2.694   2.412   2.715
 1600SOL     OW 6429   2.662   2.682   2.638
 1600SOL    HW2 6430   2.729   2.741   2.671
 1600SOL    HW3 6431   2.668   2.689   2.543
 1600SOL    MW4 6432   2.671   2.690   2.630
 1601SOL     OW 6433   2.906   2.807   2.721
 1601SOL    HW2 6434   2.899   2.818   2.815
 1601SOL    HW3 6435   2.912   2.896   2.686
 1601SOL    MW4 6436   2.906   2.820   2.729
 1602SOL     OW 6437   2.899   3.067   2.644
 1602SOL    HW2 6438   2.820   3.109   2.677
 1602SOL    HW3 6439   2.890   3.071   2.549
 1602SOL    MW4 6440   2.888   3.073   2.636
 1603SOL     OW 6441   2.679   3.212   2.722
 1603SOL    HW2 6442   2.684   3.307   2.711
 1603SOL    HW3 6443   2.605   3.186   2.667
 1603SOL    MW4 6444   2.670   3.221   2.713
 1604SOL     OW 6445   2.697   3.472   2.631
 1604SOL    HW2 6446   2.609   3.497   2.658
 1604SOL    HW3 6447   2.703   3.499   2.539
 1604SOL    MW4 6448   2.686   3.479   2.622
 1605SOL     OW 6449   2.923   3.609   2.732
 1605SOL    HW2 6450   2.927   3.622   2.827
 1605SOL    HW3 6451   2.850   3.548   2.720
 1605SOL    MW4 6452   2.914   3.603   2.743
 1606SOL     OW 6453   2.904   3.879   2.655
 1606SOL    HW2 6454   2.990   3.914   2.678
 1606SOL    HW3 6455   2.904   3.791   2.691
 1606SOL    MW4 6456   2.916   3.872   2.662
 1607SOL     OW 6457   2.656   3.985   2.733
 1607SOL    HW2 6458   2.657   4.076   2.703
 1607SOL    HW3 6459   2.744   3.952   2.714
 1607SOL    MW4 6460   2.668   3.992   2.726
 1608SOL     OW 6461   2.691   4.274   2.696
 1608SOL    HW2 6462   2.773   4.320   2.710
 1608SOL    HW3 6463   2.623   4.338   2.721
 1608SOL    MW4 6464   2.693   4.289   2.701
 1609SOL     OW 6465   2.938   4.422   2.718
 1609SOL    HW2 6466   2.934   4.419   2.813
 1609SOL    HW3 6467   2.913   4.512   2.696
 1609SOL    MW4 6468   2.934   4.434   2.727
 1610SOL     OW 6469   3.371   4.626   2.667
 1610SOL    HW2 6470   3.357   4.536   2.695
 1610SOL    HW3 6471   3.299   4.675   2.706
 1610SOL    MW4 6472   3.360   4.621   2.676
 1611SOL     OW 6473   3.123   0.078   2.713
 1611SOL    HW2 6474   3.136   0.084   2.808
 1611SOL    HW3 6475   3.147   0.165   2.680
 1611SOL    MW4 6476   3.128   0.090   2.721
 1612SOL     OW 6477   3.142   0.350   2.656
 1612SOL    HW2 6478   3.079   0.409   2.697
 1612SOL    HW3 6479   3.121   0.354   2.562
 1612SOL    MW4 6480   3.131   0.358   2.649
 1613SOL     OW 6481   3.358   0.503   2.709
 1613SOL    HW2 6482   3.332   0.587   2.673
 1613SOL    HW3 6483   3.290   0.442   2.682
 1613SOL    MW4 6484   3.346   0.506   2.701
 1614SOL     OW 6485   3.325   0.775   2.602
 1614SOL    HW2 6486   3.413   0.805   2.623
 1614SOL    HW3 6487   3.322   0.771   2.506
 1614SOL    MW4 6488   3.336   0.779   2.592
 1615SOL     OW 6489   3.115   0.921   2.713
 1615SOL    HW2 6490   3.114   0.907   2.807
 1615SOL    HW3 6491   3.193   0.875   2.682
 1615SOL    MW4 6492   3.125   0.913   2.721
 1616SOL     OW 6493   3.119   1.189   2.646
 1616SOL    HW2 6494   3.114   1.095   2.663
 1616SOL    HW3 6495   3.108   1.198   2.552
 1616SOL    MW4 6496   3.117   1.178   2.636
 1617SOL     OW 6497   3.352   1.319   2.703
 1617SOL    HW2 6498   3.354   1.336   2.797
 1617SOL    HW3 6499   3.279   1.259   2.691
 1617SOL    MW4 6500   3.343   1.313   2.714
 1618SOL     OW 6501   3.361   1.569   2.590
 1618SOL    HW2 6502   3.292   1.615   2.638
 1618SOL    HW3 6503   3.357   1.479   2.623
 1618SOL    MW4 6504   3.352   1.563   2.601
 1619SOL     OW 6505   3.149   1.694   2.762
 1619SOL    HW2 6506   3.173   1.779   2.726
 1619SOL    HW3 6507   3.075   1.665   2.707
 1619SOL    MW4 6508   3.142   1.701   2.750
 1620SOL     OW 6509   3.188   1.927   2.619
 1620SOL    HW2 6510   3.263   1.973   2.657
 1620SOL    HW3 6511   3.111   1.972   2.654
 1620SOL    MW4 6512   3.188   1.939   2.628
 1621SOL     OW 6513   3.397   2.076   2.694
 1621SOL    HW2 6514   3.408   2.080   2.789
 1621SOL    HW3 6515   3.372   2.165   2.669
 1621SOL    MW4 6516   3.395   2.089   2.704
 1622SOL     OW 6517   3.375   2.335   2.611
 1622SOL    HW2 6518   3.460   2.367   2.640
 1622SOL    HW3 6519   3.377   2.342   2.516
 1622SOL    MW4 6520   3.386   2.340   2.602
 1623SOL     OW 6521   3.136   2.463   2.714
 1623SOL    HW2 6522   3.121   2.547   2.669
 1623SOL    HW3 6523   3.223   2.437   2.686
 1623SOL    MW4 6524   3.145   2.471   2.704
 1624SOL     OW 6525   3.123   2.705   2.591
 1624SOL    HW2 6526   3.199   2.744   2.633
 1624SOL    HW3 6527   3.049   2.730   2.646
 1624SOL    MW4 6528   3.124   2.713   2.604
 1625SOL     OW 6529   3.337   2.814   2.733
 1625SOL    HW2 6530   3.329   2.790   2.825
 1625SOL    HW3 6531   3.426   2.789   2.709
 1625SOL    MW4 6532   3.348   2.807   2.742
 1626SOL     OW 6533   3.323   3.082   2.621
 1626SOL    HW2 6534   3.312   2.990   2.646
 1626SOL    HW3 6535   3.322   3.081   2.525
 1626SOL    MW4 6536   3.322   3.070   2.611
 1627SOL     OW 6537   3.112   3.230   2.745
 1627SOL    HW2 6538   3.190   3.177   2.728
 1627SOL    HW3 6539   3.040   3.178   2.708
 1627SOL    MW4 6540   3.113   3.216   2.738
 1628SOL     OW 6541   3.130   3.463   2.608
 1628SOL    HW2 6542   3.124   3.373   2.642
 1628SOL    HW3 6543   3.062   3.511   2.655
 1628SOL    MW4 6544   3.120   3.457   2.619
 1629SOL     OW 6545   3.340   3.601   2.715
 1629SOL    HW2 6546   3.330   3.582   2.808
 1629SOL    HW3 6547   3.276   3.543   2.672
 1629SOL    MW4 6548   3.330   3.591   2.722
 1630SOL     OW 6549   3.367   3.862   2.638
 1630SOL    HW2 6550   3.354   3.772   2.666
 1630SOL    HW3 6551   3.363   3.859   2.543
 1630SOL    MW4 6552   3.365   3.850   2.629
 1631SOL     OW 6553   3.144   4.009   2.720
 1631SOL    HW2 6554   3.150   4.094   2.677
 1631SOL    HW3 6555   3.218   3.959   2.685
 1631SOL    MW4 6556   3.154   4.014   2.710
 1632SOL     OW 6557   3.146   4.260   2.612
 1632SOL    HW2 6558   3.073   4.319   2.632
 1632SOL    HW3 6559   3.151   4.261   2.516
 1632SOL    MW4 6560   3.137   4.268   2.602
 1633SOL     OW 6561   3.383   4.331   2.735
 1633SOL    HW2 6562   3.381   4.337   2.830
 1633SOL    HW3 6563   3.294   4.309   2.710
 1633SOL    MW4 6564   3.371   4.329   2.744
 1634SOL     OW 6565   3.835   4.647   2.663
 1634SOL    HW2 6566   3.846   4.559   2.700
 1634SOL    HW3 6567   3.760   4.683   2.711
 1634SOL    MW4 6568   3.826   4.640   2.675
 1635SOL     OW 6569   3.589   0.080   2.772
 1635SOL    HW2 6570   3.578   0.173   2.753
 1635SOL    HW3 6571   3.508   0.039   2.740
 1635SOL    MW4 6572   3.577   0.087   2.765
 1636SOL     OW 6573   3.589   0.348   2.660
 1636SOL    HW2 6574   3.669   0.391   2.689
 1636SOL    HW3 6575   3.519   0.406   2.690
 1636SOL    MW4 6576   3.590   0.361   2.668
 1637SOL     OW 6577   3.827   0.494   2.737
 1637SOL    HW2 6578   3.843   0.473   2.829
 1637SOL    HW3 6579   3.897   0.449   2.690
 1637SOL    MW4 6580   3.838   0.485   2.743
 1638SOL     OW 6581   3.804   0.736   2.603
 1638SOL    HW2 6582   3.721   0.771   2.635
 1638SOL    HW3 6583   3.810   0.649   2.642
 1638SOL    MW4 6584   3.794   0.729   2.612
 1639SOL     OW 6585   3.580   0.879   2.664
 1639SOL    HW2 6586   3.592   0.894   2.758
 1639SOL    HW3 6587   3.594   0.965   2.625
 1639SOL    MW4 6588   3.583   0.892   2.672
 1640SOL     OW 6589   3.563   1.162   2.610
 1640SOL    HW2 6590   3.632   1.197   2.665
 1640SOL    HW3 6591   3.482   1.198   2.645
 1640SOL    MW4 6592   3.561   1.171   2.622
 1641SOL     OW 6593   3.771   1.264   2.740
 1641SOL    HW2 6594   3.857   1.238   2.709
 1641SOL    HW3 6595   3.757   1.351   2.701
 1641SOL    MW4 6596   3.781   1.272   2.731
 1642SOL     OW 6597   3.773   1.514   2.623
 1642SOL    HW2 6598   3.854   1.554   2.655
 1642SOL    HW3 6599   3.703   1.569   2.659
 1642SOL    MW4 6600   3.775   1.527   2.632
 1643SOL     OW 6601   3.582   1.673   2.738
 1643SOL    HW2 6602   3.602   1.762   2.708
 1643SOL    HW3 6603   3.528   1.636   2.668
 1643SOL    MW4 6604   3.577   1.680   2.725
 1644SOL     OW 6605   3.576   1.922   2.591
 1644SOL    HW2 6606   3.511   1.988   2.617
 1644SOL    HW3 6607   3.570   1.919   2.496
 1644SOL    MW4 6608   3.566   1.930   2.582
 1645SOL     OW 6609   3.816   2.034   2.695
 1645SOL    HW2 6610   3.888   1.980   2.662
 1645SOL    HW3 6611   3.738   1.997   2.654
 1645SOL    MW4 6612   3.815   2.022   2.685
 1646SOL     OW 6613   3.805   2.286   2.578
 1646SOL    HW2 6614   3.806   2.196   2.611
 1646SOL    HW3 6615   3.829   2.278   2.486
 1646SOL    MW4 6616   3.808   2.273   2.570
 1647SOL     OW 6617   3.613   2.467   2.683
 1647SOL    HW2 6618   3.616   2.463   2.779
 1647SOL    HW3 6619   3.684   2.409   2.655
 1647SOL    MW4 6620   3.623   2.459   2.692
 1648SOL     OW 6621   3.580   2.731   2.634
 1648SOL    HW2 6622   3.602   2.640   2.656
 1648SOL    HW3 6623   3.591   2.736   2.539
 1648SOL    MW4 6624   3.584   2.719   2.625
 1649SOL     OW 6625   3.814   2.849   2.725
 1649SOL    HW2 6626   3.894   2.804   2.699
 1649SOL    HW3 6627   3.745   2.785   2.710
 1649SOL    MW4 6628   3.815   2.834   2.720
 1650SOL     OW 6629   3.814   3.108   2.648
 1650SOL    HW2 6630   3.725   3.140   2.665
 1650SOL    HW3 6631   3.810   3.015   2.670
 1650SOL    MW4 6632   3.802   3.100   2.653
 1651SOL     OW 6633   3.565   3.204   2.716
 1651SOL    HW2 6634   3.571   3.292   2.678
 1651SOL    HW3 6635   3.492   3.163   2.671
 1651SOL    MW4 6636   3.557   3.210   2.705
 1652SOL     OW 6637   3.554   3.456   2.613
 1652SOL    HW2 6638   3.628   3.503   2.651
 1652SOL    HW3 6639   3.477   3.501   2.647
 1652SOL    MW4 6640   3.554   3.468   2.622
 1653SOL     OW 6641   3.767   3.578   2.727
 1653SOL    HW2 6642   3.848   3.533   2.699
 1653SOL    HW3 6643   3.775   3.666   2.690
 1653SOL    MW4 6644   3.779   3.583   2.719
 1654SOL     OW 6645   3.808   3.845   2.622
 1654SOL    HW2 6646   3.882   3.901   2.645
 1654SOL    HW3 6647   3.731   3.891   2.655
 1654SOL    MW4 6648   3.807   3.858   2.629
 1655SOL     OW 6649   3.599   3.986   2.719
 1655SOL    HW2 6650   3.594   4.077   2.690
 1655SOL    HW3 6651   3.516   3.948   2.694
 1655SOL    MW4 6652   3.588   3.993   2.712
 1656SOL     OW 6653   3.634   4.270   2.648
 1656SOL    HW2 6654   3.551   4.306   2.678
 1656SOL    HW3 6655   3.633   4.283   2.553
 1656SOL    MW4 6656   3.623   4.276   2.640
 1657SOL     OW 6657   3.868   4.392   2.758
 1657SOL    HW2 6658   3.934   4.344   2.708
 1657SOL    HW3 6659   3.784   4.356   2.728
 1657SOL    MW4 6660   3.866   4.381   2.747
 1658SOL     OW 6661   4.277   4.629   2.613
 1658SOL    HW2 6662   4.208   4.674   2.661
 1658SOL    HW3 6663   4.354   4.686   2.622
 1658SOL    MW4 6664   4.278   4.643   2.621
 1659SOL     OW 6665   4.064   0.102   2.725
 1659SOL    HW2 6666   4.072   0.115   2.820
 1659SOL    HW3 6667   3.979   0.061   2.714
 1659SOL    MW4 6668   4.054   0.098   2.736
 1660SOL     OW 6669   4.046   0.361   2.614
 1660SOL    HW2 6670   4.056   0.269   2.637
 1660SOL    HW3 6671   4.036   0.361   2.519
 1660SOL    MW4 6672   4.046   0.349   2.605
 1661SOL     OW 6673   4.253   0.510   2.720
 1661SOL    HW2 6674   4.176   0.472   2.678
 1661SOL    HW3 6675   4.328   0.467   2.678
 1661SOL    MW4 6676   4.253   0.500   2.709
 1662SOL     OW 6677   4.255   0.757   2.611
 1662SOL    HW2 6678   4.248   0.671   2.653
 1662SOL    HW3 6679   4.250   0.737   2.517
 1662SOL    MW4 6680   4.254   0.743   2.604
 1663SOL     OW 6681   4.006   0.892   2.685
 1663SOL    HW2 6682   4.086   0.846   2.661
 1663SOL    HW3 6683   3.935   0.838   2.651
 1663SOL    MW4 6684   4.007   0.879   2.677
 1664SOL     OW 6685   4.003   1.166   2.630
 1664SOL    HW2 6686   4.076   1.212   2.672
 1664SOL    HW3 6687   4.010   1.076   2.661
 1664SOL    MW4 6688   4.014   1.160   2.640
 1665SOL     OW 6689   4.248   1.308   2.720
 1665SOL    HW2 6690   4.238   1.393   2.677
 1665SOL    HW3 6691   4.320   1.266   2.673
 1665SOL    MW4 6692   4.256   1.313   2.708
 1666SOL     OW 6693   4.243   1.550   2.584
 1666SOL    HW2 6694   4.329   1.578   2.613
 1666SOL    HW3 6695   4.253   1.535   2.490
 1666SOL    MW4 6696   4.255   1.551   2.576
 1667SOL     OW 6697   4.012   1.661   2.710
 1667SOL    HW2 6698   4.015   1.638   2.802
 1667SOL    HW3 6699   4.088   1.618   2.671
 1667SOL    MW4 6700   4.022   1.653   2.717
 1668SOL     OW 6701   4.053   1.922   2.608
 1668SOL    HW2 6702   4.124   1.944   2.668
 1668SOL    HW3 6703   4.025   1.834   2.634
 1668SOL    MW4 6704   4.059   1.913   2.619
 1669SOL     OW 6705   4.237   2.073   2.738
 1669SOL    HW2 6706   4.239   2.167   2.718
 1669SOL    HW3 6707   4.303   2.036   2.680
 1669SOL    MW4 6708   4.246   2.081   2.727
 1670SOL     OW 6709   4.274   2.336   2.636
 1670SOL    HW2 6710   4.187   2.365   2.662
 1670SOL    HW3 6711   4.278   2.351   2.542
 1670SOL    MW4 6712   4.263   2.342   2.627
 1671SOL     OW 6713   4.023   2.445   2.692
 1671SOL    HW2 6714   4.017   2.429   2.786
 1671SOL    HW3 6715   3.952   2.393   2.655
 1671SOL    MW4 6716   4.013   2.436   2.700
 1672SOL     OW 6717   4.045   2.704   2.629
 1672SOL    HW2 6718   4.113   2.736   2.688
 1672SOL    HW3 6719   4.031   2.613   2.654
 1672SOL    MW4 6720   4.052   2.696   2.640
 1673SOL     OW 6721   4.265   2.813   2.772
 1673SOL    HW2 6722   4.277   2.818   2.867
 1673SOL    HW3 6723   4.260   2.904   2.744
 1673SOL    MW4 6724   4.266   2.826   2.781
 1674SOL     OW 6725   4.248   3.059   2.637
 1674SOL    HW2 6726   4.181   3.126   2.649
 1674SOL    HW3 6727   4.239   3.032   2.546
 1674SOL    MW4 6728   4.238   3.064   2.627
 1675SOL     OW 6729   4.044   3.236   2.719
 1675SOL    HW2 6730   4.018   3.327   2.707
 1675SOL    HW3 6731   3.964   3.186   2.700
 1675SOL    MW4 6732   4.030   3.241   2.715
 1676SOL     OW 6733   4.031   3.505   2.606
 1676SOL    HW2 6734   4.103   3.557   2.643
 1676SOL    HW3 6735   4.058   3.489   2.515
 1676SOL    MW4 6736   4.044   3.510   2.599
 1677SOL     OW 6737   4.256   3.618   2.707
 1677SOL    HW2 6738   4.275   3.602   2.800
 1677SOL    HW3 6739   4.309   3.553   2.661
 1677SOL    MW4 6740   4.266   3.607   2.713
 1678SOL     OW 6741   4.243   3.868   2.595
 1678SOL    HW2 6742   4.243   3.781   2.636
 1678SOL    HW3 6743   4.325   3.908   2.625
 1678SOL    MW4 6744   4.254   3.861   2.604
 1679SOL     OW 6745   4.006   4.005   2.684
 1679SOL    HW2 6746   3.992   4.019   2.778
 1679SOL    HW3 6747   4.088   3.956   2.680
 1679SOL    MW4 6748   4.015   4.001   2.696
 1680SOL     OW 6749   4.057   4.244   2.596
 1680SOL    HW2 6750   4.045   4.152   2.618
 1680SOL    HW3 6751   4.019   4.253   2.509
 1680SOL    MW4 6752   4.050   4.233   2.588
 1681SOL     OW 6753   4.282   4.365   2.710
 1681SOL    HW2 6754   4.212   4.318   2.666
 1681SOL    HW3 6755   4.287   4.449   2.665
 1681SOL    MW4 6756   4.273   4.370   2.698
 1682SOL     OW 6757   0.199   4.619   3.069
 1682SOL    HW2 6758   0.188   4.634   3.163
 1682SOL    HW3 6759   0.138   4.680   3.027
 1682SOL    MW4 6760   0.190   4.629   3.076
 1683SOL     OW 6761   0.033   0.131   2.942
 1683SOL    HW2 6762  -0.047   0.095   2.981
 1683SOL    HW3 6763   0.046   0.215   2.986
 1683SOL    MW4 6764   0.024   0.137   2.953
 1684SOL     OW 6765   0.008   0.371   3.093
 1684SOL    HW2 6766   0.012   0.375   3.189
 1684SOL    HW3 6767  -0.080   0.404   3.072
 1684SOL    MW4 6768  -0.003   0.376   3.103
 1685SOL     OW 6769   0.204   0.510   2.945
 1685SOL    HW2 6770   0.282   0.477   2.991
 1685SOL    HW3 6771   0.130   0.476   2.996
 1685SOL    MW4 6772   0.205   0.501   2.958
 1686SOL     OW 6773   0.175   0.756   3.068
 1686SOL    HW2 6774   0.203   0.756   3.159
 1686SOL    HW3 6775   0.208   0.674   3.032
 1686SOL    MW4 6776   0.183   0.746   3.075
 1687SOL     OW 6777   4.442   0.873   2.958
 1687SOL    HW2 6778   4.516   0.818   2.987
 1687SOL    HW3 6779   4.456   0.883   2.863
 1687SOL    MW4 6780   4.454   0.867   2.949
 1688SOL     OW 6781   4.482   1.124   3.098
 1688SOL    HW2 6782   4.407   1.170   3.060
 1688SOL    HW3 6783   4.490   1.044   3.046
 1688SOL    MW4 6784   4.473   1.120   3.086
 1689SOL     OW 6785   0.194   1.277   2.958
 1689SOL    HW2 6786   0.127   1.219   2.995
 1689SOL    HW3 6787   0.171   1.283   2.865
 1689SOL    MW4 6788   0.182   1.270   2.951
 1690SOL     OW 6789   0.174   1.519   3.089
 1690SOL    HW2 6790   0.102   1.560   3.041
 1690SOL    HW3 6791   0.195   1.441   3.039
 1690SOL    MW4 6792   0.167   1.514   3.076
 1691SOL     OW 6793   4.410   1.636   2.982
 1691SOL    HW2 6794   4.353   1.590   3.044
 1691SOL    HW3 6795   4.426   1.721   3.022
 1691SOL    MW4 6796   4.404   1.641   2.995
 1692SOL     OW 6797   4.468   1.892   3.076
 1692SOL    HW2 6798   4.391   1.945   3.055
 1692SOL    HW3 6799   4.542   1.943   3.041
 1692SOL    MW4 6800   4.467   1.906   3.068
 1693SOL     OW 6801   0.198   2.040   2.952
 1693SOL    HW2 6802   0.183   2.128   2.987
 1693SOL    HW3 6803   0.195   2.051   2.857
 1693SOL    MW4 6804   0.195   2.053   2.944
 1694SOL     OW 6805   0.244   2.300   3.050
 1694SOL    HW2 6806   0.234   2.299   3.145
 1694SOL    HW3 6807   0.303   2.373   3.032
 1694SOL    MW4 6808   0.250   2.310   3.060
 1695SOL     OW 6809   0.007   2.429   3.001
 1695SOL    HW2 6810   0.006   2.509   3.052
 1695SOL    HW3 6811   0.086   2.383   3.030
 1695SOL    MW4 6812   0.017   2.433   3.011
 1696SOL     OW 6813   4.476   2.672   3.126
 1696SOL    HW2 6814   4.474   2.710   3.214
 1696SOL    HW3 6815   4.552   2.713   3.084
 1696SOL    MW4 6816   4.485   2.683   3.132
 1697SOL     OW 6817   0.191   2.840   3.044
 1697SOL    HW2 6818   0.273   2.813   3.085
 1697SOL    HW3 6819   0.207   2.832   2.950
 1697SOL    MW4 6820   0.204   2.835   3.037
 1698SOL     OW 6821   0.214   3.108   3.105
 1698SOL    HW2 6822   0.140   3.142   3.056
 1698SOL    HW3 6823   0.216   3.015   3.086
 1698SOL    MW4 6824   0.205   3.100   3.096
 1699SOL     OW 6825   4.489   3.215   2.990
 1699SOL    HW2 6826   4.413   3.175   3.033
 1699SOL    HW3 6827   4.477   3.194   2.898
 1699SOL    MW4 6828   4.477   3.207   2.984
 1700SOL     OW 6829   0.023   3.477   3.084
 1700SOL    HW2 6830  -0.049   3.525   3.044
 1700SOL    HW3 6831   0.013   3.388   3.050
 1700SOL    MW4 6832   0.012   3.471   3.074
 1701SOL     OW 6833   0.251   3.608   3.006
 1701SOL    HW2 6834   0.222   3.699   3.013
 1701SOL    HW3 6835   0.180   3.557   3.045
 1701SOL    MW4 6836   0.238   3.613   3.012
 1702SOL     OW 6837   0.207   3.883   3.040
 1702SOL    HW2 6838   0.232   3.870   3.132
 1702SOL    HW3 6839   0.281   3.930   3.002
 1702SOL    MW4 6840   0.220   3.887   3.047
 1703SOL     OW 6841   4.469   3.972   2.952
 1703SOL    HW2 6842   4.549   3.936   2.992
 1703SOL    HW3 6843   4.489   3.979   2.859
 1703SOL    MW4 6844   4.482   3.968   2.945
 1704SOL     OW 6845   0.030   4.220   3.075
 1704SOL    HW2 6846   0.019   4.234   3.169
 1704SOL    HW3 6847   0.019   4.126   3.064
 1704SOL    MW4 6848   0.027   4.209   3.086
 1705SOL     OW 6849   0.250   4.362   2.978
 1705SOL    HW2 6850   0.176   4.308   3.004
 1705SOL    HW3 6851   0.222   4.451   2.996
 1705SOL    MW4 6852   0.237   4.366   2.983
 1706SOL     OW 6853   0.683   0.023   3.071
 1706SOL    HW2 6854   0.671  -0.071   3.056
 1706SOL    HW3 6855   0.597   0.061   3.055
 1706SOL    MW4 6856   0.670   0.015   3.067
 1707SOL     OW 6857   0.440   0.110   2.973
 1707SOL    HW2 6858   0.431   0.201   3.003
 1707SOL    HW3 6859   0.373   0.063   3.023
 1707SOL    MW4 6860   0.430   0.116   2.983
 1708SOL     OW 6861   0.417   0.381   3.064
 1708SOL    HW2 6862   0.415   0.389   3.159
 1708SOL    HW3 6863   0.492   0.434   3.037
 1708SOL    MW4 6864   0.427   0.389   3.073
 1709SOL     OW 6865   0.636   0.553   3.009
 1709SOL    HW2 6866   0.715   0.511   3.044
 1709SOL    HW3 6867   0.653   0.646   3.019
 1709SOL    MW4 6868   0.649   0.560   3.015
 1710SOL     OW 6869   0.676   0.816   3.051
 1710SOL    HW2 6870   0.694   0.823   3.145
 1710SOL    HW3 6871   0.584   0.841   3.043
 1710SOL    MW4 6872   0.666   0.820   3.063
 1711SOL     OW 6873   0.407   0.909   2.999
 1711SOL    HW2 6874   0.329   0.862   3.026
 1711SOL    HW3 6875   0.410   0.898   2.904
 1711SOL    MW4 6876   0.397   0.902   2.990
 1712SOL     OW 6877   0.444   1.182   3.095
 1712SOL    HW2 6878   0.426   1.096   3.057
 1712SOL    HW3 6879   0.372   1.237   3.064
 1712SOL    MW4 6880   0.432   1.178   3.086
 1713SOL     OW 6881   0.650   1.280   2.941
 1713SOL    HW2 6882   0.728   1.243   2.981
 1713SOL    HW3 6883   0.577   1.248   2.994
 1713SOL    MW4 6884   0.650   1.271   2.953
 1714SOL     OW 6885   0.630   1.559   3.049
 1714SOL    HW2 6886   0.638   1.571   3.144
 1714SOL    HW3 6887   0.645   1.466   3.035
 1714SOL    MW4 6888   0.633   1.549   3.060
 1715SOL     OW 6889   0.409   1.705   3.009
 1715SOL    HW2 6890   0.491   1.660   3.030
 1715SOL    HW3 6891   0.344   1.666   3.067
 1715SOL    MW4 6892   0.412   1.694   3.019
 1716SOL     OW 6893   0.444   1.972   3.067
 1716SOL    HW2 6894   0.414   1.882   3.050
 1716SOL    HW3 6895   0.383   2.027   3.017
 1716SOL    MW4 6896   0.432   1.967   3.058
 1717SOL     OW 6897   0.689   2.051   2.970
 1717SOL    HW2 6898   0.760   2.019   3.026
 1717SOL    HW3 6899   0.613   1.999   2.995
 1717SOL    MW4 6900   0.688   2.040   2.981
 1718SOL     OW 6901   0.633   2.311   3.032
 1718SOL    HW2 6902   0.624   2.305   3.127
 1718SOL    HW3 6903   0.658   2.222   3.005
 1718SOL    MW4 6904   0.635   2.298   3.041
 1719SOL     OW 6905   0.423   2.488   2.966
 1719SOL    HW2 6906   0.507   2.451   2.993
 1719SOL    HW3 6907   0.405   2.446   2.882
 1719SOL    MW4 6908   0.431   2.477   2.959
 1720SOL     OW 6909   0.457   2.721   3.123
 1720SOL    HW2 6910   0.546   2.746   3.097
 1720SOL    HW3 6911   0.435   2.647   3.067
 1720SOL    MW4 6912   0.466   2.715   3.113
 1721SOL     OW 6913   0.710   2.822   2.992
 1721SOL    HW2 6914   0.776   2.768   3.034
 1721SOL    HW3 6915   0.715   2.906   3.038
 1721SOL    MW4 6916   0.719   2.826   3.004
 1722SOL     OW 6917   0.694   3.066   3.116
 1722SOL    HW2 6918   0.675   3.073   3.210
 1722SOL    HW3 6919   0.612   3.089   3.073
 1722SOL    MW4 6920   0.681   3.070   3.123
 1723SOL     OW 6921   0.466   3.211   2.979
 1723SOL    HW2 6922   0.481   3.296   3.021
 1723SOL    HW3 6923   0.376   3.189   3.002
 1723SOL    MW4 6924   0.456   3.220   2.988
 1724SOL     OW 6925   0.459   3.459   3.099
 1724SOL    HW2 6926   0.442   3.472   3.192
 1724SOL    HW3 6927   0.383   3.499   3.055
 1724SOL    MW4 6928   0.446   3.466   3.105
 1725SOL     OW 6929   0.662   3.580   2.957
 1725SOL    HW2 6930   0.740   3.534   2.985
 1725SOL    HW3 6931   0.595   3.557   3.022
 1725SOL    MW4 6932   0.663   3.571   2.969
 1726SOL     OW 6933   0.683   3.846   3.034
 1726SOL    HW2 6934   0.660   3.846   3.127
 1726SOL    HW3 6935   0.663   3.758   3.004
 1726SOL    MW4 6936   0.677   3.835   3.043
 1727SOL     OW 6937   0.453   3.998   2.957
 1727SOL    HW2 6938   0.530   3.943   2.974
 1727SOL    HW3 6939   0.455   4.011   2.862
 1727SOL    MW4 6940   0.464   3.993   2.947
 1728SOL     OW 6941   0.487   4.241   3.066
 1728SOL    HW2 6942   0.478   4.153   3.031
 1728SOL    HW3 6943   0.404   4.283   3.047
 1728SOL    MW4 6944   0.475   4.235   3.059
 1729SOL     OW 6945   0.677   4.419   2.989
 1729SOL    HW2 6946   0.610   4.353   3.006
 1729SOL    HW3 6947   0.672   4.435   2.895
 1729SOL    MW4 6948   0.668   4.412   2.978
 1730SOL     OW 6949   1.130   4.662   3.090
 1730SOL    HW2 6950   1.200   4.698   3.036
 1730SOL    HW3 6951   1.054   4.716   3.069
 1730SOL    MW4 6952   1.129   4.674   3.080
 1731SOL     OW 6953   0.921   0.162   2.992
 1731SOL    HW2 6954   0.921   0.256   3.013
 1731SOL    HW3 6955   0.837   0.130   3.026
 1731SOL    MW4 6956   0.910   0.170   3.000
 1732SOL     OW 6957   0.868   0.431   3.092
 1732SOL    HW2 6958   0.868   0.403   3.183
 1732SOL    HW3 6959   0.955   0.467   3.078
 1732SOL    MW4 6960   0.879   0.432   3.102
 1733SOL     OW 6961   1.125   0.498   2.989
 1733SOL    HW2 6962   1.194   0.444   3.027
 1733SOL    HW3 6963   1.136   0.487   2.895
 1733SOL    MW4 6964   1.136   0.490   2.982
 1734SOL     OW 6965   1.117   0.786   3.058
 1734SOL    HW2 6966   1.132   0.770   3.151
 1734SOL    HW3 6967   1.080   0.704   3.026
 1734SOL    MW4 6968   1.114   0.773   3.066
 1735SOL     OW 6969   0.906   0.925   2.918
 1735SOL    HW2 6970   0.974   0.887   2.974
 1735SOL    HW3 6971   0.824   0.901   2.959
 1735SOL    MW4 6972   0.904   0.917   2.931
 1736SOL     OW 6973   0.884   1.182   3.019
 1736SOL    HW2 6974   0.963   1.232   2.998
 1736SOL    HW3 6975   0.888   1.106   2.960
 1736SOL    MW4 6976   0.895   1.178   3.008
 1737SOL     OW 6977   1.125   1.302   2.976
 1737SOL    HW2 6978   1.198   1.249   3.008
 1737SOL    HW3 6979   1.137   1.302   2.880
 1737SOL    MW4 6980   1.136   1.295   2.967
 1738SOL     OW 6981   1.090   1.559   3.066
 1738SOL    HW2 6982   1.165   1.607   3.032
 1738SOL    HW3 6983   1.113   1.467   3.053
 1738SOL    MW4 6984   1.103   1.553   3.060
 1739SOL     OW 6985   0.854   1.707   2.988
 1739SOL    HW2 6986   0.932   1.659   3.018
 1739SOL    HW3 6987   0.782   1.645   3.001
 1739SOL    MW4 6988   0.855   1.692   2.994
 1740SOL     OW 6989   0.904   1.958   3.105
 1740SOL    HW2 6990   0.911   1.955   3.201
 1740SOL    HW3 6991   0.885   1.868   3.079
 1740SOL    MW4 6992   0.902   1.946   3.114
 1741SOL     OW 6993   1.150   2.001   2.991
 1741SOL    HW2 6994   1.070   1.970   3.033
 1741SOL    HW3 6995   1.128   2.005   2.898
 1741SOL    MW4 6996   1.137   1.997   2.984
 1742SOL     OW 6997   1.079   2.261   3.097
 1742SOL    HW2 6998   1.006   2.302   3.049
 1742SOL    HW3 6999   1.087   2.174   3.060
 1742SOL    MW4 7000   1.070   2.255   3.086
 1743SOL     OW 7001   0.880   2.436   3.001
 1743SOL    HW2 7002   0.795   2.394   3.011
 1743SOL    HW3 7003   0.891   2.444   2.906
 1743SOL    MW4 7004   0.870   2.431   2.990
 1744SOL     OW 7005   0.926   2.692   3.096
 1744SOL    HW2 7006   0.920   2.682   3.191
 1744SOL    HW3 7007   0.904   2.605   3.061
 1744SOL    MW4 7008   0.922   2.679   3.104
 1745SOL     OW 7009   1.143   2.821   2.977
 1745SOL    HW2 7010   1.143   2.905   3.022
 1745SOL    HW3 7011   1.067   2.775   3.014
 1745SOL    MW4 7012   1.133   2.826   2.988
 1746SOL     OW 7013   1.107   3.070   3.101
 1746SOL    HW2 7014   1.167   3.133   3.063
 1746SOL    HW3 7015   1.020   3.103   3.080
 1746SOL    MW4 7016   1.103   3.082   3.093
 1747SOL     OW 7017   0.903   3.199   2.984
 1747SOL    HW2 7018   0.826   3.147   3.005
 1747SOL    HW3 7019   0.905   3.201   2.888
 1747SOL    MW4 7020   0.893   3.192   2.974
 1748SOL     OW 7021   0.891   3.452   3.057
 1748SOL    HW2 7022   0.971   3.497   3.034
 1748SOL    HW3 7023   0.901   3.364   3.020
 1748SOL    MW4 7024   0.903   3.446   3.049
 1749SOL     OW 7025   1.100   3.625   2.985
 1749SOL    HW2 7026   1.179   3.581   3.017
 1749SOL    HW3 7027   1.105   3.713   3.021
 1749SOL    MW4 7028   1.111   3.631   2.994
 1750SOL     OW 7029   1.116   3.886   3.074
 1750SOL    HW2 7030   1.118   3.867   3.168
 1750SOL    HW3 7031   1.029   3.922   3.059
 1750SOL    MW4 7032   1.105   3.888   3.084
 1751SOL     OW 7033   0.878   4.020   2.983
 1751SOL    HW2 7034   0.812   3.951   2.992
 1751SOL    HW3 7035   0.895   4.023   2.889
 1751SOL    MW4 7036   0.871   4.011   2.972
 1752SOL     OW 7037   0.923   4.292   3.076
 1752SOL    HW2 7038   0.920   4.201   3.047
 1752SOL    HW3 7039   0.844   4.331   3.040
 1752SOL    MW4 7040   0.913   4.285   3.068
 1753SOL     OW 7041   1.142   4.396   2.967
 1753SOL    HW2 7042   1.065   4.355   3.006
 1753SOL    HW3 7043   1.138   4.487   2.995
 1753SOL    MW4 7044   1.132   4.402   2.976
 1754SOL     OW 7045   1.569   4.652   3.071
 1754SOL    HW2 7046   1.544   4.645   3.163
 1754SOL    HW3 7047   1.488   4.679   3.027
 1754SOL    MW4 7048   1.555   4.655   3.077
 1755SOL     OW 7049   1.335   0.107   2.950
 1755SOL    HW2 7050   1.336   0.197   2.982
 1755SOL    HW3 7051   1.331   0.116   2.855
 1755SOL    MW4 7052   1.335   0.120   2.942
 1756SOL     OW 7053   1.341   0.349   3.071
 1756SOL    HW2 7054   1.346   0.354   3.167
 1756SOL    HW3 7055   1.411   0.407   3.041
 1756SOL    MW4 7056   1.351   0.357   3.080
 1757SOL     OW 7057   1.525   0.514   2.961
 1757SOL    HW2 7058   1.531   0.602   2.997
 1757SOL    HW3 7059   1.541   0.525   2.867
 1757SOL    MW4 7060   1.528   0.527   2.953
 1758SOL     OW 7061   1.564   0.751   3.082
 1758SOL    HW2 7062   1.580   0.743   3.176
 1758SOL    HW3 7063   1.485   0.806   3.076
 1758SOL    MW4 7064   1.556   0.757   3.094
 1759SOL     OW 7065   1.364   0.893   2.952
 1759SOL    HW2 7066   1.345   0.980   2.985
 1759SOL    HW3 7067   1.290   0.839   2.981
 1759SOL    MW4 7068   1.352   0.897   2.960
 1760SOL     OW 7069   1.348   1.156   3.040
 1760SOL    HW2 7070   1.362   1.151   3.135
 1760SOL    HW3 7071   1.417   1.215   3.009
 1760SOL    MW4 7072   1.359   1.163   3.049
 1761SOL     OW 7073   1.565   1.305   2.958
 1761SOL    HW2 7074   1.640   1.253   2.985
 1761SOL    HW3 7075   1.589   1.395   2.982
 1761SOL    MW4 7076   1.578   1.310   2.965
 1762SOL     OW 7077   1.580   1.575   3.042
 1762SOL    HW2 7078   1.640   1.641   3.005
 1762SOL    HW3 7079   1.493   1.611   3.025
 1762SOL    MW4 7080   1.576   1.589   3.035
 1763SOL     OW 7081   1.328   1.681   2.980
 1763SOL    HW2 7082   1.355   1.762   3.024
 1763SOL    HW3 7083   1.319   1.705   2.888
 1763SOL    MW4 7084   1.330   1.695   2.973
 1764SOL     OW 7085   1.387   1.922   3.116
 1764SOL    HW2 7086   1.386   1.938   3.211
 1764SOL    HW3 7087   1.306   1.962   3.084
 1764SOL    MW4 7088   1.376   1.930   3.125
 1765SOL     OW 7089   1.582   2.070   2.956
 1765SOL    HW2 7090   1.509   2.031   3.005
 1765SOL    HW3 7091   1.551   2.072   2.866
 1765SOL    MW4 7092   1.568   2.065   2.951
 1766SOL     OW 7093   1.574   2.338   3.106
 1766SOL    HW2 7094   1.487   2.368   3.078
 1766SOL    HW3 7095   1.585   2.254   3.062
 1766SOL    MW4 7096   1.564   2.331   3.097
 1767SOL     OW 7097   1.336   2.416   3.004
 1767SOL    HW2 7098   1.262   2.365   3.037
 1767SOL    HW3 7099   1.326   2.413   2.908
 1767SOL    MW4 7100   1.325   2.409   2.995
 1768SOL     OW 7101   1.355   2.682   3.084
 1768SOL    HW2 7102   1.331   2.591   3.067
 1768SOL    HW3 7103   1.287   2.733   3.042
 1768SOL    MW4 7104   1.343   2.677   3.076
 1769SOL     OW 7105   1.571   2.838   2.974
 1769SOL    HW2 7106   1.646   2.791   3.009
 1769SOL    HW3 7107   1.495   2.789   3.005
 1769SOL    MW4 7108   1.571   2.825   2.983
 1770SOL     OW 7109   1.562   3.090   3.066
 1770SOL    HW2 7110   1.551   3.092   3.161
 1770SOL    HW3 7111   1.563   2.997   3.043
 1770SOL    MW4 7112   1.561   3.078   3.075
 1771SOL     OW 7113   1.336   3.238   3.014
 1771SOL    HW2 7114   1.404   3.175   3.040
 1771SOL    HW3 7115   1.341   3.240   2.918
 1771SOL    MW4 7116   1.346   3.230   3.005
 1772SOL     OW 7117   1.340   3.491   3.064
 1772SOL    HW2 7118   1.321   3.488   3.158
 1772SOL    HW3 7119   1.341   3.399   3.037
 1772SOL    MW4 7120   1.337   3.479   3.072
 1773SOL     OW 7121   1.561   3.646   3.012
 1773SOL    HW2 7122   1.484   3.595   3.034
 1773SOL    HW3 7123   1.580   3.623   2.921
 1773SOL    MW4 7124   1.554   3.637   3.003
 1774SOL     OW 7125   1.549   3.918   3.079
 1774SOL    HW2 7126   1.638   3.933   3.045
 1774SOL    HW3 7127   1.530   3.827   3.056
 1774SOL    MW4 7128   1.559   3.908   3.071
 1775SOL     OW 7129   1.331   4.013   2.958
 1775SOL    HW2 7130   1.402   3.979   3.011
 1775SOL    HW3 7131   1.251   3.978   2.998
 1775SOL    MW4 7132   1.330   4.004   2.970
 1776SOL     OW 7133   1.347   4.265   3.070
 1776SOL    HW2 7134   1.343   4.177   3.032
 1776SOL    HW3 7135   1.267   4.307   3.039
 1776SOL    MW4 7136   1.336   4.259   3.061
 1777SOL     OW 7137   1.566   4.378   2.950
 1777SOL    HW2 7138   1.489   4.341   2.994
 1777SOL    HW3 7139   1.579   4.463   2.992
 1777SOL    MW4 7140   1.558   4.384   2.962
 1778SOL     OW 7141   2.036   4.662   3.042
 1778SOL    HW2 7142   2.016   4.635   3.132
 1778SOL    HW3 7143   1.953   4.696   3.008
 1778SOL    MW4 7144   2.023   4.663   3.049
 1779SOL     OW 7145   1.793   0.105   2.974
 1779SOL    HW2 7146   1.723   0.057   3.020
 1779SOL    HW3 7147   1.760   0.117   2.885
 1779SOL    MW4 7148   1.779   0.100   2.969
 1780SOL     OW 7149   1.742   0.364   3.094
 1780SOL    HW2 7150   1.753   0.275   3.061
 1780SOL    HW3 7151   1.663   0.396   3.050
 1780SOL    MW4 7152   1.733   0.357   3.084
 1781SOL     OW 7153   1.956   0.499   3.010
 1781SOL    HW2 7154   1.873   0.463   3.041
 1781SOL    HW3 7155   1.950   0.493   2.914
 1781SOL    MW4 7156   1.944   0.494   3.001
 1782SOL     OW 7157   2.007   0.762   3.083
 1782SOL    HW2 7158   1.931   0.805   3.043
 1782SOL    HW3 7159   2.000   0.671   3.056
 1782SOL    MW4 7160   1.996   0.756   3.074
 1783SOL     OW 7161   1.788   0.892   2.975
 1783SOL    HW2 7162   1.712   0.842   3.006
 1783SOL    HW3 7163   1.786   0.882   2.880
 1783SOL    MW4 7164   1.778   0.884   2.967
 1784SOL     OW 7165   1.784   1.162   3.059
 1784SOL    HW2 7166   1.805   1.166   3.153
 1784SOL    HW3 7167   1.781   1.068   3.040
 1784SOL    MW4 7168   1.786   1.150   3.069
 1785SOL     OW 7169   2.003   1.297   2.953
 1785SOL    HW2 7170   2.073   1.242   2.986
 1785SOL    HW3 7171   1.923   1.263   2.994
 1785SOL    MW4 7172   2.001   1.286   2.963
 1786SOL     OW 7173   1.987   1.555   3.064
 1786SOL    HW2 7174   1.993   1.551   3.159
 1786SOL    HW3 7175   2.001   1.465   3.035
 1786SOL    MW4 7176   1.989   1.543   3.073
 1787SOL     OW 7177   1.779   1.733   2.931
 1787SOL    HW2 7178   1.771   1.812   2.986
 1787SOL    HW3 7179   1.848   1.682   2.973
 1787SOL    MW4 7180   1.787   1.737   2.944
 1788SOL     OW 7181   1.792   1.956   3.109
 1788SOL    HW2 7182   1.865   2.007   3.074
 1788SOL    HW3 7183   1.715   1.987   3.061
 1788SOL    MW4 7184   1.791   1.967   3.098
 1789SOL     OW 7185   2.018   2.090   2.998
 1789SOL    HW2 7186   2.100   2.057   3.034
 1789SOL    HW3 7187   2.023   2.184   3.009
 1789SOL    MW4 7188   2.029   2.098   3.004
 1790SOL     OW 7189   2.054   2.368   3.032
 1790SOL    HW2 7190   2.122   2.429   3.004
 1790SOL    HW3 7191   1.972   2.410   3.009
 1790SOL    MW4 7192   2.052   2.381   3.026
 1791SOL     OW 7193   1.792   2.461   2.972
 1791SOL    HW2 7194   1.787   2.550   3.006
 1791SOL    HW3 7195   1.722   2.413   3.016
 1791SOL    MW4 7196   1.782   2.466   2.982
 1792SOL     OW 7197   1.804   2.720   3.083
 1792SOL    HW2 7198   1.812   2.710   3.178
 1792SOL    HW3 7199   1.883   2.767   3.057
 1792SOL    MW4 7200   1.815   2.725   3.092
 1793SOL     OW 7201   2.033   2.849   2.965
 1793SOL    HW2 7202   2.034   2.943   2.982
 1793SOL    HW3 7203   2.016   2.842   2.871
 1793SOL    MW4 7204   2.031   2.861   2.955
 1794SOL     OW 7205   2.003   3.118   3.060
 1794SOL    HW2 7206   1.990   3.099   3.153
 1794SOL    HW3 7207   1.927   3.172   3.036
 1794SOL    MW4 7208   1.991   3.123   3.069
 1795SOL     OW 7209   1.776   3.263   2.994
 1795SOL    HW2 7210   1.704   3.202   3.010
 1795SOL    HW3 7211   1.799   3.249   2.903
 1795SOL    MW4 7212   1.770   3.253   2.984
 1796SOL     OW 7213   1.796   3.517   3.081
 1796SOL    HW2 7214   1.772   3.425   3.072
 1796SOL    HW3 7215   1.717   3.565   3.056
 1796SOL    MW4 7216   1.782   3.511   3.077
 1797SOL     OW 7217   1.998   3.673   2.953
 1797SOL    HW2 7218   1.999   3.755   3.003
 1797SOL    HW3 7219   1.943   3.614   3.004
 1797SOL    MW4 7220   1.991   3.676   2.966
 1798SOL     OW 7221   2.043   3.901   3.121
 1798SOL    HW2 7222   2.037   3.903   3.217
 1798SOL    HW3 7223   1.964   3.944   3.091
 1798SOL    MW4 7224   2.032   3.907   3.130
 1799SOL     OW 7225   1.818   3.995   2.993
 1799SOL    HW2 7226   1.809   4.089   3.011
 1799SOL    HW3 7227   1.818   3.989   2.897
 1799SOL    MW4 7228   1.817   4.006   2.983
 1800SOL     OW 7229   1.803   4.267   3.062
 1800SOL    HW2 7230   1.875   4.319   3.025
 1800SOL    HW3 7231   1.725   4.300   3.018
 1800SOL    MW4 7232   1.802   4.278   3.051
 1801SOL     OW 7233   2.036   4.399   2.983
 1801SOL    HW2 7234   2.034   4.492   3.006
 1801SOL    HW3 7235   2.019   4.398   2.888
 1801SOL    MW4 7236   2.033   4.411   2.973
 1802SOL     OW 7237   2.460   0.042   3.082
 1802SOL    HW2 7238   2.450  -0.052   3.065
 1802SOL    HW3 7239   2.394   0.084   3.027
 1802SOL    MW4 7240   2.450   0.035   3.073
 1803SOL     OW 7241   2.235   0.155   2.966
 1803SOL    HW2 7242   2.241   0.232   3.022
 1803SOL    HW3 7243   2.161   0.105   3.001
 1803SOL    MW4 7244   2.226   0.158   2.978
 1804SOL     OW 7245   2.228   0.395   3.113
 1804SOL    HW2 7246   2.221   0.362   3.202
 1804SOL    HW3 7247   2.144   0.439   3.097
 1804SOL    MW4 7248   2.216   0.396   3.123
 1805SOL     OW 7249   2.445   0.529   3.013
 1805SOL    HW2 7250   2.370   0.481   3.050
 1805SOL    HW3 7251   2.444   0.507   2.920
 1805SOL    MW4 7252   2.435   0.520   3.006
 1806SOL     OW 7253   2.462   0.805   3.092
 1806SOL    HW2 7254   2.524   0.855   3.039
 1806SOL    HW3 7255   2.461   0.718   3.051
 1806SOL    MW4 7256   2.470   0.800   3.080
 1807SOL     OW 7257   2.226   0.889   2.981
 1807SOL    HW2 7258   2.305   0.853   3.021
 1807SOL    HW3 7259   2.156   0.831   3.010
 1807SOL    MW4 7260   2.227   0.877   2.990
 1808SOL     OW 7261   2.218   1.145   3.061
 1808SOL    HW2 7262   2.238   1.153   3.154
 1808SOL    HW3 7263   2.222   1.051   3.044
 1808SOL    MW4 7264   2.221   1.134   3.071
 1809SOL     OW 7265   2.431   1.310   3.033
 1809SOL    HW2 7266   2.355   1.253   3.046
 1809SOL    HW3 7267   2.437   1.321   2.938
 1809SOL    MW4 7268   2.422   1.304   3.023
 1810SOL     OW 7269   2.472   1.584   3.085
 1810SOL    HW2 7270   2.397   1.626   3.043
 1810SOL    HW3 7271   2.459   1.491   3.071
 1810SOL    MW4 7272   2.461   1.577   3.078
 1811SOL     OW 7273   2.210   1.702   2.982
 1811SOL    HW2 7274   2.131   1.656   3.011
 1811SOL    HW3 7275   2.204   1.702   2.887
 1811SOL    MW4 7276   2.199   1.696   2.973
 1812SOL     OW 7277   2.236   1.944   3.093
 1812SOL    HW2 7278   2.317   1.967   3.047
 1812SOL    HW3 7279   2.208   1.863   3.051
 1812SOL    MW4 7280   2.243   1.937   3.081
 1813SOL     OW 7281   2.477   2.074   3.005
 1813SOL    HW2 7282   2.560   2.036   3.032
 1813SOL    HW3 7283   2.467   2.048   2.913
 1813SOL    MW4 7284   2.487   2.066   2.996
 1814SOL     OW 7285   2.423   2.324   3.105
 1814SOL    HW2 7286   2.430   2.331   3.200
 1814SOL    HW3 7287   2.448   2.234   3.086
 1814SOL    MW4 7288   2.427   2.313   3.115
 1815SOL     OW 7289   2.278   2.523   2.966
 1815SOL    HW2 7290   2.277   2.604   3.016
 1815SOL    HW3 7291   2.323   2.460   3.021
 1815SOL    MW4 7292   2.284   2.525   2.980
 1816SOL     OW 7293   2.240   2.739   3.114
 1816SOL    HW2 7294   2.309   2.805   3.113
 1816SOL    HW3 7295   2.172   2.774   3.057
 1816SOL    MW4 7296   2.240   2.752   3.107
 1817SOL     OW 7297   2.477   2.864   3.022
 1817SOL    HW2 7298   2.469   2.959   3.019
 1817SOL    HW3 7299   2.465   2.836   2.931
 1817SOL    MW4 7300   2.474   2.873   3.009
 1818SOL     OW 7301   2.439   3.127   3.100
 1818SOL    HW2 7302   2.526   3.163   3.086
 1818SOL    HW3 7303   2.381   3.185   3.050
 1818SOL    MW4 7304   2.443   3.139   3.092
 1819SOL     OW 7305   2.232   3.279   2.971
 1819SOL    HW2 7306   2.233   3.363   3.017
 1819SOL    HW3 7307   2.152   3.236   3.002
 1819SOL    MW4 7308   2.221   3.285   2.981
 1820SOL     OW 7309   2.212   3.531   3.065
 1820SOL    HW2 7310   2.299   3.568   3.052
 1820SOL    HW3 7311   2.152   3.598   3.031
 1820SOL    MW4 7312   2.215   3.545   3.059
 1821SOL     OW 7313   2.449   3.667   3.028
 1821SOL    HW2 7314   2.531   3.630   3.061
 1821SOL    HW3 7315   2.437   3.748   3.078
 1821SOL    MW4 7316   2.458   3.673   3.039
 1822SOL     OW 7317   2.437   3.942   3.127
 1822SOL    HW2 7318   2.450   3.921   3.219
 1822SOL    HW3 7319   2.525   3.952   3.091
 1822SOL    MW4 7320   2.450   3.941   3.134
 1823SOL     OW 7321   2.246   4.008   2.965
 1823SOL    HW2 7322   2.323   3.997   3.021
 1823SOL    HW3 7323   2.178   3.955   3.006
 1823SOL    MW4 7324   2.247   4.000   2.978
 1824SOL     OW 7325   2.243   4.256   3.091
 1824SOL    HW2 7326   2.244   4.173   3.043
 1824SOL    HW3 7327   2.174   4.307   3.049
 1824SOL    MW4 7328   2.234   4.252   3.079
 1825SOL     OW 7329   2.473   4.410   3.039
 1825SOL    HW2 7330   2.396   4.363   3.070
 1825SOL    HW3 7331   2.463   4.413   2.944
 1825SOL    MW4 7332   2.461   4.404   3.031
 1826SOL     OW 7333   2.912   0.006   3.076
 1826SOL    HW2 7334   2.995   0.050   3.058
 1826SOL    HW3 7335   2.932  -0.087   3.066
 1826SOL    MW4 7336   2.926  -0.001   3.072
 1827SOL     OW 7337   2.697   0.141   2.981
 1827SOL    HW2 7338   2.776   0.092   3.002
 1827SOL    HW3 7339   2.630   0.104   3.038
 1827SOL    MW4 7340   2.699   0.130   2.991
 1828SOL     OW 7341   2.689   0.393   3.124
 1828SOL    HW2 7342   2.686   0.310   3.078
 1828SOL    HW3 7343   2.609   0.438   3.097
 1828SOL    MW4 7344   2.679   0.388   3.114
 1829SOL     OW 7345   2.896   0.519   3.000
 1829SOL    HW2 7346   2.822   0.472   3.037
 1829SOL    HW3 7347   2.876   0.527   2.907
 1829SOL    MW4 7348   2.884   0.514   2.992
 1830SOL     OW 7349   2.890   0.803   3.118
 1830SOL    HW2 7350   2.888   0.804   3.213
 1830SOL    HW3 7351   2.886   0.710   3.095
 1830SOL    MW4 7352   2.889   0.791   3.127
 1831SOL     OW 7353   2.693   0.947   2.990
 1831SOL    HW2 7354   2.692   1.031   3.036
 1831SOL    HW3 7355   2.755   0.893   3.039
 1831SOL    MW4 7356   2.701   0.951   3.003
 1832SOL     OW 7357   2.667   1.176   3.102
 1832SOL    HW2 7358   2.733   1.217   3.046
 1832SOL    HW3 7359   2.584   1.215   3.074
 1832SOL    MW4 7360   2.665   1.187   3.091
 1833SOL     OW 7361   2.903   1.299   2.987
 1833SOL    HW2 7362   2.970   1.241   3.023
 1833SOL    HW3 7363   2.902   1.375   3.045
 1833SOL    MW4 7364   2.911   1.302   2.999
 1834SOL     OW 7365   2.909   1.550   3.104
 1834SOL    HW2 7366   2.924   1.542   3.198
 1834SOL    HW3 7367   2.984   1.599   3.071
 1834SOL    MW4 7368   2.921   1.555   3.112
 1835SOL     OW 7369   2.696   1.690   2.975
 1835SOL    HW2 7370   2.761   1.657   3.036
 1835SOL    HW3 7371   2.613   1.653   3.006
 1835SOL    MW4 7372   2.694   1.681   2.987
 1836SOL     OW 7373   2.716   1.942   3.105
 1836SOL    HW2 7374   2.799   1.972   3.068
 1836SOL    HW3 7375   2.701   1.857   3.064
 1836SOL    MW4 7376   2.725   1.935   3.095
 1837SOL     OW 7377   2.938   2.076   2.986
 1837SOL    HW2 7378   2.921   2.169   3.000
 1837SOL    HW3 7379   2.944   2.066   2.891
 1837SOL    MW4 7380   2.937   2.087   2.976
 1838SOL     OW 7381   2.900   2.327   3.103
 1838SOL    HW2 7382   2.969   2.385   3.070
 1838SOL    HW3 7383   2.818   2.367   3.072
 1838SOL    MW4 7384   2.898   2.340   3.095
 1839SOL     OW 7385   2.666   2.420   2.991
 1839SOL    HW2 7386   2.676   2.508   3.028
 1839SOL    HW3 7387   2.581   2.390   3.022
 1839SOL    MW4 7388   2.656   2.428   3.000
 1840SOL     OW 7389   2.674   2.677   3.089
 1840SOL    HW2 7390   2.680   2.690   3.184
 1840SOL    HW3 7391   2.598   2.729   3.062
 1840SOL    MW4 7392   2.665   2.685   3.098
 1841SOL     OW 7393   2.885   2.835   2.996
 1841SOL    HW2 7394   2.961   2.785   3.024
 1841SOL    HW3 7395   2.810   2.784   3.027
 1841SOL    MW4 7396   2.885   2.821   3.004
 1842SOL     OW 7397   2.911   3.106   3.140
 1842SOL    HW2 7398   2.834   3.151   3.105
 1842SOL    HW3 7399   2.900   3.015   3.112
 1842SOL    MW4 7400   2.899   3.100   3.131
 1843SOL     OW 7401   2.683   3.236   3.017
 1843SOL    HW2 7402   2.686   3.330   3.038
 1843SOL    HW3 7403   2.665   3.233   2.923
 1843SOL    MW4 7404   2.681   3.248   3.007
 1844SOL     OW 7405   2.657   3.510   3.098
 1844SOL    HW2 7406   2.657   3.505   3.194
 1844SOL    HW3 7407   2.745   3.540   3.076
 1844SOL    MW4 7408   2.668   3.513   3.108
 1845SOL     OW 7409   2.893   3.614   3.019
 1845SOL    HW2 7410   2.968   3.574   3.062
 1845SOL    HW3 7411   2.901   3.707   3.038
 1845SOL    MW4 7412   2.904   3.621   3.027
 1846SOL     OW 7413   2.915   3.882   3.091
 1846SOL    HW2 7414   2.909   3.870   3.185
 1846SOL    HW3 7415   2.832   3.922   3.066
 1846SOL    MW4 7416   2.903   3.886   3.100
 1847SOL     OW 7417   2.666   4.006   3.005
 1847SOL    HW2 7418   2.673   4.098   3.028
 1847SOL    HW3 7419   2.666   4.005   2.909
 1847SOL    MW4 7420   2.667   4.018   2.995
 1848SOL     OW 7421   2.710   4.269   3.081
 1848SOL    HW2 7422   2.716   4.265   3.176
 1848SOL    HW3 7423   2.629   4.318   3.064
 1848SOL    MW4 7424   2.700   4.275   3.091
 1849SOL     OW 7425   2.925   4.404   2.980
 1849SOL    HW2 7426   2.996   4.351   3.018
 1849SOL    HW3 7427   2.845   4.367   3.017
 1849SOL    MW4 7428   2.924   4.392   2.990
 1850SOL     OW 7429   3.367   4.636   3.154
 1850SOL    HW2 7430   3.446   4.678   3.120
 1850SOL    HW3 7431   3.356   4.558   3.101
 1850SOL    MW4 7432   3.376   4.631   3.143
 1851SOL     OW 7433   3.157   0.103   2.999
 1851SOL    HW2 7434   3.143   0.194   3.027
 1851SOL    HW3 7435   3.223   0.070   3.060
 1851SOL    MW4 7436   3.164   0.111   3.011
 1852SOL     OW 7437   3.119   0.365   3.092
 1852SOL    HW2 7438   3.188   0.410   3.043
 1852SOL    HW3 7439   3.037   0.396   3.053
 1852SOL    MW4 7440   3.117   0.375   3.080
 1853SOL     OW 7441   3.352   0.502   2.990
 1853SOL    HW2 7442   3.424   0.449   3.025
 1853SOL    HW3 7443   3.371   0.509   2.897
 1853SOL    MW4 7444   3.364   0.496   2.983
 1854SOL     OW 7445   3.357   0.773   3.069
 1854SOL    HW2 7446   3.366   0.774   3.164
 1854SOL    HW3 7447   3.345   0.680   3.047
 1854SOL    MW4 7448   3.356   0.761   3.078
 1855SOL     OW 7449   3.131   0.908   2.992
 1855SOL    HW2 7450   3.201   0.855   3.032
 1855SOL    HW3 7451   3.050   0.867   3.023
 1855SOL    MW4 7452   3.130   0.896   3.002
 1856SOL     OW 7453   3.132   1.162   3.083
 1856SOL    HW2 7454   3.212   1.207   3.056
 1856SOL    HW3 7455   3.140   1.074   3.048
 1856SOL    MW4 7456   3.143   1.156   3.075
 1857SOL     OW 7457   3.368   1.276   2.992
 1857SOL    HW2 7458   3.452   1.238   3.019
 1857SOL    HW3 7459   3.361   1.357   3.042
 1857SOL    MW4 7460   3.378   1.282   3.002
 1858SOL     OW 7461   3.326   1.514   3.099
 1858SOL    HW2 7462   3.334   1.521   3.195
 1858SOL    HW3 7463   3.405   1.558   3.066
 1858SOL    MW4 7464   3.338   1.521   3.107
 1859SOL     OW 7465   3.126   1.700   3.034
 1859SOL    HW2 7466   3.195   1.639   3.061
 1859SOL    HW3 7467   3.127   1.697   2.939
 1859SOL    MW4 7468   3.136   1.692   3.025
 1860SOL     OW 7469   3.148   1.950   3.115
 1860SOL    HW2 7470   3.138   1.857   3.098
 1860SOL    HW3 7471   3.077   1.992   3.066
 1860SOL    MW4 7472   3.138   1.943   3.106
 1861SOL     OW 7473   3.363   2.045   2.974
 1861SOL    HW2 7474   3.434   2.000   3.021
 1861SOL    HW3 7475   3.283   2.008   3.010
 1861SOL    MW4 7476   3.362   2.034   2.985
 1862SOL     OW 7477   3.370   2.323   3.044
 1862SOL    HW2 7478   3.378   2.329   3.139
 1862SOL    HW3 7479   3.372   2.229   3.026
 1862SOL    MW4 7480   3.371   2.311   3.054
 1863SOL     OW 7481   3.143   2.447   3.005
 1863SOL    HW2 7482   3.224   2.400   3.027
 1863SOL    HW3 7483   3.143   2.453   2.910
 1863SOL    MW4 7484   3.154   2.442   2.995
 1864SOL     OW 7485   3.097   2.694   3.117
 1864SOL    HW2 7486   3.101   2.686   3.212
 1864SOL    HW3 7487   3.135   2.611   3.085
 1864SOL    MW4 7488   3.103   2.682   3.125
 1865SOL     OW 7489   3.351   2.798   3.021
 1865SOL    HW2 7490   3.351   2.892   3.040
 1865SOL    HW3 7491   3.273   2.765   3.064
 1865SOL    MW4 7492   3.341   2.806   3.029
 1866SOL     OW 7493   3.324   3.096   3.075
 1866SOL    HW2 7494   3.338   3.103   3.170
 1866SOL    HW3 7495   3.254   3.158   3.056
 1866SOL    MW4 7496   3.317   3.105   3.085
 1867SOL     OW 7497   3.119   3.256   3.023
 1867SOL    HW2 7498   3.042   3.201   3.038
 1867SOL    HW3 7499   3.133   3.251   2.928
 1867SOL    MW4 7500   3.111   3.248   3.012
 1868SOL     OW 7501   3.131   3.508   3.133
 1868SOL    HW2 7502   3.205   3.540   3.082
 1868SOL    HW3 7503   3.125   3.415   3.112
 1868SOL    MW4 7504   3.140   3.500   3.124
 1869SOL     OW 7505   3.363   3.589   3.007
 1869SOL    HW2 7506   3.446   3.548   3.033
 1869SOL    HW3 7507   3.373   3.681   3.031
 1869SOL    MW4 7508   3.375   3.596   3.014
 1870SOL     OW 7509   3.352   3.859   3.088
 1870SOL    HW2 7510   3.348   3.877   3.182
 1870SOL    HW3 7511   3.274   3.901   3.052
 1870SOL    MW4 7512   3.341   3.867   3.096
 1871SOL     OW 7513   3.138   4.025   3.011
 1871SOL    HW2 7514   3.050   3.993   3.030
 1871SOL    HW3 7515   3.139   4.035   2.915
 1871SOL    MW4 7516   3.126   4.022   3.001
 1872SOL     OW 7517   3.138   4.279   3.118
 1872SOL    HW2 7518   3.133   4.267   3.212
 1872SOL    HW3 7519   3.136   4.191   3.082
 1872SOL    MW4 7520   3.137   4.266   3.125
 1873SOL     OW 7521   3.349   4.404   3.003
 1873SOL    HW2 7522   3.431   4.387   3.049
 1873SOL    HW3 7523   3.283   4.356   3.053
 1873SOL    MW4 7524   3.352   4.395   3.016
 1874SOL     OW 7525   3.869   0.001   3.138
 1874SOL    HW2 7526   3.875  -0.092   3.118
 1874SOL    HW3 7527   3.791   0.031   3.091
 1874SOL    MW4 7528   3.859  -0.007   3.129
 1875SOL     OW 7529   3.609   0.079   3.043
 1875SOL    HW2 7530   3.596   0.173   3.056
 1875SOL    HW3 7531   3.600   0.066   2.949
 1875SOL    MW4 7532   3.607   0.089   3.032
 1876SOL     OW 7533   3.561   0.352   3.088
 1876SOL    HW2 7534   3.557   0.330   3.182
 1876SOL    HW3 7535   3.650   0.383   3.075
 1876SOL    MW4 7536   3.572   0.353   3.099
 1877SOL     OW 7537   3.841   0.448   3.009
 1877SOL    HW2 7538   3.927   0.429   3.046
 1877SOL    HW3 7539   3.825   0.540   3.030
 1877SOL    MW4 7540   3.850   0.458   3.017
 1878SOL     OW 7541   3.799   0.718   3.033
 1878SOL    HW2 7542   3.783   0.722   3.127
 1878SOL    HW3 7543   3.878   0.770   3.020
 1878SOL    MW4 7544   3.807   0.726   3.044
 1879SOL     OW 7545   3.594   0.870   2.947
 1879SOL    HW2 7546   3.665   0.811   2.971
 1879SOL    HW3 7547   3.515   0.830   2.984
 1879SOL    MW4 7548   3.593   0.857   2.955
 1880SOL     OW 7549   3.606   1.137   3.072
 1880SOL    HW2 7550   3.686   1.181   3.042
 1880SOL    HW3 7551   3.606   1.054   3.024
 1880SOL    MW4 7552   3.617   1.132   3.061
 1881SOL     OW 7553   3.835   1.281   2.998
 1881SOL    HW2 7554   3.846   1.369   3.033
 1881SOL    HW3 7555   3.815   1.294   2.905
 1881SOL    MW4 7556   3.833   1.294   2.990
 1882SOL     OW 7557   3.829   1.525   3.135
 1882SOL    HW2 7558   3.827   1.551   3.227
 1882SOL    HW3 7559   3.748   1.560   3.099
 1882SOL    MW4 7560   3.818   1.533   3.143
 1883SOL     OW 7561   3.575   1.626   3.030
 1883SOL    HW2 7562   3.569   1.719   3.054
 1883SOL    HW3 7563   3.568   1.626   2.934
 1883SOL    MW4 7564   3.573   1.638   3.021
 1884SOL     OW 7565   3.579   1.903   3.081
 1884SOL    HW2 7566   3.604   1.915   3.172
 1884SOL    HW3 7567   3.659   1.918   3.031
 1884SOL    MW4 7568   3.593   1.907   3.086
 1885SOL     OW 7569   3.804   1.985   2.973
 1885SOL    HW2 7570   3.808   2.074   3.009
 1885SOL    HW3 7571   3.821   1.996   2.879
 1885SOL    MW4 7572   3.806   1.998   2.965
 1886SOL     OW 7573   3.828   2.242   3.081
 1886SOL    HW2 7574   3.842   2.280   3.168
 1886SOL    HW3 7575   3.749   2.285   3.048
 1886SOL    MW4 7576   3.820   2.253   3.088
 1887SOL     OW 7577   3.618   2.420   2.967
 1887SOL    HW2 7578   3.619   2.509   3.003
 1887SOL    HW3 7579   3.527   2.392   2.974
 1887SOL    MW4 7580   3.606   2.428   2.973
 1888SOL     OW 7581   3.589   2.684   3.068
 1888SOL    HW2 7582   3.650   2.747   3.030
 1888SOL    HW3 7583   3.502   2.718   3.047
 1888SOL    MW4 7584   3.586   2.697   3.060
 1889SOL     OW 7585   3.817   2.812   2.994
 1889SOL    HW2 7586   3.822   2.893   3.043
 1889SOL    HW3 7587   3.824   2.838   2.902
 1889SOL    MW4 7588   3.819   2.826   2.988
 1890SOL     OW 7589   3.814   3.057   3.117
 1890SOL    HW2 7590   3.883   3.096   3.064
 1890SOL    HW3 7591   3.733   3.096   3.084
 1890SOL    MW4 7592   3.812   3.067   3.106
 1891SOL     OW 7593   3.592   3.199   2.993
 1891SOL    HW2 7594   3.513   3.152   3.019
 1891SOL    HW3 7595   3.586   3.207   2.898
 1891SOL    MW4 7596   3.581   3.194   2.984
 1892SOL     OW 7597   3.589   3.469   3.061
 1892SOL    HW2 7598   3.659   3.526   3.031
 1892SOL    HW3 7599   3.610   3.383   3.025
 1892SOL    MW4 7600   3.601   3.465   3.052
 1893SOL     OW 7601   3.833   3.620   3.005
 1893SOL    HW2 7602   3.823   3.712   3.029
 1893SOL    HW3 7603   3.837   3.620   2.910
 1893SOL    MW4 7604   3.832   3.632   2.996
 1894SOL     OW 7605   3.789   3.876   3.055
 1894SOL    HW2 7606   3.797   3.889   3.149
 1894SOL    HW3 7607   3.713   3.927   3.029
 1894SOL    MW4 7608   3.780   3.884   3.064
 1895SOL     OW 7609   3.563   4.041   2.983
 1895SOL    HW2 7610   3.511   3.971   3.022
 1895SOL    HW3 7611   3.564   4.021   2.889
 1895SOL    MW4 7612   3.557   4.029   2.976
 1896SOL     OW 7613   3.587   4.294   3.096
 1896SOL    HW2 7614   3.672   4.330   3.072
 1896SOL    HW3 7615   3.585   4.208   3.055
 1896SOL    MW4 7616   3.598   4.288   3.087
 1897SOL     OW 7617   3.841   4.418   3.041
 1897SOL    HW2 7618   3.912   4.366   3.079
 1897SOL    HW3 7619   3.849   4.404   2.946
 1897SOL    MW4 7620   3.852   4.409   3.033
 1898SOL     OW 7621   4.316   4.637   3.083
 1898SOL    HW2 7622   4.282   4.643   3.172
 1898SOL    HW3 7623   4.301   4.547   3.057
 1898SOL    MW4 7624   4.310   4.626   3.092
 1899SOL     OW 7625   4.066   0.138   3.013
 1899SOL    HW2 7626   4.152   0.116   3.051
 1899SOL    HW3 7627   4.004   0.086   3.063
 1899SOL    MW4 7628   4.069   0.128   3.025
 1900SOL     OW 7629   4.059   0.372   3.148
 1900SOL    HW2 7630   4.137   0.414   3.109
 1900SOL    HW3 7631   4.058   0.284   3.109
 1900SOL    MW4 7632   4.069   0.366   3.137
 1901SOL     OW 7633   4.275   0.486   3.009
 1901SOL    HW2 7634   4.265   0.576   3.040
 1901SOL    HW3 7635   4.271   0.493   2.913
 1901SOL    MW4 7636   4.273   0.499   3.000
 1902SOL     OW 7637   4.235   0.738   3.087
 1902SOL    HW2 7638   4.154   0.779   3.056
 1902SOL    HW3 7639   4.305   0.793   3.051
 1902SOL    MW4 7640   4.234   0.751   3.078
 1903SOL     OW 7641   4.018   0.875   2.973
 1903SOL    HW2 7642   4.029   0.965   3.005
 1903SOL    HW3 7643   4.016   0.884   2.878
 1903SOL    MW4 7644   4.019   0.888   2.965
 1904SOL     OW 7645   4.070   1.132   3.064
 1904SOL    HW2 7646   4.070   1.124   3.159
 1904SOL    HW3 7647   3.991   1.181   3.044
 1904SOL    MW4 7648   4.060   1.138   3.074
 1905SOL     OW 7649   4.287   1.272   2.993
 1905SOL    HW2 7650   4.216   1.212   3.016
 1905SOL    HW3 7651   4.278   1.283   2.898
 1905SOL    MW4 7652   4.276   1.265   2.983
 1906SOL     OW 7653   4.201   1.492   3.137
 1906SOL    HW2 7654   4.136   1.539   3.085
 1906SOL    HW3 7655   4.230   1.421   3.080
 1906SOL    MW4 7656   4.196   1.489   3.123
 1907SOL     OW 7657   4.018   1.644   2.980
 1907SOL    HW2 7658   4.026   1.728   3.025
 1907SOL    HW3 7659   3.943   1.601   3.022
 1907SOL    MW4 7660   4.009   1.649   2.991
 1908SOL     OW 7661   4.041   1.877   3.108
 1908SOL    HW2 7662   4.119   1.928   3.089
 1908SOL    HW3 7663   3.970   1.926   3.066
 1908SOL    MW4 7664   4.042   1.890   3.100
 1909SOL     OW 7665   4.242   2.037   3.011
 1909SOL    HW2 7666   4.254   2.124   3.049
 1909SOL    HW3 7667   4.243   2.051   2.917
 1909SOL    MW4 7668   4.244   2.050   3.004
 1910SOL     OW 7669   4.273   2.299   3.122
 1910SOL    HW2 7670   4.192   2.331   3.081
 1910SOL    HW3 7671   4.343   2.344   3.075
 1910SOL    MW4 7672   4.271   2.309   3.110
 1911SOL     OW 7673   4.027   2.395   2.965
 1911SOL    HW2 7674   4.017   2.484   2.998
 1911SOL    HW3 7675   3.955   2.347   3.006
 1911SOL    MW4 7676   4.016   2.400   2.975
 1912SOL     OW 7677   4.030   2.672   3.095
 1912SOL    HW2 7678   4.039   2.677   3.190
 1912SOL    HW3 7679   3.948   2.718   3.077
 1912SOL    MW4 7680   4.020   2.679   3.105
 1913SOL     OW 7681   4.246   2.814   3.051
 1913SOL    HW2 7682   4.171   2.759   3.070
 1913SOL    HW3 7683   4.322   2.760   3.072
 1913SOL    MW4 7684   4.246   2.800   3.056
 1914SOL     OW 7685   4.260   3.093   3.128
 1914SOL    HW2 7686   4.175   3.118   3.091
 1914SOL    HW3 7687   4.261   2.997   3.122
 1914SOL    MW4 7688   4.249   3.083   3.122
 1915SOL     OW 7689   4.035   3.188   3.008
 1915SOL    HW2 7690   4.032   3.279   3.038
 1915SOL    HW3 7691   4.048   3.195   2.913
 1915SOL    MW4 7692   4.036   3.201   2.999
 1916SOL     OW 7693   4.058   3.463   3.094
 1916SOL    HW2 7694   4.095   3.469   3.182
 1916SOL    HW3 7695   3.985   3.524   3.095
 1916SOL    MW4 7696   4.053   3.472   3.106
 1917SOL     OW 7697   4.281   3.567   2.975
 1917SOL    HW2 7698   4.266   3.658   2.999
 1917SOL    HW3 7699   4.202   3.521   3.004
 1917SOL    MW4 7700   4.269   3.573   2.982
 1918SOL     OW 7701   4.232   3.839   3.047
 1918SOL    HW2 7702   4.161   3.897   3.022
 1918SOL    HW3 7703   4.310   3.877   3.005
 1918SOL    MW4 7704   4.233   3.851   3.038
 1919SOL     OW 7705   4.007   4.026   2.963
 1919SOL    HW2 7706   4.007   4.113   3.005
 1919SOL    HW3 7707   3.934   3.980   3.004
 1919SOL    MW4 7708   3.997   4.032   2.974
 1920SOL     OW 7709   4.042   4.265   3.128
 1920SOL    HW2 7710   4.042   4.259   3.223
 1920SOL    HW3 7711   4.130   4.297   3.106
 1920SOL    MW4 7712   4.054   4.268   3.138
 1921SOL     OW 7713   4.285   4.361   2.996
 1921SOL    HW2 7714   4.371   4.323   3.010
 1921SOL    HW3 7715   4.275   4.363   2.901
 1921SOL    MW4 7716   4.295   4.356   2.986
 1922SOL     OW 7717   0.180   4.654   3.349
 1922SOL    HW2 7718   0.255   4.699   3.388
 1922SOL    HW3 7719   0.180   4.567   3.388
 1922SOL    MW4 7720   0.190   4.649   3.359
 1923SOL     OW 7721   4.470   0.143   3.490
 1923SOL    HW2 7722   4.467   0.229   3.448
 1923SOL    HW3 7723   4.530   0.092   3.435
 1923SOL    MW4 7724   4.478   0.148   3.477
 1924SOL     OW 7725   4.479   0.385   3.360
 1924SOL    HW2 7726   4.410   0.446   3.388
 1924SOL    HW3 7727   4.559   0.420   3.399
 1924SOL    MW4 7728   4.480   0.398   3.369
 1925SOL     OW 7729   0.218   0.462   3.486
 1925SOL    HW2 7730   0.293   0.419   3.445
 1925SOL    HW3 7731   0.214   0.549   3.446
 1925SOL    MW4 7732   0.227   0.468   3.475
 1926SOL     OW 7733   0.235   0.702   3.357
 1926SOL    HW2 7734   0.308   0.764   3.360
 1926SOL    HW3 7735   0.160   0.753   3.386
 1926SOL    MW4 7736   0.235   0.717   3.361
 1927SOL     OW 7737   0.006   0.848   3.443
 1927SOL    HW2 7738   0.032   0.872   3.532
 1927SOL    HW3 7739  -0.001   0.932   3.397
 1927SOL    MW4 7740   0.008   0.862   3.448
 1928SOL     OW 7741   4.458   1.140   3.380
 1928SOL    HW2 7742   4.535   1.173   3.427
 1928SOL    HW3 7743   4.482   1.145   3.287
 1928SOL    MW4 7744   4.471   1.145   3.374
 1929SOL     OW 7745   0.186   1.290   3.474
 1929SOL    HW2 7746   0.270   1.262   3.438
 1929SOL    HW3 7747   0.176   1.381   3.445
 1929SOL    MW4 7748   0.196   1.298   3.466
 1930SOL     OW 7749   0.173   1.544   3.361
 1930SOL    HW2 7750   0.256   1.592   3.369
 1930SOL    HW3 7751   0.161   1.532   3.267
 1930SOL    MW4 7752   0.183   1.549   3.350
 1931SOL     OW 7753   4.439   1.649   3.484
 1931SOL    HW2 7754   4.367   1.592   3.455
 1931SOL    HW3 7755   4.516   1.616   3.439
 1931SOL    MW4 7756   4.440   1.637   3.475
 1932SOL     OW 7757   0.000   1.901   3.368
 1932SOL    HW2 7758  -0.046   1.825   3.403
 1932SOL    HW3 7759   0.009   1.882   3.274
 1932SOL    MW4 7760  -0.005   1.889   3.360
 1933SOL     OW 7761   0.217   2.052   3.461
 1933SOL    HW2 7762   0.193   2.056   3.554
 1933SOL    HW3 7763   0.158   1.985   3.425
 1933SOL    MW4 7764   0.206   2.044   3.469
 1934SOL     OW 7765   0.215   2.301   3.345
 1934SOL    HW2 7766   0.173   2.366   3.402
 1934SOL    HW3 7767   0.202   2.218   3.391
 1934SOL    MW4 7768   0.208   2.299   3.359
 1935SOL     OW 7769   0.066   2.504   3.467
 1935SOL    HW2 7770   0.064   2.499   3.563
 1935SOL    HW3 7771  -0.016   2.463   3.439
 1935SOL    MW4 7772   0.055   2.498   3.476
 1936SOL     OW 7773   4.482   2.761   3.391
 1936SOL    HW2 7774   4.560   2.808   3.420
 1936SOL    HW3 7775   4.502   2.669   3.408
 1936SOL    MW4 7776   4.495   2.755   3.397
 1937SOL     OW 7777   0.214   2.879   3.507
 1937SOL    HW2 7778   0.292   2.838   3.469
 1937SOL    HW3 7779   0.220   2.971   3.481
 1937SOL    MW4 7780   0.225   2.886   3.499
 1938SOL     OW 7781   0.217   3.135   3.405
 1938SOL    HW2 7782   0.139   3.187   3.427
 1938SOL    HW3 7783   0.221   3.137   3.309
 1938SOL    MW4 7784   0.207   3.142   3.395
 1939SOL     OW 7785   0.015   3.294   3.521
 1939SOL    HW2 7786  -0.068   3.261   3.487
 1939SOL    HW3 7787   0.028   3.378   3.476
 1939SOL    MW4 7788   0.006   3.301   3.510
 1940SOL     OW 7789   0.046   3.527   3.359
 1940SOL    HW2 7790  -0.041   3.557   3.383
 1940SOL    HW3 7791   0.041   3.510   3.265
 1940SOL    MW4 7792   0.034   3.529   3.350
 1941SOL     OW 7793   0.234   3.662   3.513
 1941SOL    HW2 7794   0.220   3.655   3.607
 1941SOL    HW3 7795   0.167   3.607   3.474
 1941SOL    MW4 7796   0.224   3.654   3.520
 1942SOL     OW 7797   0.243   3.864   3.326
 1942SOL    HW2 7798   0.157   3.900   3.348
 1942SOL    HW3 7799   0.248   3.783   3.376
 1942SOL    MW4 7800   0.232   3.858   3.336
 1943SOL     OW 7801   0.007   3.941   3.440
 1943SOL    HW2 7802   0.014   3.935   3.535
 1943SOL    HW3 7803  -0.003   4.034   3.422
 1943SOL    MW4 7804   0.007   3.952   3.450
 1944SOL     OW 7805   4.483   4.247   3.350
 1944SOL    HW2 7806   4.410   4.301   3.380
 1944SOL    HW3 7807   4.561   4.301   3.367
 1944SOL    MW4 7808   4.484   4.261   3.356
 1945SOL     OW 7809   0.206   4.377   3.445
 1945SOL    HW2 7810   0.214   4.387   3.540
 1945SOL    HW3 7811   0.292   4.345   3.417
 1945SOL    MW4 7812   0.218   4.374   3.454
 1946SOL     OW 7813   0.661   0.031   3.358
 1946SOL    HW2 7814   0.738   0.072   3.398
 1946SOL    HW3 7815   0.685   0.021   3.266
 1946SOL    MW4 7816   0.674   0.035   3.351
 1947SOL     OW 7817   0.401   0.091   3.465
 1947SOL    HW2 7818   0.407   0.083   3.560
 1947SOL    HW3 7819   0.472   0.036   3.431
 1947SOL    MW4 7820   0.411   0.082   3.473
 1948SOL     OW 7821   0.446   0.342   3.347
 1948SOL    HW2 7822   0.502   0.391   3.407
 1948SOL    HW3 7823   0.437   0.256   3.387
 1948SOL    MW4 7824   0.452   0.337   3.360
 1949SOL     OW 7825   0.659   0.516   3.430
 1949SOL    HW2 7826   0.666   0.530   3.525
 1949SOL    HW3 7827   0.733   0.459   3.409
 1949SOL    MW4 7828   0.670   0.511   3.440
 1950SOL     OW 7829   0.692   0.794   3.323
 1950SOL    HW2 7830   0.612   0.837   3.355
 1950SOL    HW3 7831   0.685   0.704   3.354
 1950SOL    MW4 7832   0.680   0.788   3.331
 1951SOL     OW 7833   0.436   0.923   3.382
 1951SOL    HW2 7834   0.456   0.914   3.475
 1951SOL    HW3 7835   0.433   1.017   3.366
 1951SOL    MW4 7836   0.439   0.934   3.392
 1952SOL     OW 7837   0.417   1.206   3.359
 1952SOL    HW2 7838   0.500   1.232   3.399
 1952SOL    HW3 7839   0.436   1.203   3.265
 1952SOL    MW4 7840   0.431   1.209   3.352
 1953SOL     OW 7841   0.687   1.302   3.410
 1953SOL    HW2 7842   0.770   1.262   3.382
 1953SOL    HW3 7843   0.681   1.383   3.359
 1953SOL    MW4 7844   0.697   1.307   3.399
 1954SOL     OW 7845   0.651   1.549   3.328
 1954SOL    HW2 7846   0.716   1.592   3.383
 1954SOL    HW3 7847   0.569   1.594   3.346
 1954SOL    MW4 7848   0.649   1.560   3.337
 1955SOL     OW 7849   0.410   1.688   3.381
 1955SOL    HW2 7850   0.410   1.680   3.476
 1955SOL    HW3 7851   0.408   1.782   3.365
 1955SOL    MW4 7852   0.409   1.699   3.391
 1956SOL     OW 7853   0.450   1.960   3.338
 1956SOL    HW2 7854   0.370   1.991   3.382
 1956SOL    HW3 7855   0.429   1.966   3.245
 1956SOL    MW4 7856   0.437   1.965   3.332
 1957SOL     OW 7857   0.658   2.091   3.441
 1957SOL    HW2 7858   0.646   2.072   3.534
 1957SOL    HW3 7859   0.583   2.052   3.398
 1957SOL    MW4 7860   0.647   2.084   3.447
 1958SOL     OW 7861   0.656   2.346   3.314
 1958SOL    HW2 7862   0.721   2.402   3.355
 1958SOL    HW3 7863   0.669   2.260   3.355
 1958SOL    MW4 7864   0.666   2.342   3.325
 1959SOL     OW 7865   0.436   2.459   3.431
 1959SOL    HW2 7866   0.514   2.415   3.397
 1959SOL    HW3 7867   0.362   2.411   3.393
 1959SOL    MW4 7868   0.437   2.447   3.422
 1960SOL     OW 7869   0.409   2.732   3.387
 1960SOL    HW2 7870   0.417   2.642   3.420
 1960SOL    HW3 7871   0.441   2.726   3.296
 1960SOL    MW4 7872   0.415   2.719   3.379
 1961SOL     OW 7873   0.654   2.846   3.485
 1961SOL    HW2 7874   0.738   2.807   3.464
 1961SOL    HW3 7875   0.590   2.794   3.436
 1961SOL    MW4 7876   0.656   2.834   3.476
 1962SOL     OW 7877   0.624   3.084   3.369
 1962SOL    HW2 7878   0.567   3.134   3.427
 1962SOL    HW3 7879   0.633   2.999   3.412
 1962SOL    MW4 7880   0.618   3.079   3.383
 1963SOL     OW 7881   0.459   3.242   3.506
 1963SOL    HW2 7882   0.456   3.245   3.602
 1963SOL    HW3 7883   0.373   3.208   3.481
 1963SOL    MW4 7884   0.447   3.238   3.515
 1964SOL     OW 7885   0.447   3.508   3.396
 1964SOL    HW2 7886   0.432   3.426   3.443
 1964SOL    HW3 7887   0.382   3.568   3.432
 1964SOL    MW4 7888   0.436   3.505   3.407
 1965SOL     OW 7889   0.686   3.635   3.488
 1965SOL    HW2 7890   0.763   3.612   3.436
 1965SOL    HW3 7891   0.616   3.580   3.452
 1965SOL    MW4 7892   0.687   3.624   3.477
 1966SOL     OW 7893   0.666   3.874   3.328
 1966SOL    HW2 7894   0.593   3.917   3.373
 1966SOL    HW3 7895   0.670   3.787   3.368
 1966SOL    MW4 7896   0.657   3.868   3.339
 1967SOL     OW 7897   0.451   3.999   3.451
 1967SOL    HW2 7898   0.437   4.083   3.408
 1967SOL    HW3 7899   0.382   3.942   3.417
 1967SOL    MW4 7900   0.440   4.002   3.441
 1968SOL     OW 7901   0.438   4.269   3.347
 1968SOL    HW2 7902   0.513   4.314   3.385
 1968SOL    HW3 7903   0.464   4.249   3.257
 1968SOL    MW4 7904   0.451   4.272   3.340
 1969SOL     OW 7905   0.675   4.413   3.436
 1969SOL    HW2 7906   0.753   4.362   3.414
 1969SOL    HW3 7907   0.690   4.498   3.394
 1969SOL    MW4 7908   0.687   4.418   3.428
 1970SOL     OW 7909   1.093   4.656   3.361
 1970SOL    HW2 7910   1.175   4.699   3.386
 1970SOL    HW3 7911   1.093   4.659   3.265
 1970SOL    MW4 7912   1.104   4.662   3.352
 1971SOL     OW 7913   0.890   0.124   3.475
 1971SOL    HW2 7914   0.892   0.107   3.569
 1971SOL    HW3 7915   0.956   0.065   3.437
 1971SOL    MW4 7916   0.899   0.114   3.482
 1972SOL     OW 7917   0.900   0.390   3.393
 1972SOL    HW2 7918   0.986   0.430   3.406
 1972SOL    HW3 7919   0.903   0.309   3.443
 1972SOL    MW4 7920   0.912   0.385   3.402
 1973SOL     OW 7921   1.163   0.482   3.429
 1973SOL    HW2 7922   1.164   0.506   3.522
 1973SOL    HW3 7923   1.165   0.565   3.382
 1973SOL    MW4 7924   1.163   0.496   3.435
 1974SOL     OW 7925   1.150   0.728   3.329
 1974SOL    HW2 7926   1.232   0.771   3.356
 1974SOL    HW3 7927   1.081   0.782   3.368
 1974SOL    MW4 7928   1.152   0.741   3.338
 1975SOL     OW 7929   0.935   0.911   3.389
 1975SOL    HW2 7930   0.929   1.001   3.359
 1975SOL    HW3 7931   0.853   0.871   3.361
 1975SOL    MW4 7932   0.923   0.917   3.382
 1976SOL     OW 7933   0.914   1.177   3.310
 1976SOL    HW2 7934   0.987   1.234   3.334
 1976SOL    HW3 7935   0.921   1.168   3.215
 1976SOL    MW4 7936   0.924   1.183   3.301
 1977SOL     OW 7937   1.135   1.293   3.425
 1977SOL    HW2 7938   1.128   1.284   3.520
 1977SOL    HW3 7939   1.135   1.388   3.410
 1977SOL    MW4 7940   1.134   1.305   3.436
 1978SOL     OW 7941   1.110   1.561   3.346
 1978SOL    HW2 7942   1.175   1.627   3.372
 1978SOL    HW3 7943   1.120   1.553   3.251
 1978SOL    MW4 7944   1.120   1.568   3.337
 1979SOL     OW 7945   0.858   1.631   3.480
 1979SOL    HW2 7946   0.861   1.724   3.459
 1979SOL    HW3 7947   0.937   1.594   3.441
 1979SOL    MW4 7948   0.869   1.638   3.472
 1980SOL     OW 7949   0.854   1.913   3.367
 1980SOL    HW2 7950   0.935   1.959   3.391
 1980SOL    HW3 7951   0.784   1.972   3.395
 1980SOL    MW4 7952   0.856   1.927   3.374
 1981SOL     OW 7953   1.067   2.054   3.410
 1981SOL    HW2 7954   1.160   2.039   3.393
 1981SOL    HW3 7955   1.057   2.149   3.411
 1981SOL    MW4 7956   1.078   2.064   3.408
 1982SOL     OW 7957   1.097   2.321   3.366
 1982SOL    HW2 7958   1.180   2.366   3.377
 1982SOL    HW3 7959   1.087   2.313   3.271
 1982SOL    MW4 7960   1.107   2.326   3.355
 1983SOL     OW 7961   0.851   2.456   3.466
 1983SOL    HW2 7962   0.842   2.453   3.561
 1983SOL    HW3 7963   0.928   2.402   3.447
 1983SOL    MW4 7964   0.860   2.449   3.476
 1984SOL     OW 7965   0.876   2.717   3.361
 1984SOL    HW2 7966   0.953   2.768   3.386
 1984SOL    HW3 7967   0.883   2.636   3.412
 1984SOL    MW4 7968   0.887   2.713   3.371
 1985SOL     OW 7969   1.098   2.851   3.445
 1985SOL    HW2 7970   1.101   2.834   3.539
 1985SOL    HW3 7971   1.181   2.817   3.412
 1985SOL    MW4 7972   1.109   2.844   3.453
 1986SOL     OW 7973   1.069   3.112   3.366
 1986SOL    HW2 7974   1.061   3.025   3.405
 1986SOL    HW3 7975   1.099   3.096   3.277
 1986SOL    MW4 7976   1.072   3.098   3.359
 1987SOL     OW 7977   0.832   3.250   3.437
 1987SOL    HW2 7978   0.911   3.204   3.409
 1987SOL    HW3 7979   0.760   3.195   3.405
 1987SOL    MW4 7980   0.833   3.236   3.429
 1988SOL     OW 7981   0.865   3.499   3.315
 1988SOL    HW2 7982   0.859   3.415   3.359
 1988SOL    HW3 7983   0.880   3.478   3.223
 1988SOL    MW4 7984   0.866   3.485   3.308
 1989SOL     OW 7985   1.076   3.602   3.459
 1989SOL    HW2 7986   1.073   3.591   3.554
 1989SOL    HW3 7987   0.992   3.571   3.428
 1989SOL    MW4 7988   1.065   3.597   3.468
 1990SOL     OW 7989   1.114   3.843   3.333
 1990SOL    HW2 7990   1.187   3.885   3.378
 1990SOL    HW3 7991   1.111   3.755   3.371
 1990SOL    MW4 7992   1.124   3.837   3.344
 1991SOL     OW 7993   0.896   3.983   3.461
 1991SOL    HW2 7994   0.975   3.943   3.425
 1991SOL    HW3 7995   0.824   3.940   3.415
 1991SOL    MW4 7996   0.897   3.972   3.450
 1992SOL     OW 7997   0.891   4.253   3.347
 1992SOL    HW2 7998   0.892   4.162   3.375
 1992SOL    HW3 7999   0.898   4.249   3.251
 1992SOL    MW4 8000   0.892   4.241   3.338
 1993SOL     OW 8001   1.122   4.381   3.449
 1993SOL    HW2 8002   1.041   4.339   3.419
 1993SOL    HW3 8003   1.120   4.468   3.409
 1993SOL    MW4 8004   1.111   4.387   3.440
 1994SOL     OW 8005   1.539   4.650   3.335
 1994SOL    HW2 8006   1.565   4.568   3.376
 1994SOL    HW3 8007   1.463   4.679   3.386
 1994SOL    MW4 8008   1.532   4.643   3.347
 1995SOL     OW 8009   1.325   0.103   3.454
 1995SOL    HW2 8010   1.333   0.118   3.548
 1995SOL    HW3 8011   1.339   0.189   3.415
 1995SOL    MW4 8012   1.328   0.116   3.461
 1996SOL     OW 8013   1.381   0.341   3.341
 1996SOL    HW2 8014   1.448   0.380   3.398
 1996SOL    HW3 8015   1.300   0.383   3.368
 1996SOL    MW4 8016   1.379   0.352   3.352
 1997SOL     OW 8017   1.545   0.486   3.487
 1997SOL    HW2 8018   1.553   0.508   3.580
 1997SOL    HW3 8019   1.630   0.447   3.464
 1997SOL    MW4 8020   1.557   0.484   3.496
 1998SOL     OW 8021   1.583   0.742   3.356
 1998SOL    HW2 8022   1.505   0.796   3.369
 1998SOL    HW3 8023   1.566   0.664   3.410
 1998SOL    MW4 8024   1.570   0.739   3.365
 1999SOL     OW 8025   1.352   0.902   3.417
 1999SOL    HW2 8026   1.342   0.909   3.512
 1999SOL    HW3 8027   1.360   0.993   3.387
 1999SOL    MW4 8028   1.352   0.915   3.426
 2000SOL     OW 8029   1.358   1.176   3.331
 2000SOL    HW2 8030   1.433   1.224   3.364
 2000SOL    HW3 8031   1.283   1.212   3.378
 2000SOL    MW4 8032   1.358   1.187   3.341
 2001SOL     OW 8033   1.590   1.313   3.402
 2001SOL    HW2 8034   1.607   1.313   3.496
 2001SOL    HW3 8035   1.653   1.251   3.366
 2001SOL    MW4 8036   1.600   1.305   3.410
 2002SOL     OW 8037   1.569   1.569   3.320
 2002SOL    HW2 8038   1.566   1.480   3.356
 2002SOL    HW3 8039   1.586   1.556   3.226
 2002SOL    MW4 8040   1.570   1.556   3.312
 2003SOL     OW 8041   1.345   1.716   3.410
 2003SOL    HW2 8042   1.360   1.711   3.504
 2003SOL    HW3 8043   1.422   1.675   3.371
 2003SOL    MW4 8044   1.357   1.710   3.417
 2004SOL     OW 8045   1.332   1.984   3.378
 2004SOL    HW2 8046   1.416   2.010   3.414
 2004SOL    HW3 8047   1.327   1.890   3.394
 2004SOL    MW4 8048   1.342   1.975   3.385
 2005SOL     OW 8049   1.567   2.060   3.472
 2005SOL    HW2 8050   1.642   2.004   3.452
 2005SOL    HW3 8051   1.588   2.144   3.433
 2005SOL    MW4 8052   1.580   2.064   3.464
 2006SOL     OW 8053   1.574   2.317   3.387
 2006SOL    HW2 8054   1.497   2.369   3.412
 2006SOL    HW3 8055   1.577   2.322   3.292
 2006SOL    MW4 8056   1.564   2.325   3.378
 2007SOL     OW 8057   1.343   2.461   3.407
 2007SOL    HW2 8058   1.337   2.461   3.503
 2007SOL    HW3 8059   1.343   2.554   3.383
 2007SOL    MW4 8060   1.342   2.473   3.417
 2008SOL     OW 8061   1.325   2.738   3.342
 2008SOL    HW2 8062   1.412   2.769   3.370
 2008SOL    HW3 8063   1.337   2.714   3.250
 2008SOL    MW4 8064   1.338   2.739   3.333
 2009SOL     OW 8065   1.581   2.853   3.432
 2009SOL    HW2 8066   1.661   2.819   3.391
 2009SOL    HW3 8067   1.572   2.941   3.395
 2009SOL    MW4 8068   1.590   2.860   3.422
 2010SOL     OW 8069   1.556   3.116   3.335
 2010SOL    HW2 8070   1.617   3.185   3.360
 2010SOL    HW3 8071   1.477   3.133   3.387
 2010SOL    MW4 8072   1.553   3.127   3.345
 2011SOL     OW 8073   1.309   3.198   3.446
 2011SOL    HW2 8074   1.310   3.203   3.542
 2011SOL    HW3 8075   1.220   3.170   3.425
 2011SOL    MW4 8076   1.297   3.195   3.456
 2012SOL     OW 8077   1.300   3.461   3.354
 2012SOL    HW2 8078   1.303   3.365   3.354
 2012SOL    HW3 8079   1.223   3.482   3.406
 2012SOL    MW4 8080   1.290   3.451   3.361
 2013SOL     OW 8081   1.531   3.622   3.432
 2013SOL    HW2 8082   1.535   3.636   3.527
 2013SOL    HW3 8083   1.455   3.566   3.419
 2013SOL    MW4 8084   1.522   3.617   3.443
 2014SOL     OW 8085   1.512   3.890   3.343
 2014SOL    HW2 8086   1.505   3.795   3.351
 2014SOL    HW3 8087   1.541   3.905   3.253
 2014SOL    MW4 8088   1.515   3.880   3.332
 2015SOL     OW 8089   1.308   4.007   3.455
 2015SOL    HW2 8090   1.322   4.096   3.424
 2015SOL    HW3 8091   1.380   3.957   3.416
 2015SOL    MW4 8092   1.320   4.012   3.446
 2016SOL     OW 8093   1.375   4.243   3.350
 2016SOL    HW2 8094   1.295   4.290   3.377
 2016SOL    HW3 8095   1.374   4.247   3.254
 2016SOL    MW4 8096   1.364   4.250   3.341
 2017SOL     OW 8097   1.607   4.416   3.428
 2017SOL    HW2 8098   1.688   4.367   3.416
 2017SOL    HW3 8099   1.539   4.359   3.393
 2017SOL    MW4 8100   1.609   4.402   3.422
 2018SOL     OW 8101   2.003   4.641   3.318
 2018SOL    HW2 8102   2.082   4.677   3.359
 2018SOL    HW3 8103   1.931   4.671   3.374
 2018SOL    MW4 8104   2.004   4.650   3.331
 2019SOL     OW 8105   1.773   0.095   3.424
 2019SOL    HW2 8106   1.767   0.118   3.516
 2019SOL    HW3 8107   1.689   0.054   3.404
 2019SOL    MW4 8108   1.761   0.092   3.433
 2020SOL     OW 8109   1.777   0.382   3.386
 2020SOL    HW2 8110   1.781   0.291   3.418
 2020SOL    HW3 8111   1.744   0.374   3.297
 2020SOL    MW4 8112   1.773   0.369   3.379
 2021SOL     OW 8113   2.014   0.501   3.467
 2021SOL    HW2 8114   2.004   0.593   3.444
 2021SOL    HW3 8115   1.932   0.460   3.440
 2021SOL    MW4 8116   2.002   0.508   3.460
 2022SOL     OW 8117   2.027   0.759   3.356
 2022SOL    HW2 8118   2.108   0.796   3.391
 2022SOL    HW3 8119   2.038   0.764   3.261
 2022SOL    MW4 8120   2.039   0.764   3.348
 2023SOL     OW 8121   1.819   0.892   3.465
 2023SOL    HW2 8122   1.898   0.848   3.433
 2023SOL    HW3 8123   1.747   0.841   3.429
 2023SOL    MW4 8124   1.820   0.879   3.456
 2024SOL     OW 8125   1.823   1.173   3.343
 2024SOL    HW2 8126   1.899   1.214   3.383
 2024SOL    HW3 8127   1.816   1.088   3.388
 2024SOL    MW4 8128   1.832   1.167   3.354
 2025SOL     OW 8129   2.042   1.307   3.416
 2025SOL    HW2 8130   2.051   1.328   3.509
 2025SOL    HW3 8131   2.044   1.392   3.371
 2025SOL    MW4 8132   2.044   1.321   3.422
 2026SOL     OW 8133   1.998   1.569   3.348
 2026SOL    HW2 8134   2.076   1.611   3.385
 2026SOL    HW3 8135   1.925   1.618   3.385
 2026SOL    MW4 8136   1.999   1.581   3.358
 2027SOL     OW 8137   1.783   1.687   3.465
 2027SOL    HW2 8138   1.782   1.777   3.435
 2027SOL    HW3 8139   1.708   1.646   3.422
 2027SOL    MW4 8140   1.773   1.693   3.456
 2028SOL     OW 8141   1.794   1.946   3.387
 2028SOL    HW2 8142   1.866   1.997   3.424
 2028SOL    HW3 8143   1.808   1.951   3.292
 2028SOL    MW4 8144   1.805   1.953   3.379
 2029SOL     OW 8145   1.988   2.103   3.498
 2029SOL    HW2 8146   2.068   2.060   3.467
 2029SOL    HW3 8147   1.975   2.175   3.436
 2029SOL    MW4 8148   1.997   2.107   3.485
 2030SOL     OW 8149   2.020   2.349   3.337
 2030SOL    HW2 8150   2.096   2.372   3.389
 2030SOL    HW3 8151   2.042   2.374   3.248
 2030SOL    MW4 8152   2.033   2.355   3.332
 2031SOL     OW 8153   1.790   2.484   3.445
 2031SOL    HW2 8154   1.858   2.423   3.417
 2031SOL    HW3 8155   1.708   2.436   3.433
 2031SOL    MW4 8156   1.788   2.470   3.440
 2032SOL     OW 8157   1.803   2.741   3.370
 2032SOL    HW2 8158   1.887   2.767   3.409
 2032SOL    HW3 8159   1.787   2.653   3.404
 2032SOL    MW4 8160   1.812   2.733   3.380
 2033SOL     OW 8161   2.057   2.866   3.495
 2033SOL    HW2 8162   2.050   2.890   3.587
 2033SOL    HW3 8163   2.030   2.945   3.448
 2033SOL    MW4 8164   2.053   2.880   3.501
 2034SOL     OW 8165   1.981   3.107   3.349
 2034SOL    HW2 8166   2.052   3.166   3.376
 2034SOL    HW3 8167   1.901   3.151   3.377
 2034SOL    MW4 8168   1.980   3.121   3.356
 2035SOL     OW 8169   1.757   3.274   3.420
 2035SOL    HW2 8170   1.758   3.278   3.516
 2035SOL    HW3 8171   1.763   3.366   3.392
 2035SOL    MW4 8172   1.758   3.287   3.429
 2036SOL     OW 8173   1.775   3.536   3.352
 2036SOL    HW2 8174   1.692   3.566   3.389
 2036SOL    HW3 8175   1.759   3.531   3.258
 2036SOL    MW4 8176   1.762   3.539   3.345
 2037SOL     OW 8177   2.010   3.626   3.471
 2037SOL    HW2 8178   2.073   3.572   3.424
 2037SOL    HW3 8179   1.925   3.604   3.432
 2037SOL    MW4 8180   2.007   3.616   3.460
 2038SOL     OW 8181   2.005   3.910   3.399
 2038SOL    HW2 8182   1.913   3.931   3.412
 2038SOL    HW3 8183   2.010   3.816   3.415
 2038SOL    MW4 8184   1.993   3.900   3.403
 2039SOL     OW 8185   1.739   4.016   3.433
 2039SOL    HW2 8186   1.740   4.006   3.529
 2039SOL    HW3 8187   1.661   3.968   3.405
 2039SOL    MW4 8188   1.729   4.008   3.442
 2040SOL     OW 8189   1.821   4.258   3.344
 2040SOL    HW2 8190   1.774   4.178   3.366
 2040SOL    HW3 8191   1.808   4.268   3.250
 2040SOL    MW4 8192   1.813   4.249   3.335
 2041SOL     OW 8193   2.037   4.392   3.446
 2041SOL    HW2 8194   1.974   4.329   3.411
 2041SOL    HW3 8195   2.021   4.472   3.396
 2041SOL    MW4 8196   2.026   4.395   3.435
 2042SOL     OW 8197   2.486   0.014   3.346
 2042SOL    HW2 8198   2.462  -0.078   3.358
 2042SOL    HW3 8199   2.472   0.031   3.253
 2042SOL    MW4 8200   2.481   0.004   3.336
 2043SOL     OW 8201   2.226   0.080   3.459
 2043SOL    HW2 8202   2.210   0.172   3.440
 2043SOL    HW3 8203   2.319   0.068   3.439
 2043SOL    MW4 8204   2.237   0.090   3.454
 2044SOL     OW 8205   2.232   0.352   3.385
 2044SOL    HW2 8206   2.308   0.405   3.411
 2044SOL    HW3 8207   2.157   0.403   3.415
 2044SOL    MW4 8208   2.232   0.366   3.392
 2045SOL     OW 8209   2.458   0.512   3.458
 2045SOL    HW2 8210   2.537   0.459   3.447
 2045SOL    HW3 8211   2.480   0.596   3.419
 2045SOL    MW4 8212   2.471   0.516   3.451
 2046SOL     OW 8213   2.522   0.772   3.357
 2046SOL    HW2 8214   2.581   0.842   3.385
 2046SOL    HW3 8215   2.522   0.778   3.261
 2046SOL    MW4 8216   2.530   0.782   3.348
 2047SOL     OW 8217   2.251   0.881   3.467
 2047SOL    HW2 8218   2.237   0.967   3.427
 2047SOL    HW3 8219   2.335   0.852   3.432
 2047SOL    MW4 8220   2.260   0.888   3.457
 2048SOL     OW 8221   2.254   1.143   3.329
 2048SOL    HW2 8222   2.331   1.185   3.367
 2048SOL    HW3 8223   2.180   1.187   3.370
 2048SOL    MW4 8224   2.254   1.154   3.340
 2049SOL     OW 8225   2.439   1.307   3.447
 2049SOL    HW2 8226   2.436   1.320   3.542
 2049SOL    HW3 8227   2.532   1.296   3.428
 2049SOL    MW4 8228   2.451   1.308   3.457
 2050SOL     OW 8229   2.439   1.571   3.375
 2050SOL    HW2 8230   2.429   1.477   3.386
 2050SOL    HW3 8231   2.444   1.583   3.280
 2050SOL    MW4 8232   2.438   1.560   3.364
 2051SOL     OW 8233   2.222   1.699   3.465
 2051SOL    HW2 8234   2.240   1.696   3.559
 2051SOL    HW3 8235   2.294   1.652   3.425
 2051SOL    MW4 8236   2.234   1.693   3.473
 2052SOL     OW 8237   2.211   1.969   3.382
 2052SOL    HW2 8238   2.206   1.877   3.410
 2052SOL    HW3 8239   2.229   1.965   3.288
 2052SOL    MW4 8240   2.213   1.956   3.374
 2053SOL     OW 8241   2.447   2.076   3.483
 2053SOL    HW2 8242   2.432   2.090   3.576
 2053SOL    HW3 8243   2.365   2.037   3.451
 2053SOL    MW4 8244   2.434   2.073   3.491
 2054SOL     OW 8245   2.468   2.327   3.373
 2054SOL    HW2 8246   2.542   2.381   3.400
 2054SOL    HW3 8247   2.477   2.247   3.424
 2054SOL    MW4 8248   2.479   2.323   3.383
 2055SOL     OW 8249   2.242   2.437   3.481
 2055SOL    HW2 8250   2.235   2.526   3.446
 2055SOL    HW3 8251   2.320   2.401   3.439
 2055SOL    MW4 8252   2.251   2.444   3.471
 2056SOL     OW 8253   2.252   2.694   3.387
 2056SOL    HW2 8254   2.174   2.740   3.419
 2056SOL    HW3 8255   2.241   2.689   3.292
 2056SOL    MW4 8256   2.240   2.699   3.379
 2057SOL     OW 8257   2.461   2.845   3.491
 2057SOL    HW2 8258   2.445   2.933   3.456
 2057SOL    HW3 8259   2.397   2.789   3.446
 2057SOL    MW4 8260   2.451   2.849   3.480
 2058SOL     OW 8261   2.435   3.072   3.365
 2058SOL    HW2 8262   2.508   3.123   3.401
 2058SOL    HW3 8263   2.442   3.082   3.271
 2058SOL    MW4 8264   2.445   3.080   3.358
 2059SOL     OW 8265   2.225   3.236   3.440
 2059SOL    HW2 8266   2.245   3.242   3.534
 2059SOL    HW3 8267   2.291   3.177   3.405
 2059SOL    MW4 8268   2.236   3.229   3.448
 2060SOL     OW 8269   2.185   3.486   3.337
 2060SOL    HW2 8270   2.203   3.394   3.355
 2060SOL    HW3 8271   2.181   3.492   3.242
 2060SOL    MW4 8272   2.187   3.475   3.327
 2061SOL     OW 8273   2.419   3.572   3.469
 2061SOL    HW2 8274   2.435   3.663   3.443
 2061SOL    HW3 8275   2.343   3.545   3.417
 2061SOL    MW4 8276   2.411   3.580   3.459
 2062SOL     OW 8277   2.470   3.827   3.404
 2062SOL    HW2 8278   2.536   3.889   3.434
 2062SOL    HW3 8279   2.387   3.875   3.411
 2062SOL    MW4 8280   2.468   3.842   3.409
 2063SOL     OW 8281   2.260   3.997   3.475
 2063SOL    HW2 8282   2.270   4.091   3.456
 2063SOL    HW3 8283   2.168   3.978   3.455
 2063SOL    MW4 8284   2.249   4.007   3.470
 2064SOL     OW 8285   2.259   4.254   3.371
 2064SOL    HW2 8286   2.181   4.301   3.400
 2064SOL    HW3 8287   2.240   4.233   3.279
 2064SOL    MW4 8288   2.246   4.258   3.363
 2065SOL     OW 8289   2.497   4.375   3.418
 2065SOL    HW2 8290   2.496   4.368   3.514
 2065SOL    HW3 8291   2.417   4.333   3.390
 2065SOL    MW4 8292   2.487   4.369   3.427
 2066SOL     OW 8293   2.960   0.010   3.352
 2066SOL    HW2 8294   2.873   0.030   3.386
 2066SOL    HW3 8295   2.947   0.002   3.257
 2066SOL    MW4 8296   2.947   0.011   3.344
 2067SOL     OW 8297   2.727   0.115   3.474
 2067SOL    HW2 8298   2.702   0.201   3.441
 2067SOL    HW3 8299   2.655   0.057   3.448
 2067SOL    MW4 8300   2.714   0.118   3.467
 2068SOL     OW 8301   2.700   0.380   3.404
 2068SOL    HW2 8302   2.779   0.427   3.431
 2068SOL    HW3 8303   2.695   0.394   3.310
 2068SOL    MW4 8304   2.710   0.388   3.395
 2069SOL     OW 8305   2.924   0.523   3.465
 2069SOL    HW2 8306   2.917   0.550   3.557
 2069SOL    HW3 8307   2.915   0.604   3.415
 2069SOL    MW4 8308   2.922   0.538   3.471
 2070SOL     OW 8309   2.916   0.810   3.394
 2070SOL    HW2 8310   3.007   0.835   3.408
 2070SOL    HW3 8311   2.864   0.873   3.443
 2070SOL    MW4 8312   2.921   0.821   3.402
 2071SOL     OW 8313   2.680   0.965   3.479
 2071SOL    HW2 8314   2.666   0.965   3.573
 2071SOL    HW3 8315   2.687   1.057   3.455
 2071SOL    MW4 8316   2.679   0.977   3.488
 2072SOL     OW 8317   2.689   1.228   3.381
 2072SOL    HW2 8318   2.778   1.249   3.411
 2072SOL    HW3 8319   2.695   1.230   3.286
 2072SOL    MW4 8320   2.702   1.231   3.373
 2073SOL     OW 8321   2.931   1.300   3.480
 2073SOL    HW2 8322   2.928   1.278   3.574
 2073SOL    HW3 8323   3.009   1.255   3.448
 2073SOL    MW4 8324   2.941   1.291   3.488
 2074SOL     OW 8325   2.913   1.555   3.371
 2074SOL    HW2 8326   2.829   1.586   3.406
 2074SOL    HW3 8327   2.924   1.469   3.413
 2074SOL    MW4 8328   2.903   1.547   3.381
 2075SOL     OW 8329   2.672   1.677   3.475
 2075SOL    HW2 8330   2.680   1.762   3.431
 2075SOL    HW3 8331   2.591   1.640   3.439
 2075SOL    MW4 8332   2.662   1.683   3.464
 2076SOL     OW 8333   2.709   1.959   3.389
 2076SOL    HW2 8334   2.618   1.982   3.409
 2076SOL    HW3 8335   2.715   1.968   3.293
 2076SOL    MW4 8336   2.697   1.963   3.379
 2077SOL     OW 8337   2.910   2.107   3.496
 2077SOL    HW2 8338   2.904   2.084   3.589
 2077SOL    HW3 8339   2.840   2.057   3.454
 2077SOL    MW4 8340   2.900   2.097   3.503
 2078SOL     OW 8341   2.927   2.367   3.395
 2078SOL    HW2 8342   2.918   2.282   3.438
 2078SOL    HW3 8343   2.928   2.348   3.302
 2078SOL    MW4 8344   2.926   2.353   3.389
 2079SOL     OW 8345   2.689   2.484   3.459
 2079SOL    HW2 8346   2.680   2.497   3.554
 2079SOL    HW3 8347   2.777   2.447   3.449
 2079SOL    MW4 8348   2.699   2.481   3.471
 2080SOL     OW 8349   2.676   2.730   3.366
 2080SOL    HW2 8350   2.688   2.646   3.411
 2080SOL    HW3 8351   2.610   2.776   3.419
 2080SOL    MW4 8352   2.669   2.725   3.379
 2081SOL     OW 8353   2.907   2.845   3.465
 2081SOL    HW2 8354   2.886   2.824   3.556
 2081SOL    HW3 8355   2.833   2.812   3.415
 2081SOL    MW4 8356   2.894   2.838   3.470
 2082SOL     OW 8357   2.908   3.104   3.394
 2082SOL    HW2 8358   2.903   3.011   3.417
 2082SOL    HW3 8359   2.920   3.104   3.299
 2082SOL    MW4 8360   2.909   3.092   3.384
 2083SOL     OW 8361   2.639   3.210   3.468
 2083SOL    HW2 8362   2.639   3.229   3.562
 2083SOL    HW3 8363   2.724   3.168   3.453
 2083SOL    MW4 8364   2.650   3.207   3.478
 2084SOL     OW 8365   2.652   3.480   3.377
 2084SOL    HW2 8366   2.650   3.386   3.392
 2084SOL    HW3 8367   2.569   3.512   3.414
 2084SOL    MW4 8368   2.641   3.472   3.384
 2085SOL     OW 8369   2.901   3.575   3.484
 2085SOL    HW2 8370   2.918   3.652   3.431
 2085SOL    HW3 8371   2.818   3.540   3.449
 2085SOL    MW4 8372   2.892   3.580   3.472
 2086SOL     OW 8373   2.884   3.846   3.358
 2086SOL    HW2 8374   2.961   3.881   3.404
 2086SOL    HW3 8375   2.810   3.896   3.392
 2086SOL    MW4 8376   2.885   3.858   3.368
 2087SOL     OW 8377   2.671   4.006   3.486
 2087SOL    HW2 8378   2.666   4.012   3.581
 2087SOL    HW3 8379   2.689   4.095   3.457
 2087SOL    MW4 8380   2.673   4.018   3.494
 2088SOL     OW 8381   2.731   4.249   3.361
 2088SOL    HW2 8382   2.802   4.298   3.403
 2088SOL    HW3 8383   2.651   4.297   3.384
 2088SOL    MW4 8384   2.730   4.262   3.369
 2089SOL     OW 8385   2.939   4.414   3.444
 2089SOL    HW2 8386   2.932   4.419   3.539
 2089SOL    HW3 8387   2.952   4.504   3.416
 2089SOL    MW4 8388   2.940   4.426   3.453
 2090SOL     OW 8389   3.364   4.658   3.432
 2090SOL    HW2 8390   3.283   4.706   3.450
 2090SOL    HW3 8391   3.360   4.638   3.338
 2090SOL    MW4 8392   3.353   4.662   3.422
 2091SOL     OW 8393   3.155   0.154   3.501
 2091SOL    HW2 8394   3.137   0.244   3.472
 2091SOL    HW3 8395   3.091   0.101   3.454
 2091SOL    MW4 8396   3.144   0.159   3.491
 2092SOL     OW 8397   3.155   0.403   3.367
 2092SOL    HW2 8398   3.081   0.456   3.398
 2092SOL    HW3 8399   3.137   0.389   3.274
 2092SOL    MW4 8400   3.143   0.408   3.359
 2093SOL     OW 8401   3.389   0.514   3.436
 2093SOL    HW2 8402   3.409   0.488   3.525
 2093SOL    HW3 8403   3.311   0.464   3.413
 2093SOL    MW4 8404   3.382   0.504   3.444
 2094SOL     OW 8405   3.392   0.775   3.330
 2094SOL    HW2 8406   3.453   0.831   3.378
 2094SOL    HW3 8407   3.404   0.688   3.369
 2094SOL    MW4 8408   3.402   0.771   3.342
 2095SOL     OW 8409   3.165   0.910   3.450
 2095SOL    HW2 8410   3.150   0.997   3.412
 2095SOL    HW3 8411   3.242   0.878   3.403
 2095SOL    MW4 8412   3.173   0.918   3.439
 2096SOL     OW 8413   3.154   1.162   3.369
 2096SOL    HW2 8414   3.234   1.209   3.392
 2096SOL    HW3 8415   3.153   1.163   3.273
 2096SOL    MW4 8416   3.164   1.169   3.359
 2097SOL     OW 8417   3.378   1.277   3.469
 2097SOL    HW2 8418   3.460   1.239   3.438
 2097SOL    HW3 8419   3.381   1.368   3.439
 2097SOL    MW4 8420   3.389   1.284   3.461
 2098SOL     OW 8421   3.376   1.544   3.376
 2098SOL    HW2 8422   3.456   1.593   3.394
 2098SOL    HW3 8423   3.308   1.589   3.427
 2098SOL    MW4 8424   3.378   1.556   3.385
 2099SOL     OW 8425   3.140   1.681   3.476
 2099SOL    HW2 8426   3.120   1.773   3.460
 2099SOL    HW3 8427   3.065   1.634   3.440
 2099SOL    MW4 8428   3.127   1.687   3.469
 2100SOL     OW 8429   3.139   1.950   3.380
 2100SOL    HW2 8430   3.062   1.996   3.413
 2100SOL    HW3 8431   3.135   1.962   3.285
 2100SOL    MW4 8432   3.129   1.958   3.372
 2101SOL     OW 8433   3.389   2.074   3.437
 2101SOL    HW2 8434   3.369   2.164   3.413
 2101SOL    HW3 8435   3.305   2.029   3.431
 2101SOL    MW4 8436   3.375   2.080   3.433
 2102SOL     OW 8437   3.374   2.331   3.316
 2102SOL    HW2 8438   3.454   2.364   3.358
 2102SOL    HW3 8439   3.304   2.354   3.377
 2102SOL    MW4 8440   3.375   2.339   3.329
 2103SOL     OW 8441   3.178   2.443   3.467
 2103SOL    HW2 8442   3.181   2.535   3.440
 2103SOL    HW3 8443   3.093   2.412   3.435
 2103SOL    MW4 8444   3.167   2.451   3.459
 2104SOL     OW 8445   3.135   2.716   3.398
 2104SOL    HW2 8446   3.211   2.764   3.429
 2104SOL    HW3 8447   3.060   2.770   3.425
 2104SOL    MW4 8448   3.135   2.729   3.406
 2105SOL     OW 8449   3.376   2.824   3.463
 2105SOL    HW2 8450   3.453   2.782   3.424
 2105SOL    HW3 8451   3.374   2.911   3.423
 2105SOL    MW4 8452   3.386   2.830   3.453
 2106SOL     OW 8453   3.373   3.101   3.358
 2106SOL    HW2 8454   3.446   3.157   3.386
 2106SOL    HW3 8455   3.299   3.132   3.409
 2106SOL    MW4 8456   3.373   3.113   3.369
 2107SOL     OW 8457   3.146   3.209   3.472
 2107SOL    HW2 8458   3.141   3.303   3.452
 2107SOL    HW3 8459   3.061   3.174   3.445
 2107SOL    MW4 8460   3.134   3.217   3.466
 2108SOL     OW 8461   3.165   3.490   3.425
 2108SOL    HW2 8462   3.075   3.519   3.441
 2108SOL    HW3 8463   3.177   3.500   3.331
 2108SOL    MW4 8464   3.155   3.495   3.415
 2109SOL     OW 8465   3.407   3.618   3.517
 2109SOL    HW2 8466   3.396   3.704   3.476
 2109SOL    HW3 8467   3.331   3.567   3.489
 2109SOL    MW4 8468   3.396   3.623   3.508
 2110SOL     OW 8469   3.373   3.863   3.362
 2110SOL    HW2 8470   3.452   3.904   3.396
 2110SOL    HW3 8471   3.301   3.906   3.408
 2110SOL    MW4 8472   3.374   3.874   3.373
 2111SOL     OW 8473   3.147   3.984   3.473
 2111SOL    HW2 8474   3.133   3.973   3.567
 2111SOL    HW3 8475   3.166   4.077   3.462
 2111SOL    MW4 8476   3.148   3.995   3.484
 2112SOL     OW 8477   3.150   4.262   3.397
 2112SOL    HW2 8478   3.223   4.316   3.428
 2112SOL    HW3 8479   3.072   4.317   3.410
 2112SOL    MW4 8480   3.149   4.277   3.402
 2113SOL     OW 8481   3.368   4.399   3.489
 2113SOL    HW2 8482   3.359   4.406   3.584
 2113SOL    HW3 8483   3.360   4.489   3.457
 2113SOL    MW4 8484   3.366   4.412   3.498
 2114SOL     OW 8485   3.818   4.620   3.415
 2114SOL    HW2 8486   3.733   4.650   3.449
 2114SOL    HW3 8487   3.815   4.640   3.322
 2114SOL    MW4 8488   3.806   4.626   3.407
 2115SOL     OW 8489   3.602   0.086   3.521
 2115SOL    HW2 8490   3.583   0.169   3.478
 2115SOL    HW3 8491   3.525   0.032   3.504
 2115SOL    MW4 8492   3.589   0.090   3.513
 2116SOL     OW 8493   3.567   0.321   3.375
 2116SOL    HW2 8494   3.646   0.368   3.402
 2116SOL    HW3 8495   3.498   0.387   3.377
 2116SOL    MW4 8496   3.568   0.336   3.379
 2117SOL     OW 8497   3.753   0.481   3.464
 2117SOL    HW2 8498   3.756   0.513   3.555
 2117SOL    HW3 8499   3.836   0.435   3.452
 2117SOL    MW4 8500   3.764   0.479   3.475
 2118SOL     OW 8501   3.814   0.720   3.323
 2118SOL    HW2 8502   3.895   0.761   3.351
 2118SOL    HW3 8503   3.808   0.639   3.372
 2118SOL    MW4 8504   3.824   0.715   3.333
 2119SOL     OW 8505   3.632   0.887   3.461
 2119SOL    HW2 8506   3.640   0.878   3.556
 2119SOL    HW3 8507   3.696   0.826   3.425
 2119SOL    MW4 8508   3.641   0.878   3.469
 2120SOL     OW 8509   3.602   1.152   3.356
 2120SOL    HW2 8510   3.600   1.060   3.384
 2120SOL    HW3 8511   3.607   1.148   3.260
 2120SOL    MW4 8512   3.603   1.139   3.347
 2121SOL     OW 8513   3.815   1.304   3.464
 2121SOL    HW2 8514   3.807   1.286   3.557
 2121SOL    HW3 8515   3.743   1.255   3.424
 2121SOL    MW4 8516   3.804   1.295   3.471
 2122SOL     OW 8517   3.838   1.580   3.403
 2122SOL    HW2 8518   3.919   1.627   3.423
 2122SOL    HW3 8519   3.852   1.492   3.440
 2122SOL    MW4 8520   3.851   1.574   3.411
 2123SOL     OW 8521   3.577   1.714   3.455
 2123SOL    HW2 8522   3.593   1.799   3.414
 2123SOL    HW3 8523   3.655   1.662   3.436
 2123SOL    MW4 8524   3.589   1.718   3.447
 2124SOL     OW 8525   3.614   1.956   3.333
 2124SOL    HW2 8526   3.689   2.005   3.367
 2124SOL    HW3 8527   3.539   1.990   3.381
 2124SOL    MW4 8528   3.614   1.967   3.344
 2125SOL     OW 8529   3.818   2.092   3.464
 2125SOL    HW2 8530   3.828   2.101   3.559
 2125SOL    HW3 8531   3.906   2.072   3.432
 2125SOL    MW4 8532   3.831   2.090   3.473
 2126SOL     OW 8533   3.841   2.334   3.338
 2126SOL    HW2 8534   3.919   2.370   3.380
 2126SOL    HW3 8535   3.816   2.259   3.393
 2126SOL    MW4 8536   3.848   2.329   3.351
 2127SOL     OW 8537   3.601   2.426   3.422
 2127SOL    HW2 8538   3.594   2.520   3.407
 2127SOL    HW3 8539   3.691   2.404   3.397
 2127SOL    MW4 8540   3.612   2.435   3.417
 2128SOL     OW 8541   3.580   2.696   3.357
 2128SOL    HW2 8542   3.664   2.735   3.380
 2128SOL    HW3 8543   3.584   2.684   3.262
 2128SOL    MW4 8544   3.592   2.700   3.347
 2129SOL     OW 8545   3.817   2.814   3.417
 2129SOL    HW2 8546   3.815   2.804   3.512
 2129SOL    HW3 8547   3.820   2.908   3.402
 2129SOL    MW4 8548   3.817   2.825   3.427
 2130SOL     OW 8549   3.839   3.095   3.388
 2130SOL    HW2 8550   3.913   3.150   3.416
 2130SOL    HW3 8551   3.843   3.099   3.292
 2130SOL    MW4 8552   3.849   3.103   3.379
 2131SOL     OW 8553   3.603   3.235   3.457
 2131SOL    HW2 8554   3.625   3.328   3.457
 2131SOL    HW3 8555   3.682   3.191   3.427
 2131SOL    MW4 8556   3.616   3.241   3.453
 2132SOL     OW 8557   3.644   3.499   3.369
 2132SOL    HW2 8558   3.556   3.527   3.396
 2132SOL    HW3 8559   3.631   3.462   3.282
 2132SOL    MW4 8560   3.630   3.497   3.361
 2133SOL     OW 8561   3.858   3.657   3.489
 2133SOL    HW2 8562   3.859   3.624   3.579
 2133SOL    HW3 8563   3.790   3.606   3.445
 2133SOL    MW4 8564   3.849   3.646   3.495
 2134SOL     OW 8565   3.808   3.891   3.353
 2134SOL    HW2 8566   3.724   3.916   3.393
 2134SOL    HW3 8567   3.827   3.805   3.389
 2134SOL    MW4 8568   3.799   3.883   3.363
 2135SOL     OW 8569   3.587   3.983   3.475
 2135SOL    HW2 8570   3.571   3.975   3.569
 2135SOL    HW3 8571   3.586   4.077   3.458
 2135SOL    MW4 8572   3.585   3.994   3.485
 2136SOL     OW 8573   3.571   4.259   3.387
 2136SOL    HW2 8574   3.503   4.319   3.418
 2136SOL    HW3 8575   3.581   4.280   3.294
 2136SOL    MW4 8576   3.563   4.270   3.378
 2137SOL     OW 8577   3.830   4.364   3.518
 2137SOL    HW2 8578   3.748   4.324   3.488
 2137SOL    HW3 8579   3.829   4.452   3.482
 2137SOL    MW4 8580   3.819   4.370   3.509
 2138SOL     OW 8581   4.253   4.650   3.351
 2138SOL    HW2 8582   4.263   4.559   3.381
 2138SOL    HW3 8583   4.323   4.698   3.395
 2138SOL    MW4 8584   4.264   4.644   3.361
 2139SOL     OW 8585   4.043   0.096   3.475
 2139SOL    HW2 8586   4.120   0.059   3.433
 2139SOL    HW3 8587   3.972   0.037   3.451
 2139SOL    MW4 8588   4.044   0.084   3.467
 2140SOL     OW 8589   4.010   0.362   3.429
 2140SOL    HW2 8590   4.013   0.269   3.451
 2140SOL    HW3 8591   4.028   0.366   3.335
 2140SOL    MW4 8592   4.013   0.350   3.420
 2141SOL     OW 8593   4.250   0.489   3.475
 2141SOL    HW2 8594   4.254   0.580   3.443
 2141SOL    HW3 8595   4.159   0.463   3.460
 2141SOL    MW4 8596   4.238   0.498   3.468
 2142SOL     OW 8597   4.247   0.738   3.367
 2142SOL    HW2 8598   4.334   0.775   3.382
 2142SOL    HW3 8599   4.237   0.741   3.272
 2142SOL    MW4 8600   4.257   0.744   3.356
 2143SOL     OW 8601   4.018   0.866   3.452
 2143SOL    HW2 8602   4.013   0.957   3.422
 2143SOL    HW3 8603   4.107   0.838   3.428
 2143SOL    MW4 8604   4.029   0.874   3.445
 2144SOL     OW 8605   4.032   1.157   3.367
 2144SOL    HW2 8606   4.110   1.195   3.408
 2144SOL    HW3 8607   3.960   1.213   3.397
 2144SOL    MW4 8608   4.032   1.170   3.377
 2145SOL     OW 8609   4.251   1.250   3.527
 2145SOL    HW2 8610   4.241   1.341   3.499
 2145SOL    HW3 8611   4.328   1.218   3.481
 2145SOL    MW4 8612   4.260   1.258   3.517
 2146SOL     OW 8613   4.226   1.494   3.414
 2146SOL    HW2 8614   4.159   1.557   3.443
 2146SOL    HW3 8615   4.222   1.498   3.318
 2146SOL    MW4 8616   4.216   1.503   3.405
 2147SOL     OW 8617   4.073   1.710   3.486
 2147SOL    HW2 8618   4.061   1.726   3.580
 2147SOL    HW3 8619   4.077   1.798   3.448
 2147SOL    MW4 8620   4.072   1.724   3.493
 2148SOL     OW 8621   4.057   1.961   3.382
 2148SOL    HW2 8622   4.125   2.028   3.376
 2148SOL    HW3 8623   4.047   1.929   3.292
 2148SOL    MW4 8624   4.064   1.966   3.369
 2149SOL     OW 8625   4.291   2.081   3.487
 2149SOL    HW2 8626   4.318   2.171   3.473
 2149SOL    HW3 8627   4.367   2.029   3.460
 2149SOL    MW4 8628   4.305   2.086   3.482
 2150SOL     OW 8629   4.326   2.352   3.403
 2150SOL    HW2 8630   4.239   2.373   3.437
 2150SOL    HW3 8631   4.312   2.339   3.309
 2150SOL    MW4 8632   4.313   2.353   3.395
 2151SOL     OW 8633   4.063   2.446   3.442
 2151SOL    HW2 8634   4.054   2.452   3.537
 2151SOL    HW3 8635   4.073   2.537   3.413
 2151SOL    MW4 8636   4.063   2.459   3.451
 2152SOL     OW 8637   4.076   2.726   3.368
 2152SOL    HW2 8638   4.134   2.802   3.375
 2152SOL    HW3 8639   3.988   2.762   3.378
 2152SOL    MW4 8640   4.072   2.741   3.370
 2153SOL     OW 8641   4.276   2.911   3.471
 2153SOL    HW2 8642   4.263   2.889   3.563
 2153SOL    HW3 8643   4.344   2.852   3.441
 2153SOL    MW4 8644   4.283   2.900   3.479
 2154SOL     OW 8645   4.295   3.168   3.393
 2154SOL    HW2 8646   4.319   3.080   3.423
 2154SOL    HW3 8647   4.292   3.160   3.298
 2154SOL    MW4 8648   4.298   3.155   3.385
 2155SOL     OW 8649   4.057   3.269   3.475
 2155SOL    HW2 8650   4.052   3.348   3.423
 2155SOL    HW3 8651   4.141   3.229   3.451
 2155SOL    MW4 8652   4.068   3.274   3.465
 2156SOL     OW 8653   4.055   3.518   3.366
 2156SOL    HW2 8654   4.139   3.552   3.396
 2156SOL    HW3 8655   3.989   3.572   3.411
 2156SOL    MW4 8656   4.057   3.529   3.376
 2157SOL     OW 8657   4.292   3.606   3.466
 2157SOL    HW2 8658   4.301   3.624   3.560
 2157SOL    HW3 8659   4.274   3.692   3.427
 2157SOL    MW4 8660   4.291   3.620   3.473
 2158SOL     OW 8661   4.254   3.847   3.339
 2158SOL    HW2 8662   4.338   3.887   3.363
 2158SOL    HW3 8663   4.252   3.851   3.244
 2158SOL    MW4 8664   4.264   3.853   3.330
 2159SOL     OW 8665   4.058   3.997   3.492
 2159SOL    HW2 8666   4.125   3.948   3.444
 2159SOL    HW3 8667   3.975   3.956   3.468
 2159SOL    MW4 8668   4.056   3.985   3.482
 2160SOL     OW 8669   4.036   4.248   3.402
 2160SOL    HW2 8670   4.040   4.157   3.431
 2160SOL    HW3 8671   3.953   4.280   3.436
 2160SOL    MW4 8672   4.026   4.240   3.410
 2161SOL     OW 8673   4.266   4.398   3.446
 2161SOL    HW2 8674   4.272   4.401   3.542
 2161SOL    HW3 8675   4.194   4.338   3.428
 2161SOL    MW4 8676   4.257   4.391   3.456
 2162SOL     OW 8677   0.215   4.634   3.833
 2162SOL    HW2 8678   0.218   4.648   3.928
 2162SOL    HW3 8679   0.144   4.690   3.802
 2162SOL    MW4 8680   0.206   4.643   3.841
 2163SOL     OW 8681   4.474   0.101   3.761
 2163SOL    HW2 8682   4.481   0.186   3.805
 2163SOL    HW3 8683   4.453   0.122   3.670
 2163SOL    MW4 8684   4.472   0.115   3.755
 2164SOL     OW 8685   4.489   0.348   3.846
 2164SOL    HW2 8686   4.417   0.404   3.817
 2164SOL    HW3 8687   4.566   0.382   3.801
 2164SOL    MW4 8688   4.490   0.360   3.836
 2165SOL     OW 8689   0.272   0.491   3.750
 2165SOL    HW2 8690   0.259   0.582   3.776
 2165SOL    HW3 8691   0.257   0.490   3.656
 2165SOL    MW4 8692   0.268   0.503   3.741
 2166SOL     OW 8693   0.262   0.775   3.791
 2166SOL    HW2 8694   0.275   0.791   3.884
 2166SOL    HW3 8695   0.173   0.807   3.773
 2166SOL    MW4 8696   0.252   0.781   3.801
 2167SOL     OW 8697   0.013   0.882   3.721
 2167SOL    HW2 8698  -0.068   0.834   3.740
 2167SOL    HW3 8699   0.008   0.959   3.777
 2167SOL    MW4 8700   0.001   0.886   3.731
 2168SOL     OW 8701   4.462   1.118   3.855
 2168SOL    HW2 8702   4.382   1.163   3.827
 2168SOL    HW3 8703   4.533   1.169   3.815
 2168SOL    MW4 8704   4.461   1.131   3.846
 2169SOL     OW 8705   0.175   1.266   3.753
 2169SOL    HW2 8706   0.190   1.356   3.783
 2169SOL    HW3 8707   0.190   1.270   3.658
 2169SOL    MW4 8708   0.179   1.279   3.744
 2170SOL     OW 8709   0.218   1.517   3.853
 2170SOL    HW2 8710   0.220   1.522   3.949
 2170SOL    HW3 8711   0.149   1.578   3.827
 2170SOL    MW4 8712   0.210   1.526   3.862
 2171SOL     OW 8713   4.474   1.652   3.760
 2171SOL    HW2 8714   4.451   1.740   3.788
 2171SOL    HW3 8715   4.450   1.649   3.667
 2171SOL    MW4 8716   4.468   1.663   3.751
 2172SOL     OW 8717   4.423   1.926   3.823
 2172SOL    HW2 8718   4.448   1.937   3.915
 2172SOL    HW3 8719   4.353   1.989   3.809
 2172SOL    MW4 8720   4.417   1.936   3.834
 2173SOL     OW 8721   0.167   2.066   3.722
 2173SOL    HW2 8722   0.168   2.142   3.780
 2173SOL    HW3 8723   0.097   2.011   3.757
 2173SOL    MW4 8724   0.158   2.069   3.734
 2174SOL     OW 8725   0.221   2.318   3.835
 2174SOL    HW2 8726   0.222   2.309   3.931
 2174SOL    HW3 8727   0.144   2.372   3.817
 2174SOL    MW4 8728   0.211   2.324   3.845
 2175SOL     OW 8729   0.008   2.471   3.745
 2175SOL    HW2 8730  -0.074   2.424   3.760
 2175SOL    HW3 8731   0.000   2.550   3.798
 2175SOL    MW4 8732  -0.004   2.475   3.754
 2176SOL     OW 8733   4.473   2.714   3.879
 2176SOL    HW2 8734   4.493   2.702   3.972
 2176SOL    HW3 8735   4.552   2.754   3.843
 2176SOL    MW4 8736   4.486   2.717   3.887
 2177SOL     OW 8737   0.209   2.819   3.782
 2177SOL    HW2 8738   0.280   2.755   3.795
 2177SOL    HW3 8739   0.202   2.828   3.687
 2177SOL    MW4 8740   0.218   2.812   3.771
 2178SOL     OW 8741   0.226   3.086   3.865
 2178SOL    HW2 8742   0.219   3.084   3.960
 2178SOL    HW3 8743   0.230   2.994   3.839
 2178SOL    MW4 8744   0.225   3.073   3.874
 2179SOL     OW 8745   0.024   3.243   3.797
 2179SOL    HW2 8746   0.098   3.184   3.814
 2179SOL    HW3 8747   0.028   3.259   3.703
 2179SOL    MW4 8748   0.035   3.237   3.787
 2180SOL     OW 8749   0.031   3.479   3.914
 2180SOL    HW2 8750   0.106   3.524   3.877
 2180SOL    HW3 8751   0.039   3.389   3.882
 2180SOL    MW4 8752   0.042   3.473   3.905
 2181SOL     OW 8753   0.222   3.630   3.776
 2181SOL    HW2 8754   0.304   3.589   3.805
 2181SOL    HW3 8755   0.223   3.716   3.819
 2181SOL    MW4 8756   0.233   3.636   3.786
 2182SOL     OW 8757   0.240   3.880   3.891
 2182SOL    HW2 8758   0.243   3.889   3.986
 2182SOL    HW3 8759   0.322   3.918   3.861
 2182SOL    MW4 8760   0.251   3.886   3.899
 2183SOL     OW 8761   0.031   3.934   3.705
 2183SOL    HW2 8762  -0.049   3.909   3.751
 2183SOL    HW3 8763   0.100   3.925   3.771
 2183SOL    MW4 8764   0.030   3.930   3.720
 2184SOL     OW 8765   0.000   4.218   3.829
 2184SOL    HW2 8766   0.075   4.263   3.789
 2184SOL    HW3 8767   0.006   4.128   3.798
 2184SOL    MW4 8768   0.011   4.212   3.820
 2185SOL     OW 8769   0.215   4.360   3.711
 2185SOL    HW2 8770   0.296   4.319   3.742
 2185SOL    HW3 8771   0.212   4.445   3.754
 2185SOL    MW4 8772   0.225   4.366   3.721
 2186SOL     OW 8773   0.655   4.626   3.875
 2186SOL    HW2 8774   0.662   4.538   3.839
 2186SOL    HW3 8775   0.576   4.662   3.835
 2186SOL    MW4 8776   0.645   4.619   3.865
 2187SOL     OW 8777   0.446   0.102   3.756
 2187SOL    HW2 8778   0.459   0.185   3.803
 2187SOL    HW3 8779   0.368   0.064   3.797
 2187SOL    MW4 8780   0.437   0.108   3.768
 2188SOL     OW 8781   0.502   0.356   3.859
 2188SOL    HW2 8782   0.576   0.410   3.832
 2188SOL    HW3 8783   0.425   0.403   3.826
 2188SOL    MW4 8784   0.501   0.369   3.851
 2189SOL     OW 8785   0.680   0.543   3.721
 2189SOL    HW2 8786   0.759   0.499   3.750
 2189SOL    HW3 8787   0.680   0.627   3.766
 2189SOL    MW4 8788   0.690   0.548   3.730
 2190SOL     OW 8789   0.677   0.798   3.803
 2190SOL    HW2 8790   0.753   0.840   3.762
 2190SOL    HW3 8791   0.601   0.840   3.762
 2190SOL    MW4 8792   0.677   0.809   3.792
 2191SOL     OW 8793   0.459   0.921   3.661
 2191SOL    HW2 8794   0.453   1.005   3.706
 2191SOL    HW3 8795   0.383   0.872   3.692
 2191SOL    MW4 8796   0.448   0.925   3.671
 2192SOL     OW 8797   0.441   1.161   3.794
 2192SOL    HW2 8798   0.515   1.216   3.768
 2192SOL    HW3 8799   0.364   1.206   3.760
 2192SOL    MW4 8800   0.441   1.174   3.787
 2193SOL     OW 8801   0.678   1.295   3.700
 2193SOL    HW2 8802   0.761   1.265   3.736
 2193SOL    HW3 8803   0.692   1.298   3.605
 2193SOL    MW4 8804   0.691   1.292   3.692
 2194SOL     OW 8805   0.652   1.572   3.783
 2194SOL    HW2 8806   0.738   1.612   3.767
 2194SOL    HW3 8807   0.666   1.479   3.764
 2194SOL    MW4 8808   0.665   1.565   3.779
 2195SOL     OW 8809   0.411   1.650   3.653
 2195SOL    HW2 8810   0.493   1.635   3.700
 2195SOL    HW3 8811   0.345   1.600   3.701
 2195SOL    MW4 8812   0.413   1.642   3.666
 2196SOL     OW 8813   0.401   1.910   3.785
 2196SOL    HW2 8814   0.393   1.839   3.720
 2196SOL    HW3 8815   0.321   1.961   3.773
 2196SOL    MW4 8816   0.390   1.907   3.775
 2197SOL     OW 8817   0.645   2.034   3.708
 2197SOL    HW2 8818   0.657   2.115   3.758
 2197SOL    HW3 8819   0.565   1.996   3.744
 2197SOL    MW4 8820   0.636   2.040   3.719
 2198SOL     OW 8821   0.666   2.303   3.821
 2198SOL    HW2 8822   0.750   2.337   3.792
 2198SOL    HW3 8823   0.601   2.355   3.773
 2198SOL    MW4 8824   0.668   2.314   3.811
 2199SOL     OW 8825   0.450   2.451   3.706
 2199SOL    HW2 8826   0.372   2.409   3.741
 2199SOL    HW3 8827   0.444   2.440   3.612
 2199SOL    MW4 8828   0.439   2.444   3.699
 2200SOL     OW 8829   0.444   2.698   3.831
 2200SOL    HW2 8830   0.525   2.744   3.810
 2200SOL    HW3 8831   0.456   2.610   3.794
 2200SOL    MW4 8832   0.456   2.693   3.823
 2201SOL     OW 8833   0.658   2.834   3.758
 2201SOL    HW2 8834   0.739   2.794   3.789
 2201SOL    HW3 8835   0.670   2.845   3.664
 2201SOL    MW4 8836   0.670   2.830   3.750
 2202SOL     OW 8837   0.698   3.094   3.831
 2202SOL    HW2 8838   0.685   3.099   3.925
 2202SOL    HW3 8839   0.664   3.008   3.806
 2202SOL    MW4 8840   0.692   3.083   3.840
 2203SOL     OW 8841   0.459   3.242   3.792
 2203SOL    HW2 8842   0.544   3.210   3.821
 2203SOL    HW3 8843   0.397   3.176   3.824
 2203SOL    MW4 8844   0.462   3.229   3.800
 2204SOL     OW 8845   0.426   3.490   3.888
 2204SOL    HW2 8846   0.495   3.531   3.835
 2204SOL    HW3 8847   0.425   3.399   3.859
 2204SOL    MW4 8848   0.435   3.484   3.877
 2205SOL     OW 8849   0.660   3.582   3.761
 2205SOL    HW2 8850   0.655   3.671   3.795
 2205SOL    HW3 8851   0.667   3.593   3.666
 2205SOL    MW4 8852   0.660   3.595   3.753
 2206SOL     OW 8853   0.670   3.840   3.902
 2206SOL    HW2 8854   0.678   3.858   3.996
 2206SOL    HW3 8855   0.739   3.892   3.862
 2206SOL    MW4 8856   0.680   3.849   3.909
 2207SOL     OW 8857   0.468   3.965   3.760
 2207SOL    HW2 8858   0.534   3.932   3.820
 2207SOL    HW3 8859   0.508   3.956   3.673
 2207SOL    MW4 8860   0.482   3.959   3.756
 2208SOL     OW 8861   0.442   4.249   3.812
 2208SOL    HW2 8862   0.522   4.284   3.772
 2208SOL    HW3 8863   0.449   4.154   3.801
 2208SOL    MW4 8864   0.454   4.241   3.805
 2209SOL     OW 8865   0.660   4.388   3.709
 2209SOL    HW2 8866   0.740   4.343   3.736
 2209SOL    HW3 8867   0.670   4.400   3.615
 2209SOL    MW4 8868   0.672   4.384   3.701
 2210SOL     OW 8869   1.103   0.011   3.797
 2210SOL    HW2 8870   1.192   0.040   3.779
 2210SOL    HW3 8871   1.096  -0.074   3.752
 2210SOL    MW4 8872   1.114   0.004   3.789
 2211SOL     OW 8873   0.860   0.132   3.751
 2211SOL    HW2 8874   0.935   0.081   3.783
 2211SOL    HW3 8875   0.784   0.082   3.779
 2211SOL    MW4 8876   0.860   0.119   3.759
 2212SOL     OW 8877   0.892   0.409   3.803
 2212SOL    HW2 8878   0.890   0.420   3.898
 2212SOL    HW3 8879   0.876   0.315   3.789
 2212SOL    MW4 8880   0.890   0.398   3.814
 2213SOL     OW 8881   1.148   0.504   3.703
 2213SOL    HW2 8882   1.201   0.449   3.760
 2213SOL    HW3 8883   1.059   0.471   3.714
 2213SOL    MW4 8884   1.143   0.493   3.712
 2214SOL     OW 8885   1.099   0.800   3.781
 2214SOL    HW2 8886   1.108   0.797   3.876
 2214SOL    HW3 8887   1.093   0.709   3.754
 2214SOL    MW4 8888   1.099   0.788   3.790
 2215SOL     OW 8889   0.884   0.924   3.667
 2215SOL    HW2 8890   0.956   0.869   3.700
 2215SOL    HW3 8891   0.901   0.932   3.573
 2215SOL    MW4 8892   0.896   0.917   3.659
 2216SOL     OW 8893   0.920   1.181   3.772
 2216SOL    HW2 8894   0.930   1.169   3.867
 2216SOL    HW3 8895   0.893   1.095   3.740
 2216SOL    MW4 8896   0.918   1.168   3.780
 2217SOL     OW 8897   1.159   1.301   3.720
 2217SOL    HW2 8898   1.155   1.386   3.763
 2217SOL    HW3 8899   1.071   1.265   3.729
 2217SOL    MW4 8900   1.147   1.308   3.727
 2218SOL     OW 8901   1.154   1.566   3.806
 2218SOL    HW2 8902   1.143   1.587   3.899
 2218SOL    HW3 8903   1.221   1.628   3.775
 2218SOL    MW4 8904   1.162   1.577   3.814
 2219SOL     OW 8905   0.918   1.687   3.748
 2219SOL    HW2 8906   0.999   1.640   3.770
 2219SOL    HW3 8907   0.904   1.669   3.655
 2219SOL    MW4 8908   0.927   1.679   3.739
 2220SOL     OW 8909   0.867   1.928   3.839
 2220SOL    HW2 8910   0.902   1.842   3.815
 2220SOL    HW3 8911   0.783   1.933   3.792
 2220SOL    MW4 8912   0.860   1.917   3.830
 2221SOL     OW 8913   1.087   2.029   3.690
 2221SOL    HW2 8914   1.000   2.015   3.727
 2221SOL    HW3 8915   1.072   2.036   3.595
 2221SOL    MW4 8916   1.074   2.028   3.682
 2222SOL     OW 8917   1.144   2.282   3.815
 2222SOL    HW2 8918   1.141   2.267   3.910
 2222SOL    HW3 8919   1.124   2.196   3.777
 2222SOL    MW4 8920   1.141   2.268   3.822
 2223SOL     OW 8921   0.898   2.413   3.738
 2223SOL    HW2 8922   0.898   2.499   3.781
 2223SOL    HW3 8923   0.973   2.368   3.777
 2223SOL    MW4 8924   0.908   2.419   3.749
 2224SOL     OW 8925   0.891   2.678   3.823
 2224SOL    HW2 8926   0.883   2.695   3.917
 2224SOL    HW3 8927   0.973   2.721   3.798
 2224SOL    MW4 8928   0.901   2.686   3.833
 2225SOL     OW 8929   1.100   2.818   3.733
 2225SOL    HW2 8930   1.178   2.772   3.762
 2225SOL    HW3 8931   1.108   2.906   3.769
 2225SOL    MW4 8932   1.111   2.823   3.741
 2226SOL     OW 8933   1.106   3.077   3.822
 2226SOL    HW2 8934   1.190   3.115   3.798
 2226SOL    HW3 8935   1.041   3.139   3.787
 2226SOL    MW4 8936   1.109   3.090   3.814
 2227SOL     OW 8937   0.894   3.220   3.707
 2227SOL    HW2 8938   0.827   3.165   3.747
 2227SOL    HW3 8939   0.864   3.234   3.617
 2227SOL    MW4 8940   0.881   3.215   3.700
 2228SOL     OW 8941   0.877   3.447   3.865
 2228SOL    HW2 8942   0.876   3.368   3.812
 2228SOL    HW3 8943   0.801   3.497   3.835
 2228SOL    MW4 8944   0.867   3.443   3.854
 2229SOL     OW 8945   1.091   3.581   3.738
 2229SOL    HW2 8946   1.096   3.668   3.779
 2229SOL    HW3 8947   1.014   3.540   3.777
 2229SOL    MW4 8948   1.081   3.587   3.748
 2230SOL     OW 8949   1.082   3.847   3.832
 2230SOL    HW2 8950   1.084   3.857   3.927
 2230SOL    HW3 8951   1.157   3.897   3.800
 2230SOL    MW4 8952   1.092   3.855   3.840
 2231SOL     OW 8953   0.852   3.990   3.727
 2231SOL    HW2 8954   0.931   3.943   3.754
 2231SOL    HW3 8955   0.860   3.998   3.632
 2231SOL    MW4 8956   0.863   3.985   3.718
 2232SOL     OW 8957   0.885   4.255   3.809
 2232SOL    HW2 8958   0.887   4.267   3.904
 2232SOL    HW3 8959   0.878   4.161   3.796
 2232SOL    MW4 8960   0.884   4.244   3.820
 2233SOL     OW 8961   1.086   4.413   3.725
 2233SOL    HW2 8962   1.011   4.358   3.748
 2233SOL    HW3 8963   1.095   4.402   3.630
 2233SOL    MW4 8964   1.077   4.404   3.715
 2234SOL     OW 8965   1.568   0.012   3.851
 2234SOL    HW2 8966   1.537   0.007   3.941
 2234SOL    HW3 8967   1.562  -0.078   3.818
 2234SOL    MW4 8968   1.563  -0.001   3.858
 2235SOL     OW 8969   1.347   0.125   3.735
 2235SOL    HW2 8970   1.331   0.210   3.776
 2235SOL    HW3 8971   1.429   0.094   3.774
 2235SOL    MW4 8972   1.356   0.132   3.746
 2236SOL     OW 8973   1.356   0.360   3.854
 2236SOL    HW2 8974   1.346   0.376   3.948
 2236SOL    HW3 8975   1.436   0.408   3.830
 2236SOL    MW4 8976   1.365   0.369   3.863
 2237SOL     OW 8977   1.577   0.505   3.774
 2237SOL    HW2 8978   1.649   0.462   3.819
 2237SOL    HW3 8979   1.574   0.593   3.813
 2237SOL    MW4 8980   1.586   0.511   3.785
 2238SOL     OW 8981   1.556   0.774   3.840
 2238SOL    HW2 8982   1.634   0.810   3.798
 2238SOL    HW3 8983   1.483   0.815   3.793
 2238SOL    MW4 8984   1.556   0.784   3.828
 2239SOL     OW 8985   1.336   0.899   3.693
 2239SOL    HW2 8986   1.365   0.981   3.733
 2239SOL    HW3 8987   1.255   0.877   3.739
 2239SOL    MW4 8988   1.329   0.907   3.704
 2240SOL     OW 8989   1.388   1.169   3.786
 2240SOL    HW2 8990   1.455   1.222   3.742
 2240SOL    HW3 8991   1.305   1.208   3.759
 2240SOL    MW4 8992   1.386   1.181   3.777
 2241SOL     OW 8993   1.616   1.313   3.680
 2241SOL    HW2 8994   1.697   1.279   3.717
 2241SOL    HW3 8995   1.618   1.407   3.696
 2241SOL    MW4 8996   1.627   1.321   3.687
 2242SOL     OW 8997   1.580   1.583   3.756
 2242SOL    HW2 8998   1.574   1.558   3.848
 2242SOL    HW3 8999   1.669   1.615   3.745
 2242SOL    MW4 9000   1.591   1.584   3.766
 2243SOL     OW 9001   1.347   1.709   3.680
 2243SOL    HW2 9002   1.351   1.795   3.722
 2243SOL    HW3 9003   1.424   1.663   3.714
 2243SOL    MW4 9004   1.358   1.714   3.690
 2244SOL     OW 9005   1.320   1.941   3.801
 2244SOL    HW2 9006   1.332   1.942   3.896
 2244SOL    HW3 9007   1.232   1.977   3.787
 2244SOL    MW4 9008   1.310   1.946   3.811
 2245SOL     OW 9009   1.555   2.080   3.737
 2245SOL    HW2 9010   1.468   2.045   3.756
 2245SOL    HW3 9011   1.565   2.066   3.643
 2245SOL    MW4 9012   1.544   2.074   3.727
 2246SOL     OW 9013   1.600   2.358   3.801
 2246SOL    HW2 9014   1.682   2.403   3.781
 2246SOL    HW3 9015   1.614   2.268   3.774
 2246SOL    MW4 9016   1.612   2.352   3.795
 2247SOL     OW 9017   1.347   2.435   3.688
 2247SOL    HW2 9018   1.436   2.408   3.714
 2247SOL    HW3 9019   1.289   2.376   3.736
 2247SOL    MW4 9020   1.351   2.424   3.698
 2248SOL     OW 9021   1.331   2.688   3.799
 2248SOL    HW2 9022   1.320   2.677   3.893
 2248SOL    HW3 9023   1.338   2.598   3.765
 2248SOL    MW4 9024   1.331   2.675   3.807
 2249SOL     OW 9025   1.573   2.815   3.712
 2249SOL    HW2 9026   1.496   2.768   3.743
 2249SOL    HW3 9027   1.562   2.819   3.617
 2249SOL    MW4 9028   1.561   2.809   3.704
 2250SOL     OW 9029   1.579   3.064   3.798
 2250SOL    HW2 9030   1.573   3.059   3.893
 2250SOL    HW3 9031   1.577   2.972   3.769
 2250SOL    MW4 9032   1.578   3.051   3.807
 2251SOL     OW 9033   1.346   3.183   3.717
 2251SOL    HW2 9034   1.356   3.265   3.766
 2251SOL    HW3 9035   1.425   3.134   3.737
 2251SOL    MW4 9036   1.358   3.188   3.726
 2252SOL     OW 9037   1.328   3.464   3.814
 2252SOL    HW2 9038   1.384   3.538   3.790
 2252SOL    HW3 9039   1.239   3.491   3.790
 2252SOL    MW4 9040   1.324   3.477   3.808
 2253SOL     OW 9041   1.543   3.639   3.703
 2253SOL    HW2 9042   1.610   3.597   3.757
 2253SOL    HW3 9043   1.541   3.730   3.734
 2253SOL    MW4 9044   1.551   3.646   3.714
 2254SOL     OW 9045   1.535   3.913   3.796
 2254SOL    HW2 9046   1.541   3.882   3.887
 2254SOL    HW3 9047   1.449   3.955   3.792
 2254SOL    MW4 9048   1.524   3.915   3.808
 2255SOL     OW 9049   1.291   4.026   3.741
 2255SOL    HW2 9050   1.304   4.118   3.768
 2255SOL    HW3 9051   1.281   4.030   3.646
 2255SOL    MW4 9052   1.292   4.039   3.732
 2256SOL     OW 9053   1.319   4.296   3.807
 2256SOL    HW2 9054   1.389   4.357   3.784
 2256SOL    HW3 9055   1.238   4.344   3.788
 2256SOL    MW4 9056   1.317   4.310   3.801
 2257SOL     OW 9057   1.539   4.445   3.721
 2257SOL    HW2 9058   1.612   4.393   3.755
 2257SOL    HW3 9059   1.564   4.466   3.631
 2257SOL    MW4 9060   1.552   4.441   3.714
 2258SOL     OW 9061   1.978   4.657   3.832
 2258SOL    HW2 9062   2.069   4.683   3.828
 2258SOL    HW3 9063   1.975   4.573   3.787
 2258SOL    MW4 9064   1.989   4.649   3.826
 2259SOL     OW 9065   1.785   0.157   3.737
 2259SOL    HW2 9066   1.865   0.118   3.773
 2259SOL    HW3 9067   1.714   0.112   3.783
 2259SOL    MW4 9068   1.786   0.146   3.748
 2260SOL     OW 9069   1.802   0.382   3.875
 2260SOL    HW2 9070   1.810   0.359   3.968
 2260SOL    HW3 9071   1.810   0.299   3.829
 2260SOL    MW4 9072   1.805   0.368   3.881
 2261SOL     OW 9073   2.010   0.520   3.756
 2261SOL    HW2 9074   1.924   0.486   3.780
 2261SOL    HW3 9075   2.017   0.506   3.662
 2261SOL    MW4 9076   2.000   0.513   3.747
 2262SOL     OW 9077   2.017   0.779   3.830
 2262SOL    HW2 9078   2.020   0.770   3.926
 2262SOL    HW3 9079   2.005   0.689   3.799
 2262SOL    MW4 9080   2.015   0.766   3.839
 2263SOL     OW 9081   1.781   0.906   3.762
 2263SOL    HW2 9082   1.860   0.870   3.803
 2263SOL    HW3 9083   1.801   0.909   3.669
 2263SOL    MW4 9084   1.794   0.901   3.755
 2264SOL     OW 9085   1.836   1.168   3.777
 2264SOL    HW2 9086   1.823   1.198   3.867
 2264SOL    HW3 9087   1.808   1.077   3.777
 2264SOL    MW4 9088   1.831   1.160   3.789
 2265SOL     OW 9089   2.044   1.307   3.689
 2265SOL    HW2 9090   2.118   1.266   3.734
 2265SOL    HW3 9091   1.968   1.255   3.716
 2265SOL    MW4 9092   2.043   1.295   3.699
 2266SOL     OW 9093   2.053   1.550   3.845
 2266SOL    HW2 9094   1.996   1.616   3.806
 2266SOL    HW3 9095   2.033   1.469   3.797
 2266SOL    MW4 9096   2.043   1.548   3.833
 2267SOL     OW 9097   1.853   1.683   3.731
 2267SOL    HW2 9098   1.819   1.766   3.765
 2267SOL    HW3 9099   1.840   1.689   3.637
 2267SOL    MW4 9100   1.847   1.695   3.723
 2268SOL     OW 9101   1.781   1.923   3.830
 2268SOL    HW2 9102   1.789   1.916   3.925
 2268SOL    HW3 9103   1.696   1.965   3.816
 2268SOL    MW4 9104   1.771   1.928   3.840
 2269SOL     OW 9105   2.014   2.075   3.768
 2269SOL    HW2 9106   1.939   2.018   3.783
 2269SOL    HW3 9107   2.011   2.095   3.675
 2269SOL    MW4 9108   2.004   2.070   3.758
 2270SOL     OW 9109   1.995   2.307   3.873
 2270SOL    HW2 9110   1.938   2.354   3.812
 2270SOL    HW3 9111   1.997   2.217   3.838
 2270SOL    MW4 9112   1.988   2.301   3.860
 2271SOL     OW 9113   1.837   2.475   3.713
 2271SOL    HW2 9114   1.861   2.566   3.733
 2271SOL    HW3 9115   1.827   2.473   3.618
 2271SOL    MW4 9116   1.839   2.487   3.703
 2272SOL     OW 9117   1.842   2.748   3.781
 2272SOL    HW2 9118   1.840   2.755   3.876
 2272SOL    HW3 9119   1.759   2.784   3.752
 2272SOL    MW4 9120   1.831   2.754   3.789
 2273SOL     OW 9121   2.041   2.941   3.752
 2273SOL    HW2 9122   2.116   2.904   3.798
 2273SOL    HW3 9123   1.965   2.895   3.788
 2273SOL    MW4 9124   2.041   2.930   3.763
 2274SOL     OW 9125   2.000   3.209   3.840
 2274SOL    HW2 9126   2.014   3.115   3.851
 2274SOL    HW3 9127   2.078   3.239   3.793
 2274SOL    MW4 9128   2.012   3.201   3.836
 2275SOL     OW 9129   1.766   3.245   3.698
 2275SOL    HW2 9130   1.835   3.225   3.762
 2275SOL    HW3 9131   1.691   3.194   3.729
 2275SOL    MW4 9132   1.765   3.236   3.711
 2276SOL     OW 9133   1.786   3.500   3.811
 2276SOL    HW2 9134   1.868   3.530   3.771
 2276SOL    HW3 9135   1.768   3.416   3.770
 2276SOL    MW4 9136   1.795   3.493   3.800
 2277SOL     OW 9137   2.008   3.640   3.741
 2277SOL    HW2 9138   2.094   3.609   3.768
 2277SOL    HW3 9139   2.008   3.632   3.646
 2277SOL    MW4 9140   2.019   3.635   3.732
 2278SOL     OW 9141   1.994   3.906   3.764
 2278SOL    HW2 9142   2.085   3.935   3.756
 2278SOL    HW3 9143   1.999   3.811   3.763
 2278SOL    MW4 9144   2.007   3.898   3.763
 2279SOL     OW 9145   1.763   4.056   3.733
 2279SOL    HW2 9146   1.841   4.003   3.753
 2279SOL    HW3 9147   1.690   4.005   3.767
 2279SOL    MW4 9148   1.764   4.042   3.740
 2280SOL     OW 9149   1.761   4.311   3.850
 2280SOL    HW2 9150   1.840   4.351   3.815
 2280SOL    HW3 9151   1.756   4.226   3.808
 2280SOL    MW4 9152   1.771   4.305   3.840
 2281SOL     OW 9153   1.980   4.397   3.721
 2281SOL    HW2 9154   2.059   4.346   3.738
 2281SOL    HW3 9155   1.974   4.402   3.626
 2281SOL    MW4 9156   1.990   4.390   3.711
 2282SOL     OW 9157   2.460   4.664   3.825
 2282SOL    HW2 9158   2.453   4.673   3.920
 2282SOL    HW3 9159   2.540   4.711   3.802
 2282SOL    MW4 9160   2.469   4.671   3.834
 2283SOL     OW 9161   2.210   0.100   3.761
 2283SOL    HW2 9162   2.294   0.062   3.788
 2283SOL    HW3 9163   2.199   0.072   3.671
 2283SOL    MW4 9164   2.220   0.091   3.753
 2284SOL     OW 9165   2.241   0.396   3.839
 2284SOL    HW2 9166   2.228   0.309   3.801
 2284SOL    HW3 9167   2.157   0.441   3.826
 2284SOL    MW4 9168   2.228   0.391   3.833
 2285SOL     OW 9169   2.496   0.532   3.751
 2285SOL    HW2 9170   2.425   0.479   3.788
 2285SOL    HW3 9171   2.484   0.525   3.656
 2285SOL    MW4 9172   2.485   0.524   3.744
 2286SOL     OW 9173   2.456   0.781   3.867
 2286SOL    HW2 9174   2.383   0.827   3.825
 2286SOL    HW3 9175   2.457   0.694   3.826
 2286SOL    MW4 9176   2.446   0.776   3.856
 2287SOL     OW 9177   2.239   0.920   3.741
 2287SOL    HW2 9178   2.159   0.878   3.773
 2287SOL    HW3 9179   2.243   0.897   3.648
 2287SOL    MW4 9180   2.229   0.911   3.733
 2288SOL     OW 9181   2.251   1.183   3.828
 2288SOL    HW2 9182   2.259   1.186   3.924
 2288SOL    HW3 9183   2.240   1.091   3.808
 2288SOL    MW4 9184   2.251   1.172   3.838
 2289SOL     OW 9185   2.458   1.343   3.730
 2289SOL    HW2 9186   2.454   1.428   3.774
 2289SOL    HW3 9187   2.387   1.292   3.768
 2289SOL    MW4 9188   2.448   1.348   3.741
 2290SOL     OW 9189   2.489   1.580   3.857
 2290SOL    HW2 9190   2.554   1.639   3.820
 2290SOL    HW3 9191   2.406   1.610   3.820
 2290SOL    MW4 9192   2.486   1.592   3.847
 2291SOL     OW 9193   2.262   1.683   3.741
 2291SOL    HW2 9194   2.261   1.764   3.792
 2291SOL    HW3 9195   2.191   1.631   3.778
 2291SOL    MW4 9196   2.253   1.687   3.753
 2292SOL     OW 9197   2.207   1.926   3.887
 2292SOL    HW2 9198   2.214   1.949   3.980
 2292SOL    HW3 9199   2.130   1.975   3.856
 2292SOL    MW4 9200   2.198   1.936   3.895
 2293SOL     OW 9201   2.426   2.067   3.794
 2293SOL    HW2 9202   2.426   2.157   3.825
 2293SOL    HW3 9203   2.347   2.028   3.831
 2293SOL    MW4 9204   2.416   2.074   3.803
 2294SOL     OW 9205   2.411   2.321   3.865
 2294SOL    HW2 9206   2.484   2.363   3.820
 2294SOL    HW3 9207   2.334   2.373   3.839
 2294SOL    MW4 9208   2.410   2.333   3.856
 2295SOL     OW 9209   2.201   2.468   3.744
 2295SOL    HW2 9210   2.124   2.422   3.776
 2295SOL    HW3 9211   2.198   2.457   3.649
 2295SOL    MW4 9212   2.191   2.461   3.736
 2296SOL     OW 9213   2.225   2.738   3.851
 2296SOL    HW2 9214   2.222   2.736   3.946
 2296SOL    HW3 9215   2.224   2.646   3.824
 2296SOL    MW4 9216   2.224   2.725   3.860
 2297SOL     OW 9217   2.489   2.840   3.792
 2297SOL    HW2 9218   2.398   2.811   3.801
 2297SOL    HW3 9219   2.497   2.866   3.700
 2297SOL    MW4 9220   2.478   2.840   3.781
 2298SOL     OW 9221   2.404   3.088   3.881
 2298SOL    HW2 9222   2.393   3.078   3.975
 2298SOL    HW3 9223   2.435   3.002   3.851
 2298SOL    MW4 9224   2.407   3.075   3.889
 2299SOL     OW 9225   2.232   3.294   3.712
 2299SOL    HW2 9226   2.218   3.372   3.766
 2299SOL    HW3 9227   2.287   3.238   3.766
 2299SOL    MW4 9228   2.238   3.297   3.726
 2300SOL     OW 9229   2.245   3.545   3.857
 2300SOL    HW2 9230   2.283   3.527   3.943
 2300SOL    HW3 9231   2.319   3.576   3.804
 2300SOL    MW4 9232   2.260   3.547   3.861
 2301SOL     OW 9233   2.462   3.646   3.723
 2301SOL    HW2 9234   2.532   3.586   3.750
 2301SOL    HW3 9235   2.437   3.615   3.636
 2301SOL    MW4 9236   2.468   3.634   3.715
 2302SOL     OW 9237   2.494   3.876   3.863
 2302SOL    HW2 9238   2.570   3.924   3.829
 2302SOL    HW3 9239   2.491   3.796   3.810
 2302SOL    MW4 9240   2.504   3.872   3.851
 2303SOL     OW 9241   2.248   3.981   3.758
 2303SOL    HW2 9242   2.332   3.950   3.791
 2303SOL    HW3 9243   2.253   3.967   3.663
 2303SOL    MW4 9244   2.260   3.975   3.750
 2304SOL     OW 9245   2.221   4.283   3.790
 2304SOL    HW2 9246   2.214   4.276   3.885
 2304SOL    HW3 9247   2.226   4.192   3.759
 2304SOL    MW4 9248   2.221   4.270   3.798
 2305SOL     OW 9249   2.486   4.395   3.729
 2305SOL    HW2 9250   2.403   4.357   3.756
 2305SOL    HW3 9251   2.483   4.485   3.759
 2305SOL    MW4 9252   2.475   4.402   3.736
 2306SOL     OW 9253   2.923   0.016   3.846
 2306SOL    HW2 9254   2.922   0.005   3.941
 2306SOL    HW3 9255   2.986   0.086   3.830
 2306SOL    MW4 9256   2.931   0.024   3.856
 2307SOL     OW 9257   2.690   0.143   3.745
 2307SOL    HW2 9258   2.759   0.088   3.782
 2307SOL    HW3 9259   2.694   0.128   3.651
 2307SOL    MW4 9260   2.699   0.134   3.738
 2308SOL     OW 9261   2.731   0.406   3.821
 2308SOL    HW2 9262   2.717   0.317   3.787
 2308SOL    HW3 9263   2.648   0.450   3.808
 2308SOL    MW4 9264   2.718   0.400   3.814
 2309SOL     OW 9265   2.937   0.575   3.749
 2309SOL    HW2 9266   3.014   0.528   3.780
 2309SOL    HW3 9267   2.866   0.511   3.755
 2309SOL    MW4 9268   2.938   0.560   3.754
 2310SOL     OW 9269   2.915   0.845   3.796
 2310SOL    HW2 9270   2.991   0.880   3.750
 2310SOL    HW3 9271   2.913   0.752   3.772
 2310SOL    MW4 9272   2.924   0.837   3.787
 2311SOL     OW 9273   2.663   0.945   3.749
 2311SOL    HW2 9274   2.751   0.908   3.751
 2311SOL    HW3 9275   2.608   0.879   3.791
 2311SOL    MW4 9276   2.668   0.932   3.755
 2312SOL     OW 9277   2.659   1.212   3.867
 2312SOL    HW2 9278   2.655   1.122   3.835
 2312SOL    HW3 9279   2.592   1.258   3.818
 2312SOL    MW4 9280   2.650   1.206   3.856
 2313SOL     OW 9281   2.932   1.279   3.757
 2313SOL    HW2 9282   2.924   1.369   3.786
 2313SOL    HW3 9283   2.848   1.238   3.779
 2313SOL    MW4 9284   2.920   1.285   3.764
 2314SOL     OW 9285   2.937   1.551   3.831
 2314SOL    HW2 9286   2.931   1.585   3.921
 2314SOL    HW3 9287   3.014   1.595   3.795
 2314SOL    MW4 9288   2.946   1.562   3.838
 2315SOL     OW 9289   2.710   1.706   3.753
 2315SOL    HW2 9290   2.786   1.657   3.784
 2315SOL    HW3 9291   2.714   1.699   3.658
 2315SOL    MW4 9292   2.721   1.699   3.744
 2316SOL     OW 9293   2.669   1.969   3.872
 2316SOL    HW2 9294   2.669   1.891   3.816
 2316SOL    HW3 9295   2.594   2.020   3.842
 2316SOL    MW4 9296   2.659   1.965   3.861
 2317SOL     OW 9297   2.912   2.072   3.772
 2317SOL    HW2 9298   2.904   2.168   3.772
 2317SOL    HW3 9299   2.837   2.042   3.822
 2317SOL    MW4 9300   2.901   2.081   3.778
 2318SOL     OW 9301   2.918   2.333   3.807
 2318SOL    HW2 9302   2.915   2.331   3.903
 2318SOL    HW3 9303   3.004   2.370   3.787
 2318SOL    MW4 9304   2.929   2.338   3.817
 2319SOL     OW 9305   2.668   2.443   3.744
 2319SOL    HW2 9306   2.676   2.511   3.811
 2319SOL    HW3 9307   2.749   2.393   3.750
 2319SOL    MW4 9308   2.680   2.445   3.754
 2320SOL     OW 9309   2.683   2.675   3.915
 2320SOL    HW2 9310   2.706   2.721   3.996
 2320SOL    HW3 9311   2.617   2.730   3.873
 2320SOL    MW4 9312   2.677   2.688   3.920
 2321SOL     OW 9313   2.856   2.790   3.737
 2321SOL    HW2 9314   2.834   2.882   3.752
 2321SOL    HW3 9315   2.787   2.741   3.781
 2321SOL    MW4 9316   2.844   2.796   3.744
 2322SOL     OW 9317   2.860   3.041   3.832
 2322SOL    HW2 9318   2.941   3.092   3.822
 2322SOL    HW3 9319   2.790   3.102   3.810
 2322SOL    MW4 9320   2.862   3.056   3.828
 2323SOL     OW 9321   2.643   3.195   3.778
 2323SOL    HW2 9322   2.649   3.283   3.814
 2323SOL    HW3 9323   2.568   3.156   3.822
 2323SOL    MW4 9324   2.633   3.202   3.788
 2324SOL     OW 9325   2.663   3.465   3.830
 2324SOL    HW2 9326   2.670   3.487   3.923
 2324SOL    HW3 9327   2.744   3.497   3.792
 2324SOL    MW4 9328   2.674   3.472   3.837
 2325SOL     OW 9329   2.883   3.605   3.785
 2325SOL    HW2 9330   2.955   3.565   3.833
 2325SOL    HW3 9331   2.906   3.593   3.693
 2325SOL    MW4 9332   2.895   3.598   3.779
 2326SOL     OW 9333   2.922   3.882   3.888
 2326SOL    HW2 9334   2.914   3.882   3.983
 2326SOL    HW3 9335   2.901   3.792   3.862
 2326SOL    MW4 9336   2.918   3.870   3.897
 2327SOL     OW 9337   2.694   4.030   3.770
 2327SOL    HW2 9338   2.706   4.119   3.802
 2327SOL    HW3 9339   2.773   3.984   3.797
 2327SOL    MW4 9340   2.706   4.036   3.778
 2328SOL     OW 9341   2.714   4.293   3.847
 2328SOL    HW2 9342   2.774   4.358   3.810
 2328SOL    HW3 9343   2.628   4.316   3.810
 2328SOL    MW4 9344   2.710   4.305   3.838
 2329SOL     OW 9345   2.934   4.408   3.718
 2329SOL    HW2 9346   3.006   4.362   3.761
 2329SOL    HW3 9347   2.949   4.500   3.740
 2329SOL    MW4 9348   2.945   4.414   3.727
 2330SOL     OW 9349   3.347   4.652   3.901
 2330SOL    HW2 9350   3.339   4.641   3.995
 2330SOL    HW3 9351   3.428   4.701   3.889
 2330SOL    MW4 9352   3.357   4.657   3.912
 2331SOL     OW 9353   3.142   0.167   3.789
 2331SOL    HW2 9354   3.210   0.110   3.824
 2331SOL    HW3 9355   3.155   0.164   3.694
 2331SOL    MW4 9356   3.153   0.159   3.781
 2332SOL     OW 9357   3.152   0.425   3.851
 2332SOL    HW2 9358   3.131   0.419   3.944
 2332SOL    HW3 9359   3.139   0.336   3.818
 2332SOL    MW4 9360   3.148   0.413   3.859
 2333SOL     OW 9361   3.401   0.501   3.741
 2333SOL    HW2 9362   3.463   0.448   3.791
 2333SOL    HW3 9363   3.319   0.495   3.789
 2333SOL    MW4 9364   3.399   0.493   3.754
 2334SOL     OW 9365   3.335   0.760   3.810
 2334SOL    HW2 9366   3.307   0.762   3.902
 2334SOL    HW3 9367   3.338   0.667   3.788
 2334SOL    MW4 9368   3.331   0.748   3.819
 2335SOL     OW 9369   3.166   0.957   3.715
 2335SOL    HW2 9370   3.225   0.891   3.750
 2335SOL    HW3 9371   3.182   0.958   3.621
 2335SOL    MW4 9372   3.176   0.949   3.708
 2336SOL     OW 9373   3.159   1.174   3.879
 2336SOL    HW2 9374   3.163   1.095   3.825
 2336SOL    HW3 9375   3.071   1.209   3.862
 2336SOL    MW4 9376   3.148   1.168   3.870
 2337SOL     OW 9377   3.357   1.301   3.748
 2337SOL    HW2 9378   3.279   1.259   3.786
 2337SOL    HW3 9379   3.345   1.292   3.654
 2337SOL    MW4 9380   3.345   1.294   3.741
 2338SOL     OW 9381   3.385   1.542   3.871
 2338SOL    HW2 9382   3.315   1.598   3.839
 2338SOL    HW3 9383   3.368   1.457   3.830
 2338SOL    MW4 9384   3.374   1.538   3.861
 2339SOL     OW 9385   3.176   1.691   3.756
 2339SOL    HW2 9386   3.170   1.786   3.765
 2339SOL    HW3 9387   3.195   1.677   3.663
 2339SOL    MW4 9388   3.178   1.701   3.745
 2340SOL     OW 9389   3.166   1.961   3.810
 2340SOL    HW2 9390   3.181   1.956   3.904
 2340SOL    HW3 9391   3.077   1.995   3.801
 2340SOL    MW4 9392   3.157   1.965   3.821
 2341SOL     OW 9393   3.407   2.061   3.705
 2341SOL    HW2 9394   3.321   2.023   3.721
 2341SOL    HW3 9395   3.407   2.085   3.613
 2341SOL    MW4 9396   3.396   2.059   3.695
 2342SOL     OW 9397   3.401   2.311   3.842
 2342SOL    HW2 9398   3.325   2.354   3.804
 2342SOL    HW3 9399   3.403   2.225   3.799
 2342SOL    MW4 9400   3.392   2.305   3.831
 2343SOL     OW 9401   3.182   2.456   3.749
 2343SOL    HW2 9402   3.159   2.542   3.782
 2343SOL    HW3 9403   3.164   2.460   3.655
 2343SOL    MW4 9404   3.177   2.468   3.741
 2344SOL     OW 9405   3.109   2.721   3.849
 2344SOL    HW2 9406   3.110   2.716   3.944
 2344SOL    HW3 9407   3.018   2.742   3.827
 2344SOL    MW4 9408   3.097   2.723   3.858
 2345SOL     OW 9409   3.341   2.821   3.773
 2345SOL    HW2 9410   3.257   2.781   3.791
 2345SOL    HW3 9411   3.346   2.824   3.677
 2345SOL    MW4 9412   3.331   2.816   3.762
 2346SOL     OW 9413   3.321   3.097   3.847
 2346SOL    HW2 9414   3.404   3.129   3.812
 2346SOL    HW3 9415   3.326   3.002   3.838
 2346SOL    MW4 9416   3.332   3.089   3.842
 2347SOL     OW 9417   3.075   3.224   3.750
 2347SOL    HW2 9418   3.160   3.183   3.768
 2347SOL    HW3 9419   3.073   3.231   3.654
 2347SOL    MW4 9420   3.086   3.219   3.740
 2348SOL     OW 9421   3.095   3.483   3.871
 2348SOL    HW2 9422   3.179   3.522   3.847
 2348SOL    HW3 9423   3.094   3.399   3.826
 2348SOL    MW4 9424   3.106   3.477   3.862
 2349SOL     OW 9425   3.358   3.621   3.801
 2349SOL    HW2 9426   3.369   3.704   3.847
 2349SOL    HW3 9427   3.380   3.641   3.710
 2349SOL    MW4 9428   3.362   3.634   3.795
 2350SOL     OW 9429   3.370   3.879   3.901
 2350SOL    HW2 9430   3.442   3.928   3.862
 2350SOL    HW3 9431   3.293   3.906   3.853
 2350SOL    MW4 9432   3.370   3.889   3.890
 2351SOL     OW 9433   3.151   3.977   3.762
 2351SOL    HW2 9434   3.147   4.069   3.789
 2351SOL    HW3 9435   3.067   3.940   3.790
 2351SOL    MW4 9436   3.139   3.984   3.769
 2352SOL     OW 9437   3.143   4.256   3.860
 2352SOL    HW2 9438   3.143   4.267   3.955
 2352SOL    HW3 9439   3.220   4.305   3.830
 2352SOL    MW4 9440   3.153   4.264   3.869
 2353SOL     OW 9441   3.354   4.420   3.767
 2353SOL    HW2 9442   3.440   4.383   3.787
 2353SOL    HW3 9443   3.357   4.508   3.806
 2353SOL    MW4 9444   3.366   4.427   3.775
 2354SOL     OW 9445   3.845   4.625   3.892
 2354SOL    HW2 9446   3.920   4.673   3.855
 2354SOL    HW3 9447   3.857   4.535   3.863
 2354SOL    MW4 9448   3.856   4.620   3.883
 2355SOL     OW 9449   3.601   0.105   3.808
 2355SOL    HW2 9450   3.665   0.045   3.845
 2355SOL    HW3 9451   3.607   0.092   3.713
 2355SOL    MW4 9452   3.610   0.095   3.800
 2356SOL     OW 9453   3.581   0.351   3.870
 2356SOL    HW2 9454   3.658   0.395   3.834
 2356SOL    HW3 9455   3.580   0.266   3.827
 2356SOL    MW4 9456   3.591   0.345   3.860
 2357SOL     OW 9457   3.781   0.467   3.737
 2357SOL    HW2 9458   3.859   0.415   3.756
 2357SOL    HW3 9459   3.794   0.549   3.784
 2357SOL    MW4 9460   3.793   0.471   3.745
 2358SOL     OW 9461   3.788   0.726   3.847
 2358SOL    HW2 9462   3.873   0.756   3.814
 2358SOL    HW3 9463   3.724   0.781   3.802
 2358SOL    MW4 9464   3.791   0.737   3.836
 2359SOL     OW 9465   3.577   0.879   3.723
 2359SOL    HW2 9466   3.570   0.969   3.757
 2359SOL    HW3 9467   3.492   0.840   3.740
 2359SOL    MW4 9468   3.565   0.886   3.730
 2360SOL     OW 9469   3.588   1.132   3.810
 2360SOL    HW2 9470   3.661   1.179   3.769
 2360SOL    HW3 9471   3.513   1.190   3.797
 2360SOL    MW4 9472   3.588   1.146   3.803
 2361SOL     OW 9473   3.810   1.263   3.727
 2361SOL    HW2 9474   3.873   1.223   3.786
 2361SOL    HW3 9475   3.809   1.356   3.752
 2361SOL    MW4 9476   3.818   1.270   3.738
 2362SOL     OW 9477   3.820   1.515   3.806
 2362SOL    HW2 9478   3.828   1.520   3.902
 2362SOL    HW3 9479   3.739   1.563   3.786
 2362SOL    MW4 9480   3.810   1.522   3.816
 2363SOL     OW 9481   3.591   1.692   3.740
 2363SOL    HW2 9482   3.516   1.641   3.773
 2363SOL    HW3 9483   3.576   1.698   3.646
 2363SOL    MW4 9484   3.579   1.686   3.732
 2364SOL     OW 9485   3.597   1.947   3.875
 2364SOL    HW2 9486   3.606   1.860   3.835
 2364SOL    HW3 9487   3.522   1.986   3.829
 2364SOL    MW4 9488   3.588   1.941   3.864
 2365SOL     OW 9489   3.820   2.075   3.744
 2365SOL    HW2 9490   3.902   2.033   3.772
 2365SOL    HW3 9491   3.751   2.023   3.786
 2365SOL    MW4 9492   3.822   2.062   3.753
 2366SOL     OW 9493   3.821   2.335   3.840
 2366SOL    HW2 9494   3.747   2.386   3.807
 2366SOL    HW3 9495   3.802   2.245   3.813
 2366SOL    MW4 9496   3.809   2.330   3.832
 2367SOL     OW 9497   3.595   2.454   3.714
 2367SOL    HW2 9498   3.523   2.406   3.755
 2367SOL    HW3 9499   3.584   2.438   3.621
 2367SOL    MW4 9500   3.584   2.446   3.707
 2368SOL     OW 9501   3.586   2.722   3.821
 2368SOL    HW2 9502   3.573   2.636   3.780
 2368SOL    HW3 9503   3.505   2.770   3.803
 2368SOL    MW4 9504   3.574   2.717   3.813
 2369SOL     OW 9505   3.838   2.785   3.687
 2369SOL    HW2 9506   3.911   2.763   3.745
 2369SOL    HW3 9507   3.761   2.747   3.729
 2369SOL    MW4 9508   3.838   2.777   3.700
 2370SOL     OW 9509   3.831   3.074   3.773
 2370SOL    HW2 9510   3.745   3.111   3.757
 2370SOL    HW3 9511   3.828   2.986   3.737
 2370SOL    MW4 9512   3.819   3.067   3.766
 2371SOL     OW 9513   3.568   3.181   3.755
 2371SOL    HW2 9514   3.589   3.265   3.797
 2371SOL    HW3 9515   3.561   3.202   3.662
 2371SOL    MW4 9516   3.570   3.195   3.749
 2372SOL     OW 9517   3.578   3.446   3.867
 2372SOL    HW2 9518   3.596   3.445   3.962
 2372SOL    HW3 9519   3.500   3.501   3.858
 2372SOL    MW4 9520   3.570   3.453   3.879
 2373SOL     OW 9521   3.820   3.575   3.760
 2373SOL    HW2 9522   3.808   3.662   3.798
 2373SOL    HW3 9523   3.739   3.529   3.779
 2373SOL    MW4 9524   3.808   3.581   3.767
 2374SOL     OW 9525   3.783   3.860   3.861
 2374SOL    HW2 9526   3.776   3.865   3.957
 2374SOL    HW3 9527   3.865   3.904   3.842
 2374SOL    MW4 9528   3.793   3.866   3.871
 2375SOL     OW 9529   3.567   3.997   3.746
 2375SOL    HW2 9530   3.569   4.075   3.801
 2375SOL    HW3 9531   3.624   3.935   3.791
 2375SOL    MW4 9532   3.574   3.999   3.759
 2376SOL     OW 9533   3.583   4.256   3.890
 2376SOL    HW2 9534   3.572   4.265   3.985
 2376SOL    HW3 9535   3.669   4.294   3.873
 2376SOL    MW4 9536   3.593   4.262   3.901
 2377SOL     OW 9537   3.848   4.366   3.802
 2377SOL    HW2 9538   3.917   4.303   3.820
 2377SOL    HW3 9539   3.842   4.369   3.707
 2377SOL    MW4 9540   3.856   4.358   3.792
 2378SOL     OW 9541   4.277   4.602   3.865
 2378SOL    HW2 9542   4.262   4.632   3.954
 2378SOL    HW3 9543   4.353   4.652   3.835
 2378SOL    MW4 9544   4.285   4.612   3.873
 2379SOL     OW 9545   4.063   0.079   3.753
 2379SOL    HW2 9546   4.136   0.026   3.785
 2379SOL    HW3 9547   4.070   0.074   3.657
 2379SOL    MW4 9548   4.073   0.071   3.744
 2380SOL     OW 9549   4.028   0.360   3.813
 2380SOL    HW2 9550   4.015   0.350   3.907
 2380SOL    HW3 9551   4.043   0.271   3.782
 2380SOL    MW4 9552   4.028   0.347   3.821
 2381SOL     OW 9553   4.269   0.494   3.749
 2381SOL    HW2 9554   4.187   0.457   3.782
 2381SOL    HW3 9555   4.254   0.506   3.656
 2381SOL    MW4 9556   4.256   0.491   3.741
 2382SOL     OW 9557   4.285   0.761   3.832
 2382SOL    HW2 9558   4.197   0.796   3.815
 2382SOL    HW3 9559   4.277   0.667   3.816
 2382SOL    MW4 9560   4.272   0.753   3.828
 2383SOL     OW 9561   4.031   0.837   3.750
 2383SOL    HW2 9562   4.002   0.915   3.796
 2383SOL    HW3 9563   4.030   0.862   3.657
 2383SOL    MW4 9564   4.027   0.851   3.744
 2384SOL     OW 9565   3.970   1.087   3.878
 2384SOL    HW2 9566   3.954   1.118   3.967
 2384SOL    HW3 9567   4.049   1.133   3.850
 2384SOL    MW4 9568   3.978   1.097   3.886
 2385SOL     OW 9569   4.204   1.234   3.806
 2385SOL    HW2 9570   4.220   1.320   3.846
 2385SOL    HW3 9571   4.208   1.250   3.712
 2385SOL    MW4 9572   4.206   1.247   3.799
 2386SOL     OW 9573   4.261   1.515   3.848
 2386SOL    HW2 9574   4.189   1.568   3.815
 2386SOL    HW3 9575   4.340   1.560   3.817
 2386SOL    MW4 9576   4.262   1.528   3.839
 2387SOL     OW 9577   4.042   1.669   3.756
 2387SOL    HW2 9578   4.031   1.753   3.802
 2387SOL    HW3 9579   3.967   1.617   3.783
 2387SOL    MW4 9580   4.031   1.673   3.766
 2388SOL     OW 9581   4.018   1.928   3.875
 2388SOL    HW2 9582   4.026   1.948   3.968
 2388SOL    HW3 9583   4.091   1.975   3.834
 2388SOL    MW4 9584   4.028   1.937   3.882
 2389SOL     OW 9585   4.217   2.075   3.750
 2389SOL    HW2 9586   4.224   2.167   3.777
 2389SOL    HW3 9587   4.237   2.076   3.657
 2389SOL    MW4 9588   4.220   2.087   3.741
 2390SOL     OW 9589   4.280   2.334   3.819
 2390SOL    HW2 9590   4.272   2.325   3.914
 2390SOL    HW3 9591   4.203   2.386   3.794
 2390SOL    MW4 9592   4.269   2.340   3.828
 2391SOL     OW 9593   4.043   2.450   3.736
 2391SOL    HW2 9594   4.046   2.531   3.788
 2391SOL    HW3 9595   3.969   2.401   3.773
 2391SOL    MW4 9596   4.034   2.454   3.748
 2392SOL     OW 9597   4.059   2.712   3.840
 2392SOL    HW2 9598   4.056   2.731   3.934
 2392SOL    HW3 9599   4.133   2.763   3.807
 2392SOL    MW4 9600   4.068   2.721   3.848
 2393SOL     OW 9601   4.264   2.861   3.735
 2393SOL    HW2 9602   4.274   2.944   3.782
 2393SOL    HW3 9603   4.330   2.804   3.775
 2393SOL    MW4 9604   4.274   2.865   3.747
 2394SOL     OW 9605   4.276   3.102   3.848
 2394SOL    HW2 9606   4.194   3.148   3.831
 2394SOL    HW3 9607   4.344   3.166   3.827
 2394SOL    MW4 9608   4.274   3.117   3.843
 2395SOL     OW 9609   4.062   3.235   3.758
 2395SOL    HW2 9610   3.987   3.176   3.756
 2395SOL    HW3 9611   4.080   3.254   3.666
 2395SOL    MW4 9612   4.055   3.230   3.746
 2396SOL     OW 9613   4.055   3.487   3.863
 2396SOL    HW2 9614   4.056   3.400   3.824
 2396SOL    HW3 9615   3.971   3.525   3.836
 2396SOL    MW4 9616   4.044   3.481   3.855
 2397SOL     OW 9617   4.286   3.593   3.768
 2397SOL    HW2 9618   4.200   3.564   3.799
 2397SOL    HW3 9619   4.348   3.552   3.829
 2397SOL    MW4 9620   4.283   3.583   3.780
 2398SOL     OW 9621   4.282   3.863   3.818
 2398SOL    HW2 9622   4.204   3.898   3.776
 2398SOL    HW3 9623   4.290   3.774   3.784
 2398SOL    MW4 9624   4.273   3.856   3.808
 2399SOL     OW 9625   4.031   3.973   3.759
 2399SOL    HW2 9626   4.047   4.060   3.796
 2399SOL    HW3 9627   4.050   3.983   3.665
 2399SOL    MW4 9628   4.036   3.986   3.751
 2400SOL     OW 9629   4.063   4.218   3.864
 2400SOL    HW2 9630   4.074   4.248   3.954
 2400SOL    HW3 9631   4.134   4.261   3.816
 2400SOL    MW4 9632   4.074   4.228   3.869
 2401SOL     OW 9633   4.271   4.351   3.733
 2401SOL    HW2 9634   4.266   4.426   3.792
 2401SOL    HW3 9635   4.357   4.311   3.752
 2401SOL    MW4 9636   4.282   4.355   3.743
 2402SOL     OW 9637   0.254   4.662   4.117
 2402SOL    HW2 9638   0.317   4.713   4.169
 2402SOL    HW3 9639   0.246   4.580   4.165
 2402SOL    MW4 9640   0.262   4.658   4.131
 2403SOL     OW 9641   0.009   0.111   4.223
 2403SOL    HW2 9642  -0.007   0.064   4.304
 2403SOL    HW3 9643   0.089   0.071   4.187
 2403SOL    MW4 9644   0.018   0.100   4.229
 2404SOL     OW 9645   0.008   0.380   4.129
 2404SOL    HW2 9646   0.001   0.294   4.169
 2404SOL    HW3 9647   0.010   0.364   4.035
 2404SOL    MW4 9648   0.008   0.367   4.122
 2405SOL     OW 9649   0.225   0.544   4.182
 2405SOL    HW2 9650   0.303   0.492   4.163
 2405SOL    HW3 9651   0.152   0.484   4.166
 2405SOL    MW4 9652   0.226   0.529   4.177
 2406SOL     OW 9653   0.247   0.811   4.066
 2406SOL    HW2 9654   0.160   0.847   4.085
 2406SOL    HW3 9655   0.243   0.721   4.097
 2406SOL    MW4 9656   0.235   0.804   4.072
 2407SOL     OW 9657   0.020   0.903   4.228
 2407SOL    HW2 9658  -0.051   0.848   4.195
 2407SOL    HW3 9659   0.000   0.990   4.194
 2407SOL    MW4 9660   0.008   0.907   4.219
 2408SOL     OW 9661   4.471   1.156   4.124
 2408SOL    HW2 9662   4.552   1.199   4.152
 2408SOL    HW3 9663   4.479   1.149   4.029
 2408SOL    MW4 9664   4.483   1.161   4.115
 2409SOL     OW 9665   0.219   1.257   4.225
 2409SOL    HW2 9666   0.240   1.232   4.315
 2409SOL    HW3 9667   0.285   1.213   4.172
 2409SOL    MW4 9668   0.230   1.248   4.230
 2410SOL     OW 9669   0.099   1.430   4.676
 2410SOL    HW2 9670   0.071   1.351   4.630
 2410SOL    HW3 9671   0.017   1.475   4.698
 2410SOL    MW4 9672   0.084   1.425   4.673
 2411SOL     OW 9673   4.489   1.689   4.204
 2411SOL    HW2 9674   4.406   1.650   4.178
 2411SOL    HW3 9675   4.490   1.775   4.162
 2411SOL    MW4 9676   4.478   1.695   4.195
 2412SOL     OW 9677   0.154   1.949   4.486
 2412SOL    HW2 9678   0.088   1.880   4.489
 2412SOL    HW3 9679   0.106   2.029   4.507
 2412SOL    MW4 9680   0.139   1.950   4.489
 2413SOL     OW 9681   0.371   1.405   4.585
 2413SOL    HW2 9682   0.402   1.483   4.539
 2413SOL    HW3 9683   0.286   1.431   4.620
 2413SOL    MW4 9684   0.364   1.419   4.583
 2414SOL     OW 9685   0.210   2.284   4.114
 2414SOL    HW2 9686   0.284   2.337   4.143
 2414SOL    HW3 9687   0.213   2.206   4.169
 2414SOL    MW4 9688   0.220   2.281   4.125
 2415SOL     OW 9689   0.011   2.423   4.245
 2415SOL    HW2 9690  -0.071   2.384   4.212
 2415SOL    HW3 9691   0.080   2.373   4.203
 2415SOL    MW4 9692   0.009   2.411   4.235
 2416SOL     OW 9693   4.471   2.710   4.166
 2416SOL    HW2 9694   4.543   2.760   4.207
 2416SOL    HW3 9695   4.479   2.622   4.203
 2416SOL    MW4 9696   4.482   2.705   4.177
 2417SOL     OW 9697   0.221   2.839   4.254
 2417SOL    HW2 9698   0.285   2.797   4.196
 2417SOL    HW3 9699   0.216   2.930   4.223
 2417SOL    MW4 9700   0.229   2.846   4.242
 2418SOL     OW 9701   0.222   3.099   4.156
 2418SOL    HW2 9702   0.294   3.160   4.171
 2418SOL    HW3 9703   0.143   3.150   4.171
 2418SOL    MW4 9704   0.221   3.114   4.160
 2419SOL     OW 9705   4.490   3.252   4.218
 2419SOL    HW2 9706   4.404   3.225   4.186
 2419SOL    HW3 9707   4.490   3.347   4.208
 2419SOL    MW4 9708   4.478   3.261   4.213
 2420SOL     OW 9709   0.019   3.518   4.183
 2420SOL    HW2 9710  -0.065   3.556   4.208
 2420SOL    HW3 9711   0.019   3.522   4.087
 2420SOL    MW4 9712   0.008   3.524   4.174
 2421SOL     OW 9713   0.257   3.634   4.273
 2421SOL    HW2 9714   0.320   3.583   4.222
 2421SOL    HW3 9715   0.171   3.602   4.244
 2421SOL    MW4 9716   0.254   3.623   4.262
 2422SOL     OW 9717   4.457   4.036   4.258
 2422SOL    HW2 9718   4.389   4.004   4.198
 2422SOL    HW3 9719   4.428   4.009   4.345
 2422SOL    MW4 9720   4.444   4.028   4.261
 2423SOL     OW 9721   4.293   3.692   4.542
 2423SOL    HW2 9722   4.293   3.610   4.591
 2423SOL    HW3 9723   4.302   3.666   4.451
 2423SOL    MW4 9724   4.294   3.678   4.536
 2424SOL     OW 9725   0.032   4.264   4.134
 2424SOL    HW2 9726   0.009   4.179   4.172
 2424SOL    HW3 9727   0.032   4.249   4.039
 2424SOL    MW4 9728   0.029   4.251   4.126
 2425SOL     OW 9729   0.238   4.404   4.235
 2425SOL    HW2 9730   0.225   4.401   4.330
 2425SOL    HW3 9731   0.168   4.350   4.200
 2425SOL    MW4 9732   0.227   4.397   4.243
 2426SOL     OW 9733   0.660   0.046   4.143
 2426SOL    HW2 9734   0.575   0.083   4.169
 2426SOL    HW3 9735   0.649   0.022   4.051
 2426SOL    MW4 9736   0.647   0.048   4.135
 2427SOL     OW 9737   0.429   0.157   4.246
 2427SOL    HW2 9738   0.446   0.157   4.340
 2427SOL    HW3 9739   0.415   0.249   4.224
 2427SOL    MW4 9740   0.429   0.169   4.255
 2428SOL     OW 9741   0.455   0.412   4.132
 2428SOL    HW2 9742   0.532   0.455   4.169
 2428SOL    HW3 9743   0.476   0.399   4.040
 2428SOL    MW4 9744   0.468   0.416   4.125
 2429SOL     OW 9745   0.666   0.550   4.217
 2429SOL    HW2 9746   0.751   0.514   4.192
 2429SOL    HW3 9747   0.668   0.640   4.184
 2429SOL    MW4 9748   0.678   0.557   4.210
 2430SOL     OW 9749   0.687   0.806   4.088
 2430SOL    HW2 9750   0.602   0.841   4.113
 2430SOL    HW3 9751   0.692   0.820   3.993
 2430SOL    MW4 9752   0.677   0.813   4.078
 2431SOL     OW 9753   0.463   0.918   4.190
 2431SOL    HW2 9754   0.452   1.006   4.154
 2431SOL    HW3 9755   0.395   0.866   4.148
 2431SOL    MW4 9756   0.453   0.923   4.180
 2432SOL     OW 9757   0.438   1.166   4.070
 2432SOL    HW2 9758   0.528   1.197   4.085
 2432SOL    HW3 9759   0.429   1.165   3.974
 2432SOL    MW4 9760   0.449   1.170   4.059
 2433SOL     OW 9761   0.679   1.261   4.155
 2433SOL    HW2 9762   0.693   1.257   4.250
 2433SOL    HW3 9763   0.671   1.354   4.136
 2433SOL    MW4 9764   0.680   1.273   4.165
 2434SOL     OW 9765   0.675   1.539   4.067
 2434SOL    HW2 9766   0.744   1.590   4.109
 2434SOL    HW3 9767   0.686   1.556   3.973
 2434SOL    MW4 9768   0.685   1.548   4.060
 2435SOL     OW 9769   0.213   1.511   4.135
 2435SOL    HW2 9770   0.210   1.426   4.179
 2435SOL    HW3 9771   0.138   1.559   4.170
 2435SOL    MW4 9772   0.203   1.507   4.146
 2436SOL     OW 9773   0.424   1.886   4.077
 2436SOL    HW2 9774   0.453   1.800   4.109
 2436SOL    HW3 9775   0.417   1.874   3.982
 2436SOL    MW4 9776   0.427   1.873   4.069
 2437SOL     OW 9777   0.620   2.072   4.175
 2437SOL    HW2 9778   0.611   2.077   4.270
 2437SOL    HW3 9779   0.545   2.019   4.147
 2437SOL    MW4 9780   0.609   2.066   4.184
 2438SOL     OW 9781   0.621   2.325   4.081
 2438SOL    HW2 9782   0.617   2.237   4.117
 2438SOL    HW3 9783   0.627   2.313   3.986
 2438SOL    MW4 9784   0.621   2.312   4.073
 2439SOL     OW 9785   0.403   2.440   4.200
 2439SOL    HW2 9786   0.406   2.529   4.164
 2439SOL    HW3 9787   0.479   2.396   4.160
 2439SOL    MW4 9788   0.414   2.446   4.190
 2440SOL     OW 9789   0.429   2.703   4.112
 2440SOL    HW2 9790   0.497   2.768   4.129
 2440SOL    HW3 9791   0.420   2.703   4.017
 2440SOL    MW4 9792   0.437   2.712   4.102
 2441SOL     OW 9793   0.643   2.883   4.201
 2441SOL    HW2 9794   0.636   2.904   4.294
 2441SOL    HW3 9795   0.644   2.968   4.157
 2441SOL    MW4 9796   0.642   2.897   4.208
 2442SOL     OW 9797   0.658   3.132   4.096
 2442SOL    HW2 9798   0.736   3.151   4.149
 2442SOL    HW3 9799   0.586   3.175   4.141
 2442SOL    MW4 9800   0.659   3.140   4.109
 2443SOL     OW 9801   0.433   3.272   4.233
 2443SOL    HW2 9802   0.446   3.273   4.328
 2443SOL    HW3 9803   0.456   3.361   4.205
 2443SOL    MW4 9804   0.437   3.284   4.242
 2444SOL     OW 9805   0.473   3.523   4.157
 2444SOL    HW2 9806   0.561   3.551   4.181
 2444SOL    HW3 9807   0.473   3.521   4.061
 2444SOL    MW4 9808   0.484   3.527   4.148
 2445SOL     OW 9809   0.915   3.536   4.571
 2445SOL    HW2 9810   0.826   3.501   4.560
 2445SOL    HW3 9811   0.912   3.623   4.530
 2445SOL    MW4 9812   0.903   3.543   4.564
 2446SOL     OW 9813   0.713   3.586   4.250
 2446SOL    HW2 9814   0.678   3.543   4.328
 2446SOL    HW3 9815   0.797   3.542   4.234
 2446SOL    MW4 9816   0.720   3.574   4.258
 2447SOL     OW 9817   0.488   4.049   4.250
 2447SOL    HW2 9818   0.463   4.136   4.218
 2447SOL    HW3 9819   0.409   3.996   4.239
 2447SOL    MW4 9820   0.474   4.054   4.244
 2448SOL     OW 9821   0.452   4.275   4.104
 2448SOL    HW2 9822   0.373   4.320   4.134
 2448SOL    HW3 9823   0.439   4.263   4.010
 2448SOL    MW4 9824   0.440   4.279   4.095
 2449SOL     OW 9825   0.655   4.425   4.219
 2449SOL    HW2 9826   0.588   4.382   4.167
 2449SOL    HW3 9827   0.657   4.515   4.186
 2449SOL    MW4 9828   0.647   4.432   4.207
 2450SOL     OW 9829   1.103   0.022   4.054
 2450SOL    HW2 9830   1.092  -0.065   4.091
 2450SOL    HW3 9831   1.097   0.009   3.959
 2450SOL    MW4 9832   1.101   0.009   4.046
 2451SOL     OW 9833   0.901   0.163   4.183
 2451SOL    HW2 9834   0.961   0.103   4.138
 2451SOL    HW3 9835   0.815   0.121   4.173
 2451SOL    MW4 9836   0.897   0.150   4.176
 2452SOL     OW 9837   0.890   0.414   4.087
 2452SOL    HW2 9838   0.971   0.444   4.128
 2452SOL    HW3 9839   0.879   0.324   4.117
 2452SOL    MW4 9840   0.900   0.406   4.096
 2453SOL     OW 9841   1.118   0.548   4.232
 2453SOL    HW2 9842   1.121   0.554   4.328
 2453SOL    HW3 9843   1.199   0.505   4.208
 2453SOL    MW4 9844   1.129   0.544   4.242
 2454SOL     OW 9845   1.140   0.800   4.061
 2454SOL    HW2 9846   1.199   0.851   4.116
 2454SOL    HW3 9847   1.142   0.712   4.099
 2454SOL    MW4 9848   1.148   0.795   4.073
 2455SOL     OW 9849   0.927   0.927   4.168
 2455SOL    HW2 9850   1.002   0.876   4.138
 2455SOL    HW3 9851   0.851   0.871   4.149
 2455SOL    MW4 9852   0.927   0.913   4.161
 2456SOL     OW 9853   0.922   1.186   4.049
 2456SOL    HW2 9854   0.938   1.102   4.093
 2456SOL    HW3 9855   0.847   1.223   4.095
 2456SOL    MW4 9856   0.914   1.179   4.061
 2457SOL     OW 9857   1.121   1.344   4.146
 2457SOL    HW2 9858   1.096   1.339   4.239
 2457SOL    HW3 9859   1.061   1.282   4.103
 2457SOL    MW4 9860   1.110   1.335   4.153
 2458SOL     OW 9861   1.116   1.609   4.076
 2458SOL    HW2 9862   1.028   1.633   4.103
 2458SOL    HW3 9863   1.121   1.515   4.093
 2458SOL    MW4 9864   1.105   1.600   4.082
 2459SOL     OW 9865   0.884   1.690   4.196
 2459SOL    HW2 9866   0.873   1.687   4.291
 2459SOL    HW3 9867   0.869   1.782   4.173
 2459SOL    MW4 9868   0.881   1.702   4.206
 2460SOL     OW 9869   0.866   1.961   4.108
 2460SOL    HW2 9870   0.780   2.003   4.115
 2460SOL    HW3 9871   0.872   1.935   4.016
 2460SOL    MW4 9872   0.855   1.963   4.097
 2461SOL     OW 9873   1.126   1.998   4.228
 2461SOL    HW2 9874   1.115   1.967   4.318
 2461SOL    HW3 9875   1.038   1.997   4.191
 2461SOL    MW4 9876   1.113   1.994   4.235
 2462SOL     OW 9877   1.121   2.261   4.096
 2462SOL    HW2 9878   1.193   2.317   4.124
 2462SOL    HW3 9879   1.128   2.183   4.152
 2462SOL    MW4 9880   1.131   2.258   4.107
 2463SOL     OW 9881   0.865   2.439   4.151
 2463SOL    HW2 9882   0.926   2.365   4.151
 2463SOL    HW3 9883   0.780   2.399   4.131
 2463SOL    MW4 9884   0.862   2.424   4.148
 2464SOL     OW 9885   0.851   2.715   4.106
 2464SOL    HW2 9886   0.855   2.628   4.146
 2464SOL    HW3 9887   0.786   2.762   4.158
 2464SOL    MW4 9888   0.843   2.710   4.118
 2465SOL     OW 9889   1.108   2.778   4.186
 2465SOL    HW2 9890   1.102   2.869   4.159
 2465SOL    HW3 9891   1.022   2.742   4.167
 2465SOL    MW4 9892   1.096   2.785   4.180
 2466SOL     OW 9893   1.104   3.061   4.104
 2466SOL    HW2 9894   1.174   3.119   4.135
 2466SOL    HW3 9895   1.105   3.071   4.009
 2466SOL    MW4 9896   1.114   3.070   4.096
 2467SOL     OW 9897   0.901   3.171   4.248
 2467SOL    HW2 9898   0.924   3.147   4.338
 2467SOL    HW3 9899   0.967   3.127   4.195
 2467SOL    MW4 9900   0.912   3.162   4.253
 2468SOL     OW 9901   0.954   3.441   4.169
 2468SOL    HW2 9902   0.941   3.354   4.207
 2468SOL    HW3 9903   0.955   3.426   4.074
 2468SOL    MW4 9904   0.952   3.427   4.161
 2469SOL     OW 9905   1.176   3.642   4.211
 2469SOL    HW2 9906   1.104   3.578   4.213
 2469SOL    HW3 9907   1.206   3.647   4.301
 2469SOL    MW4 9908   1.170   3.634   4.223
 2470SOL     OW 9909   1.089   3.889   4.092
 2470SOL    HW2 9910   1.168   3.942   4.103
 2470SOL    HW3 9911   1.104   3.812   4.147
 2470SOL    MW4 9912   1.101   3.886   4.100
 2471SOL     OW 9913   0.729   4.036   4.130
 2471SOL    HW2 9914   0.776   4.118   4.114
 2471SOL    HW3 9915   0.651   4.062   4.179
 2471SOL    MW4 9916   0.725   4.050   4.135
 2472SOL     OW 9917   1.085   4.420   4.170
 2472SOL    HW2 9918   1.168   4.386   4.138
 2472SOL    HW3 9919   1.092   4.414   4.266
 2472SOL    MW4 9920   1.097   4.415   4.179
 2473SOL     OW 9921   0.899   4.553   4.549
 2473SOL    HW2 9922   0.890   4.531   4.642
 2473SOL    HW3 9923   0.980   4.511   4.522
 2473SOL    MW4 9924   0.908   4.545   4.558
 2474SOL     OW 9925   1.540   4.635   4.110
 2474SOL    HW2 9926   1.614   4.683   4.146
 2474SOL    HW3 9927   1.464   4.668   4.159
 2474SOL    MW4 9928   1.539   4.646   4.121
 2475SOL     OW 9929   1.316   0.112   4.228
 2475SOL    HW2 9930   1.284   0.072   4.309
 2475SOL    HW3 9931   1.246   0.096   4.164
 2475SOL    MW4 9932   1.303   0.104   4.230
 2476SOL     OW 9933   1.324   0.379   4.117
 2476SOL    HW2 9934   1.410   0.414   4.142
 2476SOL    HW3 9935   1.325   0.289   4.150
 2476SOL    MW4 9936   1.336   0.372   4.124
 2477SOL     OW 9937   1.558   0.516   4.202
 2477SOL    HW2 9938   1.600   0.521   4.288
 2477SOL    HW3 9939   1.533   0.606   4.182
 2477SOL    MW4 9940   1.560   0.528   4.211
 2478SOL     OW 9941   1.581   0.796   4.138
 2478SOL    HW2 9942   1.666   0.835   4.160
 2478SOL    HW3 9943   1.566   0.822   4.047
 2478SOL    MW4 9944   1.590   0.805   4.129
 2479SOL     OW 9945   1.338   0.927   4.221
 2479SOL    HW2 9946   1.343   1.006   4.168
 2479SOL    HW3 9947   1.426   0.889   4.218
 2479SOL    MW4 9948   1.350   0.932   4.214
 2480SOL     OW 9949   1.322   1.168   4.088
 2480SOL    HW2 9950   1.260   1.238   4.111
 2480SOL    HW3 9951   1.329   1.172   3.993
 2480SOL    MW4 9952   1.315   1.178   4.079
 2481SOL     OW 9953   1.552   1.287   4.181
 2481SOL    HW2 9954   1.561   1.258   4.271
 2481SOL    HW3 9955   1.468   1.250   4.152
 2481SOL    MW4 9956   1.542   1.279   4.189
 2482SOL     OW 9957   1.566   1.529   4.020
 2482SOL    HW2 9958   1.503   1.585   4.064
 2482SOL    HW3 9959   1.573   1.451   4.076
 2482SOL    MW4 9960   1.559   1.526   4.033
 2483SOL     OW 9961   1.391   1.677   4.162
 2483SOL    HW2 9962   1.397   1.771   4.147
 2483SOL    HW3 9963   1.299   1.656   4.151
 2483SOL    MW4 9964   1.380   1.687   4.158
 2484SOL     OW 9965   1.374   1.965   4.094
 2484SOL    HW2 9966   1.441   2.001   4.151
 2484SOL    HW3 9967   1.291   1.985   4.138
 2484SOL    MW4 9968   1.372   1.972   4.107
 2485SOL     OW 9969   1.600   2.061   4.227
 2485SOL    HW2 9970   1.676   2.021   4.185
 2485SOL    HW3 9971   1.596   2.149   4.189
 2485SOL    MW4 9972   1.610   2.067   4.216
 2486SOL     OW 9973   1.586   2.293   4.072
 2486SOL    HW2 9974   1.643   2.352   4.121
 2486SOL    HW3 9975   1.593   2.322   3.981
 2486SOL    MW4 9976   1.594   2.305   4.067
 2487SOL     OW 9977   1.558   2.790   4.182
 2487SOL    HW2 9978   1.568   2.807   4.276
 2487SOL    HW3 9979   1.648   2.784   4.149
 2487SOL    MW4 9980   1.571   2.791   4.190
 2488SOL     OW 9981   1.329   2.672   4.065
 2488SOL    HW2 9982   1.390   2.721   4.119
 2488SOL    HW3 9983   1.242   2.696   4.099
 2488SOL    MW4 9984   1.325   2.681   4.077
 2489SOL     OW 9985   1.538   2.113   4.771
 2489SOL    HW2 9986   1.538   2.118   4.675
 2489SOL    HW3 9987   1.560   2.202   4.800
 2489SOL    MW4 9988   1.541   2.126   4.762
 2490SOL     OW 9989   1.569   3.065   4.092
 2490SOL    HW2 9990   1.630   3.118   4.144
 2490SOL    HW3 9991   1.569   2.979   4.135
 2490SOL    MW4 9992   1.577   3.061   4.104
 2491SOL     OW 9993   1.339   3.194   4.191
 2491SOL    HW2 9994   1.425   3.162   4.163
 2491SOL    HW3 9995   1.331   3.280   4.150
 2491SOL    MW4 9996   1.349   3.201   4.181
 2492SOL     OW 9997   1.353   3.461   4.097
 2492SOL    HW2 9998   1.282   3.516   4.130
 2492SOL    HW3 9999   1.347   3.469   4.002
 2492SOL    MW410000   1.343   3.470   4.089
 2493SOL     OW10001   1.564   3.623   4.165
 2493SOL    HW210002   1.560   3.625   4.260
 2493SOL    HW310003   1.494   3.564   4.139
 2493SOL    MW410004   1.554   3.616   4.174
 2494SOL     OW10005   1.537   3.874   4.069
 2494SOL    HW210006   1.461   3.912   4.115
 2494SOL    HW310007   1.542   3.784   4.103
 2494SOL    MW410008   1.527   3.867   4.080
 2495SOL     OW10009   1.326   4.014   4.165
 2495SOL    HW210010   1.284   4.013   4.251
 2495SOL    HW310011   1.329   4.107   4.142
 2495SOL    MW410012   1.321   4.027   4.173
 2496SOL     OW10013   1.305   4.277   4.096
 2496SOL    HW210014   1.381   4.319   4.138
 2496SOL    HW310015   1.319   4.291   4.002
 2496SOL    MW410016   1.317   4.284   4.089
 2497SOL     OW10017   1.521   4.382   4.234
 2497SOL    HW210018   1.542   4.466   4.194
 2497SOL    HW310019   1.594   4.325   4.209
 2497SOL    MW410020   1.533   4.386   4.225
 2498SOL     OW10021   2.011   4.617   4.110
 2498SOL    HW210022   1.941   4.672   4.145
 2498SOL    HW310023   2.003   4.624   4.015
 2498SOL    MW410024   2.001   4.625   4.102
 2499SOL     OW10025   1.782   0.079   4.210
 2499SOL    HW210026   1.798   0.053   4.300
 2499SOL    HW310027   1.794   0.174   4.210
 2499SOL    MW410028   1.785   0.088   4.222
 2500SOL     OW10029   1.788   0.352   4.157
 2500SOL    HW210030   1.865   0.402   4.185
 2500SOL    HW310031   1.719   0.416   4.148
 2500SOL    MW410032   1.789   0.367   4.160
 2501SOL     OW10033   1.994   0.541   4.190
 2501SOL    HW210034   2.006   0.538   4.285
 2501SOL    HW310035   2.065   0.487   4.155
 2501SOL    MW410036   2.005   0.533   4.198
 2502SOL     OW10037   2.044   0.790   4.094
 2502SOL    HW210038   2.132   0.805   4.128
 2502SOL    HW310039   2.017   0.707   4.133
 2502SOL    MW410040   2.052   0.781   4.104
 2503SOL     OW10041   1.810   0.953   4.166
 2503SOL    HW210042   1.814   1.021   4.099
 2503SOL    HW310043   1.887   0.899   4.150
 2503SOL    MW410044   1.821   0.955   4.155
 2504SOL     OW10045   1.789   1.224   4.051
 2504SOL    HW210046   1.859   1.243   4.113
 2504SOL    HW310047   1.708   1.238   4.101
 2504SOL    MW410048   1.787   1.229   4.065
 2505SOL     OW10049   2.012   1.292   4.213
 2505SOL    HW210050   2.082   1.242   4.171
 2505SOL    HW310051   2.021   1.381   4.178
 2505SOL    MW410052   2.022   1.297   4.203
 2506SOL     OW10053   2.018   1.553   4.125
 2506SOL    HW210054   2.101   1.591   4.153
 2506SOL    HW310055   2.019   1.562   4.029
 2506SOL    MW410056   2.029   1.559   4.116
 2507SOL     OW10057   1.772   1.665   4.184
 2507SOL    HW210058   1.858   1.622   4.174
 2507SOL    HW310059   1.712   1.610   4.133
 2507SOL    MW410060   1.776   1.652   4.176
 2508SOL     OW10061   1.816   1.937   4.099
 2508SOL    HW210062   1.819   1.848   4.134
 2508SOL    HW310063   1.886   1.984   4.145
 2508SOL    MW410064   1.826   1.931   4.109
 2509SOL     OW10065   1.723   2.478   4.225
 2509SOL    HW210066   1.686   2.478   4.314
 2509SOL    HW310067   1.810   2.516   4.236
 2509SOL    MW410068   1.730   2.483   4.238
 2510SOL     OW10069   2.478   2.334   4.152
 2510SOL    HW210070   2.461   2.253   4.201
 2510SOL    HW310071   2.441   2.318   4.065
 2510SOL    MW410072   2.471   2.321   4.147
 2511SOL     OW10073   1.726   2.952   4.440
 2511SOL    HW210074   1.686   2.870   4.468
 2511SOL    HW310075   1.773   2.931   4.359
 2511SOL    MW410076   1.727   2.938   4.433
 2512SOL     OW10077   1.822   2.751   4.055
 2512SOL    HW210078   1.863   2.675   4.097
 2512SOL    HW310079   1.862   2.827   4.098
 2512SOL    MW410080   1.833   2.751   4.066
 2513SOL     OW10081   1.916   2.952   4.222
 2513SOL    HW210082   1.994   2.896   4.234
 2513SOL    HW310083   1.942   3.036   4.259
 2513SOL    MW410084   1.930   2.955   4.229
 2514SOL     OW10085   2.238   2.936   4.070
 2514SOL    HW210086   2.330   2.937   4.099
 2514SOL    HW310087   2.192   2.888   4.139
 2514SOL    MW410088   2.244   2.930   4.083
 2515SOL     OW10089   1.752   3.263   4.249
 2515SOL    HW210090   1.774   3.348   4.210
 2515SOL    HW310091   1.831   3.239   4.298
 2515SOL    MW410092   1.765   3.271   4.250
 2516SOL     OW10093   1.799   3.504   4.131
 2516SOL    HW210094   1.721   3.555   4.154
 2516SOL    HW310095   1.796   3.499   4.036
 2516SOL    MW410096   1.788   3.510   4.122
 2517SOL     OW10097   2.063   3.585   4.214
 2517SOL    HW210098   2.061   3.672   4.176
 2517SOL    HW310099   1.972   3.556   4.214
 2517SOL    MW410100   2.051   3.593   4.209
 2518SOL     OW10101   2.025   3.832   4.098
 2518SOL    HW210102   1.940   3.873   4.115
 2518SOL    HW310103   2.038   3.841   4.004
 2518SOL    MW410104   2.016   3.839   4.088
 2519SOL     OW10105   1.786   3.959   4.142
 2519SOL    HW210106   1.760   4.050   4.125
 2519SOL    HW310107   1.713   3.907   4.109
 2519SOL    MW410108   1.773   3.964   4.135
 2520SOL     OW10109   1.746   4.230   4.115
 2520SOL    HW210110   1.827   4.260   4.154
 2520SOL    HW310111   1.744   4.272   4.029
 2520SOL    MW410112   1.756   4.239   4.109
 2521SOL     OW10113   1.987   4.350   4.185
 2521SOL    HW210114   1.974   4.365   4.279
 2521SOL    HW310115   2.006   4.437   4.150
 2521SOL    MW410116   1.988   4.364   4.193
 2522SOL     OW10117   2.421   0.004   4.108
 2522SOL    HW210118   2.490   0.046   4.160
 2522SOL    HW310119   2.422  -0.087   4.135
 2522SOL    MW410120   2.430  -0.002   4.119
 2523SOL     OW10121   2.203   0.126   4.207
 2523SOL    HW210122   2.280   0.079   4.176
 2523SOL    HW310123   2.129   0.076   4.174
 2523SOL    MW410124   2.204   0.113   4.199
 2524SOL     OW10125   2.211   0.384   4.112
 2524SOL    HW210126   2.201   0.301   4.159
 2524SOL    HW310127   2.214   0.360   4.020
 2524SOL    MW410128   2.210   0.370   4.106
 2525SOL     OW10129   2.458   0.485   4.218
 2525SOL    HW210130   2.530   0.436   4.180
 2525SOL    HW310131   2.380   0.452   4.174
 2525SOL    MW410132   2.457   0.474   4.207
 2526SOL     OW10133   2.533   0.745   4.141
 2526SOL    HW210134   2.505   0.654   4.149
 2526SOL    HW310135   2.517   0.767   4.050
 2526SOL    MW410136   2.527   0.736   4.130
 2527SOL     OW10137   2.295   0.895   4.194
 2527SOL    HW210138   2.292   0.899   4.289
 2527SOL    HW310139   2.379   0.853   4.174
 2527SOL    MW410140   2.305   0.890   4.204
 2528SOL     OW10141   2.242   1.167   4.125
 2528SOL    HW210142   2.295   1.218   4.185
 2528SOL    HW310143   2.261   1.076   4.147
 2528SOL    MW410144   2.251   1.162   4.136
 2529SOL     OW10145   2.419   1.315   4.281
 2529SOL    HW210146   2.446   1.366   4.358
 2529SOL    HW310147   2.501   1.278   4.247
 2529SOL    MW410148   2.434   1.317   4.287
 2530SOL     OW10149   2.506   1.544   4.157
 2530SOL    HW210150   2.474   1.457   4.179
 2530SOL    HW310151   2.540   1.536   4.067
 2530SOL    MW410152   2.506   1.532   4.148
 2531SOL     OW10153   2.259   1.639   4.236
 2531SOL    HW210154   2.337   1.611   4.189
 2531SOL    HW310155   2.255   1.733   4.221
 2531SOL    MW410156   2.269   1.648   4.228
 2532SOL     OW10157   2.215   1.929   4.154
 2532SOL    HW210158   2.278   1.982   4.204
 2532SOL    HW310159   2.142   1.916   4.214
 2532SOL    MW410160   2.214   1.934   4.169
 2533SOL     OW10161   2.430   2.073   4.269
 2533SOL    HW210162   2.498   2.026   4.221
 2533SOL    HW310163   2.469   2.091   4.354
 2533SOL    MW410164   2.444   2.069   4.274
 2534SOL     OW10165   2.739   2.680   4.222
 2534SOL    HW210166   2.660   2.733   4.216
 2534SOL    HW310167   2.810   2.740   4.200
 2534SOL    MW410168   2.738   2.695   4.219
 2535SOL     OW10169   2.374   2.525   4.414
 2535SOL    HW210170   2.330   2.609   4.399
 2535SOL    HW310171   2.378   2.484   4.328
 2535SOL    MW410172   2.368   2.531   4.401
 2536SOL     OW10173   1.986   2.582   4.208
 2536SOL    HW210174   2.043   2.649   4.247
 2536SOL    HW310175   2.046   2.519   4.169
 2536SOL    MW410176   2.001   2.583   4.208
 2537SOL     OW10177   2.492   2.798   4.215
 2537SOL    HW210178   2.444   2.740   4.157
 2537SOL    HW310179   2.437   2.805   4.294
 2537SOL    MW410180   2.478   2.792   4.218
 2538SOL     OW10181   2.016   3.176   4.347
 2538SOL    HW210182   2.060   3.180   4.262
 2538SOL    HW310183   2.068   3.113   4.398
 2538SOL    MW410184   2.029   3.168   4.343
 2539SOL     OW10185   2.160   3.221   4.092
 2539SOL    HW210186   2.095   3.233   4.023
 2539SOL    HW310187   2.188   3.130   4.083
 2539SOL    MW410188   2.155   3.211   4.081
 2540SOL     OW10189   2.281   3.466   4.127
 2540SOL    HW210190   2.266   3.371   4.122
 2540SOL    HW310191   2.205   3.500   4.172
 2540SOL    MW410192   2.269   3.458   4.132
 2541SOL     OW10193   2.452   3.601   4.293
 2541SOL    HW210194   2.397   3.547   4.236
 2541SOL    HW310195   2.452   3.687   4.251
 2541SOL    MW410196   2.444   3.605   4.280
 2542SOL     OW10197   2.475   3.833   4.120
 2542SOL    HW210198   2.545   3.892   4.149
 2542SOL    HW310199   2.482   3.831   4.025
 2542SOL    MW410200   2.485   3.841   4.111
 2543SOL     OW10201   2.232   3.988   4.190
 2543SOL    HW210202   2.309   3.935   4.170
 2543SOL    HW310203   2.160   3.945   4.144
 2543SOL    MW410204   2.233   3.976   4.181
 2544SOL     OW10205   2.199   4.232   4.063
 2544SOL    HW210206   2.213   4.147   4.105
 2544SOL    HW310207   2.130   4.273   4.114
 2544SOL    MW410208   2.192   4.226   4.075
 2545SOL     OW10209   2.430   4.405   4.157
 2545SOL    HW210210   2.355   4.364   4.113
 2545SOL    HW310211   2.501   4.343   4.146
 2545SOL    MW410212   2.429   4.392   4.149
 2546SOL     OW10213   2.887   0.004   4.125
 2546SOL    HW210214   2.951   0.053   4.176
 2546SOL    HW310215   2.872  -0.076   4.176
 2546SOL    MW410216   2.893   0.000   4.138
 2547SOL     OW10217   2.638   0.122   4.223
 2547SOL    HW210218   2.648   0.209   4.185
 2547SOL    HW310219   2.709   0.070   4.185
 2547SOL    MW410220   2.649   0.127   4.213
 2548SOL     OW10221   2.677   0.371   4.103
 2548SOL    HW210222   2.719   0.380   4.018
 2548SOL    HW310223   2.723   0.433   4.160
 2548SOL    MW410224   2.688   0.380   4.099
 2549SOL     OW10225   3.226   0.740   4.066
 2549SOL    HW210226   3.268   0.809   4.116
 2549SOL    HW310227   3.132   0.749   4.087
 2549SOL    MW410228   3.219   0.750   4.076
 2550SOL     OW10229   2.952   0.826   4.076
 2550SOL    HW210230   2.992   0.912   4.085
 2550SOL    HW310231   2.943   0.814   3.981
 2550SOL    MW410232   2.956   0.836   4.064
 2551SOL     OW10233   2.731   0.917   4.201
 2551SOL    HW210234   2.799   0.889   4.140
 2551SOL    HW310235   2.659   0.856   4.187
 2551SOL    MW410236   2.731   0.905   4.191
 2552SOL     OW10237   2.635   1.200   4.147
 2552SOL    HW210238   2.649   1.106   4.155
 2552SOL    HW310239   2.639   1.217   4.053
 2552SOL    MW410240   2.637   1.190   4.136
 2553SOL     OW10241   2.880   1.345   4.197
 2553SOL    HW210242   2.950   1.287   4.226
 2553SOL    HW310243   2.818   1.287   4.153
 2553SOL    MW410244   2.881   1.330   4.195
 2554SOL     OW10245   2.898   1.595   4.094
 2554SOL    HW210246   2.986   1.612   4.130
 2554SOL    HW310247   2.876   1.508   4.125
 2554SOL    MW410248   2.907   1.586   4.103
 2555SOL     OW10249   2.710   1.700   4.259
 2555SOL    HW210250   2.780   1.674   4.200
 2555SOL    HW310251   2.635   1.646   4.233
 2555SOL    MW410252   2.709   1.690   4.248
 2556SOL     OW10253   2.659   1.959   4.145
 2556SOL    HW210254   2.674   1.866   4.166
 2556SOL    HW310255   2.658   1.962   4.050
 2556SOL    MW410256   2.660   1.947   4.136
 2557SOL     OW10257   2.910   2.069   4.209
 2557SOL    HW210258   2.914   2.157   4.171
 2557SOL    HW310259   2.819   2.041   4.195
 2557SOL    MW410260   2.898   2.077   4.202
 2558SOL     OW10261   2.945   2.310   4.087
 2558SOL    HW210262   3.021   2.344   4.134
 2558SOL    HW310263   2.871   2.360   4.122
 2558SOL    MW410264   2.945   2.321   4.098
 2559SOL     OW10265   2.728   3.246   4.471
 2559SOL    HW210266   2.715   3.334   4.505
 2559SOL    HW310267   2.663   3.193   4.517
 2559SOL    MW410268   2.718   3.250   4.482
 2560SOL     OW10269   2.491   3.069   4.171
 2560SOL    HW210270   2.496   2.979   4.203
 2560SOL    HW310271   2.437   3.115   4.236
 2560SOL    MW410272   2.484   3.063   4.184
 2561SOL     OW10273   2.936   3.137   4.079
 2561SOL    HW210274   2.855   3.180   4.106
 2561SOL    HW310275   2.915   3.097   3.995
 2561SOL    MW410276   2.923   3.137   4.072
 2562SOL     OW10277   3.023   3.181   4.515
 2562SOL    HW210278   3.019   3.087   4.495
 2562SOL    HW310279   2.940   3.216   4.484
 2562SOL    MW410280   3.011   3.173   4.509
 2563SOL     OW10281   2.717   3.239   4.185
 2563SOL    HW210282   2.734   3.235   4.279
 2563SOL    HW310283   2.643   3.179   4.172
 2563SOL    MW410284   2.709   3.230   4.196
 2564SOL     OW10285   2.640   3.499   4.126
 2564SOL    HW210286   2.668   3.409   4.139
 2564SOL    HW310287   2.584   3.519   4.201
 2564SOL    MW410288   2.636   3.490   4.138
 2565SOL     OW10289   2.881   3.608   4.212
 2565SOL    HW210290   2.867   3.603   4.307
 2565SOL    HW310291   2.797   3.581   4.174
 2565SOL    MW410292   2.868   3.604   4.219
 2566SOL     OW10293   2.893   3.883   4.159
 2566SOL    HW210294   2.979   3.923   4.170
 2566SOL    HW310295   2.906   3.791   4.182
 2566SOL    MW410296   2.906   3.876   4.163
 2567SOL     OW10297   2.658   3.997   4.262
 2567SOL    HW210298   2.679   4.081   4.222
 2567SOL    HW310299   2.733   3.941   4.241
 2567SOL    MW410300   2.671   4.000   4.254
 2568SOL     OW10301   2.673   4.234   4.127
 2568SOL    HW210302   2.734   4.289   4.177
 2568SOL    HW310303   2.692   4.255   4.035
 2568SOL    MW410304   2.684   4.244   4.121
 2569SOL     OW10305   2.855   4.395   4.226
 2569SOL    HW210306   2.861   4.392   4.322
 2569SOL    HW310307   2.942   4.370   4.196
 2569SOL    MW410308   2.867   4.391   4.235
 2570SOL     OW10309   3.319   4.647   4.193
 2570SOL    HW210310   3.392   4.700   4.226
 2570SOL    HW310311   3.341   4.557   4.217
 2570SOL    MW410312   3.332   4.642   4.201
 2571SOL     OW10313   3.096   0.127   4.282
 2571SOL    HW210314   3.068   0.079   4.360
 2571SOL    HW310315   3.170   0.077   4.248
 2571SOL    MW410316   3.102   0.114   4.288
 2572SOL     OW10317   3.068   0.402   4.123
 2572SOL    HW210318   3.146   0.440   4.163
 2572SOL    HW310319   3.064   0.313   4.158
 2572SOL    MW410320   3.078   0.395   4.133
 2573SOL     OW10321   3.290   0.509   4.249
 2573SOL    HW210322   3.366   0.467   4.210
 2573SOL    HW310323   3.289   0.597   4.211
 2573SOL    MW410324   3.300   0.515   4.239
 2574SOL     OW10325   3.364   0.936   4.204
 2574SOL    HW210326   3.447   0.962   4.165
 2574SOL    HW310327   3.385   0.920   4.296
 2574SOL    MW410328   3.378   0.937   4.211
 2575SOL     OW10329   3.296   1.044   4.595
 2575SOL    HW210330   3.298   1.114   4.659
 2575SOL    HW310331   3.203   1.029   4.577
 2575SOL    MW410332   3.284   1.051   4.601
 2576SOL     OW10333   3.114   1.050   4.129
 2576SOL    HW210334   3.197   1.017   4.162
 2576SOL    HW310335   3.137   1.102   4.052
 2576SOL    MW410336   3.128   1.052   4.123
 2577SOL     OW10337   3.628   1.185   4.290
 2577SOL    HW210338   3.662   1.130   4.361
 2577SOL    HW310339   3.537   1.201   4.315
 2577SOL    MW410340   3.620   1.180   4.303
 2578SOL     OW10341   3.390   1.312   4.343
 2578SOL    HW210342   3.388   1.380   4.275
 2578SOL    HW310343   3.404   1.361   4.424
 2578SOL    MW410344   3.392   1.328   4.345
 2579SOL     OW10345   3.145   1.678   4.215
 2579SOL    HW210346   3.138   1.695   4.309
 2579SOL    HW310347   3.148   1.765   4.175
 2579SOL    MW410348   3.144   1.692   4.222
 2580SOL     OW10349   3.157   1.947   4.095
 2580SOL    HW210350   3.226   1.995   4.140
 2580SOL    HW310351   3.076   1.976   4.137
 2580SOL    MW410352   3.156   1.957   4.107
 2581SOL     OW10353   3.364   2.068   4.265
 2581SOL    HW210354   3.453   2.032   4.271
 2581SOL    HW310355   3.376   2.151   4.220
 2581SOL    MW410356   3.377   2.074   4.260
 2582SOL     OW10357   3.424   2.311   4.136
 2582SOL    HW210358   3.501   2.359   4.168
 2582SOL    HW310359   3.442   2.296   4.044
 2582SOL    MW410360   3.437   2.316   4.128
 2583SOL     OW10361   3.174   2.436   4.207
 2583SOL    HW210362   3.155   2.525   4.175
 2583SOL    HW310363   3.254   2.411   4.160
 2583SOL    MW410364   3.182   2.445   4.196
 2584SOL     OW10365   3.125   2.702   4.125
 2584SOL    HW210366   3.202   2.742   4.166
 2584SOL    HW310367   3.051   2.752   4.159
 2584SOL    MW410368   3.125   2.714   4.135
 2585SOL     OW10369   3.456   2.786   4.498
 2585SOL    HW210370   3.382   2.761   4.554
 2585SOL    HW310371   3.417   2.793   4.410
 2585SOL    MW410372   3.441   2.784   4.494
 2586SOL     OW10373   3.349   3.096   4.128
 2586SOL    HW210374   3.274   3.134   4.174
 2586SOL    HW310375   3.328   3.106   4.035
 2586SOL    MW410376   3.336   3.102   4.122
 2587SOL     OW10377   3.196   3.234   4.299
 2587SOL    HW210378   3.155   3.307   4.252
 2587SOL    HW310379   3.133   3.211   4.368
 2587SOL    MW410380   3.182   3.241   4.302
 2588SOL     OW10381   3.100   3.464   4.151
 2588SOL    HW210382   3.012   3.496   4.172
 2588SOL    HW310383   3.099   3.452   4.056
 2588SOL    MW410384   3.088   3.467   4.141
 2589SOL     OW10385   3.359   3.585   4.206
 2589SOL    HW210386   3.380   3.560   4.296
 2589SOL    HW310387   3.272   3.547   4.190
 2589SOL    MW410388   3.350   3.577   4.216
 2590SOL     OW10389   3.324   3.865   4.198
 2590SOL    HW210390   3.335   3.772   4.217
 2590SOL    HW310391   3.335   3.872   4.104
 2590SOL    MW410392   3.327   3.854   4.188
 2591SOL     OW10393   3.111   4.055   4.223
 2591SOL    HW210394   3.096   4.055   4.317
 2591SOL    HW310395   3.190   4.002   4.210
 2591SOL    MW410396   3.119   4.048   4.234
 2592SOL     OW10397   3.133   4.318   4.153
 2592SOL    HW210398   3.210   4.345   4.204
 2592SOL    HW310399   3.129   4.223   4.164
 2592SOL    MW410400   3.143   4.309   4.161
 2593SOL     OW10401   3.372   4.391   4.282
 2593SOL    HW210402   3.372   4.409   4.376
 2593SOL    HW310403   3.454   4.344   4.266
 2593SOL    MW410404   3.383   4.387   4.292
 2594SOL     OW10405   3.759   0.001   4.161
 2594SOL    HW210406   3.837   0.048   4.190
 2594SOL    HW310407   3.770  -0.008   4.066
 2594SOL    MW410408   3.771   0.006   4.152
 2595SOL     OW10409   3.537   0.157   4.246
 2595SOL    HW210410   3.540   0.243   4.203
 2595SOL    HW310411   3.613   0.110   4.212
 2595SOL    MW410412   3.547   0.163   4.236
 2596SOL     OW10413   3.532   0.422   4.131
 2596SOL    HW210414   3.619   0.441   4.166
 2596SOL    HW310415   3.544   0.416   4.037
 2596SOL    MW410416   3.545   0.424   4.123
 2597SOL     OW10417   3.800   0.516   4.212
 2597SOL    HW210418   3.806   0.514   4.308
 2597SOL    HW310419   3.804   0.609   4.190
 2597SOL    MW410420   3.801   0.528   4.222
 2598SOL     OW10421   3.778   0.793   4.104
 2598SOL    HW210422   3.704   0.854   4.104
 2598SOL    HW310423   3.783   0.762   4.014
 2598SOL    MW410424   3.769   0.797   4.092
 2599SOL     OW10425   3.521   0.637   4.588
 2599SOL    HW210426   3.436   0.603   4.560
 2599SOL    HW310427   3.510   0.655   4.682
 2599SOL    MW410428   3.508   0.635   4.597
 2600SOL     OW10429   3.608   1.011   4.066
 2600SOL    HW210430   3.623   1.085   4.124
 2600SOL    HW310431   3.607   1.049   3.978
 2600SOL    MW410432   3.610   1.026   4.062
 2601SOL     OW10433   3.826   1.367   4.268
 2601SOL    HW210434   3.758   1.301   4.284
 2601SOL    HW310435   3.832   1.416   4.350
 2601SOL    MW410436   3.818   1.365   4.281
 2602SOL     OW10437   3.802   1.576   4.077
 2602SOL    HW210438   3.814   1.497   4.131
 2602SOL    HW310439   3.882   1.626   4.091
 2602SOL    MW410440   3.814   1.572   4.086
 2603SOL     OW10441   3.594   1.933   4.168
 2603SOL    HW210442   3.559   1.941   4.079
 2603SOL    HW310443   3.581   1.841   4.190
 2603SOL    MW410444   3.588   1.922   4.159
 2604SOL     OW10445   3.340   1.496   4.155
 2604SOL    HW210446   3.350   1.496   4.060
 2604SOL    HW310447   3.270   1.559   4.171
 2604SOL    MW410448   3.332   1.504   4.144
 2605SOL     OW10449   3.819   2.108   4.229
 2605SOL    HW210450   3.815   2.097   4.324
 2605SOL    HW310451   3.750   2.051   4.196
 2605SOL    MW410452   3.809   2.099   4.237
 2606SOL     OW10453   3.860   2.358   4.111
 2606SOL    HW210454   3.847   2.275   4.157
 2606SOL    HW310455   3.841   2.337   4.019
 2606SOL    MW410456   3.855   2.344   4.105
 2607SOL     OW10457   3.630   2.478   4.219
 2607SOL    HW210458   3.629   2.482   4.314
 2607SOL    HW310459   3.719   2.453   4.196
 2607SOL    MW410460   3.641   2.475   4.228
 2608SOL     OW10461   3.563   2.715   4.101
 2608SOL    HW210462   3.588   2.631   4.139
 2608SOL    HW310463   3.578   2.704   4.007
 2608SOL    MW410464   3.568   2.702   4.093
 2609SOL     OW10465   3.784   2.845   4.176
 2609SOL    HW210466   3.772   2.854   4.271
 2609SOL    HW310467   3.706   2.798   4.146
 2609SOL    MW410468   3.772   2.840   4.185
 2610SOL     OW10469   3.796   3.099   4.071
 2610SOL    HW210470   3.773   3.021   4.121
 2610SOL    HW310471   3.807   3.067   3.981
 2610SOL    MW410472   3.794   3.084   4.065
 2611SOL     OW10473   3.583   3.215   4.202
 2611SOL    HW210474   3.639   3.174   4.136
 2611SOL    HW310475   3.496   3.180   4.185
 2611SOL    MW410476   3.579   3.205   4.191
 2612SOL     OW10477   3.627   3.492   4.134
 2612SOL    HW210478   3.624   3.398   4.152
 2612SOL    HW310479   3.542   3.525   4.162
 2612SOL    MW410480   3.615   3.484   4.140
 2613SOL     OW10481   3.837   3.644   4.231
 2613SOL    HW210482   3.914   3.592   4.211
 2613SOL    HW310483   3.763   3.592   4.201
 2613SOL    MW410484   3.837   3.631   4.225
 2614SOL     OW10485   3.791   3.898   4.150
 2614SOL    HW210486   3.712   3.932   4.191
 2614SOL    HW310487   3.800   3.810   4.185
 2614SOL    MW410488   3.782   3.891   4.160
 2615SOL     OW10489   3.537   4.010   4.262
 2615SOL    HW210490   3.564   3.992   4.352
 2615SOL    HW310491   3.460   3.955   4.248
 2615SOL    MW410492   3.530   4.000   4.272
 2616SOL     OW10493   3.576   4.261   4.163
 2616SOL    HW210494   3.663   4.286   4.194
 2616SOL    HW310495   3.567   4.169   4.186
 2616SOL    MW410496   3.586   4.252   4.170
 2617SOL     OW10497   3.803   4.418   4.259
 2617SOL    HW210498   3.885   4.392   4.218
 2617SOL    HW310499   3.786   4.506   4.225
 2617SOL    MW410500   3.812   4.426   4.249
 2618SOL     OW10501   4.255   0.001   4.155
 2618SOL    HW210502   4.268  -0.092   4.174
 2618SOL    HW310503   4.334   0.043   4.189
 2618SOL    MW410504   4.267  -0.006   4.162
 2619SOL     OW10505   4.014   0.120   4.234
 2619SOL    HW210506   4.008   0.210   4.204
 2619SOL    HW310507   4.091   0.084   4.189
 2619SOL    MW410508   4.024   0.127   4.224
 2620SOL     OW10509   4.018   0.368   4.080
 2620SOL    HW210510   4.093   0.422   4.105
 2620SOL    HW310511   3.942   0.414   4.116
 2620SOL    MW410512   4.018   0.381   4.088
 2621SOL     OW10513   4.240   0.510   4.184
 2621SOL    HW210514   4.241   0.603   4.161
 2621SOL    HW310515   4.327   0.478   4.161
 2621SOL    MW410516   4.251   0.518   4.178
 2622SOL     OW10517   4.293   0.777   4.113
 2622SOL    HW210518   4.217   0.830   4.136
 2622SOL    HW310519   4.296   0.778   4.018
 2622SOL    MW410520   4.284   0.784   4.104
 2623SOL     OW10521   4.060   0.914   4.202
 2623SOL    HW210522   4.031   1.000   4.172
 2623SOL    HW310523   3.982   0.858   4.196
 2623SOL    MW410524   4.046   0.918   4.198
 2624SOL     OW10525   3.985   1.192   4.131
 2624SOL    HW210526   4.076   1.207   4.157
 2624SOL    HW310527   3.934   1.254   4.184
 2624SOL    MW410528   3.990   1.202   4.142
 2625SOL     OW10529   4.235   1.276   4.192
 2625SOL    HW210530   4.236   1.278   4.288
 2625SOL    HW310531   4.324   1.248   4.168
 2625SOL    MW410532   4.247   1.273   4.202
 2626SOL     OW10533   4.255   1.556   4.126
 2626SOL    HW210534   4.246   1.469   4.165
 2626SOL    HW310535   4.247   1.541   4.032
 2626SOL    MW410536   4.253   1.542   4.119
 2627SOL     OW10537   4.052   1.625   4.664
 2627SOL    HW210538   3.981   1.589   4.611
 2627SOL    HW310539   4.010   1.693   4.717
 2627SOL    MW410540   4.037   1.629   4.664
 2628SOL     OW10541   4.059   1.995   4.145
 2628SOL    HW210542   4.069   1.916   4.198
 2628SOL    HW310543   3.978   2.035   4.176
 2628SOL    MW410544   4.050   1.990   4.156
 2629SOL     OW10545   4.482   1.946   4.084
 2629SOL    HW210546   4.563   1.994   4.105
 2629SOL    HW310547   4.415   1.985   4.140
 2629SOL    MW410548   4.484   1.957   4.094
 2630SOL     OW10549   4.276   2.314   4.087
 2630SOL    HW210550   4.209   2.368   4.130
 2630SOL    HW310551   4.265   2.227   4.127
 2630SOL    MW410552   4.265   2.310   4.098
 2631SOL     OW10553   4.083   2.485   4.183
 2631SOL    HW210554   4.078   2.501   4.277
 2631SOL    HW310555   3.998   2.446   4.160
 2631SOL    MW410556   4.071   2.482   4.192
 2632SOL     OW10557   4.042   2.751   4.111
 2632SOL    HW210558   4.056   2.659   4.133
 2632SOL    HW310559   3.953   2.770   4.141
 2632SOL    MW410560   4.032   2.741   4.118
 2633SOL     OW10561   4.242   2.890   4.233
 2633SOL    HW210562   4.164   2.847   4.199
 2633SOL    HW310563   4.314   2.829   4.213
 2633SOL    MW410564   4.241   2.876   4.226
 2634SOL     OW10565   4.242   3.136   4.111
 2634SOL    HW210566   4.245   3.049   4.152
 2634SOL    HW310567   4.253   3.119   4.018
 2634SOL    MW410568   4.244   3.122   4.104
 2635SOL     OW10569   3.989   3.255   4.200
 2635SOL    HW210570   4.077   3.228   4.173
 2635SOL    HW310571   3.930   3.204   4.144
 2635SOL    MW410572   3.993   3.245   4.189
 2636SOL     OW10573   4.062   3.512   4.138
 2636SOL    HW210574   4.041   3.421   4.162
 2636SOL    HW310575   4.054   3.514   4.043
 2636SOL    MW410576   4.058   3.500   4.129
 2637SOL     OW10577   4.283   3.644   4.249
 2637SOL    HW210578   4.278   3.732   4.211
 2637SOL    HW310579   4.201   3.602   4.223
 2637SOL    MW410580   4.271   3.650   4.241
 2638SOL     OW10581   4.269   3.892   4.113
 2638SOL    HW210582   4.187   3.940   4.126
 2638SOL    HW310583   4.276   3.880   4.019
 2638SOL    MW410584   4.259   3.896   4.103
 2639SOL     OW10585   4.051   4.038   4.168
 2639SOL    HW210586   4.071   4.045   4.261
 2639SOL    HW310587   3.971   3.984   4.165
 2639SOL    MW410588   4.043   4.032   4.180
 2640SOL     OW10589   4.041   4.328   4.129
 2640SOL    HW210590   4.119   4.360   4.175
 2640SOL    HW310591   4.037   4.234   4.150
 2640SOL    MW410592   4.051   4.320   4.138
 2641SOL     OW10593   4.484   4.200   4.602
 2641SOL    HW210594   4.457   4.115   4.569
 2641SOL    HW310595   4.462   4.198   4.695
 2641SOL    MW410596   4.478   4.188   4.610
 2642SOL     OW10597   4.037   4.261   4.560
 2642SOL    HW210598   4.029   4.204   4.637
 2642SOL    HW310599   3.954   4.308   4.558
 2642SOL    MW410600   4.025   4.259   4.570
 2643SOL     OW10601   4.120   4.595   4.802
 2643SOL    HW210602   4.025   4.601   4.792
 2643SOL    HW310603   4.136   4.503   4.824
 2643SOL    MW410604   4.110   4.584   4.803
 2644SOL     OW10605   3.875   0.034   4.624
 2644SOL    HW210606   3.952   0.085   4.597
 2644SOL    HW310607   3.801   0.083   4.589
 2644SOL    MW410608   3.876   0.047   4.616
 2645SOL     OW10609   3.846   1.529   4.510
 2645SOL    HW210610   3.782   1.599   4.499
 2645SOL    HW310611   3.802   1.464   4.564
 2645SOL    MW410612   3.832   1.530   4.516
 2646SOL     OW10613   0.491   0.146   4.506
 2646SOL    HW210614   0.481   0.057   4.538
 2646SOL    HW310615   0.586   0.159   4.502
 2646SOL    MW410616   0.502   0.136   4.510
 2647SOL     OW10617   0.226   0.803   4.600
 2647SOL    HW210618   0.234   0.792   4.695
 2647SOL    HW310619   0.216   0.714   4.566
 2647SOL    MW410620   0.226   0.790   4.608
 2648SOL     OW10621   4.315   0.328   4.788
 2648SOL    HW210622   4.295   0.392   4.856
 2648SOL    HW310623   4.277   0.365   4.708
 2648SOL    MW410624   4.307   0.341   4.786
 2649SOL     OW10625   0.628   1.314   4.708
 2649SOL    HW210626   0.536   1.340   4.715
 2649SOL    HW310627   0.669   1.386   4.661
 2649SOL    MW410628   0.621   1.327   4.703
 2650SOL     OW10629   1.051   1.952   4.485
 2650SOL    HW210630   1.132   1.908   4.511
 2650SOL    HW310631   1.038   2.020   4.550
 2650SOL    MW410632   1.060   1.955   4.497
 2651SOL     OW10633   4.093   1.136   4.622
 2651SOL    HW210634   4.035   1.064   4.599
 2651SOL    HW310635   4.040   1.192   4.678
 2651SOL    MW410636   4.079   1.134   4.626
 2652SOL     OW10637   4.443   1.755   4.480
 2652SOL    HW210638   4.460   1.732   4.389
 2652SOL    HW310639   4.443   1.671   4.526
 2652SOL    MW410640   4.445   1.741   4.474
 2653SOL     OW10641   0.451   1.643   4.186
 2653SOL    HW210642   0.372   1.589   4.177
 2653SOL    HW310643   0.518   1.597   4.136
 2653SOL    MW410644   0.449   1.630   4.178
 2654SOL     OW10645   4.148   1.771   4.441
 2654SOL    HW210646   4.114   1.721   4.515
 2654SOL    HW310647   4.243   1.765   4.448
 2654SOL    MW410648   4.156   1.763   4.451
 2655SOL     OW10649   4.239   2.225   4.492
 2655SOL    HW210650   4.205   2.161   4.554
 2655SOL    HW310651   4.183   2.302   4.504
 2655SOL    MW410652   4.227   2.227   4.502
 2656SOL     OW10653   0.848   2.864   4.658
 2656SOL    HW210654   0.878   2.775   4.641
 2656SOL    HW310655   0.894   2.890   4.738
 2656SOL    MW410656   0.858   2.856   4.666
 2657SOL     OW10657   0.616   2.900   4.509
 2657SOL    HW210658   0.550   2.836   4.536
 2657SOL    HW310659   0.693   2.878   4.562
 2657SOL    MW410660   0.618   2.888   4.520
 2658SOL     OW10661   0.184   2.453   4.500
 2658SOL    HW210662   0.150   2.444   4.411
 2658SOL    HW310663   0.265   2.404   4.500
 2658SOL    MW410664   0.190   2.446   4.488
 2659SOL     OW10665   3.620   3.705   4.565
 2659SOL    HW210666   3.698   3.651   4.581
 2659SOL    HW310667   3.562   3.647   4.515
 2659SOL    MW410668   3.623   3.690   4.561
 2660SOL     OW10669   0.532   3.179   4.488
 2660SOL    HW210670   0.560   3.089   4.475
 2660SOL    HW310671   0.479   3.177   4.567
 2660SOL    MW410672   0.529   3.167   4.496
 2661SOL     OW10673   4.100   4.030   4.434
 2661SOL    HW210674   4.049   3.968   4.487
 2661SOL    HW310675   4.084   4.115   4.476
 2661SOL    MW410676   4.091   4.033   4.447
 2662SOL     OW10677   4.416   4.634   4.453
 2662SOL    HW210678   4.365   4.553   4.450
 2662SOL    HW310679   4.386   4.679   4.533
 2662SOL    MW410680   4.405   4.629   4.463
 2663SOL     OW10681   3.267   0.521   4.526
 2663SOL    HW210682   3.269   0.517   4.430
 2663SOL    HW310683   3.232   0.436   4.553
 2663SOL    MW410684   3.262   0.509   4.517
 2664SOL     OW10685   4.002   4.064   4.737
 2664SOL    HW210686   4.020   3.973   4.711
 2664SOL    HW310687   3.910   4.063   4.765
 2664SOL    MW410688   3.992   4.052   4.737
 2665SOL     OW10689   3.717   4.067   4.781
 2665SOL    HW210690   3.652   4.047   4.848
 2665SOL    HW310691   3.684   4.022   4.703
 2665SOL    MW410692   3.704   4.058   4.780
 2666SOL     OW10693   0.416   4.541   4.555
 2666SOL    HW210694   0.492   4.487   4.535
 2666SOL    HW310695   0.341   4.483   4.546
 2666SOL    MW410696   0.416   4.527   4.552
 2667SOL     OW10697   4.237   0.844   4.693
 2667SOL    HW210698   4.324   0.852   4.654
 2667SOL    HW310699   4.206   0.934   4.701
 2667SOL    MW410700   4.244   0.857   4.689
 2668SOL     OW10701   1.103   0.600   4.513
 2668SOL    HW210702   1.065   0.686   4.499
 2668SOL    HW310703   1.028   0.542   4.524
 2668SOL    MW410704   1.088   0.603   4.512
 2669SOL     OW10705   0.896   0.404   4.538
 2669SOL    HW210706   0.869   0.315   4.520
 2669SOL    HW310707   0.815   0.451   4.556
 2669SOL    MW410708   0.882   0.399   4.538
 2670SOL     OW10709   0.974   0.855   4.459
 2670SOL    HW210710   0.964   0.899   4.374
 2670SOL    HW310711   0.885   0.851   4.494
 2670SOL    MW410712   0.961   0.861   4.452
 2671SOL     OW10713   0.463   0.928   4.478
 2671SOL    HW210714   0.473   0.922   4.383
 2671SOL    HW310715   0.388   0.871   4.498
 2671SOL    MW410716   0.455   0.920   4.468
 2672SOL     OW10717   2.291   1.146   4.501
 2672SOL    HW210718   2.331   1.194   4.429
 2672SOL    HW310719   2.346   1.164   4.577
 2672SOL    MW410720   2.303   1.155   4.501
 2673SOL     OW10721   0.475   1.632   4.470
 2673SOL    HW210722   0.447   1.721   4.488
 2673SOL    HW310723   0.479   1.627   4.375
 2673SOL    MW410724   0.472   1.643   4.460
 2674SOL     OW10725   1.379   1.033   4.501
 2674SOL    HW210726   1.294   1.055   4.539
 2674SOL    HW310727   1.358   0.986   4.420
 2674SOL    MW410728   1.365   1.030   4.495
 2675SOL     OW10729   0.721   1.517   4.558
 2675SOL    HW210730   0.648   1.578   4.562
 2675SOL    HW310731   0.798   1.572   4.545
 2675SOL    MW410732   0.721   1.532   4.557
 2676SOL     OW10733   0.566   2.075   4.461
 2676SOL    HW210734   0.647   2.108   4.498
 2676SOL    HW310735   0.536   2.008   4.523
 2676SOL    MW410736   0.572   2.070   4.474
 2677SOL     OW10737   0.915   1.699   4.476
 2677SOL    HW210738   1.000   1.661   4.497
 2677SOL    HW310739   0.933   1.793   4.466
 2677SOL    MW410740   0.929   1.706   4.477
 2678SOL     OW10741   0.408   2.301   4.498
 2678SOL    HW210742   0.452   2.216   4.501
 2678SOL    HW310743   0.478   2.363   4.476
 2678SOL    MW410744   0.423   2.298   4.496
 2679SOL     OW10745   1.166   2.435   4.630
 2679SOL    HW210746   1.225   2.452   4.704
 2679SOL    HW310747   1.100   2.504   4.636
 2679SOL    MW410748   1.165   2.446   4.641
 2680SOL     OW10749   0.837   2.430   4.440
 2680SOL    HW210750   0.744   2.448   4.453
 2680SOL    HW310751   0.847   2.425   4.345
 2680SOL    MW410752   0.826   2.432   4.429
 2681SOL     OW10753   1.002   3.072   4.516
 2681SOL    HW210754   1.071   3.091   4.579
 2681SOL    HW310755   0.949   3.004   4.558
 2681SOL    MW410756   1.004   3.065   4.530
 2682SOL     OW10757   1.171   3.189   4.757
 2682SOL    HW210758   1.257   3.148   4.749
 2682SOL    HW310759   1.187   3.282   4.740
 2682SOL    MW410760   1.184   3.196   4.753
 2683SOL     OW10761   1.145   4.441   4.428
 2683SOL    HW210762   1.190   4.523   4.444
 2683SOL    HW310763   1.204   4.373   4.461
 2683SOL    MW410764   1.158   4.443   4.435
 2684SOL     OW10765   0.462   2.707   4.605
 2684SOL    HW210766   0.368   2.723   4.589
 2684SOL    HW310767   0.464   2.654   4.684
 2684SOL    MW410768   0.450   2.702   4.613
 2685SOL     OW10769   0.061   3.231   4.488
 2685SOL    HW210770   0.150   3.260   4.507
 2685SOL    HW310771   0.061   3.213   4.394
 2685SOL    MW410772   0.073   3.232   4.478
 2686SOL     OW10773   1.558   3.654   4.451
 2686SOL    HW210774   1.574   3.563   4.478
 2686SOL    HW310775   1.625   3.704   4.498
 2686SOL    MW410776   1.569   3.648   4.461
 2687SOL     OW10777   4.350   3.972   4.518
 2687SOL    HW210778   4.260   3.997   4.498
 2687SOL    HW310779   4.346   3.879   4.536
 2687SOL    MW410780   4.338   3.963   4.517
 2688SOL     OW10781   0.236   3.907   4.173
 2688SOL    HW210782   0.236   3.826   4.224
 2688SOL    HW310783   0.154   3.951   4.199
 2688SOL    MW410784   0.225   3.902   4.183
 2689SOL     OW10785   0.161   4.419   4.505
 2689SOL    HW210786   0.102   4.359   4.550
 2689SOL    HW310787   0.109   4.498   4.491
 2689SOL    MW410788   0.146   4.422   4.509
 2690SOL     OW10789   0.685   0.592   4.497
 2690SOL    HW210790   0.711   0.570   4.407
 2690SOL    HW310791   0.611   0.534   4.515
 2690SOL    MW410792   0.679   0.581   4.488
 2691SOL     OW10793   0.835   3.758   4.439
 2691SOL    HW210794   0.780   3.733   4.364
 2691SOL    HW310795   0.875   3.840   4.412
 2691SOL    MW410796   0.833   3.766   4.425
 2692SOL     OW10797   0.214   0.547   4.468
 2692SOL    HW210798   0.129   0.505   4.480
 2692SOL    HW310799   0.222   0.557   4.373
 2692SOL    MW410800   0.204   0.543   4.457
 2693SOL     OW10801   1.101   1.085   4.573
 2693SOL    HW210802   1.035   1.112   4.637
 2693SOL    HW310803   1.066   1.005   4.534
 2693SOL    MW410804   1.088   1.078   4.576
 2694SOL     OW10805   1.808   0.982   4.461
 2694SOL    HW210806   1.874   1.045   4.492
 2694SOL    HW310807   1.817   0.983   4.366
 2694SOL    MW410808   1.818   0.991   4.452
 2695SOL     OW10809   0.287   1.165   4.480
 2695SOL    HW210810   0.335   1.084   4.499
 2695SOL    HW310811   0.347   1.234   4.507
 2695SOL    MW410812   0.301   1.163   4.486
 2696SOL     OW10813   1.309   1.863   4.557
 2696SOL    HW210814   1.341   1.949   4.531
 2696SOL    HW310815   1.364   1.801   4.510
 2696SOL    MW410816   1.321   1.866   4.548
 2697SOL     OW10817   0.772   1.305   4.407
 2697SOL    HW210818   0.756   1.391   4.447
 2697SOL    HW310819   0.755   1.243   4.478
 2697SOL    MW410820   0.767   1.308   4.422
 2698SOL     OW10821   2.005   1.197   4.485
 2698SOL    HW210822   2.010   1.234   4.397
 2698SOL    HW310823   2.093   1.162   4.501
 2698SOL    MW410824   2.017   1.197   4.476
 2699SOL     OW10825   1.040   1.283   4.389
 2699SOL    HW210826   1.050   1.203   4.442
 2699SOL    HW310827   0.947   1.306   4.397
 2699SOL    MW410828   1.029   1.275   4.397
 2700SOL     OW10829   1.040   2.167   4.679
 2700SOL    HW210830   1.092   2.118   4.742
 2700SOL    HW310831   1.079   2.255   4.678
 2700SOL    MW410832   1.052   2.172   4.687
 2701SOL     OW10833   1.633   2.378   4.770
 2701SOL    HW210834   1.728   2.385   4.781
 2701SOL    HW310835   1.599   2.464   4.795
 2701SOL    MW410836   1.641   2.390   4.774
 2702SOL     OW10837   1.409   3.089   4.640
 2702SOL    HW210838   1.380   3.150   4.573
 2702SOL    HW310839   1.502   3.109   4.651
 2702SOL    MW410840   1.418   3.100   4.632
 2703SOL     OW10841   1.606   3.384   4.473
 2703SOL    HW210842   1.636   3.328   4.545
 2703SOL    HW310843   1.649   3.348   4.396
 2703SOL    MW410844   1.616   3.372   4.473
 2704SOL     OW10845   0.974   2.624   4.585
 2704SOL    HW210846   1.031   2.682   4.535
 2704SOL    HW310847   0.934   2.567   4.520
 2704SOL    MW410848   0.976   2.624   4.570
 2705SOL     OW10849   0.685   4.101   4.466
 2705SOL    HW210850   0.677   4.196   4.466
 2705SOL    HW310851   0.617   4.070   4.407
 2705SOL    MW410852   0.675   4.109   4.458
 2706SOL     OW10853   1.355   2.797   4.642
 2706SOL    HW210854   1.282   2.787   4.580
 2706SOL    HW310855   1.380   2.889   4.635
 2706SOL    MW410856   1.348   2.808   4.633
 2707SOL     OW10857   1.131   2.817   4.467
 2707SOL    HW210858   1.109   2.910   4.474
 2707SOL    HW310859   1.120   2.797   4.374
 2707SOL    MW410860   1.127   2.827   4.455
 2708SOL     OW10861   2.006   3.642   4.488
 2708SOL    HW210862   2.038   3.622   4.400
 2708SOL    HW310863   2.014   3.560   4.536
 2708SOL    MW410864   2.011   3.629   4.482
 2709SOL     OW10865   0.569   3.766   4.533
 2709SOL    HW210866   0.564   3.854   4.496
 2709SOL    HW310867   0.662   3.743   4.527
 2709SOL    MW410868   0.581   3.774   4.527
 2710SOL     OW10869   0.305   3.321   4.617
 2710SOL    HW210870   0.278   3.353   4.703
 2710SOL    HW310871   0.317   3.401   4.565
 2710SOL    MW410872   0.303   3.336   4.622
 2711SOL     OW10873   0.663   4.375   4.472
 2711SOL    HW210874   0.639   4.378   4.380
 2711SOL    HW310875   0.737   4.435   4.480
 2711SOL    MW410876   0.670   4.383   4.461
 2712SOL     OW10877   0.864   4.268   4.082
 2712SOL    HW210878   0.952   4.296   4.108
 2712SOL    HW310879   0.807   4.337   4.117
 2712SOL    MW410880   0.868   4.281   4.090
 2713SOL     OW10881   2.169   3.876   4.620
 2713SOL    HW210882   2.116   3.807   4.580
 2713SOL    HW310883   2.111   3.918   4.683
 2713SOL    MW410884   2.155   3.872   4.623
 2714SOL     OW10885   1.555   4.303   4.491
 2714SOL    HW210886   1.547   4.338   4.403
 2714SOL    HW310887   1.467   4.272   4.513
 2714SOL    MW410888   1.542   4.304   4.483
 2715SOL     OW10889   1.290   4.223   4.554
 2715SOL    HW210890   1.259   4.142   4.515
 2715SOL    HW310891   1.273   4.212   4.648
 2715SOL    MW410892   1.284   4.211   4.561
 2716SOL     OW10893   0.700   0.855   4.599
 2716SOL    HW210894   0.621   0.900   4.569
 2716SOL    HW310895   0.683   0.762   4.580
 2716SOL    MW410896   0.687   0.849   4.593
 2717SOL     OW10897   1.507   4.588   4.555
 2717SOL    HW210898   1.521   4.493   4.550
 2717SOL    HW310899   1.594   4.625   4.545
 2717SOL    MW410900   1.520   4.580   4.553
 2718SOL     OW10901   1.157   0.271   4.604
 2718SOL    HW210902   1.221   0.333   4.640
 2718SOL    HW310903   1.075   0.319   4.602
 2718SOL    MW410904   1.155   0.285   4.609
 2719SOL     OW10905   1.720   1.645   4.464
 2719SOL    HW210906   1.760   1.560   4.486
 2719SOL    HW310907   1.725   1.650   4.369
 2719SOL    MW410908   1.726   1.634   4.454
 2720SOL     OW10909   0.823   1.124   4.652
 2720SOL    HW210910   0.752   1.176   4.689
 2720SOL    HW310911   0.791   1.034   4.654
 2720SOL    MW410912   0.810   1.119   4.657
 2721SOL     OW10913   1.645   0.549   4.480
 2721SOL    HW210914   1.572   0.516   4.532
 2721SOL    HW310915   1.643   0.644   4.493
 2721SOL    MW410916   1.635   0.557   4.488
 2722SOL     OW10917   1.607   1.185   4.440
 2722SOL    HW210918   1.531   1.141   4.478
 2722SOL    HW310919   1.678   1.121   4.447
 2722SOL    MW410920   1.606   1.171   4.446
 2723SOL     OW10921   1.160   1.558   4.512
 2723SOL    HW210922   1.253   1.538   4.498
 2723SOL    HW310923   1.118   1.472   4.512
 2723SOL    MW410924   1.167   1.544   4.510
 2724SOL     OW10925   1.550   2.645   4.833
 2724SOL    HW210926   1.496   2.694   4.770
 2724SOL    HW310927   1.640   2.666   4.809
 2724SOL    MW410928   1.555   2.654   4.821
 2725SOL     OW10929   2.289   2.638   4.125
 2725SOL    HW210930   2.256   2.549   4.132
 2725SOL    HW310931   2.236   2.688   4.188
 2725SOL    MW410932   2.278   2.633   4.134
 2726SOL     OW10933   0.780   2.208   4.616
 2726SOL    HW210934   0.869   2.201   4.651
 2726SOL    HW310935   0.784   2.284   4.557
 2726SOL    MW410936   0.792   2.217   4.613
 2727SOL     OW10937   1.199   3.986   4.425
 2727SOL    HW210938   1.105   3.988   4.405
 2727SOL    HW310939   1.215   3.896   4.456
 2727SOL    MW410940   1.188   3.974   4.427
 2728SOL     OW10941   1.359   2.421   4.163
 2728SOL    HW210942   1.370   2.513   4.142
 2728SOL    HW310943   1.439   2.379   4.132
 2728SOL    MW410944   1.371   2.427   4.156
 2729SOL     OW10945   1.353   2.374   4.440
 2729SOL    HW210946   1.274   2.400   4.488
 2729SOL    HW310947   1.342   2.415   4.354
 2729SOL    MW410948   1.341   2.383   4.435
 2730SOL     OW10949   1.351   3.279   4.460
 2730SOL    HW210950   1.435   3.321   4.476
 2730SOL    HW310951   1.350   3.262   4.365
 2730SOL    MW410952   1.362   3.282   4.449
 2731SOL     OW10953   0.989   3.005   4.867
 2731SOL    HW210954   0.922   3.053   4.913
 2731SOL    HW310955   1.054   3.071   4.842
 2731SOL    MW410956   0.989   3.020   4.870
 2732SOL     OW10957   0.634   3.470   4.495
 2732SOL    HW210958   0.617   3.377   4.508
 2732SOL    HW310959   0.568   3.515   4.548
 2732SOL    MW410960   0.623   3.464   4.503
 2733SOL     OW10961   2.267   3.346   4.578
 2733SOL    HW210962   2.279   3.283   4.507
 2733SOL    HW310963   2.173   3.361   4.581
 2733SOL    MW410964   2.256   3.339   4.569
 2734SOL     OW10965   1.994   3.353   4.562
 2734SOL    HW210966   2.010   3.309   4.479
 2734SOL    HW310967   1.945   3.289   4.614
 2734SOL    MW410968   1.990   3.339   4.558
 2735SOL     OW10969   2.351   3.159   4.395
 2735SOL    HW210970   2.295   3.083   4.408
 2735SOL    HW310971   2.412   3.157   4.468
 2735SOL    MW410972   2.352   3.149   4.406
 2736SOL     OW10973   1.196   3.457   4.619
 2736SOL    HW210974   1.103   3.470   4.606
 2736SOL    HW310975   1.223   3.398   4.549
 2736SOL    MW410976   1.188   3.451   4.608
 2737SOL     OW10977   1.887   3.984   4.400
 2737SOL    HW210978   1.852   3.963   4.313
 2737SOL    HW310979   1.975   4.015   4.382
 2737SOL    MW410980   1.894   3.985   4.386
 2738SOL     OW10981   1.936   0.531   4.481
 2738SOL    HW210982   1.841   0.543   4.480
 2738SOL    HW310983   1.948   0.437   4.491
 2738SOL    MW410984   1.925   0.520   4.482
 2739SOL     OW10985   0.823   0.149   4.450
 2739SOL    HW210986   0.880   0.161   4.374
 2739SOL    HW310987   0.851   0.066   4.488
 2739SOL    MW410988   0.834   0.140   4.445
 2740SOL     OW10989   1.257   0.018   4.474
 2740SOL    HW210990   1.336   0.002   4.525
 2740SOL    HW310991   1.236   0.110   4.490
 2740SOL    MW410992   1.265   0.028   4.483
 2741SOL     OW10993   2.189   4.343   4.523
 2741SOL    HW210994   2.180   4.251   4.497
 2741SOL    HW310995   2.184   4.341   4.619
 2741SOL    MW410996   2.187   4.330   4.532
 2742SOL     OW10997   2.023   0.808   4.486
 2742SOL    HW210998   1.992   0.718   4.498
 2742SOL    HW310999   1.943   0.860   4.487
 2742SOL    MW411000   2.008   0.803   4.488
 2743SOL     OW11001   1.333   0.481   4.661
 2743SOL    HW211002   1.268   0.520   4.602
 2743SOL    HW311003   1.348   0.548   4.728
 2743SOL    MW411004   1.326   0.495   4.662
 2744SOL     OW11005   2.395   1.666   4.467
 2744SOL    HW211006   2.345   1.661   4.386
 2744SOL    HW311007   2.332   1.697   4.532
 2744SOL    MW411008   2.380   1.670   4.465
 2745SOL     OW11009   0.393   1.862   4.601
 2745SOL    HW211010   0.390   1.908   4.685
 2745SOL    HW311011   0.307   1.878   4.562
 2745SOL    MW411012   0.381   1.870   4.607
 2746SOL     OW11013   1.446   1.617   4.442
 2746SOL    HW211014   1.433   1.627   4.348
 2746SOL    HW311015   1.540   1.632   4.454
 2746SOL    MW411016   1.457   1.621   4.431
 2747SOL     OW11017   1.616   2.438   4.492
 2747SOL    HW211018   1.617   2.407   4.583
 2747SOL    HW311019   1.529   2.416   4.460
 2747SOL    MW411020   1.605   2.431   4.500
 2748SOL     OW11021   1.445   2.092   4.458
 2748SOL    HW211022   1.493   2.070   4.379
 2748SOL    HW311023   1.420   2.184   4.446
 2748SOL    MW411024   1.448   2.101   4.446
 2749SOL     OW11025   2.142   2.374   4.111
 2749SOL    HW211026   2.092   2.363   4.030
 2749SOL    HW311027   2.149   2.286   4.147
 2749SOL    MW411028   2.137   2.361   4.105
 2750SOL     OW11029   1.274   2.025   4.783
 2750SOL    HW211030   1.281   1.945   4.731
 2750SOL    HW311031   1.365   2.051   4.799
 2750SOL    MW411032   1.287   2.018   4.778
 2751SOL     OW11033   2.765   2.778   4.486
 2751SOL    HW211034   2.754   2.733   4.402
 2751SOL    HW311035   2.677   2.804   4.511
 2751SOL    MW411036   2.752   2.775   4.478
 2752SOL     OW11037   1.697   3.150   4.648
 2752SOL    HW211038   1.713   3.082   4.583
 2752SOL    HW311039   1.777   3.152   4.700
 2752SOL    MW411040   1.710   3.142   4.646
 2753SOL     OW11041   1.772   3.788   4.574
 2753SOL    HW211042   1.795   3.866   4.524
 2753SOL    HW311043   1.847   3.729   4.564
 2753SOL    MW411044   1.785   3.790   4.566
 2754SOL     OW11045   2.334   3.191   4.802
 2754SOL    HW211046   2.305   3.265   4.750
 2754SOL    HW311047   2.272   3.121   4.781
 2754SOL    MW411048   2.322   3.191   4.793
 2755SOL     OW11049   2.385   2.456   4.671
 2755SOL    HW211050   2.366   2.480   4.580
 2755SOL    HW311051   2.366   2.362   4.675
 2755SOL    MW411052   2.380   2.447   4.659
 2756SOL     OW11053   2.914   3.878   4.641
 2756SOL    HW211054   2.944   3.921   4.721
 2756SOL    HW311055   2.822   3.904   4.633
 2756SOL    MW411056   2.906   3.887   4.650
 2757SOL     OW11057   2.673   3.993   4.548
 2757SOL    HW211058   2.664   3.988   4.453
 2757SOL    HW311059   2.592   3.954   4.582
 2757SOL    MW411060   2.661   3.988   4.540
 2758SOL     OW11061   2.402   3.589   4.559
 2758SOL    HW211062   2.348   3.511   4.569
 2758SOL    HW311063   2.416   3.596   4.464
 2758SOL    MW411064   2.397   3.580   4.548
 2759SOL     OW11065   2.449   3.855   4.633
 2759SOL    HW211066   2.445   3.762   4.612
 2759SOL    HW311067   2.357   3.881   4.644
 2759SOL    MW411068   2.436   3.846   4.631
 2760SOL     OW11069   1.819   4.198   4.564
 2760SOL    HW211070   1.831   4.125   4.504
 2760SOL    HW311071   1.726   4.220   4.557
 2760SOL    MW411072   1.808   4.192   4.556
 2761SOL     OW11073   1.274   3.695   4.455
 2761SOL    HW211074   1.368   3.712   4.462
 2761SOL    HW311075   1.253   3.647   4.536
 2761SOL    MW411076   1.284   3.691   4.467
 2762SOL     OW11077   1.990   0.238   4.536
 2762SOL    HW211078   1.972   0.244   4.629
 2762SOL    HW311079   2.082   0.210   4.531
 2762SOL    MW411080   2.000   0.235   4.548
 2763SOL     OW11081   1.806   0.032   4.477
 2763SOL    HW211082   1.853  -0.052   4.474
 2763SOL    HW311083   1.872   0.095   4.508
 2763SOL    MW411084   1.821   0.029   4.481
 2764SOL     OW11085   1.786   1.393   4.507
 2764SOL    HW211086   1.722   1.323   4.495
 2764SOL    HW311087   1.870   1.349   4.508
 2764SOL    MW411088   1.788   1.378   4.505
 2765SOL     OW11089   2.722   0.659   4.626
 2765SOL    HW211090   2.627   0.652   4.643
 2765SOL    HW311091   2.749   0.570   4.604
 2765SOL    MW411092   2.713   0.646   4.626
 2766SOL     OW11093   2.854   0.755   4.389
 2766SOL    HW211094   2.812   0.736   4.473
 2766SOL    HW311095   2.791   0.811   4.343
 2766SOL    MW411096   2.840   0.760   4.394
 2767SOL     OW11097   3.122   1.238   4.314
 2767SOL    HW211098   3.119   1.192   4.230
 2767SOL    HW311099   3.215   1.261   4.324
 2767SOL    MW411100   3.134   1.235   4.304
 2768SOL     OW11101   2.280   0.883   4.467
 2768SOL    HW211102   2.283   0.977   4.487
 2768SOL    HW311103   2.191   0.857   4.491
 2768SOL    MW411104   2.269   0.892   4.473
 2769SOL     OW11105   2.525   1.419   4.518
 2769SOL    HW211106   2.510   1.508   4.487
 2769SOL    HW311107   2.620   1.407   4.512
 2769SOL    MW411108   2.536   1.429   4.513
 2770SOL     OW11109   2.644   1.832   4.508
 2770SOL    HW211110   2.678   1.800   4.424
 2770SOL    HW311111   2.577   1.768   4.532
 2770SOL    MW411112   2.640   1.819   4.500
 2771SOL     OW11113   2.295   2.180   4.637
 2771SOL    HW211114   2.383   2.153   4.609
 2771SOL    HW311115   2.243   2.177   4.557
 2771SOL    MW411116   2.300   2.176   4.623
 2772SOL     OW11117   2.533   2.106   4.530
 2772SOL    HW211118   2.614   2.155   4.520
 2772SOL    HW311119   2.559   2.014   4.525
 2772SOL    MW411120   2.547   2.101   4.528
 2773SOL     OW11121   2.068   2.137   4.809
 2773SOL    HW211122   2.010   2.085   4.753
 2773SOL    HW311123   2.150   2.143   4.760
 2773SOL    MW411124   2.071   2.131   4.795
 2774SOL     OW11125   2.518   2.826   4.610
 2774SOL    HW211126   2.449   2.822   4.543
 2774SOL    HW311127   2.482   2.779   4.685
 2774SOL    MW411128   2.504   2.819   4.611
 2775SOL     OW11129   1.575   2.730   4.489
 2775SOL    HW211130   1.495   2.741   4.542
 2775SOL    HW311131   1.587   2.635   4.483
 2775SOL    MW411132   1.566   2.719   4.495
 2776SOL     OW11133   2.137   2.983   4.732
 2776SOL    HW211134   2.165   2.897   4.762
 2776SOL    HW311135   2.138   2.976   4.636
 2776SOL    MW411136   2.141   2.971   4.723
 2777SOL     OW11137   2.669   3.500   4.588
 2777SOL    HW211138   2.666   3.452   4.671
 2777SOL    HW311139   2.578   3.525   4.572
 2777SOL    MW411140   2.656   3.497   4.597
 2778SOL     OW11141   2.522   3.111   4.605
 2778SOL    HW211142   2.523   3.016   4.615
 2778SOL    HW311143   2.467   3.142   4.677
 2778SOL    MW411144   2.515   3.103   4.616
 2779SOL     OW11145   0.927   3.997   4.340
 2779SOL    HW211146   0.900   4.011   4.250
 2779SOL    HW311147   0.854   4.028   4.393
 2779SOL    MW411148   0.914   4.003   4.335
 2780SOL     OW11149   3.096   4.016   4.496
 2780SOL    HW211150   3.024   3.958   4.521
 2780SOL    HW311151   3.173   3.978   4.538
 2780SOL    MW411152   3.097   4.003   4.505
 2781SOL     OW11153   1.928   3.161   4.805
 2781SOL    HW211154   1.928   3.175   4.900
 2781SOL    HW311155   1.993   3.092   4.791
 2781SOL    MW411156   1.937   3.154   4.816
 2782SOL     OW11157   3.331   3.971   4.634
 2782SOL    HW211158   3.338   4.034   4.706
 2782SOL    HW311159   3.343   3.886   4.675
 2782SOL    MW411160   3.333   3.968   4.649
 2783SOL     OW11161   2.980   0.025   4.493
 2783SOL    HW211162   2.888   0.048   4.503
 2783SOL    HW311163   2.987  -0.065   4.526
 2783SOL    MW411164   2.969   0.016   4.499
 2784SOL     OW11165   2.135   4.082   4.449
 2784SOL    HW211166   2.165   4.011   4.506
 2784SOL    HW311167   2.178   4.065   4.365
 2784SOL    MW411168   2.145   4.071   4.446
 2785SOL     OW11169   2.438   4.439   4.434
 2785SOL    HW211170   2.352   4.413   4.467
 2785SOL    HW311171   2.431   4.430   4.339
 2785SOL    MW411172   2.426   4.434   4.426
 2786SOL     OW11173   2.837   0.506   4.278
 2786SOL    HW211174   2.835   0.597   4.304
 2786SOL    HW311175   2.919   0.497   4.228
 2786SOL    MW411176   2.848   0.516   4.275
 2787SOL     OW11177   2.918   4.393   4.488
 2787SOL    HW211178   2.987   4.342   4.530
 2787SOL    HW311179   2.837   4.354   4.519
 2787SOL    MW411180   2.917   4.381   4.498
 2788SOL     OW11181   2.668   4.312   4.550
 2788SOL    HW211182   2.589   4.327   4.498
 2788SOL    HW311183   2.671   4.217   4.563
 2788SOL    MW411184   2.658   4.302   4.545
 2789SOL     OW11185   2.786   1.109   4.499
 2789SOL    HW211186   2.874   1.071   4.504
 2789SOL    HW311187   2.727   1.035   4.508
 2789SOL    MW411188   2.790   1.094   4.501
 2790SOL     OW11189   2.695   0.131   4.503
 2790SOL    HW211190   2.627   0.071   4.535
 2790SOL    HW311191   2.671   0.149   4.412
 2790SOL    MW411192   2.683   0.126   4.495
 2791SOL     OW11193   1.592   0.814   4.496
 2791SOL    HW211194   1.522   0.879   4.494
 2791SOL    HW311195   1.671   0.863   4.515
 2791SOL    MW411196   1.593   0.829   4.498
 2792SOL     OW11197   2.609   0.918   4.544
 2792SOL    HW211198   2.635   0.839   4.591
 2792SOL    HW311199   2.525   0.895   4.504
 2792SOL    MW411200   2.601   0.905   4.545
 2793SOL     OW11201   3.062   1.425   4.516
 2793SOL    HW211202   2.967   1.418   4.500
 2793SOL    HW311203   3.102   1.386   4.438
 2793SOL    MW411204   3.054   1.419   4.504
 2794SOL     OW11205   3.151   1.698   4.491
 2794SOL    HW211206   3.091   1.756   4.537
 2794SOL    HW311207   3.117   1.610   4.508
 2794SOL    MW411208   3.139   1.694   4.499
 2795SOL     OW11209   2.980   1.873   4.637
 2795SOL    HW211210   2.997   1.963   4.609
 2795SOL    HW311211   2.888   1.858   4.616
 2795SOL    MW411212   2.970   1.883   4.631
 2796SOL     OW11213   2.741   2.402   4.242
 2796SOL    HW211214   2.760   2.495   4.240
 2796SOL    HW311215   2.656   2.394   4.199
 2796SOL    MW411216   2.733   2.413   4.236
 2797SOL     OW11217   2.676   2.531   4.663
 2797SOL    HW211218   2.678   2.617   4.620
 2797SOL    HW311219   2.583   2.515   4.678
 2797SOL    MW411220   2.664   2.540   4.659
 2798SOL     OW11221   3.005   2.112   4.490
 2798SOL    HW211222   2.977   2.076   4.406
 2798SOL    HW311223   2.944   2.184   4.507
 2798SOL    MW411224   2.993   2.117   4.481
 2799SOL     OW11225   2.285   2.732   4.735
 2799SOL    HW211226   2.306   2.639   4.741
 2799SOL    HW311227   2.263   2.746   4.643
 2799SOL    MW411228   2.285   2.722   4.724
 2800SOL     OW11229   3.503   3.990   4.931
 2800SOL    HW211230   3.425   4.045   4.925
 2800SOL    HW311231   3.470   3.900   4.924
 2800SOL    MW411232   3.488   3.985   4.929
 2801SOL     OW11233   2.926   2.876   4.208
 2801SOL    HW211234   2.945   2.957   4.160
 2801SOL    HW311235   2.943   2.899   4.299
 2801SOL    MW411236   2.931   2.890   4.214
 2802SOL     OW11237   2.680   3.332   4.816
 2802SOL    HW211238   2.592   3.300   4.837
 2802SOL    HW311239   2.733   3.253   4.810
 2802SOL    MW411240   2.675   3.317   4.818
 2803SOL     OW11241   3.000   2.900   4.499
 2803SOL    HW211242   3.068   2.835   4.513
 2803SOL    HW311243   2.919   2.850   4.499
 2803SOL    MW411244   2.999   2.885   4.501
 2804SOL     OW11245   2.266   0.199   4.471
 2804SOL    HW211246   2.333   0.267   4.467
 2804SOL    HW311247   2.263   0.163   4.382
 2804SOL    MW411248   2.274   0.203   4.459
 2805SOL     OW11249   3.335   4.196   4.805
 2805SOL    HW211250   3.250   4.231   4.777
 2805SOL    HW311251   3.399   4.260   4.775
 2805SOL    MW411252   3.332   4.209   4.798
 2806SOL     OW11253   3.879   3.584   4.519
 2806SOL    HW211254   3.878   3.619   4.429
 2806SOL    HW311255   3.865   3.490   4.508
 2806SOL    MW411256   3.877   3.577   4.505
 2807SOL     OW11257   2.890   3.633   4.479
 2807SOL    HW211258   2.829   3.571   4.518
 2807SOL    HW311259   2.887   3.710   4.536
 2807SOL    MW411260   2.882   3.635   4.491
 2808SOL     OW11261   3.139   4.269   4.624
 2808SOL    HW211262   3.150   4.184   4.582
 2808SOL    HW311263   3.202   4.326   4.580
 2808SOL    MW411264   3.149   4.265   4.612
 2809SOL     OW11265   2.728   0.408   4.519
 2809SOL    HW211266   2.745   0.313   4.517
 2809SOL    HW311267   2.778   0.442   4.445
 2809SOL    MW411268   2.737   0.400   4.509
 2810SOL     OW11269   3.045   1.025   4.495
 2810SOL    HW211270   3.064   0.933   4.477
 2810SOL    HW311271   3.071   1.072   4.415
 2810SOL    MW411272   3.051   1.019   4.482
 2811SOL     OW11273   2.433   0.682   4.622
 2811SOL    HW211274   2.367   0.744   4.591
 2811SOL    HW311275   2.407   0.598   4.583
 2811SOL    MW411276   2.421   0.679   4.613
 2812SOL     OW11277   2.507   1.174   4.697
 2812SOL    HW211278   2.561   1.101   4.666
 2812SOL    HW311279   2.535   1.249   4.645
 2812SOL    MW411280   2.518   1.174   4.686
 2813SOL     OW11281   1.945   3.990   4.755
 2813SOL    HW211282   1.910   4.066   4.709
 2813SOL    HW311283   1.879   3.921   4.742
 2813SOL    MW411284   1.932   3.991   4.748
 2814SOL     OW11285   2.459   0.014   4.588
 2814SOL    HW211286   2.449  -0.067   4.539
 2814SOL    HW311287   2.375   0.059   4.579
 2814SOL    MW411288   2.446   0.009   4.581
 2815SOL     OW11289   3.196   1.313   4.732
 2815SOL    HW211290   3.167   1.361   4.810
 2815SOL    HW311291   3.133   1.337   4.664
 2815SOL    MW411292   3.184   1.323   4.733
 2816SOL     OW11293   2.788   1.384   4.459
 2816SOL    HW211294   2.794   1.291   4.481
 2816SOL    HW311295   2.809   1.387   4.365
 2816SOL    MW411296   2.791   1.372   4.449
 2817SOL     OW11297   3.975   0.909   4.474
 2817SOL    HW211298   4.033   0.925   4.399
 2817SOL    HW311299   3.992   0.819   4.499
 2817SOL    MW411300   3.985   0.899   4.467
 2818SOL     OW11301   3.395   1.721   4.594
 2818SOL    HW211302   3.396   1.807   4.634
 2818SOL    HW311303   3.307   1.713   4.556
 2818SOL    MW411304   3.384   1.731   4.594
 2819SOL     OW11305   3.410   1.996   4.697
 2819SOL    HW211306   3.351   2.004   4.772
 2819SOL    HW311307   3.371   2.052   4.630
 2819SOL    MW411308   3.397   2.004   4.698
 2820SOL     OW11309   3.283   2.177   4.505
 2820SOL    HW211310   3.189   2.159   4.503
 2820SOL    HW311311   3.317   2.136   4.426
 2820SOL    MW411312   3.275   2.169   4.494
 2821SOL     OW11313   3.639   1.731   4.468
 2821SOL    HW211314   3.634   1.700   4.378
 2821SOL    HW311315   3.555   1.706   4.507
 2821SOL    MW411316   3.627   1.723   4.461
 2822SOL     OW11317   2.955   2.603   4.755
 2822SOL    HW211318   2.866   2.595   4.721
 2822SOL    HW311319   2.944   2.625   4.847
 2822SOL    MW411320   2.942   2.605   4.763
 2823SOL     OW11321   3.272   2.466   4.455
 2823SOL    HW211322   3.274   2.381   4.498
 2823SOL    HW311323   3.245   2.447   4.365
 2823SOL    MW411324   3.269   2.453   4.448
 2824SOL     OW11325   2.785   2.289   4.521
 2824SOL    HW211326   2.784   2.339   4.439
 2824SOL    HW311327   2.781   2.356   4.590
 2824SOL    MW411328   2.785   2.305   4.519
 2825SOL     OW11329   3.358   2.835   4.237
 2825SOL    HW211330   3.427   2.789   4.189
 2825SOL    HW311331   3.348   2.918   4.191
 2825SOL    MW411332   3.366   2.840   4.224
 2826SOL     OW11333   3.420   3.535   4.464
 2826SOL    HW211334   3.335   3.564   4.498
 2826SOL    HW311335   3.429   3.445   4.494
 2826SOL    MW411336   3.410   3.527   4.472
 2827SOL     OW11337   3.415   3.261   4.526
 2827SOL    HW211338   3.383   3.213   4.450
 2827SOL    HW311339   3.510   3.252   4.522
 2827SOL    MW411340   3.424   3.254   4.516
 2828SOL     OW11341   3.703   2.897   4.435
 2828SOL    HW211342   3.618   2.869   4.469
 2828SOL    HW311343   3.702   2.992   4.441
 2828SOL    MW411344   3.692   2.906   4.441
 2829SOL     OW11345   3.676   3.169   4.462
 2829SOL    HW211346   3.753   3.224   4.467
 2829SOL    HW311347   3.645   3.179   4.372
 2829SOL    MW411348   3.682   3.177   4.451
 2830SOL     OW11349   3.598   4.304   4.671
 2830SOL    HW211350   3.674   4.348   4.633
 2830SOL    HW311351   3.629   4.215   4.691
 2830SOL    MW411352   3.612   4.298   4.669
 2831SOL     OW11353   3.176   0.237   4.576
 2831SOL    HW211354   3.091   0.198   4.596
 2831SOL    HW311355   3.185   0.227   4.482
 2831SOL    MW411356   3.166   0.231   4.566
 2832SOL     OW11357   3.799   0.491   4.495
 2832SOL    HW211358   3.723   0.545   4.516
 2832SOL    HW311359   3.874   0.547   4.515
 2832SOL    MW411360   3.799   0.506   4.500
 2833SOL     OW11361   3.377   4.435   4.566
 2833SOL    HW211362   3.456   4.386   4.591
 2833SOL    HW311363   3.390   4.522   4.602
 2833SOL    MW411364   3.389   4.440   4.574
 2834SOL     OW11365   3.590   3.978   4.547
 2834SOL    HW211366   3.612   3.885   4.550
 2834SOL    HW311367   3.500   3.983   4.577
 2834SOL    MW411368   3.581   3.966   4.551
 2835SOL     OW11369   3.393   0.051   4.575
 2835SOL    HW211370   3.318   0.110   4.583
 2835SOL    HW311371   3.469   0.108   4.581
 2835SOL    MW411372   3.393   0.066   4.577
 2836SOL     OW11373   3.483   0.900   4.472
 2836SOL    HW211374   3.415   0.949   4.520
 2836SOL    HW311375   3.489   0.817   4.518
 2836SOL    MW411376   3.475   0.896   4.485
 2837SOL     OW11377   1.947   4.434   4.451
 2837SOL    HW211378   2.035   4.417   4.484
 2837SOL    HW311379   1.896   4.359   4.482
 2837SOL    MW411380   1.952   4.421   4.459
 2838SOL     OW11381   4.317   1.537   4.646
 2838SOL    HW211382   4.284   1.465   4.593
 2838SOL    HW311383   4.239   1.580   4.679
 2838SOL    MW411384   4.303   1.533   4.643
 2839SOL     OW11385   3.731   1.032   4.520
 2839SOL    HW211386   3.663   0.965   4.512
 2839SOL    HW311387   3.813   0.986   4.503
 2839SOL    MW411388   3.733   1.017   4.517
 2840SOL     OW11389   4.466   0.907   4.516
 2840SOL    HW211390   4.465   0.914   4.420
 2840SOL    HW311391   4.555   0.880   4.537
 2840SOL    MW411392   4.477   0.904   4.506
 2841SOL     OW11393   4.197   0.437   4.479
 2841SOL    HW211394   4.211   0.440   4.384
 2841SOL    HW311395   4.149   0.356   4.494
 2841SOL    MW411396   4.193   0.427   4.469
 2842SOL     OW11397   3.576   1.659   4.204
 2842SOL    HW211398   3.651   1.636   4.150
 2842SOL    HW311399   3.504   1.606   4.169
 2842SOL    MW411400   3.576   1.649   4.192
 2843SOL     OW11401   4.023   1.705   4.184
 2843SOL    HW211402   4.103   1.652   4.177
 2843SOL    HW311403   4.012   1.718   4.278
 2843SOL    MW411404   4.032   1.699   4.196
 2844SOL     OW11405   3.801   2.395   4.491
 2844SOL    HW211406   3.727   2.455   4.508
 2844SOL    HW311407   3.770   2.310   4.522
 2844SOL    MW411408   3.787   2.392   4.497
 2845SOL     OW11409   3.679   1.920   4.662
 2845SOL    HW211410   3.593   1.951   4.691
 2845SOL    HW311411   3.659   1.851   4.598
 2845SOL    MW411412   3.665   1.915   4.657
 2846SOL     OW11413   0.226   2.013   4.224
 2846SOL    HW211414   0.295   1.960   4.183
 2846SOL    HW311415   0.213   1.972   4.310
 2846SOL    MW411416   0.233   2.000   4.230
 2847SOL     OW11417   3.814   2.089   4.505
 2847SOL    HW211418   3.906   2.067   4.523
 2847SOL    HW311419   3.765   2.019   4.548
 2847SOL    MW411420   3.820   2.077   4.513
 2848SOL     OW11421   4.066   2.749   4.501
 2848SOL    HW211422   3.983   2.798   4.507
 2848SOL    HW311423   4.133   2.817   4.501
 2848SOL    MW411424   4.064   2.765   4.502
 2849SOL     OW11425   4.067   2.455   4.473
 2849SOL    HW211426   3.982   2.421   4.502
 2849SOL    HW311427   4.071   2.543   4.510
 2849SOL    MW411428   4.056   2.462   4.482
 2850SOL     OW11429   4.207   2.994   4.496
 2850SOL    HW211430   4.214   2.959   4.407
 2850SOL    HW311431   4.295   2.987   4.532
 2850SOL    MW411432   4.220   2.988   4.489
 2851SOL     OW11433   3.192   3.325   4.692
 2851SOL    HW211434   3.124   3.266   4.659
 2851SOL    HW311435   3.269   3.305   4.637
 2851SOL    MW411436   3.193   3.314   4.680
 2852SOL     OW11437   3.425   3.721   4.765
 2852SOL    HW211438   3.376   3.641   4.782
 2852SOL    HW311439   3.493   3.695   4.703
 2852SOL    MW411440   3.428   3.707   4.759
 2853SOL     OW11441   3.153   3.579   4.588
 2853SOL    HW211442   3.062   3.597   4.567
 2853SOL    HW311443   3.154   3.487   4.616
 2853SOL    MW411444   3.141   3.569   4.589
 2854SOL     OW11445   4.376   3.410   4.643
 2854SOL    HW211446   4.305   3.354   4.612
 2854SOL    HW311447   4.456   3.366   4.615
 2854SOL    MW411448   4.377   3.397   4.635
 2855SOL     OW11449   0.174   2.738   4.534
 2855SOL    HW211450   0.169   2.642   4.536
 2855SOL    HW311451   0.168   2.760   4.441
 2855SOL    MW411452   0.172   2.728   4.522
 2856SOL     OW11453   4.041   3.817   4.605
 2856SOL    HW211454   3.974   3.749   4.605
 2856SOL    HW311455   4.123   3.769   4.593
 2856SOL    MW411456   4.043   3.801   4.604
 2857SOL     OW11457   3.824   4.433   4.533
 2857SOL    HW211458   3.785   4.440   4.446
 2857SOL    HW311459   3.842   4.524   4.558
 2857SOL    MW411460   3.822   4.446   4.525
 2858SOL     OW11461   3.655   0.220   4.532
 2858SOL    HW211462   3.696   0.306   4.531
 2858SOL    HW311463   3.624   0.208   4.442
 2858SOL    MW411464   3.656   0.230   4.520
 2859SOL     OW11465   3.709   1.298   4.586
 2859SOL    HW211466   3.619   1.331   4.590
 2859SOL    HW311467   3.700   1.205   4.566
 2859SOL    MW411468   3.696   1.290   4.584
 2860SOL     OW11469   3.131   0.769   4.460
 2860SOL    HW211470   3.038   0.749   4.448
 2860SOL    HW311471   3.169   0.689   4.495
 2860SOL    MW411472   3.123   0.756   4.463
 2861SOL     OW11473   4.307   0.085   4.670
 2861SOL    HW211474   4.328   0.163   4.722
 2861SOL    HW311475   4.244   0.037   4.723
 2861SOL    MW411476   4.301   0.089   4.684
 2862SOL     OW11477   0.456   0.448   4.542
 2862SOL    HW211478   0.437   0.355   4.556
 2862SOL    HW311479   0.373   0.484   4.511
 2862SOL    MW411480   0.442   0.440   4.540
 2863SOL     OW11481   4.089   0.173   4.512
 2863SOL    HW211482   4.161   0.123   4.552
 2863SOL    HW311483   4.087   0.142   4.421
 2863SOL    MW411484   4.098   0.162   4.505
 2864SOL     OW11485   3.414   1.424   4.590
 2864SOL    HW211486   3.409   1.519   4.602
 2864SOL    HW311487   3.341   1.389   4.641
 2864SOL    MW411488   3.404   1.432   4.598
 2865SOL     OW11489   0.002   1.186   4.558
 2865SOL    HW211490   0.089   1.177   4.520
 2865SOL    HW311491  -0.034   1.097   4.558
 2865SOL    MW411492   0.009   1.173   4.553
 2866SOL     OW11493   4.248   1.308   4.471
 2866SOL    HW211494   4.190   1.261   4.531
 2866SOL    HW311495   4.335   1.272   4.489
 2866SOL    MW411496   4.252   1.297   4.482
 2867SOL     OW11497   3.933   1.868   4.787
 2867SOL    HW211498   3.843   1.882   4.758
 2867SOL    HW311499   3.927   1.859   4.882
 2867SOL    MW411500   3.920   1.869   4.796
 2868SOL     OW11501   3.167   2.690   4.597
 2868SOL    HW211502   3.196   2.611   4.551
 2868SOL    HW311503   3.095   2.659   4.654
 2868SOL    MW411504   3.161   2.675   4.599
 2869SOL     OW11505   4.286   2.078   4.246
 2869SOL    HW211506   4.197   2.062   4.216
 2869SOL    HW311507   4.276   2.126   4.328
 2869SOL    MW411508   4.273   2.082   4.253
 2870SOL     OW11509   0.051   2.179   4.580
 2870SOL    HW211510  -0.040   2.196   4.558
 2870SOL    HW311511   0.098   2.258   4.553
 2870SOL    MW411512   0.046   2.192   4.574
 2871SOL     OW11513   4.070   1.989   4.573
 2871SOL    HW211514   4.100   1.916   4.519
 2871SOL    HW311515   4.045   1.949   4.656
 2871SOL    MW411516   4.070   1.974   4.577
 2872SOL     OW11517   3.560   2.525   4.487
 2872SOL    HW211518   3.562   2.620   4.499
 2872SOL    HW311519   3.468   2.504   4.474
 2872SOL    MW411520   3.548   2.535   4.487
 2873SOL     OW11521   0.569   2.517   4.437
 2873SOL    HW211522   0.525   2.589   4.484
 2873SOL    HW311523   0.518   2.507   4.357
 2873SOL    MW411524   0.557   2.525   4.433
 2874SOL     OW11525   4.114   3.230   4.616
 2874SOL    HW211526   4.129   3.140   4.586
 2874SOL    HW311527   4.132   3.227   4.710
 2874SOL    MW411528   4.119   3.218   4.625
 2875SOL     OW11529   4.462   2.966   4.589
 2875SOL    HW211530   4.525   2.900   4.561
 2875SOL    HW311531   4.502   3.049   4.563
 2875SOL    MW411532   4.475   2.968   4.582
 2876SOL     OW11533   0.351   3.591   4.533
 2876SOL    HW211534   0.415   3.660   4.549
 2876SOL    HW311535   0.327   3.602   4.441
 2876SOL    MW411536   0.356   3.602   4.523
 2877SOL     OW11537   4.050   0.652   4.564
 2877SOL    HW211538   4.102   0.580   4.529
 2877SOL    HW311539   4.110   0.699   4.622
 2877SOL    MW411540   4.065   0.649   4.567
 2878SOL     OW11541   4.274   4.369   4.504
 2878SOL    HW211542   4.188   4.337   4.531
 2878SOL    HW311543   4.336   4.307   4.542
 2878SOL    MW411544   4.271   4.357   4.513
 2879SOL     OW11545   3.896   3.305   4.468
 2879SOL    HW211546   3.973   3.285   4.521
 2879SOL    HW311547   3.922   3.284   4.378
 2879SOL    MW411548   3.909   3.300   4.463
 2880SOL     OW11549   2.433   0.435   4.483
 2880SOL    HW211550   2.523   0.431   4.514
 2880SOL    HW311551   2.441   0.444   4.388
 2880SOL    MW411552   2.446   0.436   4.474
 2881SOL     OW11553   4.288   4.398   4.225
 2881SOL    HW211554   4.366   4.354   4.190
 2881SOL    HW311555   4.290   4.378   4.319
 2881SOL    MW411556   4.299   4.390   4.233
 2882NA      NA11557   2.646   4.244   0.674
 2883NA      NA11558   0.945   1.767   0.412
   4.49070   4.66690  10.00000
