Gromacs Runs On Most of All Computer Systems in water t= 780.00000 step= 780000
11558
    1RG35     P    1   2.168   2.839   4.462
    1RG35   O1P    2   2.149   2.747   4.352
    1RG35   O2P    3   2.113   2.974   4.436
    1RG35   O5'    4   2.077   2.781   4.574
    1RG35   C5'    5   1.937   2.783   4.554
    1RG35  H5'1    6   1.911   2.778   4.448
    1RG35  H5'2    7   1.902   2.874   4.603
    1RG35   C4'    8   1.877   2.660   4.623
    1RG35   H4'    9   1.770   2.677   4.629
    1RG35   O4'   10   1.895   2.545   4.539
    1RG35   C1'   11   1.947   2.438   4.615
    1RG35   H1'   12   1.861   2.392   4.662
    1RG35    N9   13   2.008   2.344   4.524
    1RG35    C8   14   2.093   2.366   4.417
    1RG35    H8   15   2.120   2.467   4.391
    1RG35    N7   16   2.109   2.262   4.335
    1RG35    C5   17   2.033   2.160   4.396
    1RG35    C6   18   2.013   2.028   4.365
    1RG35    O6   19   2.047   1.963   4.263
    1RG35    N1   20   1.945   1.955   4.455
    1RG35    H1   21   1.928   1.860   4.424
    1RG35    C2   22   1.872   2.008   4.552
    1RG35    N2   23   1.773   1.933   4.601
    1RG35   H21   24   1.760   1.836   4.576
    1RG35   H22   25   1.712   1.976   4.669
    1RG35    N3   26   1.878   2.140   4.588
    1RG35    C4   27   1.966   2.213   4.508
    1RG35   C3'   28   1.934   2.625   4.761
    1RG35   H3'   29   1.983   2.718   4.790
    1RG35   C2'   30   2.031   2.511   4.720
    1RG35  H2'1   31   2.123   2.550   4.676
    1RG35   O2'   32   2.070   2.444   4.838
    1RG35  HO'2   33   2.154   2.483   4.862
    1RG35   O3'   34   1.827   2.574   4.850
    1RG35   H3T   35   1.869   2.527   4.922
    1RG35   O3P   36   2.302   2.844   4.519
    2SOL     OW   37   0.416   0.101   0.416
    2SOL    HW2   38   0.430   0.011   0.388
    2SOL    HW3   39   0.496   0.147   0.389
    2SOL    MW4   40   0.429   0.095   0.409
    3SOL     OW   41   3.627   0.405   0.161
    3SOL    HW2   42   3.633   0.418   0.066
    3SOL    HW3   43   3.670   0.482   0.198
    3SOL    MW4   44   3.633   0.417   0.153
    4SOL     OW   45   3.721   0.239   0.376
    4SOL    HW2   46   3.704   0.278   0.290
    4SOL    HW3   47   3.695   0.307   0.438
    4SOL    MW4   48   3.716   0.253   0.373
    5SOL     OW   49   0.485   1.712   0.412
    5SOL    HW2   50   0.568   1.672   0.388
    5SOL    HW3   51   0.421   1.641   0.401
    5SOL    MW4   52   0.487   1.697   0.407
    6SOL     OW   53   1.475   0.798   0.446
    6SOL    HW2   54   1.428   0.798   0.530
    6SOL    HW3   55   1.567   0.811   0.470
    6SOL    MW4   56   1.481   0.800   0.460
    7SOL     OW   57   0.261   0.539   0.485
    7SOL    HW2   58   0.232   0.525   0.576
    7SOL    HW3   59   0.249   0.454   0.443
    7SOL    MW4   60   0.255   0.525   0.492
    8SOL     OW   61   0.561   0.932   0.462
    8SOL    HW2   62   0.520   0.941   0.548
    8SOL    HW3   63   0.532   0.846   0.431
    8SOL    MW4   64   0.552   0.921   0.470
    9SOL     OW   65   0.862   0.865   0.405
    9SOL    HW2   66   0.874   0.859   0.500
    9SOL    HW3   67   0.769   0.880   0.394
    9SOL    MW4   68   0.852   0.866   0.416
   10SOL     OW   69   0.509   1.187   0.321
   10SOL    HW2   70   0.452   1.158   0.250
   10SOL    HW3   71   0.536   1.106   0.365
   10SOL    MW4   72   0.505   1.173   0.318
   11SOL     OW   73   4.289   1.418   0.441
   11SOL    HW2   74   4.221   1.485   0.436
   11SOL    HW3   75   4.270   1.371   0.522
   11SOL    MW4   76   4.278   1.421   0.451
   12SOL     OW   77   4.023   2.305   0.548
   12SOL    HW2   78   3.930   2.300   0.567
   12SOL    HW3   79   4.039   2.398   0.531
   12SOL    MW4   80   4.013   2.317   0.548
   13SOL     OW   81   0.030   1.612   0.452
   13SOL    HW2   82   0.039   1.631   0.545
   13SOL    HW3   83  -0.036   1.542   0.448
   13SOL    MW4   84   0.022   1.605   0.464
   14SOL     OW   85   0.684   2.292   0.476
   14SOL    HW2   86   0.659   2.279   0.567
   14SOL    HW3   87   0.769   2.335   0.479
   14SOL    MW4   88   0.692   2.296   0.488
   15SOL     OW   89   0.184   2.719   0.445
   15SOL    HW2   90   0.184   2.814   0.429
   15SOL    HW3   91   0.267   2.689   0.406
   15SOL    MW4   92   0.195   2.728   0.437
   16SOL     OW   93   4.193   3.421   0.451
   16SOL    HW2   94   4.227   3.346   0.403
   16SOL    HW3   95   4.165   3.385   0.535
   16SOL    MW4   96   4.194   3.407   0.456
   17SOL     OW   97   0.232   2.987   0.376
   17SOL    HW2   98   0.315   3.033   0.386
   17SOL    HW3   99   0.165   3.056   0.381
   17SOL    MW4  100   0.234   3.002   0.378
   18SOL     OW  101   0.620   3.276   0.289
   18SOL    HW2  102   0.678   3.340   0.331
   18SOL    HW3  103   0.551   3.329   0.248
   18SOL    MW4  104   0.619   3.291   0.289
   19SOL     OW  105   0.610   3.725   0.320
   19SOL    HW2  106   0.697   3.756   0.346
   19SOL    HW3  107   0.551   3.795   0.346
   19SOL    MW4  108   0.614   3.739   0.327
   20SOL     OW  109   4.199   3.861   0.453
   20SOL    HW2  110   4.250   3.941   0.436
   20SOL    HW3  111   4.261   3.790   0.439
   20SOL    MW4  112   4.214   3.862   0.449
   21SOL     OW  113   0.149   3.687   0.128
   21SOL    HW2  114   0.176   3.739   0.203
   21SOL    HW3  115   0.130   3.752   0.060
   21SOL    MW4  116   0.150   3.703   0.129
   22SOL     OW  117   4.490   4.530   0.380
   22SOL    HW2  118   4.424   4.550   0.313
   22SOL    HW3  119   4.444   4.473   0.442
   22SOL    MW4  120   4.475   4.525   0.379
   23SOL     OW  121   4.051   4.183   0.285
   23SOL    HW2  122   3.960   4.153   0.285
   23SOL    HW3  123   4.044   4.278   0.296
   23SOL    MW4  124   4.038   4.192   0.286
   24SOL     OW  125   4.231   4.597   0.198
   24SOL    HW2  126   4.188   4.531   0.253
   24SOL    HW3  127   4.207   4.574   0.109
   24SOL    MW4  128   4.222   4.585   0.193
   25SOL     OW  129   0.488   3.116   0.475
   25SOL    HW2  130   0.479   3.144   0.567
   25SOL    HW3  131   0.527   3.191   0.431
   25SOL    MW4  132   0.492   3.130   0.482
   26SOL     OW  133   0.430   4.460   0.347
   26SOL    HW2  134   0.360   4.407   0.385
   26SOL    HW3  135   0.425   4.441   0.253
   26SOL    MW4  136   0.420   4.450   0.340
   27SOL     OW  137   0.221   0.288   0.399
   27SOL    HW2  138   0.143   0.232   0.400
   27SOL    HW3  139   0.294   0.227   0.408
   27SOL    MW4  140   0.220   0.272   0.400
   28SOL     OW  141   4.434   0.565   0.454
   28SOL    HW2  142   4.522   0.532   0.474
   28SOL    HW3  143   4.439   0.659   0.468
   28SOL    MW4  144   4.446   0.573   0.458
   29SOL     OW  145   0.846   4.514   0.415
   29SOL    HW2  146   0.925   4.468   0.443
   29SOL    HW3  147   0.778   4.446   0.413
   29SOL    MW4  148   0.847   4.499   0.419
   30SOL     OW  149   1.222   1.201   0.466
   30SOL    HW2  150   1.130   1.180   0.453
   30SOL    HW3  151   1.243   1.261   0.395
   30SOL    MW4  152   1.213   1.206   0.455
   31SOL     OW  153   0.718   0.479   0.452
   31SOL    HW2  154   0.791   0.525   0.410
   31SOL    HW3  155   0.707   0.399   0.401
   31SOL    MW4  156   0.726   0.474   0.440
   32SOL     OW  157   0.264   1.190   0.452
   32SOL    HW2  158   0.355   1.189   0.422
   32SOL    HW3  159   0.236   1.098   0.447
   32SOL    MW4  160   0.272   1.178   0.447
   33SOL     OW  161   0.057   2.088   0.436
   33SOL    HW2  162   0.013   2.160   0.392
   33SOL    HW3  163   0.026   2.010   0.390
   33SOL    MW4  164   0.047   2.087   0.424
   34SOL     OW  165   0.532   1.992   0.429
   34SOL    HW2  166   0.450   2.033   0.400
   34SOL    HW3  167   0.520   1.899   0.412
   34SOL    MW4  168   0.520   1.985   0.423
   35SOL     OW  169   0.995   2.655   0.266
   35SOL    HW2  170   0.925   2.715   0.294
   35SOL    HW3  171   0.983   2.648   0.171
   35SOL    MW4  172   0.984   2.662   0.257
   36SOL     OW  173   0.854   3.081   0.295
   36SOL    HW2  174   0.768   3.124   0.292
   36SOL    HW3  175   0.915   3.146   0.261
   36SOL    MW4  176   0.850   3.095   0.290
   37SOL     OW  177   3.867   2.185   0.205
   37SOL    HW2  178   3.958   2.184   0.233
   37SOL    HW3  179   3.870   2.162   0.112
   37SOL    MW4  180   3.879   2.182   0.196
   38SOL     OW  181   1.184   2.136   0.455
   38SOL    HW2  182   1.136   2.102   0.531
   38SOL    HW3  183   1.271   2.096   0.462
   38SOL    MW4  184   1.189   2.126   0.466
   39SOL     OW  185   0.428   2.380   0.419
   39SOL    HW2  186   0.432   2.469   0.383
   39SOL    HW3  187   0.519   2.356   0.435
   39SOL    MW4  188   0.441   2.389   0.417
   40SOL     OW  189   4.257   3.181   0.307
   40SOL    HW2  190   4.234   3.098   0.349
   40SOL    HW3  191   4.200   3.186   0.230
   40SOL    MW4  192   4.246   3.171   0.302
   41SOL     OW  193   0.435   2.654   0.330
   41SOL    HW2  194   0.444   2.690   0.242
   41SOL    HW3  195   0.488   2.711   0.385
   41SOL    MW4  196   0.443   2.666   0.325
   42SOL     OW  197   0.845   0.382   0.110
   42SOL    HW2  198   0.866   0.396   0.018
   42SOL    HW3  199   0.866   0.465   0.153
   42SOL    MW4  200   0.850   0.395   0.103
   43SOL     OW  201   0.319   3.594   0.446
   43SOL    HW2  202   0.281   3.682   0.440
   43SOL    HW3  203   0.362   3.581   0.362
   43SOL    MW4  204   0.320   3.604   0.434
   44SOL     OW  205   0.424   3.538   0.204
   44SOL    HW2  206   0.369   3.587   0.143
   44SOL    HW3  207   0.491   3.600   0.231
   44SOL    MW4  208   0.426   3.553   0.200
   45SOL     OW  209   1.046   3.547   0.493
   45SOL    HW2  210   0.956   3.520   0.512
   45SOL    HW3  211   1.085   3.470   0.450
   45SOL    MW4  212   1.040   3.533   0.490
   46SOL     OW  213   0.191   4.338   0.431
   46SOL    HW2  214   0.127   4.400   0.395
   46SOL    HW3  215   0.150   4.252   0.420
   46SOL    MW4  216   0.177   4.335   0.425
   47SOL     OW  217   0.722   3.504   0.461
   47SOL    HW2  218   0.662   3.573   0.430
   47SOL    HW3  219   0.715   3.508   0.556
   47SOL    MW4  220   0.713   3.514   0.469
   48SOL     OW  221   0.618   4.247   0.449
   48SOL    HW2  222   0.555   4.310   0.414
   48SOL    HW3  223   0.620   4.264   0.543
   48SOL    MW4  224   0.610   4.258   0.457
   49SOL     OW  225   0.680   0.237   0.328
   49SOL    HW2  226   0.756   0.190   0.364
   49SOL    HW3  227   0.704   0.254   0.236
   49SOL    MW4  228   0.693   0.233   0.320
   50SOL     OW  229   0.920   0.611   0.328
   50SOL    HW2  230   0.908   0.703   0.354
   50SOL    HW3  231   1.001   0.585   0.371
   50SOL    MW4  232   0.929   0.620   0.337
   51SOL     OW  233   0.510   0.665   0.403
   51SOL    HW2  234   0.433   0.612   0.424
   51SOL    HW3  235   0.583   0.603   0.404
   51SOL    MW4  236   0.510   0.650   0.406
   52SOL     OW  237   1.437   0.506   0.390
   52SOL    HW2  238   1.506   0.470   0.447
   52SOL    HW3  239   1.463   0.596   0.373
   52SOL    MW4  240   1.449   0.513   0.396
   53SOL     OW  241   2.046   0.761   0.458
   53SOL    HW2  242   1.954   0.789   0.463
   53SOL    HW3  243   2.081   0.782   0.545
   53SOL    MW4  244   2.039   0.768   0.470
   54SOL     OW  245   1.724   0.003   0.288
   54SOL    HW2  246   1.762  -0.085   0.295
   54SOL    HW3  247   1.711   0.031   0.379
   54SOL    MW4  248   1.727  -0.005   0.301
   55SOL     OW  249   0.770   1.608   0.365
   55SOL    HW2  250   0.780   1.516   0.339
   55SOL    HW3  251   0.842   1.625   0.425
   55SOL    MW4  252   0.781   1.598   0.369
   56SOL     OW  253   0.738   1.332   0.352
   56SOL    HW2  254   0.655   1.292   0.325
   56SOL    HW3  255   0.801   1.261   0.349
   56SOL    MW4  256   0.735   1.317   0.348
   57SOL     OW  257   1.467   1.201   0.097
   57SOL    HW2  258   1.455   1.134   0.164
   57SOL    HW3  259   1.430   1.163   0.017
   57SOL    MW4  260   1.460   1.187   0.095
   58SOL     OW  261   0.958   1.141   0.439
   58SOL    HW2  262   0.939   1.049   0.418
   58SOL    HW3  263   0.908   1.158   0.519
   58SOL    MW4  264   0.949   1.131   0.447
   59SOL     OW  265   1.341   1.392   0.284
   59SOL    HW2  266   1.318   1.480   0.254
   59SOL    HW3  267   1.365   1.345   0.204
   59SOL    MW4  268   1.341   1.398   0.269
   60SOL     OW  269   4.389   2.282   0.314
   60SOL    HW2  270   4.419   2.359   0.361
   60SOL    HW3  271   4.404   2.303   0.222
   60SOL    MW4  272   4.395   2.295   0.308
   61SOL     OW  273   4.460   1.839   0.321
   61SOL    HW2  274   4.484   1.761   0.370
   61SOL    HW3  275   4.449   1.809   0.231
   61SOL    MW4  276   4.462   1.825   0.315
   62SOL     OW  277   0.831   1.981   0.566
   62SOL    HW2  278   0.758   1.966   0.627
   62SOL    HW3  279   0.872   1.895   0.557
   62SOL    MW4  280   0.827   1.967   0.573
   63SOL     OW  281   0.825   1.890   0.258
   63SOL    HW2  282   0.920   1.891   0.245
   63SOL    HW3  283   0.804   1.798   0.271
   63SOL    MW4  284   0.835   1.878   0.258
   64SOL     OW  285   0.933   2.184   0.296
   64SOL    HW2  286   0.951   2.275   0.321
   64SOL    HW3  287   1.001   2.133   0.340
   64SOL    MW4  288   0.945   2.189   0.305
   65SOL     OW  289   0.805   2.820   0.345
   65SOL    HW2  290   0.720   2.821   0.389
   65SOL    HW3  291   0.827   2.912   0.332
   65SOL    MW4  292   0.796   2.832   0.349
   66SOL     OW  293   0.569   2.840   0.493
   66SOL    HW2  294   0.545   2.931   0.476
   66SOL    HW3  295   0.604   2.841   0.582
   66SOL    MW4  296   0.571   2.852   0.502
   67SOL     OW  297   1.047   3.046   0.531
   67SOL    HW2  298   0.998   3.048   0.614
   67SOL    HW3  299   0.979   3.044   0.463
   67SOL    MW4  300   1.031   3.046   0.533
   68SOL     OW  301   2.154   2.947   0.328
   68SOL    HW2  302   2.228   2.945   0.267
   68SOL    HW3  303   2.159   3.033   0.369
   68SOL    MW4  304   2.165   2.958   0.325
   69SOL     OW  305   0.895   4.175   0.474
   69SOL    HW2  306   0.806   4.199   0.449
   69SOL    HW3  307   0.883   4.104   0.537
   69SOL    MW4  308   0.881   4.169   0.479
   70SOL     OW  309   0.497   3.951   0.431
   70SOL    HW2  310   0.485   3.970   0.524
   70SOL    HW3  311   0.544   4.027   0.397
   70SOL    MW4  312   0.502   3.964   0.439
   71SOL     OW  313   1.082   4.384   0.471
   71SOL    HW2  314   1.034   4.303   0.455
   71SOL    HW3  315   1.091   4.388   0.566
   71SOL    MW4  316   1.077   4.374   0.482
   72SOL     OW  317   1.172   0.501   0.421
   72SOL    HW2  318   1.159   0.424   0.366
   72SOL    HW3  319   1.266   0.519   0.416
   72SOL    MW4  320   1.183   0.493   0.413
   73SOL     OW  321   0.916   0.113   0.402
   73SOL    HW2  322   0.895   0.025   0.371
   73SOL    HW3  323   0.916   0.105   0.498
   73SOL    MW4  324   0.913   0.100   0.411
   74SOL     OW  325   1.361   0.232   0.305
   74SOL    HW2  326   1.280   0.257   0.259
   74SOL    HW3  327   1.412   0.314   0.309
   74SOL    MW4  328   1.357   0.246   0.299
   75SOL     OW  329   1.970   4.588   0.610
   75SOL    HW2  330   1.986   4.512   0.667
   75SOL    HW3  331   1.929   4.550   0.532
   75SOL    MW4  332   1.967   4.573   0.607
   76SOL     OW  333   1.080   0.288   0.228
   76SOL    HW2  334   1.050   0.225   0.294
   76SOL    HW3  335   1.004   0.303   0.172
   76SOL    MW4  336   1.066   0.281   0.229
   77SOL     OW  337   2.126   0.258   0.392
   77SOL    HW2  338   2.085   0.345   0.400
   77SOL    HW3  339   2.089   0.222   0.311
   77SOL    MW4  340   2.115   0.265   0.383
   78SOL     OW  341   2.462   0.996   0.350
   78SOL    HW2  342   2.463   1.007   0.255
   78SOL    HW3  343   2.371   1.008   0.375
   78SOL    MW4  344   2.450   0.999   0.341
   79SOL     OW  345   1.670   1.119   0.477
   79SOL    HW2  346   1.586   1.095   0.439
   79SOL    HW3  347   1.700   1.194   0.425
   79SOL    MW4  348   1.663   1.126   0.465
   80SOL     OW  349   1.769   0.854   0.501
   80SOL    HW2  350   1.777   0.842   0.596
   80SOL    HW3  351   1.749   0.947   0.491
   80SOL    MW4  352   1.767   0.865   0.512
   81SOL     OW  353   1.428   1.043   0.349
   81SOL    HW2  354   1.350   1.078   0.391
   81SOL    HW3  355   1.434   0.953   0.381
   81SOL    MW4  356   1.419   1.036   0.359
   82SOL     OW  357   1.866   1.787   0.460
   82SOL    HW2  358   1.942   1.731   0.468
   82SOL    HW3  359   1.893   1.871   0.498
   82SOL    MW4  360   1.879   1.791   0.466
   83SOL     OW  361   1.195   2.391   0.542
   83SOL    HW2  362   1.277   2.422   0.504
   83SOL    HW3  363   1.186   2.301   0.512
   83SOL    MW4  364   1.205   2.383   0.533
   84SOL     OW  365   1.464   2.461   0.499
   84SOL    HW2  366   1.529   2.519   0.539
   84SOL    HW3  367   1.516   2.392   0.457
   84SOL    MW4  368   1.479   2.459   0.499
   85SOL     OW  369   2.248   1.969   0.418
   85SOL    HW2  370   2.342   1.949   0.414
   85SOL    HW3  371   2.240   2.054   0.374
   85SOL    MW4  372   2.260   1.978   0.411
   86SOL     OW  373   1.595   2.243   0.377
   86SOL    HW2  374   1.609   2.271   0.286
   86SOL    HW3  375   1.682   2.248   0.417
   86SOL    MW4  376   1.608   2.248   0.370
   87SOL     OW  377   0.955   1.723   0.545
   87SOL    HW2  378   0.975   1.655   0.609
   87SOL    HW3  379   1.039   1.739   0.501
   87SOL    MW4  380   0.969   1.716   0.548
   88SOL     OW  381   1.157   3.300   0.377
   88SOL    HW2  382   1.251   3.313   0.391
   88SOL    HW3  383   1.136   3.223   0.431
   88SOL    MW4  384   1.167   3.292   0.386
   89SOL     OW  385   2.006   2.018   0.554
   89SOL    HW2  386   2.046   2.030   0.640
   89SOL    HW3  387   2.079   2.000   0.496
   89SOL    MW4  388   2.021   2.017   0.558
   90SOL     OW  389   1.975   0.481   0.462
   90SOL    HW2  390   2.006   0.566   0.432
   90SOL    HW3  391   1.887   0.473   0.426
   90SOL    MW4  392   1.968   0.491   0.454
   91SOL     OW  393   1.099   3.825   0.501
   91SOL    HW2  394   1.076   3.733   0.487
   91SOL    HW3  395   1.041   3.853   0.572
   91SOL    MW4  396   1.088   3.816   0.508
   92SOL     OW  397   2.032   2.428   0.380
   92SOL    HW2  398   1.985   2.511   0.367
   92SOL    HW3  399   2.112   2.452   0.426
   92SOL    MW4  400   2.036   2.442   0.385
   93SOL     OW  401   1.378   3.833   0.509
   93SOL    HW2  402   1.283   3.838   0.499
   93SOL    HW3  403   1.412   3.907   0.460
   93SOL    MW4  404   1.370   3.843   0.502
   94SOL     OW  405   1.908   2.687   0.404
   94SOL    HW2  406   1.985   2.710   0.457
   94SOL    HW3  407   1.837   2.681   0.468
   94SOL    MW4  408   1.909   2.690   0.420
   95SOL     OW  409   2.180   3.965   0.443
   95SOL    HW2  410   2.134   3.881   0.437
   95SOL    HW3  411   2.273   3.941   0.445
   95SOL    MW4  412   2.186   3.950   0.442
   96SOL     OW  413   0.852   3.883   0.383
   96SOL    HW2  414   0.943   3.857   0.399
   96SOL    HW3  415   0.852   3.978   0.392
   96SOL    MW4  416   0.864   3.892   0.386
   97SOL     OW  417   1.851   4.437   0.418
   97SOL    HW2  418   1.913   4.372   0.384
   97SOL    HW3  419   1.768   4.389   0.423
   97SOL    MW4  420   1.848   4.422   0.414
   98SOL     OW  421   2.158   0.073   0.887
   98SOL    HW2  422   2.142   0.047   0.797
   98SOL    HW3  423   2.235   0.022   0.913
   98SOL    MW4  424   2.166   0.063   0.879
   99SOL     OW  425   2.538   4.320   0.252
   99SOL    HW2  426   2.566   4.283   0.336
   99SOL    HW3  427   2.586   4.402   0.244
   99SOL    MW4  428   2.548   4.326   0.262
  100SOL     OW  429   1.361   4.435   0.426
  100SOL    HW2  430   1.268   4.415   0.429
  100SOL    HW3  431   1.374   4.474   0.340
  100SOL    MW4  432   1.350   4.438   0.415
  101SOL     OW  433   2.421   0.358   0.496
  101SOL    HW2  434   2.355   0.328   0.434
  101SOL    HW3  435   2.470   0.424   0.448
  101SOL    MW4  436   2.419   0.363   0.481
  102SOL     OW  437   1.597   1.771   0.377
  102SOL    HW2  438   1.676   1.795   0.425
  102SOL    HW3  439   1.595   1.676   0.379
  102SOL    MW4  440   1.607   1.762   0.383
  103SOL     OW  441   2.031   1.295   0.402
  103SOL    HW2  442   1.938   1.300   0.381
  103SOL    HW3  443   2.071   1.365   0.349
  103SOL    MW4  444   2.024   1.305   0.392
  104SOL     OW  445   2.553   1.228   0.477
  104SOL    HW2  446   2.647   1.242   0.471
  104SOL    HW3  447   2.538   1.145   0.433
  104SOL    MW4  448   2.563   1.219   0.471
  105SOL     OW  449   2.574   1.690   0.344
  105SOL    HW2  450   2.528   1.614   0.382
  105SOL    HW3  451   2.667   1.667   0.349
  105SOL    MW4  452   2.580   1.677   0.350
  106SOL     OW  453   1.586   1.494   0.380
  106SOL    HW2  454   1.502   1.471   0.341
  106SOL    HW3  455   1.572   1.487   0.475
  106SOL    MW4  456   1.573   1.490   0.387
  107SOL     OW  457   1.322   1.673   0.328
  107SOL    HW2  458   1.413   1.701   0.336
  107SOL    HW3  459   1.298   1.644   0.416
  107SOL    MW4  460   1.331   1.673   0.341
  108SOL     OW  461   2.231   2.230   0.307
  108SOL    HW2  462   2.149   2.275   0.285
  108SOL    HW3  463   2.271   2.286   0.374
  108SOL    MW4  464   2.225   2.244   0.313
  109SOL     OW  465   1.883   2.945   0.281
  109SOL    HW2  466   1.865   2.859   0.317
  109SOL    HW3  467   1.978   2.954   0.288
  109SOL    MW4  468   1.893   2.935   0.287
  110SOL     OW  469   1.190   2.817   0.444
  110SOL    HW2  470   1.133   2.769   0.384
  110SOL    HW3  471   1.133   2.884   0.482
  110SOL    MW4  472   1.175   2.819   0.441
  111SOL     OW  473   1.681   3.062   0.442
  111SOL    HW2  474   1.760   3.037   0.394
  111SOL    HW3  475   1.622   2.988   0.430
  111SOL    MW4  476   1.684   3.049   0.434
  112SOL     OW  477   1.115   1.886   0.339
  112SOL    HW2  478   1.181   1.825   0.306
  112SOL    HW3  479   1.165   1.963   0.366
  112SOL    MW4  480   1.130   1.888   0.338
  113SOL     OW  481   3.707   1.488   0.280
  113SOL    HW2  482   3.629   1.487   0.336
  113SOL    HW3  483   3.673   1.481   0.191
  113SOL    MW4  484   3.692   1.487   0.276
  114SOL     OW  485   1.844   2.241   0.514
  114SOL    HW2  486   1.896   2.162   0.525
  114SOL    HW3  487   1.906   2.308   0.484
  114SOL    MW4  488   1.859   2.240   0.511
  115SOL     OW  489   1.447   2.019   0.429
  115SOL    HW2  490   1.509   2.091   0.414
  115SOL    HW3  491   1.491   1.942   0.394
  115SOL    MW4  492   1.461   2.019   0.422
  116SOL     OW  493   1.446   3.281   0.474
  116SOL    HW2  494   1.524   3.225   0.472
  116SOL    HW3  495   1.480   3.369   0.491
  116SOL    MW4  496   1.461   3.285   0.476
  117SOL     OW  497   2.484   3.428   0.346
  117SOL    HW2  498   2.558   3.373   0.373
  117SOL    HW3  499   2.407   3.375   0.362
  117SOL    MW4  500   2.484   3.414   0.352
  118SOL     OW  501   1.609   4.314   0.451
  118SOL    HW2  502   1.626   4.324   0.545
  118SOL    HW3  503   1.526   4.359   0.437
  118SOL    MW4  504   1.601   4.321   0.462
  119SOL     OW  505   1.547   3.616   0.547
  119SOL    HW2  506   1.486   3.685   0.523
  119SOL    HW3  507   1.633   3.653   0.531
  119SOL    MW4  508   1.550   3.630   0.542
  120SOL     OW  509   1.446   4.640   0.233
  120SOL    HW2  510   1.538   4.647   0.208
  120SOL    HW3  511   1.420   4.730   0.252
  120SOL    MW4  512   1.455   4.653   0.232
  121SOL     OW  513   1.400   0.057   0.512
  121SOL    HW2  514   1.376   0.126   0.451
  121SOL    HW3  515   1.394  -0.024   0.460
  121SOL    MW4  516   1.396   0.055   0.497
  122SOL     OW  517   2.400   4.523   0.587
  122SOL    HW2  518   2.367   4.610   0.567
  122SOL    HW3  519   2.390   4.514   0.682
  122SOL    MW4  520   2.394   4.533   0.597
  123SOL     OW  521   2.205   0.063   0.583
  123SOL    HW2  522   2.182   0.141   0.533
  123SOL    HW3  523   2.132   0.003   0.568
  123SOL    MW4  524   2.192   0.065   0.574
  124SOL     OW  525   2.425   1.478   0.464
  124SOL    HW2  526   2.474   1.396   0.465
  124SOL    HW3  527   2.424   1.507   0.555
  124SOL    MW4  528   2.431   1.471   0.476
  125SOL     OW  529   2.943   0.611   0.548
  125SOL    HW2  530   3.001   0.610   0.471
  125SOL    HW3  531   2.922   0.704   0.560
  125SOL    MW4  532   2.948   0.623   0.540
  126SOL     OW  533   2.193   1.001   0.429
  126SOL    HW2  534   2.142   1.081   0.417
  126SOL    HW3  535   2.130   0.930   0.415
  126SOL    MW4  536   2.178   1.002   0.426
  127SOL     OW  537   2.833   1.263   0.495
  127SOL    HW2  538   2.863   1.189   0.442
  127SOL    HW3  539   2.866   1.246   0.583
  127SOL    MW4  540   2.841   1.251   0.499
  128SOL     OW  541   2.824   1.574   0.492
  128SOL    HW2  542   2.832   1.479   0.481
  128SOL    HW3  543   2.772   1.585   0.572
  128SOL    MW4  544   2.818   1.563   0.501
  129SOL     OW  545   3.234   2.079   0.475
  129SOL    HW2  546   3.174   2.010   0.504
  129SOL    HW3  547   3.317   2.034   0.461
  129SOL    MW4  548   3.237   2.064   0.477
  130SOL     OW  549   2.984   4.665   0.334
  130SOL    HW2  550   3.033   4.716   0.399
  130SOL    HW3  551   3.020   4.577   0.340
  130SOL    MW4  552   2.995   4.660   0.344
  131SOL     OW  553   2.148   1.697   0.433
  131SOL    HW2  554   2.183   1.635   0.370
  131SOL    HW3  555   2.172   1.783   0.398
  131SOL    MW4  556   2.156   1.700   0.420
  132SOL     OW  557   1.513   1.519   0.647
  132SOL    HW2  558   1.587   1.566   0.684
  132SOL    HW3  559   1.435   1.565   0.680
  132SOL    MW4  560   1.512   1.531   0.656
  133SOL     OW  561   2.541   1.952   0.457
  133SOL    HW2  562   2.552   1.874   0.403
  133SOL    HW3  563   2.608   2.012   0.425
  133SOL    MW4  564   2.551   1.950   0.446
  134SOL     OW  565   2.765   2.135   0.404
  134SOL    HW2  566   2.835   2.133   0.339
  134SOL    HW3  567   2.810   2.118   0.487
  134SOL    MW4  568   2.780   2.132   0.406
  135SOL     OW  569   2.553   2.616   0.364
  135SOL    HW2  570   2.611   2.542   0.386
  135SOL    HW3  571   2.465   2.582   0.378
  135SOL    MW4  572   2.549   2.602   0.369
  136SOL     OW  573   1.639   2.694   0.536
  136SOL    HW2  574   1.608   2.729   0.619
  136SOL    HW3  575   1.577   2.728   0.471
  136SOL    MW4  576   1.627   2.703   0.538
  137SOL     OW  577   1.477   2.876   0.360
  137SOL    HW2  578   1.381   2.867   0.364
  137SOL    HW3  579   1.495   2.897   0.269
  137SOL    MW4  580   1.466   2.878   0.349
  138SOL     OW  581   2.073   3.699   0.462
  138SOL    HW2  582   2.085   3.633   0.393
  138SOL    HW3  583   2.099   3.654   0.542
  138SOL    MW4  584   2.078   3.684   0.463
  139SOL     OW  585   2.473   3.913   0.384
  139SOL    HW2  586   2.504   3.822   0.385
  139SOL    HW3  587   2.495   3.944   0.296
  139SOL    MW4  588   2.480   3.905   0.372
  140SOL     OW  589   1.821   3.764   0.540
  140SOL    HW2  590   1.794   3.796   0.454
  140SOL    HW3  591   1.909   3.730   0.526
  140SOL    MW4  592   1.829   3.764   0.527
  141SOL     OW  593   2.140   3.496   0.277
  141SOL    HW2  594   2.226   3.493   0.235
  141SOL    HW3  595   2.130   3.409   0.316
  141SOL    MW4  596   2.150   3.484   0.277
  142SOL     OW  597   2.337   4.309   0.426
  142SOL    HW2  598   2.387   4.322   0.345
  142SOL    HW3  599   2.338   4.394   0.469
  142SOL    MW4  600   2.343   4.322   0.421
  143SOL     OW  601   2.058   4.238   0.464
  143SOL    HW2  602   2.081   4.146   0.470
  143SOL    HW3  603   2.141   4.284   0.450
  143SOL    MW4  604   2.072   4.232   0.463
  144SOL     OW  605   3.075   0.142   0.553
  144SOL    HW2  606   2.993   0.190   0.539
  144SOL    HW3  607   3.068   0.107   0.641
  144SOL    MW4  608   3.063   0.143   0.563
  145SOL     OW  609   2.593   3.653   0.491
  145SOL    HW2  610   2.552   3.646   0.577
  145SOL    HW3  611   2.559   3.578   0.442
  145SOL    MW4  612   2.583   3.642   0.496
  146SOL     OW  613   2.552   4.153   0.508
  146SOL    HW2  614   2.462   4.186   0.504
  146SOL    HW3  615   2.544   4.060   0.489
  146SOL    MW4  616   2.539   4.145   0.505
  147SOL     OW  617   2.606   0.138   0.488
  147SOL    HW2  618   2.540   0.208   0.492
  147SOL    HW3  619   2.690   0.184   0.490
  147SOL    MW4  620   2.608   0.153   0.489
  148SOL     OW  621   1.696   0.423   0.465
  148SOL    HW2  622   1.679   0.329   0.478
  148SOL    HW3  623   1.664   0.464   0.545
  148SOL    MW4  624   1.689   0.416   0.477
  149SOL     OW  625   3.111   0.638   0.314
  149SOL    HW2  626   3.126   0.727   0.346
  149SOL    HW3  627   3.198   0.599   0.310
  149SOL    MW4  628   3.124   0.644   0.318
  150SOL     OW  629   2.209   1.479   0.292
  150SOL    HW2  630   2.284   1.459   0.348
  150SOL    HW3  631   2.245   1.474   0.203
  150SOL    MW4  632   2.224   1.475   0.288
  151SOL     OW  633   2.615   0.515   0.362
  151SOL    HW2  634   2.625   0.607   0.385
  151SOL    HW3  635   2.696   0.492   0.317
  151SOL    MW4  636   2.627   0.524   0.359
  152SOL     OW  637   3.086   1.642   0.502
  152SOL    HW2  638   2.993   1.623   0.495
  152SOL    HW3  639   3.091   1.736   0.520
  152SOL    MW4  640   3.074   1.652   0.504
  153SOL     OW  641   3.476   0.935   0.484
  153SOL    HW2  642   3.547   0.912   0.424
  153SOL    HW3  643   3.511   0.918   0.571
  153SOL    MW4  644   3.490   0.929   0.488
  154SOL     OW  645   3.734   1.937   0.322
  154SOL    HW2  646   3.777   2.013   0.282
  154SOL    HW3  647   3.764   1.938   0.413
  154SOL    MW4  648   3.744   1.947   0.329
  155SOL     OW  649   2.838   0.314   0.527
  155SOL    HW2  650   2.846   0.361   0.444
  155SOL    HW3  651   2.831   0.383   0.593
  155SOL    MW4  652   2.838   0.329   0.525
  156SOL     OW  653   3.079   1.908   0.609
  156SOL    HW2  654   2.996   1.949   0.633
  156SOL    HW3  655   3.125   1.896   0.692
  156SOL    MW4  656   3.074   1.912   0.623
  157SOL     OW  657   2.734   2.421   0.461
  157SOL    HW2  658   2.817   2.438   0.416
  157SOL    HW3  659   2.723   2.326   0.455
  157SOL    MW4  660   2.744   2.410   0.454
  158SOL     OW  661   3.033   2.174   0.288
  158SOL    HW2  662   3.083   2.166   0.206
  158SOL    HW3  663   3.093   2.143   0.355
  158SOL    MW4  664   3.048   2.169   0.286
  159SOL     OW  665   2.301   2.514   0.487
  159SOL    HW2  666   2.296   2.465   0.569
  159SOL    HW3  667   2.265   2.600   0.509
  159SOL    MW4  668   2.296   2.519   0.501
  160SOL     OW  669   2.645   2.863   0.465
  160SOL    HW2  670   2.611   2.780   0.430
  160SOL    HW3  671   2.621   2.862   0.557
  160SOL    MW4  672   2.637   2.852   0.473
  161SOL     OW  673   3.175   3.196   0.456
  161SOL    HW2  674   3.176   3.100   0.454
  161SOL    HW3  675   3.159   3.218   0.548
  161SOL    MW4  676   3.173   3.186   0.468
  162SOL     OW  677   3.440   3.210   0.551
  162SOL    HW2  678   3.435   3.183   0.643
  162SOL    HW3  679   3.352   3.193   0.517
  162SOL    MW4  680   3.428   3.204   0.559
  163SOL     OW  681   2.278   3.191   0.421
  163SOL    HW2  682   2.364   3.159   0.392
  163SOL    HW3  683   2.278   3.177   0.516
  163SOL    MW4  684   2.290   3.185   0.430
  164SOL     OW  685   1.507   4.057   0.394
  164SOL    HW2  686   1.546   4.139   0.426
  164SOL    HW3  687   1.495   4.072   0.300
  164SOL    MW4  688   1.510   4.070   0.386
  165SOL     OW  689   3.313   4.139   0.397
  165SOL    HW2  690   3.222   4.141   0.365
  165SOL    HW3  691   3.314   4.069   0.463
  165SOL    MW4  692   3.301   4.130   0.401
  166SOL     OW  693   2.995   3.378   0.359
  166SOL    HW2  694   3.013   3.377   0.265
  166SOL    HW3  695   3.051   3.309   0.395
  166SOL    MW4  696   3.005   3.369   0.351
  167SOL     OW  697   2.713   3.307   0.429
  167SOL    HW2  698   2.727   3.282   0.520
  167SOL    HW3  699   2.799   3.340   0.400
  167SOL    MW4  700   2.726   3.309   0.437
  168SOL     OW  701   3.700   4.168   0.663
  168SOL    HW2  702   3.769   4.102   0.669
  168SOL    HW3  703   3.670   4.163   0.572
  168SOL    MW4  704   3.705   4.159   0.651
  169SOL     OW  705   3.077   4.170   0.253
  169SOL    HW2  706   3.060   4.252   0.300
  169SOL    HW3  707   2.993   4.123   0.256
  169SOL    MW4  708   3.063   4.175   0.259
  170SOL     OW  709   3.316   0.293   0.518
  170SOL    HW2  710   3.245   0.230   0.529
  170SOL    HW3  711   3.393   0.240   0.497
  170SOL    MW4  712   3.317   0.278   0.517
  171SOL     OW  713   2.701   4.576   0.312
  171SOL    HW2  714   2.793   4.600   0.300
  171SOL    HW3  715   2.665   4.648   0.364
  171SOL    MW4  716   2.709   4.589   0.318
  172SOL     OW  717   2.821   4.063   0.313
  172SOL    HW2  718   2.820   3.984   0.367
  172SOL    HW3  719   2.742   4.057   0.259
  172SOL    MW4  720   2.810   4.052   0.313
  173SOL     OW  721   3.050   0.232   0.177
  173SOL    HW2  722   3.040   0.151   0.227
  173SOL    HW3  723   3.070   0.203   0.088
  173SOL    MW4  724   3.051   0.218   0.172
  174SOL     OW  725   2.840   0.866   0.590
  174SOL    HW2  726   2.880   0.923   0.525
  174SOL    HW3  727   2.895   0.876   0.668
  174SOL    MW4  728   2.852   0.875   0.592
  175SOL     OW  729   3.484   1.490   0.444
  175SOL    HW2  730   3.522   1.526   0.524
  175SOL    HW3  731   3.471   1.397   0.463
  175SOL    MW4  732   3.487   1.483   0.457
  176SOL     OW  733   3.589   0.450   0.511
  176SOL    HW2  734   3.514   0.488   0.465
  176SOL    HW3  735   3.607   0.510   0.583
  176SOL    MW4  736   3.582   0.463   0.514
  177SOL     OW  737   3.189   0.873   0.465
  177SOL    HW2  738   3.164   0.858   0.556
  177SOL    HW3  739   3.285   0.877   0.467
  177SOL    MW4  740   3.199   0.872   0.477
  178SOL     OW  741   3.598   1.857   0.659
  178SOL    HW2  742   3.527   1.873   0.597
  178SOL    HW3  743   3.561   1.879   0.744
  178SOL    MW4  744   3.584   1.862   0.662
  179SOL     OW  745   3.457   1.912   0.401
  179SOL    HW2  746   3.397   1.853   0.354
  179SOL    HW3  747   3.538   1.908   0.351
  179SOL    MW4  748   3.460   1.903   0.388
  180SOL     OW  749   3.488   1.210   0.500
  180SOL    HW2  750   3.463   1.123   0.470
  180SOL    HW3  751   3.444   1.221   0.584
  180SOL    MW4  752   3.479   1.200   0.507
  181SOL     OW  753   3.886   1.704   0.274
  181SOL    HW2  754   3.839   1.784   0.297
  181SOL    HW3  755   3.820   1.634   0.281
  181SOL    MW4  756   3.871   1.705   0.278
  182SOL     OW  757   3.325   2.301   0.612
  182SOL    HW2  758   3.297   2.225   0.562
  182SOL    HW3  759   3.381   2.265   0.681
  182SOL    MW4  760   3.329   2.286   0.615
  183SOL     OW  761   3.535   2.702   0.571
  183SOL    HW2  762   3.558   2.651   0.649
  183SOL    HW3  763   3.497   2.637   0.511
  183SOL    MW4  764   3.533   2.686   0.574
  184SOL     OW  765   2.153   2.748   0.527
  184SOL    HW2  766   2.120   2.788   0.607
  184SOL    HW3  767   2.157   2.820   0.464
  184SOL    MW4  768   2.149   2.763   0.529
  185SOL     OW  769   3.245   2.653   0.351
  185SOL    HW2  770   3.180   2.589   0.379
  185SOL    HW3  771   3.329   2.612   0.371
  185SOL    MW4  772   3.247   2.639   0.358
  186SOL     OW  773   2.934   2.843   0.759
  186SOL    HW2  774   2.923   2.822   0.666
  186SOL    HW3  775   3.003   2.784   0.789
  186SOL    MW4  776   2.942   2.833   0.751
  187SOL     OW  777   2.606   0.789   0.445
  187SOL    HW2  778   2.676   0.822   0.502
  187SOL    HW3  779   2.566   0.868   0.408
  187SOL    MW4  780   2.610   0.804   0.448
  188SOL     OW  781   2.878   4.230   0.531
  188SOL    HW2  782   2.856   4.167   0.462
  188SOL    HW3  783   2.946   4.187   0.582
  188SOL    MW4  784   2.884   4.216   0.528
  189SOL     OW  785   3.268   3.677   0.470
  189SOL    HW2  786   3.321   3.687   0.391
  189SOL    HW3  787   3.318   3.617   0.525
  189SOL    MW4  788   3.282   3.670   0.467
  190SOL     OW  789   3.910   3.436   0.372
  190SOL    HW2  790   4.004   3.452   0.384
  190SOL    HW3  791   3.867   3.486   0.441
  190SOL    MW4  792   3.917   3.444   0.383
  191SOL     OW  793   3.825   3.279   0.725
  191SOL    HW2  794   3.920   3.280   0.727
  191SOL    HW3  795   3.803   3.268   0.632
  191SOL    MW4  796   3.835   3.277   0.713
  192SOL     OW  797   2.811   3.823   0.477
  192SOL    HW2  798   2.889   3.769   0.490
  192SOL    HW3  799   2.740   3.760   0.463
  192SOL    MW4  800   2.812   3.808   0.477
  193SOL     OW  801   2.517   3.085   0.350
  193SOL    HW2  802   2.594   3.142   0.349
  193SOL    HW3  803   2.545   3.007   0.396
  193SOL    MW4  804   2.531   3.082   0.356
  194SOL     OW  805   4.213   0.148   0.348
  194SOL    HW2  806   4.218   0.067   0.297
  194SOL    HW3  807   4.304   0.169   0.368
  194SOL    MW4  808   4.226   0.140   0.344
  195SOL     OW  809   3.958   0.122   0.465
  195SOL    HW2  810   3.886   0.177   0.433
  195SOL    HW3  811   4.034   0.149   0.414
  195SOL    MW4  812   3.958   0.133   0.454
  196SOL     OW  813   2.869   0.447   0.276
  196SOL    HW2  814   2.921   0.385   0.224
  196SOL    HW3  815   2.926   0.523   0.286
  196SOL    MW4  816   2.884   0.449   0.271
  197SOL     OW  817   3.383   0.494   0.322
  197SOL    HW2  818   3.341   0.426   0.375
  197SOL    HW3  819   3.436   0.446   0.259
  197SOL    MW4  820   3.384   0.479   0.321
  198SOL     OW  821   3.989   0.595   0.501
  198SOL    HW2  822   4.060   0.531   0.489
  198SOL    HW3  823   3.936   0.558   0.572
  198SOL    MW4  824   3.992   0.581   0.509
  199SOL     OW  825   4.406   0.849   0.478
  199SOL    HW2  826   4.311   0.858   0.476
  199SOL    HW3  827   4.438   0.921   0.424
  199SOL    MW4  828   4.397   0.859   0.471
  200SOL     OW  829   3.775   0.587   0.324
  200SOL    HW2  830   3.717   0.538   0.383
  200SOL    HW3  831   3.856   0.599   0.374
  200SOL    MW4  832   3.778   0.582   0.339
  201SOL     OW  833   3.955   1.080   0.445
  201SOL    HW2  834   4.024   1.124   0.396
  201SOL    HW3  835   3.887   1.147   0.456
  201SOL    MW4  836   3.955   1.095   0.440
  202SOL     OW  837   3.773   1.289   0.502
  202SOL    HW2  838   3.686   1.256   0.521
  202SOL    HW3  839   3.762   1.345   0.425
  202SOL    MW4  840   3.760   1.292   0.495
  203SOL     OW  841   3.302   1.684   0.334
  203SOL    HW2  842   3.216   1.656   0.367
  203SOL    HW3  843   3.362   1.615   0.362
  203SOL    MW4  844   3.298   1.671   0.342
  204SOL     OW  845   2.947   1.032   0.377
  204SOL    HW2  846   3.032   0.993   0.396
  204SOL    HW3  847   2.938   1.024   0.282
  204SOL    MW4  848   2.957   1.026   0.367
  205SOL     OW  849   3.709   2.402   0.385
  205SOL    HW2  850   3.761   2.349   0.325
  205SOL    HW3  851   3.721   2.359   0.470
  205SOL    MW4  852   3.717   2.389   0.389
  206SOL     OW  853   4.190   2.937   0.428
  206SOL    HW2  854   4.218   2.847   0.412
  206SOL    HW3  855   4.094   2.933   0.432
  206SOL    MW4  856   4.181   2.925   0.426
  207SOL     OW  857   3.034   2.454   0.391
  207SOL    HW2  858   3.039   2.445   0.486
  207SOL    HW3  859   3.027   2.364   0.359
  207SOL    MW4  860   3.033   2.441   0.400
  208SOL     OW  861   3.001   3.621   0.486
  208SOL    HW2  862   3.094   3.644   0.485
  208SOL    HW3  863   2.998   3.530   0.458
  208SOL    MW4  864   3.012   3.612   0.483
  209SOL     OW  865   3.157   2.922   0.444
  209SOL    HW2  866   3.201   2.867   0.379
  209SOL    HW3  867   3.077   2.875   0.466
  209SOL    MW4  868   3.152   2.909   0.438
  210SOL     OW  869   3.905   2.921   0.488
  210SOL    HW2  870   3.860   2.849   0.445
  210SOL    HW3  871   3.861   3.000   0.456
  210SOL    MW4  872   3.893   2.922   0.478
  211SOL     OW  873   3.779   2.673   0.426
  211SOL    HW2  874   3.782   2.579   0.408
  211SOL    HW3  875   3.694   2.687   0.468
  211SOL    MW4  876   3.768   2.662   0.429
  212SOL     OW  877   3.816   4.034   0.254
  212SOL    HW2  878   3.837   3.974   0.325
  212SOL    HW3  879   3.859   3.997   0.176
  212SOL    MW4  880   3.824   4.022   0.253
  213SOL     OW  881   3.447   2.493   0.432
  213SOL    HW2  882   3.418   2.435   0.502
  213SOL    HW3  883   3.525   2.450   0.396
  213SOL    MW4  884   3.453   2.479   0.436
  214SOL     OW  885   3.328   3.948   0.590
  214SOL    HW2  886   3.366   3.935   0.677
  214SOL    HW3  887   3.319   3.859   0.555
  214SOL    MW4  888   3.332   3.934   0.597
  215SOL     OW  889   4.290   4.112   0.409
  215SOL    HW2  890   4.300   4.194   0.459
  215SOL    HW3  891   4.206   4.122   0.364
  215SOL    MW4  892   4.280   4.124   0.410
  216SOL     OW  893   3.601   4.178   0.399
  216SOL    HW2  894   3.631   4.132   0.320
  216SOL    HW3  895   3.511   4.149   0.410
  216SOL    MW4  896   3.593   4.168   0.390
  217SOL     OW  897   3.546   4.472   0.348
  217SOL    HW2  898   3.572   4.380   0.346
  217SOL    HW3  899   3.629   4.521   0.345
  217SOL    MW4  900   3.560   4.467   0.348
  218SOL     OW  901   4.476   0.138   0.432
  218SOL    HW2  902   4.493   0.045   0.416
  218SOL    HW3  903   4.460   0.143   0.526
  218SOL    MW4  904   4.476   0.126   0.442
  219SOL     OW  905   4.122   0.851   0.495
  219SOL    HW2  906   4.075   0.768   0.482
  219SOL    HW3  907   4.061   0.918   0.465
  219SOL    MW4  908   4.108   0.849   0.490
  220SOL     OW  909   0.320   2.129   0.322
  220SOL    HW2  910   0.337   2.223   0.323
  220SOL    HW3  911   0.231   2.120   0.357
  220SOL    MW4  912   0.310   2.140   0.327
  221SOL     OW  913   4.196   0.423   0.445
  221SOL    HW2  914   4.201   0.342   0.395
  221SOL    HW3  915   4.278   0.468   0.426
  221SOL    MW4  916   4.208   0.419   0.436
  222SOL     OW  917   4.109   1.256   0.289
  222SOL    HW2  918   4.174   1.295   0.347
  222SOL    HW3  919   4.091   1.324   0.224
  222SOL    MW4  920   4.115   1.270   0.288
  223SOL     OW  921   3.499   0.073   0.430
  223SOL    HW2  922   3.485  -0.004   0.374
  223SOL    HW3  923   3.586   0.105   0.405
  223SOL    MW4  924   3.508   0.067   0.419
  224SOL     OW  925   3.703   0.879   0.353
  224SOL    HW2  926   3.783   0.924   0.382
  224SOL    HW3  927   3.732   0.790   0.333
  224SOL    MW4  928   3.718   0.873   0.354
  225SOL     OW  929   0.227   0.915   0.498
  225SOL    HW2  930   0.226   0.822   0.476
  225SOL    HW3  931   0.287   0.920   0.573
  225SOL    MW4  932   0.235   0.903   0.505
  226SOL     OW  933   4.131   2.166   0.325
  226SOL    HW2  934   4.105   2.209   0.406
  226SOL    HW3  935   4.214   2.207   0.301
  226SOL    MW4  936   4.138   2.177   0.332
  227SOL     OW  937   0.299   1.495   0.462
  227SOL    HW2  938   0.279   1.404   0.441
  227SOL    HW3  939   0.215   1.540   0.452
  227SOL    MW4  940   0.285   1.489   0.458
  228SOL     OW  941   0.941   2.428   0.431
  228SOL    HW2  942   1.017   2.421   0.489
  228SOL    HW3  943   0.953   2.512   0.387
  228SOL    MW4  944   0.953   2.438   0.433
  229SOL     OW  945   4.197   1.919   0.446
  229SOL    HW2  946   4.278   1.898   0.399
  229SOL    HW3  947   4.167   2.001   0.406
  229SOL    MW4  948   4.204   1.927   0.435
  230SOL     OW  949   4.484   2.518   0.447
  230SOL    HW2  950   4.548   2.589   0.449
  230SOL    HW3  951   4.476   2.490   0.538
  230SOL    MW4  952   4.491   2.524   0.459
  231SOL     OW  953   4.357   3.643   0.415
  231SOL    HW2  954   4.435   3.602   0.377
  231SOL    HW3  955   4.298   3.570   0.435
  231SOL    MW4  956   4.359   3.628   0.413
  232SOL     OW  957   4.249   2.678   0.437
  232SOL    HW2  958   4.198   2.619   0.492
  232SOL    HW3  959   4.332   2.632   0.422
  232SOL    MW4  960   4.254   2.664   0.442
  233SOL     OW  961   0.218   3.846   0.337
  233SOL    HW2  962   0.159   3.921   0.328
  233SOL    HW3  963   0.305   3.885   0.347
  233SOL    MW4  964   0.222   3.861   0.337
  234SOL     OW  965   0.107   3.462   0.328
  234SOL    HW2  966   0.120   3.478   0.234
  234SOL    HW3  967   0.189   3.491   0.368
  234SOL    MW4  968   0.119   3.468   0.321
  235SOL     OW  969   0.038   3.191   0.402
  235SOL    HW2  970  -0.046   3.177   0.358
  235SOL    HW3  971   0.057   3.284   0.389
  235SOL    MW4  972   0.030   3.201   0.395
  236SOL     OW  973   3.912   3.847   0.448
  236SOL    HW2  974   3.882   3.762   0.482
  236SOL    HW3  975   4.008   3.843   0.456
  236SOL    MW4  976   3.921   3.835   0.454
  237SOL     OW  977   3.753   3.210   0.461
  237SOL    HW2  978   3.796   3.272   0.403
  237SOL    HW3  979   3.661   3.214   0.437
  237SOL    MW4  980   3.747   3.219   0.450
  238SOL     OW  981   0.080   4.073   0.418
  238SOL    HW2  982   0.083   4.036   0.506
  238SOL    HW3  983  -0.014   4.085   0.399
  238SOL    MW4  984   0.068   4.070   0.427
  239SOL     OW  985   4.068   4.446   0.388
  239SOL    HW2  986   3.984   4.489   0.375
  239SOL    HW3  987   4.065   4.415   0.479
  239SOL    MW4  988   4.056   4.447   0.398
  240SOL     OW  989   4.118   4.376   0.680
  240SOL    HW2  990   4.023   4.386   0.676
  240SOL    HW3  991   4.146   4.442   0.743
  240SOL    MW4  992   4.109   4.386   0.688
  241SOL     OW  993   3.796   4.564   0.407
  241SOL    HW2  994   3.854   4.633   0.441
  241SOL    HW3  995   3.802   4.494   0.472
  241SOL    MW4  996   3.805   4.564   0.420
  242SOL     OW  997   0.193   4.651   0.848
  242SOL    HW2  998   0.203   4.560   0.824
  242SOL    HW3  999   0.105   4.675   0.819
  242SOL    MW4 1000   0.183   4.642   0.841
  243SOL     OW 1001   4.417   0.097   0.736
  243SOL    HW2 1002   4.344   0.052   0.778
  243SOL    HW3 1003   4.436   0.171   0.794
  243SOL    MW4 1004   4.409   0.101   0.749
  244SOL     OW 1005   4.464   0.358   0.848
  244SOL    HW2 1006   4.467   0.369   0.943
  244SOL    HW3 1007   4.533   0.415   0.814
  244SOL    MW4 1008   4.473   0.367   0.856
  245SOL     OW 1009   0.203   0.489   0.765
  245SOL    HW2 1010   0.270   0.423   0.780
  245SOL    HW3 1011   0.240   0.570   0.801
  245SOL    MW4 1012   0.217   0.491   0.772
  246SOL     OW 1013   0.261   0.748   0.826
  246SOL    HW2 1014   0.258   0.746   0.922
  246SOL    HW3 1015   0.175   0.779   0.800
  246SOL    MW4 1016   0.249   0.752   0.836
  247SOL     OW 1017   0.012   0.848   0.752
  247SOL    HW2 1018  -0.075   0.813   0.775
  247SOL    HW3 1019   0.008   0.861   0.658
  247SOL    MW4 1020  -0.001   0.845   0.743
  248SOL     OW 1021   4.483   1.125   0.800
  248SOL    HW2 1022   4.481   1.126   0.896
  248SOL    HW3 1023   4.495   1.033   0.778
  248SOL    MW4 1024   4.484   1.113   0.810
  249SOL     OW 1025   0.214   1.255   0.710
  249SOL    HW2 1026   0.135   1.209   0.737
  249SOL    HW3 1027   0.226   1.232   0.618
  249SOL    MW4 1028   0.205   1.246   0.701
  250SOL     OW 1029   0.188   1.491   0.862
  250SOL    HW2 1030   0.260   1.533   0.815
  250SOL    HW3 1031   0.185   1.402   0.827
  250SOL    MW4 1032   0.197   1.484   0.851
  251SOL     OW 1033   0.016   1.624   0.712
  251SOL    HW2 1034  -0.070   1.595   0.743
  251SOL    HW3 1035   0.079   1.577   0.768
  251SOL    MW4 1036   0.013   1.614   0.724
  252SOL     OW 1037   0.019   1.869   0.839
  252SOL    HW2 1038   0.075   1.929   0.789
  252SOL    HW3 1039   0.021   1.787   0.789
  252SOL    MW4 1040   0.027   1.866   0.826
  253SOL     OW 1041   0.175   2.040   0.698
  253SOL    HW2 1042   0.197   2.113   0.756
  253SOL    HW3 1043   0.148   2.081   0.616
  253SOL    MW4 1044   0.175   2.055   0.695
  254SOL     OW 1045   0.180   2.300   0.821
  254SOL    HW2 1046   0.202   2.288   0.913
  254SOL    HW3 1047   0.252   2.352   0.786
  254SOL    MW4 1048   0.193   2.305   0.828
  255SOL     OW 1049   4.449   2.458   0.732
  255SOL    HW2 1050   4.375   2.406   0.764
  255SOL    HW3 1051   4.527   2.415   0.770
  255SOL    MW4 1052   4.450   2.445   0.742
  256SOL     OW 1053   4.465   2.726   0.783
  256SOL    HW2 1054   4.457   2.733   0.878
  256SOL    HW3 1055   4.454   2.633   0.765
  256SOL    MW4 1056   4.462   2.715   0.793
  257SOL     OW 1057   0.238   2.798   0.729
  257SOL    HW2 1058   0.150   2.772   0.755
  257SOL    HW3 1059   0.246   2.766   0.639
  257SOL    MW4 1060   0.227   2.790   0.720
  258SOL     OW 1061   0.207   3.083   0.775
  258SOL    HW2 1062   0.197   3.081   0.870
  258SOL    HW3 1063   0.228   2.993   0.751
  258SOL    MW4 1064   0.208   3.071   0.784
  259SOL     OW 1065   0.002   3.231   0.688
  259SOL    HW2 1066   0.075   3.183   0.725
  259SOL    HW3 1067   0.007   3.213   0.594
  259SOL    MW4 1068   0.012   3.222   0.680
  260SOL     OW 1069   0.018   3.492   0.777
  260SOL    HW2 1070  -0.044   3.547   0.730
  260SOL    HW3 1071   0.016   3.408   0.731
  260SOL    MW4 1072   0.010   3.488   0.764
  261SOL     OW 1073   0.279   3.609   0.729
  261SOL    HW2 1074   0.193   3.573   0.751
  261SOL    HW3 1075   0.285   3.599   0.634
  261SOL    MW4 1076   0.268   3.603   0.719
  262SOL     OW 1077   0.260   3.880   0.828
  262SOL    HW2 1078   0.275   3.884   0.922
  262SOL    HW3 1079   0.256   3.786   0.808
  262SOL    MW4 1080   0.262   3.868   0.837
  263SOL     OW 1081   0.057   4.017   0.701
  263SOL    HW2 1082  -0.016   3.982   0.753
  263SOL    HW3 1083   0.133   3.968   0.732
  263SOL    MW4 1084   0.057   4.006   0.712
  264SOL     OW 1085   0.022   4.279   0.810
  264SOL    HW2 1086   0.007   4.280   0.905
  264SOL    HW3 1087   0.056   4.191   0.793
  264SOL    MW4 1088   0.024   4.267   0.821
  265SOL     OW 1089   0.231   4.408   0.724
  265SOL    HW2 1090   0.152   4.369   0.761
  265SOL    HW3 1091   0.220   4.398   0.629
  265SOL    MW4 1092   0.219   4.402   0.717
  266SOL     OW 1093   0.650   4.636   0.775
  266SOL    HW2 1094   0.667   4.658   0.866
  266SOL    HW3 1095   0.565   4.675   0.756
  266SOL    MW4 1096   0.641   4.644   0.784
  267SOL     OW 1097   0.407   0.087   0.705
  267SOL    HW2 1098   0.332   0.040   0.743
  267SOL    HW3 1099   0.383   0.101   0.614
  267SOL    MW4 1100   0.394   0.083   0.698
  268SOL     OW 1101   0.457   0.325   0.840
  268SOL    HW2 1102   0.526   0.374   0.794
  268SOL    HW3 1103   0.451   0.242   0.792
  268SOL    MW4 1104   0.466   0.321   0.828
  269SOL     OW 1105   0.667   0.492   0.724
  269SOL    HW2 1106   0.753   0.466   0.757
  269SOL    HW3 1107   0.680   0.503   0.629
  269SOL    MW4 1108   0.680   0.490   0.716
  270SOL     OW 1109   0.669   0.769   0.793
  270SOL    HW2 1110   0.602   0.802   0.733
  270SOL    HW3 1111   0.662   0.673   0.786
  270SOL    MW4 1112   0.659   0.760   0.784
  271SOL     OW 1113   0.414   0.941   0.692
  271SOL    HW2 1114   0.429   1.022   0.741
  271SOL    HW3 1115   0.369   0.884   0.755
  271SOL    MW4 1116   0.410   0.944   0.707
  272SOL     OW 1117   0.446   1.207   0.838
  272SOL    HW2 1118   0.502   1.284   0.831
  272SOL    HW3 1119   0.367   1.231   0.789
  272SOL    MW4 1120   0.443   1.220   0.831
  273SOL     OW 1121   0.774   1.278   0.631
  273SOL    HW2 1122   0.715   1.306   0.700
  273SOL    HW3 1123   0.740   1.320   0.552
  273SOL    MW4 1124   0.762   1.287   0.630
  274SOL     OW 1125   0.627   1.432   0.793
  274SOL    HW2 1126   0.661   1.472   0.872
  274SOL    HW3 1127   0.550   1.484   0.770
  274SOL    MW4 1128   0.622   1.444   0.800
  275SOL     OW 1129   0.401   1.592   0.716
  275SOL    HW2 1130   0.399   1.685   0.693
  275SOL    HW3 1131   0.381   1.547   0.634
  275SOL    MW4 1132   0.398   1.599   0.702
  276SOL     OW 1133   0.409   1.882   0.681
  276SOL    HW2 1134   0.336   1.944   0.687
  276SOL    HW3 1135   0.445   1.896   0.593
  276SOL    MW4 1136   0.404   1.892   0.670
  277SOL     OW 1137   0.589   1.988   0.858
  277SOL    HW2 1138   0.543   1.972   0.941
  277SOL    HW3 1139   0.530   1.954   0.791
  277SOL    MW4 1140   0.575   1.981   0.860
  278SOL     OW 1141   0.608   2.257   0.736
  278SOL    HW2 1142   0.684   2.304   0.771
  278SOL    HW3 1143   0.611   2.171   0.778
  278SOL    MW4 1144   0.619   2.252   0.746
  279SOL     OW 1145   0.402   2.423   0.703
  279SOL    HW2 1146   0.479   2.371   0.724
  279SOL    HW3 1147   0.398   2.422   0.607
  279SOL    MW4 1148   0.412   2.416   0.693
  280SOL     OW 1149   0.456   2.668   0.818
  280SOL    HW2 1150   0.454   2.577   0.788
  280SOL    HW3 1151   0.376   2.706   0.784
  280SOL    MW4 1152   0.445   2.661   0.810
  281SOL     OW 1153   0.698   2.818   0.760
  281SOL    HW2 1154   0.777   2.768   0.778
  281SOL    HW3 1155   0.626   2.759   0.784
  281SOL    MW4 1156   0.699   2.804   0.766
  282SOL     OW 1157   0.676   3.041   0.891
  282SOL    HW2 1158   0.605   3.085   0.845
  282SOL    HW3 1159   0.679   2.953   0.853
  282SOL    MW4 1160   0.667   3.035   0.880
  283SOL     OW 1161   0.464   3.166   0.762
  283SOL    HW2 1162   0.475   3.261   0.774
  283SOL    HW3 1163   0.370   3.151   0.768
  283SOL    MW4 1164   0.453   3.177   0.764
  284SOL     OW 1165   0.473   3.441   0.845
  284SOL    HW2 1166   0.465   3.456   0.939
  284SOL    HW3 1167   0.407   3.499   0.806
  284SOL    MW4 1168   0.464   3.451   0.852
  285SOL     OW 1169   0.693   3.558   0.737
  285SOL    HW2 1170   0.614   3.515   0.771
  285SOL    HW3 1171   0.676   3.652   0.746
  285SOL    MW4 1172   0.680   3.565   0.743
  286SOL     OW 1173   0.672   3.833   0.782
  286SOL    HW2 1174   0.749   3.889   0.767
  286SOL    HW3 1175   0.597   3.891   0.768
  286SOL    MW4 1176   0.672   3.848   0.778
  287SOL     OW 1177   0.461   4.011   0.692
  287SOL    HW2 1178   0.469   4.100   0.726
  287SOL    HW3 1179   0.387   3.973   0.740
  287SOL    MW4 1180   0.453   4.017   0.703
  288SOL     OW 1181   0.428   4.235   0.841
  288SOL    HW2 1182   0.426   4.238   0.936
  288SOL    HW3 1183   0.346   4.278   0.814
  288SOL    MW4 1184   0.417   4.241   0.850
  289SOL     OW 1185   0.648   4.347   0.716
  289SOL    HW2 1186   0.572   4.314   0.765
  289SOL    HW3 1187   0.645   4.442   0.727
  289SOL    MW4 1188   0.637   4.355   0.724
  290SOL     OW 1189   1.112   4.639   0.824
  290SOL    HW2 1190   1.202   4.667   0.804
  290SOL    HW3 1191   1.057   4.697   0.772
  290SOL    MW4 1192   1.117   4.651   0.815
  291SOL     OW 1193   0.909   0.109   0.680
  291SOL    HW2 1194   0.902   0.201   0.706
  291SOL    HW3 1195   0.827   0.069   0.708
  291SOL    MW4 1196   0.897   0.116   0.688
  292SOL     OW 1197   0.906   0.376   0.806
  292SOL    HW2 1198   0.916   0.372   0.902
  292SOL    HW3 1199   0.980   0.430   0.777
  292SOL    MW4 1200   0.918   0.383   0.815
  293SOL     OW 1201   1.151   0.463   0.702
  293SOL    HW2 1202   1.223   0.418   0.746
  293SOL    HW3 1203   1.169   0.452   0.609
  293SOL    MW4 1204   1.163   0.456   0.696
  294SOL     OW 1205   1.137   0.729   0.770
  294SOL    HW2 1206   1.127   0.732   0.865
  294SOL    HW3 1207   1.139   0.636   0.749
  294SOL    MW4 1208   1.136   0.717   0.780
  295SOL     OW 1209   0.908   0.863   0.679
  295SOL    HW2 1210   0.986   0.816   0.707
  295SOL    HW3 1211   0.836   0.824   0.729
  295SOL    MW4 1212   0.908   0.852   0.689
  296SOL     OW 1213   0.929   1.128   0.781
  296SOL    HW2 1214   0.931   1.037   0.751
  296SOL    HW3 1215   0.854   1.166   0.735
  296SOL    MW4 1216   0.919   1.121   0.771
  297SOL     OW 1217   1.176   1.232   0.739
  297SOL    HW2 1218   1.088   1.196   0.752
  297SOL    HW3 1219   1.191   1.224   0.645
  297SOL    MW4 1220   1.167   1.226   0.728
  298SOL     OW 1221   1.165   1.495   0.791
  298SOL    HW2 1222   1.071   1.510   0.804
  298SOL    HW3 1223   1.170   1.402   0.768
  298SOL    MW4 1224   1.153   1.484   0.789
  299SOL     OW 1225   0.905   1.541   0.751
  299SOL    HW2 1226   0.853   1.617   0.779
  299SOL    HW3 1227   0.840   1.475   0.729
  299SOL    MW4 1228   0.889   1.543   0.752
  300SOL     OW 1229   0.813   1.798   0.848
  300SOL    HW2 1230   0.883   1.850   0.888
  300SOL    HW3 1231   0.733   1.848   0.866
  300SOL    MW4 1232   0.811   1.812   0.856
  301SOL     OW 1233   1.062   2.036   0.680
  301SOL    HW2 1234   1.048   2.096   0.753
  301SOL    HW3 1235   0.975   2.001   0.661
  301SOL    MW4 1236   1.049   2.039   0.687
  302SOL     OW 1237   1.070   2.217   0.885
  302SOL    HW2 1238   1.072   2.241   0.978
  302SOL    HW3 1239   1.152   2.251   0.849
  302SOL    MW4 1240   1.081   2.225   0.893
  303SOL     OW 1241   0.824   2.372   0.860
  303SOL    HW2 1242   0.900   2.315   0.870
  303SOL    HW3 1243   0.772   2.356   0.938
  303SOL    MW4 1244   0.827   2.363   0.872
  304SOL     OW 1245   0.928   2.640   0.826
  304SOL    HW2 1246   0.930   2.666   0.918
  304SOL    HW3 1247   0.901   2.549   0.827
  304SOL    MW4 1248   0.925   2.632   0.838
  305SOL     OW 1249   1.148   2.797   0.732
  305SOL    HW2 1250   1.063   2.754   0.738
  305SOL    HW3 1251   1.168   2.798   0.639
  305SOL    MW4 1252   1.140   2.791   0.721
  306SOL     OW 1253   1.193   3.041   0.840
  306SOL    HW2 1254   1.109   3.078   0.812
  306SOL    HW3 1255   1.193   2.952   0.803
  306SOL    MW4 1256   1.182   3.034   0.831
  307SOL     OW 1257   0.936   3.146   0.777
  307SOL    HW2 1258   0.931   3.238   0.804
  307SOL    HW3 1259   0.862   3.105   0.821
  307SOL    MW4 1260   0.925   3.153   0.787
  308SOL     OW 1261   0.910   3.435   0.871
  308SOL    HW2 1262   0.977   3.498   0.845
  308SOL    HW3 1263   0.829   3.469   0.833
  308SOL    MW4 1264   0.908   3.448   0.862
  309SOL     OW 1265   1.124   3.570   0.769
  309SOL    HW2 1266   1.207   3.538   0.806
  309SOL    HW3 1267   1.121   3.533   0.681
  309SOL    MW4 1268   1.135   3.561   0.763
  310SOL     OW 1269   1.106   3.837   0.848
  310SOL    HW2 1270   1.116   3.838   0.944
  310SOL    HW3 1271   1.114   3.744   0.825
  310SOL    MW4 1272   1.108   3.825   0.858
  311SOL     OW 1273   0.912   3.972   0.709
  311SOL    HW2 1274   0.910   4.058   0.752
  311SOL    HW3 1275   0.978   3.923   0.757
  311SOL    MW4 1276   0.920   3.977   0.721
  312SOL     OW 1277   0.889   4.243   0.813
  312SOL    HW2 1278   0.964   4.295   0.785
  312SOL    HW3 1279   0.812   4.289   0.779
  312SOL    MW4 1280   0.888   4.256   0.805
  313SOL     OW 1281   1.118   4.373   0.739
  313SOL    HW2 1282   1.200   4.335   0.768
  313SOL    HW3 1283   1.113   4.457   0.784
  313SOL    MW4 1284   1.128   4.379   0.749
  314SOL     OW 1285   1.589   4.563   0.864
  314SOL    HW2 1286   1.560   4.542   0.953
  314SOL    HW3 1287   1.517   4.613   0.825
  314SOL    MW4 1288   1.576   4.567   0.871
  315SOL     OW 1289   1.383   0.059   0.778
  315SOL    HW2 1290   1.391   0.149   0.812
  315SOL    HW3 1291   1.381   0.070   0.683
  315SOL    MW4 1292   1.384   0.072   0.770
  316SOL     OW 1293   1.367   0.330   0.820
  316SOL    HW2 1294   1.387   0.347   0.912
  316SOL    HW3 1295   1.442   0.365   0.772
  316SOL    MW4 1296   1.380   0.337   0.826
  317SOL     OW 1297   1.579   0.489   0.704
  317SOL    HW2 1298   1.571   0.575   0.745
  317SOL    HW3 1299   1.636   0.439   0.762
  317SOL    MW4 1300   1.585   0.494   0.717
  318SOL     OW 1301   1.546   0.736   0.838
  318SOL    HW2 1302   1.630   0.777   0.816
  318SOL    HW3 1303   1.482   0.785   0.786
  318SOL    MW4 1304   1.549   0.748   0.828
  319SOL     OW 1305   1.337   0.873   0.683
  319SOL    HW2 1306   1.337   0.949   0.742
  319SOL    HW3 1307   1.256   0.827   0.703
  319SOL    MW4 1308   1.327   0.877   0.693
  320SOL     OW 1309   1.396   1.094   0.834
  320SOL    HW2 1310   1.475   1.143   0.810
  320SOL    HW3 1311   1.325   1.143   0.794
  320SOL    MW4 1312   1.397   1.107   0.825
  321SOL     OW 1313   1.606   1.236   0.730
  321SOL    HW2 1314   1.574   1.325   0.713
  321SOL    HW3 1315   1.630   1.202   0.644
  321SOL    MW4 1316   1.605   1.243   0.716
  322SOL     OW 1317   1.740   1.622   0.816
  322SOL    HW2 1318   1.681   1.616   0.891
  322SOL    HW3 1319   1.810   1.561   0.835
  322SOL    MW4 1320   1.741   1.613   0.829
  323SOL     OW 1321   1.249   1.685   0.615
  323SOL    HW2 1322   1.271   1.762   0.667
  323SOL    HW3 1323   1.213   1.623   0.678
  323SOL    MW4 1324   1.247   1.687   0.630
  324SOL     OW 1325   1.297   1.897   0.788
  324SOL    HW2 1326   1.309   1.896   0.883
  324SOL    HW3 1327   1.215   1.944   0.774
  324SOL    MW4 1328   1.288   1.903   0.798
  325SOL     OW 1329   1.542   2.000   0.716
  325SOL    HW2 1330   1.469   1.955   0.758
  325SOL    HW3 1331   1.529   1.987   0.622
  325SOL    MW4 1332   1.531   1.993   0.709
  326SOL     OW 1333   1.550   2.261   0.842
  326SOL    HW2 1334   1.466   2.305   0.832
  326SOL    HW3 1335   1.549   2.191   0.778
  326SOL    MW4 1336   1.539   2.258   0.832
  327SOL     OW 1337   1.302   2.364   0.785
  327SOL    HW2 1338   1.319   2.455   0.811
  327SOL    HW3 1339   1.251   2.371   0.705
  327SOL    MW4 1340   1.297   2.377   0.778
  328SOL     OW 1341   1.337   2.618   0.881
  328SOL    HW2 1342   1.361   2.613   0.973
  328SOL    HW3 1343   1.269   2.685   0.877
  328SOL    MW4 1344   1.331   2.626   0.892
  329SOL     OW 1345   1.570   2.749   0.793
  329SOL    HW2 1346   1.573   2.839   0.827
  329SOL    HW3 1347   1.483   2.718   0.815
  329SOL    MW4 1348   1.559   2.757   0.800
  330SOL     OW 1349   1.598   3.038   0.851
  330SOL    HW2 1350   1.571   3.049   0.942
  330SOL    HW3 1351   1.530   3.082   0.800
  330SOL    MW4 1352   1.585   3.046   0.857
  331SOL     OW 1353   1.385   3.203   0.731
  331SOL    HW2 1354   1.320   3.135   0.748
  331SOL    HW3 1355   1.406   3.192   0.638
  331SOL    MW4 1356   1.379   3.192   0.721
  332SOL     OW 1357   1.366   3.445   0.857
  332SOL    HW2 1358   1.442   3.501   0.840
  332SOL    HW3 1359   1.385   3.364   0.811
  332SOL    MW4 1360   1.379   3.442   0.849
  333SOL     OW 1361   1.594   3.577   0.815
  333SOL    HW2 1362   1.681   3.546   0.840
  333SOL    HW3 1363   1.592   3.567   0.720
  333SOL    MW4 1364   1.605   3.572   0.806
  334SOL     OW 1365   1.577   3.847   0.899
  334SOL    HW2 1366   1.507   3.876   0.840
  334SOL    HW3 1367   1.589   3.754   0.878
  334SOL    MW4 1368   1.569   3.839   0.888
  335SOL     OW 1369   1.346   3.934   0.756
  335SOL    HW2 1370   1.267   3.890   0.789
  335SOL    HW3 1371   1.358   3.898   0.668
  335SOL    MW4 1372   1.337   3.924   0.749
  336SOL     OW 1373   1.366   4.223   0.797
  336SOL    HW2 1374   1.448   4.259   0.765
  336SOL    HW3 1375   1.368   4.131   0.769
  336SOL    MW4 1376   1.377   4.215   0.790
  337SOL     OW 1377   1.607   4.331   0.730
  337SOL    HW2 1378   1.674   4.282   0.778
  337SOL    HW3 1379   1.605   4.417   0.773
  337SOL    MW4 1380   1.616   4.336   0.742
  338SOL     OW 1381   1.794   0.074   0.772
  338SOL    HW2 1382   1.860   0.038   0.713
  338SOL    HW3 1383   1.745  -0.003   0.802
  338SOL    MW4 1384   1.796   0.059   0.768
  339SOL     OW 1385   1.666   0.142   0.518
  339SOL    HW2 1386   1.577   0.107   0.520
  339SOL    HW3 1387   1.700   0.125   0.606
  339SOL    MW4 1388   1.659   0.135   0.530
  340SOL     OW 1389   1.738   0.332   0.855
  340SOL    HW2 1390   1.748   0.242   0.823
  340SOL    HW3 1391   1.827   0.369   0.850
  340SOL    MW4 1392   1.751   0.325   0.850
  341SOL     OW 1393   1.987   0.460   0.755
  341SOL    HW2 1394   1.998   0.469   0.660
  341SOL    HW3 1395   2.073   0.433   0.786
  341SOL    MW4 1396   2.000   0.458   0.747
  342SOL     OW 1397   2.023   0.722   0.837
  342SOL    HW2 1398   2.103   0.753   0.795
  342SOL    HW3 1399   2.019   0.629   0.814
  342SOL    MW4 1400   2.033   0.714   0.828
  343SOL     OW 1401   1.791   0.854   0.780
  343SOL    HW2 1402   1.803   0.944   0.810
  343SOL    HW3 1403   1.871   0.808   0.807
  343SOL    MW4 1404   1.803   0.860   0.787
  344SOL     OW 1405   1.837   1.121   0.842
  344SOL    HW2 1406   1.899   1.165   0.783
  344SOL    HW3 1407   1.752   1.159   0.820
  344SOL    MW4 1408   1.834   1.132   0.831
  345SOL     OW 1409   2.019   1.263   0.697
  345SOL    HW2 1410   2.103   1.218   0.698
  345SOL    HW3 1411   2.007   1.289   0.606
  345SOL    MW4 1412   2.029   1.261   0.685
  346SOL     OW 1413   1.992   1.487   0.858
  346SOL    HW2 1414   2.056   1.547   0.819
  346SOL    HW3 1415   1.999   1.407   0.806
  346SOL    MW4 1416   2.001   1.485   0.846
  347SOL     OW 1417   1.775   1.307   0.299
  347SOL    HW2 1418   1.707   1.372   0.319
  347SOL    HW3 1419   1.754   1.277   0.211
  347SOL    MW4 1420   1.763   1.312   0.290
  348SOL     OW 1421   1.791   1.922   0.846
  348SOL    HW2 1422   1.791   1.828   0.829
  348SOL    HW3 1423   1.717   1.955   0.796
  348SOL    MW4 1424   1.781   1.914   0.837
  349SOL     OW 1425   2.037   2.064   0.813
  349SOL    HW2 1426   2.045   2.149   0.856
  349SOL    HW3 1427   1.957   2.026   0.850
  349SOL    MW4 1428   2.028   2.070   0.824
  350SOL     OW 1429   2.033   2.319   0.905
  350SOL    HW2 1430   2.010   2.312   0.998
  350SOL    HW3 1431   1.953   2.349   0.863
  350SOL    MW4 1432   2.020   2.322   0.912
  351SOL     OW 1433   1.785   2.396   0.747
  351SOL    HW2 1434   1.701   2.364   0.778
  351SOL    HW3 1435   1.805   2.343   0.671
  351SOL    MW4 1436   1.777   2.385   0.741
  352SOL     OW 1437   1.825   2.661   0.830
  352SOL    HW2 1438   1.818   2.569   0.804
  352SOL    HW3 1439   1.736   2.695   0.823
  352SOL    MW4 1440   1.812   2.653   0.826
  353SOL     OW 1441   2.055   2.811   0.786
  353SOL    HW2 1442   2.133   2.760   0.809
  353SOL    HW3 1443   1.982   2.754   0.810
  353SOL    MW4 1444   2.056   2.796   0.792
  354SOL     OW 1445   2.072   3.070   0.840
  354SOL    HW2 1446   1.995   3.108   0.798
  354SOL    HW3 1447   2.071   2.978   0.814
  354SOL    MW4 1448   2.062   3.063   0.831
  355SOL     OW 1449   1.824   3.177   0.696
  355SOL    HW2 1450   1.775   3.115   0.750
  355SOL    HW3 1451   1.796   3.157   0.606
  355SOL    MW4 1452   1.814   3.167   0.691
  356SOL     OW 1453   1.850   3.435   0.809
  356SOL    HW2 1454   1.844   3.426   0.904
  356SOL    HW3 1455   1.831   3.347   0.776
  356SOL    MW4 1456   1.846   3.422   0.817
  357SOL     OW 1457   2.097   3.563   0.701
  357SOL    HW2 1458   2.102   3.647   0.747
  357SOL    HW3 1459   2.020   3.520   0.737
  357SOL    MW4 1460   2.088   3.569   0.712
  358SOL     OW 1461   2.030   3.803   0.824
  358SOL    HW2 1462   2.042   3.814   0.918
  358SOL    HW3 1463   1.951   3.853   0.803
  358SOL    MW4 1464   2.021   3.811   0.834
  359SOL     OW 1465   1.802   3.945   0.768
  359SOL    HW2 1466   1.722   3.925   0.816
  359SOL    HW3 1467   1.798   3.890   0.690
  359SOL    MW4 1468   1.791   3.935   0.764
  360SOL     OW 1469   1.808   4.207   0.860
  360SOL    HW2 1470   1.812   4.199   0.956
  360SOL    HW3 1471   1.819   4.118   0.828
  360SOL    MW4 1472   1.810   4.194   0.869
  361SOL     OW 1473   2.038   4.339   0.731
  361SOL    HW2 1474   1.960   4.306   0.777
  361SOL    HW3 1475   2.035   4.297   0.646
  361SOL    MW4 1476   2.027   4.329   0.726
  362SOL     OW 1477   2.600   0.075   0.760
  362SOL    HW2 1478   2.599   0.093   0.666
  362SOL    HW3 1479   2.641   0.152   0.799
  362SOL    MW4 1480   2.605   0.088   0.753
  363SOL     OW 1481   2.409   4.585   0.879
  363SOL    HW2 1482   2.474   4.636   0.831
  363SOL    HW3 1483   2.420   4.612   0.971
  363SOL    MW4 1484   2.419   4.595   0.885
  364SOL     OW 1485   2.233   0.357   0.866
  364SOL    HW2 1486   2.316   0.382   0.825
  364SOL    HW3 1487   2.226   0.263   0.849
  364SOL    MW4 1488   2.243   0.348   0.858
  365SOL     OW 1489   2.476   0.451   0.741
  365SOL    HW2 1490   2.460   0.413   0.654
  365SOL    HW3 1491   2.550   0.402   0.775
  365SOL    MW4 1492   2.483   0.439   0.734
  366SOL     OW 1493   2.451   0.719   0.666
  366SOL    HW2 1494   2.506   0.738   0.590
  366SOL    HW3 1495   2.456   0.624   0.675
  366SOL    MW4 1496   2.459   0.709   0.657
  367SOL     OW 1497   2.218   0.849   0.673
  367SOL    HW2 1498   2.300   0.801   0.667
  367SOL    HW3 1499   2.215   0.903   0.594
  367SOL    MW4 1500   2.228   0.850   0.662
  368SOL     OW 1501   2.220   1.120   0.818
  368SOL    HW2 1502   2.209   1.144   0.910
  368SOL    HW3 1503   2.187   1.030   0.812
  368SOL    MW4 1504   2.214   1.111   0.830
  369SOL     OW 1505   2.473   1.236   0.772
  369SOL    HW2 1506   2.387   1.196   0.784
  369SOL    HW3 1507   2.488   1.235   0.677
  369SOL    MW4 1508   2.464   1.230   0.761
  370SOL     OW 1509   2.419   1.512   0.754
  370SOL    HW2 1510   2.510   1.537   0.737
  370SOL    HW3 1511   2.424   1.421   0.784
  370SOL    MW4 1512   2.431   1.504   0.755
  371SOL     OW 1513   2.179   1.655   0.723
  371SOL    HW2 1514   2.263   1.609   0.729
  371SOL    HW3 1515   2.167   1.669   0.629
  371SOL    MW4 1516   2.188   1.651   0.711
  372SOL     OW 1517   2.241   1.900   0.869
  372SOL    HW2 1518   2.217   1.823   0.819
  372SOL    HW3 1519   2.174   1.965   0.848
  372SOL    MW4 1520   2.229   1.899   0.860
  373SOL     OW 1521   2.459   2.042   0.722
  373SOL    HW2 1522   2.391   1.983   0.756
  373SOL    HW3 1523   2.462   2.023   0.628
  373SOL    MW4 1524   2.450   2.032   0.714
  374SOL     OW 1525   2.485   2.299   0.860
  374SOL    HW2 1526   2.565   2.339   0.825
  374SOL    HW3 1527   2.474   2.219   0.809
  374SOL    MW4 1528   2.494   2.294   0.848
  375SOL     OW 1529   2.268   2.419   0.740
  375SOL    HW2 1530   2.345   2.387   0.786
  375SOL    HW3 1531   2.194   2.379   0.785
  375SOL    MW4 1532   2.268   2.410   0.752
  376SOL     OW 1533   2.297   2.692   0.844
  376SOL    HW2 1534   2.294   2.689   0.940
  376SOL    HW3 1535   2.289   2.601   0.817
  376SOL    MW4 1536   2.296   2.680   0.853
  377SOL     OW 1537   2.542   2.824   0.725
  377SOL    HW2 1538   2.597   2.775   0.786
  377SOL    HW3 1539   2.453   2.795   0.744
  377SOL    MW4 1540   2.538   2.814   0.736
  378SOL     OW 1541   2.543   3.090   0.812
  378SOL    HW2 1542   2.507   3.085   0.900
  378SOL    HW3 1543   2.564   3.000   0.788
  378SOL    MW4 1544   2.541   3.078   0.820
  379SOL     OW 1545   2.304   3.153   0.692
  379SOL    HW2 1546   2.233   3.141   0.756
  379SOL    HW3 1547   2.384   3.137   0.743
  379SOL    MW4 1548   2.305   3.149   0.707
  380SOL     OW 1549   2.326   3.429   0.810
  380SOL    HW2 1550   2.336   3.342   0.772
  380SOL    HW3 1551   2.252   3.467   0.764
  380SOL    MW4 1552   2.318   3.423   0.799
  381SOL     OW 1553   2.512   3.625   0.760
  381SOL    HW2 1554   2.594   3.596   0.800
  381SOL    HW3 1555   2.451   3.553   0.774
  381SOL    MW4 1556   2.515   3.612   0.767
  382SOL     OW 1557   2.499   3.908   0.805
  382SOL    HW2 1558   2.415   3.918   0.761
  382SOL    HW3 1559   2.509   3.813   0.815
  382SOL    MW4 1560   2.489   3.897   0.801
  383SOL     OW 1561   2.234   3.966   0.707
  383SOL    HW2 1562   2.164   3.920   0.753
  383SOL    HW3 1563   2.201   3.975   0.617
  383SOL    MW4 1564   2.220   3.961   0.701
  384SOL     OW 1565   2.263   4.219   0.825
  384SOL    HW2 1566   2.262   4.133   0.782
  384SOL    HW3 1567   2.183   4.261   0.796
  384SOL    MW4 1568   2.253   4.213   0.815
  385SOL     OW 1569   2.517   4.319   0.820
  385SOL    HW2 1570   2.508   4.408   0.852
  385SOL    HW3 1571   2.427   4.286   0.816
  385SOL    MW4 1572   2.504   4.326   0.824
  386SOL     OW 1573   2.833   4.615   0.865
  386SOL    HW2 1574   2.822   4.521   0.853
  386SOL    HW3 1575   2.750   4.653   0.837
  386SOL    MW4 1576   2.821   4.608   0.859
  387SOL     OW 1577   2.675   4.471   0.586
  387SOL    HW2 1578   2.716   4.498   0.504
  387SOL    HW3 1579   2.585   4.503   0.579
  387SOL    MW4 1580   2.668   4.479   0.574
  388SOL     OW 1581   2.698   0.316   0.874
  388SOL    HW2 1582   2.688   0.335   0.967
  388SOL    HW3 1583   2.784   0.352   0.851
  388SOL    MW4 1584   2.708   0.323   0.883
  389SOL     OW 1585   2.896   0.487   0.772
  389SOL    HW2 1586   2.980   0.451   0.800
  389SOL    HW3 1587   2.917   0.538   0.693
  389SOL    MW4 1588   2.910   0.489   0.765
  390SOL     OW 1589   2.874   0.751   0.887
  390SOL    HW2 1590   2.897   0.757   0.980
  390SOL    HW3 1591   2.891   0.660   0.864
  390SOL    MW4 1592   2.879   0.740   0.896
  391SOL     OW 1593   2.599   0.830   0.878
  391SOL    HW2 1594   2.688   0.796   0.863
  391SOL    HW3 1595   2.546   0.788   0.811
  391SOL    MW4 1596   2.604   0.820   0.867
  392SOL     OW 1597   2.675   1.087   0.911
  392SOL    HW2 1598   2.644   0.997   0.909
  392SOL    HW3 1599   2.601   1.139   0.880
  392SOL    MW4 1600   2.661   1.082   0.906
  393SOL     OW 1601   2.882   1.192   0.772
  393SOL    HW2 1602   2.965   1.159   0.804
  393SOL    HW3 1603   2.816   1.135   0.813
  393SOL    MW4 1604   2.884   1.180   0.782
  394SOL     OW 1605   2.884   1.477   0.844
  394SOL    HW2 1606   2.969   1.494   0.804
  394SOL    HW3 1607   2.867   1.384   0.827
  394SOL    MW4 1608   2.893   1.467   0.837
  395SOL     OW 1609   2.681   1.613   0.731
  395SOL    HW2 1610   2.695   1.703   0.758
  395SOL    HW3 1611   2.752   1.564   0.773
  395SOL    MW4 1612   2.692   1.618   0.740
  396SOL     OW 1613   2.679   1.887   0.826
  396SOL    HW2 1614   2.691   1.896   0.920
  396SOL    HW3 1615   2.600   1.938   0.807
  396SOL    MW4 1616   2.670   1.895   0.836
  397SOL     OW 1617   2.856   2.050   0.666
  397SOL    HW2 1618   2.894   2.119   0.721
  397SOL    HW3 1619   2.793   2.006   0.723
  397SOL    MW4 1620   2.853   2.054   0.681
  398SOL     OW 1621   2.938   2.270   0.822
  398SOL    HW2 1622   2.956   2.293   0.913
  398SOL    HW3 1623   2.848   2.300   0.808
  398SOL    MW4 1624   2.928   2.277   0.832
  399SOL     OW 1625   2.706   2.426   0.758
  399SOL    HW2 1626   2.710   2.443   0.663
  399SOL    HW3 1627   2.701   2.513   0.797
  399SOL    MW4 1628   2.706   2.440   0.750
  400SOL     OW 1629   2.731   2.692   0.873
  400SOL    HW2 1630   2.737   2.713   0.966
  400SOL    HW3 1631   2.809   2.730   0.834
  400SOL    MW4 1632   2.742   2.700   0.880
  401SOL     OW 1633   2.935   2.770   0.483
  401SOL    HW2 1634   2.932   2.688   0.434
  401SOL    HW3 1635   2.863   2.823   0.447
  401SOL    MW4 1636   2.925   2.766   0.472
  402SOL     OW 1637   2.950   3.114   0.806
  402SOL    HW2 1638   2.879   3.169   0.774
  402SOL    HW3 1639   2.929   3.026   0.773
  402SOL    MW4 1640   2.938   3.110   0.797
  403SOL     OW 1641   2.754   3.253   0.706
  403SOL    HW2 1642   2.737   3.331   0.758
  403SOL    HW3 1643   2.681   3.194   0.724
  403SOL    MW4 1644   2.742   3.255   0.715
  404SOL     OW 1645   2.756   3.494   0.841
  404SOL    HW2 1646   2.747   3.488   0.936
  404SOL    HW3 1647   2.838   3.540   0.827
  404SOL    MW4 1648   2.765   3.499   0.851
  405SOL     OW 1649   2.986   3.636   0.764
  405SOL    HW2 1650   2.984   3.728   0.789
  405SOL    HW3 1651   2.970   3.636   0.670
  405SOL    MW4 1652   2.984   3.648   0.755
  406SOL     OW 1653   2.965   3.901   0.828
  406SOL    HW2 1654   2.954   3.883   0.922
  406SOL    HW3 1655   2.880   3.932   0.800
  406SOL    MW4 1656   2.953   3.902   0.837
  407SOL     OW 1657   2.745   4.000   0.707
  407SOL    HW2 1658   2.661   3.963   0.735
  407SOL    HW3 1659   2.774   3.942   0.637
  407SOL    MW4 1660   2.738   3.987   0.702
  408SOL     OW 1661   2.832   4.337   0.836
  408SOL    HW2 1662   2.792   4.307   0.917
  408SOL    HW3 1663   2.926   4.319   0.848
  408SOL    MW4 1664   2.839   4.330   0.848
  409SOL     OW 1665   3.040   4.402   0.399
  409SOL    HW2 1666   3.123   4.395   0.444
  409SOL    HW3 1667   2.978   4.354   0.454
  409SOL    MW4 1668   3.043   4.395   0.412
  410SOL     OW 1669   3.370   0.021   0.876
  410SOL    HW2 1670   3.374  -0.006   0.968
  410SOL    HW3 1671   3.278   0.042   0.861
  410SOL    MW4 1672   3.359   0.020   0.886
  411SOL     OW 1673   3.085   0.085   0.821
  411SOL    HW2 1674   3.078   0.173   0.857
  411SOL    HW3 1675   3.002   0.043   0.842
  411SOL    MW4 1676   3.073   0.091   0.828
  412SOL     OW 1677   3.119   0.357   0.863
  412SOL    HW2 1678   3.137   0.363   0.957
  412SOL    HW3 1679   3.202   0.382   0.822
  412SOL    MW4 1680   3.132   0.361   0.870
  413SOL     OW 1681   3.349   0.463   0.730
  413SOL    HW2 1682   3.430   0.420   0.758
  413SOL    HW3 1683   3.325   0.420   0.649
  413SOL    MW4 1684   3.357   0.452   0.723
  414SOL     OW 1685   3.359   0.730   0.858
  414SOL    HW2 1686   3.276   0.773   0.838
  414SOL    HW3 1687   3.354   0.646   0.812
  414SOL    MW4 1688   3.347   0.725   0.849
  415SOL     OW 1689   3.111   0.833   0.753
  415SOL    HW2 1690   3.133   0.925   0.772
  415SOL    HW3 1691   3.041   0.812   0.815
  415SOL    MW4 1692   3.105   0.843   0.764
  416SOL     OW 1693   3.127   1.103   0.835
  416SOL    HW2 1694   3.142   1.126   0.927
  416SOL    HW3 1695   3.188   1.159   0.786
  416SOL    MW4 1696   3.137   1.113   0.841
  417SOL     OW 1697   3.363   1.220   0.752
  417SOL    HW2 1698   3.447   1.187   0.787
  417SOL    HW3 1699   3.359   1.311   0.780
  417SOL    MW4 1700   3.374   1.227   0.760
  418SOL     OW 1701   3.408   1.474   0.836
  418SOL    HW2 1702   3.402   1.489   0.931
  418SOL    HW3 1703   3.485   1.525   0.809
  418SOL    MW4 1704   3.417   1.483   0.845
  419SOL     OW 1705   3.146   1.566   0.748
  419SOL    HW2 1706   3.239   1.544   0.747
  419SOL    HW3 1707   3.126   1.592   0.658
  419SOL    MW4 1708   3.155   1.567   0.736
  420SOL     OW 1709   3.220   1.830   0.844
  420SOL    HW2 1710   3.188   1.854   0.931
  420SOL    HW3 1711   3.198   1.737   0.835
  420SOL    MW4 1712   3.213   1.821   0.854
  421SOL     OW 1713   3.480   1.959   0.877
  421SOL    HW2 1714   3.483   2.054   0.880
  421SOL    HW3 1715   3.387   1.937   0.881
  421SOL    MW4 1716   3.468   1.968   0.878
  422SOL     OW 1717   3.475   2.231   0.862
  422SOL    HW2 1718   3.421   2.277   0.926
  422SOL    HW3 1719   3.556   2.282   0.856
  422SOL    MW4 1720   3.479   2.244   0.869
  423SOL     OW 1721   3.094   2.445   0.678
  423SOL    HW2 1722   3.173   2.400   0.649
  423SOL    HW3 1723   3.051   2.383   0.737
  423SOL    MW4 1724   3.099   2.431   0.682
  424SOL     OW 1725   3.159   2.683   0.837
  424SOL    HW2 1726   3.126   2.604   0.793
  424SOL    HW3 1727   3.198   2.735   0.767
  424SOL    MW4 1728   3.159   2.679   0.822
  425SOL     OW 1729   3.320   2.862   0.665
  425SOL    HW2 1730   3.277   2.885   0.583
  425SOL    HW3 1731   3.399   2.815   0.639
  425SOL    MW4 1732   3.325   2.859   0.651
  426SOL     OW 1733   3.431   3.081   0.815
  426SOL    HW2 1734   3.416   3.065   0.908
  426SOL    HW3 1735   3.407   2.998   0.772
  426SOL    MW4 1736   3.426   3.068   0.822
  427SOL     OW 1737   3.187   3.234   0.742
  427SOL    HW2 1738   3.263   3.208   0.795
  427SOL    HW3 1739   3.112   3.196   0.787
  427SOL    MW4 1740   3.187   3.226   0.755
  428SOL     OW 1741   3.215   3.488   0.807
  428SOL    HW2 1742   3.198   3.397   0.782
  428SOL    HW3 1743   3.137   3.535   0.779
  428SOL    MW4 1744   3.202   3.482   0.800
  429SOL     OW 1745   3.320   4.402   0.495
  429SOL    HW2 1746   3.327   4.309   0.472
  429SOL    HW3 1747   3.381   4.446   0.437
  429SOL    MW4 1748   3.329   4.395   0.485
  430SOL     OW 1749   3.445   3.919   0.834
  430SOL    HW2 1750   3.456   4.013   0.849
  430SOL    HW3 1751   3.413   3.885   0.917
  430SOL    MW4 1752   3.442   3.927   0.847
  431SOL     OW 1753   3.109   4.083   0.683
  431SOL    HW2 1754   3.189   4.039   0.652
  431SOL    HW3 1755   3.064   4.016   0.735
  431SOL    MW4 1756   3.113   4.068   0.686
  432SOL     OW 1757   3.108   4.292   0.873
  432SOL    HW2 1758   3.177   4.350   0.842
  432SOL    HW3 1759   3.113   4.216   0.816
  432SOL    MW4 1760   3.118   4.290   0.861
  433SOL     OW 1761   3.354   4.408   0.766
  433SOL    HW2 1762   3.367   4.500   0.788
  433SOL    HW3 1763   3.337   4.409   0.671
  433SOL    MW4 1764   3.353   4.420   0.756
  434SOL     OW 1765   3.785   4.603   0.824
  434SOL    HW2 1766   3.863   4.655   0.805
  434SOL    HW3 1767   3.714   4.647   0.778
  434SOL    MW4 1768   3.786   4.615   0.816
  435SOL     OW 1769   3.587   0.079   0.709
  435SOL    HW2 1770   3.509   0.056   0.759
  435SOL    HW3 1771   3.561   0.071   0.617
  435SOL    MW4 1772   3.573   0.075   0.704
  436SOL     OW 1773   3.575   0.336   0.823
  436SOL    HW2 1774   3.565   0.336   0.918
  436SOL    HW3 1775   3.569   0.244   0.798
  436SOL    MW4 1776   3.573   0.324   0.832
  437SOL     OW 1777   3.811   0.492   0.736
  437SOL    HW2 1778   3.788   0.575   0.778
  437SOL    HW3 1779   3.747   0.430   0.770
  437SOL    MW4 1780   3.799   0.495   0.746
  438SOL     OW 1781   3.800   0.741   0.854
  438SOL    HW2 1782   3.805   0.723   0.947
  438SOL    HW3 1783   3.882   0.787   0.834
  438SOL    MW4 1784   3.812   0.745   0.864
  439SOL     OW 1785   3.602   0.888   0.732
  439SOL    HW2 1786   3.664   0.824   0.764
  439SOL    HW3 1787   3.521   0.870   0.781
  439SOL    MW4 1788   3.599   0.877   0.743
  440SOL     OW 1789   3.630   1.139   0.839
  440SOL    HW2 1790   3.628   1.117   0.932
  440SOL    HW3 1791   3.632   1.054   0.795
  440SOL    MW4 1792   3.630   1.125   0.846
  441SOL     OW 1793   3.851   1.278   0.773
  441SOL    HW2 1794   3.772   1.232   0.802
  441SOL    HW3 1795   3.839   1.288   0.678
  441SOL    MW4 1796   3.839   1.273   0.764
  442SOL     OW 1797   3.827   1.536   0.861
  442SOL    HW2 1798   3.896   1.582   0.815
  442SOL    HW3 1799   3.843   1.443   0.841
  442SOL    MW4 1800   3.838   1.530   0.852
  443SOL     OW 1801   3.617   1.584   0.673
  443SOL    HW2 1802   3.625   1.678   0.660
  443SOL    HW3 1803   3.691   1.561   0.729
  443SOL    MW4 1804   3.628   1.593   0.679
  444SOL     OW 1805   3.850   1.962   0.572
  444SOL    HW2 1806   3.926   1.961   0.631
  444SOL    HW3 1807   3.782   1.916   0.620
  444SOL    MW4 1808   3.851   1.956   0.586
  445SOL     OW 1809   3.768   2.248   0.597
  445SOL    HW2 1810   3.747   2.272   0.688
  445SOL    HW3 1811   3.798   2.157   0.603
  445SOL    MW4 1812   3.769   2.239   0.610
  446SOL     OW 1813   4.091   1.668   0.449
  446SOL    HW2 1814   4.021   1.662   0.384
  446SOL    HW3 1815   4.122   1.758   0.443
  446SOL    MW4 1816   4.086   1.679   0.440
  447SOL     OW 1817   3.706   2.374   0.822
  447SOL    HW2 1818   3.702   2.468   0.836
  447SOL    HW3 1819   3.718   2.337   0.910
  447SOL    MW4 1820   3.707   2.381   0.835
  448SOL     OW 1821   3.650   2.641   0.836
  448SOL    HW2 1822   3.665   2.660   0.929
  448SOL    HW3 1823   3.712   2.696   0.789
  448SOL    MW4 1824   3.660   2.651   0.842
  449SOL     OW 1825   3.841   2.836   0.768
  449SOL    HW2 1826   3.798   2.910   0.812
  449SOL    HW3 1827   3.859   2.869   0.679
  449SOL    MW4 1828   3.838   2.850   0.762
  450SOL     OW 1829   3.710   3.065   0.868
  450SOL    HW2 1830   3.753   3.140   0.828
  450SOL    HW3 1831   3.618   3.074   0.844
  450SOL    MW4 1832   3.703   3.076   0.859
  451SOL     OW 1833   3.438   3.489   0.621
  451SOL    HW2 1834   3.437   3.398   0.591
  451SOL    HW3 1835   3.377   3.491   0.694
  451SOL    MW4 1836   3.430   3.477   0.626
  452SOL     OW 1837   3.677   3.516   0.799
  452SOL    HW2 1838   3.742   3.446   0.789
  452SOL    HW3 1839   3.607   3.492   0.739
  452SOL    MW4 1840   3.677   3.503   0.790
  453SOL     OW 1841   3.847   3.608   0.592
  453SOL    HW2 1842   3.770   3.595   0.648
  453SOL    HW3 1843   3.921   3.600   0.652
  453SOL    MW4 1844   3.846   3.605   0.607
  454SOL     OW 1845   3.693   3.803   0.850
  454SOL    HW2 1846   3.603   3.831   0.835
  454SOL    HW3 1847   3.691   3.708   0.837
  454SOL    MW4 1848   3.681   3.794   0.846
  455SOL     OW 1849   2.597   4.036   0.164
  455SOL    HW2 1850   2.629   4.041   0.074
  455SOL    HW3 1851   2.544   4.115   0.175
  455SOL    MW4 1852   2.594   4.047   0.154
  456SOL     OW 1853   3.506   4.192   0.853
  456SOL    HW2 1854   3.576   4.197   0.789
  456SOL    HW3 1855   3.457   4.274   0.842
  456SOL    MW4 1856   3.509   4.204   0.843
  457SOL     OW 1857   3.850   4.402   0.635
  457SOL    HW2 1858   3.807   4.321   0.662
  457SOL    HW3 1859   3.813   4.469   0.692
  457SOL    MW4 1860   3.840   4.400   0.646
  458SOL     OW 1861   4.230   4.586   0.818
  458SOL    HW2 1862   4.231   4.615   0.910
  458SOL    HW3 1863   4.164   4.642   0.776
  458SOL    MW4 1864   4.221   4.598   0.825
  459SOL     OW 1865   4.024   0.073   0.727
  459SOL    HW2 1866   4.023   0.159   0.770
  459SOL    HW3 1867   4.021   0.094   0.634
  459SOL    MW4 1868   4.024   0.087   0.721
  460SOL     OW 1869   4.036   0.334   0.829
  460SOL    HW2 1870   4.117   0.372   0.794
  460SOL    HW3 1871   3.966   0.388   0.792
  460SOL    MW4 1872   4.037   0.346   0.820
  461SOL     OW 1873   4.242   0.465   0.722
  461SOL    HW2 1874   4.318   0.428   0.766
  461SOL    HW3 1875   4.249   0.433   0.632
  461SOL    MW4 1876   4.253   0.456   0.716
  462SOL     OW 1877   4.264   0.705   0.836
  462SOL    HW2 1878   4.195   0.766   0.810
  462SOL    HW3 1879   4.240   0.622   0.793
  462SOL    MW4 1880   4.252   0.702   0.827
  463SOL     OW 1881   4.030   0.850   0.757
  463SOL    HW2 1882   4.028   0.943   0.777
  463SOL    HW3 1883   4.055   0.845   0.665
  463SOL    MW4 1884   4.033   0.862   0.748
  464SOL     OW 1885   4.057   1.113   0.830
  464SOL    HW2 1886   4.061   1.116   0.926
  464SOL    HW3 1887   3.983   1.170   0.808
  464SOL    MW4 1888   4.048   1.121   0.840
  465SOL     OW 1889   4.275   1.268   0.697
  465SOL    HW2 1890   4.193   1.222   0.716
  465SOL    HW3 1891   4.343   1.215   0.739
  465SOL    MW4 1892   4.273   1.255   0.705
  466SOL     OW 1893   4.262   1.525   0.810
  466SOL    HW2 1894   4.257   1.507   0.904
  466SOL    HW3 1895   4.248   1.440   0.768
  466SOL    MW4 1896   4.259   1.511   0.817
  467SOL     OW 1897   4.041   1.648   0.723
  467SOL    HW2 1898   4.122   1.607   0.755
  467SOL    HW3 1899   4.054   1.655   0.628
  467SOL    MW4 1900   4.053   1.643   0.715
  468SOL     OW 1901   4.035   1.914   0.781
  468SOL    HW2 1902   4.044   1.820   0.769
  468SOL    HW3 1903   4.125   1.948   0.774
  468SOL    MW4 1904   4.048   1.906   0.779
  469SOL     OW 1905   4.282   2.029   0.732
  469SOL    HW2 1906   4.354   1.990   0.782
  469SOL    HW3 1907   4.307   2.019   0.641
  469SOL    MW4 1908   4.294   2.022   0.727
  470SOL     OW 1909   4.192   2.284   0.797
  470SOL    HW2 1910   4.135   2.296   0.722
  470SOL    HW3 1911   4.239   2.202   0.779
  470SOL    MW4 1912   4.191   2.275   0.785
  471SOL     OW 1913   4.028   2.585   0.566
  471SOL    HW2 1914   4.046   2.607   0.657
  471SOL    HW3 1915   3.938   2.615   0.551
  471SOL    MW4 1916   4.018   2.592   0.576
  472SOL     OW 1917   4.079   2.710   0.839
  472SOL    HW2 1918   4.137   2.768   0.790
  472SOL    HW3 1919   3.992   2.750   0.832
  472SOL    MW4 1920   4.075   2.723   0.832
  473SOL     OW 1921   4.248   2.890   0.702
  473SOL    HW2 1922   4.328   2.837   0.702
  473SOL    HW3 1923   4.228   2.903   0.610
  473SOL    MW4 1924   4.256   2.884   0.690
  474SOL     OW 1925   4.262   3.141   0.847
  474SOL    HW2 1926   4.248   3.057   0.803
  474SOL    HW3 1927   4.340   3.177   0.806
  474SOL    MW4 1928   4.271   3.134   0.836
  475SOL     OW 1929   4.102   3.328   0.698
  475SOL    HW2 1930   4.084   3.405   0.752
  475SOL    HW3 1931   4.159   3.274   0.754
  475SOL    MW4 1932   4.107   3.331   0.713
  476SOL     OW 1933   4.037   3.571   0.793
  476SOL    HW2 1934   4.041   3.562   0.888
  476SOL    HW3 1935   4.121   3.607   0.768
  476SOL    MW4 1936   4.049   3.574   0.802
  477SOL     OW 1937   4.298   3.682   0.718
  477SOL    HW2 1938   4.337   3.759   0.759
  477SOL    HW3 1939   4.282   3.708   0.627
  477SOL    MW4 1940   4.301   3.695   0.711
  478SOL     OW 1941   4.336   3.929   0.862
  478SOL    HW2 1942   4.327   3.903   0.953
  478SOL    HW3 1943   4.251   3.969   0.841
  478SOL    MW4 1944   4.323   3.931   0.871
  479SOL     OW 1945   3.869   3.977   0.683
  479SOL    HW2 1946   3.826   3.919   0.744
  479SOL    HW3 1947   3.878   3.926   0.602
  479SOL    MW4 1948   3.865   3.963   0.680
  480SOL     OW 1949   4.088   4.118   0.843
  480SOL    HW2 1950   4.120   4.186   0.785
  480SOL    HW3 1951   4.005   4.090   0.804
  480SOL    MW4 1952   4.081   4.123   0.830
  481SOL     OW 1953   4.369   4.339   0.557
  481SOL    HW2 1954   4.304   4.402   0.591
  481SOL    HW3 1955   4.412   4.306   0.635
  481SOL    MW4 1956   4.366   4.343   0.572
  482SOL     OW 1957   0.195   0.015   1.132
  482SOL    HW2 1958   0.276   0.063   1.148
  482SOL    HW3 1959   0.189   0.007   1.037
  482SOL    MW4 1960   0.205   0.020   1.122
  483SOL     OW 1961   4.459   0.137   1.244
  483SOL    HW2 1962   4.383   0.088   1.212
  483SOL    HW3 1963   4.534   0.088   1.211
  483SOL    MW4 1964   4.459   0.124   1.236
  484SOL     OW 1965   4.471   0.386   1.116
  484SOL    HW2 1966   4.401   0.446   1.141
  484SOL    HW3 1967   4.456   0.307   1.168
  484SOL    MW4 1968   4.460   0.383   1.126
  485SOL     OW 1969   0.228   0.476   1.182
  485SOL    HW2 1970   0.230   0.567   1.153
  485SOL    HW3 1971   0.152   0.438   1.138
  485SOL    MW4 1972   0.218   0.483   1.173
  486SOL     OW 1973   0.272   0.736   1.100
  486SOL    HW2 1974   0.341   0.779   1.150
  486SOL    HW3 1975   0.191   0.781   1.127
  486SOL    MW4 1976   0.270   0.748   1.110
  487SOL     OW 1977   0.022   0.853   1.183
  487SOL    HW2 1978   0.037   0.858   1.277
  487SOL    HW3 1979  -0.064   0.811   1.174
  487SOL    MW4 1980   0.012   0.848   1.194
  488SOL     OW 1981   0.006   1.110   1.077
  488SOL    HW2 1982  -0.077   1.137   1.115
  488SOL    HW3 1983   0.009   1.015   1.091
  488SOL    MW4 1984  -0.005   1.101   1.084
  489SOL     OW 1985   0.224   1.241   1.201
  489SOL    HW2 1986   0.301   1.191   1.174
  489SOL    HW3 1987   0.151   1.195   1.160
  489SOL    MW4 1988   0.225   1.228   1.192
  490SOL     OW 1989   0.241   1.537   1.127
  490SOL    HW2 1990   0.240   1.452   1.171
  490SOL    HW3 1991   0.212   1.518   1.038
  490SOL    MW4 1992   0.237   1.523   1.121
  491SOL     OW 1993   4.490   1.642   1.199
  491SOL    HW2 1994   4.487   1.727   1.156
  491SOL    HW3 1995   4.577   1.608   1.179
  491SOL    MW4 1996   4.501   1.649   1.190
  492SOL     OW 1997   0.017   1.909   1.112
  492SOL    HW2 1998  -0.062   1.949   1.150
  492SOL    HW3 1999   0.001   1.908   1.018
  492SOL    MW4 2000   0.005   1.914   1.105
  493SOL     OW 2001   0.246   2.022   1.198
  493SOL    HW2 2002   0.250   2.103   1.147
  493SOL    HW3 2003   0.163   1.981   1.172
  493SOL    MW4 2004   0.235   2.027   1.188
  494SOL     OW 2005   0.253   2.281   1.086
  494SOL    HW2 2006   0.323   2.327   1.133
  494SOL    HW3 2007   0.173   2.327   1.112
  494SOL    MW4 2008   0.252   2.293   1.096
  495SOL     OW 2009   0.023   2.407   1.162
  495SOL    HW2 2010   0.024   2.419   1.257
  495SOL    HW3 2011  -0.064   2.372   1.143
  495SOL    MW4 2012   0.012   2.404   1.172
  496SOL     OW 2013   0.015   2.676   1.079
  496SOL    HW2 2014  -0.042   2.724   1.140
  496SOL    HW3 2015   0.019   2.587   1.115
  496SOL    MW4 2016   0.008   2.671   1.092
  497SOL     OW 2017   0.218   2.820   1.194
  497SOL    HW2 2018   0.220   2.796   1.287
  497SOL    HW3 2019   0.145   2.768   1.158
  497SOL    MW4 2020   0.208   2.810   1.201
  498SOL     OW 2021   0.207   3.066   1.055
  498SOL    HW2 2022   0.276   3.121   1.092
  498SOL    HW3 2023   0.213   2.984   1.103
  498SOL    MW4 2024   0.217   3.063   1.066
  499SOL     OW 2025   0.022   3.228   1.189
  499SOL    HW2 2026  -0.060   3.188   1.158
  499SOL    HW3 2027   0.090   3.168   1.158
  499SOL    MW4 2028   0.020   3.215   1.181
  500SOL     OW 2029   4.462   3.487   1.087
  500SOL    HW2 2030   4.487   3.397   1.108
  500SOL    HW3 2031   4.463   3.490   0.991
  500SOL    MW4 2032   4.465   3.475   1.077
  501SOL     OW 2033   0.240   3.612   1.193
  501SOL    HW2 2034   0.241   3.613   1.288
  501SOL    HW3 2035   0.151   3.586   1.170
  501SOL    MW4 2036   0.229   3.609   1.202
  502SOL     OW 2037   0.269   3.907   1.099
  502SOL    HW2 2038   0.189   3.948   1.132
  502SOL    HW3 2039   0.267   3.818   1.133
  502SOL    MW4 2040   0.258   3.901   1.108
  503SOL     OW 2041   0.002   4.012   1.203
  503SOL    HW2 2042  -0.017   4.006   1.297
  503SOL    HW3 2043  -0.069   3.962   1.161
  503SOL    MW4 2044  -0.010   4.004   1.210
  504SOL     OW 2045   0.018   4.277   1.089
  504SOL    HW2 2046   0.099   4.318   1.122
  504SOL    HW3 2047   0.018   4.190   1.130
  504SOL    MW4 2048   0.029   4.271   1.099
  505SOL     OW 2049   0.246   4.411   1.192
  505SOL    HW2 2050   0.228   4.404   1.286
  505SOL    HW3 2051   0.229   4.503   1.171
  505SOL    MW4 2052   0.242   4.422   1.201
  506SOL     OW 2053   0.650   0.012   1.063
  506SOL    HW2 2054   0.720   0.059   1.108
  506SOL    HW3 2055   0.660  -0.079   1.092
  506SOL    MW4 2056   0.661   0.006   1.073
  507SOL     OW 2057   0.428   0.143   1.168
  507SOL    HW2 2058   0.446   0.237   1.164
  507SOL    HW3 2059   0.501   0.103   1.121
  507SOL    MW4 2060   0.440   0.150   1.161
  508SOL     OW 2061   0.482   0.414   1.110
  508SOL    HW2 2062   0.390   0.433   1.125
  508SOL    HW3 2063   0.483   0.366   1.027
  508SOL    MW4 2064   0.470   0.410   1.101
  509SOL     OW 2065   0.731   0.513   1.204
  509SOL    HW2 2066   0.722   0.599   1.164
  509SOL    HW3 2067   0.650   0.468   1.182
  509SOL    MW4 2068   0.719   0.518   1.196
  510SOL     OW 2069   0.700   0.750   1.069
  510SOL    HW2 2070   0.613   0.763   1.108
  510SOL    HW3 2071   0.684   0.747   0.975
  510SOL    MW4 2072   0.686   0.751   1.062
  511SOL     OW 2073   0.486   0.857   1.236
  511SOL    HW2 2074   0.490   0.864   1.331
  511SOL    HW3 2075   0.474   0.947   1.206
  511SOL    MW4 2076   0.485   0.870   1.245
  512SOL     OW 2077   0.461   1.130   1.115
  512SOL    HW2 2078   0.529   1.191   1.142
  512SOL    HW3 2079   0.454   1.142   1.021
  512SOL    MW4 2080   0.469   1.139   1.106
  513SOL     OW 2081   0.671   1.282   1.211
  513SOL    HW2 2082   0.743   1.234   1.170
  513SOL    HW3 2083   0.659   1.359   1.156
  513SOL    MW4 2084   0.679   1.286   1.198
  514SOL     OW 2085   0.688   1.528   1.054
  514SOL    HW2 2086   0.770   1.569   1.081
  514SOL    HW3 2087   0.621   1.575   1.103
  514SOL    MW4 2088   0.690   1.539   1.064
  515SOL     OW 2089   0.482   1.650   1.185
  515SOL    HW2 2090   0.467   1.667   1.278
  515SOL    HW3 2091   0.402   1.605   1.155
  515SOL    MW4 2092   0.469   1.646   1.193
  516SOL     OW 2093   0.501   1.935   1.107
  516SOL    HW2 2094   0.502   1.841   1.120
  516SOL    HW3 2095   0.417   1.964   1.144
  516SOL    MW4 2096   0.490   1.927   1.113
  517SOL     OW 2097   0.722   2.054   1.199
  517SOL    HW2 2098   0.710   2.062   1.294
  517SOL    HW3 2099   0.648   2.000   1.171
  517SOL    MW4 2100   0.710   2.048   1.208
  518SOL     OW 2101   0.721   2.311   1.113
  518SOL    HW2 2102   0.636   2.339   1.147
  518SOL    HW3 2103   0.727   2.219   1.138
  518SOL    MW4 2104   0.711   2.303   1.121
  519SOL     OW 2105   0.464   2.410   1.208
  519SOL    HW2 2106   0.445   2.426   1.300
  519SOL    HW3 2107   0.445   2.493   1.164
  519SOL    MW4 2108   0.459   2.423   1.214
  520SOL     OW 2109   0.431   2.656   1.103
  520SOL    HW2 2110   0.360   2.721   1.109
  520SOL    HW3 2111   0.451   2.651   1.010
  520SOL    MW4 2112   0.424   2.664   1.092
  521SOL     OW 2113   0.677   2.800   1.207
  521SOL    HW2 2114   0.665   2.893   1.191
  521SOL    HW3 2115   0.597   2.759   1.174
  521SOL    MW4 2116   0.665   2.807   1.201
  522SOL     OW 2117   0.654   3.074   1.175
  522SOL    HW2 2118   0.743   3.103   1.195
  522SOL    HW3 2119   0.655   3.053   1.082
  522SOL    MW4 2120   0.665   3.075   1.166
  523SOL     OW 2121   0.423   3.210   1.170
  523SOL    HW2 2122   0.446   3.295   1.134
  523SOL    HW3 2123   0.503   3.158   1.163
  523SOL    MW4 2124   0.437   3.214   1.164
  524SOL     OW 2125   0.470   3.484   1.104
  524SOL    HW2 2126   0.537   3.545   1.134
  524SOL    HW3 2127   0.387   3.528   1.126
  524SOL    MW4 2128   0.468   3.498   1.111
  525SOL     OW 2129   0.673   3.625   1.206
  525SOL    HW2 2130   0.672   3.643   1.299
  525SOL    HW3 2131   0.697   3.708   1.165
  525SOL    MW4 2132   0.676   3.638   1.213
  526SOL     OW 2133   0.714   3.857   1.053
  526SOL    HW2 2134   0.637   3.911   1.070
  526SOL    HW3 2135   0.700   3.824   0.964
  526SOL    MW4 2136   0.702   3.860   1.043
  527SOL     OW 2137   0.513   4.001   1.177
  527SOL    HW2 2138   0.513   4.097   1.168
  527SOL    HW3 2139   0.426   3.975   1.147
  527SOL    MW4 2140   0.501   4.011   1.172
  528SOL     OW 2141   0.475   4.264   1.123
  528SOL    HW2 2142   0.556   4.311   1.144
  528SOL    HW3 2143   0.406   4.322   1.157
  528SOL    MW4 2144   0.476   4.278   1.130
  529SOL     OW 2145   0.715   4.415   1.183
  529SOL    HW2 2146   0.713   4.408   1.279
  529SOL    HW3 2147   0.782   4.353   1.156
  529SOL    MW4 2148   0.723   4.406   1.192
  530SOL     OW 2149   1.096   0.024   1.101
  530SOL    HW2 2150   1.106  -0.064   1.139
  530SOL    HW3 2151   1.100   0.010   1.007
  530SOL    MW4 2152   1.098   0.010   1.094
  531SOL     OW 2153   0.854   0.136   1.200
  531SOL    HW2 2154   0.842   0.111   1.291
  531SOL    HW3 2155   0.916   0.072   1.165
  531SOL    MW4 2156   0.861   0.124   1.207
  532SOL     OW 2157   0.952   0.365   1.075
  532SOL    HW2 2158   0.953   0.275   1.107
  532SOL    HW3 2159   0.874   0.404   1.115
  532SOL    MW4 2160   0.942   0.358   1.085
  533SOL     OW 2161   1.148   0.542   1.170
  533SOL    HW2 2162   1.137   0.526   1.263
  533SOL    HW3 2163   1.076   0.493   1.128
  533SOL    MW4 2164   1.137   0.534   1.177
  534SOL     OW 2165   1.121   0.774   1.050
  534SOL    HW2 2166   1.045   0.820   1.086
  534SOL    HW3 2167   1.129   0.696   1.105
  534SOL    MW4 2168   1.112   0.770   1.062
  535SOL     OW 2169   0.883   0.907   1.219
  535SOL    HW2 2170   0.868   0.994   1.181
  535SOL    HW3 2171   0.821   0.850   1.174
  535SOL    MW4 2172   0.873   0.911   1.208
  536SOL     OW 2173   0.877   1.150   1.085
  536SOL    HW2 2174   0.950   1.199   1.123
  536SOL    HW3 2175   0.902   1.137   0.994
  536SOL    MW4 2176   0.890   1.155   1.078
  537SOL     OW 2177   1.117   1.266   1.175
  537SOL    HW2 2178   1.114   1.279   1.269
  537SOL    HW3 2179   1.204   1.228   1.159
  537SOL    MW4 2180   1.128   1.262   1.185
  538SOL     OW 2181   1.161   1.522   1.079
  538SOL    HW2 2182   1.148   1.430   1.102
  538SOL    HW3 2183   1.169   1.522   0.983
  538SOL    MW4 2184   1.161   1.510   1.069
  539SOL     OW 2185   0.926   1.639   1.168
  539SOL    HW2 2186   0.935   1.725   1.126
  539SOL    HW3 2187   1.009   1.596   1.150
  539SOL    MW4 2188   0.938   1.645   1.160
  540SOL     OW 2189   0.936   1.916   1.072
  540SOL    HW2 2190   1.016   1.939   1.120
  540SOL    HW3 2191   0.867   1.966   1.116
  540SOL    MW4 2192   0.938   1.925   1.084
  541SOL     OW 2193   1.171   2.009   1.207
  541SOL    HW2 2194   1.170   1.998   1.303
  541SOL    HW3 2195   1.144   2.099   1.193
  541SOL    MW4 2196   1.167   2.019   1.218
  542SOL     OW 2197   1.133   2.275   1.165
  542SOL    HW2 2198   1.218   2.308   1.194
  542SOL    HW3 2199   1.070   2.337   1.202
  542SOL    MW4 2200   1.136   2.288   1.174
  543SOL     OW 2201   0.925   2.436   1.252
  543SOL    HW2 2202   0.889   2.413   1.337
  543SOL    HW3 2203   0.861   2.402   1.189
  543SOL    MW4 2204   0.911   2.428   1.255
  544SOL     OW 2205   0.896   2.686   1.105
  544SOL    HW2 2206   0.904   2.603   1.152
  544SOL    HW3 2207   0.818   2.727   1.143
  544SOL    MW4 2208   0.887   2.681   1.116
  545SOL     OW 2209   1.095   2.804   1.263
  545SOL    HW2 2210   1.081   2.772   1.352
  545SOL    HW3 2211   1.024   2.766   1.212
  545SOL    MW4 2212   1.084   2.795   1.268
  546SOL     OW 2213   1.124   3.044   1.111
  546SOL    HW2 2214   1.128   2.957   1.151
  546SOL    HW3 2215   1.146   3.030   1.019
  546SOL    MW4 2216   1.127   3.031   1.104
  547SOL     OW 2217   0.909   3.168   1.244
  547SOL    HW2 2218   0.914   3.255   1.204
  547SOL    HW3 2219   0.982   3.120   1.206
  547SOL    MW4 2220   0.919   3.173   1.233
  548SOL     OW 2221   0.892   3.437   1.143
  548SOL    HW2 2222   0.819   3.496   1.164
  548SOL    HW3 2223   0.879   3.415   1.050
  548SOL    MW4 2224   0.880   3.442   1.133
  549SOL     OW 2225   1.128   3.596   1.206
  549SOL    HW2 2226   1.204   3.549   1.171
  549SOL    HW3 2227   1.052   3.548   1.172
  549SOL    MW4 2228   1.128   3.584   1.197
  550SOL     OW 2229   1.152   3.862   1.112
  550SOL    HW2 2230   1.075   3.916   1.132
  550SOL    HW3 2231   1.129   3.775   1.145
  550SOL    MW4 2232   1.139   3.858   1.119
  551SOL     OW 2233   0.926   3.991   1.179
  551SOL    HW2 2234   0.906   3.986   1.272
  551SOL    HW3 2235   0.854   3.944   1.137
  551SOL    MW4 2236   0.914   3.984   1.185
  552SOL     OW 2237   0.917   4.254   1.088
  552SOL    HW2 2238   0.919   4.160   1.109
  552SOL    HW3 2239   0.923   4.257   0.992
  552SOL    MW4 2240   0.918   4.242   1.078
  553SOL     OW 2241   1.131   4.416   1.181
  553SOL    HW2 2242   1.153   4.404   1.274
  553SOL    HW3 2243   1.046   4.372   1.171
  553SOL    MW4 2244   1.122   4.408   1.192
  554SOL     OW 2245   1.545   4.635   1.191
  554SOL    HW2 2246   1.628   4.683   1.183
  554SOL    HW3 2247   1.571   4.542   1.189
  554SOL    MW4 2248   1.559   4.629   1.190
  555SOL     OW 2249   1.313   0.124   1.217
  555SOL    HW2 2250   1.384   0.062   1.200
  555SOL    HW3 2251   1.238   0.090   1.168
  555SOL    MW4 2252   1.313   0.112   1.208
  556SOL     OW 2253   1.345   0.366   1.109
  556SOL    HW2 2254   1.332   0.284   1.156
  556SOL    HW3 2255   1.277   0.424   1.143
  556SOL    MW4 2256   1.334   0.363   1.120
  557SOL     OW 2257   1.568   0.475   1.237
  557SOL    HW2 2258   1.559   0.568   1.217
  557SOL    HW3 2259   1.484   0.437   1.211
  557SOL    MW4 2260   1.556   0.483   1.231
  558SOL     OW 2261   1.520   0.731   1.137
  558SOL    HW2 2262   1.598   0.784   1.151
  558SOL    HW3 2263   1.525   0.703   1.046
  558SOL    MW4 2264   1.531   0.735   1.127
  559SOL     OW 2265   1.296   0.883   1.233
  559SOL    HW2 2266   1.374   0.843   1.196
  559SOL    HW3 2267   1.224   0.849   1.179
  559SOL    MW4 2268   1.296   0.873   1.221
  560SOL     OW 2269   1.362   1.145   1.138
  560SOL    HW2 2270   1.337   1.066   1.185
  560SOL    HW3 2271   1.380   1.115   1.048
  560SOL    MW4 2272   1.361   1.131   1.132
  561SOL     OW 2273   1.595   1.298   1.200
  561SOL    HW2 2274   1.667   1.243   1.167
  561SOL    HW3 2275   1.516   1.249   1.178
  561SOL    MW4 2276   1.594   1.284   1.192
  562SOL     OW 2277   1.614   1.564   1.072
  562SOL    HW2 2278   1.656   1.613   1.143
  562SOL    HW3 2279   1.626   1.472   1.095
  562SOL    MW4 2280   1.621   1.558   1.084
  563SOL     OW 2281   1.373   1.643   1.202
  563SOL    HW2 2282   1.446   1.605   1.153
  563SOL    HW3 2283   1.295   1.603   1.163
  563SOL    MW4 2284   1.372   1.633   1.190
  564SOL     OW 2285   1.356   1.873   1.065
  564SOL    HW2 2286   1.364   1.786   1.106
  564SOL    HW3 2287   1.288   1.917   1.115
  564SOL    MW4 2288   1.349   1.867   1.077
  565SOL     OW 2289   1.552   2.035   1.211
  565SOL    HW2 2290   1.556   2.118   1.163
  565SOL    HW3 2291   1.502   1.976   1.154
  565SOL    MW4 2292   1.546   2.038   1.197
  566SOL     OW 2293   1.603   2.284   1.110
  566SOL    HW2 2294   1.519   2.321   1.136
  566SOL    HW3 2295   1.593   2.264   1.016
  566SOL    MW4 2296   1.591   2.286   1.101
  567SOL     OW 2297   1.364   2.405   1.219
  567SOL    HW2 2298   1.383   2.426   1.311
  567SOL    HW3 2299   1.349   2.490   1.178
  567SOL    MW4 2300   1.365   2.419   1.226
  568SOL     OW 2301   1.325   2.669   1.156
  568SOL    HW2 2302   1.398   2.717   1.195
  568SOL    HW3 2303   1.246   2.709   1.194
  568SOL    MW4 2304   1.324   2.680   1.166
  569SOL     OW 2305   1.561   2.807   1.211
  569SOL    HW2 2306   1.642   2.782   1.168
  569SOL    HW3 2307   1.542   2.895   1.179
  569SOL    MW4 2308   1.569   2.815   1.201
  570SOL     OW 2309   1.525   3.048   1.109
  570SOL    HW2 2310   1.605   3.084   1.145
  570SOL    HW3 2311   1.455   3.102   1.146
  570SOL    MW4 2312   1.526   3.060   1.119
  571SOL     OW 2313   1.337   3.196   1.224
  571SOL    HW2 2314   1.330   3.183   1.318
  571SOL    HW3 2315   1.257   3.158   1.189
  571SOL    MW4 2316   1.326   3.189   1.232
  572SOL     OW 2317   1.355   3.453   1.130
  572SOL    HW2 2318   1.361   3.363   1.163
  572SOL    HW3 2319   1.358   3.444   1.035
  572SOL    MW4 2320   1.356   3.440   1.122
  573SOL     OW 2321   1.596   3.550   1.198
  573SOL    HW2 2322   1.583   3.644   1.186
  573SOL    HW3 2323   1.508   3.512   1.189
  573SOL    MW4 2324   1.582   3.557   1.195
  574SOL     OW 2325   1.600   3.829   1.187
  574SOL    HW2 2326   1.537   3.892   1.223
  574SOL    HW3 2327   1.594   3.841   1.092
  574SOL    MW4 2328   1.591   3.839   1.179
  575SOL     OW 2329   1.373   3.994   1.217
  575SOL    HW2 2330   1.371   4.073   1.164
  575SOL    HW3 2331   1.303   3.939   1.182
  575SOL    MW4 2332   1.364   3.997   1.206
  576SOL     OW 2333   1.383   4.234   1.090
  576SOL    HW2 2334   1.296   4.270   1.112
  576SOL    HW3 2335   1.376   4.210   0.998
  576SOL    MW4 2336   1.370   4.236   1.081
  577SOL     OW 2337   1.604   4.361   1.182
  577SOL    HW2 2338   1.594   4.386   1.274
  577SOL    HW3 2339   1.528   4.306   1.164
  577SOL    MW4 2340   1.592   4.357   1.191
  578SOL     OW 2341   1.992   0.008   1.147
  578SOL    HW2 2342   1.991  -0.087   1.133
  578SOL    HW3 2343   2.016   0.044   1.061
  578SOL    MW4 2344   1.995   0.000   1.134
  579SOL     OW 2345   1.777   0.123   1.254
  579SOL    HW2 2346   1.774   0.207   1.208
  579SOL    HW3 2347   1.854   0.078   1.218
  579SOL    MW4 2348   1.787   0.128   1.243
  580SOL     OW 2349   1.781   0.364   1.109
  580SOL    HW2 2350   1.702   0.402   1.148
  580SOL    HW3 2351   1.760   0.353   1.016
  580SOL    MW4 2352   1.768   0.368   1.102
  581SOL     OW 2353   1.996   0.514   1.228
  581SOL    HW2 2354   1.986   0.517   1.323
  581SOL    HW3 2355   1.915   0.474   1.196
  581SOL    MW4 2356   1.984   0.509   1.236
  582SOL     OW 2357   2.034   0.752   1.111
  582SOL    HW2 2358   2.025   0.666   1.153
  582SOL    HW3 2359   2.014   0.735   1.019
  582SOL    MW4 2360   2.030   0.738   1.105
  583SOL     OW 2361   1.767   0.860   1.202
  583SOL    HW2 2362   1.769   0.855   1.297
  583SOL    HW3 2363   1.847   0.814   1.174
  583SOL    MW4 2364   1.778   0.853   1.211
  584SOL     OW 2365   1.813   1.120   1.119
  584SOL    HW2 2366   1.789   1.029   1.137
  584SOL    HW3 2367   1.837   1.120   1.026
  584SOL    MW4 2368   1.813   1.108   1.109
  585SOL     OW 2369   2.010   1.298   1.225
  585SOL    HW2 2370   2.078   1.258   1.172
  585SOL    HW3 2371   1.929   1.254   1.198
  585SOL    MW4 2372   2.008   1.287   1.215
  586SOL     OW 2373   2.018   1.553   1.138
  586SOL    HW2 2374   2.023   1.466   1.177
  586SOL    HW3 2375   2.009   1.537   1.044
  586SOL    MW4 2376   2.017   1.539   1.131
  587SOL     OW 2377   1.819   1.682   1.255
  587SOL    HW2 2378   1.808   1.764   1.207
  587SOL    HW3 2379   1.894   1.640   1.214
  587SOL    MW4 2380   1.827   1.688   1.243
  588SOL     OW 2381   1.799   1.915   1.124
  588SOL    HW2 2382   1.718   1.958   1.152
  588SOL    HW3 2383   1.794   1.916   1.029
  588SOL    MW4 2384   1.787   1.921   1.115
  589SOL     OW 2385   2.031   2.035   1.253
  589SOL    HW2 2386   2.010   2.047   1.346
  589SOL    HW3 2387   1.952   1.998   1.215
  589SOL    MW4 2388   2.018   2.032   1.260
  590SOL     OW 2389   1.998   2.299   1.202
  590SOL    HW2 2390   2.079   2.348   1.220
  590SOL    HW3 2391   2.017   2.209   1.228
  590SOL    MW4 2392   2.011   2.294   1.208
  591SOL     OW 2393   1.777   2.457   1.240
  591SOL    HW2 2394   1.858   2.408   1.226
  591SOL    HW3 2395   1.710   2.408   1.193
  591SOL    MW4 2396   1.779   2.444   1.232
  592SOL     OW 2397   1.805   2.701   1.118
  592SOL    HW2 2398   1.787   2.622   1.169
  592SOL    HW3 2399   1.805   2.672   1.027
  592SOL    MW4 2400   1.802   2.686   1.113
  593SOL     OW 2401   2.026   2.834   1.208
  593SOL    HW2 2402   2.017   2.925   1.178
  593SOL    HW3 2403   1.946   2.791   1.179
  593SOL    MW4 2404   2.014   2.841   1.200
  594SOL     OW 2405   2.026   3.105   1.104
  594SOL    HW2 2406   1.935   3.135   1.106
  594SOL    HW3 2407   2.047   3.098   1.010
  594SOL    MW4 2408   2.017   3.108   1.092
  595SOL     OW 2409   1.765   3.186   1.188
  595SOL    HW2 2410   1.787   3.197   1.280
  595SOL    HW3 2411   1.782   3.271   1.148
  595SOL    MW4 2412   1.770   3.199   1.195
  596SOL     OW 2413   1.826   3.419   1.084
  596SOL    HW2 2414   1.901   3.472   1.109
  596SOL    HW3 2415   1.750   3.465   1.120
  596SOL    MW4 2416   1.826   3.432   1.092
  597SOL     OW 2417   2.023   3.593   1.185
  597SOL    HW2 2418   2.005   3.594   1.279
  597SOL    HW3 2419   2.111   3.558   1.176
  597SOL    MW4 2420   2.032   3.589   1.196
  598SOL     OW 2421   2.055   3.851   1.097
  598SOL    HW2 2422   1.982   3.895   1.143
  598SOL    HW3 2423   2.051   3.761   1.128
  598SOL    MW4 2424   2.045   3.845   1.107
  599SOL     OW 2425   1.838   3.972   1.266
  599SOL    HW2 2426   1.836   3.991   1.359
  599SOL    HW3 2427   1.753   3.933   1.246
  599SOL    MW4 2428   1.827   3.970   1.275
  600SOL     OW 2429   1.833   4.212   1.156
  600SOL    HW2 2430   1.828   4.125   1.196
  600SOL    HW3 2431   1.749   4.252   1.176
  600SOL    MW4 2432   1.822   4.206   1.164
  601SOL     OW 2433   2.049   4.393   1.199
  601SOL    HW2 2434   2.046   4.411   1.293
  601SOL    HW3 2435   1.975   4.334   1.183
  601SOL    MW4 2436   2.039   4.387   1.209
  602SOL     OW 2437   2.450   4.664   1.130
  602SOL    HW2 2438   2.531   4.689   1.175
  602SOL    HW3 2439   2.382   4.713   1.176
  602SOL    MW4 2440   2.452   4.674   1.142
  603SOL     OW 2441   2.230   0.103   1.252
  603SOL    HW2 2442   2.220   0.194   1.224
  603SOL    HW3 2443   2.153   0.058   1.217
  603SOL    MW4 2444   2.219   0.109   1.244
  604SOL     OW 2445   2.215   0.361   1.148
  604SOL    HW2 2446   2.141   0.418   1.171
  604SOL    HW3 2447   2.214   0.359   1.052
  604SOL    MW4 2448   2.205   0.368   1.138
  605SOL     OW 2449   2.452   0.501   1.205
  605SOL    HW2 2450   2.438   0.494   1.300
  605SOL    HW3 2451   2.381   0.451   1.166
  605SOL    MW4 2452   2.441   0.494   1.213
  606SOL     OW 2453   2.495   0.780   1.133
  606SOL    HW2 2454   2.470   0.689   1.142
  606SOL    HW3 2455   2.536   0.785   1.046
  606SOL    MW4 2456   2.497   0.769   1.123
  607SOL     OW 2457   2.231   0.916   1.208
  607SOL    HW2 2458   2.314   0.888   1.170
  607SOL    HW3 2459   2.168   0.851   1.177
  607SOL    MW4 2460   2.234   0.904   1.199
  608SOL     OW 2461   2.227   1.178   1.090
  608SOL    HW2 2462   2.309   1.215   1.124
  608SOL    HW3 2463   2.220   1.093   1.132
  608SOL    MW4 2464   2.237   1.172   1.100
  609SOL     OW 2465   2.468   1.287   1.185
  609SOL    HW2 2466   2.553   1.245   1.182
  609SOL    HW3 2467   2.478   1.366   1.131
  609SOL    MW4 2468   2.480   1.292   1.177
  610SOL     OW 2469   2.487   1.540   1.049
  610SOL    HW2 2470   2.413   1.574   1.100
  610SOL    HW3 2471   2.464   1.560   0.958
  610SOL    MW4 2472   2.474   1.547   1.044
  611SOL     OW 2473   2.282   1.620   1.200
  611SOL    HW2 2474   2.288   1.714   1.179
  611SOL    HW3 2475   2.191   1.597   1.182
  611SOL    MW4 2476   2.271   1.630   1.195
  612SOL     OW 2477   2.272   1.903   1.138
  612SOL    HW2 2478   2.199   1.949   1.179
  612SOL    HW3 2479   2.253   1.907   1.045
  612SOL    MW4 2480   2.260   1.910   1.131
  613SOL     OW 2481   2.472   2.057   1.233
  613SOL    HW2 2482   2.543   2.001   1.202
  613SOL    HW3 2483   2.392   2.014   1.204
  613SOL    MW4 2484   2.471   2.044   1.225
  614SOL     OW 2485   2.441   2.304   1.130
  614SOL    HW2 2486   2.457   2.212   1.152
  614SOL    HW3 2487   2.435   2.305   1.035
  614SOL    MW4 2488   2.442   2.292   1.121
  615SOL     OW 2489   2.244   2.468   1.267
  615SOL    HW2 2490   2.260   2.467   1.361
  615SOL    HW3 2491   2.309   2.408   1.231
  615SOL    MW4 2492   2.254   2.460   1.275
  616SOL     OW 2493   2.239   2.695   1.125
  616SOL    HW2 2494   2.251   2.614   1.175
  616SOL    HW3 2495   2.162   2.735   1.164
  616SOL    MW4 2496   2.230   2.689   1.137
  617SOL     OW 2497   2.453   2.832   1.197
  617SOL    HW2 2498   2.460   2.832   1.292
  617SOL    HW3 2499   2.366   2.794   1.179
  617SOL    MW4 2500   2.442   2.827   1.207
  618SOL     OW 2501   2.480   3.104   1.095
  618SOL    HW2 2502   2.404   3.144   1.136
  618SOL    HW3 2503   2.477   3.013   1.125
  618SOL    MW4 2504   2.469   3.097   1.104
  619SOL     OW 2505   2.259   3.236   1.186
  619SOL    HW2 2506   2.256   3.322   1.144
  619SOL    HW3 2507   2.185   3.189   1.149
  619SOL    MW4 2508   2.249   3.241   1.176
  620SOL     OW 2509   2.254   3.478   1.074
  620SOL    HW2 2510   2.315   3.548   1.099
  620SOL    HW3 2511   2.280   3.456   0.984
  620SOL    MW4 2512   2.266   3.485   1.065
  621SOL     OW 2513   2.452   3.640   1.167
  621SOL    HW2 2514   2.455   3.646   1.263
  621SOL    HW3 2515   2.468   3.729   1.137
  621SOL    MW4 2516   2.454   3.652   1.176
  622SOL     OW 2517   2.490   3.926   1.088
  622SOL    HW2 2518   2.410   3.963   1.127
  622SOL    HW3 2519   2.478   3.939   0.994
  622SOL    MW4 2520   2.478   3.933   1.081
  623SOL     OW 2521   2.259   4.003   1.210
  623SOL    HW2 2522   2.258   4.090   1.171
  623SOL    HW3 2523   2.191   3.955   1.162
  623SOL    MW4 2524   2.250   4.008   1.198
  624SOL     OW 2525   2.267   4.256   1.117
  624SOL    HW2 2526   2.187   4.301   1.145
  624SOL    HW3 2527   2.265   4.259   1.021
  624SOL    MW4 2528   2.256   4.263   1.108
  625SOL     OW 2529   2.499   4.389   1.194
  625SOL    HW2 2530   2.416   4.343   1.181
  625SOL    HW3 2531   2.478   4.481   1.177
  625SOL    MW4 2532   2.485   4.395   1.190
  626SOL     OW 2533   2.889   0.001   1.144
  626SOL    HW2 2534   2.906  -0.086   1.179
  626SOL    HW3 2535   2.872  -0.013   1.051
  626SOL    MW4 2536   2.889  -0.012   1.136
  627SOL     OW 2537   2.660   0.118   1.244
  627SOL    HW2 2538   2.672   0.109   1.338
  627SOL    HW3 2539   2.741   0.086   1.206
  627SOL    MW4 2540   2.672   0.113   1.251
  628SOL     OW 2541   2.709   0.389   1.160
  628SOL    HW2 2542   2.697   0.298   1.187
  628SOL    HW3 2543   2.627   0.432   1.186
  628SOL    MW4 2544   2.696   0.383   1.167
  629SOL     OW 2545   2.950   0.517   1.235
  629SOL    HW2 2546   2.935   0.604   1.198
  629SOL    HW3 2547   2.867   0.472   1.227
  629SOL    MW4 2548   2.937   0.522   1.229
  630SOL     OW 2549   2.940   0.770   1.158
  630SOL    HW2 2550   3.023   0.812   1.183
  630SOL    HW3 2551   2.873   0.824   1.200
  630SOL    MW4 2552   2.942   0.783   1.167
  631SOL     OW 2553   2.720   0.878   1.272
  631SOL    HW2 2554   2.720   0.970   1.246
  631SOL    HW3 2555   2.640   0.843   1.234
  631SOL    MW4 2556   2.709   0.886   1.264
  632SOL     OW 2557   2.727   1.146   1.200
  632SOL    HW2 2558   2.805   1.195   1.225
  632SOL    HW3 2559   2.732   1.141   1.104
  632SOL    MW4 2560   2.738   1.152   1.190
  633SOL     OW 2561   2.957   1.306   1.225
  633SOL    HW2 2562   2.946   1.306   1.320
  633SOL    HW3 2563   2.954   1.399   1.201
  633SOL    MW4 2564   2.955   1.319   1.235
  634SOL     OW 2565   2.911   1.559   1.114
  634SOL    HW2 2566   2.986   1.617   1.120
  634SOL    HW3 2567   2.904   1.538   1.021
  634SOL    MW4 2568   2.920   1.564   1.103
  635SOL     OW 2569   2.680   1.669   1.229
  635SOL    HW2 2570   2.764   1.631   1.201
  635SOL    HW3 2571   2.617   1.636   1.165
  635SOL    MW4 2572   2.683   1.660   1.217
  636SOL     OW 2573   2.698   1.930   1.098
  636SOL    HW2 2574   2.780   1.966   1.130
  636SOL    HW3 2575   2.691   1.844   1.139
  636SOL    MW4 2576   2.708   1.924   1.107
  637SOL     OW 2577   2.932   2.054   1.177
  637SOL    HW2 2578   2.956   2.063   1.270
  637SOL    HW3 2579   2.931   2.143   1.143
  637SOL    MW4 2580   2.935   2.067   1.185
  638SOL     OW 2581   2.949   2.346   1.090
  638SOL    HW2 2582   2.997   2.424   1.118
  638SOL    HW3 2583   2.858   2.363   1.117
  638SOL    MW4 2584   2.943   2.358   1.098
  639SOL     OW 2585   2.693   2.415   1.211
  639SOL    HW2 2586   2.688   2.416   1.306
  639SOL    HW3 2587   2.611   2.376   1.182
  639SOL    MW4 2588   2.682   2.410   1.220
  640SOL     OW 2589   2.720   2.696   1.153
  640SOL    HW2 2590   2.704   2.603   1.167
  640SOL    HW3 2591   2.635   2.738   1.171
  640SOL    MW4 2592   2.707   2.689   1.157
  641SOL     OW 2593   2.951   2.854   1.205
  641SOL    HW2 2594   2.963   2.848   1.300
  641SOL    HW3 2595   2.872   2.802   1.187
  641SOL    MW4 2596   2.942   2.846   1.215
  642SOL     OW 2597   2.905   3.102   1.094
  642SOL    HW2 2598   2.928   3.017   1.132
  642SOL    HW3 2599   2.894   3.084   1.000
  642SOL    MW4 2600   2.907   3.088   1.087
  643SOL     OW 2601   2.696   3.248   1.204
  643SOL    HW2 2602   2.779   3.205   1.186
  643SOL    HW3 2603   2.630   3.186   1.171
  643SOL    MW4 2604   2.698   3.234   1.197
  644SOL     OW 2605   2.686   3.509   1.107
  644SOL    HW2 2606   2.682   3.420   1.142
  644SOL    HW3 2607   2.598   3.543   1.118
  644SOL    MW4 2608   2.674   3.502   1.113
  645SOL     OW 2609   2.926   3.611   1.212
  645SOL    HW2 2610   2.987   3.567   1.154
  645SOL    HW3 2611   2.843   3.565   1.200
  645SOL    MW4 2612   2.923   3.599   1.203
  646SOL     OW 2613   2.933   3.877   1.088
  646SOL    HW2 2614   3.012   3.910   1.132
  646SOL    HW3 2615   2.924   3.788   1.122
  646SOL    MW4 2616   2.942   3.869   1.099
  647SOL     OW 2617   2.711   4.015   1.226
  647SOL    HW2 2618   2.792   3.974   1.194
  647SOL    HW3 2619   2.641   3.973   1.176
  647SOL    MW4 2620   2.713   4.004   1.215
  648SOL     OW 2621   2.744   4.256   1.096
  648SOL    HW2 2622   2.737   4.176   1.149
  648SOL    HW3 2623   2.663   4.304   1.115
  648SOL    MW4 2624   2.732   4.252   1.106
  649SOL     OW 2625   2.953   4.413   1.229
  649SOL    HW2 2626   3.029   4.359   1.209
  649SOL    HW3 2627   2.878   4.364   1.194
  649SOL    MW4 2628   2.953   4.399   1.222
  650SOL     OW 2629   3.381   4.601   1.140
  650SOL    HW2 2630   3.457   4.656   1.160
  650SOL    HW3 2631   3.307   4.647   1.178
  650SOL    MW4 2632   3.382   4.614   1.147
  651SOL     OW 2633   3.154   0.075   1.241
  651SOL    HW2 2634   3.122   0.083   1.331
  651SOL    HW3 2635   3.075   0.071   1.187
  651SOL    MW4 2636   3.139   0.076   1.246
  652SOL     OW 2637   3.157   0.353   1.134
  652SOL    HW2 2638   3.174   0.275   1.187
  652SOL    HW3 2639   3.097   0.405   1.187
  652SOL    MW4 2640   3.152   0.350   1.148
  653SOL     OW 2641   3.399   0.464   1.238
  653SOL    HW2 2642   3.402   0.555   1.211
  653SOL    HW3 2643   3.314   0.432   1.206
  653SOL    MW4 2644   3.388   0.472   1.230
  654SOL     OW 2645   3.368   0.708   1.135
  654SOL    HW2 2646   3.297   0.762   1.170
  654SOL    HW3 2647   3.351   0.703   1.041
  654SOL    MW4 2648   3.356   0.714   1.128
  655SOL     OW 2649   3.179   0.892   1.249
  655SOL    HW2 2650   3.188   0.901   1.344
  655SOL    HW3 2651   3.173   0.982   1.217
  655SOL    MW4 2652   3.179   0.905   1.257
  656SOL     OW 2653   3.143   1.131   1.114
  656SOL    HW2 2654   3.223   1.183   1.113
  656SOL    HW3 2655   3.077   1.190   1.151
  656SOL    MW4 2656   3.144   1.146   1.119
  657SOL     OW 2657   3.376   1.269   1.171
  657SOL    HW2 2658   3.375   1.262   1.267
  657SOL    HW3 2659   3.392   1.362   1.155
  657SOL    MW4 2660   3.378   1.281   1.182
  658SOL     OW 2661   3.398   1.540   1.093
  658SOL    HW2 2662   3.453   1.587   1.155
  658SOL    HW3 2663   3.309   1.560   1.121
  658SOL    MW4 2664   3.393   1.549   1.105
  659SOL     OW 2665   3.162   1.657   1.188
  659SOL    HW2 2666   3.148   1.654   1.282
  659SOL    HW3 2667   3.171   1.750   1.168
  659SOL    MW4 2668   3.161   1.669   1.198
  660SOL     OW 2669   3.169   1.919   1.099
  660SOL    HW2 2670   3.242   1.975   1.126
  660SOL    HW3 2671   3.090   1.968   1.125
  660SOL    MW4 2672   3.168   1.933   1.106
  661SOL     OW 2673   3.332   2.076   1.230
  661SOL    HW2 2674   3.415   2.029   1.219
  661SOL    HW3 2675   3.351   2.165   1.201
  661SOL    MW4 2676   3.346   2.082   1.225
  662SOL     OW 2677   3.357   2.327   1.120
  662SOL    HW2 2678   3.429   2.370   1.166
  662SOL    HW3 2679   3.282   2.385   1.134
  662SOL    MW4 2680   3.357   2.340   1.128
  663SOL     OW 2681   3.155   2.493   1.215
  663SOL    HW2 2682   3.184   2.503   1.305
  663SOL    HW3 2683   3.168   2.580   1.176
  663SOL    MW4 2684   3.161   2.506   1.222
  664SOL     OW 2685   3.186   2.740   1.119
  664SOL    HW2 2686   3.106   2.775   1.159
  664SOL    HW3 2687   3.162   2.721   1.029
  664SOL    MW4 2688   3.173   2.742   1.113
  665SOL     OW 2689   3.422   2.853   1.224
  665SOL    HW2 2690   3.422   2.944   1.196
  665SOL    HW3 2691   3.351   2.812   1.175
  665SOL    MW4 2692   3.413   2.859   1.214
  666SOL     OW 2693   3.417   3.092   1.100
  666SOL    HW2 2694   3.483   3.140   1.149
  666SOL    HW3 2695   3.334   3.130   1.128
  666SOL    MW4 2696   3.415   3.103   1.110
  667SOL     OW 2697   3.175   3.209   1.191
  667SOL    HW2 2698   3.176   3.301   1.163
  667SOL    HW3 2699   3.090   3.176   1.164
  667SOL    MW4 2700   3.164   3.217   1.183
  668SOL     OW 2701   3.145   3.483   1.074
  668SOL    HW2 2702   3.218   3.527   1.118
  668SOL    HW3 2703   3.165   3.488   0.981
  668SOL    MW4 2704   3.157   3.489   1.068
  669SOL     OW 2705   3.396   3.575   1.193
  669SOL    HW2 2706   3.405   3.571   1.288
  669SOL    HW3 2707   3.457   3.510   1.160
  669SOL    MW4 2708   3.405   3.566   1.201
  670SOL     OW 2709   3.390   3.863   1.119
  670SOL    HW2 2710   3.304   3.895   1.146
  670SOL    HW3 2711   3.391   3.771   1.145
  670SOL    MW4 2712   3.379   3.855   1.126
  671SOL     OW 2713   3.170   3.980   1.215
  671SOL    HW2 2714   3.180   3.991   1.309
  671SOL    HW3 2715   3.151   4.068   1.182
  671SOL    MW4 2716   3.169   3.993   1.223
  672SOL     OW 2717   3.146   4.244   1.134
  672SOL    HW2 2718   3.235   4.270   1.156
  672SOL    HW3 2719   3.140   4.257   1.039
  672SOL    MW4 2720   3.157   4.249   1.124
  673SOL     OW 2721   3.395   4.336   1.205
  673SOL    HW2 2722   3.476   4.301   1.166
  673SOL    HW3 2723   3.404   4.431   1.197
  673SOL    MW4 2724   3.407   4.344   1.199
  674SOL     OW 2725   3.818   4.639   1.111
  674SOL    HW2 2726   3.820   4.551   1.148
  674SOL    HW3 2727   3.793   4.626   1.019
  674SOL    MW4 2728   3.815   4.626   1.103
  675SOL     OW 2729   3.584   0.080   1.235
  675SOL    HW2 2730   3.614   0.165   1.203
  675SOL    HW3 2731   3.650   0.018   1.205
  675SOL    MW4 2732   3.597   0.083   1.227
  676SOL     OW 2733   3.610   0.333   1.101
  676SOL    HW2 2734   3.693   0.372   1.126
  676SOL    HW3 2735   3.545   0.377   1.156
  676SOL    MW4 2736   3.612   0.344   1.112
  677SOL     OW 2737   3.841   0.451   1.228
  677SOL    HW2 2738   3.916   0.404   1.191
  677SOL    HW3 2739   3.852   0.541   1.197
  677SOL    MW4 2740   3.852   0.457   1.219
  678SOL     OW 2741   3.845   0.716   1.145
  678SOL    HW2 2742   3.913   0.780   1.163
  678SOL    HW3 2743   3.763   0.764   1.156
  678SOL    MW4 2744   3.843   0.731   1.149
  679SOL     OW 2745   3.599   0.851   1.200
  679SOL    HW2 2746   3.597   0.941   1.169
  679SOL    HW3 2747   3.518   0.812   1.167
  679SOL    MW4 2748   3.588   0.857   1.192
  680SOL     OW 2749   3.602   1.123   1.127
  680SOL    HW2 2750   3.664   1.187   1.161
  680SOL    HW3 2751   3.516   1.160   1.146
  680SOL    MW4 2752   3.599   1.136   1.134
  681SOL     OW 2753   3.809   1.291   1.219
  681SOL    HW2 2754   3.820   1.298   1.314
  681SOL    HW3 2755   3.797   1.382   1.189
  681SOL    MW4 2756   3.809   1.304   1.227
  682SOL     OW 2757   3.815   1.555   1.132
  682SOL    HW2 2758   3.908   1.566   1.155
  682SOL    HW3 2759   3.814   1.556   1.037
  682SOL    MW4 2760   3.828   1.557   1.123
  683SOL     OW 2761   3.591   1.682   1.240
  683SOL    HW2 2762   3.594   1.764   1.191
  683SOL    HW3 2763   3.674   1.639   1.221
  683SOL    MW4 2764   3.602   1.687   1.231
  684SOL     OW 2765   3.553   1.939   1.148
  684SOL    HW2 2766   3.641   1.975   1.160
  684SOL    HW3 2767   3.537   1.946   1.055
  684SOL    MW4 2768   3.563   1.945   1.138
  685SOL     OW 2769   3.830   2.018   1.181
  685SOL    HW2 2770   3.838   2.025   1.276
  685SOL    HW3 2771   3.909   1.972   1.153
  685SOL    MW4 2772   3.841   2.013   1.190
  686SOL     OW 2773   3.777   2.265   1.078
  686SOL    HW2 2774   3.855   2.320   1.089
  686SOL    HW3 2775   3.801   2.182   1.120
  686SOL    MW4 2776   3.791   2.261   1.085
  687SOL     OW 2777   3.607   2.416   1.224
  687SOL    HW2 2778   3.633   2.409   1.316
  687SOL    HW3 2779   3.666   2.357   1.178
  687SOL    MW4 2780   3.618   2.408   1.230
  688SOL     OW 2781   3.615   2.677   1.115
  688SOL    HW2 2782   3.606   2.603   1.175
  688SOL    HW3 2783   3.554   2.743   1.149
  688SOL    MW4 2784   3.606   2.676   1.127
  689SOL     OW 2785   3.849   2.799   1.208
  689SOL    HW2 2786   3.839   2.832   1.297
  689SOL    HW3 2787   3.771   2.744   1.194
  689SOL    MW4 2788   3.837   2.796   1.218
  690SOL     OW 2789   3.839   3.079   1.113
  690SOL    HW2 2790   3.848   2.987   1.137
  690SOL    HW3 2791   3.797   3.077   1.026
  690SOL    MW4 2792   3.834   3.067   1.104
  691SOL     OW 2793   3.606   3.221   1.231
  691SOL    HW2 2794   3.612   3.301   1.178
  691SOL    HW3 2795   3.687   3.174   1.212
  691SOL    MW4 2796   3.618   3.225   1.221
  692SOL     OW 2797   3.620   3.453   1.082
  692SOL    HW2 2798   3.679   3.514   1.127
  692SOL    HW3 2799   3.627   3.476   0.990
  692SOL    MW4 2800   3.629   3.464   1.076
  693SOL     OW 2801   3.819   3.620   1.180
  693SOL    HW2 2802   3.836   3.629   1.274
  693SOL    HW3 2803   3.822   3.709   1.146
  693SOL    MW4 2804   3.821   3.633   1.188
  694SOL     OW 2805   3.827   3.878   1.099
  694SOL    HW2 2806   3.756   3.921   1.146
  694SOL    HW3 2807   3.790   3.859   1.012
  694SOL    MW4 2808   3.812   3.881   1.094
  695SOL     OW 2809   3.613   3.998   1.221
  695SOL    HW2 2810   3.631   3.977   1.312
  695SOL    HW3 2811   3.527   3.960   1.204
  695SOL    MW4 2812   3.604   3.991   1.231
  696SOL     OW 2813   3.640   4.243   1.094
  696SOL    HW2 2814   3.624   4.154   1.126
  696SOL    HW3 2815   3.613   4.240   1.002
  696SOL    MW4 2816   3.634   4.230   1.086
  697SOL     OW 2817   3.854   4.377   1.187
  697SOL    HW2 2818   3.844   4.378   1.283
  697SOL    HW3 2819   3.780   4.325   1.156
  697SOL    MW4 2820   3.843   4.370   1.196
  698SOL     OW 2821   4.272   4.651   1.096
  698SOL    HW2 2822   4.269   4.562   1.130
  698SOL    HW3 2823   4.197   4.695   1.136
  698SOL    MW4 2824   4.262   4.645   1.106
  699SOL     OW 2825   4.048   0.094   1.220
  699SOL    HW2 2826   4.037   0.095   1.315
  699SOL    HW3 2827   3.968   0.053   1.187
  699SOL    MW4 2828   4.036   0.089   1.228
  700SOL     OW 2829   4.060   0.335   1.110
  700SOL    HW2 2830   4.066   0.245   1.143
  700SOL    HW3 2831   4.064   0.326   1.015
  700SOL    MW4 2832   4.061   0.322   1.102
  701SOL     OW 2833   4.247   0.489   1.244
  701SOL    HW2 2834   4.261   0.461   1.334
  701SOL    HW3 2835   4.175   0.434   1.213
  701SOL    MW4 2836   4.239   0.478   1.252
  702SOL     OW 2837   4.272   0.741   1.132
  702SOL    HW2 2838   4.244   0.653   1.159
  702SOL    HW3 2839   4.271   0.738   1.036
  702SOL    MW4 2840   4.268   0.729   1.123
  703SOL     OW 2841   4.037   0.911   1.263
  703SOL    HW2 2842   4.031   0.902   1.358
  703SOL    HW3 2843   4.112   0.858   1.239
  703SOL    MW4 2844   4.046   0.903   1.272
  704SOL     OW 2845   4.027   1.140   1.118
  704SOL    HW2 2846   4.028   1.062   1.174
  704SOL    HW3 2847   3.953   1.192   1.151
  704SOL    MW4 2848   4.017   1.137   1.130
  705SOL     OW 2849   4.272   1.201   1.227
  705SOL    HW2 2850   4.248   1.202   1.319
  705SOL    HW3 2851   4.188   1.201   1.181
  705SOL    MW4 2852   4.258   1.201   1.233
  706SOL     OW 2853   4.283   1.463   1.098
  706SOL    HW2 2854   4.277   1.383   1.150
  706SOL    HW3 2855   4.354   1.513   1.139
  706SOL    MW4 2856   4.292   1.459   1.110
  707SOL     OW 2857   4.070   1.638   1.191
  707SOL    HW2 2858   4.084   1.643   1.286
  707SOL    HW3 2859   4.136   1.575   1.161
  707SOL    MW4 2860   4.080   1.630   1.200
  708SOL     OW 2861   4.057   1.901   1.081
  708SOL    HW2 2862   4.049   1.812   1.116
  708SOL    HW3 2863   4.037   1.891   0.988
  708SOL    MW4 2864   4.053   1.888   1.073
  709SOL     OW 2865   4.278   2.049   1.184
  709SOL    HW2 2866   4.272   2.143   1.168
  709SOL    HW3 2867   4.194   2.013   1.154
  709SOL    MW4 2868   4.266   2.056   1.178
  710SOL     OW 2869   4.248   2.312   1.076
  710SOL    HW2 2870   4.166   2.353   1.105
  710SOL    HW3 2871   4.243   2.314   0.981
  710SOL    MW4 2872   4.237   2.318   1.067
  711SOL     OW 2873   4.007   2.424   1.162
  711SOL    HW2 2874   4.001   2.412   1.257
  711SOL    HW3 2875   4.042   2.513   1.151
  711SOL    MW4 2876   4.011   2.434   1.173
  712SOL     OW 2877   4.086   2.680   1.125
  712SOL    HW2 2878   4.010   2.731   1.152
  712SOL    HW3 2879   4.091   2.692   1.030
  712SOL    MW4 2880   4.077   2.689   1.116
  713SOL     OW 2881   4.292   2.831   1.214
  713SOL    HW2 2882   4.276   2.917   1.175
  713SOL    HW3 2883   4.222   2.775   1.180
  713SOL    MW4 2884   4.281   2.835   1.205
  714SOL     OW 2885   4.278   3.105   1.119
  714SOL    HW2 2886   4.202   3.151   1.153
  714SOL    HW3 2887   4.268   3.111   1.024
  714SOL    MW4 2888   4.267   3.112   1.111
  715SOL     OW 2889   4.053   3.257   1.165
  715SOL    HW2 2890   4.048   3.246   1.260
  715SOL    HW3 2891   3.982   3.202   1.131
  715SOL    MW4 2892   4.043   3.248   1.173
  716SOL     OW 2893   4.022   3.506   1.051
  716SOL    HW2 2894   4.030   3.422   1.096
  716SOL    HW3 2895   3.947   3.549   1.092
  716SOL    MW4 2896   4.014   3.501   1.062
  717SOL     OW 2897   4.238   3.589   1.217
  717SOL    HW2 2898   4.168   3.561   1.158
  717SOL    HW3 2899   4.317   3.546   1.184
  717SOL    MW4 2900   4.239   3.579   1.205
  718SOL     OW 2901   4.296   3.838   1.129
  718SOL    HW2 2902   4.220   3.883   1.165
  718SOL    HW3 2903   4.298   3.754   1.174
  718SOL    MW4 2904   4.286   3.833   1.140
  719SOL     OW 2905   4.062   3.971   1.226
  719SOL    HW2 2906   4.072   4.061   1.195
  719SOL    HW3 2907   3.980   3.941   1.187
  719SOL    MW4 2908   4.053   3.979   1.217
  720SOL     OW 2909   4.084   4.249   1.113
  720SOL    HW2 2910   3.994   4.274   1.133
  720SOL    HW3 2911   4.080   4.212   1.025
  720SOL    MW4 2912   4.072   4.247   1.104
  721SOL     OW 2913   4.297   4.398   1.219
  721SOL    HW2 2914   4.220   4.347   1.196
  721SOL    HW3 2915   4.370   4.351   1.179
  721SOL    MW4 2916   4.296   4.385   1.211
  722SOL     OW 2917   0.252   4.660   1.599
  722SOL    HW2 2918   0.329   4.703   1.561
  722SOL    HW3 2919   0.178   4.714   1.571
  722SOL    MW4 2920   0.253   4.673   1.590
  723SOL     OW 2921   0.033   0.130   1.514
  723SOL    HW2 2922  -0.049   0.099   1.552
  723SOL    HW3 2923   0.015   0.136   1.420
  723SOL    MW4 2924   0.020   0.127   1.507
  724SOL     OW 2925   0.043   0.382   1.614
  724SOL    HW2 2926   0.034   0.377   1.709
  724SOL    HW3 2927   0.064   0.293   1.586
  724SOL    MW4 2928   0.044   0.370   1.623
  725SOL     OW 2929   0.256   0.491   1.454
  725SOL    HW2 2930   0.187   0.448   1.505
  725SOL    HW3 2931   0.229   0.481   1.363
  725SOL    MW4 2932   0.244   0.484   1.449
  726SOL     OW 2933   0.211   0.742   1.614
  726SOL    HW2 2934   0.282   0.787   1.568
  726SOL    HW3 2935   0.208   0.655   1.575
  726SOL    MW4 2936   0.220   0.737   1.603
  727SOL     OW 2937   4.479   0.850   1.486
  727SOL    HW2 2938   4.485   0.942   1.514
  727SOL    HW3 2939   4.559   0.809   1.520
  727SOL    MW4 2940   4.490   0.857   1.495
  728SOL     OW 2941   0.009   1.105   1.580
  728SOL    HW2 2942   0.014   1.136   1.670
  728SOL    HW3 2943   0.073   1.159   1.533
  728SOL    MW4 2944   0.018   1.116   1.586
  729SOL     OW 2945   0.218   1.282   1.488
  729SOL    HW2 2946   0.238   1.366   1.531
  729SOL    HW3 2947   0.213   1.304   1.395
  729SOL    MW4 2948   0.220   1.296   1.482
  730SOL     OW 2949   0.233   1.545   1.558
  730SOL    HW2 2950   0.221   1.546   1.653
  730SOL    HW3 2951   0.152   1.582   1.523
  730SOL    MW4 2952   0.220   1.550   1.566
  731SOL     OW 2953   4.491   1.650   1.472
  731SOL    HW2 2954   4.470   1.739   1.500
  731SOL    HW3 2955   4.489   1.654   1.376
  731SOL    MW4 2956   4.488   1.662   1.463
  732SOL     OW 2957   0.004   1.933   1.531
  732SOL    HW2 2958   0.022   1.938   1.625
  732SOL    HW3 2959  -0.068   1.995   1.518
  732SOL    MW4 2960  -0.003   1.942   1.542
  733SOL     OW 2961   0.251   2.048   1.472
  733SOL    HW2 2962   0.176   1.993   1.493
  733SOL    HW3 2963   0.260   2.043   1.377
  733SOL    MW4 2964   0.243   2.040   1.463
  734SOL     OW 2965   0.199   2.301   1.576
  734SOL    HW2 2966   0.209   2.282   1.669
  734SOL    HW3 2967   0.205   2.216   1.533
  734SOL    MW4 2968   0.201   2.287   1.582
  735SOL     OW 2969   4.479   2.429   1.451
  735SOL    HW2 2970   4.400   2.405   1.500
  735SOL    HW3 2971   4.552   2.401   1.506
  735SOL    MW4 2972   4.478   2.422   1.465
  736SOL     OW 2973   4.451   2.678   1.570
  736SOL    HW2 2974   4.383   2.734   1.533
  736SOL    HW3 2975   4.434   2.592   1.531
  736SOL    MW4 2976   4.440   2.674   1.560
  737SOL     OW 2977   0.184   2.822   1.475
  737SOL    HW2 2978   0.263   2.779   1.507
  737SOL    HW3 2979   0.112   2.774   1.516
  737SOL    MW4 2980   0.185   2.810   1.485
  738SOL     OW 2981   0.238   3.079   1.531
  738SOL    HW2 2982   0.166   3.135   1.502
  738SOL    HW3 2983   0.213   2.991   1.502
  738SOL    MW4 2984   0.225   3.074   1.523
  739SOL     OW 2985   0.006   3.227   1.454
  739SOL    HW2 2986   0.014   3.317   1.486
  739SOL    HW3 2987   0.021   3.234   1.360
  739SOL    MW4 2988   0.009   3.240   1.446
  740SOL     OW 2989   0.016   3.491   1.554
  740SOL    HW2 2990   0.008   3.482   1.649
  740SOL    HW3 2991  -0.055   3.549   1.529
  740SOL    MW4 2992   0.006   3.497   1.563
  741SOL     OW 2993   0.249   3.615   1.475
  741SOL    HW2 2994   0.241   3.704   1.510
  741SOL    HW3 2995   0.173   3.569   1.509
  741SOL    MW4 2996   0.238   3.621   1.484
  742SOL     OW 2997   0.222   3.893   1.564
  742SOL    HW2 2998   0.240   3.905   1.657
  742SOL    HW3 2999   0.295   3.936   1.520
  742SOL    MW4 3000   0.234   3.900   1.570
  743SOL     OW 3001   4.470   4.022   1.489
  743SOL    HW2 3002   4.473   4.115   1.511
  743SOL    HW3 3003   4.555   3.988   1.517
  743SOL    MW4 3004   4.482   4.030   1.495
  744SOL     OW 3005   0.041   4.277   1.569
  744SOL    HW2 3006   0.032   4.274   1.664
  744SOL    HW3 3007  -0.030   4.334   1.540
  744SOL    MW4 3008   0.030   4.284   1.578
  745SOL     OW 3009   0.241   4.411   1.469
  745SOL    HW2 3010   0.169   4.360   1.509
  745SOL    HW3 3011   0.238   4.495   1.513
  745SOL    MW4 3012   0.231   4.415   1.480
  746SOL     OW 3013   0.631   4.613   1.595
  746SOL    HW2 3014   0.710   4.668   1.586
  746SOL    HW3 3015   0.565   4.658   1.542
  746SOL    MW4 3016   0.633   4.626   1.587
  747SOL     OW 3017   0.459   0.113   1.461
  747SOL    HW2 3018   0.467   0.208   1.472
  747SOL    HW3 3019   0.449   0.101   1.366
  747SOL    MW4 3020   0.459   0.124   1.450
  748SOL     OW 3021   0.475   0.368   1.567
  748SOL    HW2 3022   0.550   0.428   1.562
  748SOL    HW3 3023   0.408   0.410   1.514
  748SOL    MW4 3024   0.476   0.381   1.560
  749SOL     OW 3025   0.680   0.531   1.477
  749SOL    HW2 3026   0.670   0.618   1.516
  749SOL    HW3 3027   0.711   0.548   1.388
  749SOL    MW4 3028   0.683   0.544   1.470
  750SOL     OW 3029   0.683   0.787   1.592
  750SOL    HW2 3030   0.674   0.785   1.687
  750SOL    HW3 3031   0.762   0.840   1.576
  750SOL    MW4 3032   0.692   0.794   1.602
  751SOL     OW 3033   0.439   0.888   1.502
  751SOL    HW2 3034   0.434   0.981   1.523
  751SOL    HW3 3035   0.517   0.857   1.548
  751SOL    MW4 3036   0.448   0.896   1.511
  752SOL     OW 3037   0.454   1.143   1.557
  752SOL    HW2 3038   0.533   1.195   1.540
  752SOL    HW3 3039   0.382   1.197   1.524
  752SOL    MW4 3040   0.455   1.157   1.551
  753SOL     OW 3041   0.668   1.300   1.478
  753SOL    HW2 3042   0.666   1.394   1.495
  753SOL    HW3 3043   0.657   1.292   1.383
  753SOL    MW4 3044   0.666   1.311   1.468
  754SOL     OW 3045   0.678   1.554   1.551
  754SOL    HW2 3046   0.760   1.598   1.532
  754SOL    HW3 3047   0.611   1.607   1.508
  754SOL    MW4 3048   0.680   1.567   1.543
  755SOL     OW 3049   0.448   1.695   1.458
  755SOL    HW2 3050   0.452   1.777   1.508
  755SOL    HW3 3051   0.372   1.649   1.494
  755SOL    MW4 3052   0.438   1.700   1.469
  756SOL     OW 3053   0.476   1.935   1.577
  756SOL    HW2 3054   0.463   1.945   1.672
  756SOL    HW3 3055   0.396   1.968   1.538
  756SOL    MW4 3056   0.464   1.941   1.585
  757SOL     OW 3057   0.687   2.074   1.462
  757SOL    HW2 3058   0.760   2.038   1.511
  757SOL    HW3 3059   0.609   2.040   1.506
  757SOL    MW4 3060   0.686   2.065   1.475
  758SOL     OW 3061   0.640   2.297   1.607
  758SOL    HW2 3062   0.568   2.341   1.562
  758SOL    HW3 3063   0.657   2.219   1.553
  758SOL    MW4 3064   0.633   2.292   1.594
  759SOL     OW 3065   0.417   2.440   1.475
  759SOL    HW2 3066   0.429   2.528   1.511
  759SOL    HW3 3067   0.343   2.404   1.524
  759SOL    MW4 3068   0.409   2.447   1.486
  760SOL     OW 3069   0.423   2.719   1.560
  760SOL    HW2 3070   0.429   2.725   1.656
  760SOL    HW3 3071   0.503   2.761   1.528
  760SOL    MW4 3072   0.434   2.725   1.569
  761SOL     OW 3073   0.664   2.824   1.491
  761SOL    HW2 3074   0.670   2.917   1.516
  761SOL    HW3 3075   0.674   2.825   1.396
  761SOL    MW4 3076   0.666   2.837   1.482
  762SOL     OW 3077   0.687   3.076   1.570
  762SOL    HW2 3078   0.761   3.137   1.565
  762SOL    HW3 3079   0.615   3.122   1.527
  762SOL    MW4 3080   0.687   3.090   1.563
  763SOL     OW 3081   0.472   3.214   1.431
  763SOL    HW2 3082   0.386   3.194   1.468
  763SOL    HW3 3083   0.460   3.208   1.336
  763SOL    MW4 3084   0.459   3.210   1.423
  764SOL     OW 3085   0.494   3.479   1.548
  764SOL    HW2 3086   0.477   3.394   1.508
  764SOL    HW3 3087   0.415   3.530   1.530
  764SOL    MW4 3088   0.481   3.474   1.541
  765SOL     OW 3089   0.676   3.663   1.471
  765SOL    HW2 3090   0.762   3.628   1.494
  765SOL    HW3 3091   0.614   3.603   1.514
  765SOL    MW4 3092   0.679   3.650   1.480
  766SOL     OW 3093   0.653   3.897   1.612
  766SOL    HW2 3094   0.725   3.944   1.571
  766SOL    HW3 3095   0.652   3.811   1.570
  766SOL    MW4 3096   0.662   3.892   1.601
  767SOL     OW 3097   0.437   4.009   1.442
  767SOL    HW2 3098   0.502   3.965   1.497
  767SOL    HW3 3099   0.464   3.990   1.352
  767SOL    MW4 3100   0.449   4.001   1.437
  768SOL     OW 3101   0.477   4.269   1.534
  768SOL    HW2 3102   0.451   4.184   1.497
  768SOL    HW3 3103   0.399   4.324   1.526
  768SOL    MW4 3104   0.464   4.265   1.528
  769SOL     OW 3105   0.698   4.399   1.448
  769SOL    HW2 3106   0.639   4.345   1.500
  769SOL    HW3 3107   0.688   4.487   1.484
  769SOL    MW4 3108   0.689   4.403   1.459
  770SOL     OW 3109   1.072   4.615   1.570
  770SOL    HW2 3110   1.062   4.636   1.663
  770SOL    HW3 3111   1.134   4.681   1.537
  770SOL    MW4 3112   1.079   4.627   1.578
  771SOL     OW 3113   0.842   0.077   1.477
  771SOL    HW2 3114   0.848   0.165   1.514
  771SOL    HW3 3115   0.927   0.037   1.494
  771SOL    MW4 3116   0.854   0.083   1.484
  772SOL     OW 3117   0.899   0.368   1.577
  772SOL    HW2 3118   0.899   0.368   1.672
  772SOL    HW3 3119   0.813   0.401   1.552
  772SOL    MW4 3120   0.888   0.372   1.586
  773SOL     OW 3121   1.111   0.501   1.447
  773SOL    HW2 3122   1.111   0.589   1.486
  773SOL    HW3 3123   1.035   0.458   1.486
  773SOL    MW4 3124   1.101   0.507   1.458
  774SOL     OW 3125   1.116   0.739   1.597
  774SOL    HW2 3126   1.108   0.732   1.693
  774SOL    HW3 3127   1.187   0.802   1.584
  774SOL    MW4 3128   1.124   0.746   1.608
  775SOL     OW 3129   0.910   0.903   1.500
  775SOL    HW2 3130   0.986   0.849   1.523
  775SOL    HW3 3131   0.907   0.899   1.405
  775SOL    MW4 3132   0.920   0.895   1.491
  776SOL     OW 3133   0.898   1.161   1.611
  776SOL    HW2 3134   0.899   1.069   1.584
  776SOL    HW3 3135   0.821   1.197   1.566
  776SOL    MW4 3136   0.888   1.153   1.601
  777SOL     OW 3137   1.085   1.291   1.462
  777SOL    HW2 3138   1.155   1.259   1.518
  777SOL    HW3 3139   1.011   1.233   1.479
  777SOL    MW4 3140   1.084   1.279   1.471
  778SOL     OW 3141   1.082   1.549   1.562
  778SOL    HW2 3142   1.172   1.580   1.559
  778SOL    HW3 3143   1.086   1.458   1.531
  778SOL    MW4 3144   1.094   1.541   1.558
  779SOL     OW 3145   0.899   1.709   1.440
  779SOL    HW2 3146   0.957   1.639   1.469
  779SOL    HW3 3147   0.904   1.706   1.344
  779SOL    MW4 3148   0.907   1.699   1.431
  780SOL     OW 3149   0.917   1.961   1.580
  780SOL    HW2 3150   0.997   1.995   1.541
  780SOL    HW3 3151   0.906   1.875   1.539
  780SOL    MW4 3152   0.926   1.954   1.569
  781SOL     OW 3153   1.155   2.048   1.474
  781SOL    HW2 3154   1.222   2.006   1.528
  781SOL    HW3 3155   1.153   2.138   1.505
  781SOL    MW4 3156   1.164   2.054   1.485
  782SOL     OW 3157   1.139   2.297   1.604
  782SOL    HW2 3158   1.217   2.348   1.580
  782SOL    HW3 3159   1.067   2.342   1.560
  782SOL    MW4 3160   1.140   2.310   1.595
  783SOL     OW 3161   0.883   2.401   1.531
  783SOL    HW2 3162   0.874   2.496   1.541
  783SOL    HW3 3163   0.799   2.366   1.559
  783SOL    MW4 3164   0.871   2.409   1.536
  784SOL     OW 3165   0.864   2.663   1.593
  784SOL    HW2 3166   0.863   2.672   1.688
  784SOL    HW3 3167   0.793   2.720   1.562
  784SOL    MW4 3168   0.855   2.672   1.601
  785SOL     OW 3169   1.118   2.777   1.557
  785SOL    HW2 3170   1.115   2.871   1.572
  785SOL    HW3 3171   1.027   2.748   1.567
  785SOL    MW4 3172   1.105   2.785   1.561
  786SOL     OW 3173   1.130   3.054   1.584
  786SOL    HW2 3174   1.133   3.053   1.679
  786SOL    HW3 3175   1.213   3.093   1.557
  786SOL    MW4 3176   1.141   3.059   1.593
  787SOL     OW 3177   0.917   3.239   1.515
  787SOL    HW2 3178   0.984   3.177   1.545
  787SOL    HW3 3179   0.899   3.213   1.425
  787SOL    MW4 3180   0.923   3.227   1.507
  788SOL     OW 3181   0.896   3.515   1.573
  788SOL    HW2 3182   0.969   3.544   1.519
  788SOL    HW3 3183   0.888   3.421   1.556
  788SOL    MW4 3184   0.904   3.506   1.564
  789SOL     OW 3185   1.131   3.618   1.475
  789SOL    HW2 3186   1.215   3.589   1.511
  789SOL    HW3 3187   1.144   3.616   1.380
  789SOL    MW4 3188   1.144   3.614   1.467
  790SOL     OW 3189   1.089   3.875   1.560
  790SOL    HW2 3190   1.174   3.916   1.545
  790SOL    HW3 3191   1.098   3.787   1.522
  790SOL    MW4 3192   1.102   3.869   1.553
  791SOL     OW 3193   0.862   4.001   1.478
  791SOL    HW2 3194   0.879   4.092   1.501
  791SOL    HW3 3195   0.936   3.952   1.514
  791SOL    MW4 3196   0.874   4.006   1.486
  792SOL     OW 3197   0.931   4.263   1.555
  792SOL    HW2 3198   0.914   4.276   1.648
  792SOL    HW3 3199   0.859   4.309   1.511
  792SOL    MW4 3200   0.919   4.271   1.561
  793SOL     OW 3201   1.156   4.379   1.461
  793SOL    HW2 3202   1.075   4.329   1.474
  793SOL    HW3 3203   1.146   4.455   1.518
  793SOL    MW4 3204   1.144   4.382   1.470
  794SOL     OW 3205   1.534   4.661   1.542
  794SOL    HW2 3206   1.514   4.664   1.636
  794SOL    HW3 3207   1.466   4.714   1.501
  794SOL    MW4 3208   1.523   4.669   1.549
  795SOL     OW 3209   1.297   0.116   1.500
  795SOL    HW2 3210   1.322   0.201   1.537
  795SOL    HW3 3211   1.296   0.130   1.405
  795SOL    MW4 3212   1.300   0.129   1.492
  796SOL     OW 3213   1.325   0.385   1.593
  796SOL    HW2 3214   1.403   0.436   1.568
  796SOL    HW3 3215   1.253   0.427   1.546
  796SOL    MW4 3216   1.326   0.398   1.584
  797SOL     OW 3217   1.544   0.526   1.508
  797SOL    HW2 3218   1.608   0.474   1.556
  797SOL    HW3 3219   1.574   0.523   1.417
  797SOL    MW4 3220   1.556   0.519   1.502
  798SOL     OW 3221   1.563   0.782   1.590
  798SOL    HW2 3222   1.562   0.786   1.686
  798SOL    HW3 3223   1.552   0.690   1.569
  798SOL    MW4 3224   1.561   0.771   1.600
  799SOL     OW 3225   1.328   0.914   1.514
  799SOL    HW2 3226   1.407   0.866   1.541
  799SOL    HW3 3227   1.324   0.903   1.419
  799SOL    MW4 3228   1.338   0.906   1.505
  800SOL     OW 3229   1.352   1.172   1.583
  800SOL    HW2 3230   1.335   1.187   1.676
  800SOL    HW3 3231   1.336   1.079   1.569
  800SOL    MW4 3232   1.348   1.162   1.593
  801SOL     OW 3233   1.583   1.280   1.481
  801SOL    HW2 3234   1.509   1.225   1.510
  801SOL    HW3 3235   1.571   1.288   1.386
  801SOL    MW4 3236   1.571   1.273   1.472
  802SOL     OW 3237   1.543   1.518   1.599
  802SOL    HW2 3238   1.553   1.518   1.694
  802SOL    HW3 3239   1.548   1.426   1.574
  802SOL    MW4 3240   1.545   1.506   1.608
  803SOL     OW 3241   1.338   1.662   1.487
  803SOL    HW2 3242   1.412   1.615   1.524
  803SOL    HW3 3243   1.353   1.660   1.392
  803SOL    MW4 3244   1.350   1.656   1.479
  804SOL     OW 3245   1.371   1.924   1.570
  804SOL    HW2 3246   1.362   1.925   1.665
  804SOL    HW3 3247   1.362   1.832   1.546
  804SOL    MW4 3248   1.369   1.912   1.579
  805SOL     OW 3249   1.606   2.048   1.497
  805SOL    HW2 3250   1.529   2.008   1.538
  805SOL    HW3 3251   1.598   2.026   1.404
  805SOL    MW4 3252   1.594   2.039   1.490
  806SOL     OW 3253   1.593   2.302   1.608
  806SOL    HW2 3254   1.664   2.352   1.568
  806SOL    HW3 3255   1.597   2.217   1.566
  806SOL    MW4 3256   1.603   2.298   1.597
  807SOL     OW 3257   1.373   2.458   1.497
  807SOL    HW2 3258   1.373   2.537   1.551
  807SOL    HW3 3259   1.451   2.410   1.523
  807SOL    MW4 3260   1.383   2.463   1.507
  808SOL     OW 3261   1.380   2.717   1.634
  808SOL    HW2 3262   1.434   2.775   1.581
  808SOL    HW3 3263   1.291   2.733   1.604
  808SOL    MW4 3264   1.375   2.726   1.623
  809SOL     OW 3265   1.564   2.852   1.482
  809SOL    HW2 3266   1.636   2.799   1.516
  809SOL    HW3 3267   1.556   2.826   1.390
  809SOL    MW4 3268   1.572   2.842   1.474
  810SOL     OW 3269   1.611   3.100   1.587
  810SOL    HW2 3270   1.680   3.121   1.524
  810SOL    HW3 3271   1.584   3.011   1.564
  810SOL    MW4 3272   1.616   3.091   1.576
  811SOL     OW 3273   1.354   3.191   1.494
  811SOL    HW2 3274   1.344   3.268   1.551
  811SOL    HW3 3275   1.439   3.155   1.519
  811SOL    MW4 3276   1.364   3.196   1.505
  812SOL     OW 3277   1.381   3.497   1.558
  812SOL    HW2 3278   1.378   3.494   1.654
  812SOL    HW3 3279   1.469   3.531   1.538
  812SOL    MW4 3280   1.392   3.501   1.568
  813SOL     OW 3281   1.637   3.602   1.488
  813SOL    HW2 3282   1.627   3.696   1.501
  813SOL    HW3 3283   1.631   3.590   1.393
  813SOL    MW4 3284   1.635   3.612   1.477
  814SOL     OW 3285   1.592   3.860   1.568
  814SOL    HW2 3286   1.595   3.851   1.663
  814SOL    HW3 3287   1.500   3.881   1.548
  814SOL    MW4 3288   1.580   3.862   1.578
  815SOL     OW 3289   1.342   3.966   1.500
  815SOL    HW2 3290   1.358   4.051   1.541
  815SOL    HW3 3291   1.346   3.983   1.406
  815SOL    MW4 3292   1.344   3.980   1.493
  816SOL     OW 3293   1.355   4.220   1.585
  816SOL    HW2 3294   1.433   4.275   1.583
  816SOL    HW3 3295   1.288   4.273   1.541
  816SOL    MW4 3296   1.356   4.234   1.579
  817SOL     OW 3297   1.581   4.391   1.468
  817SOL    HW2 3298   1.664   4.360   1.505
  817SOL    HW3 3299   1.572   4.480   1.502
  817SOL    MW4 3300   1.591   4.399   1.477
  818SOL     OW 3301   1.987   4.626   1.641
  818SOL    HW2 3302   1.986   4.634   1.736
  818SOL    HW3 3303   1.907   4.670   1.612
  818SOL    MW4 3304   1.976   4.633   1.650
  819SOL     OW 3305   1.778   0.133   1.536
  819SOL    HW2 3306   1.695   0.084   1.536
  819SOL    HW3 3307   1.803   0.137   1.444
  819SOL    MW4 3308   1.770   0.127   1.524
  820SOL     OW 3309   1.749   0.396   1.616
  820SOL    HW2 3310   1.829   0.433   1.580
  820SOL    HW3 3311   1.741   0.309   1.575
  820SOL    MW4 3312   1.758   0.389   1.606
  821SOL     OW 3313   2.014   0.496   1.492
  821SOL    HW2 3314   2.085   0.450   1.538
  821SOL    HW3 3315   2.017   0.586   1.527
  821SOL    MW4 3316   2.024   0.502   1.503
  822SOL     OW 3317   2.018   0.760   1.588
  822SOL    HW2 3318   2.092   0.805   1.545
  822SOL    HW3 3319   1.941   0.787   1.537
  822SOL    MW4 3320   2.018   0.770   1.576
  823SOL     OW 3321   1.787   0.853   1.470
  823SOL    HW2 3322   1.809   0.942   1.498
  823SOL    HW3 3323   1.721   0.823   1.533
  823SOL    MW4 3324   1.781   0.861   1.482
  824SOL     OW 3325   1.811   1.121   1.530
  824SOL    HW2 3326   1.895   1.163   1.511
  824SOL    HW3 3327   1.746   1.185   1.502
  824SOL    MW4 3328   1.814   1.135   1.524
  825SOL     OW 3329   2.047   1.244   1.500
  825SOL    HW2 3330   2.050   1.326   1.548
  825SOL    HW3 3331   2.039   1.270   1.408
  825SOL    MW4 3332   2.047   1.258   1.494
  826SOL     OW 3333   2.036   1.492   1.629
  826SOL    HW2 3334   2.103   1.552   1.597
  826SOL    HW3 3335   1.954   1.524   1.592
  826SOL    MW4 3336   2.034   1.504   1.620
  827SOL     OW 3337   1.809   1.582   1.526
  827SOL    HW2 3338   1.718   1.566   1.549
  827SOL    HW3 3339   1.806   1.609   1.434
  827SOL    MW4 3340   1.796   1.583   1.517
  828SOL     OW 3341   1.801   1.882   1.633
  828SOL    HW2 3342   1.800   1.791   1.603
  828SOL    HW3 3343   1.737   1.927   1.577
  828SOL    MW4 3344   1.792   1.876   1.622
  829SOL     OW 3345   1.974   2.066   1.519
  829SOL    HW2 3346   2.048   2.008   1.534
  829SOL    HW3 3347   1.899   2.019   1.556
  829SOL    MW4 3348   1.974   2.052   1.526
  830SOL     OW 3349   2.029   2.343   1.608
  830SOL    HW2 3350   2.028   2.338   1.703
  830SOL    HW3 3351   2.010   2.253   1.579
  830SOL    MW4 3352   2.026   2.330   1.616
  831SOL     OW 3353   1.795   2.462   1.523
  831SOL    HW2 3354   1.880   2.433   1.556
  831SOL    HW3 3355   1.804   2.459   1.428
  831SOL    MW4 3356   1.807   2.458   1.515
  832SOL     OW 3357   1.785   2.733   1.603
  832SOL    HW2 3358   1.871   2.767   1.581
  832SOL    HW3 3359   1.790   2.639   1.586
  832SOL    MW4 3360   1.797   2.725   1.598
  833SOL     OW 3361   2.029   2.816   1.492
  833SOL    HW2 3362   2.012   2.909   1.511
  833SOL    HW3 3363   2.039   2.813   1.397
  833SOL    MW4 3364   2.028   2.828   1.482
  834SOL     OW 3365   2.019   3.087   1.557
  834SOL    HW2 3366   2.034   3.066   1.649
  834SOL    HW3 3367   2.097   3.136   1.531
  834SOL    MW4 3368   2.032   3.091   1.566
  835SOL     OW 3369   1.822   3.231   1.437
  835SOL    HW2 3370   1.832   3.312   1.487
  835SOL    HW3 3371   1.888   3.172   1.472
  835SOL    MW4 3372   1.832   3.234   1.448
  836SOL     OW 3373   1.849   3.459   1.589
  836SOL    HW2 3374   1.820   3.445   1.680
  836SOL    HW3 3375   1.776   3.506   1.548
  836SOL    MW4 3376   1.835   3.463   1.596
  837SOL     OW 3377   2.012   3.638   1.467
  837SOL    HW2 3378   2.093   3.597   1.497
  837SOL    HW3 3379   1.943   3.598   1.519
  837SOL    MW4 3380   2.014   3.627   1.478
  838SOL     OW 3381   2.074   3.870   1.608
  838SOL    HW2 3382   2.150   3.915   1.572
  838SOL    HW3 3383   2.053   3.802   1.544
  838SOL    MW4 3384   2.081   3.867   1.595
  839SOL     OW 3385   1.837   4.000   1.530
  839SOL    HW2 3386   1.913   3.945   1.550
  839SOL    HW3 3387   1.762   3.949   1.561
  839SOL    MW4 3388   1.837   3.986   1.536
  840SOL     OW 3389   1.819   4.289   1.566
  840SOL    HW2 3390   1.902   4.321   1.531
  840SOL    HW3 3391   1.823   4.194   1.554
  840SOL    MW4 3392   1.831   4.281   1.560
  841SOL     OW 3393   2.048   4.407   1.470
  841SOL    HW2 3394   2.116   4.368   1.524
  841SOL    HW3 3395   2.023   4.487   1.517
  841SOL    MW4 3396   2.054   4.413   1.483
  842SOL     OW 3397   2.470   4.637   1.615
  842SOL    HW2 3398   2.472   4.656   1.709
  842SOL    HW3 3399   2.395   4.687   1.582
  842SOL    MW4 3400   2.460   4.646   1.623
  843SOL     OW 3401   2.220   0.089   1.536
  843SOL    HW2 3402   2.154   0.027   1.566
  843SOL    HW3 3403   2.212   0.089   1.441
  843SOL    MW4 3404   2.210   0.081   1.528
  844SOL     OW 3405   2.223   0.359   1.607
  844SOL    HW2 3406   2.221   0.352   1.702
  844SOL    HW3 3407   2.243   0.270   1.576
  844SOL    MW4 3408   2.226   0.346   1.615
  845SOL     OW 3409   2.418   0.503   1.487
  845SOL    HW2 3410   2.502   0.485   1.528
  845SOL    HW3 3411   2.355   0.447   1.534
  845SOL    MW4 3412   2.420   0.493   1.498
  846SOL     OW 3413   2.449   0.747   1.591
  846SOL    HW2 3414   2.372   0.796   1.561
  846SOL    HW3 3415   2.425   0.655   1.579
  846SOL    MW4 3416   2.436   0.741   1.585
  847SOL     OW 3417   2.235   0.882   1.481
  847SOL    HW2 3418   2.248   0.970   1.516
  847SOL    HW3 3419   2.237   0.894   1.386
  847SOL    MW4 3420   2.237   0.895   1.473
  848SOL     OW 3421   2.285   1.133   1.566
  848SOL    HW2 3422   2.282   1.128   1.661
  848SOL    HW3 3423   2.203   1.175   1.541
  848SOL    MW4 3424   2.274   1.138   1.575
  849SOL     OW 3425   2.478   1.292   1.459
  849SOL    HW2 3426   2.406   1.244   1.501
  849SOL    HW3 3427   2.457   1.290   1.366
  849SOL    MW4 3428   2.465   1.286   1.452
  850SOL     OW 3429   2.461   1.526   1.611
  850SOL    HW2 3430   2.528   1.585   1.576
  850SOL    HW3 3431   2.476   1.444   1.564
  850SOL    MW4 3432   2.472   1.523   1.600
  851SOL     OW 3433   2.243   1.649   1.478
  851SOL    HW2 3434   2.312   1.599   1.523
  851SOL    HW3 3435   2.243   1.615   1.389
  851SOL    MW4 3436   2.252   1.638   1.472
  852SOL     OW 3437   2.244   1.923   1.551
  852SOL    HW2 3438   2.244   1.917   1.647
  852SOL    HW3 3439   2.251   1.832   1.522
  852SOL    MW4 3440   2.245   1.910   1.560
  853SOL     OW 3441   2.470   2.069   1.503
  853SOL    HW2 3442   2.393   2.015   1.522
  853SOL    HW3 3443   2.472   2.075   1.408
  853SOL    MW4 3444   2.460   2.063   1.493
  854SOL     OW 3445   2.480   2.323   1.596
  854SOL    HW2 3446   2.479   2.325   1.691
  854SOL    HW3 3447   2.460   2.232   1.573
  854SOL    MW4 3448   2.478   2.311   1.605
  855SOL     OW 3449   2.257   2.487   1.539
  855SOL    HW2 3450   2.329   2.427   1.562
  855SOL    HW3 3451   2.179   2.433   1.546
  855SOL    MW4 3452   2.256   2.472   1.543
  856SOL     OW 3453   2.281   2.738   1.646
  856SOL    HW2 3454   2.271   2.649   1.613
  856SOL    HW3 3455   2.201   2.783   1.620
  856SOL    MW4 3456   2.269   2.732   1.638
  857SOL     OW 3457   2.485   2.851   1.482
  857SOL    HW2 3458   2.479   2.943   1.506
  857SOL    HW3 3459   2.421   2.807   1.539
  857SOL    MW4 3460   2.476   2.857   1.493
  858SOL     OW 3461   2.452   3.099   1.605
  858SOL    HW2 3462   2.532   3.146   1.581
  858SOL    HW3 3463   2.385   3.131   1.545
  858SOL    MW4 3464   2.454   3.109   1.594
  859SOL     OW 3465   2.234   3.225   1.470
  859SOL    HW2 3466   2.218   3.312   1.505
  859SOL    HW3 3467   2.243   3.238   1.375
  859SOL    MW4 3468   2.233   3.238   1.462
  860SOL     OW 3469   2.228   3.489   1.551
  860SOL    HW2 3470   2.246   3.495   1.645
  860SOL    HW3 3471   2.308   3.520   1.509
  860SOL    MW4 3472   2.241   3.494   1.558
  861SOL     OW 3473   2.446   3.622   1.462
  861SOL    HW2 3474   2.533   3.583   1.474
  861SOL    HW3 3475   2.449   3.702   1.515
  861SOL    MW4 3476   2.458   3.627   1.471
  862SOL     OW 3477   2.512   3.863   1.598
  862SOL    HW2 3478   2.509   3.876   1.693
  862SOL    HW3 3479   2.588   3.914   1.569
  862SOL    MW4 3480   2.522   3.871   1.607
  863SOL     OW 3481   2.291   4.015   1.490
  863SOL    HW2 3482   2.368   3.960   1.499
  863SOL    HW3 3483   2.267   4.009   1.398
  863SOL    MW4 3484   2.298   4.007   1.479
  864SOL     OW 3485   2.258   4.283   1.596
  864SOL    HW2 3486   2.346   4.311   1.568
  864SOL    HW3 3487   2.253   4.191   1.568
  864SOL    MW4 3488   2.269   4.274   1.588
  865SOL     OW 3489   2.505   4.382   1.484
  865SOL    HW2 3490   2.495   4.472   1.515
  865SOL    HW3 3491   2.509   4.389   1.389
  865SOL    MW4 3492   2.504   4.395   1.476
  866SOL     OW 3493   2.895   4.636   1.626
  866SOL    HW2 3494   2.883   4.646   1.721
  866SOL    HW3 3495   2.825   4.688   1.587
  866SOL    MW4 3496   2.884   4.644   1.633
  867SOL     OW 3497   2.694   0.114   1.521
  867SOL    HW2 3498   2.692   0.207   1.544
  867SOL    HW3 3499   2.610   0.080   1.552
  867SOL    MW4 3500   2.682   0.122   1.528
  868SOL     OW 3501   2.662   0.395   1.568
  868SOL    HW2 3502   2.651   0.389   1.663
  868SOL    HW3 3503   2.736   0.455   1.557
  868SOL    MW4 3504   2.670   0.402   1.579
  869SOL     OW 3505   2.917   0.509   1.533
  869SOL    HW2 3506   2.939   0.598   1.557
  869SOL    HW3 3507   2.929   0.505   1.438
  869SOL    MW4 3508   2.922   0.520   1.524
  870SOL     OW 3509   2.947   0.758   1.624
  870SOL    HW2 3510   2.949   0.769   1.720
  870SOL    HW3 3511   2.866   0.801   1.597
  870SOL    MW4 3512   2.937   0.765   1.633
  871SOL     OW 3513   2.703   0.902   1.562
  871SOL    HW2 3514   2.627   0.847   1.583
  871SOL    HW3 3515   2.706   0.903   1.466
  871SOL    MW4 3516   2.693   0.895   1.552
  872SOL     OW 3517   2.706   1.171   1.599
  872SOL    HW2 3518   2.699   1.077   1.582
  872SOL    HW3 3519   2.635   1.210   1.548
  872SOL    MW4 3520   2.696   1.164   1.590
  873SOL     OW 3521   2.934   1.292   1.506
  873SOL    HW2 3522   3.009   1.254   1.552
  873SOL    HW3 3523   2.857   1.250   1.545
  873SOL    MW4 3524   2.934   1.281   1.517
  874SOL     OW 3525   2.893   1.550   1.604
  874SOL    HW2 3526   2.811   1.585   1.569
  874SOL    HW3 3527   2.895   1.459   1.572
  874SOL    MW4 3528   2.882   1.542   1.595
  875SOL     OW 3529   2.671   1.677   1.502
  875SOL    HW2 3530   2.699   1.764   1.531
  875SOL    HW3 3531   2.671   1.682   1.407
  875SOL    MW4 3532   2.675   1.689   1.493
  876SOL     OW 3533   2.710   1.944   1.584
  876SOL    HW2 3534   2.709   1.950   1.679
  876SOL    HW3 3535   2.627   1.983   1.557
  876SOL    MW4 3536   2.699   1.950   1.593
  877SOL     OW 3537   2.944   2.061   1.441
  877SOL    HW2 3538   2.945   2.144   1.489
  877SOL    HW3 3539   2.865   2.017   1.471
  877SOL    MW4 3540   2.934   2.066   1.452
  878SOL     OW 3541   2.956   2.317   1.555
  878SOL    HW2 3542   2.956   2.320   1.651
  878SOL    HW3 3543   2.870   2.349   1.529
  878SOL    MW4 3544   2.945   2.322   1.564
  879SOL     OW 3545   2.700   2.429   1.493
  879SOL    HW2 3546   2.696   2.517   1.529
  879SOL    HW3 3547   2.625   2.383   1.532
  879SOL    MW4 3548   2.689   2.435   1.503
  880SOL     OW 3549   2.694   2.706   1.564
  880SOL    HW2 3550   2.773   2.747   1.529
  880SOL    HW3 3551   2.622   2.752   1.520
  880SOL    MW4 3552   2.695   2.717   1.554
  881SOL     OW 3553   2.906   2.848   1.484
  881SOL    HW2 3554   2.981   2.811   1.530
  881SOL    HW3 3555   2.889   2.931   1.528
  881SOL    MW4 3556   2.914   2.854   1.496
  882SOL     OW 3557   2.856   3.106   1.573
  882SOL    HW2 3558   2.881   3.105   1.665
  882SOL    HW3 3559   2.936   3.131   1.526
  882SOL    MW4 3560   2.870   3.109   1.579
  883SOL     OW 3561   2.648   3.245   1.475
  883SOL    HW2 3562   2.726   3.202   1.509
  883SOL    HW3 3563   2.654   3.236   1.380
  883SOL    MW4 3564   2.659   3.238   1.467
  884SOL     OW 3565   2.694   3.511   1.557
  884SOL    HW2 3566   2.686   3.509   1.652
  884SOL    HW3 3567   2.675   3.421   1.530
  884SOL    MW4 3568   2.691   3.499   1.566
  885SOL     OW 3569   2.943   3.601   1.478
  885SOL    HW2 3570   2.860   3.571   1.514
  885SOL    HW3 3571   2.932   3.594   1.383
  885SOL    MW4 3572   2.930   3.596   1.470
  886SOL     OW 3573   2.968   3.850   1.601
  886SOL    HW2 3574   2.887   3.889   1.570
  886SOL    HW3 3575   2.975   3.768   1.554
  886SOL    MW4 3576   2.958   3.845   1.591
  887SOL     OW 3577   2.730   3.983   1.504
  887SOL    HW2 3578   2.722   4.073   1.535
  887SOL    HW3 3579   2.730   3.991   1.408
  887SOL    MW4 3580   2.729   3.996   1.495
  888SOL     OW 3581   2.715   4.242   1.590
  888SOL    HW2 3582   2.798   4.282   1.565
  888SOL    HW3 3583   2.648   4.297   1.551
  888SOL    MW4 3584   2.717   4.254   1.582
  889SOL     OW 3585   2.928   4.391   1.509
  889SOL    HW2 3586   2.928   4.483   1.537
  889SOL    HW3 3587   2.939   4.396   1.414
  889SOL    MW4 3588   2.930   4.404   1.500
  890SOL     OW 3589   3.365   4.645   1.604
  890SOL    HW2 3590   3.442   4.674   1.555
  890SOL    HW3 3591   3.374   4.550   1.608
  890SOL    MW4 3592   3.376   4.636   1.598
  891SOL     OW 3593   3.111   0.098   1.517
  891SOL    HW2 3594   3.183   0.041   1.542
  891SOL    HW3 3595   3.035   0.063   1.564
  891SOL    MW4 3596   3.110   0.086   1.526
  892SOL     OW 3597   3.144   0.346   1.606
  892SOL    HW2 3598   3.127   0.257   1.574
  892SOL    HW3 3599   3.061   0.392   1.595
  892SOL    MW4 3600   3.131   0.340   1.601
  893SOL     OW 3601   3.381   0.468   1.545
  893SOL    HW2 3602   3.298   0.431   1.573
  893SOL    HW3 3603   3.381   0.459   1.450
  893SOL    MW4 3604   3.370   0.462   1.536
  894SOL     OW 3605   3.385   0.735   1.610
  894SOL    HW2 3606   3.374   0.723   1.705
  894SOL    HW3 3607   3.385   0.646   1.575
  894SOL    MW4 3608   3.384   0.722   1.618
  895SOL     OW 3609   3.185   0.888   1.525
  895SOL    HW2 3610   3.259   0.830   1.543
  895SOL    HW3 3611   3.109   0.842   1.559
  895SOL    MW4 3612   3.185   0.874   1.532
  896SOL     OW 3613   3.188   1.142   1.620
  896SOL    HW2 3614   3.170   1.135   1.714
  896SOL    HW3 3615   3.185   1.052   1.588
  896SOL    MW4 3616   3.185   1.129   1.628
  897SOL     OW 3617   3.364   1.282   1.454
  897SOL    HW2 3618   3.449   1.263   1.492
  897SOL    HW3 3619   3.301   1.238   1.511
  897SOL    MW4 3620   3.367   1.274   1.466
  898SOL     OW 3621   3.340   1.538   1.562
  898SOL    HW2 3622   3.321   1.525   1.655
  898SOL    HW3 3623   3.371   1.453   1.531
  898SOL    MW4 3624   3.341   1.525   1.570
  899SOL     OW 3625   3.118   1.652   1.460
  899SOL    HW2 3626   3.195   1.609   1.497
  899SOL    HW3 3627   3.045   1.618   1.513
  899SOL    MW4 3628   3.119   1.642   1.472
  900SOL     OW 3629   3.129   1.914   1.602
  900SOL    HW2 3630   3.126   1.824   1.571
  900SOL    HW3 3631   3.066   1.961   1.547
  900SOL    MW4 3632   3.121   1.909   1.590
  901SOL     OW 3633   3.350   2.060   1.514
  901SOL    HW2 3634   3.270   2.015   1.540
  901SOL    HW3 3635   3.343   2.070   1.419
  901SOL    MW4 3636   3.339   2.056   1.505
  902SOL     OW 3637   3.373   2.311   1.633
  902SOL    HW2 3638   3.459   2.344   1.606
  902SOL    HW3 3639   3.365   2.227   1.586
  902SOL    MW4 3640   3.383   2.304   1.623
  903SOL     OW 3641   3.185   2.450   1.500
  903SOL    HW2 3642   3.252   2.400   1.546
  903SOL    HW3 3643   3.108   2.393   1.500
  903SOL    MW4 3644   3.183   2.436   1.506
  904SOL     OW 3645   3.134   2.727   1.588
  904SOL    HW2 3646   3.217   2.758   1.551
  904SOL    HW3 3647   3.144   2.632   1.594
  904SOL    MW4 3648   3.146   2.719   1.584
  905SOL     OW 3649   3.391   2.862   1.516
  905SOL    HW2 3650   3.379   2.955   1.535
  905SOL    HW3 3651   3.404   2.859   1.421
  905SOL    MW4 3652   3.391   2.874   1.506
  906SOL     OW 3653   3.372   3.126   1.603
  906SOL    HW2 3654   3.361   3.120   1.697
  906SOL    HW3 3655   3.450   3.181   1.591
  906SOL    MW4 3656   3.381   3.133   1.613
  907SOL     OW 3657   3.117   3.190   1.472
  907SOL    HW2 3658   3.204   3.162   1.503
  907SOL    HW3 3659   3.122   3.182   1.377
  907SOL    MW4 3660   3.129   3.185   1.463
  908SOL     OW 3661   3.167   3.463   1.568
  908SOL    HW2 3662   3.138   3.375   1.546
  908SOL    HW3 3663   3.095   3.520   1.542
  908SOL    MW4 3664   3.154   3.459   1.561
  909SOL     OW 3665   3.389   3.591   1.471
  909SOL    HW2 3666   3.454   3.571   1.538
  909SOL    HW3 3667   3.310   3.545   1.500
  909SOL    MW4 3668   3.387   3.582   1.484
  910SOL     OW 3669   3.391   3.853   1.597
  910SOL    HW2 3670   3.319   3.904   1.560
  910SOL    HW3 3671   3.389   3.769   1.551
  910SOL    MW4 3672   3.381   3.849   1.586
  911SOL     OW 3673   3.183   3.985   1.494
  911SOL    HW2 3674   3.181   4.073   1.532
  911SOL    HW3 3675   3.107   3.941   1.532
  911SOL    MW4 3676   3.173   3.991   1.504
  912SOL     OW 3677   3.162   4.244   1.569
  912SOL    HW2 3678   3.168   4.239   1.664
  912SOL    HW3 3679   3.079   4.290   1.553
  912SOL    MW4 3680   3.152   4.249   1.579
  913SOL     OW 3681   3.412   4.371   1.512
  913SOL    HW2 3682   3.327   4.334   1.537
  913SOL    HW3 3683   3.412   4.367   1.416
  913SOL    MW4 3684   3.400   4.365   1.503
  914SOL     OW 3685   3.849   4.633   1.616
  914SOL    HW2 3686   3.839   4.642   1.711
  914SOL    HW3 3687   3.922   4.691   1.594
  914SOL    MW4 3688   3.857   4.642   1.626
  915SOL     OW 3689   3.614   0.096   1.523
  915SOL    HW2 3690   3.688   0.047   1.559
  915SOL    HW3 3691   3.619   0.081   1.428
  915SOL    MW4 3692   3.625   0.088   1.515
  916SOL     OW 3693   3.625   0.375   1.635
  916SOL    HW2 3694   3.650   0.285   1.616
  916SOL    HW3 3695   3.534   0.382   1.605
  916SOL    MW4 3696   3.616   0.364   1.629
  917SOL     OW 3697   3.833   0.520   1.512
  917SOL    HW2 3698   3.761   0.486   1.566
  917SOL    HW3 3699   3.822   0.476   1.428
  917SOL    MW4 3700   3.822   0.510   1.508
  918SOL     OW 3701   3.792   0.780   1.620
  918SOL    HW2 3702   3.718   0.820   1.575
  918SOL    HW3 3703   3.803   0.695   1.578
  918SOL    MW4 3704   3.784   0.774   1.609
  919SOL     OW 3705   3.591   0.897   1.507
  919SOL    HW2 3706   3.516   0.850   1.545
  919SOL    HW3 3707   3.580   0.886   1.413
  919SOL    MW4 3708   3.579   0.889   1.500
  920SOL     OW 3709   3.585   1.163   1.579
  920SOL    HW2 3710   3.657   1.213   1.541
  920SOL    HW3 3711   3.602   1.072   1.553
  920SOL    MW4 3712   3.596   1.157   1.571
  921SOL     OW 3713   3.809   1.307   1.507
  921SOL    HW2 3714   3.867   1.237   1.538
  921SOL    HW3 3715   3.822   1.378   1.569
  921SOL    MW4 3716   3.819   1.307   1.519
  922SOL     OW 3717   3.834   1.594   1.626
  922SOL    HW2 3718   3.837   1.594   1.721
  922SOL    HW3 3719   3.744   1.620   1.604
  922SOL    MW4 3720   3.823   1.597   1.636
  923SOL     OW 3721   3.574   1.677   1.521
  923SOL    HW2 3722   3.493   1.637   1.554
  923SOL    HW3 3723   3.562   1.678   1.426
  923SOL    MW4 3724   3.562   1.672   1.513
  924SOL     OW 3725   3.595   1.961   1.559
  924SOL    HW2 3726   3.588   1.866   1.545
  924SOL    HW3 3727   3.507   1.994   1.544
  924SOL    MW4 3728   3.582   1.953   1.555
  925SOL     OW 3729   3.832   2.035   1.446
  925SOL    HW2 3730   3.843   2.121   1.486
  925SOL    HW3 3731   3.748   2.003   1.479
  925SOL    MW4 3732   3.823   2.042   1.456
  926SOL     OW 3733   3.836   2.278   1.573
  926SOL    HW2 3734   3.831   2.312   1.662
  926SOL    HW3 3735   3.894   2.339   1.527
  926SOL    MW4 3736   3.843   2.291   1.578
  927SOL     OW 3737   3.610   2.432   1.512
  927SOL    HW2 3738   3.616   2.524   1.535
  927SOL    HW3 3739   3.694   2.394   1.541
  927SOL    MW4 3740   3.622   2.439   1.519
  928SOL     OW 3741   3.616   2.709   1.572
  928SOL    HW2 3742   3.616   2.695   1.667
  928SOL    HW3 3743   3.537   2.761   1.555
  928SOL    MW4 3744   3.605   2.714   1.582
  929SOL     OW 3745   3.832   2.879   1.482
  929SOL    HW2 3746   3.912   2.828   1.493
  929SOL    HW3 3747   3.765   2.828   1.526
  929SOL    MW4 3748   3.834   2.865   1.489
  930SOL     OW 3749   3.832   3.141   1.573
  930SOL    HW2 3750   3.900   3.183   1.519
  930SOL    HW3 3751   3.824   3.053   1.536
  930SOL    MW4 3752   3.840   3.135   1.561
  931SOL     OW 3753   3.584   3.267   1.512
  931SOL    HW2 3754   3.663   3.228   1.549
  931SOL    HW3 3755   3.594   3.255   1.417
  931SOL    MW4 3756   3.596   3.261   1.504
  932SOL     OW 3757   3.612   3.515   1.608
  932SOL    HW2 3758   3.667   3.569   1.552
  932SOL    HW3 3759   3.610   3.430   1.564
  932SOL    MW4 3760   3.619   3.511   1.595
  933SOL     OW 3761   3.826   3.625   1.453
  933SOL    HW2 3762   3.895   3.569   1.488
  933SOL    HW3 3763   3.836   3.707   1.501
  933SOL    MW4 3764   3.837   3.628   1.464
  934SOL     OW 3765   3.851   3.823   1.633
  934SOL    HW2 3766   3.911   3.884   1.591
  934SOL    HW3 3767   3.764   3.857   1.612
  934SOL    MW4 3768   3.847   3.836   1.625
  935SOL     OW 3769   3.645   3.965   1.508
  935SOL    HW2 3770   3.647   4.057   1.536
  935SOL    HW3 3771   3.556   3.936   1.531
  935SOL    MW4 3772   3.633   3.973   1.515
  936SOL     OW 3773   3.630   4.229   1.601
  936SOL    HW2 3774   3.627   4.239   1.696
  936SOL    HW3 3775   3.549   4.269   1.570
  936SOL    MW4 3776   3.619   4.236   1.609
  937SOL     OW 3777   3.822   4.395   1.481
  937SOL    HW2 3778   3.755   4.340   1.522
  937SOL    HW3 3779   3.813   4.480   1.523
  937SOL    MW4 3780   3.812   4.399   1.492
  938SOL     OW 3781   4.291   0.016   1.613
  938SOL    HW2 3782   4.284   0.014   1.708
  938SOL    HW3 3783   4.299  -0.076   1.587
  938SOL    MW4 3784   4.291   0.004   1.622
  939SOL     OW 3785   4.051   0.128   1.515
  939SOL    HW2 3786   4.042   0.213   1.558
  939SOL    HW3 3787   4.123   0.085   1.561
  939SOL    MW4 3788   4.059   0.133   1.527
  940SOL     OW 3789   4.048   0.379   1.632
  940SOL    HW2 3790   4.050   0.386   1.728
  940SOL    HW3 3791   3.968   0.427   1.607
  940SOL    MW4 3792   4.038   0.387   1.642
  941SOL     OW 3793   4.292   0.471   1.512
  941SOL    HW2 3794   4.218   0.432   1.559
  941SOL    HW3 3795   4.369   0.428   1.550
  941SOL    MW4 3796   4.292   0.460   1.524
  942SOL     OW 3797   4.252   0.721   1.565
  942SOL    HW2 3798   4.254   0.629   1.539
  942SOL    HW3 3799   4.315   0.764   1.507
  942SOL    MW4 3800   4.261   0.715   1.554
  943SOL     OW 3801   4.050   0.878   1.527
  943SOL    HW2 3802   4.119   0.815   1.546
  943SOL    HW3 3803   3.973   0.844   1.573
  943SOL    MW4 3804   4.049   0.865   1.536
  944SOL     OW 3805   4.018   1.135   1.613
  944SOL    HW2 3806   4.011   1.131   1.709
  944SOL    HW3 3807   4.032   1.045   1.586
  944SOL    MW4 3808   4.019   1.123   1.622
  945SOL     OW 3809   4.251   1.241   1.527
  945SOL    HW2 3810   4.181   1.187   1.564
  945SOL    HW3 3811   4.331   1.194   1.550
  945SOL    MW4 3812   4.252   1.228   1.535
  946SOL     OW 3813   4.261   1.508   1.601
  946SOL    HW2 3814   4.252   1.416   1.577
  946SOL    HW3 3815   4.339   1.538   1.555
  946SOL    MW4 3816   4.270   1.500   1.592
  947SOL     OW 3817   4.070   1.645   1.476
  947SOL    HW2 3818   4.138   1.589   1.513
  947SOL    HW3 3819   3.990   1.618   1.522
  947SOL    MW4 3820   4.068   1.634   1.487
  948SOL     OW 3821   4.051   1.910   1.574
  948SOL    HW2 3822   4.053   1.818   1.550
  948SOL    HW3 3823   3.982   1.948   1.518
  948SOL    MW4 3824   4.042   1.903   1.563
  949SOL     OW 3825   4.258   2.069   1.483
  949SOL    HW2 3826   4.181   2.020   1.512
  949SOL    HW3 3827   4.262   2.055   1.389
  949SOL    MW4 3828   4.248   2.061   1.475
  950SOL     OW 3829   4.250   2.321   1.564
  950SOL    HW2 3830   4.259   2.321   1.660
  950SOL    HW3 3831   4.258   2.230   1.539
  950SOL    MW4 3832   4.252   2.309   1.574
  951SOL     OW 3833   4.031   2.444   1.443
  951SOL    HW2 3834   4.039   2.532   1.480
  951SOL    HW3 3835   4.108   2.397   1.476
  951SOL    MW4 3836   4.042   2.449   1.452
  952SOL     OW 3837   4.026   2.700   1.555
  952SOL    HW2 3838   4.033   2.687   1.649
  952SOL    HW3 3839   4.105   2.748   1.530
  952SOL    MW4 3840   4.037   2.705   1.564
  953SOL     OW 3841   4.242   2.852   1.478
  953SOL    HW2 3842   4.243   2.942   1.510
  953SOL    HW3 3843   4.262   2.860   1.384
  953SOL    MW4 3844   4.245   2.865   1.469
  954SOL     OW 3845   4.262   3.102   1.579
  954SOL    HW2 3846   4.280   3.095   1.672
  954SOL    HW3 3847   4.332   3.157   1.544
  954SOL    MW4 3848   4.274   3.108   1.587
  955SOL     OW 3849   4.043   3.259   1.439
  955SOL    HW2 3850   4.051   3.341   1.488
  955SOL    HW3 3851   4.112   3.203   1.475
  955SOL    MW4 3852   4.053   3.262   1.451
  956SOL     OW 3853   4.043   3.502   1.577
  956SOL    HW2 3854   4.051   3.495   1.672
  956SOL    HW3 3855   4.118   3.554   1.550
  956SOL    MW4 3856   4.054   3.508   1.586
  957SOL     OW 3857   4.281   3.622   1.487
  957SOL    HW2 3858   4.280   3.716   1.502
  957SOL    HW3 3859   4.269   3.613   1.392
  957SOL    MW4 3860   4.279   3.633   1.476
  958SOL     OW 3861   4.253   3.890   1.579
  958SOL    HW2 3862   4.178   3.935   1.542
  958SOL    HW3 3863   4.329   3.940   1.549
  958SOL    MW4 3864   4.253   3.902   1.571
  959SOL     OW 3865   4.018   4.026   1.510
  959SOL    HW2 3866   4.038   4.119   1.521
  959SOL    HW3 3867   4.035   4.009   1.418
  959SOL    MW4 3868   4.023   4.036   1.499
  960SOL     OW 3869   4.078   4.296   1.590
  960SOL    HW2 3870   4.085   4.273   1.683
  960SOL    HW3 3871   3.994   4.340   1.582
  960SOL    MW4 3872   4.068   4.299   1.601
  961SOL     OW 3873   4.313   4.432   1.491
  961SOL    HW2 3874   4.224   4.408   1.519
  961SOL    HW3 3875   4.312   4.422   1.396
  961SOL    MW4 3876   4.301   4.427   1.483
  962SOL     OW 3877   0.208   4.650   1.858
  962SOL    HW2 3878   0.281   4.697   1.899
  962SOL    HW3 3879   0.228   4.652   1.764
  962SOL    MW4 3880   0.220   4.657   1.851
  963SOL     OW 3881   4.490   0.112   1.989
  963SOL    HW2 3882   4.483   0.198   1.947
  963SOL    HW3 3883   4.557   0.066   1.939
  963SOL    MW4 3884   4.498   0.118   1.977
  964SOL     OW 3885   0.009   0.373   1.882
  964SOL    HW2 3886  -0.066   0.425   1.911
  964SOL    HW3 3887   0.084   0.409   1.929
  964SOL    MW4 3888   0.009   0.385   1.892
  965SOL     OW 3889   0.231   0.505   1.987
  965SOL    HW2 3890   0.306   0.469   1.939
  965SOL    HW3 3891   0.205   0.582   1.936
  965SOL    MW4 3892   0.237   0.511   1.974
  966SOL     OW 3893   0.191   0.756   1.886
  966SOL    HW2 3894   0.279   0.789   1.907
  966SOL    HW3 3895   0.197   0.733   1.793
  966SOL    MW4 3896   0.203   0.757   1.876
  967SOL     OW 3897   4.446   0.909   1.959
  967SOL    HW2 3898   4.376   0.873   1.905
  967SOL    HW3 3899   4.522   0.852   1.943
  967SOL    MW4 3900   4.447   0.897   1.950
  968SOL     OW 3901   4.472   1.164   1.859
  968SOL    HW2 3902   4.401   1.219   1.894
  968SOL    HW3 3903   4.467   1.084   1.911
  968SOL    MW4 3904   4.462   1.161   1.871
  969SOL     OW 3905   0.234   1.313   1.914
  969SOL    HW2 3906   0.235   1.406   1.893
  969SOL    HW3 3907   0.149   1.281   1.883
  969SOL    MW4 3908   0.223   1.321   1.907
  970SOL     OW 3909   0.203   1.576   1.825
  970SOL    HW2 3910   0.277   1.624   1.862
  970SOL    HW3 3911   0.126   1.616   1.865
  970SOL    MW4 3912   0.203   1.588   1.835
  971SOL     OW 3913   4.483   1.690   1.959
  971SOL    HW2 3914   4.497   1.704   2.053
  971SOL    HW3 3915   4.410   1.628   1.954
  971SOL    MW4 3916   4.475   1.684   1.971
  972SOL     OW 3917   0.009   1.923   1.818
  972SOL    HW2 3918  -0.058   1.977   1.859
  972SOL    HW3 3919   0.001   1.837   1.860
  972SOL    MW4 3920  -0.001   1.919   1.829
  973SOL     OW 3921   0.226   2.043   1.968
  973SOL    HW2 3922   0.208   2.127   1.926
  973SOL    HW3 3923   0.156   1.985   1.936
  973SOL    MW4 3924   0.214   2.046   1.958
  974SOL     OW 3925   0.205   2.296   1.855
  974SOL    HW2 3926   0.283   2.341   1.890
  974SOL    HW3 3927   0.132   2.349   1.886
  974SOL    MW4 3928   0.206   2.309   1.864
  975SOL     OW 3929   0.004   2.454   1.947
  975SOL    HW2 3930  -0.010   2.461   2.041
  975SOL    HW3 3931  -0.015   2.542   1.914
  975SOL    MW4 3932  -0.001   2.467   1.955
  976SOL     OW 3933   4.472   2.698   1.851
  976SOL    HW2 3934   4.389   2.740   1.871
  976SOL    HW3 3935   4.471   2.687   1.755
  976SOL    MW4 3936   4.461   2.702   1.841
  977SOL     OW 3937   0.204   2.829   1.955
  977SOL    HW2 3938   0.202   2.911   1.907
  977SOL    HW3 3939   0.127   2.781   1.923
  977SOL    MW4 3940   0.194   2.833   1.944
  978SOL     OW 3941   0.210   3.062   1.807
  978SOL    HW2 3942   0.286   3.107   1.845
  978SOL    HW3 3943   0.223   3.070   1.712
  978SOL    MW4 3944   0.222   3.069   1.800
  979SOL     OW 3945   0.018   3.230   1.916
  979SOL    HW2 3946  -0.069   3.190   1.913
  979SOL    HW3 3947   0.077   3.161   1.886
  979SOL    MW4 3948   0.015   3.215   1.912
  980SOL     OW 3949   0.046   3.499   1.841
  980SOL    HW2 3950   0.108   3.540   1.901
  980SOL    HW3 3951   0.033   3.411   1.876
  980SOL    MW4 3952   0.053   3.493   1.853
  981SOL     OW 3953   0.254   3.629   1.955
  981SOL    HW2 3954   0.234   3.599   2.044
  981SOL    HW3 3955   0.325   3.573   1.925
  981SOL    MW4 3956   0.261   3.618   1.963
  982SOL     OW 3957   0.257   3.899   1.825
  982SOL    HW2 3958   0.339   3.926   1.866
  982SOL    HW3 3959   0.238   3.813   1.864
  982SOL    MW4 3960   0.265   3.891   1.836
  983SOL     OW 3961   0.009   4.018   1.928
  983SOL    HW2 3962   0.013   4.108   1.896
  983SOL    HW3 3963   0.096   3.983   1.911
  983SOL    MW4 3964   0.021   4.026   1.922
  984SOL     OW 3965   0.023   4.273   1.844
  984SOL    HW2 3966  -0.046   4.307   1.901
  984SOL    HW3 3967   0.104   4.306   1.882
  984SOL    MW4 3968   0.025   4.282   1.856
  985SOL     OW 3969   0.250   4.390   1.942
  985SOL    HW2 3970   0.238   4.387   2.037
  985SOL    HW3 3971   0.227   4.480   1.918
  985SOL    MW4 3972   0.245   4.402   1.951
  986SOL     OW 3973   0.641   4.644   1.865
  986SOL    HW2 3974   0.629   4.560   1.908
  986SOL    HW3 3975   0.640   4.624   1.771
  986SOL    MW4 3976   0.639   4.630   1.858
  987SOL     OW 3977   0.429   0.130   1.953
  987SOL    HW2 3978   0.432   0.214   1.907
  987SOL    HW3 3979   0.493   0.075   1.908
  987SOL    MW4 3980   0.438   0.134   1.941
  988SOL     OW 3981   0.446   0.387   1.846
  988SOL    HW2 3982   0.532   0.416   1.877
  988SOL    HW3 3983   0.455   0.383   1.751
  988SOL    MW4 3984   0.459   0.390   1.837
  989SOL     OW 3985   0.682   0.481   1.965
  989SOL    HW2 3986   0.673   0.488   2.060
  989SOL    HW3 3987   0.762   0.430   1.953
  989SOL    MW4 3988   0.691   0.475   1.976
  990SOL     OW 3989   0.662   0.749   1.865
  990SOL    HW2 3990   0.740   0.786   1.907
  990SOL    HW3 3991   0.660   0.659   1.895
  990SOL    MW4 3992   0.672   0.742   1.875
  991SOL     OW 3993   0.440   0.876   1.938
  991SOL    HW2 3994   0.448   0.970   1.923
  991SOL    HW3 3995   0.528   0.841   1.921
  991SOL    MW4 3996   0.453   0.884   1.934
  992SOL     OW 3997   0.446   1.152   1.831
  992SOL    HW2 3998   0.367   1.202   1.852
  992SOL    HW3 3999   0.452   1.155   1.736
  992SOL    MW4 4000   0.436   1.159   1.821
  993SOL     OW 4001   0.655   1.326   1.928
  993SOL    HW2 4002   0.655   1.310   2.022
  993SOL    HW3 4003   0.579   1.278   1.895
  993SOL    MW4 4004   0.645   1.318   1.936
  994SOL     OW 4005   0.689   1.567   1.824
  994SOL    HW2 4006   0.667   1.476   1.843
  994SOL    HW3 4007   0.687   1.573   1.729
  994SOL    MW4 4008   0.686   1.556   1.814
  995SOL     OW 4009   0.455   1.668   1.932
  995SOL    HW2 4010   0.456   1.671   2.028
  995SOL    HW3 4011   0.533   1.618   1.908
  995SOL    MW4 4012   0.465   1.662   1.942
  996SOL     OW 4013   0.444   1.932   1.866
  996SOL    HW2 4014   0.449   1.839   1.890
  996SOL    HW3 4015   0.360   1.962   1.902
  996SOL    MW4 4016   0.434   1.924   1.874
  997SOL     OW 4017   0.680   2.045   1.945
  997SOL    HW2 4018   0.681   2.049   2.041
  997SOL    HW3 4019   0.595   2.006   1.924
  997SOL    MW4 4020   0.669   2.041   1.955
  998SOL     OW 4021   0.662   2.317   1.888
  998SOL    HW2 4022   0.652   2.225   1.912
  998SOL    HW3 4023   0.672   2.316   1.793
  998SOL    MW4 4024   0.662   2.305   1.879
  999SOL     OW 4025   0.422   2.440   1.953
  999SOL    HW2 4026   0.414   2.443   2.048
  999SOL    HW3 4027   0.507   2.400   1.937
  999SOL    MW4 4028   0.432   2.435   1.963
 1000SOL     OW 4029   0.424   2.703   1.852
 1000SOL    HW2 4030   0.432   2.615   1.889
 1000SOL    HW3 4031   0.339   2.734   1.883
 1000SOL    MW4 4032   0.414   2.696   1.861
 1001SOL     OW 4033   0.658   2.843   1.947
 1001SOL    HW2 4034   0.673   2.831   2.041
 1001SOL    HW3 4035   0.568   2.814   1.933
 1001SOL    MW4 4036   0.648   2.837   1.957
 1002SOL     OW 4037   0.671   3.099   1.839
 1002SOL    HW2 4038   0.682   3.009   1.870
 1002SOL    HW3 4039   0.665   3.091   1.743
 1002SOL    MW4 4040   0.672   3.086   1.830
 1003SOL     OW 4041   0.423   3.196   1.922
 1003SOL    HW2 4042   0.418   3.289   1.900
 1003SOL    HW3 4043   0.510   3.169   1.891
 1003SOL    MW4 4044   0.434   3.205   1.915
 1004SOL     OW 4045   0.452   3.464   1.848
 1004SOL    HW2 4046   0.530   3.486   1.899
 1004SOL    HW3 4047   0.486   3.448   1.760
 1004SOL    MW4 4048   0.467   3.465   1.843
 1005SOL     OW 4049   0.666   3.567   1.982
 1005SOL    HW2 4050   0.739   3.514   1.950
 1005SOL    HW3 4051   0.681   3.654   1.946
 1005SOL    MW4 4052   0.678   3.571   1.973
 1006SOL     OW 4053   0.690   3.849   1.872
 1006SOL    HW2 4054   0.762   3.906   1.898
 1006SOL    HW3 4055   0.675   3.870   1.779
 1006SOL    MW4 4056   0.697   3.859   1.863
 1007SOL     OW 4057   0.480   4.004   1.962
 1007SOL    HW2 4058   0.489   4.092   1.925
 1007SOL    HW3 4059   0.556   3.956   1.928
 1007SOL    MW4 4060   0.491   4.009   1.952
 1008SOL     OW 4061   0.483   4.250   1.836
 1008SOL    HW2 4062   0.411   4.301   1.873
 1008SOL    HW3 4063   0.463   4.244   1.742
 1008SOL    MW4 4064   0.471   4.256   1.828
 1009SOL     OW 4065   0.664   4.392   1.968
 1009SOL    HW2 4066   0.753   4.380   1.936
 1009SOL    HW3 4067   0.610   4.339   1.909
 1009SOL    MW4 4068   0.668   4.384   1.956
 1010SOL     OW 4069   1.095   4.660   1.847
 1010SOL    HW2 4070   1.181   4.701   1.848
 1010SOL    HW3 4071   1.108   4.575   1.888
 1010SOL    MW4 4072   1.108   4.654   1.853
 1011SOL     OW 4073   0.867   0.107   1.976
 1011SOL    HW2 4074   0.918   0.050   1.918
 1011SOL    HW3 4075   0.776   0.089   1.953
 1011SOL    MW4 4076   0.862   0.097   1.965
 1012SOL     OW 4077   0.903   0.350   1.864
 1012SOL    HW2 4078   0.980   0.399   1.893
 1012SOL    HW3 4079   0.912   0.265   1.906
 1012SOL    MW4 4080   0.915   0.346   1.874
 1013SOL     OW 4081   1.113   0.492   1.994
 1013SOL    HW2 4082   1.198   0.463   1.959
 1013SOL    HW3 4083   1.104   0.582   1.963
 1013SOL    MW4 4084   1.123   0.500   1.985
 1014SOL     OW 4085   1.086   0.746   1.876
 1014SOL    HW2 4086   1.164   0.784   1.916
 1014SOL    HW3 4087   1.013   0.790   1.919
 1014SOL    MW4 4088   1.087   0.757   1.887
 1015SOL     OW 4089   0.872   0.871   1.992
 1015SOL    HW2 4090   0.906   0.881   2.081
 1015SOL    HW3 4091   0.871   0.960   1.957
 1015SOL    MW4 4092   0.876   0.884   1.999
 1016SOL     OW 4093   0.879   1.155   1.906
 1016SOL    HW2 4094   0.800   1.208   1.918
 1016SOL    HW3 4095   0.888   1.146   1.811
 1016SOL    MW4 4096   0.870   1.161   1.895
 1017SOL     OW 4097   1.121   1.269   1.961
 1017SOL    HW2 4098   1.121   1.360   1.930
 1017SOL    HW3 4099   1.032   1.239   1.944
 1017SOL    MW4 4100   1.109   1.277   1.954
 1018SOL     OW 4101   1.072   1.557   1.865
 1018SOL    HW2 4102   0.992   1.588   1.908
 1018SOL    HW3 4103   1.058   1.574   1.772
 1018SOL    MW4 4104   1.060   1.564   1.859
 1019SOL     OW 4105   0.854   1.715   2.001
 1019SOL    HW2 4106   0.878   1.799   1.962
 1019SOL    HW3 4107   0.779   1.685   1.948
 1019SOL    MW4 4108   0.847   1.722   1.989
 1020SOL     OW 4109   0.922   1.938   1.858
 1020SOL    HW2 4110   0.836   1.971   1.883
 1020SOL    HW3 4111   0.921   1.938   1.762
 1020SOL    MW4 4112   0.911   1.942   1.848
 1021SOL     OW 4113   1.152   2.091   1.943
 1021SOL    HW2 4114   1.145   2.182   1.913
 1021SOL    HW3 4115   1.071   2.050   1.913
 1021SOL    MW4 4116   1.140   2.098   1.935
 1022SOL     OW 4117   1.098   2.351   1.867
 1022SOL    HW2 4118   1.179   2.392   1.897
 1022SOL    HW3 4119   1.117   2.321   1.778
 1022SOL    MW4 4120   1.111   2.352   1.860
 1023SOL     OW 4121   0.872   2.456   1.975
 1023SOL    HW2 4122   0.948   2.434   1.922
 1023SOL    HW3 4123   0.801   2.402   1.940
 1023SOL    MW4 4124   0.872   2.446   1.964
 1024SOL     OW 4125   0.876   2.694   1.860
 1024SOL    HW2 4126   0.854   2.611   1.902
 1024SOL    HW3 4127   0.806   2.754   1.888
 1024SOL    MW4 4128   0.864   2.691   1.869
 1025SOL     OW 4129   1.124   2.803   1.955
 1025SOL    HW2 4130   1.107   2.806   2.049
 1025SOL    HW3 4131   1.048   2.759   1.918
 1025SOL    MW4 4132   1.112   2.798   1.962
 1026SOL     OW 4133   1.109   3.065   1.867
 1026SOL    HW2 4134   1.039   3.110   1.914
 1026SOL    HW3 4135   1.109   2.976   1.902
 1026SOL    MW4 4136   1.100   3.059   1.878
 1027SOL     OW 4137   0.898   3.224   1.916
 1027SOL    HW2 4138   0.884   3.250   2.007
 1027SOL    HW3 4139   0.818   3.177   1.892
 1027SOL    MW4 4140   0.885   3.221   1.925
 1028SOL     OW 4141   0.909   3.493   1.856
 1028SOL    HW2 4142   0.920   3.398   1.863
 1028SOL    HW3 4143   0.901   3.510   1.762
 1028SOL    MW4 4144   0.909   3.482   1.845
 1029SOL     OW 4145   1.123   3.647   1.981
 1029SOL    HW2 4146   1.122   3.646   2.076
 1029SOL    HW3 4147   1.052   3.586   1.956
 1029SOL    MW4 4148   1.113   3.639   1.990
 1030SOL     OW 4149   1.118   3.874   1.826
 1030SOL    HW2 4150   1.109   3.789   1.868
 1030SOL    HW3 4151   1.106   3.856   1.733
 1030SOL    MW4 4152   1.115   3.860   1.819
 1031SOL     OW 4153   0.895   4.042   1.927
 1031SOL    HW2 4154   0.885   4.029   2.021
 1031SOL    HW3 4155   0.973   3.992   1.903
 1031SOL    MW4 4156   0.904   4.034   1.936
 1032SOL     OW 4157   0.898   4.296   1.845
 1032SOL    HW2 4158   0.973   4.338   1.886
 1032SOL    HW3 4159   0.907   4.203   1.867
 1032SOL    MW4 4160   0.909   4.289   1.853
 1033SOL     OW 4161   1.146   4.395   1.950
 1033SOL    HW2 4162   1.143   4.373   2.043
 1033SOL    HW3 4163   1.216   4.341   1.914
 1033SOL    MW4 4164   1.155   4.385   1.958
 1034SOL     OW 4165   1.561   4.643   1.809
 1034SOL    HW2 4166   1.628   4.680   1.866
 1034SOL    HW3 4167   1.546   4.555   1.843
 1034SOL    MW4 4168   1.568   4.636   1.821
 1035SOL     OW 4169   1.327   0.121   1.921
 1035SOL    HW2 4170   1.320   0.097   2.013
 1035SOL    HW3 4171   1.393   0.061   1.886
 1035SOL    MW4 4172   1.335   0.110   1.929
 1036SOL     OW 4173   1.355   0.407   1.860
 1036SOL    HW2 4174   1.358   0.316   1.889
 1036SOL    HW3 4175   1.322   0.402   1.770
 1036SOL    MW4 4176   1.351   0.394   1.852
 1037SOL     OW 4177   1.599   0.506   1.978
 1037SOL    HW2 4178   1.671   0.448   1.953
 1037SOL    HW3 4179   1.522   0.469   1.934
 1037SOL    MW4 4180   1.599   0.494   1.969
 1038SOL     OW 4181   1.554   0.761   1.866
 1038SOL    HW2 4182   1.623   0.818   1.900
 1038SOL    HW3 4183   1.577   0.674   1.898
 1038SOL    MW4 4184   1.566   0.757   1.875
 1039SOL     OW 4185   1.327   0.865   1.978
 1039SOL    HW2 4186   1.337   0.859   2.073
 1039SOL    HW3 4187   1.404   0.821   1.943
 1039SOL    MW4 4188   1.339   0.859   1.986
 1040SOL     OW 4189   1.343   1.125   1.885
 1040SOL    HW2 4190   1.349   1.040   1.929
 1040SOL    HW3 4191   1.271   1.170   1.929
 1040SOL    MW4 4192   1.334   1.120   1.896
 1041SOL     OW 4193   1.579   1.269   1.948
 1041SOL    HW2 4194   1.558   1.352   1.906
 1041SOL    HW3 4195   1.511   1.209   1.918
 1041SOL    MW4 4196   1.567   1.272   1.939
 1042SOL     OW 4197   1.562   1.528   1.864
 1042SOL    HW2 4198   1.634   1.581   1.899
 1042SOL    HW3 4199   1.486   1.587   1.865
 1042SOL    MW4 4200   1.561   1.543   1.869
 1043SOL     OW 4201   1.336   1.649   1.942
 1043SOL    HW2 4202   1.344   1.629   2.036
 1043SOL    HW3 4203   1.244   1.632   1.922
 1043SOL    MW4 4204   1.325   1.644   1.952
 1044SOL     OW 4205   1.380   1.939   1.864
 1044SOL    HW2 4206   1.373   1.852   1.903
 1044SOL    HW3 4207   1.310   1.990   1.905
 1044SOL    MW4 4208   1.370   1.934   1.875
 1045SOL     OW 4209   1.619   2.070   1.984
 1045SOL    HW2 4210   1.604   2.159   1.953
 1045SOL    HW3 4211   1.543   2.020   1.954
 1045SOL    MW4 4212   1.607   2.075   1.976
 1046SOL     OW 4213   1.585   2.326   1.884
 1046SOL    HW2 4214   1.656   2.388   1.896
 1046SOL    HW3 4215   1.580   2.313   1.789
 1046SOL    MW4 4216   1.594   2.332   1.873
 1047SOL     OW 4217   1.347   2.442   1.933
 1047SOL    HW2 4218   1.368   2.535   1.930
 1047SOL    HW3 4219   1.431   2.397   1.917
 1047SOL    MW4 4220   1.361   2.448   1.931
 1048SOL     OW 4221   1.376   2.724   1.913
 1048SOL    HW2 4222   1.282   2.740   1.920
 1048SOL    HW3 4223   1.389   2.696   1.822
 1048SOL    MW4 4224   1.366   2.722   1.902
 1049SOL     OW 4225   1.585   2.912   1.942
 1049SOL    HW2 4226   1.658   2.856   1.916
 1049SOL    HW3 4227   1.509   2.853   1.946
 1049SOL    MW4 4228   1.584   2.897   1.939
 1050SOL     OW 4229   1.557   3.173   1.855
 1050SOL    HW2 4230   1.550   3.084   1.890
 1050SOL    HW3 4231   1.578   3.160   1.763
 1050SOL    MW4 4232   1.559   3.159   1.848
 1051SOL     OW 4233   1.311   3.236   1.955
 1051SOL    HW2 4234   1.399   3.211   1.929
 1051SOL    HW3 4235   1.254   3.171   1.913
 1051SOL    MW4 4236   1.315   3.224   1.946
 1052SOL     OW 4237   1.330   3.492   1.854
 1052SOL    HW2 4238   1.312   3.404   1.887
 1052SOL    HW3 4239   1.268   3.548   1.901
 1052SOL    MW4 4240   1.319   3.488   1.865
 1053SOL     OW 4241   1.594   3.560   1.929
 1053SOL    HW2 4242   1.598   3.582   2.022
 1053SOL    HW3 4243   1.503   3.533   1.916
 1053SOL    MW4 4244   1.582   3.559   1.940
 1054SOL     OW 4245   1.584   3.819   1.852
 1054SOL    HW2 4246   1.643   3.882   1.894
 1054SOL    HW3 4247   1.613   3.734   1.884
 1054SOL    MW4 4248   1.596   3.816   1.862
 1055SOL     OW 4249   1.366   3.946   1.924
 1055SOL    HW2 4250   1.423   3.872   1.904
 1055SOL    HW3 4251   1.279   3.917   1.898
 1055SOL    MW4 4252   1.362   3.933   1.918
 1056SOL     OW 4253   1.340   4.215   1.857
 1056SOL    HW2 4254   1.358   4.124   1.877
 1056SOL    HW3 4255   1.320   4.216   1.763
 1056SOL    MW4 4256   1.339   4.203   1.847
 1057SOL     OW 4257   1.522   4.408   1.921
 1057SOL    HW2 4258   1.522   4.404   2.016
 1057SOL    HW3 4259   1.462   4.338   1.894
 1057SOL    MW4 4260   1.514   4.398   1.930
 1058SOL     OW 4261   1.995   0.003   1.932
 1058SOL    HW2 4262   2.070   0.059   1.952
 1058SOL    HW3 4263   2.021  -0.083   1.965
 1058SOL    MW4 4264   2.009  -0.001   1.939
 1059SOL     OW 4265   1.734   0.103   1.976
 1059SOL    HW2 4266   1.721   0.115   2.070
 1059SOL    HW3 4267   1.821   0.066   1.968
 1059SOL    MW4 4268   1.744   0.100   1.987
 1060SOL     OW 4269   1.806   0.361   1.889
 1060SOL    HW2 4270   1.779   0.276   1.925
 1060SOL    HW3 4271   1.793   0.352   1.795
 1060SOL    MW4 4272   1.801   0.348   1.881
 1061SOL     OW 4273   2.011   0.523   2.016
 1061SOL    HW2 4274   2.011   0.615   1.989
 1061SOL    HW3 4275   1.936   0.485   1.969
 1061SOL    MW4 4276   2.001   0.530   2.006
 1062SOL     OW 4277   1.979   0.757   1.869
 1062SOL    HW2 4278   2.055   0.799   1.910
 1062SOL    HW3 4279   1.992   0.772   1.775
 1062SOL    MW4 4280   1.991   0.765   1.862
 1063SOL     OW 4281   1.752   0.895   1.970
 1063SOL    HW2 4282   1.783   0.973   1.925
 1063SOL    HW3 4283   1.810   0.825   1.938
 1063SOL    MW4 4284   1.764   0.896   1.960
 1064SOL     OW 4285   1.813   1.157   1.834
 1064SOL    HW2 4286   1.738   1.206   1.867
 1064SOL    HW3 4287   1.795   1.145   1.741
 1064SOL    MW4 4288   1.801   1.162   1.826
 1065SOL     OW 4289   2.035   1.260   1.977
 1065SOL    HW2 4290   2.110   1.215   1.937
 1065SOL    HW3 4291   1.959   1.223   1.933
 1065SOL    MW4 4292   2.035   1.249   1.966
 1066SOL     OW 4293   1.994   1.512   1.891
 1066SOL    HW2 4294   2.018   1.425   1.922
 1066SOL    HW3 4295   2.014   1.511   1.798
 1066SOL    MW4 4296   2.000   1.500   1.883
 1067SOL     OW 4297   1.780   1.645   2.001
 1067SOL    HW2 4298   1.811   1.733   1.979
 1067SOL    HW3 4299   1.844   1.587   1.960
 1067SOL    MW4 4300   1.793   1.649   1.993
 1068SOL     OW 4301   1.821   1.906   1.907
 1068SOL    HW2 4302   1.757   1.973   1.932
 1068SOL    HW3 4303   1.827   1.914   1.811
 1068SOL    MW4 4304   1.813   1.916   1.897
 1069SOL     OW 4305   2.041   2.048   1.998
 1069SOL    HW2 4306   2.107   2.021   1.934
 1069SOL    HW3 4307   1.966   1.991   1.980
 1069SOL    MW4 4308   2.039   2.037   1.987
 1070SOL     OW 4309   2.032   2.320   1.893
 1070SOL    HW2 4310   2.110   2.355   1.935
 1070SOL    HW3 4311   2.027   2.229   1.923
 1070SOL    MW4 4312   2.042   2.313   1.902
 1071SOL     OW 4313   1.823   2.484   1.954
 1071SOL    HW2 4314   1.819   2.474   2.049
 1071SOL    HW3 4315   1.900   2.432   1.928
 1071SOL    MW4 4316   1.833   2.476   1.963
 1072SOL     OW 4317   1.797   2.745   1.880
 1072SOL    HW2 4318   1.821   2.654   1.901
 1072SOL    HW3 4319   1.797   2.748   1.784
 1072SOL    MW4 4320   1.800   2.733   1.870
 1073SOL     OW 4321   2.021   2.842   1.985
 1073SOL    HW2 4322   2.003   2.861   2.078
 1073SOL    HW3 4323   1.936   2.812   1.951
 1073SOL    MW4 4324   2.007   2.840   1.993
 1074SOL     OW 4325   2.026   3.052   1.814
 1074SOL    HW2 4326   1.951   3.101   1.848
 1074SOL    HW3 4327   2.021   2.967   1.857
 1074SOL    MW4 4328   2.015   3.047   1.824
 1075SOL     OW 4329   1.821   3.216   1.944
 1075SOL    HW2 4330   1.803   3.201   2.037
 1075SOL    HW3 4331   1.734   3.222   1.904
 1075SOL    MW4 4332   1.807   3.214   1.951
 1076SOL     OW 4333   1.847   3.485   1.885
 1076SOL    HW2 4334   1.857   3.392   1.905
 1076SOL    HW3 4335   1.755   3.503   1.900
 1076SOL    MW4 4336   1.836   3.475   1.890
 1077SOL     OW 4337   2.081   3.630   1.950
 1077SOL    HW2 4338   2.075   3.722   1.925
 1077SOL    HW3 4339   1.992   3.596   1.940
 1077SOL    MW4 4340   2.069   3.637   1.946
 1078SOL     OW 4341   2.048   3.901   1.901
 1078SOL    HW2 4342   2.125   3.952   1.927
 1078SOL    HW3 4343   2.055   3.894   1.806
 1078SOL    MW4 4344   2.059   3.907   1.892
 1079SOL     OW 4345   1.786   3.984   1.938
 1079SOL    HW2 4346   1.787   4.076   1.912
 1079SOL    HW3 4347   1.878   3.956   1.931
 1079SOL    MW4 4348   1.799   3.992   1.934
 1080SOL     OW 4349   1.808   4.291   1.868
 1080SOL    HW2 4350   1.721   4.323   1.892
 1080SOL    HW3 4351   1.810   4.296   1.772
 1080SOL    MW4 4352   1.797   4.296   1.858
 1081SOL     OW 4353   2.033   4.400   2.003
 1081SOL    HW2 4354   2.110   4.365   1.959
 1081SOL    HW3 4355   1.959   4.369   1.951
 1081SOL    MW4 4356   2.033   4.392   1.990
 1082SOL     OW 4357   2.437   0.015   1.893
 1082SOL    HW2 4358   2.521   0.049   1.924
 1082SOL    HW3 4359   2.439  -0.078   1.916
 1082SOL    MW4 4360   2.448   0.007   1.900
 1083SOL     OW 4361   2.217   0.144   2.040
 1083SOL    HW2 4362   2.199   0.126   2.132
 1083SOL    HW3 4363   2.281   0.078   2.014
 1083SOL    MW4 4364   2.223   0.133   2.048
 1084SOL     OW 4365   2.221   0.369   1.888
 1084SOL    HW2 4366   2.230   0.288   1.938
 1084SOL    HW3 4367   2.142   0.410   1.922
 1084SOL    MW4 4368   2.212   0.364   1.899
 1085SOL     OW 4369   2.438   0.518   1.966
 1085SOL    HW2 4370   2.510   0.471   1.925
 1085SOL    HW3 4371   2.362   0.462   1.951
 1085SOL    MW4 4372   2.437   0.504   1.959
 1086SOL     OW 4373   2.445   0.785   1.871
 1086SOL    HW2 4374   2.434   0.697   1.907
 1086SOL    HW3 4375   2.450   0.772   1.776
 1086SOL    MW4 4376   2.444   0.772   1.863
 1087SOL     OW 4377   2.213   0.880   1.980
 1087SOL    HW2 4378   2.234   0.894   2.072
 1087SOL    HW3 4379   2.296   0.853   1.940
 1087SOL    MW4 4380   2.227   0.878   1.986
 1088SOL     OW 4381   2.233   1.145   1.834
 1088SOL    HW2 4382   2.299   1.194   1.883
 1088SOL    HW3 4383   2.230   1.059   1.876
 1088SOL    MW4 4384   2.242   1.140   1.846
 1089SOL     OW 4385   2.432   1.279   1.984
 1089SOL    HW2 4386   2.461   1.292   2.075
 1089SOL    HW3 4387   2.435   1.367   1.946
 1089SOL    MW4 4388   2.436   1.292   1.991
 1090SOL     OW 4389   2.450   1.577   1.880
 1090SOL    HW2 4390   2.365   1.617   1.897
 1090SOL    HW3 4391   2.445   1.546   1.790
 1090SOL    MW4 4392   2.438   1.578   1.870
 1091SOL     OW 4393   2.195   1.686   1.955
 1091SOL    HW2 4394   2.192   1.724   2.043
 1091SOL    HW3 4395   2.113   1.637   1.948
 1091SOL    MW4 4396   2.183   1.685   1.966
 1092SOL     OW 4397   2.237   1.935   1.828
 1092SOL    HW2 4398   2.318   1.968   1.867
 1092SOL    HW3 4399   2.219   1.854   1.875
 1092SOL    MW4 4400   2.246   1.929   1.840
 1093SOL     OW 4401   2.469   2.068   1.951
 1093SOL    HW2 4402   2.552   2.029   1.926
 1093SOL    HW3 4403   2.473   2.157   1.915
 1093SOL    MW4 4404   2.480   2.075   1.943
 1094SOL     OW 4405   2.492   2.329   1.867
 1094SOL    HW2 4406   2.565   2.373   1.910
 1094SOL    HW3 4407   2.414   2.370   1.904
 1094SOL    MW4 4408   2.491   2.340   1.878
 1095SOL     OW 4409   2.275   2.422   2.016
 1095SOL    HW2 4410   2.259   2.426   2.111
 1095SOL    HW3 4411   2.262   2.512   1.986
 1095SOL    MW4 4412   2.271   2.435   2.025
 1096SOL     OW 4413   2.261   2.680   1.924
 1096SOL    HW2 4414   2.181   2.730   1.943
 1096SOL    HW3 4415   2.271   2.688   1.829
 1096SOL    MW4 4416   2.252   2.688   1.914
 1097SOL     OW 4417   2.472   2.832   1.980
 1097SOL    HW2 4418   2.445   2.918   1.950
 1097SOL    HW3 4419   2.399   2.774   1.957
 1097SOL    MW4 4420   2.459   2.835   1.973
 1098SOL     OW 4421   2.450   3.114   1.892
 1098SOL    HW2 4422   2.367   3.156   1.913
 1098SOL    HW3 4423   2.452   3.112   1.796
 1098SOL    MW4 4424   2.439   3.119   1.882
 1099SOL     OW 4425   2.207   3.228   1.942
 1099SOL    HW2 4426   2.169   3.216   2.029
 1099SOL    HW3 4427   2.158   3.168   1.885
 1099SOL    MW4 4428   2.195   3.219   1.946
 1100SOL     OW 4429   2.264   3.477   1.826
 1100SOL    HW2 4430   2.255   3.390   1.866
 1100SOL    HW3 4431   2.190   3.527   1.861
 1100SOL    MW4 4432   2.253   3.472   1.836
 1101SOL     OW 4433   2.475   3.605   1.981
 1101SOL    HW2 4434   2.487   3.601   2.076
 1101SOL    HW3 4435   2.386   3.572   1.967
 1101SOL    MW4 4436   2.465   3.600   1.992
 1102SOL     OW 4437   2.453   3.866   1.876
 1102SOL    HW2 4438   2.395   3.923   1.927
 1102SOL    HW3 4439   2.459   3.786   1.927
 1102SOL    MW4 4440   2.446   3.863   1.889
 1103SOL     OW 4441   2.258   4.026   1.997
 1103SOL    HW2 4442   2.267   4.026   2.093
 1103SOL    HW3 4443   2.251   4.119   1.974
 1103SOL    MW4 4444   2.258   4.039   2.007
 1104SOL     OW 4445   2.250   4.288   1.901
 1104SOL    HW2 4446   2.329   4.325   1.941
 1104SOL    HW3 4447   2.275   4.273   1.809
 1104SOL    MW4 4448   2.264   4.291   1.894
 1105SOL     OW 4449   2.483   4.430   1.997
 1105SOL    HW2 4450   2.476   4.417   2.092
 1105SOL    HW3 4451   2.558   4.376   1.971
 1105SOL    MW4 4452   2.492   4.421   2.006
 1106SOL     OW 4453   2.899   4.647   1.903
 1106SOL    HW2 4454   2.982   4.692   1.917
 1106SOL    HW3 4455   2.919   4.554   1.919
 1106SOL    MW4 4456   2.913   4.640   1.907
 1107SOL     OW 4457   2.677   0.137   1.973
 1107SOL    HW2 4458   2.679   0.135   2.068
 1107SOL    HW3 4459   2.754   0.088   1.946
 1107SOL    MW4 4460   2.687   0.130   1.982
 1108SOL     OW 4461   2.652   0.388   1.841
 1108SOL    HW2 4462   2.714   0.451   1.877
 1108SOL    HW3 4463   2.669   0.307   1.889
 1108SOL    MW4 4464   2.662   0.385   1.852
 1109SOL     OW 4465   2.861   0.554   1.931
 1109SOL    HW2 4466   2.938   0.501   1.908
 1109SOL    HW3 4467   2.889   0.644   1.918
 1109SOL    MW4 4468   2.875   0.559   1.926
 1110SOL     OW 4469   2.925   0.822   1.889
 1110SOL    HW2 4470   2.996   0.826   1.953
 1110SOL    HW3 4471   2.849   0.860   1.933
 1110SOL    MW4 4472   2.924   0.827   1.903
 1111SOL     OW 4473   2.675   0.904   2.008
 1111SOL    HW2 4474   2.692   0.987   1.964
 1111SOL    HW3 4475   2.600   0.868   1.961
 1111SOL    MW4 4476   2.667   0.910   1.996
 1112SOL     OW 4477   2.662   1.167   1.873
 1112SOL    HW2 4478   2.572   1.188   1.898
 1112SOL    HW3 4479   2.661   1.169   1.777
 1112SOL    MW4 4480   2.650   1.170   1.864
 1113SOL     OW 4481   2.920   1.279   1.962
 1113SOL    HW2 4482   2.927   1.361   1.913
 1113SOL    HW3 4483   2.833   1.245   1.941
 1113SOL    MW4 4484   2.910   1.285   1.953
 1114SOL     OW 4485   2.893   1.536   1.891
 1114SOL    HW2 4486   2.960   1.591   1.932
 1114SOL    HW3 4487   2.899   1.557   1.797
 1114SOL    MW4 4488   2.903   1.546   1.884
 1115SOL     OW 4489   2.683   1.690   1.960
 1115SOL    HW2 4490   2.761   1.645   1.927
 1115SOL    HW3 4491   2.610   1.645   1.918
 1115SOL    MW4 4492   2.684   1.678   1.950
 1116SOL     OW 4493   2.710   1.954   1.865
 1116SOL    HW2 4494   2.771   2.004   1.920
 1116SOL    HW3 4495   2.705   1.868   1.908
 1116SOL    MW4 4496   2.718   1.949   1.878
 1117SOL     OW 4497   2.918   2.100   1.961
 1117SOL    HW2 4498   2.930   2.099   2.056
 1117SOL    HW3 4499   2.979   2.034   1.929
 1117SOL    MW4 4500   2.928   2.091   1.970
 1118SOL     OW 4501   2.909   2.363   1.846
 1118SOL    HW2 4502   2.989   2.404   1.881
 1118SOL    HW3 4503   2.912   2.273   1.879
 1118SOL    MW4 4504   2.920   2.357   1.855
 1119SOL     OW 4505   2.693   2.506   1.962
 1119SOL    HW2 4506   2.664   2.579   1.908
 1119SOL    HW3 4507   2.767   2.468   1.914
 1119SOL    MW4 4508   2.699   2.511   1.949
 1120SOL     OW 4509   2.696   2.783   1.834
 1120SOL    HW2 4510   2.614   2.795   1.881
 1120SOL    HW3 4511   2.672   2.783   1.742
 1120SOL    MW4 4512   2.682   2.785   1.828
 1121SOL     OW 4513   2.923   2.883   1.960
 1121SOL    HW2 4514   2.922   2.968   1.918
 1121SOL    HW3 4515   2.844   2.839   1.930
 1121SOL    MW4 4516   2.913   2.888   1.951
 1122SOL     OW 4517   2.907   3.145   1.839
 1122SOL    HW2 4518   2.980   3.190   1.882
 1122SOL    HW3 4519   2.828   3.183   1.879
 1122SOL    MW4 4520   2.906   3.156   1.850
 1123SOL     OW 4521   2.687   3.252   1.968
 1123SOL    HW2 4522   2.675   3.328   1.910
 1123SOL    HW3 4523   2.610   3.198   1.951
 1123SOL    MW4 4524   2.675   3.255   1.958
 1124SOL     OW 4525   2.688   3.481   1.832
 1124SOL    HW2 4526   2.771   3.524   1.850
 1124SOL    HW3 4527   2.623   3.530   1.882
 1124SOL    MW4 4528   2.690   3.493   1.841
 1125SOL     OW 4529   2.906   3.593   1.947
 1125SOL    HW2 4530   2.900   3.565   2.039
 1125SOL    HW3 4531   2.995   3.571   1.922
 1125SOL    MW4 4532   2.917   3.586   1.956
 1126SOL     OW 4533   2.927   3.855   1.870
 1126SOL    HW2 4534   2.924   3.768   1.908
 1126SOL    HW3 4535   2.952   3.841   1.779
 1126SOL    MW4 4536   2.930   3.842   1.863
 1127SOL     OW 4537   2.698   4.001   1.947
 1127SOL    HW2 4538   2.770   3.942   1.923
 1127SOL    HW3 4539   2.618   3.950   1.927
 1127SOL    MW4 4540   2.697   3.986   1.941
 1128SOL     OW 4541   2.714   4.256   1.875
 1128SOL    HW2 4542   2.714   4.164   1.903
 1128SOL    HW3 4543   2.714   4.252   1.779
 1128SOL    MW4 4544   2.714   4.243   1.866
 1129SOL     OW 4545   2.961   4.375   1.963
 1129SOL    HW2 4546   2.952   4.382   2.058
 1129SOL    HW3 4547   2.877   4.342   1.933
 1129SOL    MW4 4548   2.949   4.372   1.972
 1130SOL     OW 4549   3.350   0.012   1.889
 1130SOL    HW2 4550   3.358  -0.078   1.921
 1130SOL    HW3 4551   3.354   0.004   1.794
 1130SOL    MW4 4552   3.352  -0.001   1.880
 1131SOL     OW 4553   3.116   0.120   1.971
 1131SOL    HW2 4554   3.121   0.121   2.067
 1131SOL    HW3 4555   3.193   0.069   1.944
 1131SOL    MW4 4556   3.127   0.113   1.980
 1132SOL     OW 4557   3.101   0.379   1.886
 1132SOL    HW2 4558   3.108   0.298   1.937
 1132SOL    HW3 4559   3.125   0.354   1.797
 1132SOL    MW4 4560   3.105   0.365   1.881
 1133SOL     OW 4561   3.314   0.494   2.005
 1133SOL    HW2 4562   3.392   0.461   1.958
 1133SOL    HW3 4563   3.241   0.452   1.960
 1133SOL    MW4 4564   3.315   0.484   1.993
 1134SOL     OW 4565   3.346   0.739   1.877
 1134SOL    HW2 4566   3.289   0.802   1.922
 1134SOL    HW3 4567   3.338   0.659   1.929
 1134SOL    MW4 4568   3.337   0.737   1.890
 1135SOL     OW 4569   3.157   0.892   2.026
 1135SOL    HW2 4570   3.171   0.911   2.119
 1135SOL    HW3 4571   3.176   0.975   1.982
 1135SOL    MW4 4572   3.162   0.905   2.032
 1136SOL     OW 4573   3.167   1.151   1.896
 1136SOL    HW2 4574   3.236   1.208   1.931
 1136SOL    HW3 4575   3.085   1.190   1.927
 1136SOL    MW4 4576   3.166   1.163   1.905
 1137SOL     OW 4577   3.406   1.282   1.998
 1137SOL    HW2 4578   3.402   1.313   2.088
 1137SOL    HW3 4579   3.389   1.360   1.945
 1137SOL    MW4 4580   3.403   1.296   2.003
 1138SOL     OW 4581   3.308   1.535   1.852
 1138SOL    HW2 4582   3.389   1.582   1.872
 1138SOL    HW3 4583   3.239   1.587   1.893
 1138SOL    MW4 4584   3.310   1.548   1.860
 1139SOL     OW 4585   3.124   1.677   2.000
 1139SOL    HW2 4586   3.146   1.692   2.092
 1139SOL    HW3 4587   3.127   1.764   1.960
 1139SOL    MW4 4588   3.128   1.691   2.007
 1140SOL     OW 4589   3.114   1.927   1.874
 1140SOL    HW2 4590   3.200   1.961   1.899
 1140SOL    HW3 4591   3.118   1.921   1.778
 1140SOL    MW4 4592   3.126   1.931   1.864
 1141SOL     OW 4593   3.346   2.048   1.932
 1141SOL    HW2 4594   3.438   2.034   1.907
 1141SOL    HW3 4595   3.336   2.143   1.933
 1141SOL    MW4 4596   3.357   2.059   1.929
 1142SOL     OW 4597   3.355   2.334   1.901
 1142SOL    HW2 4598   3.282   2.394   1.916
 1142SOL    HW3 4599   3.363   2.330   1.805
 1142SOL    MW4 4600   3.346   2.341   1.890
 1143SOL     OW 4601   3.131   2.489   1.964
 1143SOL    HW2 4602   3.102   2.501   2.055
 1143SOL    HW3 4603   3.125   2.577   1.925
 1143SOL    MW4 4604   3.126   2.502   1.971
 1144SOL     OW 4605   3.162   2.759   1.869
 1144SOL    HW2 4606   3.076   2.784   1.904
 1144SOL    HW3 4607   3.150   2.761   1.774
 1144SOL    MW4 4608   3.149   2.763   1.861
 1145SOL     OW 4609   3.391   2.826   1.995
 1145SOL    HW2 4610   3.379   2.813   2.089
 1145SOL    HW3 4611   3.307   2.801   1.956
 1145SOL    MW4 4612   3.378   2.821   2.002
 1146SOL     OW 4613   3.381   3.105   1.877
 1146SOL    HW2 4614   3.457   3.156   1.905
 1146SOL    HW3 4615   3.403   3.015   1.902
 1146SOL    MW4 4616   3.394   3.099   1.884
 1147SOL     OW 4617   3.136   3.219   1.967
 1147SOL    HW2 4618   3.150   3.307   1.930
 1147SOL    HW3 4619   3.215   3.171   1.945
 1147SOL    MW4 4620   3.148   3.224   1.959
 1148SOL     OW 4621   3.141   3.497   1.865
 1148SOL    HW2 4622   3.217   3.543   1.900
 1148SOL    HW3 4623   3.157   3.491   1.771
 1148SOL    MW4 4624   3.153   3.502   1.857
 1149SOL     OW 4625   3.376   3.622   1.984
 1149SOL    HW2 4626   3.461   3.579   1.974
 1149SOL    HW3 4627   3.388   3.708   1.944
 1149SOL    MW4 4628   3.389   3.627   1.978
 1150SOL     OW 4629   3.398   3.879   1.869
 1150SOL    HW2 4630   3.324   3.939   1.884
 1150SOL    HW3 4631   3.398   3.864   1.775
 1150SOL    MW4 4632   3.388   3.885   1.859
 1151SOL     OW 4633   3.169   3.988   1.961
 1151SOL    HW2 4634   3.172   4.003   2.056
 1151SOL    HW3 4635   3.090   3.934   1.949
 1151SOL    MW4 4636   3.159   3.983   1.972
 1152SOL     OW 4637   3.169   4.232   1.841
 1152SOL    HW2 4638   3.171   4.149   1.889
 1152SOL    HW3 4639   3.089   4.275   1.873
 1152SOL    MW4 4640   3.158   4.227   1.852
 1153SOL     OW 4641   3.365   4.398   1.934
 1153SOL    HW2 4642   3.449   4.358   1.912
 1153SOL    HW3 4643   3.300   4.342   1.891
 1153SOL    MW4 4644   3.368   4.385   1.925
 1154SOL     OW 4645   3.809   4.643   1.896
 1154SOL    HW2 4646   3.822   4.556   1.934
 1154SOL    HW3 4647   3.718   4.664   1.915
 1154SOL    MW4 4648   3.799   4.634   1.904
 1155SOL     OW 4649   3.579   0.137   1.971
 1155SOL    HW2 4650   3.588   0.139   2.066
 1155SOL    HW3 4651   3.492   0.098   1.956
 1155SOL    MW4 4652   3.568   0.132   1.981
 1156SOL     OW 4653   3.571   0.397   1.900
 1156SOL    HW2 4654   3.571   0.306   1.928
 1156SOL    HW3 4655   3.588   0.393   1.805
 1156SOL    MW4 4656   3.574   0.384   1.891
 1157SOL     OW 4657   3.787   0.536   1.995
 1157SOL    HW2 4658   3.786   0.625   1.959
 1157SOL    HW3 4659   3.715   0.491   1.949
 1157SOL    MW4 4660   3.777   0.542   1.984
 1158SOL     OW 4661   3.810   0.785   1.895
 1158SOL    HW2 4662   3.730   0.823   1.932
 1158SOL    HW3 4663   3.796   0.785   1.800
 1158SOL    MW4 4664   3.797   0.790   1.887
 1159SOL     OW 4665   3.581   0.885   1.986
 1159SOL    HW2 4666   3.581   0.962   1.929
 1159SOL    HW3 4667   3.498   0.841   1.967
 1159SOL    MW4 4668   3.570   0.890   1.976
 1160SOL     OW 4669   3.598   1.131   1.871
 1160SOL    HW2 4670   3.532   1.176   1.924
 1160SOL    HW3 4671   3.574   1.152   1.780
 1160SOL    MW4 4672   3.586   1.140   1.866
 1161SOL     OW 4673   3.792   1.299   1.978
 1161SOL    HW2 4674   3.790   1.291   2.074
 1161SOL    HW3 4675   3.718   1.246   1.949
 1161SOL    MW4 4676   3.782   1.291   1.987
 1162SOL     OW 4677   3.789   1.560   1.897
 1162SOL    HW2 4678   3.852   1.612   1.947
 1162SOL    HW3 4679   3.800   1.471   1.929
 1162SOL    MW4 4680   3.799   1.555   1.908
 1163SOL     OW 4681   3.547   1.697   1.860
 1163SOL    HW2 4682   3.576   1.788   1.848
 1163SOL    HW3 4683   3.628   1.646   1.863
 1163SOL    MW4 4684   3.562   1.702   1.859
 1164SOL     OW 4685   3.591   1.977   1.829
 1164SOL    HW2 4686   3.676   2.014   1.853
 1164SOL    HW3 4687   3.588   1.983   1.734
 1164SOL    MW4 4688   3.602   1.983   1.820
 1165SOL     OW 4689   3.844   2.079   1.903
 1165SOL    HW2 4690   3.927   2.038   1.879
 1165SOL    HW3 4691   3.857   2.172   1.884
 1165SOL    MW4 4692   3.857   2.085   1.898
 1166SOL     OW 4693   3.839   2.351   1.838
 1166SOL    HW2 4694   3.899   2.403   1.892
 1166SOL    HW3 4695   3.752   2.382   1.862
 1166SOL    MW4 4696   3.836   2.362   1.848
 1167SOL     OW 4697   3.585   2.452   1.979
 1167SOL    HW2 4698   3.581   2.543   1.950
 1167SOL    HW3 4699   3.499   2.416   1.957
 1167SOL    MW4 4700   3.573   2.459   1.972
 1168SOL     OW 4701   3.582   2.689   1.846
 1168SOL    HW2 4702   3.659   2.722   1.892
 1168SOL    HW3 4703   3.508   2.723   1.896
 1168SOL    MW4 4704   3.583   2.698   1.859
 1169SOL     OW 4705   3.812   2.811   1.939
 1169SOL    HW2 4706   3.818   2.825   2.034
 1169SOL    HW3 4707   3.804   2.899   1.903
 1169SOL    MW4 4708   3.812   2.825   1.947
 1170SOL     OW 4709   3.793   3.067   1.830
 1170SOL    HW2 4710   3.734   3.131   1.870
 1170SOL    HW3 4711   3.808   3.101   1.741
 1170SOL    MW4 4712   3.787   3.080   1.823
 1171SOL     OW 4713   3.619   3.224   1.949
 1171SOL    HW2 4714   3.617   3.201   2.042
 1171SOL    HW3 4715   3.610   3.320   1.949
 1171SOL    MW4 4716   3.617   3.234   1.962
 1172SOL     OW 4717   3.614   3.501   1.906
 1172SOL    HW2 4718   3.700   3.527   1.940
 1172SOL    HW3 4719   3.621   3.514   1.811
 1172SOL    MW4 4720   3.626   3.506   1.898
 1173SOL     OW 4721   3.847   3.599   2.010
 1173SOL    HW2 4722   3.915   3.563   1.953
 1173SOL    HW3 4723   3.847   3.693   1.991
 1173SOL    MW4 4724   3.856   3.607   2.000
 1174SOL     OW 4725   3.861   3.850   1.911
 1174SOL    HW2 4726   3.780   3.897   1.932
 1174SOL    HW3 4727   3.866   3.853   1.815
 1174SOL    MW4 4728   3.851   3.857   1.901
 1175SOL     OW 4729   3.631   3.995   1.970
 1175SOL    HW2 4730   3.615   4.010   2.063
 1175SOL    HW3 4731   3.547   3.964   1.936
 1175SOL    MW4 4732   3.618   3.993   1.978
 1176SOL     OW 4733   3.617   4.256   1.870
 1176SOL    HW2 4734   3.693   4.301   1.906
 1176SOL    HW3 4735   3.617   4.171   1.913
 1176SOL    MW4 4736   3.627   4.251   1.880
 1177SOL     OW 4737   3.838   4.386   1.980
 1177SOL    HW2 4738   3.845   4.383   2.075
 1177SOL    HW3 4739   3.923   4.357   1.948
 1177SOL    MW4 4740   3.850   4.382   1.988
 1178SOL     OW 4741   4.253   0.002   1.887
 1178SOL    HW2 4742   4.175   0.047   1.918
 1178SOL    HW3 4743   4.326   0.050   1.925
 1178SOL    MW4 4744   4.253   0.014   1.896
 1179SOL     OW 4745   4.021   0.138   1.975
 1179SOL    HW2 4746   4.018   0.118   2.069
 1179SOL    HW3 4747   3.952   0.084   1.937
 1179SOL    MW4 4748   4.011   0.128   1.982
 1180SOL     OW 4749   4.019   0.418   1.910
 1180SOL    HW2 4750   4.010   0.328   1.941
 1180SOL    HW3 4751   3.947   0.465   1.952
 1180SOL    MW4 4752   4.008   0.413   1.919
 1181SOL     OW 4753   4.277   0.525   1.966
 1181SOL    HW2 4754   4.282   0.532   2.062
 1181SOL    HW3 4755   4.184   0.510   1.949
 1181SOL    MW4 4756   4.265   0.524   1.977
 1182SOL     OW 4757   4.238   0.759   1.834
 1182SOL    HW2 4758   4.273   0.682   1.878
 1182SOL    HW3 4759   4.255   0.744   1.741
 1182SOL    MW4 4760   4.245   0.747   1.828
 1183SOL     OW 4761   4.047   0.908   1.961
 1183SOL    HW2 4762   4.120   0.870   1.912
 1183SOL    HW3 4763   3.970   0.858   1.934
 1183SOL    MW4 4764   4.046   0.896   1.951
 1184SOL     OW 4765   4.044   1.190   1.896
 1184SOL    HW2 4766   4.039   1.101   1.931
 1184SOL    HW3 4767   3.961   1.230   1.922
 1184SOL    MW4 4768   4.032   1.184   1.904
 1185SOL     OW 4769   4.286   1.299   1.995
 1185SOL    HW2 4770   4.286   1.289   2.090
 1185SOL    HW3 4771   4.202   1.264   1.967
 1185SOL    MW4 4772   4.275   1.293   2.004
 1186SOL     OW 4773   4.243   1.554   1.888
 1186SOL    HW2 4774   4.256   1.461   1.908
 1186SOL    HW3 4775   4.235   1.558   1.793
 1186SOL    MW4 4776   4.244   1.542   1.878
 1187SOL     OW 4777   4.022   1.683   1.966
 1187SOL    HW2 4778   4.017   1.664   2.060
 1187SOL    HW3 4779   4.094   1.628   1.935
 1187SOL    MW4 4780   4.031   1.673   1.975
 1188SOL     OW 4781   4.072   1.926   1.853
 1188SOL    HW2 4782   4.051   1.839   1.888
 1188SOL    HW3 4783   4.058   1.919   1.759
 1188SOL    MW4 4784   4.068   1.914   1.846
 1189SOL     OW 4785   4.301   2.071   1.915
 1189SOL    HW2 4786   4.293   2.084   2.009
 1189SOL    HW3 4787   4.220   2.026   1.890
 1189SOL    MW4 4788   4.289   2.067   1.924
 1190SOL     OW 4789   4.262   2.326   1.836
 1190SOL    HW2 4790   4.255   2.237   1.869
 1190SOL    HW3 4791   4.349   2.355   1.864
 1190SOL    MW4 4792   4.273   2.318   1.844
 1191SOL     OW 4793   4.049   2.452   1.984
 1191SOL    HW2 4794   4.066   2.467   2.077
 1191SOL    HW3 4795   4.128   2.410   1.951
 1191SOL    MW4 4796   4.061   2.449   1.992
 1192SOL     OW 4797   4.040   2.701   1.827
 1192SOL    HW2 4798   4.061   2.622   1.876
 1192SOL    HW3 4799   3.959   2.733   1.866
 1192SOL    MW4 4800   4.032   2.695   1.838
 1193SOL     OW 4801   4.245   2.847   1.938
 1193SOL    HW2 4802   4.230   2.839   2.032
 1193SOL    HW3 4803   4.163   2.819   1.898
 1193SOL    MW4 4804   4.232   2.842   1.945
 1194SOL     OW 4805   4.254   3.130   1.901
 1194SOL    HW2 4806   4.166   3.150   1.933
 1194SOL    HW3 4807   4.264   3.036   1.916
 1194SOL    MW4 4808   4.243   3.120   1.907
 1195SOL     OW 4809   3.992   3.235   1.964
 1195SOL    HW2 4810   3.997   3.229   2.060
 1195SOL    HW3 4811   3.919   3.179   1.940
 1195SOL    MW4 4812   3.983   3.227   1.974
 1196SOL     OW 4813   4.064   3.495   1.858
 1196SOL    HW2 4814   4.144   3.524   1.903
 1196SOL    HW3 4815   4.056   3.402   1.878
 1196SOL    MW4 4816   4.073   3.487   1.866
 1197SOL     OW 4817   4.291   3.615   1.960
 1197SOL    HW2 4818   4.286   3.703   1.923
 1197SOL    HW3 4819   4.368   3.576   1.919
 1197SOL    MW4 4820   4.301   3.622   1.950
 1198SOL     OW 4821   4.268   3.885   1.868
 1198SOL    HW2 4822   4.347   3.938   1.875
 1198SOL    HW3 4823   4.249   3.882   1.774
 1198SOL    MW4 4824   4.276   3.892   1.856
 1199SOL     OW 4825   4.076   4.032   1.982
 1199SOL    HW2 4826   4.148   3.983   1.942
 1199SOL    HW3 4827   3.999   3.978   1.968
 1199SOL    MW4 4828   4.075   4.019   1.975
 1200SOL     OW 4829   4.076   4.276   1.871
 1200SOL    HW2 4830   4.154   4.322   1.901
 1200SOL    HW3 4831   4.087   4.186   1.903
 1200SOL    MW4 4832   4.087   4.270   1.879
 1201SOL     OW 4833   4.303   4.384   1.970
 1201SOL    HW2 4834   4.281   4.377   2.063
 1201SOL    HW3 4835   4.296   4.478   1.950
 1201SOL    MW4 4836   4.299   4.395   1.979
 1202SOL     OW 4837   0.218   4.649   2.354
 1202SOL    HW2 4838   0.215   4.641   2.449
 1202SOL    HW3 4839   0.292   4.707   2.336
 1202SOL    MW4 4840   0.227   4.655   2.364
 1203SOL     OW 4841   4.471   0.122   2.263
 1203SOL    HW2 4842   4.552   0.078   2.288
 1203SOL    HW3 4843   4.476   0.128   2.168
 1203SOL    MW4 4844   4.482   0.117   2.254
 1204SOL     OW 4845   4.434   0.379   2.374
 1204SOL    HW2 4846   4.514   0.421   2.342
 1204SOL    HW3 4847   4.433   0.293   2.332
 1204SOL    MW4 4848   4.444   0.373   2.364
 1205SOL     OW 4849   0.184   0.471   2.281
 1205SOL    HW2 4850   0.258   0.437   2.332
 1205SOL    HW3 4851   0.210   0.459   2.190
 1205SOL    MW4 4852   0.197   0.465   2.276
 1206SOL     OW 4853   0.237   0.749   2.328
 1206SOL    HW2 4854   0.232   0.757   2.423
 1206SOL    HW3 4855   0.216   0.657   2.311
 1206SOL    MW4 4856   0.234   0.738   2.338
 1207SOL     OW 4857   0.010   0.893   2.244
 1207SOL    HW2 4858   0.090   0.842   2.255
 1207SOL    HW3 4859  -0.017   0.877   2.153
 1207SOL    MW4 4860   0.017   0.884   2.233
 1208SOL     OW 4861   0.053   1.160   2.360
 1208SOL    HW2 4862   0.046   1.157   2.456
 1208SOL    HW3 4863   0.050   1.068   2.333
 1208SOL    MW4 4864   0.051   1.147   2.369
 1209SOL     OW 4865   0.226   1.274   2.184
 1209SOL    HW2 4866   0.145   1.252   2.230
 1209SOL    HW3 4867   0.202   1.276   2.092
 1209SOL    MW4 4868   0.212   1.272   2.178
 1210SOL     OW 4869   0.225   1.542   2.250
 1210SOL    HW2 4870   0.237   1.526   2.344
 1210SOL    HW3 4871   0.231   1.456   2.210
 1210SOL    MW4 4872   0.227   1.529   2.257
 1211SOL     OW 4873   4.480   1.695   2.250
 1211SOL    HW2 4874   4.496   1.782   2.287
 1211SOL    HW3 4875   4.565   1.651   2.257
 1211SOL    MW4 4876   4.494   1.701   2.256
 1212SOL     OW 4877   4.481   1.954   2.332
 1212SOL    HW2 4878   4.412   2.006   2.291
 1212SOL    HW3 4879   4.562   1.998   2.308
 1212SOL    MW4 4880   4.482   1.966   2.323
 1213SOL     OW 4881   0.204   2.088   2.242
 1213SOL    HW2 4882   0.269   2.029   2.279
 1213SOL    HW3 4883   0.199   2.064   2.150
 1213SOL    MW4 4884   0.212   2.077   2.235
 1214SOL     OW 4885   0.187   2.331   2.344
 1214SOL    HW2 4886   0.158   2.308   2.432
 1214SOL    HW3 4887   0.212   2.248   2.304
 1214SOL    MW4 4888   0.186   2.317   2.350
 1215SOL     OW 4889   4.453   2.463   2.213
 1215SOL    HW2 4890   4.464   2.551   2.250
 1215SOL    HW3 4891   4.531   2.415   2.242
 1215SOL    MW4 4892   4.465   2.468   2.221
 1216SOL     OW 4893   4.472   2.707   2.321
 1216SOL    HW2 4894   4.473   2.710   2.416
 1216SOL    HW3 4895   4.553   2.751   2.294
 1216SOL    MW4 4896   4.483   2.713   2.330
 1217SOL     OW 4897   0.195   2.841   2.224
 1217SOL    HW2 4898   0.285   2.818   2.249
 1217SOL    HW3 4899   0.193   2.830   2.129
 1217SOL    MW4 4900   0.207   2.836   2.215
 1218SOL     OW 4901   0.209   3.091   2.332
 1218SOL    HW2 4902   0.131   3.133   2.294
 1218SOL    HW3 4903   0.206   3.001   2.298
 1218SOL    MW4 4904   0.198   3.085   2.322
 1219SOL     OW 4905   4.488   3.191   2.186
 1219SOL    HW2 4906   4.483   3.279   2.223
 1219SOL    HW3 4907   4.519   3.203   2.097
 1219SOL    MW4 4908   4.492   3.204   2.179
 1220SOL     OW 4909   4.473   3.444   2.319
 1220SOL    HW2 4910   4.468   3.447   2.414
 1220SOL    HW3 4911   4.399   3.497   2.289
 1220SOL    MW4 4912   4.463   3.451   2.328
 1221SOL     OW 4913   0.220   3.565   2.224
 1221SOL    HW2 4914   0.292   3.513   2.258
 1221SOL    HW3 4915   0.142   3.531   2.268
 1221SOL    MW4 4916   0.219   3.554   2.234
 1222SOL     OW 4917   0.231   3.838   2.300
 1222SOL    HW2 4918   0.151   3.878   2.266
 1222SOL    HW3 4919   0.224   3.746   2.276
 1222SOL    MW4 4920   0.219   3.831   2.292
 1223SOL     OW 4921   0.006   3.965   2.202
 1223SOL    HW2 4922  -0.008   4.056   2.225
 1223SOL    HW3 4923  -0.001   3.963   2.107
 1223SOL    MW4 4924   0.003   3.976   2.192
 1224SOL     OW 4925   4.471   4.260   2.327
 1224SOL    HW2 4926   4.468   4.242   2.421
 1224SOL    HW3 4927   4.549   4.314   2.315
 1224SOL    MW4 4928   4.481   4.265   2.338
 1225SOL     OW 4929   0.194   4.408   2.215
 1225SOL    HW2 4930   0.261   4.356   2.260
 1225SOL    HW3 4931   0.194   4.492   2.261
 1225SOL    MW4 4932   0.203   4.412   2.227
 1226SOL     OW 4933   0.651   4.665   2.345
 1226SOL    HW2 4934   0.657   4.654   2.440
 1226SOL    HW3 4935   0.739   4.691   2.318
 1226SOL    MW4 4936   0.664   4.667   2.354
 1227SOL     OW 4937   0.443   0.155   2.245
 1227SOL    HW2 4938   0.515   0.094   2.262
 1227SOL    HW3 4939   0.437   0.157   2.149
 1227SOL    MW4 4940   0.452   0.147   2.234
 1228SOL     OW 4941   0.435   0.396   2.354
 1228SOL    HW2 4942   0.437   0.379   2.448
 1228SOL    HW3 4943   0.445   0.310   2.314
 1228SOL    MW4 4944   0.437   0.382   2.361
 1229SOL     OW 4945   0.676   0.493   2.240
 1229SOL    HW2 4946   0.679   0.589   2.249
 1229SOL    HW3 4947   0.600   0.467   2.291
 1229SOL    MW4 4948   0.667   0.502   2.248
 1230SOL     OW 4949   0.641   0.758   2.289
 1230SOL    HW2 4950   0.651   0.770   2.383
 1230SOL    HW3 4951   0.557   0.799   2.269
 1230SOL    MW4 4952   0.631   0.765   2.298
 1231SOL     OW 4953   0.421   0.944   2.245
 1231SOL    HW2 4954   0.356   0.896   2.297
 1231SOL    HW3 4955   0.403   0.918   2.154
 1231SOL    MW4 4956   0.410   0.934   2.240
 1232SOL     OW 4957   0.451   1.210   2.345
 1232SOL    HW2 4958   0.442   1.125   2.302
 1232SOL    HW3 4959   0.380   1.263   2.309
 1232SOL    MW4 4960   0.440   1.205   2.335
 1233SOL     OW 4961   0.688   1.285   2.192
 1233SOL    HW2 4962   0.699   1.366   2.242
 1233SOL    HW3 4963   0.609   1.244   2.230
 1233SOL    MW4 4964   0.679   1.290   2.204
 1234SOL     OW 4965   0.681   1.541   2.312
 1234SOL    HW2 4966   0.671   1.520   2.405
 1234SOL    HW3 4967   0.762   1.592   2.307
 1234SOL    MW4 4968   0.690   1.545   2.323
 1235SOL     OW 4969   0.469   1.687   2.205
 1235SOL    HW2 4970   0.546   1.643   2.241
 1235SOL    HW3 4971   0.394   1.637   2.239
 1235SOL    MW4 4972   0.469   1.675   2.214
 1236SOL     OW 4973   0.428   1.938   2.315
 1236SOL    HW2 4974   0.504   1.984   2.279
 1236SOL    HW3 4975   0.439   1.847   2.287
 1236SOL    MW4 4976   0.440   1.932   2.306
 1237SOL     OW 4977   0.659   2.051   2.226
 1237SOL    HW2 4978   0.740   2.022   2.269
 1237SOL    HW3 4979   0.637   2.134   2.268
 1237SOL    MW4 4980   0.667   2.058   2.237
 1238SOL     OW 4981   0.609   2.310   2.365
 1238SOL    HW2 4982   0.601   2.316   2.461
 1238SOL    HW3 4983   0.696   2.346   2.346
 1238SOL    MW4 4984   0.620   2.315   2.375
 1239SOL     OW 4985   0.412   2.450   2.225
 1239SOL    HW2 4986   0.487   2.407   2.267
 1239SOL    HW3 4987   0.337   2.424   2.279
 1239SOL    MW4 4988   0.412   2.441   2.238
 1240SOL     OW 4989   0.451   2.715   2.302
 1240SOL    HW2 4990   0.432   2.700   2.395
 1240SOL    HW3 4991   0.442   2.628   2.262
 1240SOL    MW4 4992   0.447   2.701   2.309
 1241SOL     OW 4993   0.702   2.802   2.218
 1241SOL    HW2 4994   0.769   2.735   2.235
 1241SOL    HW3 4995   0.621   2.764   2.253
 1241SOL    MW4 4996   0.700   2.788   2.225
 1242SOL     OW 4997   0.697   3.062   2.341
 1242SOL    HW2 4998   0.617   3.095   2.302
 1242SOL    HW3 4999   0.706   2.973   2.307
 1242SOL    MW4 5000   0.688   3.054   2.332
 1243SOL     OW 5001   0.457   3.157   2.216
 1243SOL    HW2 5002   0.372   3.141   2.258
 1243SOL    HW3 5003   0.441   3.140   2.123
 1243SOL    MW4 5004   0.444   3.152   2.209
 1244SOL     OW 5005   0.423   3.410   2.327
 1244SOL    HW2 5006   0.502   3.451   2.292
 1244SOL    HW3 5007   0.432   3.318   2.304
 1244SOL    MW4 5008   0.435   3.404   2.320
 1245SOL     OW 5009   0.629   3.568   2.254
 1245SOL    HW2 5010   0.639   3.651   2.300
 1245SOL    HW3 5011   0.637   3.592   2.161
 1245SOL    MW4 5012   0.631   3.582   2.248
 1246SOL     OW 5013   0.681   3.822   2.349
 1246SOL    HW2 5014   0.689   3.836   2.444
 1246SOL    HW3 5015   0.613   3.883   2.321
 1246SOL    MW4 5016   0.673   3.832   2.358
 1247SOL     OW 5017   0.457   3.988   2.245
 1247SOL    HW2 5018   0.380   3.935   2.266
 1247SOL    HW3 5019   0.456   3.995   2.149
 1247SOL    MW4 5020   0.447   3.982   2.235
 1248SOL     OW 5021   0.439   4.273   2.295
 1248SOL    HW2 5022   0.520   4.313   2.266
 1248SOL    HW3 5023   0.454   4.179   2.289
 1248SOL    MW4 5024   0.451   4.266   2.291
 1249SOL     OW 5025   0.671   4.398   2.246
 1249SOL    HW2 5026   0.664   4.488   2.280
 1249SOL    HW3 5027   0.685   4.409   2.152
 1249SOL    MW4 5028   0.672   4.412   2.238
 1250SOL     OW 5029   1.122   4.607   2.336
 1250SOL    HW2 5030   1.129   4.615   2.431
 1250SOL    HW3 5031   1.048   4.663   2.312
 1250SOL    MW4 5032   1.113   4.615   2.345
 1251SOL     OW 5033   0.886   0.086   2.253
 1251SOL    HW2 5034   0.873   0.174   2.288
 1251SOL    HW3 5035   0.859   0.093   2.161
 1251SOL    MW4 5036   0.880   0.098   2.245
 1252SOL     OW 5037   0.909   0.339   2.329
 1252SOL    HW2 5038   0.992   0.375   2.300
 1252SOL    HW3 5039   0.842   0.396   2.291
 1252SOL    MW4 5040   0.911   0.351   2.320
 1253SOL     OW 5041   1.136   0.478   2.266
 1253SOL    HW2 5042   1.209   0.425   2.297
 1253SOL    HW3 5043   1.146   0.481   2.171
 1253SOL    MW4 5044   1.147   0.472   2.258
 1254SOL     OW 5045   1.130   0.745   2.319
 1254SOL    HW2 5046   1.046   0.784   2.291
 1254SOL    HW3 5047   1.115   0.651   2.316
 1254SOL    MW4 5048   1.117   0.738   2.315
 1255SOL     OW 5049   0.896   0.887   2.267
 1255SOL    HW2 5050   0.892   0.978   2.298
 1255SOL    HW3 5051   0.805   0.859   2.262
 1255SOL    MW4 5052   0.884   0.895   2.270
 1256SOL     OW 5053   0.898   1.152   2.357
 1256SOL    HW2 5054   0.982   1.185   2.323
 1256SOL    HW3 5055   0.833   1.187   2.297
 1256SOL    MW4 5056   0.901   1.161   2.344
 1257SOL     OW 5057   1.135   1.298   2.237
 1257SOL    HW2 5058   1.214   1.246   2.254
 1257SOL    HW3 5059   1.116   1.283   2.144
 1257SOL    MW4 5060   1.143   1.289   2.227
 1258SOL     OW 5061   1.122   1.563   2.369
 1258SOL    HW2 5062   1.056   1.606   2.314
 1258SOL    HW3 5063   1.122   1.472   2.338
 1258SOL    MW4 5064   1.113   1.557   2.357
 1259SOL     OW 5065   0.897   1.696   2.259
 1259SOL    HW2 5066   0.909   1.785   2.293
 1259SOL    HW3 5067   0.890   1.708   2.164
 1259SOL    MW4 5068   0.898   1.710   2.251
 1260SOL     OW 5069   0.919   1.972   2.333
 1260SOL    HW2 5070   0.945   1.981   2.424
 1260SOL    HW3 5071   0.991   2.011   2.283
 1260SOL    MW4 5072   0.932   1.978   2.338
 1261SOL     OW 5073   1.147   2.097   2.225
 1261SOL    HW2 5074   1.201   2.024   2.254
 1261SOL    HW3 5075   1.163   2.102   2.131
 1261SOL    MW4 5076   1.156   2.088   2.216
 1262SOL     OW 5077   1.103   2.353   2.331
 1262SOL    HW2 5078   1.181   2.384   2.285
 1262SOL    HW3 5079   1.102   2.258   2.316
 1262SOL    MW4 5080   1.113   2.344   2.323
 1263SOL     OW 5081   0.851   2.402   2.242
 1263SOL    HW2 5082   0.928   2.358   2.279
 1263SOL    HW3 5083   0.874   2.418   2.150
 1263SOL    MW4 5084   0.864   2.399   2.235
 1264SOL     OW 5085   0.925   2.660   2.316
 1264SOL    HW2 5086   0.922   2.679   2.410
 1264SOL    HW3 5087   0.902   2.568   2.309
 1264SOL    MW4 5088   0.922   2.651   2.327
 1265SOL     OW 5089   1.099   2.840   2.227
 1265SOL    HW2 5090   1.186   2.799   2.231
 1265SOL    HW3 5091   1.042   2.780   2.277
 1265SOL    MW4 5092   1.103   2.827   2.234
 1266SOL     OW 5093   1.123   3.092   2.321
 1266SOL    HW2 5094   1.061   3.150   2.276
 1266SOL    HW3 5095   1.095   3.004   2.298
 1266SOL    MW4 5096   1.111   3.088   2.312
 1267SOL     OW 5097   0.896   3.220   2.206
 1267SOL    HW2 5098   0.895   3.301   2.257
 1267SOL    HW3 5099   0.832   3.163   2.250
 1267SOL    MW4 5100   0.887   3.223   2.219
 1268SOL     OW 5101   0.887   3.471   2.316
 1268SOL    HW2 5102   0.876   3.460   2.410
 1268SOL    HW3 5103   0.809   3.518   2.287
 1268SOL    MW4 5104   0.875   3.476   2.324
 1269SOL     OW 5105   1.119   3.600   2.280
 1269SOL    HW2 5106   1.185   3.538   2.309
 1269SOL    HW3 5107   1.036   3.554   2.292
 1269SOL    MW4 5108   1.116   3.586   2.286
 1270SOL     OW 5109   1.118   3.870   2.336
 1270SOL    HW2 5110   1.192   3.907   2.288
 1270SOL    HW3 5111   1.129   3.775   2.329
 1270SOL    MW4 5112   1.129   3.863   2.329
 1271SOL     OW 5113   0.888   3.983   2.224
 1271SOL    HW2 5114   0.968   3.939   2.253
 1271SOL    HW3 5115   0.817   3.923   2.247
 1271SOL    MW4 5116   0.889   3.969   2.231
 1272SOL     OW 5117   0.882   4.233   2.332
 1272SOL    HW2 5118   0.864   4.140   2.316
 1272SOL    HW3 5119   0.805   4.279   2.299
 1272SOL    MW4 5120   0.870   4.227   2.325
 1273SOL     OW 5121   1.111   4.348   2.232
 1273SOL    HW2 5122   1.029   4.306   2.260
 1273SOL    HW3 5123   1.110   4.433   2.275
 1273SOL    MW4 5124   1.100   4.353   2.242
 1274SOL     OW 5125   1.550   4.613   2.348
 1274SOL    HW2 5126   1.618   4.677   2.332
 1274SOL    HW3 5127   1.483   4.633   2.283
 1274SOL    MW4 5128   1.550   4.624   2.338
 1275SOL     OW 5129   1.335   0.065   2.195
 1275SOL    HW2 5130   1.358   0.147   2.238
 1275SOL    HW3 5131   1.264   0.028   2.247
 1275SOL    MW4 5132   1.329   0.071   2.207
 1276SOL     OW 5133   1.352   0.292   2.336
 1276SOL    HW2 5134   1.352   0.311   2.430
 1276SOL    HW3 5135   1.427   0.342   2.302
 1276SOL    MW4 5136   1.362   0.301   2.344
 1277SOL     OW 5137   1.553   0.468   2.245
 1277SOL    HW2 5138   1.637   0.440   2.281
 1277SOL    HW3 5139   1.571   0.485   2.153
 1277SOL    MW4 5140   1.567   0.467   2.238
 1278SOL     OW 5141   1.586   0.731   2.347
 1278SOL    HW2 5142   1.668   0.774   2.324
 1278SOL    HW3 5143   1.584   0.652   2.293
 1278SOL    MW4 5144   1.596   0.726   2.337
 1279SOL     OW 5145   1.376   0.878   2.246
 1279SOL    HW2 5146   1.455   0.840   2.283
 1279SOL    HW3 5147   1.305   0.825   2.282
 1279SOL    MW4 5148   1.377   0.866   2.255
 1280SOL     OW 5149   1.354   1.142   2.302
 1280SOL    HW2 5150   1.364   1.132   2.396
 1280SOL    HW3 5151   1.343   1.053   2.269
 1280SOL    MW4 5152   1.354   1.129   2.310
 1281SOL     OW 5153   1.594   1.281   2.227
 1281SOL    HW2 5154   1.519   1.229   2.257
 1281SOL    HW3 5155   1.587   1.281   2.132
 1281SOL    MW4 5156   1.583   1.274   2.218
 1282SOL     OW 5157   1.564   1.523   2.349
 1282SOL    HW2 5158   1.633   1.582   2.318
 1282SOL    HW3 5159   1.580   1.441   2.304
 1282SOL    MW4 5160   1.575   1.520   2.339
 1283SOL     OW 5161   1.338   1.635   2.223
 1283SOL    HW2 5162   1.417   1.602   2.265
 1283SOL    HW3 5163   1.266   1.596   2.272
 1283SOL    MW4 5164   1.339   1.626   2.235
 1284SOL     OW 5165   1.321   1.894   2.322
 1284SOL    HW2 5166   1.399   1.938   2.289
 1284SOL    HW3 5167   1.324   1.806   2.285
 1284SOL    MW4 5168   1.332   1.888   2.313
 1285SOL     OW 5169   1.529   2.053   2.249
 1285SOL    HW2 5170   1.597   2.008   2.300
 1285SOL    HW3 5171   1.567   2.060   2.161
 1285SOL    MW4 5172   1.543   2.048   2.244
 1286SOL     OW 5173   1.583   2.307   2.351
 1286SOL    HW2 5174   1.592   2.309   2.446
 1286SOL    HW3 5175   1.561   2.216   2.331
 1286SOL    MW4 5176   1.582   2.295   2.361
 1287SOL     OW 5177   1.345   2.447   2.229
 1287SOL    HW2 5178   1.409   2.398   2.280
 1287SOL    HW3 5179   1.350   2.411   2.141
 1287SOL    MW4 5180   1.354   2.436   2.224
 1288SOL     OW 5181   1.350   2.719   2.286
 1288SOL    HW2 5182   1.419   2.770   2.244
 1288SOL    HW3 5183   1.370   2.628   2.264
 1288SOL    MW4 5184   1.361   2.713   2.277
 1289SOL     OW 5185   1.585   2.835   2.203
 1289SOL    HW2 5186   1.594   2.909   2.263
 1289SOL    HW3 5187   1.610   2.870   2.117
 1289SOL    MW4 5188   1.590   2.849   2.199
 1290SOL     OW 5189   1.584   3.069   2.337
 1290SOL    HW2 5190   1.574   3.070   2.432
 1290SOL    HW3 5191   1.502   3.105   2.304
 1290SOL    MW4 5192   1.572   3.074   2.345
 1291SOL     OW 5193   1.354   3.199   2.240
 1291SOL    HW2 5194   1.269   3.161   2.263
 1291SOL    HW3 5195   1.350   3.208   2.144
 1291SOL    MW4 5196   1.342   3.195   2.230
 1292SOL     OW 5197   1.346   3.460   2.355
 1292SOL    HW2 5198   1.343   3.465   2.451
 1292SOL    HW3 5199   1.343   3.367   2.336
 1292SOL    MW4 5200   1.345   3.449   2.365
 1293SOL     OW 5201   1.550   3.599   2.212
 1293SOL    HW2 5202   1.540   3.682   2.259
 1293SOL    HW3 5203   1.471   3.549   2.235
 1293SOL    MW4 5204   1.538   3.603   2.221
 1294SOL     OW 5205   1.540   3.850   2.335
 1294SOL    HW2 5206   1.549   3.845   2.430
 1294SOL    HW3 5207   1.610   3.910   2.307
 1294SOL    MW4 5208   1.551   3.857   2.344
 1295SOL     OW 5209   1.332   3.970   2.206
 1295SOL    HW2 5210   1.397   3.921   2.256
 1295SOL    HW3 5211   1.359   3.960   2.115
 1295SOL    MW4 5212   1.344   3.962   2.200
 1296SOL     OW 5213   1.347   4.226   2.311
 1296SOL    HW2 5214   1.338   4.139   2.271
 1296SOL    HW3 5215   1.266   4.271   2.290
 1296SOL    MW4 5216   1.335   4.220   2.303
 1297SOL     OW 5217   1.547   4.387   2.189
 1297SOL    HW2 5218   1.482   4.330   2.230
 1297SOL    HW3 5219   1.558   4.459   2.251
 1297SOL    MW4 5220   1.540   4.389   2.203
 1298SOL     OW 5221   1.954   4.654   2.362
 1298SOL    HW2 5222   2.040   4.696   2.357
 1298SOL    HW3 5223   1.966   4.569   2.320
 1298SOL    MW4 5224   1.967   4.648   2.356
 1299SOL     OW 5225   1.742   0.122   2.253
 1299SOL    HW2 5226   1.750   0.213   2.280
 1299SOL    HW3 5227   1.824   0.082   2.281
 1299SOL    MW4 5228   1.754   0.129   2.260
 1300SOL     OW 5229   1.784   0.387   2.352
 1300SOL    HW2 5230   1.787   0.374   2.447
 1300SOL    HW3 5231   1.859   0.443   2.333
 1300SOL    MW4 5232   1.794   0.392   2.362
 1301SOL     OW 5233   2.013   0.525   2.294
 1301SOL    HW2 5234   2.022   0.619   2.314
 1301SOL    HW3 5235   2.010   0.522   2.199
 1301SOL    MW4 5236   2.014   0.537   2.284
 1302SOL     OW 5237   2.045   0.778   2.373
 1302SOL    HW2 5238   2.118   0.825   2.334
 1302SOL    HW3 5239   1.967   0.819   2.337
 1302SOL    MW4 5240   2.044   0.789   2.363
 1303SOL     OW 5241   1.793   0.881   2.243
 1303SOL    HW2 5242   1.780   0.967   2.284
 1303SOL    HW3 5243   1.774   0.896   2.150
 1303SOL    MW4 5244   1.789   0.894   2.236
 1304SOL     OW 5245   1.789   1.139   2.351
 1304SOL    HW2 5246   1.872   1.181   2.327
 1304SOL    HW3 5247   1.722   1.190   2.305
 1304SOL    MW4 5248   1.791   1.152   2.342
 1305SOL     OW 5249   2.022   1.293   2.263
 1305SOL    HW2 5250   2.017   1.387   2.281
 1305SOL    HW3 5251   2.026   1.286   2.168
 1305SOL    MW4 5252   2.022   1.304   2.253
 1306SOL     OW 5253   2.015   1.581   2.359
 1306SOL    HW2 5254   2.009   1.595   2.454
 1306SOL    HW3 5255   1.927   1.600   2.327
 1306SOL    MW4 5256   2.003   1.585   2.367
 1307SOL     OW 5257   1.770   1.686   2.277
 1307SOL    HW2 5258   1.775   1.778   2.302
 1307SOL    HW3 5259   1.777   1.687   2.182
 1307SOL    MW4 5260   1.771   1.698   2.268
 1308SOL     OW 5261   1.763   1.951   2.363
 1308SOL    HW2 5262   1.777   1.954   2.458
 1308SOL    HW3 5263   1.834   2.005   2.327
 1308SOL    MW4 5264   1.774   1.959   2.371
 1309SOL     OW 5265   2.009   2.088   2.272
 1309SOL    HW2 5266   2.094   2.050   2.296
 1309SOL    HW3 5267   2.013   2.098   2.177
 1309SOL    MW4 5268   2.020   2.084   2.263
 1310SOL     OW 5269   2.018   2.321   2.414
 1310SOL    HW2 5270   2.086   2.369   2.366
 1310SOL    HW3 5271   2.006   2.241   2.363
 1310SOL    MW4 5272   2.026   2.317   2.401
 1311SOL     OW 5273   1.810   2.417   2.241
 1311SOL    HW2 5274   1.884   2.383   2.292
 1311SOL    HW3 5275   1.733   2.376   2.280
 1311SOL    MW4 5276   1.810   2.407   2.253
 1312SOL     OW 5277   1.774   2.693   2.337
 1312SOL    HW2 5278   1.791   2.606   2.303
 1312SOL    HW3 5279   1.713   2.732   2.275
 1312SOL    MW4 5280   1.768   2.687   2.324
 1313SOL     OW 5281   1.980   2.864   2.275
 1313SOL    HW2 5282   2.060   2.819   2.302
 1313SOL    HW3 5283   1.909   2.806   2.302
 1313SOL    MW4 5284   1.981   2.850   2.282
 1314SOL     OW 5285   1.987   3.115   2.372
 1314SOL    HW2 5286   2.068   3.156   2.342
 1314SOL    HW3 5287   1.997   3.023   2.347
 1314SOL    MW4 5288   1.999   3.108   2.365
 1315SOL     OW 5289   1.783   3.216   2.211
 1315SOL    HW2 5290   1.866   3.187   2.246
 1315SOL    HW3 5291   1.717   3.178   2.270
 1315SOL    MW4 5292   1.785   3.207   2.223
 1316SOL     OW 5293   1.789   3.493   2.305
 1316SOL    HW2 5294   1.789   3.404   2.270
 1316SOL    HW3 5295   1.720   3.538   2.256
 1316SOL    MW4 5296   1.780   3.487   2.294
 1317SOL     OW 5297   2.025   3.661   2.230
 1317SOL    HW2 5298   1.951   3.607   2.259
 1317SOL    HW3 5299   2.051   3.623   2.147
 1317SOL    MW4 5300   2.019   3.649   2.223
 1318SOL     OW 5301   2.015   3.909   2.321
 1318SOL    HW2 5302   2.016   3.899   2.416
 1318SOL    HW3 5303   2.017   3.819   2.288
 1318SOL    MW4 5304   2.015   3.895   2.329
 1319SOL     OW 5305   1.771   4.003   2.225
 1319SOL    HW2 5306   1.861   3.983   2.251
 1319SOL    HW3 5307   1.769   3.990   2.131
 1319SOL    MW4 5308   1.783   3.999   2.216
 1320SOL     OW 5309   1.732   4.254   2.334
 1320SOL    HW2 5310   1.736   4.164   2.303
 1320SOL    HW3 5311   1.655   4.291   2.291
 1320SOL    MW4 5312   1.722   4.247   2.325
 1321SOL     OW 5313   1.983   4.383   2.264
 1321SOL    HW2 5314   1.900   4.339   2.284
 1321SOL    HW3 5315   1.991   4.375   2.169
 1321SOL    MW4 5316   1.973   4.376   2.254
 1322SOL     OW 5317   2.462   4.644   2.369
 1322SOL    HW2 5318   2.538   4.692   2.337
 1322SOL    HW3 5319   2.473   4.555   2.336
 1322SOL    MW4 5320   2.473   4.638   2.361
 1323SOL     OW 5321   2.205   0.081   2.307
 1323SOL    HW2 5322   2.205   0.170   2.341
 1323SOL    HW3 5323   2.281   0.040   2.348
 1323SOL    MW4 5324   2.215   0.087   2.317
 1324SOL     OW 5325   2.211   0.350   2.382
 1324SOL    HW2 5326   2.295   0.383   2.349
 1324SOL    HW3 5327   2.147   0.417   2.357
 1324SOL    MW4 5328   2.214   0.363   2.374
 1325SOL     OW 5329   2.431   0.479   2.248
 1325SOL    HW2 5330   2.505   0.425   2.279
 1325SOL    HW3 5331   2.444   0.485   2.153
 1325SOL    MW4 5332   2.443   0.473   2.239
 1326SOL     OW 5333   2.466   0.740   2.362
 1326SOL    HW2 5334   2.542   0.788   2.331
 1326SOL    HW3 5335   2.463   0.661   2.307
 1326SOL    MW4 5336   2.475   0.736   2.351
 1327SOL     OW 5337   2.269   0.906   2.269
 1327SOL    HW2 5338   2.272   0.998   2.295
 1327SOL    HW3 5339   2.346   0.867   2.309
 1327SOL    MW4 5340   2.279   0.913   2.277
 1328SOL     OW 5341   2.260   1.163   2.362
 1328SOL    HW2 5342   2.336   1.221   2.356
 1328SOL    HW3 5343   2.187   1.214   2.327
 1328SOL    MW4 5344   2.261   1.177   2.357
 1329SOL     OW 5345   2.481   1.317   2.246
 1329SOL    HW2 5346   2.549   1.267   2.291
 1329SOL    HW3 5347   2.494   1.407   2.276
 1329SOL    MW4 5348   2.492   1.322   2.256
 1330SOL     OW 5349   2.479   1.577   2.321
 1330SOL    HW2 5350   2.469   1.589   2.416
 1330SOL    HW3 5351   2.562   1.619   2.300
 1330SOL    MW4 5352   2.489   1.584   2.331
 1331SOL     OW 5353   2.223   1.717   2.230
 1331SOL    HW2 5354   2.305   1.668   2.229
 1331SOL    HW3 5355   2.161   1.659   2.276
 1331SOL    MW4 5356   2.225   1.703   2.236
 1332SOL     OW 5357   2.256   1.954   2.373
 1332SOL    HW2 5358   2.334   1.999   2.339
 1332SOL    HW3 5359   2.247   1.878   2.317
 1332SOL    MW4 5360   2.265   1.950   2.361
 1333SOL     OW 5361   2.459   2.100   2.241
 1333SOL    HW2 5362   2.548   2.070   2.260
 1333SOL    HW3 5363   2.451   2.090   2.146
 1333SOL    MW4 5364   2.470   2.095   2.231
 1334SOL     OW 5365   2.479   2.330   2.372
 1334SOL    HW2 5366   2.552   2.369   2.324
 1334SOL    HW3 5367   2.472   2.242   2.336
 1334SOL    MW4 5368   2.487   2.324   2.361
 1335SOL     OW 5369   2.228   2.442   2.290
 1335SOL    HW2 5370   2.220   2.534   2.313
 1335SOL    HW3 5371   2.307   2.412   2.335
 1335SOL    MW4 5372   2.237   2.450   2.299
 1336SOL     OW 5373   2.190   2.716   2.375
 1336SOL    HW2 5374   2.194   2.708   2.470
 1336SOL    HW3 5375   2.269   2.764   2.351
 1336SOL    MW4 5376   2.201   2.721   2.384
 1337SOL     OW 5377   2.407   2.835   2.261
 1337SOL    HW2 5378   2.485   2.798   2.303
 1337SOL    HW3 5379   2.427   2.833   2.167
 1337SOL    MW4 5380   2.420   2.830   2.254
 1338SOL     OW 5381   2.452   3.111   2.344
 1338SOL    HW2 5382   2.529   3.155   2.308
 1338SOL    HW3 5383   2.457   3.022   2.311
 1338SOL    MW4 5384   2.462   3.105   2.335
 1339SOL     OW 5385   2.211   3.233   2.247
 1339SOL    HW2 5386   2.222   3.325   2.271
 1339SOL    HW3 5387   2.295   3.192   2.271
 1339SOL    MW4 5388   2.224   3.239   2.253
 1340SOL     OW 5389   2.228   3.516   2.338
 1340SOL    HW2 5390   2.224   3.502   2.433
 1340SOL    HW3 5391   2.157   3.577   2.320
 1340SOL    MW4 5392   2.218   3.522   2.348
 1341SOL     OW 5393   2.474   3.616   2.271
 1341SOL    HW2 5394   2.478   3.704   2.308
 1341SOL    HW3 5395   2.387   3.584   2.295
 1341SOL    MW4 5396   2.463   3.623   2.279
 1342SOL     OW 5397   2.506   3.886   2.356
 1342SOL    HW2 5398   2.510   3.890   2.451
 1342SOL    HW3 5399   2.427   3.934   2.333
 1342SOL    MW4 5400   2.496   3.893   2.365
 1343SOL     OW 5401   2.265   4.010   2.274
 1343SOL    HW2 5402   2.245   4.097   2.308
 1343SOL    HW3 5403   2.186   3.958   2.291
 1343SOL    MW4 5404   2.252   4.014   2.281
 1344SOL     OW 5405   2.226   4.298   2.360
 1344SOL    HW2 5406   2.214   4.293   2.455
 1344SOL    HW3 5407   2.143   4.332   2.327
 1344SOL    MW4 5408   2.214   4.301   2.368
 1345SOL     OW 5409   2.478   4.376   2.281
 1345SOL    HW2 5410   2.547   4.323   2.319
 1345SOL    HW3 5411   2.397   4.345   2.322
 1345SOL    MW4 5412   2.476   4.365   2.291
 1346SOL     OW 5413   2.893   4.624   2.357
 1346SOL    HW2 5414   2.966   4.660   2.307
 1346SOL    HW3 5415   2.879   4.536   2.320
 1346SOL    MW4 5416   2.901   4.617   2.346
 1347SOL     OW 5417   2.686   0.087   2.257
 1347SOL    HW2 5418   2.707   0.170   2.301
 1347SOL    HW3 5419   2.745   0.024   2.298
 1347SOL    MW4 5420   2.697   0.090   2.269
 1348SOL     OW 5421   2.683   0.370   2.320
 1348SOL    HW2 5422   2.691   0.366   2.416
 1348SOL    HW3 5423   2.746   0.436   2.293
 1348SOL    MW4 5424   2.692   0.378   2.329
 1349SOL     OW 5425   2.881   0.523   2.194
 1349SOL    HW2 5426   2.899   0.612   2.225
 1349SOL    HW3 5427   2.858   0.534   2.102
 1349SOL    MW4 5428   2.880   0.536   2.186
 1350SOL     OW 5429   2.906   0.785   2.304
 1350SOL    HW2 5430   2.897   0.758   2.396
 1350SOL    HW3 5431   2.827   0.836   2.287
 1350SOL    MW4 5432   2.894   0.788   2.314
 1351SOL     OW 5433   2.665   0.920   2.274
 1351SOL    HW2 5434   2.668   1.010   2.305
 1351SOL    HW3 5435   2.668   0.927   2.178
 1351SOL    MW4 5436   2.666   0.933   2.265
 1352SOL     OW 5437   2.679   1.175   2.359
 1352SOL    HW2 5438   2.680   1.173   2.455
 1352SOL    HW3 5439   2.764   1.210   2.335
 1352SOL    MW4 5440   2.690   1.179   2.369
 1353SOL     OW 5441   2.910   1.292   2.231
 1353SOL    HW2 5442   2.992   1.264   2.273
 1353SOL    HW3 5443   2.924   1.274   2.138
 1353SOL    MW4 5444   2.923   1.286   2.225
 1354SOL     OW 5445   2.923   1.571   2.322
 1354SOL    HW2 5446   2.927   1.540   2.412
 1354SOL    HW3 5447   2.915   1.491   2.269
 1354SOL    MW4 5448   2.923   1.556   2.327
 1355SOL     OW 5449   2.703   1.718   2.223
 1355SOL    HW2 5450   2.779   1.664   2.246
 1355SOL    HW3 5451   2.695   1.710   2.128
 1355SOL    MW4 5452   2.712   1.710   2.214
 1356SOL     OW 5453   2.712   2.004   2.348
 1356SOL    HW2 5454   2.705   1.993   2.443
 1356SOL    HW3 5455   2.715   1.915   2.313
 1356SOL    MW4 5456   2.711   1.991   2.356
 1357SOL     OW 5457   2.953   2.100   2.229
 1357SOL    HW2 5458   3.019   2.066   2.289
 1357SOL    HW3 5459   2.870   2.065   2.262
 1357SOL    MW4 5460   2.951   2.091   2.241
 1358SOL     OW 5461   2.906   2.349   2.346
 1358SOL    HW2 5462   2.892   2.336   2.439
 1358SOL    HW3 5463   2.923   2.261   2.312
 1358SOL    MW4 5464   2.907   2.336   2.354
 1359SOL     OW 5465   2.687   2.461   2.237
 1359SOL    HW2 5466   2.767   2.419   2.268
 1359SOL    HW3 5467   2.698   2.465   2.142
 1359SOL    MW4 5468   2.699   2.456   2.228
 1360SOL     OW 5469   2.646   2.715   2.351
 1360SOL    HW2 5470   2.720   2.760   2.310
 1360SOL    HW3 5471   2.646   2.628   2.312
 1360SOL    MW4 5472   2.656   2.709   2.341
 1361SOL     OW 5473   2.869   2.857   2.236
 1361SOL    HW2 5474   2.873   2.942   2.280
 1361SOL    HW3 5475   2.866   2.878   2.143
 1361SOL    MW4 5476   2.869   2.871   2.229
 1362SOL     OW 5477   2.904   3.084   2.371
 1362SOL    HW2 5478   2.978   3.118   2.321
 1362SOL    HW3 5479   2.829   3.136   2.342
 1362SOL    MW4 5480   2.904   3.095   2.361
 1363SOL     OW 5481   2.691   3.214   2.254
 1363SOL    HW2 5482   2.704   3.302   2.288
 1363SOL    HW3 5483   2.689   3.224   2.159
 1363SOL    MW4 5484   2.692   3.227   2.246
 1364SOL     OW 5485   2.680   3.468   2.365
 1364SOL    HW2 5486   2.753   3.526   2.343
 1364SOL    HW3 5487   2.603   3.514   2.331
 1364SOL    MW4 5488   2.679   3.482   2.357
 1365SOL     OW 5489   2.905   3.598   2.254
 1365SOL    HW2 5490   2.989   3.558   2.274
 1365SOL    HW3 5491   2.912   3.687   2.287
 1365SOL    MW4 5492   2.917   3.604   2.261
 1366SOL     OW 5493   2.947   3.847   2.358
 1366SOL    HW2 5494   2.938   3.843   2.453
 1366SOL    HW3 5495   2.870   3.895   2.328
 1366SOL    MW4 5496   2.936   3.853   2.366
 1367SOL     OW 5497   2.746   3.965   2.233
 1367SOL    HW2 5498   2.663   3.937   2.272
 1367SOL    HW3 5499   2.724   3.982   2.141
 1367SOL    MW4 5500   2.732   3.964   2.226
 1368SOL     OW 5501   2.704   4.226   2.335
 1368SOL    HW2 5502   2.708   4.218   2.430
 1368SOL    HW3 5503   2.711   4.137   2.302
 1368SOL    MW4 5504   2.705   4.213   2.343
 1369SOL     OW 5505   2.926   4.372   2.244
 1369SOL    HW2 5506   2.999   4.330   2.290
 1369SOL    HW3 5507   2.849   4.320   2.269
 1369SOL    MW4 5508   2.926   4.359   2.254
 1370SOL     OW 5509   3.344   4.664   2.346
 1370SOL    HW2 5510   3.356   4.660   2.441
 1370SOL    HW3 5511   3.426   4.701   2.313
 1370SOL    MW4 5512   3.357   4.668   2.354
 1371SOL     OW 5513   3.095   0.110   2.241
 1371SOL    HW2 5514   3.075   0.197   2.275
 1371SOL    HW3 5515   3.172   0.082   2.290
 1371SOL    MW4 5516   3.102   0.118   2.252
 1372SOL     OW 5517   3.084   0.371   2.325
 1372SOL    HW2 5518   3.156   0.432   2.310
 1372SOL    HW3 5519   3.008   0.413   2.285
 1372SOL    MW4 5520   3.084   0.385   2.318
 1373SOL     OW 5521   3.298   0.546   2.303
 1373SOL    HW2 5522   3.370   0.501   2.348
 1373SOL    HW3 5523   3.313   0.528   2.210
 1373SOL    MW4 5524   3.310   0.538   2.297
 1374SOL     OW 5525   3.351   0.789   2.389
 1374SOL    HW2 5526   3.426   0.816   2.336
 1374SOL    HW3 5527   3.323   0.706   2.350
 1374SOL    MW4 5528   3.357   0.782   2.377
 1375SOL     OW 5529   3.151   0.927   2.288
 1375SOL    HW2 5530   3.220   0.879   2.333
 1375SOL    HW3 5531   3.072   0.873   2.300
 1375SOL    MW4 5532   3.149   0.913   2.295
 1376SOL     OW 5533   3.129   1.195   2.354
 1376SOL    HW2 5534   3.207   1.228   2.311
 1376SOL    HW3 5535   3.127   1.102   2.333
 1376SOL    MW4 5536   3.139   1.187   2.346
 1377SOL     OW 5537   3.377   1.328   2.271
 1377SOL    HW2 5538   3.438   1.267   2.311
 1377SOL    HW3 5539   3.386   1.408   2.323
 1377SOL    MW4 5540   3.386   1.331   2.283
 1378SOL     OW 5541   3.403   1.592   2.368
 1378SOL    HW2 5542   3.400   1.576   2.462
 1378SOL    HW3 5543   3.314   1.621   2.345
 1378SOL    MW4 5544   3.391   1.594   2.377
 1379SOL     OW 5545   3.157   1.727   2.261
 1379SOL    HW2 5546   3.154   1.807   2.314
 1379SOL    HW3 5547   3.074   1.683   2.279
 1379SOL    MW4 5548   3.146   1.732   2.270
 1380SOL     OW 5549   3.164   1.990   2.370
 1380SOL    HW2 5550   3.158   1.991   2.466
 1380SOL    HW3 5551   3.246   2.034   2.351
 1380SOL    MW4 5552   3.174   1.996   2.380
 1381SOL     OW 5553   3.351   2.103   2.207
 1381SOL    HW2 5554   3.438   2.071   2.233
 1381SOL    HW3 5555   3.341   2.074   2.116
 1381SOL    MW4 5556   3.362   2.095   2.198
 1382SOL     OW 5557   3.325   2.358   2.331
 1382SOL    HW2 5558   3.259   2.417   2.294
 1382SOL    HW3 5559   3.309   2.274   2.289
 1382SOL    MW4 5560   3.314   2.355   2.321
 1383SOL     OW 5561   3.116   2.525   2.257
 1383SOL    HW2 5562   3.114   2.607   2.306
 1383SOL    HW3 5563   3.046   2.472   2.295
 1383SOL    MW4 5564   3.107   2.529   2.268
 1384SOL     OW 5565   3.115   2.788   2.351
 1384SOL    HW2 5566   3.083   2.776   2.440
 1384SOL    HW3 5567   3.037   2.813   2.301
 1384SOL    MW4 5568   3.100   2.790   2.356
 1385SOL     OW 5569   3.378   2.825   2.260
 1385SOL    HW2 5570   3.387   2.918   2.282
 1385SOL    HW3 5571   3.289   2.803   2.286
 1385SOL    MW4 5572   3.367   2.834   2.266
 1386SOL     OW 5573   3.378   3.095   2.355
 1386SOL    HW2 5574   3.445   3.147   2.309
 1386SOL    HW3 5575   3.295   3.122   2.314
 1386SOL    MW4 5576   3.376   3.106   2.344
 1387SOL     OW 5577   3.142   3.194   2.260
 1387SOL    HW2 5578   3.144   3.288   2.279
 1387SOL    HW3 5579   3.122   3.189   2.167
 1387SOL    MW4 5580   3.139   3.206   2.250
 1388SOL     OW 5581   3.158   3.473   2.326
 1388SOL    HW2 5582   3.144   3.476   2.421
 1388SOL    HW3 5583   3.228   3.536   2.310
 1388SOL    MW4 5584   3.165   3.482   2.337
 1389SOL     OW 5585   3.385   3.621   2.255
 1389SOL    HW2 5586   3.465   3.577   2.282
 1389SOL    HW3 5587   3.378   3.601   2.161
 1389SOL    MW4 5588   3.394   3.612   2.246
 1390SOL     OW 5589   3.397   3.875   2.368
 1390SOL    HW2 5590   3.473   3.928   2.343
 1390SOL    HW3 5591   3.408   3.793   2.321
 1390SOL    MW4 5592   3.408   3.871   2.359
 1391SOL     OW 5593   3.173   3.986   2.254
 1391SOL    HW2 5594   3.242   3.937   2.299
 1391SOL    HW3 5595   3.093   3.937   2.272
 1391SOL    MW4 5596   3.172   3.973   2.262
 1392SOL     OW 5597   3.156   4.248   2.360
 1392SOL    HW2 5598   3.225   4.298   2.316
 1392SOL    HW3 5599   3.174   4.157   2.336
 1392SOL    MW4 5600   3.168   4.243   2.351
 1393SOL     OW 5601   3.357   4.384   2.240
 1393SOL    HW2 5602   3.355   4.477   2.264
 1393SOL    HW3 5603   3.347   4.384   2.144
 1393SOL    MW4 5604   3.356   4.396   2.230
 1394SOL     OW 5605   3.777   4.654   2.370
 1394SOL    HW2 5606   3.785   4.652   2.466
 1394SOL    HW3 5607   3.856   4.699   2.340
 1394SOL    MW4 5608   3.788   4.660   2.379
 1395SOL     OW 5609   3.570   0.128   2.265
 1395SOL    HW2 5610   3.567   0.203   2.325
 1395SOL    HW3 5611   3.639   0.072   2.301
 1395SOL    MW4 5612   3.579   0.131   2.278
 1396SOL     OW 5613   3.532   0.364   2.374
 1396SOL    HW2 5614   3.534   0.359   2.470
 1396SOL    HW3 5615   3.608   0.417   2.351
 1396SOL    MW4 5616   3.542   0.370   2.384
 1397SOL     OW 5617   3.743   0.498   2.267
 1397SOL    HW2 5618   3.766   0.578   2.314
 1397SOL    HW3 5619   3.758   0.520   2.175
 1397SOL    MW4 5620   3.748   0.512   2.261
 1398SOL     OW 5621   3.801   0.755   2.371
 1398SOL    HW2 5622   3.804   0.762   2.467
 1398SOL    HW3 5623   3.878   0.803   2.341
 1398SOL    MW4 5624   3.811   0.762   2.380
 1399SOL     OW 5625   3.573   0.893   2.267
 1399SOL    HW2 5626   3.643   0.849   2.315
 1399SOL    HW3 5627   3.597   0.882   2.175
 1399SOL    MW4 5628   3.586   0.885   2.261
 1400SOL     OW 5629   3.566   1.159   2.363
 1400SOL    HW2 5630   3.572   1.151   2.458
 1400SOL    HW3 5631   3.566   1.069   2.332
 1400SOL    MW4 5632   3.567   1.146   2.372
 1401SOL     OW 5633   3.811   1.260   2.257
 1401SOL    HW2 5634   3.802   1.354   2.272
 1401SOL    HW3 5635   3.731   1.222   2.293
 1401SOL    MW4 5636   3.800   1.268   2.264
 1402SOL     OW 5637   3.784   1.524   2.344
 1402SOL    HW2 5638   3.768   1.513   2.438
 1402SOL    HW3 5639   3.723   1.592   2.317
 1402SOL    MW4 5640   3.774   1.531   2.353
 1403SOL     OW 5641   3.611   1.692   2.216
 1403SOL    HW2 5642   3.532   1.660   2.260
 1403SOL    HW3 5643   3.586   1.702   2.124
 1403SOL    MW4 5644   3.598   1.689   2.209
 1404SOL     OW 5645   3.594   1.959   2.287
 1404SOL    HW2 5646   3.683   1.990   2.274
 1404SOL    HW3 5647   3.599   1.864   2.274
 1404SOL    MW4 5648   3.606   1.950   2.284
 1405SOL     OW 5649   3.835   2.074   2.195
 1405SOL    HW2 5650   3.917   2.028   2.215
 1405SOL    HW3 5651   3.821   2.058   2.102
 1405SOL    MW4 5652   3.844   2.065   2.185
 1406SOL     OW 5653   3.825   2.328   2.321
 1406SOL    HW2 5654   3.739   2.361   2.295
 1406SOL    HW3 5655   3.829   2.240   2.282
 1406SOL    MW4 5656   3.814   2.321   2.313
 1407SOL     OW 5657   3.585   2.440   2.252
 1407SOL    HW2 5658   3.501   2.397   2.271
 1407SOL    HW3 5659   3.589   2.442   2.156
 1407SOL    MW4 5660   3.574   2.434   2.242
 1408SOL     OW 5661   3.595   2.682   2.367
 1408SOL    HW2 5662   3.592   2.599   2.319
 1408SOL    HW3 5663   3.518   2.730   2.336
 1408SOL    MW4 5664   3.584   2.677   2.356
 1409SOL     OW 5665   3.796   2.814   2.220
 1409SOL    HW2 5666   3.782   2.901   2.258
 1409SOL    HW3 5667   3.721   2.763   2.250
 1409SOL    MW4 5668   3.784   2.819   2.229
 1410SOL     OW 5669   3.785   3.066   2.339
 1410SOL    HW2 5670   3.803   3.050   2.432
 1410SOL    HW3 5671   3.868   3.102   2.305
 1410SOL    MW4 5672   3.799   3.069   2.347
 1411SOL     OW 5673   3.579   3.227   2.230
 1411SOL    HW2 5674   3.585   3.319   2.257
 1411SOL    HW3 5675   3.642   3.181   2.285
 1411SOL    MW4 5676   3.588   3.233   2.241
 1412SOL     OW 5677   3.594   3.488   2.334
 1412SOL    HW2 5678   3.595   3.493   2.430
 1412SOL    HW3 5679   3.665   3.546   2.306
 1412SOL    MW4 5680   3.604   3.497   2.343
 1413SOL     OW 5681   3.846   3.639   2.290
 1413SOL    HW2 5682   3.839   3.733   2.308
 1413SOL    HW3 5683   3.850   3.632   2.195
 1413SOL    MW4 5684   3.845   3.650   2.280
 1414SOL     OW 5685   3.832   3.922   2.320
 1414SOL    HW2 5686   3.833   3.924   2.416
 1414SOL    HW3 5687   3.924   3.935   2.295
 1414SOL    MW4 5688   3.844   3.924   2.330
 1415SOL     OW 5689   3.599   4.052   2.268
 1415SOL    HW2 5690   3.589   4.132   2.319
 1415SOL    HW3 5691   3.679   4.011   2.301
 1415SOL    MW4 5692   3.608   4.057   2.279
 1416SOL     OW 5693   3.579   4.287   2.399
 1416SOL    HW2 5694   3.645   4.324   2.340
 1416SOL    HW3 5695   3.496   4.317   2.363
 1416SOL    MW4 5696   3.577   4.296   2.386
 1417SOL     OW 5697   3.813   4.374   2.270
 1417SOL    HW2 5698   3.894   4.331   2.298
 1417SOL    HW3 5699   3.815   4.459   2.315
 1417SOL    MW4 5700   3.824   4.380   2.280
 1418SOL     OW 5701   4.235   4.658   2.349
 1418SOL    HW2 5702   4.252   4.657   2.443
 1418SOL    HW3 5703   4.320   4.676   2.310
 1418SOL    MW4 5704   4.248   4.660   2.356
 1419SOL     OW 5705   4.001   0.124   2.257
 1419SOL    HW2 5706   4.016   0.215   2.282
 1419SOL    HW3 5707   4.083   0.079   2.281
 1419SOL    MW4 5708   4.014   0.130   2.263
 1420SOL     OW 5709   4.020   0.389   2.315
 1420SOL    HW2 5710   4.069   0.465   2.284
 1420SOL    HW3 5711   3.929   0.419   2.320
 1420SOL    MW4 5712   4.014   0.403   2.311
 1421SOL     OW 5713   4.253   0.558   2.242
 1421SOL    HW2 5714   4.261   0.644   2.283
 1421SOL    HW3 5715   4.310   0.501   2.294
 1421SOL    MW4 5716   4.262   0.562   2.254
 1422SOL     OW 5717   4.280   0.801   2.393
 1422SOL    HW2 5718   4.207   0.850   2.354
 1422SOL    HW3 5719   4.358   0.841   2.355
 1422SOL    MW4 5720   4.280   0.813   2.383
 1423SOL     OW 5721   4.030   0.881   2.254
 1423SOL    HW2 5722   4.035   0.972   2.281
 1423SOL    HW3 5723   4.043   0.882   2.159
 1423SOL    MW4 5724   4.033   0.893   2.245
 1424SOL     OW 5725   4.078   1.141   2.336
 1424SOL    HW2 5726   4.067   1.158   2.430
 1424SOL    HW3 5727   4.000   1.178   2.295
 1424SOL    MW4 5728   4.067   1.148   2.343
 1425SOL     OW 5729   4.318   1.270   2.275
 1425SOL    HW2 5730   4.252   1.208   2.307
 1425SOL    HW3 5731   4.401   1.233   2.304
 1425SOL    MW4 5732   4.320   1.257   2.283
 1426SOL     OW 5733   4.266   1.576   2.348
 1426SOL    HW2 5734   4.264   1.482   2.330
 1426SOL    HW3 5735   4.349   1.607   2.311
 1426SOL    MW4 5736   4.277   1.568   2.341
 1427SOL     OW 5737   4.021   1.650   2.230
 1427SOL    HW2 5738   4.105   1.611   2.254
 1427SOL    HW3 5739   3.958   1.609   2.289
 1427SOL    MW4 5740   4.024   1.640   2.241
 1428SOL     OW 5741   4.061   1.931   2.300
 1428SOL    HW2 5742   4.031   1.930   2.391
 1428SOL    HW3 5743   4.067   1.839   2.276
 1428SOL    MW4 5744   4.057   1.919   2.309
 1429SOL     OW 5745   4.273   2.077   2.188
 1429SOL    HW2 5746   4.266   2.160   2.233
 1429SOL    HW3 5747   4.205   2.022   2.227
 1429SOL    MW4 5748   4.263   2.080   2.199
 1430SOL     OW 5749   4.260   2.306   2.348
 1430SOL    HW2 5750   4.182   2.359   2.328
 1430SOL    HW3 5751   4.332   2.352   2.305
 1430SOL    MW4 5752   4.259   2.319   2.340
 1431SOL     OW 5753   4.058   2.482   2.274
 1431SOL    HW2 5754   4.055   2.568   2.317
 1431SOL    HW3 5755   3.967   2.451   2.277
 1431SOL    MW4 5756   4.045   2.489   2.280
 1432SOL     OW 5757   4.034   2.729   2.369
 1432SOL    HW2 5758   4.014   2.725   2.463
 1432SOL    HW3 5759   3.952   2.758   2.328
 1432SOL    MW4 5760   4.021   2.732   2.376
 1433SOL     OW 5761   4.233   2.823   2.216
 1433SOL    HW2 5762   4.175   2.795   2.286
 1433SOL    HW3 5763   4.319   2.791   2.241
 1433SOL    MW4 5764   4.236   2.815   2.228
 1434SOL     OW 5765   4.262   3.084   2.310
 1434SOL    HW2 5766   4.259   2.997   2.270
 1434SOL    HW3 5767   4.337   3.126   2.268
 1434SOL    MW4 5768   4.272   3.078   2.299
 1435SOL     OW 5769   4.021   3.185   2.241
 1435SOL    HW2 5770   4.027   3.270   2.285
 1435SOL    HW3 5771   4.102   3.141   2.264
 1435SOL    MW4 5772   4.032   3.190   2.250
 1436SOL     OW 5773   4.029   3.448   2.341
 1436SOL    HW2 5774   4.106   3.497   2.310
 1436SOL    HW3 5775   3.955   3.505   2.321
 1436SOL    MW4 5776   4.029   3.462   2.334
 1437SOL     OW 5777   4.242   3.565   2.234
 1437SOL    HW2 5778   4.257   3.648   2.279
 1437SOL    HW3 5779   4.251   3.585   2.141
 1437SOL    MW4 5780   4.245   3.578   2.228
 1438SOL     OW 5781   4.315   3.808   2.353
 1438SOL    HW2 5782   4.308   3.837   2.444
 1438SOL    HW3 5783   4.397   3.847   2.322
 1438SOL    MW4 5784   4.325   3.817   2.361
 1439SOL     OW 5785   4.082   3.967   2.251
 1439SOL    HW2 5786   4.170   3.932   2.267
 1439SOL    HW3 5787   4.090   4.015   2.168
 1439SOL    MW4 5788   4.095   3.968   2.242
 1440SOL     OW 5789   4.032   4.241   2.375
 1440SOL    HW2 5790   4.096   4.285   2.319
 1440SOL    HW3 5791   4.027   4.152   2.340
 1440SOL    MW4 5792   4.040   4.235   2.363
 1441SOL     OW 5793   4.217   4.374   2.243
 1441SOL    HW2 5794   4.200   4.459   2.284
 1441SOL    HW3 5795   4.296   4.342   2.286
 1441SOL    MW4 5796   4.225   4.381   2.254
 1442SOL     OW 5797   0.208   4.659   2.628
 1442SOL    HW2 5798   0.210   4.567   2.655
 1442SOL    HW3 5799   0.124   4.691   2.659
 1442SOL    MW4 5800   0.197   4.651   2.636
 1443SOL     OW 5801   4.476   0.108   2.737
 1443SOL    HW2 5802   4.488   0.112   2.832
 1443SOL    HW3 5803   4.461   0.199   2.712
 1443SOL    MW4 5804   4.475   0.121   2.746
 1444SOL     OW 5805   4.445   0.356   2.641
 1444SOL    HW2 5806   4.515   0.417   2.665
 1444SOL    HW3 5807   4.434   0.368   2.546
 1444SOL    MW4 5808   4.453   0.366   2.632
 1445SOL     OW 5809   0.155   0.534   2.679
 1445SOL    HW2 5810   0.147   0.523   2.774
 1445SOL    HW3 5811   0.238   0.493   2.657
 1445SOL    MW4 5812   0.165   0.527   2.689
 1446SOL     OW 5813   0.185   0.794   2.612
 1446SOL    HW2 5814   0.276   0.823   2.619
 1446SOL    HW3 5815   0.187   0.702   2.638
 1446SOL    MW4 5816   0.198   0.786   2.616
 1447SOL     OW 5817   4.473   0.920   2.741
 1447SOL    HW2 5818   4.391   0.872   2.729
 1447SOL    HW3 5819   4.540   0.865   2.702
 1447SOL    MW4 5820   4.471   0.907   2.734
 1448SOL     OW 5821   0.004   1.167   2.631
 1448SOL    HW2 5822   0.092   1.198   2.654
 1448SOL    HW3 5823  -0.005   1.083   2.676
 1448SOL    MW4 5824   0.014   1.160   2.640
 1449SOL     OW 5825   0.230   1.277   2.699
 1449SOL    HW2 5826   0.312   1.233   2.680
 1449SOL    HW3 5827   0.231   1.355   2.643
 1449SOL    MW4 5828   0.241   1.282   2.689
 1450SOL     OW 5829   0.233   1.533   2.569
 1450SOL    HW2 5830   0.307   1.580   2.606
 1450SOL    HW3 5831   0.156   1.574   2.607
 1450SOL    MW4 5832   0.233   1.545   2.579
 1451SOL     OW 5833   0.017   1.639   2.701
 1451SOL    HW2 5834   0.005   1.629   2.796
 1451SOL    HW3 5835  -0.012   1.729   2.684
 1451SOL    MW4 5836   0.012   1.650   2.711
 1452SOL     OW 5837   4.423   1.892   2.621
 1452SOL    HW2 5838   4.493   1.940   2.665
 1452SOL    HW3 5839   4.443   1.900   2.528
 1452SOL    MW4 5840   4.435   1.899   2.614
 1453SOL     OW 5841   0.171   2.042   2.700
 1453SOL    HW2 5842   0.248   2.000   2.663
 1453SOL    HW3 5843   0.172   2.130   2.662
 1453SOL    MW4 5844   0.181   2.048   2.690
 1454SOL     OW 5845   0.144   2.305   2.606
 1454SOL    HW2 5846   0.221   2.362   2.611
 1454SOL    HW3 5847   0.072   2.360   2.636
 1454SOL    MW4 5848   0.144   2.320   2.611
 1455SOL     OW 5849   4.433   2.453   2.705
 1455SOL    HW2 5850   4.433   2.465   2.799
 1455SOL    HW3 5851   4.358   2.396   2.688
 1455SOL    MW4 5852   4.423   2.447   2.715
 1456SOL     OW 5853   4.431   2.721   2.614
 1456SOL    HW2 5854   4.371   2.777   2.664
 1456SOL    HW3 5855   4.420   2.634   2.653
 1456SOL    MW4 5856   4.422   2.717   2.626
 1457SOL     OW 5857   0.192   2.838   2.682
 1457SOL    HW2 5858   0.185   2.926   2.645
 1457SOL    HW3 5859   0.105   2.799   2.669
 1457SOL    MW4 5860   0.179   2.844   2.675
 1458SOL     OW 5861   0.195   3.112   2.612
 1458SOL    HW2 5862   0.282   3.142   2.637
 1458SOL    HW3 5863   0.200   3.098   2.518
 1458SOL    MW4 5864   0.207   3.114   2.603
 1459SOL     OW 5865   4.478   3.245   2.736
 1459SOL    HW2 5866   4.407   3.192   2.700
 1459SOL    HW3 5867   4.558   3.202   2.704
 1459SOL    MW4 5868   4.479   3.232   2.727
 1460SOL     OW 5869   4.480   3.471   2.589
 1460SOL    HW2 5870   4.554   3.519   2.627
 1460SOL    HW3 5871   4.459   3.404   2.654
 1460SOL    MW4 5872   4.487   3.468   2.602
 1461SOL     OW 5873   0.201   3.595   2.709
 1461SOL    HW2 5874   0.222   3.617   2.800
 1461SOL    HW3 5875   0.276   3.544   2.679
 1461SOL    MW4 5876   0.214   3.591   2.717
 1462SOL     OW 5877   0.226   3.848   2.594
 1462SOL    HW2 5878   0.218   3.758   2.626
 1462SOL    HW3 5879   0.217   3.840   2.499
 1462SOL    MW4 5880   0.224   3.835   2.585
 1463SOL     OW 5881   0.048   4.020   2.730
 1463SOL    HW2 5882   0.037   4.108   2.694
 1463SOL    HW3 5883   0.101   3.974   2.664
 1463SOL    MW4 5884   0.053   4.025   2.716
 1464SOL     OW 5885   0.015   4.257   2.600
 1464SOL    HW2 5886  -0.056   4.303   2.646
 1464SOL    HW3 5887   0.095   4.288   2.642
 1464SOL    MW4 5888   0.016   4.268   2.611
 1465SOL     OW 5889   0.225   4.399   2.713
 1465SOL    HW2 5890   0.229   4.431   2.804
 1465SOL    HW3 5891   0.313   4.365   2.696
 1465SOL    MW4 5892   0.237   4.399   2.723
 1466SOL     OW 5893   0.638   0.031   2.629
 1466SOL    HW2 5894   0.718   0.048   2.678
 1466SOL    HW3 5895   0.569   0.076   2.678
 1466SOL    MW4 5896   0.639   0.039   2.642
 1467SOL     OW 5897   0.433   0.138   2.755
 1467SOL    HW2 5898   0.414   0.134   2.849
 1467SOL    HW3 5899   0.368   0.079   2.715
 1467SOL    MW4 5900   0.422   0.130   2.763
 1468SOL     OW 5901   0.397   0.396   2.633
 1468SOL    HW2 5902   0.483   0.433   2.653
 1468SOL    HW3 5903   0.399   0.308   2.673
 1468SOL    MW4 5904   0.409   0.389   2.641
 1469SOL     OW 5905   0.652   0.496   2.663
 1469SOL    HW2 5906   0.650   0.494   2.759
 1469SOL    HW3 5907   0.734   0.454   2.640
 1469SOL    MW4 5908   0.662   0.490   2.673
 1470SOL     OW 5909   0.666   0.772   2.561
 1470SOL    HW2 5910   0.746   0.816   2.589
 1470SOL    HW3 5911   0.672   0.684   2.598
 1470SOL    MW4 5912   0.677   0.766   2.570
 1471SOL     OW 5913   0.430   0.886   2.665
 1471SOL    HW2 5914   0.442   0.981   2.674
 1471SOL    HW3 5915   0.518   0.852   2.650
 1471SOL    MW4 5916   0.444   0.894   2.664
 1472SOL     OW 5917   0.480   1.151   2.626
 1472SOL    HW2 5918   0.552   1.203   2.662
 1472SOL    HW3 5919   0.490   1.157   2.531
 1472SOL    MW4 5920   0.491   1.158   2.619
 1473SOL     OW 5921   0.701   1.316   2.743
 1473SOL    HW2 5922   0.670   1.312   2.833
 1473SOL    HW3 5923   0.782   1.264   2.743
 1473SOL    MW4 5924   0.708   1.308   2.755
 1474SOL     OW 5925   0.677   1.543   2.599
 1474SOL    HW2 5926   0.585   1.567   2.611
 1474SOL    HW3 5927   0.689   1.464   2.652
 1474SOL    MW4 5928   0.666   1.536   2.608
 1475SOL     OW 5929   0.442   1.677   2.657
 1475SOL    HW2 5930   0.462   1.692   2.750
 1475SOL    HW3 5931   0.430   1.765   2.621
 1475SOL    MW4 5932   0.443   1.691   2.665
 1476SOL     OW 5933   0.394   1.933   2.591
 1476SOL    HW2 5934   0.470   1.970   2.638
 1476SOL    HW3 5935   0.423   1.928   2.500
 1476SOL    MW4 5936   0.408   1.938   2.585
 1477SOL     OW 5937   0.635   2.043   2.685
 1477SOL    HW2 5938   0.640   2.046   2.781
 1477SOL    HW3 5939   0.719   2.005   2.658
 1477SOL    MW4 5940   0.647   2.039   2.694
 1478SOL     OW 5941   0.637   2.313   2.644
 1478SOL    HW2 5942   0.714   2.348   2.688
 1478SOL    HW3 5943   0.639   2.219   2.661
 1478SOL    MW4 5944   0.647   2.305   2.652
 1479SOL     OW 5945   0.392   2.444   2.721
 1479SOL    HW2 5946   0.404   2.527   2.675
 1479SOL    HW3 5947   0.476   2.400   2.713
 1479SOL    MW4 5948   0.404   2.449   2.714
 1480SOL     OW 5949   0.403   2.686   2.582
 1480SOL    HW2 5950   0.486   2.718   2.619
 1480SOL    HW3 5951   0.338   2.749   2.613
 1480SOL    MW4 5952   0.406   2.699   2.591
 1481SOL     OW 5953   0.652   2.778   2.678
 1481SOL    HW2 5954   0.670   2.793   2.771
 1481SOL    HW3 5955   0.669   2.863   2.637
 1481SOL    MW4 5956   0.656   2.791   2.685
 1482SOL     OW 5957   0.720   3.047   2.611
 1482SOL    HW2 5958   0.796   3.088   2.651
 1482SOL    HW3 5959   0.730   3.063   2.517
 1482SOL    MW4 5960   0.731   3.054   2.604
 1483SOL     OW 5961   0.476   3.184   2.684
 1483SOL    HW2 5962   0.481   3.183   2.779
 1483SOL    HW3 5963   0.552   3.132   2.656
 1483SOL    MW4 5964   0.487   3.177   2.692
 1484SOL     OW 5965   0.410   3.438   2.611
 1484SOL    HW2 5966   0.439   3.350   2.637
 1484SOL    HW3 5967   0.406   3.434   2.515
 1484SOL    MW4 5968   0.414   3.426   2.602
 1485SOL     OW 5969   0.651   3.610   2.677
 1485SOL    HW2 5970   0.660   3.616   2.772
 1485SOL    HW3 5971   0.567   3.566   2.664
 1485SOL    MW4 5972   0.641   3.605   2.688
 1486SOL     OW 5973   0.653   3.895   2.634
 1486SOL    HW2 5974   0.587   3.928   2.695
 1486SOL    HW3 5975   0.655   3.800   2.652
 1486SOL    MW4 5976   0.645   3.887   2.644
 1487SOL     OW 5977   0.434   4.012   2.728
 1487SOL    HW2 5978   0.443   4.094   2.678
 1487SOL    HW3 5979   0.362   3.966   2.685
 1487SOL    MW4 5980   0.426   4.017   2.716
 1488SOL     OW 5981   0.465   4.281   2.605
 1488SOL    HW2 5982   0.542   4.322   2.646
 1488SOL    HW3 5983   0.476   4.299   2.512
 1488SOL    MW4 5984   0.477   4.289   2.598
 1489SOL     OW 5985   0.645   4.435   2.713
 1489SOL    HW2 5986   0.735   4.420   2.686
 1489SOL    HW3 5987   0.624   4.523   2.680
 1489SOL    MW4 5988   0.654   4.445   2.705
 1490SOL     OW 5989   1.146   4.633   2.619
 1490SOL    HW2 5990   1.204   4.701   2.656
 1490SOL    HW3 5991   1.166   4.554   2.669
 1490SOL    MW4 5992   1.157   4.632   2.630
 1491SOL     OW 5993   0.909   0.113   2.708
 1491SOL    HW2 5994   0.909   0.125   2.803
 1491SOL    HW3 5995   0.984   0.056   2.691
 1491SOL    MW4 5996   0.919   0.107   2.718
 1492SOL     OW 5997   0.905   0.371   2.609
 1492SOL    HW2 5998   0.907   0.278   2.631
 1492SOL    HW3 5999   0.922   0.374   2.514
 1492SOL    MW4 6000   0.907   0.359   2.599
 1493SOL     OW 6001   1.128   0.486   2.723
 1493SOL    HW2 6002   1.125   0.573   2.685
 1493SOL    HW3 6003   1.050   0.442   2.690
 1493SOL    MW4 6004   1.117   0.491   2.714
 1494SOL     OW 6005   1.115   0.725   2.591
 1494SOL    HW2 6006   1.186   0.776   2.629
 1494SOL    HW3 6007   1.116   0.747   2.498
 1494SOL    MW4 6008   1.124   0.734   2.584
 1495SOL     OW 6009   0.875   0.893   2.679
 1495SOL    HW2 6010   0.888   0.880   2.773
 1495SOL    HW3 6011   0.958   0.866   2.640
 1495SOL    MW4 6012   0.888   0.888   2.687
 1496SOL     OW 6013   0.911   1.163   2.623
 1496SOL    HW2 6014   0.899   1.073   2.653
 1496SOL    HW3 6015   0.893   1.159   2.529
 1496SOL    MW4 6016   0.907   1.151   2.614
 1497SOL     OW 6017   1.144   1.246   2.701
 1497SOL    HW2 6018   1.141   1.339   2.676
 1497SOL    HW3 6019   1.055   1.214   2.687
 1497SOL    MW4 6020   1.132   1.254   2.696
 1498SOL     OW 6021   1.126   1.526   2.640
 1498SOL    HW2 6022   1.053   1.581   2.669
 1498SOL    HW3 6023   1.134   1.543   2.547
 1498SOL    MW4 6024   1.118   1.535   2.632
 1499SOL     OW 6025   0.912   1.672   2.684
 1499SOL    HW2 6026   0.897   1.667   2.778
 1499SOL    HW3 6027   0.832   1.637   2.645
 1499SOL    MW4 6028   0.900   1.667   2.691
 1500SOL     OW 6029   0.883   1.943   2.640
 1500SOL    HW2 6030   0.957   1.980   2.687
 1500SOL    HW3 6031   0.891   1.849   2.654
 1500SOL    MW4 6032   0.894   1.935   2.648
 1501SOL     OW 6033   1.126   2.026   2.760
 1501SOL    HW2 6034   1.191   1.975   2.711
 1501SOL    HW3 6035   1.130   2.114   2.722
 1501SOL    MW4 6036   1.135   2.031   2.748
 1502SOL     OW 6037   1.140   2.283   2.631
 1502SOL    HW2 6038   1.205   2.341   2.671
 1502SOL    HW3 6039   1.137   2.309   2.539
 1502SOL    MW4 6040   1.148   2.294   2.624
 1503SOL     OW 6041   0.901   2.416   2.745
 1503SOL    HW2 6042   0.907   2.501   2.702
 1503SOL    HW3 6043   0.973   2.365   2.707
 1503SOL    MW4 6044   0.911   2.420   2.734
 1504SOL     OW 6045   0.894   2.643   2.608
 1504SOL    HW2 6046   0.942   2.709   2.658
 1504SOL    HW3 6047   0.802   2.667   2.620
 1504SOL    MW4 6048   0.888   2.655   2.616
 1505SOL     OW 6049   1.083   2.832   2.680
 1505SOL    HW2 6050   1.106   2.825   2.772
 1505SOL    HW3 6051   1.159   2.795   2.634
 1505SOL    MW4 6052   1.096   2.826   2.686
 1506SOL     OW 6053   1.148   3.096   2.608
 1506SOL    HW2 6054   1.122   3.007   2.631
 1506SOL    HW3 6055   1.136   3.101   2.513
 1506SOL    MW4 6056   1.143   3.085   2.598
 1507SOL     OW 6057   0.919   3.208   2.708
 1507SOL    HW2 6058   0.903   3.286   2.655
 1507SOL    HW3 6059   1.006   3.179   2.680
 1507SOL    MW4 6060   0.928   3.215   2.697
 1508SOL     OW 6061   0.887   3.462   2.593
 1508SOL    HW2 6062   0.961   3.508   2.634
 1508SOL    HW3 6063   0.810   3.512   2.621
 1508SOL    MW4 6064   0.887   3.475   2.602
 1509SOL     OW 6065   1.102   3.599   2.724
 1509SOL    HW2 6066   1.101   3.626   2.816
 1509SOL    HW3 6067   1.100   3.681   2.675
 1509SOL    MW4 6068   1.102   3.613   2.730
 1510SOL     OW 6069   1.098   3.851   2.601
 1510SOL    HW2 6070   1.178   3.889   2.639
 1510SOL    HW3 6071   1.110   3.859   2.507
 1510SOL    MW4 6072   1.110   3.857   2.594
 1511SOL     OW 6073   0.893   4.008   2.711
 1511SOL    HW2 6074   0.958   3.963   2.656
 1511SOL    HW3 6075   0.809   3.970   2.683
 1511SOL    MW4 6076   0.890   3.997   2.700
 1512SOL     OW 6077   0.888   4.266   2.616
 1512SOL    HW2 6078   0.892   4.174   2.641
 1512SOL    HW3 6079   0.884   4.265   2.521
 1512SOL    MW4 6080   0.888   4.254   2.607
 1513SOL     OW 6081   1.144   4.351   2.716
 1513SOL    HW2 6082   1.137   4.378   2.807
 1513SOL    HW3 6083   1.055   4.327   2.691
 1513SOL    MW4 6084   1.131   4.351   2.725
 1514SOL     OW 6085   1.544   4.625   2.634
 1514SOL    HW2 6086   1.541   4.536   2.668
 1514SOL    HW3 6087   1.554   4.614   2.539
 1514SOL    MW4 6088   1.545   4.612   2.626
 1515SOL     OW 6089   1.350   0.127   2.738
 1515SOL    HW2 6090   1.348   0.199   2.675
 1515SOL    HW3 6091   1.420   0.069   2.706
 1515SOL    MW4 6092   1.359   0.129   2.725
 1516SOL     OW 6093   1.353   0.366   2.593
 1516SOL    HW2 6094   1.425   0.394   2.650
 1516SOL    HW3 6095   1.275   0.405   2.632
 1516SOL    MW4 6096   1.352   0.375   2.605
 1517SOL     OW 6097   1.554   0.478   2.753
 1517SOL    HW2 6098   1.627   0.431   2.711
 1517SOL    HW3 6099   1.544   0.558   2.702
 1517SOL    MW4 6100   1.562   0.482   2.741
 1518SOL     OW 6101   1.566   0.728   2.633
 1518SOL    HW2 6102   1.490   0.776   2.666
 1518SOL    HW3 6103   1.552   0.721   2.539
 1518SOL    MW4 6104   1.554   0.733   2.625
 1519SOL     OW 6105   1.328   0.855   2.744
 1519SOL    HW2 6106   1.338   0.886   2.835
 1519SOL    HW3 6107   1.332   0.935   2.691
 1519SOL    MW4 6108   1.330   0.870   2.749
 1520SOL     OW 6109   1.352   1.098   2.581
 1520SOL    HW2 6110   1.430   1.137   2.620
 1520SOL    HW3 6111   1.279   1.145   2.620
 1520SOL    MW4 6112   1.353   1.109   2.591
 1521SOL     OW 6113   1.576   1.191   2.689
 1521SOL    HW2 6114   1.585   1.221   2.780
 1521SOL    HW3 6115   1.663   1.158   2.667
 1521SOL    MW4 6116   1.589   1.191   2.698
 1522SOL     OW 6117   1.577   1.485   2.625
 1522SOL    HW2 6118   1.585   1.391   2.639
 1522SOL    HW3 6119   1.582   1.496   2.530
 1522SOL    MW4 6120   1.579   1.474   2.614
 1523SOL     OW 6121   1.365   1.633   2.719
 1523SOL    HW2 6122   1.424   1.561   2.697
 1523SOL    HW3 6123   1.278   1.601   2.695
 1523SOL    MW4 6124   1.361   1.619   2.713
 1524SOL     OW 6125   1.337   1.904   2.609
 1524SOL    HW2 6126   1.358   1.813   2.628
 1524SOL    HW3 6127   1.333   1.908   2.513
 1524SOL    MW4 6128   1.339   1.892   2.599
 1525SOL     OW 6129   1.542   2.045   2.745
 1525SOL    HW2 6130   1.622   2.011   2.706
 1525SOL    HW3 6131   1.472   2.001   2.697
 1525SOL    MW4 6132   1.543   2.035   2.734
 1526SOL     OW 6133   1.550   2.316   2.630
 1526SOL    HW2 6134   1.625   2.365   2.664
 1526SOL    HW3 6135   1.554   2.231   2.675
 1526SOL    MW4 6136   1.560   2.311   2.641
 1527SOL     OW 6137   1.339   2.490   2.713
 1527SOL    HW2 6138   1.345   2.567   2.656
 1527SOL    HW3 6139   1.413   2.435   2.687
 1527SOL    MW4 6140   1.349   2.493   2.702
 1528SOL     OW 6141   1.314   2.729   2.567
 1528SOL    HW2 6142   1.383   2.782   2.608
 1528SOL    HW3 6143   1.331   2.736   2.473
 1528SOL    MW4 6144   1.326   2.737   2.560
 1529SOL     OW 6145   1.567   2.819   2.694
 1529SOL    HW2 6146   1.569   2.819   2.790
 1529SOL    HW3 6147   1.649   2.777   2.668
 1529SOL    MW4 6148   1.578   2.814   2.703
 1530SOL     OW 6149   1.567   3.085   2.618
 1530SOL    HW2 6150   1.649   3.126   2.645
 1530SOL    HW3 6151   1.571   2.997   2.655
 1530SOL    MW4 6152   1.578   3.079   2.626
 1531SOL     OW 6153   1.347   3.219   2.729
 1531SOL    HW2 6154   1.428   3.174   2.704
 1531SOL    HW3 6155   1.279   3.177   2.676
 1531SOL    MW4 6156   1.349   3.207   2.719
 1532SOL     OW 6157   1.332   3.471   2.629
 1532SOL    HW2 6158   1.332   3.388   2.677
 1532SOL    HW3 6159   1.257   3.519   2.666
 1532SOL    MW4 6160   1.322   3.466   2.640
 1533SOL     OW 6161   1.552   3.617   2.733
 1533SOL    HW2 6162   1.625   3.574   2.690
 1533SOL    HW3 6163   1.474   3.576   2.695
 1533SOL    MW4 6164   1.551   3.606   2.722
 1534SOL     OW 6165   1.553   3.864   2.613
 1534SOL    HW2 6166   1.471   3.904   2.642
 1534SOL    HW3 6167   1.552   3.776   2.652
 1534SOL    MW4 6168   1.542   3.857   2.622
 1535SOL     OW 6169   1.317   3.975   2.695
 1535SOL    HW2 6170   1.305   4.007   2.784
 1535SOL    HW3 6171   1.327   4.055   2.642
 1535SOL    MW4 6172   1.317   3.990   2.700
 1536SOL     OW 6173   1.370   4.245   2.621
 1536SOL    HW2 6174   1.286   4.278   2.653
 1536SOL    HW3 6175   1.364   4.254   2.526
 1536SOL    MW4 6176   1.358   4.251   2.613
 1537SOL     OW 6177   1.573   4.368   2.751
 1537SOL    HW2 6178   1.547   4.397   2.839
 1537SOL    HW3 6179   1.497   4.321   2.718
 1537SOL    MW4 6180   1.560   4.365   2.758
 1538SOL     OW 6181   1.983   4.632   2.670
 1538SOL    HW2 6182   2.065   4.677   2.689
 1538SOL    HW3 6183   1.983   4.621   2.575
 1538SOL    MW4 6184   1.993   4.636   2.660
 1539SOL     OW 6185   1.757   0.109   2.763
 1539SOL    HW2 6186   1.836   0.068   2.729
 1539SOL    HW3 6187   1.685   0.065   2.717
 1539SOL    MW4 6188   1.758   0.098   2.753
 1540SOL     OW 6189   1.769   0.339   2.628
 1540SOL    HW2 6190   1.844   0.385   2.666
 1540SOL    HW3 6191   1.761   0.259   2.680
 1540SOL    MW4 6192   1.777   0.334   2.640
 1541SOL     OW 6193   1.980   0.478   2.744
 1541SOL    HW2 6194   2.046   0.420   2.705
 1541SOL    HW3 6195   2.003   0.565   2.713
 1541SOL    MW4 6196   1.992   0.482   2.735
 1542SOL     OW 6197   2.031   0.729   2.652
 1542SOL    HW2 6198   1.953   0.768   2.692
 1542SOL    HW3 6199   2.022   0.749   2.558
 1542SOL    MW4 6200   2.019   0.737   2.645
 1543SOL     OW 6201   1.797   0.844   2.761
 1543SOL    HW2 6202   1.800   0.924   2.709
 1543SOL    HW3 6203   1.717   0.799   2.733
 1543SOL    MW4 6204   1.787   0.848   2.751
 1544SOL     OW 6205   1.825   1.091   2.626
 1544SOL    HW2 6206   1.897   1.149   2.649
 1544SOL    HW3 6207   1.819   1.096   2.530
 1544SOL    MW4 6208   1.834   1.099   2.616
 1545SOL     OW 6209   1.995   1.300   2.721
 1545SOL    HW2 6210   1.990   1.281   2.814
 1545SOL    HW3 6211   2.087   1.287   2.699
 1545SOL    MW4 6212   2.006   1.295   2.730
 1546SOL     OW 6213   1.977   1.567   2.646
 1546SOL    HW2 6214   1.896   1.607   2.677
 1546SOL    HW3 6215   1.971   1.476   2.675
 1546SOL    MW4 6216   1.965   1.560   2.654
 1547SOL     OW 6217   1.730   1.684   2.707
 1547SOL    HW2 6218   1.743   1.682   2.802
 1547SOL    HW3 6219   1.671   1.610   2.689
 1547SOL    MW4 6220   1.724   1.674   2.717
 1548SOL     OW 6221   1.773   1.951   2.637
 1548SOL    HW2 6222   1.853   1.966   2.687
 1548SOL    HW3 6223   1.750   1.860   2.656
 1548SOL    MW4 6224   1.780   1.941   2.646
 1549SOL     OW 6225   1.997   2.035   2.765
 1549SOL    HW2 6226   1.990   2.036   2.861
 1549SOL    HW3 6227   2.010   2.126   2.741
 1549SOL    MW4 6228   1.998   2.047   2.775
 1550SOL     OW 6229   2.041   2.303   2.690
 1550SOL    HW2 6230   2.103   2.368   2.722
 1550SOL    HW3 6231   2.039   2.317   2.595
 1550SOL    MW4 6232   2.049   2.314   2.682
 1551SOL     OW 6233   1.800   2.410   2.726
 1551SOL    HW2 6234   1.804   2.431   2.820
 1551SOL    HW3 6235   1.888   2.381   2.703
 1551SOL    MW4 6236   1.812   2.409   2.735
 1552SOL     OW 6237   1.777   2.656   2.621
 1552SOL    HW2 6238   1.788   2.570   2.662
 1552SOL    HW3 6239   1.773   2.637   2.527
 1552SOL    MW4 6240   1.778   2.642   2.614
 1553SOL     OW 6241   1.988   2.824   2.743
 1553SOL    HW2 6242   2.071   2.782   2.721
 1553SOL    HW3 6243   1.922   2.772   2.698
 1553SOL    MW4 6244   1.990   2.812   2.734
 1554SOL     OW 6245   2.006   3.074   2.639
 1554SOL    HW2 6246   2.003   2.980   2.656
 1554SOL    HW3 6247   1.994   3.082   2.544
 1554SOL    MW4 6248   2.004   3.063   2.629
 1555SOL     OW 6249   1.785   3.226   2.721
 1555SOL    HW2 6250   1.771   3.311   2.680
 1555SOL    HW3 6251   1.862   3.190   2.676
 1555SOL    MW4 6252   1.794   3.232   2.710
 1556SOL     OW 6253   1.764   3.489   2.589
 1556SOL    HW2 6254   1.838   3.543   2.618
 1556SOL    HW3 6255   1.760   3.502   2.494
 1556SOL    MW4 6256   1.773   3.498   2.580
 1557SOL     OW 6257   1.996   3.623   2.664
 1557SOL    HW2 6258   1.994   3.615   2.759
 1557SOL    HW3 6259   2.056   3.553   2.635
 1557SOL    MW4 6260   2.004   3.612   2.672
 1558SOL     OW 6261   2.003   3.883   2.585
 1558SOL    HW2 6262   1.919   3.911   2.620
 1558SOL    HW3 6263   2.006   3.789   2.602
 1558SOL    MW4 6264   1.992   3.874   2.592
 1559SOL     OW 6265   1.777   3.963   2.730
 1559SOL    HW2 6266   1.764   4.055   2.708
 1559SOL    HW3 6267   1.697   3.920   2.701
 1559SOL    MW4 6268   1.765   3.970   2.724
 1560SOL     OW 6269   1.768   4.235   2.623
 1560SOL    HW2 6270   1.698   4.285   2.665
 1560SOL    HW3 6271   1.748   4.240   2.530
 1560SOL    MW4 6272   1.756   4.242   2.616
 1561SOL     OW 6273   1.999   4.365   2.752
 1561SOL    HW2 6274   1.920   4.330   2.711
 1561SOL    HW3 6275   2.006   4.455   2.719
 1561SOL    MW4 6276   1.990   4.372   2.742
 1562SOL     OW 6277   2.459   4.626   2.662
 1562SOL    HW2 6278   2.544   4.667   2.673
 1562SOL    HW3 6279   2.447   4.622   2.567
 1562SOL    MW4 6280   2.468   4.631   2.651
 1563SOL     OW 6281   2.220   0.085   2.736
 1563SOL    HW2 6282   2.223   0.097   2.831
 1563SOL    HW3 6283   2.296   0.031   2.716
 1563SOL    MW4 6284   2.230   0.079   2.746
 1564SOL     OW 6285   2.191   0.340   2.671
 1564SOL    HW2 6286   2.201   0.247   2.692
 1564SOL    HW3 6287   2.213   0.346   2.579
 1564SOL    MW4 6288   2.195   0.329   2.662
 1565SOL     OW 6289   2.432   0.482   2.715
 1565SOL    HW2 6290   2.435   0.574   2.689
 1565SOL    HW3 6291   2.344   0.453   2.688
 1565SOL    MW4 6292   2.421   0.490   2.708
 1566SOL     OW 6293   2.473   0.759   2.647
 1566SOL    HW2 6294   2.395   0.810   2.668
 1566SOL    HW3 6295   2.480   0.764   2.552
 1566SOL    MW4 6296   2.464   0.767   2.637
 1567SOL     OW 6297   2.235   0.901   2.753
 1567SOL    HW2 6298   2.249   0.879   2.845
 1567SOL    HW3 6299   2.158   0.850   2.727
 1567SOL    MW4 6300   2.227   0.892   2.762
 1568SOL     OW 6301   2.244   1.171   2.637
 1568SOL    HW2 6302   2.235   1.085   2.677
 1568SOL    HW3 6303   2.249   1.153   2.543
 1568SOL    MW4 6304   2.244   1.157   2.630
 1569SOL     OW 6305   2.460   1.297   2.753
 1569SOL    HW2 6306   2.534   1.244   2.721
 1569SOL    HW3 6307   2.382   1.247   2.728
 1569SOL    MW4 6308   2.459   1.283   2.746
 1570SOL     OW 6309   2.435   1.557   2.614
 1570SOL    HW2 6310   2.354   1.586   2.656
 1570SOL    HW3 6311   2.453   1.472   2.654
 1570SOL    MW4 6312   2.426   1.550   2.625
 1571SOL     OW 6313   2.214   1.674   2.768
 1571SOL    HW2 6314   2.207   1.769   2.761
 1571SOL    HW3 6315   2.129   1.641   2.741
 1571SOL    MW4 6316   2.202   1.682   2.764
 1572SOL     OW 6317   2.237   1.939   2.658
 1572SOL    HW2 6318   2.153   1.978   2.680
 1572SOL    HW3 6319   2.232   1.922   2.564
 1572SOL    MW4 6320   2.225   1.942   2.649
 1573SOL     OW 6321   2.457   2.048   2.764
 1573SOL    HW2 6322   2.440   2.137   2.734
 1573SOL    HW3 6323   2.376   2.001   2.746
 1573SOL    MW4 6324   2.444   2.054   2.758
 1574SOL     OW 6325   2.437   2.303   2.651
 1574SOL    HW2 6326   2.517   2.338   2.692
 1574SOL    HW3 6327   2.449   2.321   2.558
 1574SOL    MW4 6328   2.449   2.310   2.645
 1575SOL     OW 6329   2.254   2.490   2.741
 1575SOL    HW2 6330   2.254   2.482   2.837
 1575SOL    HW3 6331   2.332   2.442   2.713
 1575SOL    MW4 6332   2.264   2.483   2.750
 1576SOL     OW 6333   2.233   2.725   2.634
 1576SOL    HW2 6334   2.305   2.773   2.676
 1576SOL    HW3 6335   2.239   2.637   2.671
 1576SOL    MW4 6336   2.243   2.720   2.645
 1577SOL     OW 6337   2.451   2.862   2.734
 1577SOL    HW2 6338   2.526   2.812   2.703
 1577SOL    HW3 6339   2.466   2.950   2.699
 1577SOL    MW4 6340   2.463   2.867   2.726
 1578SOL     OW 6341   2.456   3.102   2.632
 1578SOL    HW2 6342   2.378   3.148   2.661
 1578SOL    HW3 6343   2.459   3.116   2.537
 1578SOL    MW4 6344   2.446   3.110   2.623
 1579SOL     OW 6345   2.226   3.218   2.710
 1579SOL    HW2 6346   2.227   3.229   2.805
 1579SOL    HW3 6347   2.159   3.150   2.694
 1579SOL    MW4 6348   2.217   3.210   2.720
 1580SOL     OW 6349   2.240   3.479   2.605
 1580SOL    HW2 6350   2.290   3.532   2.667
 1580SOL    HW3 6351   2.245   3.390   2.640
 1580SOL    MW4 6352   2.247   3.474   2.618
 1581SOL     OW 6353   2.437   3.621   2.735
 1581SOL    HW2 6354   2.435   3.628   2.831
 1581SOL    HW3 6355   2.456   3.710   2.705
 1581SOL    MW4 6356   2.439   3.633   2.744
 1582SOL     OW 6357   2.468   3.859   2.645
 1582SOL    HW2 6358   2.542   3.915   2.667
 1582SOL    HW3 6359   2.392   3.902   2.683
 1582SOL    MW4 6360   2.468   3.872   2.653
 1583SOL     OW 6361   2.222   3.998   2.705
 1583SOL    HW2 6362   2.215   3.982   2.799
 1583SOL    HW3 6363   2.140   3.964   2.669
 1583SOL    MW4 6364   2.210   3.991   2.713
 1584SOL     OW 6365   2.217   4.270   2.632
 1584SOL    HW2 6366   2.215   4.180   2.665
 1584SOL    HW3 6367   2.140   4.311   2.671
 1584SOL    MW4 6368   2.207   4.263   2.642
 1585SOL     OW 6369   2.485   4.365   2.700
 1585SOL    HW2 6370   2.399   4.341   2.667
 1585SOL    HW3 6371   2.489   4.460   2.690
 1585SOL    MW4 6372   2.474   4.374   2.694
 1586SOL     OW 6373   2.928   4.629   2.640
 1586SOL    HW2 6374   2.996   4.691   2.667
 1586SOL    HW3 6375   2.922   4.641   2.546
 1586SOL    MW4 6376   2.936   4.639   2.631
 1587SOL     OW 6377   2.698   0.090   2.707
 1587SOL    HW2 6378   2.689   0.089   2.802
 1587SOL    HW3 6379   2.776   0.038   2.690
 1587SOL    MW4 6380   2.707   0.083   2.718
 1588SOL     OW 6381   2.674   0.370   2.612
 1588SOL    HW2 6382   2.680   0.280   2.645
 1588SOL    HW3 6383   2.595   0.406   2.652
 1588SOL    MW4 6384   2.665   0.363   2.622
 1589SOL     OW 6385   2.910   0.491   2.695
 1589SOL    HW2 6386   2.913   0.577   2.652
 1589SOL    HW3 6387   2.834   0.448   2.658
 1589SOL    MW4 6388   2.901   0.497   2.685
 1590SOL     OW 6389   2.893   0.749   2.591
 1590SOL    HW2 6390   2.959   0.810   2.623
 1590SOL    HW3 6391   2.811   0.781   2.627
 1590SOL    MW4 6392   2.891   0.761   2.600
 1591SOL     OW 6393   2.697   0.884   2.742
 1591SOL    HW2 6394   2.686   0.880   2.837
 1591SOL    HW3 6395   2.621   0.837   2.707
 1591SOL    MW4 6396   2.685   0.877   2.750
 1592SOL     OW 6397   2.676   1.132   2.649
 1592SOL    HW2 6398   2.746   1.183   2.690
 1592SOL    HW3 6399   2.683   1.045   2.689
 1592SOL    MW4 6400   2.686   1.128   2.660
 1593SOL     OW 6401   2.914   1.266   2.742
 1593SOL    HW2 6402   2.914   1.273   2.837
 1593SOL    HW3 6403   3.000   1.230   2.721
 1593SOL    MW4 6404   2.926   1.262   2.752
 1594SOL     OW 6405   2.940   1.519   2.589
 1594SOL    HW2 6406   2.869   1.573   2.623
 1594SOL    HW3 6407   2.930   1.434   2.632
 1594SOL    MW4 6408   2.930   1.515   2.599
 1595SOL     OW 6409   2.697   1.652   2.687
 1595SOL    HW2 6410   2.697   1.645   2.782
 1595SOL    HW3 6411   2.610   1.620   2.660
 1595SOL    MW4 6412   2.685   1.647   2.696
 1596SOL     OW 6413   2.666   1.929   2.611
 1596SOL    HW2 6414   2.678   1.834   2.621
 1596SOL    HW3 6415   2.581   1.946   2.652
 1596SOL    MW4 6416   2.656   1.919   2.618
 1597SOL     OW 6417   2.876   2.061   2.730
 1597SOL    HW2 6418   2.879   2.142   2.679
 1597SOL    HW3 6419   2.794   2.018   2.703
 1597SOL    MW4 6420   2.866   2.066   2.719
 1598SOL     OW 6421   2.896   2.310   2.625
 1598SOL    HW2 6422   2.975   2.352   2.659
 1598SOL    HW3 6423   2.824   2.355   2.669
 1598SOL    MW4 6424   2.897   2.322   2.636
 1599SOL     OW 6425   2.656   2.457   2.725
 1599SOL    HW2 6426   2.658   2.479   2.818
 1599SOL    HW3 6427   2.657   2.541   2.681
 1599SOL    MW4 6428   2.656   2.471   2.732
 1600SOL     OW 6429   2.654   2.711   2.622
 1600SOL    HW2 6430   2.719   2.771   2.658
 1600SOL    HW3 6431   2.665   2.717   2.528
 1600SOL    MW4 6432   2.664   2.720   2.615
 1601SOL     OW 6433   2.864   2.875   2.735
 1601SOL    HW2 6434   2.883   2.862   2.827
 1601SOL    HW3 6435   2.890   2.966   2.718
 1601SOL    MW4 6436   2.870   2.885   2.745
 1602SOL     OW 6437   2.935   3.140   2.649
 1602SOL    HW2 6438   2.857   3.192   2.669
 1602SOL    HW3 6439   2.927   3.120   2.556
 1602SOL    MW4 6440   2.924   3.144   2.640
 1603SOL     OW 6441   2.691   3.240   2.738
 1603SOL    HW2 6442   2.689   3.335   2.728
 1603SOL    HW3 6443   2.605   3.211   2.706
 1603SOL    MW4 6444   2.679   3.249   2.732
 1604SOL     OW 6445   2.688   3.516   2.644
 1604SOL    HW2 6446   2.601   3.548   2.668
 1604SOL    HW3 6447   2.679   3.484   2.555
 1604SOL    MW4 6448   2.675   3.516   2.636
 1605SOL     OW 6449   2.933   3.610   2.760
 1605SOL    HW2 6450   2.928   3.622   2.855
 1605SOL    HW3 6451   2.842   3.597   2.733
 1605SOL    MW4 6452   2.920   3.609   2.769
 1606SOL     OW 6453   2.937   3.850   2.641
 1606SOL    HW2 6454   3.011   3.906   2.664
 1606SOL    HW3 6455   2.948   3.771   2.695
 1606SOL    MW4 6456   2.948   3.847   2.651
 1607SOL     OW 6457   2.711   3.963   2.732
 1607SOL    HW2 6458   2.719   4.058   2.718
 1607SOL    HW3 6459   2.785   3.925   2.684
 1607SOL    MW4 6460   2.722   3.971   2.724
 1608SOL     OW 6461   2.709   4.218   2.634
 1608SOL    HW2 6462   2.790   4.268   2.648
 1608SOL    HW3 6463   2.639   4.281   2.650
 1608SOL    MW4 6464   2.711   4.233   2.638
 1609SOL     OW 6465   2.939   4.360   2.711
 1609SOL    HW2 6466   2.912   4.360   2.802
 1609SOL    HW3 6467   2.942   4.453   2.687
 1609SOL    MW4 6468   2.936   4.372   2.720
 1610SOL     OW 6469   3.389   4.661   2.651
 1610SOL    HW2 6470   3.394   4.577   2.695
 1610SOL    HW3 6471   3.298   4.689   2.664
 1610SOL    MW4 6472   3.377   4.654   2.658
 1611SOL     OW 6473   3.143   0.124   2.686
 1611SOL    HW2 6474   3.141   0.140   2.780
 1611SOL    HW3 6475   3.139   0.210   2.646
 1611SOL    MW4 6476   3.142   0.137   2.693
 1612SOL     OW 6477   3.145   0.371   2.597
 1612SOL    HW2 6478   3.069   0.405   2.644
 1612SOL    HW3 6479   3.119   0.372   2.505
 1612SOL    MW4 6480   3.132   0.376   2.592
 1613SOL     OW 6481   3.368   0.493   2.709
 1613SOL    HW2 6482   3.357   0.587   2.693
 1613SOL    HW3 6483   3.293   0.452   2.666
 1613SOL    MW4 6484   3.356   0.500   2.701
 1614SOL     OW 6485   3.332   0.786   2.664
 1614SOL    HW2 6486   3.412   0.817   2.706
 1614SOL    HW3 6487   3.345   0.803   2.570
 1614SOL    MW4 6488   3.344   0.792   2.657
 1615SOL     OW 6489   3.086   0.917   2.691
 1615SOL    HW2 6490   3.083   0.920   2.787
 1615SOL    HW3 6491   3.168   0.873   2.671
 1615SOL    MW4 6492   3.096   0.911   2.701
 1616SOL     OW 6493   3.158   1.160   2.642
 1616SOL    HW2 6494   3.130   1.070   2.662
 1616SOL    HW3 6495   3.143   1.169   2.548
 1616SOL    MW4 6496   3.152   1.149   2.632
 1617SOL     OW 6497   3.386   1.291   2.763
 1617SOL    HW2 6498   3.394   1.279   2.857
 1617SOL    HW3 6499   3.314   1.232   2.737
 1617SOL    MW4 6500   3.377   1.282   2.772
 1618SOL     OW 6501   3.389   1.550   2.641
 1618SOL    HW2 6502   3.310   1.587   2.681
 1618SOL    HW3 6503   3.386   1.457   2.665
 1618SOL    MW4 6504   3.378   1.542   2.649
 1619SOL     OW 6505   3.126   1.681   2.726
 1619SOL    HW2 6506   3.115   1.770   2.692
 1619SOL    HW3 6507   3.060   1.629   2.678
 1619SOL    MW4 6508   3.116   1.686   2.715
 1620SOL     OW 6509   3.101   1.943   2.633
 1620SOL    HW2 6510   3.180   1.976   2.676
 1620SOL    HW3 6511   3.029   1.981   2.683
 1620SOL    MW4 6512   3.102   1.953   2.645
 1621SOL     OW 6513   3.334   2.080   2.734
 1621SOL    HW2 6514   3.344   2.080   2.830
 1621SOL    HW3 6515   3.345   2.172   2.709
 1621SOL    MW4 6516   3.337   2.092   2.744
 1622SOL     OW 6517   3.333   2.346   2.615
 1622SOL    HW2 6518   3.412   2.385   2.653
 1622SOL    HW3 6519   3.345   2.354   2.521
 1622SOL    MW4 6520   3.345   2.352   2.608
 1623SOL     OW 6521   3.110   2.472   2.699
 1623SOL    HW2 6522   3.112   2.560   2.662
 1623SOL    HW3 6523   3.193   2.432   2.671
 1623SOL    MW4 6524   3.121   2.478   2.690
 1624SOL     OW 6525   3.075   2.734   2.625
 1624SOL    HW2 6526   3.146   2.779   2.672
 1624SOL    HW3 6527   2.995   2.775   2.658
 1624SOL    MW4 6528   3.074   2.746   2.635
 1625SOL     OW 6529   3.316   2.849   2.702
 1625SOL    HW2 6530   3.322   2.879   2.793
 1625SOL    HW3 6531   3.388   2.787   2.692
 1625SOL    MW4 6532   3.326   2.845   2.713
 1626SOL     OW 6533   3.377   3.111   2.631
 1626SOL    HW2 6534   3.352   3.022   2.655
 1626SOL    HW3 6535   3.374   3.112   2.536
 1626SOL    MW4 6536   3.373   3.099   2.622
 1627SOL     OW 6537   3.174   3.237   2.758
 1627SOL    HW2 6538   3.246   3.203   2.705
 1627SOL    HW3 6539   3.096   3.197   2.721
 1627SOL    MW4 6540   3.174   3.228   2.746
 1628SOL     OW 6541   3.112   3.474   2.610
 1628SOL    HW2 6542   3.141   3.406   2.670
 1628SOL    HW3 6543   3.034   3.512   2.652
 1628SOL    MW4 6544   3.105   3.470   2.623
 1629SOL     OW 6545   3.336   3.603   2.715
 1629SOL    HW2 6546   3.327   3.587   2.809
 1629SOL    HW3 6547   3.256   3.566   2.677
 1629SOL    MW4 6548   3.324   3.596   2.722
 1630SOL     OW 6549   3.400   3.864   2.657
 1630SOL    HW2 6550   3.371   3.776   2.683
 1630SOL    HW3 6551   3.415   3.857   2.562
 1630SOL    MW4 6552   3.399   3.851   2.648
 1631SOL     OW 6553   3.155   4.021   2.711
 1631SOL    HW2 6554   3.165   4.113   2.688
 1631SOL    HW3 6555   3.240   3.982   2.694
 1631SOL    MW4 6556   3.167   4.028   2.706
 1632SOL     OW 6557   3.177   4.271   2.634
 1632SOL    HW2 6558   3.089   4.298   2.662
 1632SOL    HW3 6559   3.175   4.278   2.539
 1632SOL    MW4 6560   3.165   4.276   2.625
 1633SOL     OW 6561   3.376   4.424   2.762
 1633SOL    HW2 6562   3.369   4.413   2.857
 1633SOL    HW3 6563   3.301   4.375   2.727
 1633SOL    MW4 6564   3.365   4.416   2.770
 1634SOL     OW 6565   3.798   4.618   2.644
 1634SOL    HW2 6566   3.799   4.530   2.681
 1634SOL    HW3 6567   3.735   4.666   2.697
 1634SOL    MW4 6568   3.790   4.613   2.656
 1635SOL     OW 6569   3.592   0.102   2.763
 1635SOL    HW2 6570   3.597   0.189   2.724
 1635SOL    HW3 6571   3.521   0.058   2.717
 1635SOL    MW4 6572   3.583   0.107   2.752
 1636SOL     OW 6573   3.589   0.358   2.638
 1636SOL    HW2 6574   3.672   0.401   2.661
 1636SOL    HW3 6575   3.521   0.418   2.668
 1636SOL    MW4 6576   3.591   0.371   2.645
 1637SOL     OW 6577   3.812   0.503   2.701
 1637SOL    HW2 6578   3.824   0.486   2.795
 1637SOL    HW3 6579   3.883   0.455   2.658
 1637SOL    MW4 6580   3.823   0.494   2.708
 1638SOL     OW 6581   3.826   0.768   2.642
 1638SOL    HW2 6582   3.740   0.799   2.671
 1638SOL    HW3 6583   3.837   0.683   2.685
 1638SOL    MW4 6584   3.817   0.761   2.651
 1639SOL     OW 6585   3.586   0.869   2.735
 1639SOL    HW2 6586   3.590   0.878   2.830
 1639SOL    HW3 6587   3.585   0.959   2.703
 1639SOL    MW4 6588   3.587   0.882   2.743
 1640SOL     OW 6589   3.571   1.132   2.632
 1640SOL    HW2 6590   3.650   1.175   2.665
 1640SOL    HW3 6591   3.501   1.166   2.687
 1640SOL    MW4 6592   3.572   1.142   2.644
 1641SOL     OW 6593   3.806   1.261   2.721
 1641SOL    HW2 6594   3.886   1.238   2.675
 1641SOL    HW3 6595   3.788   1.352   2.695
 1641SOL    MW4 6596   3.814   1.270   2.712
 1642SOL     OW 6597   3.764   1.523   2.617
 1642SOL    HW2 6598   3.847   1.565   2.637
 1642SOL    HW3 6599   3.698   1.590   2.635
 1642SOL    MW4 6600   3.766   1.537   2.622
 1643SOL     OW 6601   3.594   1.716   2.717
 1643SOL    HW2 6602   3.578   1.800   2.673
 1643SOL    HW3 6603   3.517   1.663   2.696
 1643SOL    MW4 6604   3.582   1.720   2.708
 1644SOL     OW 6605   3.568   1.970   2.573
 1644SOL    HW2 6606   3.496   2.022   2.610
 1644SOL    HW3 6607   3.553   1.973   2.479
 1644SOL    MW4 6608   3.556   1.977   2.566
 1645SOL     OW 6609   3.782   2.061   2.726
 1645SOL    HW2 6610   3.860   2.017   2.691
 1645SOL    HW3 6611   3.709   2.019   2.680
 1645SOL    MW4 6612   3.783   2.049   2.715
 1646SOL     OW 6613   3.784   2.326   2.620
 1646SOL    HW2 6614   3.779   2.240   2.661
 1646SOL    HW3 6615   3.784   2.308   2.526
 1646SOL    MW4 6616   3.783   2.312   2.613
 1647SOL     OW 6617   3.556   2.453   2.717
 1647SOL    HW2 6618   3.569   2.448   2.811
 1647SOL    HW3 6619   3.642   2.436   2.679
 1647SOL    MW4 6620   3.569   2.450   2.724
 1648SOL     OW 6621   3.558   2.717   2.650
 1648SOL    HW2 6622   3.536   2.625   2.665
 1648SOL    HW3 6623   3.553   2.728   2.555
 1648SOL    MW4 6624   3.554   2.706   2.640
 1649SOL     OW 6625   3.758   2.845   2.795
 1649SOL    HW2 6626   3.843   2.816   2.763
 1649SOL    HW3 6627   3.694   2.804   2.737
 1649SOL    MW4 6628   3.760   2.836   2.783
 1650SOL     OW 6629   3.801   3.039   2.611
 1650SOL    HW2 6630   3.743   3.113   2.629
 1650SOL    HW3 6631   3.781   2.976   2.680
 1650SOL    MW4 6632   3.791   3.041   2.623
 1651SOL     OW 6633   3.622   3.233   2.691
 1651SOL    HW2 6634   3.624   3.319   2.649
 1651SOL    HW3 6635   3.540   3.193   2.661
 1651SOL    MW4 6636   3.611   3.239   2.682
 1652SOL     OW 6637   3.589   3.510   2.611
 1652SOL    HW2 6638   3.660   3.564   2.645
 1652SOL    HW3 6639   3.511   3.542   2.656
 1652SOL    MW4 6640   3.588   3.521   2.622
 1653SOL     OW 6641   3.818   3.646   2.696
 1653SOL    HW2 6642   3.885   3.586   2.662
 1653SOL    HW3 6643   3.838   3.730   2.657
 1653SOL    MW4 6644   3.829   3.649   2.687
 1654SOL     OW 6645   3.851   3.902   2.603
 1654SOL    HW2 6646   3.927   3.942   2.644
 1654SOL    HW3 6647   3.778   3.924   2.660
 1654SOL    MW4 6648   3.852   3.910   2.616
 1655SOL     OW 6649   3.627   3.984   2.762
 1655SOL    HW2 6650   3.630   4.075   2.734
 1655SOL    HW3 6651   3.542   3.952   2.733
 1655SOL    MW4 6652   3.616   3.991   2.755
 1656SOL     OW 6653   3.593   4.244   2.671
 1656SOL    HW2 6654   3.515   4.291   2.699
 1656SOL    HW3 6655   3.585   4.239   2.575
 1656SOL    MW4 6656   3.582   4.249   2.662
 1657SOL     OW 6657   3.823   4.384   2.762
 1657SOL    HW2 6658   3.899   4.348   2.716
 1657SOL    HW3 6659   3.749   4.331   2.731
 1657SOL    MW4 6660   3.823   4.373   2.752
 1658SOL     OW 6661   4.289   4.605   2.629
 1658SOL    HW2 6662   4.208   4.647   2.659
 1658SOL    HW3 6663   4.359   4.665   2.656
 1658SOL    MW4 6664   4.288   4.619   2.637
 1659SOL     OW 6665   4.045   0.081   2.692
 1659SOL    HW2 6666   4.067   0.091   2.785
 1659SOL    HW3 6667   3.962   0.032   2.692
 1659SOL    MW4 6668   4.037   0.076   2.704
 1660SOL     OW 6669   4.026   0.352   2.596
 1660SOL    HW2 6670   4.030   0.259   2.616
 1660SOL    HW3 6671   4.040   0.357   2.501
 1660SOL    MW4 6672   4.029   0.340   2.586
 1661SOL     OW 6673   4.213   0.494   2.737
 1661SOL    HW2 6674   4.146   0.442   2.692
 1661SOL    HW3 6675   4.296   0.454   2.711
 1661SOL    MW4 6676   4.215   0.482   2.727
 1662SOL     OW 6677   4.241   0.770   2.674
 1662SOL    HW2 6678   4.219   0.679   2.691
 1662SOL    HW3 6679   4.268   0.772   2.582
 1662SOL    MW4 6680   4.241   0.759   2.664
 1663SOL     OW 6681   4.054   0.948   2.750
 1663SOL    HW2 6682   4.110   0.872   2.731
 1663SOL    HW3 6683   3.969   0.925   2.711
 1663SOL    MW4 6684   4.050   0.935   2.742
 1664SOL     OW 6685   4.042   1.170   2.606
 1664SOL    HW2 6686   4.118   1.216   2.642
 1664SOL    HW3 6687   4.039   1.088   2.654
 1664SOL    MW4 6688   4.052   1.166   2.617
 1665SOL     OW 6689   4.256   1.279   2.724
 1665SOL    HW2 6690   4.254   1.361   2.674
 1665SOL    HW3 6691   4.342   1.242   2.705
 1665SOL    MW4 6692   4.267   1.285   2.715
 1666SOL     OW 6693   4.239   1.524   2.606
 1666SOL    HW2 6694   4.320   1.553   2.648
 1666SOL    HW3 6695   4.255   1.539   2.512
 1666SOL    MW4 6696   4.252   1.530   2.599
 1667SOL     OW 6697   3.994   1.653   2.683
 1667SOL    HW2 6698   3.997   1.680   2.774
 1667SOL    HW3 6699   4.082   1.617   2.665
 1667SOL    MW4 6700   4.006   1.651   2.692
 1668SOL     OW 6701   3.970   1.926   2.593
 1668SOL    HW2 6702   4.050   1.960   2.633
 1668SOL    HW3 6703   3.960   1.838   2.630
 1668SOL    MW4 6704   3.979   1.919   2.603
 1669SOL     OW 6705   4.206   2.016   2.721
 1669SOL    HW2 6706   4.218   2.104   2.686
 1669SOL    HW3 6707   4.287   1.970   2.697
 1669SOL    MW4 6708   4.218   2.022   2.713
 1670SOL     OW 6709   4.226   2.303   2.644
 1670SOL    HW2 6710   4.145   2.354   2.643
 1670SOL    HW3 6711   4.253   2.299   2.552
 1670SOL    MW4 6712   4.219   2.309   2.631
 1671SOL     OW 6713   4.016   2.469   2.715
 1671SOL    HW2 6714   4.018   2.453   2.810
 1671SOL    HW3 6715   3.935   2.428   2.685
 1671SOL    MW4 6716   4.006   2.461   2.724
 1672SOL     OW 6717   3.994   2.728   2.656
 1672SOL    HW2 6718   4.079   2.767   2.676
 1672SOL    HW3 6719   4.004   2.636   2.680
 1672SOL    MW4 6720   4.006   2.721   2.662
 1673SOL     OW 6721   4.228   2.867   2.747
 1673SOL    HW2 6722   4.222   2.889   2.840
 1673SOL    HW3 6723   4.249   2.950   2.705
 1673SOL    MW4 6724   4.230   2.881   2.754
 1674SOL     OW 6725   4.278   3.097   2.591
 1674SOL    HW2 6726   4.201   3.149   2.610
 1674SOL    HW3 6727   4.270   3.074   2.498
 1674SOL    MW4 6728   4.267   3.101   2.581
 1675SOL     OW 6729   4.036   3.200   2.685
 1675SOL    HW2 6730   4.017   3.294   2.679
 1675SOL    HW3 6731   3.956   3.157   2.656
 1675SOL    MW4 6732   4.023   3.207   2.680
 1676SOL     OW 6733   4.028   3.469   2.628
 1676SOL    HW2 6734   4.105   3.516   2.661
 1676SOL    HW3 6735   4.041   3.466   2.533
 1676SOL    MW4 6736   4.040   3.475   2.620
 1677SOL     OW 6737   4.237   3.610   2.711
 1677SOL    HW2 6738   4.257   3.633   2.802
 1677SOL    HW3 6739   4.318   3.571   2.678
 1677SOL    MW4 6740   4.251   3.608   2.719
 1678SOL     OW 6741   4.305   3.872   2.622
 1678SOL    HW2 6742   4.285   3.792   2.670
 1678SOL    HW3 6743   4.378   3.912   2.671
 1678SOL    MW4 6744   4.312   3.867   2.635
 1679SOL     OW 6745   4.084   4.001   2.720
 1679SOL    HW2 6746   4.076   3.977   2.812
 1679SOL    HW3 6747   4.159   3.951   2.688
 1679SOL    MW4 6748   4.093   3.991   2.728
 1680SOL     OW 6749   4.043   4.271   2.643
 1680SOL    HW2 6750   4.073   4.182   2.662
 1680SOL    HW3 6751   4.035   4.274   2.548
 1680SOL    MW4 6752   4.046   4.260   2.633
 1681SOL     OW 6753   4.283   4.359   2.715
 1681SOL    HW2 6754   4.191   4.340   2.699
 1681SOL    HW3 6755   4.291   4.454   2.700
 1681SOL    MW4 6756   4.272   4.369   2.711
 1682SOL     OW 6757   0.197   0.000   3.148
 1682SOL    HW2 6758   0.184  -0.016   3.242
 1682SOL    HW3 6759   0.120   0.052   3.123
 1682SOL    MW4 6760   0.185   0.005   3.157
 1683SOL     OW 6761   4.462   0.107   3.018
 1683SOL    HW2 6762   4.387   0.058   3.048
 1683SOL    HW3 6763   4.453   0.193   3.058
 1683SOL    MW4 6764   4.451   0.112   3.027
 1684SOL     OW 6765   4.435   0.349   3.141
 1684SOL    HW2 6766   4.435   0.366   3.235
 1684SOL    HW3 6767   4.352   0.387   3.110
 1684SOL    MW4 6768   4.424   0.356   3.150
 1685SOL     OW 6769   0.151   0.517   2.974
 1685SOL    HW2 6770   0.235   0.472   2.989
 1685SOL    HW3 6771   0.087   0.466   3.024
 1685SOL    MW4 6772   0.154   0.504   2.982
 1686SOL     OW 6773   0.174   0.777   3.088
 1686SOL    HW2 6774   0.199   0.774   3.181
 1686SOL    HW3 6775   0.163   0.685   3.064
 1686SOL    MW4 6776   0.176   0.764   3.097
 1687SOL     OW 6777   4.441   0.911   3.008
 1687SOL    HW2 6778   4.515   0.854   3.029
 1687SOL    HW3 6779   4.447   0.924   2.913
 1687SOL    MW4 6780   4.451   0.905   2.998
 1688SOL     OW 6781   4.470   1.171   3.137
 1688SOL    HW2 6782   4.387   1.209   3.107
 1688SOL    HW3 6783   4.467   1.080   3.107
 1688SOL    MW4 6784   4.459   1.164   3.129
 1689SOL     OW 6785   0.217   1.295   2.998
 1689SOL    HW2 6786   0.139   1.247   3.026
 1689SOL    HW3 6787   0.213   1.293   2.902
 1689SOL    MW4 6788   0.207   1.288   2.989
 1690SOL     OW 6789   0.240   1.567   3.032
 1690SOL    HW2 6790   0.151   1.596   3.011
 1690SOL    HW3 6791   0.240   1.474   3.008
 1690SOL    MW4 6792   0.228   1.558   3.026
 1691SOL     OW 6793   4.469   1.659   2.968
 1691SOL    HW2 6794   4.389   1.613   2.994
 1691SOL    HW3 6795   4.464   1.743   3.014
 1691SOL    MW4 6796   4.458   1.664   2.978
 1692SOL     OW 6797   4.442   1.903   3.119
 1692SOL    HW2 6798   4.362   1.947   3.093
 1692SOL    HW3 6799   4.512   1.954   3.078
 1692SOL    MW4 6800   4.441   1.915   3.110
 1693SOL     OW 6801   0.160   2.044   2.976
 1693SOL    HW2 6802   0.172   2.136   3.000
 1693SOL    HW3 6803   0.168   2.043   2.881
 1693SOL    MW4 6804   0.162   2.056   2.967
 1694SOL     OW 6805   0.206   2.318   3.066
 1694SOL    HW2 6806   0.208   2.320   3.162
 1694SOL    HW3 6807   0.285   2.366   3.040
 1694SOL    MW4 6808   0.217   2.325   3.075
 1695SOL     OW 6809   4.463   2.471   2.989
 1695SOL    HW2 6810   4.477   2.557   3.030
 1695SOL    HW3 6811   4.541   2.421   3.012
 1695SOL    MW4 6812   4.475   2.476   2.997
 1696SOL     OW 6813   4.447   2.714   3.123
 1696SOL    HW2 6814   4.462   2.708   3.217
 1696SOL    HW3 6815   4.521   2.765   3.090
 1696SOL    MW4 6816   4.458   2.720   3.131
 1697SOL     OW 6817   0.194   2.850   2.967
 1697SOL    HW2 6818   0.279   2.808   2.981
 1697SOL    HW3 6819   0.192   2.870   2.873
 1697SOL    MW4 6820   0.205   2.847   2.956
 1698SOL     OW 6821   0.230   3.109   3.089
 1698SOL    HW2 6822   0.155   3.157   3.053
 1698SOL    HW3 6823   0.219   3.020   3.054
 1698SOL    MW4 6824   0.219   3.103   3.080
 1699SOL     OW 6825   0.010   3.281   2.994
 1699SOL    HW2 6826  -0.052   3.224   3.039
 1699SOL    HW3 6827   0.001   3.258   2.901
 1699SOL    MW4 6828   0.001   3.270   2.988
 1700SOL     OW 6829   0.014   3.523   3.099
 1700SOL    HW2 6830  -0.061   3.563   3.054
 1700SOL    HW3 6831   0.024   3.437   3.057
 1700SOL    MW4 6832   0.006   3.517   3.087
 1701SOL     OW 6833   0.222   3.671   2.982
 1701SOL    HW2 6834   0.223   3.750   3.036
 1701SOL    HW3 6835   0.150   3.619   3.016
 1701SOL    MW4 6836   0.213   3.675   2.993
 1702SOL     OW 6837   0.238   3.891   3.131
 1702SOL    HW2 6838   0.247   3.889   3.226
 1702SOL    HW3 6839   0.315   3.939   3.100
 1702SOL    MW4 6840   0.249   3.897   3.139
 1703SOL     OW 6841   0.026   4.027   3.011
 1703SOL    HW2 6842   0.101   3.976   3.043
 1703SOL    HW3 6843   0.043   4.038   2.917
 1703SOL    MW4 6844   0.038   4.022   3.003
 1704SOL     OW 6845   0.030   4.294   3.123
 1704SOL    HW2 6846   0.035   4.284   3.218
 1704SOL    HW3 6847   0.029   4.205   3.090
 1704SOL    MW4 6848   0.030   4.281   3.132
 1705SOL     OW 6849   0.202   4.434   2.997
 1705SOL    HW2 6850   0.138   4.376   3.038
 1705SOL    HW3 6851   0.192   4.517   3.044
 1705SOL    MW4 6852   0.192   4.438   3.008
 1706SOL     OW 6853   0.687   0.040   3.113
 1706SOL    HW2 6854   0.653  -0.043   3.080
 1706SOL    HW3 6855   0.631   0.106   3.073
 1706SOL    MW4 6856   0.676   0.038   3.103
 1707SOL     OW 6857   0.418   0.127   3.023
 1707SOL    HW2 6858   0.425   0.217   3.054
 1707SOL    HW3 6859   0.351   0.088   3.078
 1707SOL    MW4 6860   0.410   0.134   3.034
 1708SOL     OW 6861   0.394   0.407   3.049
 1708SOL    HW2 6862   0.398   0.409   3.145
 1708SOL    HW3 6863   0.480   0.436   3.020
 1708SOL    MW4 6864   0.406   0.411   3.058
 1709SOL     OW 6865   0.633   0.518   2.958
 1709SOL    HW2 6866   0.713   0.481   2.996
 1709SOL    HW3 6867   0.636   0.611   2.981
 1709SOL    MW4 6868   0.644   0.525   2.966
 1710SOL     OW 6869   0.647   0.788   3.034
 1710SOL    HW2 6870   0.661   0.802   3.128
 1710SOL    HW3 6871   0.560   0.824   3.017
 1710SOL    MW4 6872   0.638   0.794   3.044
 1711SOL     OW 6873   0.397   0.908   2.953
 1711SOL    HW2 6874   0.315   0.873   2.987
 1711SOL    HW3 6875   0.389   0.900   2.858
 1711SOL    MW4 6876   0.385   0.903   2.945
 1712SOL     OW 6877   0.429   1.150   3.094
 1712SOL    HW2 6878   0.420   1.064   3.053
 1712SOL    HW3 6879   0.347   1.195   3.075
 1712SOL    MW4 6880   0.417   1.144   3.086
 1713SOL     OW 6881   0.644   1.299   3.030
 1713SOL    HW2 6882   0.726   1.250   3.038
 1713SOL    HW3 6883   0.577   1.239   3.063
 1713SOL    MW4 6884   0.646   1.285   3.035
 1714SOL     OW 6885   0.679   1.571   3.090
 1714SOL    HW2 6886   0.676   1.569   3.186
 1714SOL    HW3 6887   0.669   1.480   3.064
 1714SOL    MW4 6888   0.677   1.559   3.099
 1715SOL     OW 6889   0.464   1.709   2.957
 1715SOL    HW2 6890   0.537   1.668   3.004
 1715SOL    HW3 6891   0.387   1.658   2.983
 1715SOL    MW4 6892   0.464   1.697   2.967
 1716SOL     OW 6893   0.415   1.971   3.052
 1716SOL    HW2 6894   0.436   1.888   3.010
 1716SOL    HW3 6895   0.326   1.991   3.023
 1716SOL    MW4 6896   0.406   1.963   3.042
 1717SOL     OW 6897   0.644   2.080   2.958
 1717SOL    HW2 6898   0.722   2.033   2.988
 1717SOL    HW3 6899   0.573   2.043   3.010
 1717SOL    MW4 6900   0.645   2.069   2.969
 1718SOL     OW 6901   0.667   2.339   3.058
 1718SOL    HW2 6902   0.661   2.319   3.152
 1718SOL    HW3 6903   0.672   2.254   3.016
 1718SOL    MW4 6904   0.667   2.325   3.065
 1719SOL     OW 6905   0.428   2.455   2.995
 1719SOL    HW2 6906   0.515   2.420   3.014
 1719SOL    HW3 6907   0.424   2.457   2.899
 1719SOL    MW4 6908   0.439   2.450   2.985
 1720SOL     OW 6909   0.428   2.722   3.034
 1720SOL    HW2 6910   0.511   2.750   2.995
 1720SOL    HW3 6911   0.422   2.628   3.013
 1720SOL    MW4 6912   0.438   2.713   3.026
 1721SOL     OW 6913   0.683   2.826   2.945
 1721SOL    HW2 6914   0.765   2.798   2.987
 1721SOL    HW3 6915   0.676   2.919   2.967
 1721SOL    MW4 6916   0.693   2.835   2.954
 1722SOL     OW 6917   0.691   3.097   3.063
 1722SOL    HW2 6918   0.678   3.093   3.157
 1722SOL    HW3 6919   0.612   3.139   3.029
 1722SOL    MW4 6920   0.679   3.102   3.071
 1723SOL     OW 6921   0.457   3.226   2.966
 1723SOL    HW2 6922   0.436   3.317   2.986
 1723SOL    HW3 6923   0.389   3.175   3.009
 1723SOL    MW4 6924   0.445   3.232   2.974
 1724SOL     OW 6925   0.436   3.504   3.043
 1724SOL    HW2 6926   0.441   3.504   3.138
 1724SOL    HW3 6927   0.374   3.574   3.022
 1724SOL    MW4 6928   0.428   3.513   3.053
 1725SOL     OW 6929   0.661   3.648   2.967
 1725SOL    HW2 6930   0.735   3.603   3.008
 1725SOL    HW3 6931   0.584   3.600   2.999
 1725SOL    MW4 6932   0.661   3.635   2.976
 1726SOL     OW 6933   0.636   3.894   3.065
 1726SOL    HW2 6934   0.656   3.891   3.158
 1726SOL    HW3 6935   0.636   3.802   3.037
 1726SOL    MW4 6936   0.638   3.882   3.074
 1727SOL     OW 6937   0.415   4.045   3.008
 1727SOL    HW2 6938   0.499   4.004   3.032
 1727SOL    HW3 6939   0.408   4.031   2.914
 1727SOL    MW4 6940   0.425   4.038   2.999
 1728SOL     OW 6941   0.409   4.301   3.130
 1728SOL    HW2 6942   0.412   4.215   3.088
 1728SOL    HW3 6943   0.331   4.343   3.094
 1728SOL    MW4 6944   0.399   4.295   3.120
 1729SOL     OW 6945   0.648   4.429   3.043
 1729SOL    HW2 6946   0.567   4.400   3.086
 1729SOL    HW3 6947   0.631   4.421   2.950
 1729SOL    MW4 6948   0.635   4.424   3.037
 1730SOL     OW 6949   1.123   0.032   3.127
 1730SOL    HW2 6950   1.200   0.080   3.096
 1730SOL    HW3 6951   1.054   0.055   3.064
 1730SOL    MW4 6952   1.124   0.041   3.114
 1731SOL     OW 6953   0.894   0.152   2.981
 1731SOL    HW2 6954   0.901   0.242   3.015
 1731SOL    HW3 6955   0.832   0.109   3.040
 1731SOL    MW4 6956   0.887   0.158   2.994
 1732SOL     OW 6957   0.864   0.408   3.096
 1732SOL    HW2 6958   0.882   0.402   3.190
 1732SOL    HW3 6959   0.943   0.448   3.060
 1732SOL    MW4 6960   0.877   0.412   3.104
 1733SOL     OW 6961   1.098   0.516   2.995
 1733SOL    HW2 6962   1.170   0.478   3.046
 1733SOL    HW3 6963   1.121   0.499   2.904
 1733SOL    MW4 6964   1.110   0.509   2.990
 1734SOL     OW 6965   1.083   0.777   3.069
 1734SOL    HW2 6966   1.065   0.755   3.160
 1734SOL    HW3 6967   1.084   0.693   3.023
 1734SOL    MW4 6968   1.081   0.763   3.075
 1735SOL     OW 6969   0.870   0.904   2.950
 1735SOL    HW2 6970   0.944   0.854   2.984
 1735SOL    HW3 6971   0.792   0.856   2.978
 1735SOL    MW4 6972   0.869   0.891   2.958
 1736SOL     OW 6973   0.875   1.164   3.100
 1736SOL    HW2 6974   0.938   1.217   3.052
 1736SOL    HW3 6975   0.877   1.078   3.057
 1736SOL    MW4 6976   0.884   1.159   3.088
 1737SOL     OW 6977   1.093   1.300   2.967
 1737SOL    HW2 6978   1.173   1.263   3.004
 1737SOL    HW3 6979   1.103   1.288   2.873
 1737SOL    MW4 6980   1.105   1.294   2.960
 1738SOL     OW 6981   1.103   1.567   3.025
 1738SOL    HW2 6982   1.196   1.583   3.011
 1738SOL    HW3 6983   1.090   1.476   3.000
 1738SOL    MW4 6984   1.113   1.557   3.020
 1739SOL     OW 6985   0.871   1.703   2.955
 1739SOL    HW2 6986   0.945   1.658   2.995
 1739SOL    HW3 6987   0.795   1.671   3.004
 1739SOL    MW4 6988   0.871   1.693   2.967
 1740SOL     OW 6989   0.860   1.947   3.078
 1740SOL    HW2 6990   0.843   1.936   3.171
 1740SOL    HW3 6991   0.865   1.858   3.043
 1740SOL    MW4 6992   0.858   1.934   3.086
 1741SOL     OW 6993   1.125   2.000   3.034
 1741SOL    HW2 6994   1.035   1.979   3.060
 1741SOL    HW3 6995   1.121   2.012   2.940
 1741SOL    MW4 6996   1.113   1.999   3.025
 1742SOL     OW 6997   1.160   2.269   3.093
 1742SOL    HW2 6998   1.074   2.306   3.074
 1742SOL    HW3 6999   1.154   2.177   3.068
 1742SOL    MW4 7000   1.148   2.262   3.087
 1743SOL     OW 7001   0.935   2.418   3.022
 1743SOL    HW2 7002   0.845   2.398   3.048
 1743SOL    HW3 7003   0.935   2.409   2.926
 1743SOL    MW4 7004   0.923   2.414   3.013
 1744SOL     OW 7005   0.910   2.701   3.056
 1744SOL    HW2 7006   0.889   2.705   3.150
 1744SOL    HW3 7007   0.922   2.608   3.038
 1744SOL    MW4 7008   0.909   2.689   3.066
 1745SOL     OW 7009   1.138   2.825   2.957
 1745SOL    HW2 7010   1.132   2.912   2.997
 1745SOL    HW3 7011   1.055   2.783   2.977
 1745SOL    MW4 7012   1.127   2.831   2.965
 1746SOL     OW 7013   1.124   3.082   3.060
 1746SOL    HW2 7014   1.195   3.145   3.048
 1746SOL    HW3 7015   1.045   3.130   3.035
 1746SOL    MW4 7016   1.123   3.096   3.055
 1747SOL     OW 7017   0.894   3.263   2.965
 1747SOL    HW2 7018   0.814   3.225   3.000
 1747SOL    HW3 7019   0.894   3.238   2.872
 1747SOL    MW4 7020   0.884   3.254   2.957
 1748SOL     OW 7021   0.887   3.509   3.081
 1748SOL    HW2 7022   0.956   3.564   3.044
 1748SOL    HW3 7023   0.893   3.427   3.031
 1748SOL    MW4 7024   0.897   3.505   3.069
 1749SOL     OW 7025   1.092   3.658   2.993
 1749SOL    HW2 7026   1.172   3.623   3.030
 1749SOL    HW3 7027   1.076   3.739   3.042
 1749SOL    MW4 7028   1.100   3.664   3.004
 1750SOL     OW 7029   1.087   3.915   3.097
 1750SOL    HW2 7030   1.070   3.897   3.190
 1750SOL    HW3 7031   1.014   3.971   3.070
 1750SOL    MW4 7032   1.075   3.920   3.106
 1751SOL     OW 7033   0.856   4.031   2.996
 1751SOL    HW2 7034   0.782   3.975   3.018
 1751SOL    HW3 7035   0.865   4.022   2.901
 1751SOL    MW4 7036   0.847   4.023   2.986
 1752SOL     OW 7037   0.892   4.296   3.111
 1752SOL    HW2 7038   0.872   4.207   3.083
 1752SOL    HW3 7039   0.807   4.341   3.107
 1752SOL    MW4 7040   0.878   4.290   3.106
 1753SOL     OW 7041   1.103   4.438   3.016
 1753SOL    HW2 7042   1.023   4.398   3.051
 1753SOL    HW3 7043   1.120   4.512   3.075
 1753SOL    MW4 7044   1.094   4.443   3.029
 1754SOL     OW 7045   1.528   0.024   3.139
 1754SOL    HW2 7046   1.547   0.013   3.232
 1754SOL    HW3 7047   1.452   0.083   3.137
 1754SOL    MW4 7048   1.520   0.030   3.151
 1755SOL     OW 7049   1.324   0.188   3.020
 1755SOL    HW2 7050   1.344   0.277   3.048
 1755SOL    HW3 7051   1.331   0.191   2.924
 1755SOL    MW4 7052   1.327   0.200   3.011
 1756SOL     OW 7053   1.333   0.439   3.133
 1756SOL    HW2 7054   1.334   0.426   3.228
 1756SOL    HW3 7055   1.422   0.467   3.113
 1756SOL    MW4 7056   1.345   0.441   3.143
 1757SOL     OW 7057   1.584   0.519   3.046
 1757SOL    HW2 7058   1.580   0.614   3.059
 1757SOL    HW3 7059   1.588   0.508   2.951
 1757SOL    MW4 7060   1.584   0.530   3.035
 1758SOL     OW 7061   1.537   0.782   3.104
 1758SOL    HW2 7062   1.527   0.766   3.198
 1758SOL    HW3 7063   1.453   0.818   3.076
 1758SOL    MW4 7064   1.525   0.785   3.113
 1759SOL     OW 7065   1.322   0.910   3.011
 1759SOL    HW2 7066   1.312   1.001   3.041
 1759SOL    HW3 7067   1.235   0.872   3.022
 1759SOL    MW4 7068   1.309   0.917   3.016
 1760SOL     OW 7069   1.323   1.188   3.101
 1760SOL    HW2 7070   1.338   1.179   3.195
 1760SOL    HW3 7071   1.410   1.201   3.064
 1760SOL    MW4 7072   1.336   1.188   3.108
 1761SOL     OW 7073   1.574   1.229   2.986
 1761SOL    HW2 7074   1.631   1.164   3.029
 1761SOL    HW3 7075   1.598   1.312   3.026
 1761SOL    MW4 7076   1.584   1.231   2.997
 1762SOL     OW 7077   1.606   1.485   3.096
 1762SOL    HW2 7078   1.674   1.539   3.056
 1762SOL    HW3 7079   1.525   1.516   3.057
 1762SOL    MW4 7080   1.605   1.496   3.086
 1763SOL     OW 7081   1.383   1.654   2.995
 1763SOL    HW2 7082   1.381   1.746   3.023
 1763SOL    HW3 7083   1.383   1.658   2.899
 1763SOL    MW4 7084   1.382   1.667   2.986
 1764SOL     OW 7085   1.391   1.904   3.112
 1764SOL    HW2 7086   1.378   1.907   3.207
 1764SOL    HW3 7087   1.307   1.931   3.075
 1764SOL    MW4 7088   1.378   1.908   3.120
 1765SOL     OW 7089   1.608   2.046   3.029
 1765SOL    HW2 7090   1.537   1.992   3.063
 1765SOL    HW3 7091   1.591   2.054   2.936
 1765SOL    MW4 7092   1.597   2.040   3.021
 1766SOL     OW 7093   1.602   2.305   3.112
 1766SOL    HW2 7094   1.514   2.343   3.101
 1766SOL    HW3 7095   1.589   2.211   3.105
 1766SOL    MW4 7096   1.588   2.298   3.110
 1767SOL     OW 7097   1.373   2.439   3.019
 1767SOL    HW2 7098   1.294   2.389   3.041
 1767SOL    HW3 7099   1.377   2.437   2.924
 1767SOL    MW4 7100   1.363   2.432   3.010
 1768SOL     OW 7101   1.361   2.710   3.086
 1768SOL    HW2 7102   1.352   2.620   3.055
 1768SOL    HW3 7103   1.290   2.758   3.042
 1768SOL    MW4 7104   1.350   2.705   3.076
 1769SOL     OW 7105   1.591   2.830   2.967
 1769SOL    HW2 7106   1.668   2.792   3.007
 1769SOL    HW3 7107   1.517   2.793   3.016
 1769SOL    MW4 7108   1.591   2.820   2.978
 1770SOL     OW 7109   1.564   3.088   3.086
 1770SOL    HW2 7110   1.582   3.080   3.179
 1770SOL    HW3 7111   1.589   3.004   3.049
 1770SOL    MW4 7112   1.570   3.076   3.093
 1771SOL     OW 7113   1.347   3.244   3.015
 1771SOL    HW2 7114   1.421   3.193   3.048
 1771SOL    HW3 7115   1.347   3.227   2.921
 1771SOL    MW4 7116   1.357   3.235   3.007
 1772SOL     OW 7117   1.323   3.521   3.110
 1772SOL    HW2 7118   1.324   3.511   3.205
 1772SOL    HW3 7119   1.334   3.433   3.075
 1772SOL    MW4 7120   1.324   3.508   3.118
 1773SOL     OW 7121   1.527   3.657   3.027
 1773SOL    HW2 7122   1.452   3.615   3.070
 1773SOL    HW3 7123   1.534   3.613   2.942
 1773SOL    MW4 7124   1.518   3.645   3.022
 1774SOL     OW 7125   1.535   3.921   3.074
 1774SOL    HW2 7126   1.624   3.947   3.053
 1774SOL    HW3 7127   1.531   3.828   3.052
 1774SOL    MW4 7128   1.546   3.912   3.069
 1775SOL     OW 7129   1.302   4.026   2.960
 1775SOL    HW2 7130   1.375   3.992   3.013
 1775SOL    HW3 7131   1.224   3.988   3.000
 1775SOL    MW4 7132   1.301   4.016   2.972
 1776SOL     OW 7133   1.297   4.255   3.094
 1776SOL    HW2 7134   1.297   4.174   3.043
 1776SOL    HW3 7135   1.211   4.294   3.077
 1776SOL    MW4 7136   1.285   4.249   3.085
 1777SOL     OW 7137   1.521   4.425   3.029
 1777SOL    HW2 7138   1.449   4.373   3.065
 1777SOL    HW3 7139   1.513   4.510   3.072
 1777SOL    MW4 7140   1.511   4.430   3.040
 1778SOL     OW 7141   1.988   0.005   3.086
 1778SOL    HW2 7142   1.976   0.000   3.181
 1778SOL    HW3 7143   1.907   0.043   3.053
 1778SOL    MW4 7144   1.976   0.009   3.095
 1779SOL     OW 7145   1.752   0.153   3.033
 1779SOL    HW2 7146   1.671   0.107   3.058
 1779SOL    HW3 7147   1.756   0.143   2.938
 1779SOL    MW4 7148   1.742   0.146   3.024
 1780SOL     OW 7149   1.803   0.386   3.168
 1780SOL    HW2 7150   1.788   0.299   3.133
 1780SOL    HW3 7151   1.731   0.439   3.134
 1780SOL    MW4 7152   1.792   0.382   3.159
 1781SOL     OW 7153   2.024   0.466   3.020
 1781SOL    HW2 7154   1.948   0.434   3.069
 1781SOL    HW3 7155   1.993   0.472   2.929
 1781SOL    MW4 7156   2.010   0.463   3.014
 1782SOL     OW 7157   2.026   0.725   3.123
 1782SOL    HW2 7158   1.948   0.770   3.090
 1782SOL    HW3 7159   2.014   0.634   3.096
 1782SOL    MW4 7160   2.014   0.719   3.115
 1783SOL     OW 7161   1.785   0.870   3.055
 1783SOL    HW2 7162   1.698   0.855   3.090
 1783SOL    HW3 7163   1.773   0.869   2.960
 1783SOL    MW4 7164   1.772   0.868   3.047
 1784SOL     OW 7165   1.785   1.135   3.142
 1784SOL    HW2 7166   1.765   1.131   3.236
 1784SOL    HW3 7167   1.798   1.043   3.117
 1784SOL    MW4 7168   1.784   1.122   3.151
 1785SOL     OW 7169   2.021   1.256   3.010
 1785SOL    HW2 7170   2.107   1.225   3.039
 1785SOL    HW3 7171   1.959   1.215   3.070
 1785SOL    MW4 7172   2.024   1.246   3.022
 1786SOL     OW 7173   1.994   1.500   3.101
 1786SOL    HW2 7174   1.990   1.492   3.197
 1786SOL    HW3 7175   2.010   1.411   3.071
 1786SOL    MW4 7176   1.996   1.487   3.110
 1787SOL     OW 7177   1.790   1.663   2.994
 1787SOL    HW2 7178   1.789   1.740   3.051
 1787SOL    HW3 7179   1.864   1.611   3.025
 1787SOL    MW4 7180   1.799   1.666   3.006
 1788SOL     OW 7181   1.801   1.888   3.163
 1788SOL    HW2 7182   1.890   1.917   3.144
 1788SOL    HW3 7183   1.745   1.949   3.114
 1788SOL    MW4 7184   1.805   1.900   3.154
 1789SOL     OW 7185   2.024   2.046   3.046
 1789SOL    HW2 7186   2.104   2.008   3.083
 1789SOL    HW3 7187   2.018   2.133   3.085
 1789SOL    MW4 7188   2.034   2.052   3.056
 1790SOL     OW 7189   2.015   2.324   3.115
 1790SOL    HW2 7190   2.095   2.365   3.083
 1790SOL    HW3 7191   1.945   2.359   3.059
 1790SOL    MW4 7192   2.016   2.334   3.104
 1791SOL     OW 7193   1.806   2.444   2.993
 1791SOL    HW2 7194   1.823   2.532   3.025
 1791SOL    HW3 7195   1.737   2.410   3.051
 1791SOL    MW4 7196   1.799   2.451   3.005
 1792SOL     OW 7197   1.804   2.703   3.104
 1792SOL    HW2 7198   1.786   2.697   3.198
 1792SOL    HW3 7199   1.880   2.762   3.098
 1792SOL    MW4 7200   1.812   2.710   3.115
 1793SOL     OW 7201   2.040   2.875   3.030
 1793SOL    HW2 7202   2.015   2.967   3.039
 1793SOL    HW3 7203   2.005   2.848   2.945
 1793SOL    MW4 7204   2.032   2.883   3.020
 1794SOL     OW 7205   1.999   3.142   3.083
 1794SOL    HW2 7206   1.979   3.135   3.177
 1794SOL    HW3 7207   1.921   3.184   3.046
 1794SOL    MW4 7208   1.986   3.147   3.091
 1795SOL     OW 7209   1.770   3.286   3.001
 1795SOL    HW2 7210   1.704   3.225   3.033
 1795SOL    HW3 7211   1.786   3.259   2.911
 1795SOL    MW4 7212   1.764   3.274   2.994
 1796SOL     OW 7213   1.762   3.536   3.101
 1796SOL    HW2 7214   1.747   3.452   3.059
 1796SOL    HW3 7215   1.687   3.589   3.077
 1796SOL    MW4 7216   1.750   3.532   3.093
 1797SOL     OW 7217   1.993   3.628   2.941
 1797SOL    HW2 7218   2.004   3.715   2.980
 1797SOL    HW3 7219   1.914   3.593   2.982
 1797SOL    MW4 7220   1.984   3.635   2.952
 1798SOL     OW 7221   2.029   3.861   3.085
 1798SOL    HW2 7222   2.029   3.842   3.179
 1798SOL    HW3 7223   1.952   3.916   3.072
 1798SOL    MW4 7224   2.019   3.866   3.096
 1799SOL     OW 7225   1.793   3.991   3.025
 1799SOL    HW2 7226   1.782   4.085   3.036
 1799SOL    HW3 7227   1.793   3.977   2.930
 1799SOL    MW4 7228   1.791   4.001   3.014
 1800SOL     OW 7229   1.740   4.253   3.095
 1800SOL    HW2 7230   1.821   4.303   3.087
 1800SOL    HW3 7231   1.673   4.309   3.057
 1800SOL    MW4 7232   1.742   4.267   3.089
 1801SOL     OW 7233   1.988   4.395   3.026
 1801SOL    HW2 7234   1.993   4.489   3.046
 1801SOL    HW3 7235   1.973   4.392   2.932
 1801SOL    MW4 7236   1.986   4.407   3.017
 1802SOL     OW 7237   2.489   4.617   3.095
 1802SOL    HW2 7238   2.504   4.527   3.067
 1802SOL    HW3 7239   2.397   4.634   3.074
 1802SOL    MW4 7240   2.479   4.608   3.088
 1803SOL     OW 7241   2.247   0.090   3.022
 1803SOL    HW2 7242   2.266   0.166   3.076
 1803SOL    HW3 7243   2.153   0.075   3.034
 1803SOL    MW4 7244   2.237   0.098   3.030
 1804SOL     OW 7245   2.251   0.347   3.134
 1804SOL    HW2 7246   2.236   0.370   3.226
 1804SOL    HW3 7247   2.177   0.386   3.087
 1804SOL    MW4 7248   2.239   0.355   3.140
 1805SOL     OW 7249   2.458   0.488   3.009
 1805SOL    HW2 7250   2.380   0.453   3.054
 1805SOL    HW3 7251   2.441   0.472   2.916
 1805SOL    MW4 7252   2.445   0.481   3.003
 1806SOL     OW 7253   2.469   0.719   3.164
 1806SOL    HW2 7254   2.538   0.781   3.140
 1806SOL    HW3 7255   2.465   0.658   3.090
 1806SOL    MW4 7256   2.478   0.719   3.151
 1807SOL     OW 7257   2.253   0.862   3.035
 1807SOL    HW2 7258   2.327   0.808   3.059
 1807SOL    HW3 7259   2.178   0.821   3.078
 1807SOL    MW4 7260   2.253   0.849   3.044
 1808SOL     OW 7261   2.259   1.140   3.114
 1808SOL    HW2 7262   2.235   1.129   3.207
 1808SOL    HW3 7263   2.266   1.050   3.082
 1808SOL    MW4 7264   2.256   1.126   3.122
 1809SOL     OW 7265   2.475   1.289   3.030
 1809SOL    HW2 7266   2.394   1.257   3.070
 1809SOL    HW3 7267   2.458   1.284   2.935
 1809SOL    MW4 7268   2.462   1.284   3.022
 1810SOL     OW 7269   2.481   1.548   3.133
 1810SOL    HW2 7270   2.397   1.579   3.098
 1810SOL    HW3 7271   2.492   1.462   3.093
 1810SOL    MW4 7272   2.471   1.541   3.123
 1811SOL     OW 7273   2.235   1.619   3.041
 1811SOL    HW2 7274   2.155   1.568   3.054
 1811SOL    HW3 7275   2.243   1.627   2.946
 1811SOL    MW4 7276   2.226   1.613   3.031
 1812SOL     OW 7277   2.251   1.901   3.121
 1812SOL    HW2 7278   2.332   1.937   3.084
 1812SOL    HW3 7279   2.241   1.816   3.079
 1812SOL    MW4 7280   2.260   1.895   3.111
 1813SOL     OW 7281   2.478   2.027   3.031
 1813SOL    HW2 7282   2.557   1.976   3.048
 1813SOL    HW3 7283   2.476   2.037   2.936
 1813SOL    MW4 7284   2.488   2.022   3.021
 1814SOL     OW 7285   2.459   2.305   3.105
 1814SOL    HW2 7286   2.452   2.307   3.200
 1814SOL    HW3 7287   2.478   2.213   3.085
 1814SOL    MW4 7288   2.461   2.293   3.115
 1815SOL     OW 7289   2.239   2.453   3.005
 1815SOL    HW2 7290   2.262   2.533   3.053
 1815SOL    HW3 7291   2.303   2.388   3.034
 1815SOL    MW4 7292   2.250   2.455   3.015
 1816SOL     OW 7293   2.239   2.698   3.143
 1816SOL    HW2 7294   2.318   2.735   3.103
 1816SOL    HW3 7295   2.170   2.761   3.123
 1816SOL    MW4 7296   2.240   2.711   3.135
 1817SOL     OW 7297   2.449   2.825   3.028
 1817SOL    HW2 7298   2.445   2.920   3.036
 1817SOL    HW3 7299   2.471   2.810   2.936
 1817SOL    MW4 7300   2.451   2.835   3.017
 1818SOL     OW 7301   2.452   3.088   3.097
 1818SOL    HW2 7302   2.539   3.124   3.076
 1818SOL    HW3 7303   2.392   3.157   3.069
 1818SOL    MW4 7304   2.456   3.102   3.090
 1819SOL     OW 7305   2.247   3.251   2.998
 1819SOL    HW2 7306   2.238   3.335   3.044
 1819SOL    HW3 7307   2.171   3.201   3.026
 1819SOL    MW4 7308   2.236   3.256   3.008
 1820SOL     OW 7309   2.223   3.558   3.132
 1820SOL    HW2 7310   2.303   3.578   3.085
 1820SOL    HW3 7311   2.153   3.597   3.079
 1820SOL    MW4 7312   2.224   3.566   3.119
 1821SOL     OW 7313   2.457   3.615   3.014
 1821SOL    HW2 7314   2.545   3.584   3.031
 1821SOL    HW3 7315   2.451   3.699   3.060
 1821SOL    MW4 7316   2.468   3.622   3.022
 1822SOL     OW 7317   2.474   3.875   3.106
 1822SOL    HW2 7318   2.475   3.891   3.200
 1822SOL    HW3 7319   2.562   3.899   3.077
 1822SOL    MW4 7320   2.486   3.881   3.114
 1823SOL     OW 7321   2.242   4.009   2.990
 1823SOL    HW2 7322   2.317   3.985   3.044
 1823SOL    HW3 7323   2.169   3.958   3.026
 1823SOL    MW4 7324   2.242   3.999   3.002
 1824SOL     OW 7325   2.225   4.270   3.098
 1824SOL    HW2 7326   2.201   4.187   3.058
 1824SOL    HW3 7327   2.148   4.325   3.088
 1824SOL    MW4 7328   2.212   4.267   3.092
 1825SOL     OW 7329   2.460   4.370   2.978
 1825SOL    HW2 7330   2.370   4.349   3.002
 1825SOL    HW3 7331   2.463   4.360   2.883
 1825SOL    MW4 7332   2.449   4.366   2.969
 1826SOL     OW 7333   2.931   4.659   3.102
 1826SOL    HW2 7334   2.993   4.711   3.051
 1826SOL    HW3 7335   2.914   4.582   3.049
 1826SOL    MW4 7336   2.937   4.656   3.089
 1827SOL     OW 7337   2.702   0.101   3.000
 1827SOL    HW2 7338   2.775   0.059   3.045
 1827SOL    HW3 7339   2.624   0.059   3.036
 1827SOL    MW4 7340   2.701   0.090   3.010
 1828SOL     OW 7341   2.692   0.367   3.087
 1828SOL    HW2 7342   2.693   0.274   3.065
 1828SOL    HW3 7343   2.609   0.399   3.052
 1828SOL    MW4 7344   2.682   0.359   3.080
 1829SOL     OW 7345   2.910   0.501   2.981
 1829SOL    HW2 7346   2.830   0.455   3.005
 1829SOL    HW3 7347   2.897   0.526   2.890
 1829SOL    MW4 7348   2.898   0.498   2.972
 1830SOL     OW 7349   2.911   0.755   3.103
 1830SOL    HW2 7350   2.913   0.737   3.197
 1830SOL    HW3 7351   2.935   0.672   3.062
 1830SOL    MW4 7352   2.914   0.742   3.110
 1831SOL     OW 7353   2.656   0.892   3.029
 1831SOL    HW2 7354   2.664   0.979   3.068
 1831SOL    HW3 7355   2.731   0.843   3.063
 1831SOL    MW4 7356   2.667   0.897   3.038
 1832SOL     OW 7357   2.686   1.155   3.129
 1832SOL    HW2 7358   2.765   1.201   3.101
 1832SOL    HW3 7359   2.615   1.199   3.082
 1832SOL    MW4 7360   2.687   1.167   3.119
 1833SOL     OW 7361   2.915   1.281   3.019
 1833SOL    HW2 7362   2.994   1.242   3.057
 1833SOL    HW3 7363   2.911   1.369   3.058
 1833SOL    MW4 7364   2.925   1.288   3.029
 1834SOL     OW 7365   2.901   1.547   3.098
 1834SOL    HW2 7366   2.893   1.558   3.193
 1834SOL    HW3 7367   2.983   1.592   3.076
 1834SOL    MW4 7368   2.911   1.554   3.108
 1835SOL     OW 7369   2.671   1.659   2.979
 1835SOL    HW2 7370   2.739   1.608   3.023
 1835SOL    HW3 7371   2.589   1.620   3.008
 1835SOL    MW4 7372   2.670   1.647   2.989
 1836SOL     OW 7373   2.707   1.904   3.094
 1836SOL    HW2 7374   2.782   1.952   3.058
 1836SOL    HW3 7375   2.708   1.820   3.048
 1836SOL    MW4 7376   2.717   1.900   3.084
 1837SOL     OW 7377   2.869   2.088   2.999
 1837SOL    HW2 7378   2.867   2.181   3.023
 1837SOL    HW3 7379   2.867   2.088   2.903
 1837SOL    MW4 7380   2.868   2.100   2.990
 1838SOL     OW 7381   2.907   2.351   3.051
 1838SOL    HW2 7382   2.981   2.396   3.010
 1838SOL    HW3 7383   2.831   2.405   3.031
 1838SOL    MW4 7384   2.907   2.364   3.043
 1839SOL     OW 7385   2.668   2.495   2.995
 1839SOL    HW2 7386   2.658   2.565   3.060
 1839SOL    HW3 7387   2.607   2.427   3.024
 1839SOL    MW4 7388   2.659   2.495   3.007
 1840SOL     OW 7389   2.681   2.727   3.139
 1840SOL    HW2 7390   2.667   2.742   3.233
 1840SOL    HW3 7391   2.599   2.752   3.098
 1840SOL    MW4 7392   2.669   2.732   3.146
 1841SOL     OW 7393   2.905   2.825   3.013
 1841SOL    HW2 7394   2.976   2.778   3.057
 1841SOL    HW3 7395   2.826   2.798   3.059
 1841SOL    MW4 7396   2.904   2.815   3.025
 1842SOL     OW 7397   2.934   3.080   3.118
 1842SOL    HW2 7398   2.875   3.138   3.071
 1842SOL    HW3 7399   2.901   2.992   3.099
 1842SOL    MW4 7400   2.922   3.076   3.109
 1843SOL     OW 7401   2.706   3.211   3.007
 1843SOL    HW2 7402   2.699   3.303   3.033
 1843SOL    HW3 7403   2.693   3.211   2.912
 1843SOL    MW4 7404   2.703   3.223   2.998
 1844SOL     OW 7405   2.695   3.475   3.095
 1844SOL    HW2 7406   2.688   3.463   3.190
 1844SOL    HW3 7407   2.768   3.535   3.083
 1844SOL    MW4 7408   2.703   3.481   3.106
 1845SOL     OW 7409   2.907   3.625   3.028
 1845SOL    HW2 7410   2.980   3.575   3.063
 1845SOL    HW3 7411   2.920   3.714   3.060
 1845SOL    MW4 7412   2.918   3.630   3.037
 1846SOL     OW 7413   2.959   3.887   3.117
 1846SOL    HW2 7414   2.948   3.865   3.210
 1846SOL    HW3 7415   2.872   3.917   3.089
 1846SOL    MW4 7416   2.946   3.888   3.126
 1847SOL     OW 7417   2.722   3.977   3.009
 1847SOL    HW2 7418   2.709   4.071   3.023
 1847SOL    HW3 7419   2.724   3.967   2.914
 1847SOL    MW4 7420   2.720   3.988   2.999
 1848SOL     OW 7421   2.676   4.236   3.067
 1848SOL    HW2 7422   2.688   4.255   3.160
 1848SOL    HW3 7423   2.593   4.277   3.044
 1848SOL    MW4 7424   2.667   4.244   3.076
 1849SOL     OW 7425   2.905   4.390   2.995
 1849SOL    HW2 7426   2.985   4.345   3.021
 1849SOL    HW3 7427   2.835   4.328   3.017
 1849SOL    MW4 7428   2.906   4.376   3.001
 1850SOL     OW 7429   3.370   4.660   3.137
 1850SOL    HW2 7430   3.453   4.703   3.114
 1850SOL    HW3 7431   3.375   4.575   3.094
 1850SOL    MW4 7432   3.382   4.655   3.129
 1851SOL     OW 7433   3.168   0.120   2.967
 1851SOL    HW2 7434   3.163   0.212   2.992
 1851SOL    HW3 7435   3.244   0.085   3.014
 1851SOL    MW4 7436   3.177   0.127   2.977
 1852SOL     OW 7437   3.161   0.376   3.072
 1852SOL    HW2 7438   3.217   0.451   3.050
 1852SOL    HW3 7439   3.072   0.405   3.051
 1852SOL    MW4 7440   3.157   0.390   3.067
 1853SOL     OW 7441   3.357   0.549   2.983
 1853SOL    HW2 7442   3.425   0.506   3.034
 1853SOL    HW3 7443   3.364   0.509   2.896
 1853SOL    MW4 7444   3.367   0.538   2.978
 1854SOL     OW 7445   3.348   0.812   3.076
 1854SOL    HW2 7446   3.348   0.802   3.171
 1854SOL    HW3 7447   3.326   0.725   3.043
 1854SOL    MW4 7448   3.345   0.799   3.084
 1855SOL     OW 7449   3.112   0.926   2.975
 1855SOL    HW2 7450   3.195   0.884   2.998
 1855SOL    HW3 7451   3.045   0.872   3.016
 1855SOL    MW4 7452   3.114   0.914   2.983
 1856SOL     OW 7453   3.137   1.160   3.104
 1856SOL    HW2 7454   3.221   1.206   3.095
 1856SOL    HW3 7455   3.146   1.083   3.048
 1856SOL    MW4 7456   3.149   1.156   3.095
 1857SOL     OW 7457   3.381   1.276   3.041
 1857SOL    HW2 7458   3.462   1.246   3.082
 1857SOL    HW3 7459   3.369   1.365   3.074
 1857SOL    MW4 7460   3.390   1.284   3.051
 1858SOL     OW 7461   3.366   1.549   3.139
 1858SOL    HW2 7462   3.382   1.555   3.233
 1858SOL    HW3 7463   3.439   1.595   3.099
 1858SOL    MW4 7464   3.378   1.556   3.146
 1859SOL     OW 7465   3.129   1.654   3.006
 1859SOL    HW2 7466   3.216   1.630   3.039
 1859SOL    HW3 7467   3.137   1.644   2.911
 1859SOL    MW4 7468   3.142   1.649   2.998
 1860SOL     OW 7469   3.106   1.943   3.078
 1860SOL    HW2 7470   3.093   1.856   3.041
 1860SOL    HW3 7471   3.038   1.998   3.038
 1860SOL    MW4 7472   3.095   1.939   3.068
 1861SOL     OW 7473   3.352   2.081   3.024
 1861SOL    HW2 7474   3.426   2.030   3.057
 1861SOL    HW3 7475   3.277   2.023   3.035
 1861SOL    MW4 7476   3.352   2.066   3.030
 1862SOL     OW 7477   3.316   2.340   3.103
 1862SOL    HW2 7478   3.316   2.338   3.199
 1862SOL    HW3 7479   3.323   2.248   3.077
 1862SOL    MW4 7480   3.317   2.328   3.112
 1863SOL     OW 7481   3.127   2.500   2.960
 1863SOL    HW2 7482   3.198   2.442   2.985
 1863SOL    HW3 7483   3.125   2.496   2.864
 1863SOL    MW4 7484   3.136   2.492   2.951
 1864SOL     OW 7485   3.143   2.748   3.110
 1864SOL    HW2 7486   3.158   2.725   3.201
 1864SOL    HW3 7487   3.140   2.664   3.064
 1864SOL    MW4 7488   3.144   2.734   3.116
 1865SOL     OW 7489   3.331   2.899   2.979
 1865SOL    HW2 7490   3.339   2.979   3.030
 1865SOL    HW3 7491   3.260   2.851   3.020
 1865SOL    MW4 7492   3.323   2.904   2.991
 1866SOL     OW 7493   3.392   3.135   3.122
 1866SOL    HW2 7494   3.380   3.108   3.213
 1866SOL    HW3 7495   3.309   3.177   3.098
 1866SOL    MW4 7496   3.380   3.137   3.131
 1867SOL     OW 7497   3.154   3.237   3.047
 1867SOL    HW2 7498   3.086   3.174   3.072
 1867SOL    HW3 7499   3.143   3.248   2.953
 1867SOL    MW4 7500   3.143   3.230   3.038
 1868SOL     OW 7501   3.134   3.491   3.140
 1868SOL    HW2 7502   3.210   3.524   3.092
 1868SOL    HW3 7503   3.125   3.401   3.111
 1868SOL    MW4 7504   3.143   3.484   3.130
 1869SOL     OW 7505   3.357   3.602   3.001
 1869SOL    HW2 7506   3.433   3.555   3.035
 1869SOL    HW3 7507   3.363   3.690   3.038
 1869SOL    MW4 7508   3.368   3.607   3.010
 1870SOL     OW 7509   3.407   3.853   3.081
 1870SOL    HW2 7510   3.386   3.856   3.174
 1870SOL    HW3 7511   3.332   3.896   3.039
 1870SOL    MW4 7512   3.394   3.859   3.088
 1871SOL     OW 7513   3.171   3.967   2.980
 1871SOL    HW2 7514   3.097   3.926   3.024
 1871SOL    HW3 7515   3.146   3.971   2.888
 1871SOL    MW4 7516   3.158   3.962   2.974
 1872SOL     OW 7517   3.128   4.249   3.080
 1872SOL    HW2 7518   3.135   4.244   3.176
 1872SOL    HW3 7519   3.132   4.158   3.051
 1872SOL    MW4 7520   3.129   4.236   3.089
 1873SOL     OW 7521   3.364   4.400   3.051
 1873SOL    HW2 7522   3.441   4.348   3.074
 1873SOL    HW3 7523   3.289   4.345   3.077
 1873SOL    MW4 7524   3.364   4.386   3.058
 1874SOL     OW 7525   3.827   4.655   3.126
 1874SOL    HW2 7526   3.811   4.563   3.107
 1874SOL    HW3 7527   3.744   4.699   3.107
 1874SOL    MW4 7528   3.814   4.649   3.121
 1875SOL     OW 7529   3.613   0.143   3.041
 1875SOL    HW2 7530   3.611   0.237   3.060
 1875SOL    HW3 7531   3.598   0.138   2.947
 1875SOL    MW4 7532   3.610   0.155   3.031
 1876SOL     OW 7533   3.580   0.418   3.093
 1876SOL    HW2 7534   3.576   0.428   3.188
 1876SOL    HW3 7535   3.670   0.443   3.070
 1876SOL    MW4 7536   3.592   0.423   3.103
 1877SOL     OW 7537   3.862   0.452   2.995
 1877SOL    HW2 7538   3.928   0.401   3.042
 1877SOL    HW3 7539   3.860   0.536   3.040
 1877SOL    MW4 7540   3.871   0.456   3.007
 1878SOL     OW 7541   3.814   0.723   3.083
 1878SOL    HW2 7542   3.800   0.761   3.170
 1878SOL    HW3 7543   3.877   0.780   3.041
 1878SOL    MW4 7544   3.820   0.735   3.089
 1879SOL     OW 7545   3.607   0.888   3.013
 1879SOL    HW2 7546   3.674   0.825   3.043
 1879SOL    HW3 7547   3.524   0.844   3.033
 1879SOL    MW4 7548   3.605   0.874   3.020
 1880SOL     OW 7549   3.606   1.155   3.141
 1880SOL    HW2 7550   3.675   1.206   3.098
 1880SOL    HW3 7551   3.611   1.069   3.100
 1880SOL    MW4 7552   3.616   1.151   3.130
 1881SOL     OW 7553   3.819   1.292   3.004
 1881SOL    HW2 7554   3.805   1.382   3.031
 1881SOL    HW3 7555   3.835   1.297   2.910
 1881SOL    MW4 7556   3.819   1.304   2.995
 1882SOL     OW 7557   3.788   1.559   3.079
 1882SOL    HW2 7558   3.766   1.554   3.172
 1882SOL    HW3 7559   3.718   1.612   3.041
 1882SOL    MW4 7560   3.776   1.565   3.086
 1883SOL     OW 7561   3.553   1.676   3.002
 1883SOL    HW2 7562   3.554   1.768   3.030
 1883SOL    HW3 7563   3.572   1.678   2.909
 1883SOL    MW4 7564   3.555   1.688   2.994
 1884SOL     OW 7565   3.578   1.944   3.095
 1884SOL    HW2 7566   3.579   1.941   3.191
 1884SOL    HW3 7567   3.663   1.979   3.071
 1884SOL    MW4 7568   3.589   1.948   3.105
 1885SOL     OW 7569   3.824   2.053   3.000
 1885SOL    HW2 7570   3.805   2.140   3.033
 1885SOL    HW3 7571   3.824   2.062   2.905
 1885SOL    MW4 7572   3.822   2.066   2.992
 1886SOL     OW 7573   3.791   2.305   3.081
 1886SOL    HW2 7574   3.786   2.319   3.175
 1886SOL    HW3 7575   3.716   2.352   3.046
 1886SOL    MW4 7576   3.780   2.313   3.089
 1887SOL     OW 7577   3.565   2.432   3.003
 1887SOL    HW2 7578   3.564   2.523   3.031
 1887SOL    HW3 7579   3.487   2.393   3.043
 1887SOL    MW4 7580   3.554   2.439   3.012
 1888SOL     OW 7581   3.536   2.708   3.068
 1888SOL    HW2 7582   3.619   2.756   3.063
 1888SOL    HW3 7583   3.469   2.774   3.048
 1888SOL    MW4 7584   3.538   2.723   3.065
 1889SOL     OW 7585   3.769   2.841   3.069
 1889SOL    HW2 7586   3.768   2.935   3.089
 1889SOL    HW3 7587   3.767   2.838   2.973
 1889SOL    MW4 7588   3.769   2.853   3.059
 1890SOL     OW 7589   3.822   3.124   3.103
 1890SOL    HW2 7590   3.899   3.160   3.058
 1890SOL    HW3 7591   3.748   3.167   3.062
 1890SOL    MW4 7592   3.823   3.134   3.092
 1891SOL     OW 7593   3.605   3.225   2.981
 1891SOL    HW2 7594   3.525   3.189   3.020
 1891SOL    HW3 7595   3.593   3.212   2.887
 1891SOL    MW4 7596   3.593   3.218   2.974
 1892SOL     OW 7597   3.585   3.477   3.087
 1892SOL    HW2 7598   3.650   3.525   3.035
 1892SOL    HW3 7599   3.602   3.385   3.066
 1892SOL    MW4 7600   3.596   3.471   3.077
 1893SOL     OW 7601   3.820   3.581   2.980
 1893SOL    HW2 7602   3.822   3.662   3.031
 1893SOL    HW3 7603   3.821   3.611   2.889
 1893SOL    MW4 7604   3.821   3.596   2.974
 1894SOL     OW 7605   3.861   3.830   3.093
 1894SOL    HW2 7606   3.855   3.837   3.188
 1894SOL    HW3 7607   3.791   3.888   3.061
 1894SOL    MW4 7608   3.851   3.839   3.101
 1895SOL     OW 7609   3.655   3.985   3.045
 1895SOL    HW2 7610   3.576   3.932   3.053
 1895SOL    HW3 7611   3.665   3.999   2.951
 1895SOL    MW4 7612   3.646   3.980   3.034
 1896SOL     OW 7613   3.589   4.234   3.123
 1896SOL    HW2 7614   3.667   4.282   3.095
 1896SOL    HW3 7615   3.611   4.142   3.108
 1896SOL    MW4 7616   3.602   4.228   3.118
 1897SOL     OW 7617   3.811   4.392   3.042
 1897SOL    HW2 7618   3.885   4.340   3.073
 1897SOL    HW3 7619   3.832   4.411   2.951
 1897SOL    MW4 7620   3.823   4.387   3.034
 1898SOL     OW 7621   4.251   4.642   3.126
 1898SOL    HW2 7622   4.234   4.639   3.221
 1898SOL    HW3 7623   4.279   4.553   3.105
 1898SOL    MW4 7624   4.252   4.630   3.136
 1899SOL     OW 7625   4.041   0.063   2.972
 1899SOL    HW2 7626   4.123   0.030   3.010
 1899SOL    HW3 7627   3.972   0.025   3.026
 1899SOL    MW4 7628   4.043   0.053   2.984
 1900SOL     OW 7629   4.050   0.302   3.126
 1900SOL    HW2 7630   4.117   0.342   3.071
 1900SOL    HW3 7631   4.043   0.212   3.093
 1900SOL    MW4 7632   4.058   0.295   3.114
 1901SOL     OW 7633   4.226   0.472   3.009
 1901SOL    HW2 7634   4.227   0.561   3.044
 1901SOL    HW3 7635   4.224   0.483   2.914
 1901SOL    MW4 7636   4.226   0.485   3.001
 1902SOL     OW 7637   4.242   0.742   3.099
 1902SOL    HW2 7638   4.167   0.792   3.070
 1902SOL    HW3 7639   4.318   0.794   3.071
 1902SOL    MW4 7640   4.242   0.756   3.092
 1903SOL     OW 7641   4.027   0.877   3.002
 1903SOL    HW2 7642   4.015   0.963   3.043
 1903SOL    HW3 7643   4.035   0.897   2.908
 1903SOL    MW4 7644   4.026   0.891   2.995
 1904SOL     OW 7645   4.040   1.142   3.102
 1904SOL    HW2 7646   4.062   1.182   3.186
 1904SOL    HW3 7647   3.961   1.187   3.073
 1904SOL    MW4 7648   4.033   1.153   3.109
 1905SOL     OW 7649   4.255   1.293   3.004
 1905SOL    HW2 7650   4.173   1.247   3.022
 1905SOL    HW3 7651   4.259   1.297   2.908
 1905SOL    MW4 7652   4.245   1.288   2.994
 1906SOL     OW 7653   4.240   1.563   3.069
 1906SOL    HW2 7654   4.156   1.587   3.029
 1906SOL    HW3 7655   4.246   1.469   3.058
 1906SOL    MW4 7656   4.230   1.554   3.063
 1907SOL     OW 7657   4.011   1.683   2.964
 1907SOL    HW2 7658   4.017   1.759   3.022
 1907SOL    HW3 7659   3.930   1.640   2.990
 1907SOL    MW4 7660   4.001   1.688   2.975
 1908SOL     OW 7661   4.021   1.905   3.125
 1908SOL    HW2 7662   4.097   1.955   3.097
 1908SOL    HW3 7663   3.946   1.955   3.092
 1908SOL    MW4 7664   4.021   1.918   3.117
 1909SOL     OW 7665   4.216   2.053   3.015
 1909SOL    HW2 7666   4.221   2.144   3.044
 1909SOL    HW3 7667   4.208   2.059   2.920
 1909SOL    MW4 7668   4.215   2.066   3.006
 1910SOL     OW 7669   4.231   2.337   3.107
 1910SOL    HW2 7670   4.155   2.373   3.064
 1910SOL    HW3 7671   4.306   2.380   3.066
 1910SOL    MW4 7672   4.231   2.347   3.096
 1911SOL     OW 7673   4.005   2.462   2.988
 1911SOL    HW2 7674   3.999   2.548   3.028
 1911SOL    HW3 7675   3.932   2.413   3.026
 1911SOL    MW4 7676   3.994   2.467   2.998
 1912SOL     OW 7677   3.996   2.702   3.125
 1912SOL    HW2 7678   4.003   2.703   3.220
 1912SOL    HW3 7679   3.931   2.770   3.105
 1912SOL    MW4 7680   3.989   2.711   3.135
 1913SOL     OW 7681   4.218   2.875   3.068
 1913SOL    HW2 7682   4.136   2.843   3.105
 1913SOL    HW3 7683   4.281   2.805   3.085
 1913SOL    MW4 7684   4.215   2.861   3.075
 1914SOL     OW 7685   4.300   3.133   3.128
 1914SOL    HW2 7686   4.238   3.175   3.068
 1914SOL    HW3 7687   4.282   3.040   3.119
 1914SOL    MW4 7688   4.289   3.127   3.119
 1915SOL     OW 7689   4.070   3.219   2.979
 1915SOL    HW2 7690   4.080   3.314   2.991
 1915SOL    HW3 7691   4.072   3.207   2.884
 1915SOL    MW4 7692   4.071   3.230   2.968
 1916SOL     OW 7693   4.075   3.487   3.053
 1916SOL    HW2 7694   4.071   3.494   3.148
 1916SOL    HW3 7695   3.991   3.523   3.023
 1916SOL    MW4 7696   4.063   3.493   3.061
 1917SOL     OW 7697   4.293   3.652   2.981
 1917SOL    HW2 7698   4.280   3.728   3.038
 1917SOL    HW3 7699   4.226   3.590   3.008
 1917SOL    MW4 7700   4.283   3.654   2.992
 1918SOL     OW 7701   4.302   3.879   3.136
 1918SOL    HW2 7702   4.226   3.932   3.111
 1918SOL    HW3 7703   4.377   3.932   3.111
 1918SOL    MW4 7704   4.302   3.893   3.129
 1919SOL     OW 7705   4.066   3.965   3.005
 1919SOL    HW2 7706   4.034   4.041   3.054
 1919SOL    HW3 7707   4.008   3.894   3.032
 1919SOL    MW4 7708   4.054   3.966   3.015
 1920SOL     OW 7709   4.036   4.240   3.117
 1920SOL    HW2 7710   4.045   4.257   3.211
 1920SOL    HW3 7711   4.102   4.296   3.076
 1920SOL    MW4 7712   4.046   4.249   3.124
 1921SOL     OW 7713   4.260   4.381   3.018
 1921SOL    HW2 7714   4.344   4.353   3.055
 1921SOL    HW3 7715   4.271   4.367   2.923
 1921SOL    MW4 7716   4.273   4.375   3.010
 1922SOL     OW 7717   0.207   4.643   3.431
 1922SOL    HW2 7718   0.284   4.689   3.466
 1922SOL    HW3 7719   0.198   4.565   3.485
 1922SOL    MW4 7720   0.216   4.639   3.442
 1923SOL     OW 7721   4.446   0.130   3.487
 1923SOL    HW2 7722   4.446   0.223   3.465
 1923SOL    HW3 7723   4.531   0.098   3.457
 1923SOL    MW4 7724   4.457   0.138   3.480
 1924SOL     OW 7725   4.449   0.402   3.404
 1924SOL    HW2 7726   4.382   0.465   3.431
 1924SOL    HW3 7727   4.531   0.437   3.440
 1924SOL    MW4 7728   4.451   0.415   3.412
 1925SOL     OW 7729   0.219   0.507   3.486
 1925SOL    HW2 7730   0.299   0.473   3.447
 1925SOL    HW3 7731   0.202   0.589   3.439
 1925SOL    MW4 7732   0.227   0.514   3.475
 1926SOL     OW 7733   0.223   0.777   3.369
 1926SOL    HW2 7734   0.302   0.821   3.399
 1926SOL    HW3 7735   0.151   0.827   3.408
 1926SOL    MW4 7736   0.224   0.789   3.378
 1927SOL     OW 7737   4.486   0.921   3.463
 1927SOL    HW2 7738   4.480   0.918   3.558
 1927SOL    HW3 7739   4.484   1.014   3.441
 1927SOL    MW4 7740   4.485   0.933   3.472
 1928SOL     OW 7741   4.454   1.190   3.404
 1928SOL    HW2 7742   4.510   1.258   3.441
 1928SOL    HW3 7743   4.477   1.187   3.311
 1928SOL    MW4 7744   4.464   1.199   3.396
 1929SOL     OW 7745   0.186   1.335   3.450
 1929SOL    HW2 7746   0.254   1.272   3.424
 1929SOL    HW3 7747   0.203   1.412   3.397
 1929SOL    MW4 7748   0.197   1.337   3.440
 1930SOL     OW 7749   0.163   1.595   3.313
 1930SOL    HW2 7750   0.238   1.630   3.361
 1930SOL    HW3 7751   0.193   1.586   3.223
 1930SOL    MW4 7752   0.177   1.599   3.308
 1931SOL     OW 7753   4.459   1.706   3.473
 1931SOL    HW2 7754   4.376   1.689   3.428
 1931SOL    HW3 7755   4.526   1.665   3.418
 1931SOL    MW4 7756   4.457   1.698   3.460
 1932SOL     OW 7757   0.007   1.963   3.386
 1932SOL    HW2 7758  -0.019   1.884   3.434
 1932SOL    HW3 7759  -0.006   1.940   3.294
 1932SOL    MW4 7760   0.002   1.949   3.380
 1933SOL     OW 7761   0.237   2.098   3.447
 1933SOL    HW2 7762   0.224   2.087   3.542
 1933SOL    HW3 7763   0.160   2.059   3.407
 1933SOL    MW4 7764   0.225   2.091   3.455
 1934SOL     OW 7765   0.179   2.359   3.349
 1934SOL    HW2 7766   0.118   2.408   3.406
 1934SOL    HW3 7767   0.192   2.276   3.395
 1934SOL    MW4 7768   0.172   2.355   3.363
 1935SOL     OW 7769   4.467   2.489   3.503
 1935SOL    HW2 7770   4.469   2.478   3.598
 1935SOL    HW3 7771   4.384   2.449   3.476
 1935SOL    MW4 7772   4.456   2.482   3.512
 1936SOL     OW 7773   0.030   2.735   3.395
 1936SOL    HW2 7774   0.094   2.780   3.450
 1936SOL    HW3 7775   0.002   2.660   3.447
 1936SOL    MW4 7776   0.035   2.731   3.409
 1937SOL     OW 7777   0.251   2.881   3.507
 1937SOL    HW2 7778   0.298   2.832   3.440
 1937SOL    HW3 7779   0.239   2.968   3.469
 1937SOL    MW4 7780   0.256   2.886   3.493
 1938SOL     OW 7781   0.254   3.113   3.356
 1938SOL    HW2 7782   0.179   3.167   3.381
 1938SOL    HW3 7783   0.258   3.121   3.260
 1938SOL    MW4 7784   0.245   3.121   3.346
 1939SOL     OW 7785   0.025   3.205   3.454
 1939SOL    HW2 7786  -0.064   3.177   3.430
 1939SOL    HW3 7787   0.026   3.299   3.435
 1939SOL    MW4 7788   0.013   3.213   3.448
 1940SOL     OW 7789   4.489   3.485   3.373
 1940SOL    HW2 7790   4.406   3.520   3.405
 1940SOL    HW3 7791   4.483   3.492   3.278
 1940SOL    MW4 7792   4.477   3.491   3.365
 1941SOL     OW 7793   0.236   3.608   3.483
 1941SOL    HW2 7794   0.235   3.603   3.578
 1941SOL    HW3 7795   0.152   3.570   3.456
 1941SOL    MW4 7796   0.225   3.602   3.492
 1942SOL     OW 7797   0.257   3.887   3.402
 1942SOL    HW2 7798   0.189   3.937   3.446
 1942SOL    HW3 7799   0.240   3.796   3.427
 1942SOL    MW4 7800   0.246   3.882   3.411
 1943SOL     OW 7801   0.047   3.997   3.550
 1943SOL    HW2 7802   0.028   4.004   3.643
 1943SOL    HW3 7803   0.033   4.085   3.515
 1943SOL    MW4 7804   0.043   4.010   3.557
 1944SOL     OW 7805   0.012   4.242   3.408
 1944SOL    HW2 7806  -0.068   4.285   3.440
 1944SOL    HW3 7807   0.084   4.291   3.449
 1944SOL    MW4 7808   0.011   4.254   3.418
 1945SOL     OW 7809   0.193   4.392   3.549
 1945SOL    HW2 7810   0.211   4.398   3.643
 1945SOL    HW3 7811   0.274   4.357   3.511
 1945SOL    MW4 7812   0.206   4.388   3.557
 1946SOL     OW 7813   0.643   0.015   3.385
 1946SOL    HW2 7814   0.716   0.059   3.430
 1946SOL    HW3 7815   0.666   0.020   3.292
 1946SOL    MW4 7816   0.656   0.022   3.379
 1947SOL     OW 7817   0.424   0.142   3.487
 1947SOL    HW2 7818   0.430   0.135   3.582
 1947SOL    HW3 7819   0.505   0.103   3.454
 1947SOL    MW4 7820   0.435   0.136   3.495
 1948SOL     OW 7821   0.435   0.371   3.321
 1948SOL    HW2 7822   0.509   0.422   3.354
 1948SOL    HW3 7823   0.433   0.293   3.377
 1948SOL    MW4 7824   0.444   0.367   3.333
 1949SOL     OW 7825   0.653   0.527   3.437
 1949SOL    HW2 7826   0.649   0.532   3.532
 1949SOL    HW3 7827   0.726   0.467   3.419
 1949SOL    MW4 7828   0.662   0.520   3.447
 1950SOL     OW 7829   0.683   0.797   3.321
 1950SOL    HW2 7830   0.609   0.839   3.365
 1950SOL    HW3 7831   0.678   0.705   3.350
 1950SOL    MW4 7832   0.673   0.790   3.331
 1951SOL     OW 7833   0.458   0.916   3.446
 1951SOL    HW2 7834   0.447   0.921   3.541
 1951SOL    HW3 7835   0.435   1.004   3.414
 1951SOL    MW4 7836   0.454   0.928   3.454
 1952SOL     OW 7837   0.381   1.160   3.353
 1952SOL    HW2 7838   0.463   1.200   3.381
 1952SOL    HW3 7839   0.394   1.139   3.261
 1952SOL    MW4 7840   0.393   1.163   3.344
 1953SOL     OW 7841   0.608   1.286   3.443
 1953SOL    HW2 7842   0.692   1.250   3.415
 1953SOL    HW3 7843   0.613   1.379   3.422
 1953SOL    MW4 7844   0.619   1.293   3.436
 1954SOL     OW 7845   0.639   1.561   3.371
 1954SOL    HW2 7846   0.702   1.616   3.417
 1954SOL    HW3 7847   0.554   1.601   3.390
 1954SOL    MW4 7848   0.636   1.574   3.380
 1955SOL     OW 7849   0.393   1.682   3.436
 1955SOL    HW2 7850   0.403   1.692   3.531
 1955SOL    HW3 7851   0.407   1.770   3.402
 1955SOL    MW4 7852   0.396   1.695   3.444
 1956SOL     OW 7853   0.416   1.934   3.319
 1956SOL    HW2 7854   0.352   1.989   3.364
 1956SOL    HW3 7855   0.400   1.949   3.226
 1956SOL    MW4 7856   0.405   1.943   3.313
 1957SOL     OW 7857   0.633   2.080   3.458
 1957SOL    HW2 7858   0.639   2.053   3.549
 1957SOL    HW3 7859   0.562   2.026   3.422
 1957SOL    MW4 7860   0.624   2.069   3.465
 1958SOL     OW 7861   0.650   2.313   3.334
 1958SOL    HW2 7862   0.724   2.360   3.374
 1958SOL    HW3 7863   0.641   2.234   3.388
 1958SOL    MW4 7864   0.659   2.309   3.347
 1959SOL     OW 7865   0.414   2.467   3.446
 1959SOL    HW2 7866   0.485   2.412   3.413
 1959SOL    HW3 7867   0.334   2.425   3.413
 1959SOL    MW4 7868   0.413   2.454   3.437
 1960SOL     OW 7869   0.430   2.727   3.326
 1960SOL    HW2 7870   0.415   2.636   3.350
 1960SOL    HW3 7871   0.437   2.726   3.231
 1960SOL    MW4 7872   0.429   2.715   3.317
 1961SOL     OW 7873   0.652   2.795   3.448
 1961SOL    HW2 7874   0.724   2.753   3.402
 1961SOL    HW3 7875   0.573   2.761   3.406
 1961SOL    MW4 7876   0.651   2.785   3.436
 1962SOL     OW 7877   0.644   3.069   3.369
 1962SOL    HW2 7878   0.567   3.109   3.409
 1962SOL    HW3 7879   0.632   2.975   3.384
 1962SOL    MW4 7880   0.632   3.062   3.376
 1963SOL     OW 7881   0.448   3.255   3.481
 1963SOL    HW2 7882   0.450   3.227   3.573
 1963SOL    HW3 7883   0.378   3.204   3.441
 1963SOL    MW4 7884   0.439   3.245   3.488
 1964SOL     OW 7885   0.447   3.496   3.330
 1964SOL    HW2 7886   0.451   3.407   3.366
 1964SOL    HW3 7887   0.370   3.535   3.373
 1964SOL    MW4 7888   0.437   3.489   3.341
 1965SOL     OW 7889   0.678   3.622   3.457
 1965SOL    HW2 7890   0.749   3.567   3.425
 1965SOL    HW3 7891   0.599   3.588   3.413
 1965SOL    MW4 7892   0.677   3.610   3.447
 1966SOL     OW 7893   0.689   3.885   3.340
 1966SOL    HW2 7894   0.614   3.930   3.378
 1966SOL    HW3 7895   0.695   3.803   3.389
 1966SOL    MW4 7896   0.680   3.880   3.352
 1967SOL     OW 7897   0.491   4.008   3.475
 1967SOL    HW2 7898   0.475   4.093   3.434
 1967SOL    HW3 7899   0.408   3.962   3.467
 1967SOL    MW4 7900   0.478   4.013   3.468
 1968SOL     OW 7901   0.401   4.277   3.418
 1968SOL    HW2 7902   0.473   4.336   3.441
 1968SOL    HW3 7903   0.392   4.285   3.323
 1968SOL    MW4 7904   0.410   4.286   3.409
 1969SOL     OW 7905   0.634   4.425   3.476
 1969SOL    HW2 7906   0.723   4.395   3.457
 1969SOL    HW3 7907   0.633   4.516   3.449
 1969SOL    MW4 7908   0.645   4.433   3.470
 1970SOL     OW 7909   1.101   0.075   3.388
 1970SOL    HW2 7910   1.189   0.101   3.415
 1970SOL    HW3 7911   1.111   0.050   3.296
 1970SOL    MW4 7912   1.114   0.075   3.379
 1971SOL     OW 7913   0.853   0.139   3.507
 1971SOL    HW2 7914   0.862   0.131   3.602
 1971SOL    HW3 7915   0.942   0.127   3.474
 1971SOL    MW4 7916   0.866   0.136   3.515
 1972SOL     OW 7917   0.863   0.372   3.373
 1972SOL    HW2 7918   0.949   0.402   3.400
 1972SOL    HW3 7919   0.853   0.287   3.416
 1972SOL    MW4 7920   0.873   0.364   3.382
 1973SOL     OW 7921   1.096   0.474   3.492
 1973SOL    HW2 7922   1.088   0.493   3.585
 1973SOL    HW3 7923   1.100   0.559   3.449
 1973SOL    MW4 7924   1.096   0.487   3.498
 1974SOL     OW 7925   1.106   0.730   3.351
 1974SOL    HW2 7926   1.190   0.760   3.386
 1974SOL    HW3 7927   1.040   0.783   3.397
 1974SOL    MW4 7928   1.108   0.741   3.362
 1975SOL     OW 7929   0.903   0.913   3.456
 1975SOL    HW2 7930   0.887   1.006   3.442
 1975SOL    HW3 7931   0.831   0.869   3.411
 1975SOL    MW4 7932   0.891   0.919   3.448
 1976SOL     OW 7933   0.862   1.193   3.398
 1976SOL    HW2 7934   0.934   1.238   3.442
 1976SOL    HW3 7935   0.886   1.194   3.305
 1976SOL    MW4 7936   0.875   1.199   3.392
 1977SOL     OW 7937   1.130   1.285   3.463
 1977SOL    HW2 7938   1.143   1.293   3.558
 1977SOL    HW3 7939   1.120   1.375   3.432
 1977SOL    MW4 7940   1.130   1.298   3.472
 1978SOL     OW 7941   1.081   1.538   3.329
 1978SOL    HW2 7942   1.152   1.591   3.364
 1978SOL    HW3 7943   1.090   1.545   3.234
 1978SOL    MW4 7944   1.091   1.546   3.321
 1979SOL     OW 7945   0.898   1.672   3.483
 1979SOL    HW2 7946   0.877   1.750   3.431
 1979SOL    HW3 7947   0.947   1.616   3.423
 1979SOL    MW4 7948   0.902   1.675   3.468
 1980SOL     OW 7949   0.833   1.922   3.352
 1980SOL    HW2 7950   0.912   1.966   3.383
 1980SOL    HW3 7951   0.761   1.972   3.391
 1980SOL    MW4 7952   0.834   1.934   3.361
 1981SOL     OW 7953   1.039   2.069   3.453
 1981SOL    HW2 7954   1.120   2.022   3.434
 1981SOL    HW3 7955   1.062   2.162   3.442
 1981SOL    MW4 7956   1.052   2.075   3.449
 1982SOL     OW 7957   1.123   2.315   3.375
 1982SOL    HW2 7958   1.195   2.366   3.413
 1982SOL    HW3 7959   1.156   2.286   3.290
 1982SOL    MW4 7960   1.137   2.318   3.369
 1983SOL     OW 7961   0.879   2.435   3.436
 1983SOL    HW2 7962   0.901   2.427   3.529
 1983SOL    HW3 7963   0.961   2.416   3.391
 1983SOL    MW4 7964   0.893   2.431   3.442
 1984SOL     OW 7965   0.885   2.705   3.341
 1984SOL    HW2 7966   0.954   2.753   3.387
 1984SOL    HW3 7967   0.888   2.617   3.379
 1984SOL    MW4 7968   0.895   2.700   3.352
 1985SOL     OW 7969   1.119   2.819   3.440
 1985SOL    HW2 7970   1.130   2.833   3.534
 1985SOL    HW3 7971   1.191   2.760   3.416
 1985SOL    MW4 7972   1.130   2.813   3.449
 1986SOL     OW 7973   1.149   3.073   3.341
 1986SOL    HW2 7974   1.153   2.985   3.378
 1986SOL    HW3 7975   1.123   3.058   3.249
 1986SOL    MW4 7976   1.146   3.059   3.333
 1987SOL     OW 7977   0.885   3.190   3.457
 1987SOL    HW2 7978   0.968   3.153   3.430
 1987SOL    HW3 7979   0.820   3.122   3.436
 1987SOL    MW4 7980   0.887   3.176   3.451
 1988SOL     OW 7981   0.891   3.472   3.359
 1988SOL    HW2 7982   0.878   3.380   3.381
 1988SOL    HW3 7983   0.909   3.473   3.265
 1988SOL    MW4 7984   0.892   3.460   3.350
 1989SOL     OW 7985   1.088   3.618   3.483
 1989SOL    HW2 7986   1.099   3.615   3.578
 1989SOL    HW3 7987   1.011   3.563   3.467
 1989SOL    MW4 7988   1.079   3.610   3.493
 1990SOL     OW 7989   1.114   3.892   3.388
 1990SOL    HW2 7990   1.196   3.934   3.415
 1990SOL    HW3 7991   1.114   3.808   3.433
 1990SOL    MW4 7992   1.125   3.887   3.397
 1991SOL     OW 7993   0.890   4.032   3.462
 1991SOL    HW2 7994   0.971   3.982   3.449
 1991SOL    HW3 7995   0.823   3.980   3.417
 1991SOL    MW4 7996   0.892   4.018   3.454
 1992SOL     OW 7997   0.885   4.311   3.398
 1992SOL    HW2 7998   0.879   4.219   3.425
 1992SOL    HW3 7999   0.877   4.309   3.303
 1992SOL    MW4 8000   0.883   4.298   3.389
 1993SOL     OW 8001   1.089   4.459   3.486
 1993SOL    HW2 8002   1.004   4.422   3.463
 1993SOL    HW3 8003   1.085   4.550   3.456
 1993SOL    MW4 8004   1.077   4.466   3.479
 1994SOL     OW 8005   1.569   4.659   3.413
 1994SOL    HW2 8006   1.542   4.572   3.441
 1994SOL    HW3 8007   1.506   4.718   3.453
 1994SOL    MW4 8008   1.557   4.655   3.422
 1995SOL     OW 8009   1.343   0.134   3.516
 1995SOL    HW2 8010   1.328   0.147   3.609
 1995SOL    HW3 8011   1.331   0.221   3.477
 1995SOL    MW4 8012   1.339   0.147   3.523
 1996SOL     OW 8013   1.354   0.400   3.433
 1996SOL    HW2 8014   1.409   0.459   3.484
 1996SOL    HW3 8015   1.265   0.436   3.442
 1996SOL    MW4 8016   1.349   0.413   3.441
 1997SOL     OW 8017   1.568   0.549   3.536
 1997SOL    HW2 8018   1.588   0.555   3.629
 1997SOL    HW3 8019   1.640   0.498   3.499
 1997SOL    MW4 8020   1.580   0.543   3.544
 1998SOL     OW 8021   1.549   0.758   3.367
 1998SOL    HW2 8022   1.464   0.797   3.386
 1998SOL    HW3 8023   1.557   0.685   3.429
 1998SOL    MW4 8024   1.539   0.753   3.378
 1999SOL     OW 8025   1.323   0.852   3.463
 1999SOL    HW2 8026   1.332   0.856   3.558
 1999SOL    HW3 8027   1.316   0.943   3.435
 1999SOL    MW4 8028   1.324   0.864   3.472
 2000SOL     OW 8029   1.347   1.120   3.381
 2000SOL    HW2 8030   1.422   1.172   3.411
 2000SOL    HW3 8031   1.271   1.166   3.414
 2000SOL    MW4 8032   1.347   1.133   3.390
 2001SOL     OW 8033   1.543   1.290   3.488
 2001SOL    HW2 8034   1.523   1.276   3.580
 2001SOL    HW3 8035   1.612   1.226   3.468
 2001SOL    MW4 8036   1.550   1.280   3.498
 2002SOL     OW 8037   1.531   1.533   3.362
 2002SOL    HW2 8038   1.536   1.454   3.416
 2002SOL    HW3 8039   1.572   1.508   3.279
 2002SOL    MW4 8040   1.537   1.519   3.358
 2003SOL     OW 8041   1.284   1.668   3.448
 2003SOL    HW2 8042   1.298   1.656   3.542
 2003SOL    HW3 8043   1.366   1.639   3.408
 2003SOL    MW4 8044   1.297   1.663   3.455
 2004SOL     OW 8045   1.326   1.938   3.389
 2004SOL    HW2 8046   1.395   1.974   3.445
 2004SOL    HW3 8047   1.314   1.849   3.420
 2004SOL    MW4 8048   1.334   1.931   3.400
 2005SOL     OW 8049   1.567   2.066   3.528
 2005SOL    HW2 8050   1.645   2.015   3.506
 2005SOL    HW3 8051   1.581   2.151   3.485
 2005SOL    MW4 8052   1.579   2.071   3.520
 2006SOL     OW 8053   1.572   2.328   3.388
 2006SOL    HW2 8054   1.487   2.371   3.399
 2006SOL    HW3 8055   1.584   2.323   3.294
 2006SOL    MW4 8056   1.562   2.333   3.377
 2007SOL     OW 8057   1.353   2.454   3.492
 2007SOL    HW2 8058   1.375   2.465   3.585
 2007SOL    HW3 8059   1.361   2.542   3.455
 2007SOL    MW4 8060   1.357   2.467   3.499
 2008SOL     OW 8061   1.348   2.684   3.353
 2008SOL    HW2 8062   1.416   2.739   3.391
 2008SOL    HW3 8063   1.349   2.705   3.260
 2008SOL    MW4 8064   1.357   2.694   3.346
 2009SOL     OW 8065   1.553   2.826   3.476
 2009SOL    HW2 8066   1.641   2.813   3.440
 2009SOL    HW3 8067   1.528   2.913   3.445
 2009SOL    MW4 8068   1.562   2.836   3.467
 2010SOL     OW 8069   1.555   3.096   3.378
 2010SOL    HW2 8070   1.628   3.144   3.417
 2010SOL    HW3 8071   1.478   3.148   3.398
 2010SOL    MW4 8072   1.555   3.109   3.386
 2011SOL     OW 8073   1.351   3.262   3.444
 2011SOL    HW2 8074   1.330   3.248   3.537
 2011SOL    HW3 8075   1.276   3.225   3.397
 2011SOL    MW4 8076   1.338   3.255   3.450
 2012SOL     OW 8077   1.330   3.536   3.387
 2012SOL    HW2 8078   1.330   3.447   3.423
 2012SOL    HW3 8079   1.243   3.571   3.408
 2012SOL    MW4 8080   1.318   3.529   3.394
 2013SOL     OW 8081   1.563   3.695   3.472
 2013SOL    HW2 8082   1.556   3.697   3.568
 2013SOL    HW3 8083   1.496   3.633   3.445
 2013SOL    MW4 8084   1.553   3.687   3.481
 2014SOL     OW 8085   1.552   3.943   3.338
 2014SOL    HW2 8086   1.547   3.854   3.374
 2014SOL    HW3 8087   1.558   3.931   3.244
 2014SOL    MW4 8088   1.552   3.930   3.331
 2015SOL     OW 8089   1.334   4.035   3.471
 2015SOL    HW2 8090   1.302   4.116   3.432
 2015SOL    HW3 8091   1.418   4.019   3.427
 2015SOL    MW4 8092   1.341   4.043   3.460
 2016SOL     OW 8093   1.273   4.284   3.362
 2016SOL    HW2 8094   1.209   4.355   3.364
 2016SOL    HW3 8095   1.277   4.259   3.269
 2016SOL    MW4 8096   1.265   4.290   3.350
 2017SOL     OW 8097   1.503   4.395   3.479
 2017SOL    HW2 8098   1.573   4.352   3.431
 2017SOL    HW3 8099   1.422   4.363   3.438
 2017SOL    MW4 8100   1.501   4.385   3.467
 2018SOL     OW 8101   1.990   4.659   3.351
 2018SOL    HW2 8102   2.073   4.701   3.378
 2018SOL    HW3 8103   1.924   4.698   3.408
 2018SOL    MW4 8104   1.993   4.670   3.362
 2019SOL     OW 8105   1.793   0.122   3.505
 2019SOL    HW2 8106   1.794   0.121   3.600
 2019SOL    HW3 8107   1.718   0.068   3.481
 2019SOL    MW4 8108   1.783   0.115   3.514
 2020SOL     OW 8109   1.803   0.401   3.445
 2020SOL    HW2 8110   1.807   0.313   3.483
 2020SOL    HW3 8111   1.822   0.387   3.352
 2020SOL    MW4 8112   1.806   0.387   3.438
 2021SOL     OW 8113   2.030   0.538   3.535
 2021SOL    HW2 8114   2.038   0.620   3.487
 2021SOL    HW3 8115   1.952   0.496   3.499
 2021SOL    MW4 8116   2.021   0.543   3.524
 2022SOL     OW 8117   1.985   0.796   3.414
 2022SOL    HW2 8118   2.067   0.827   3.451
 2022SOL    HW3 8119   2.003   0.785   3.321
 2022SOL    MW4 8120   1.998   0.799   3.407
 2023SOL     OW 8121   1.737   0.883   3.545
 2023SOL    HW2 8122   1.817   0.847   3.506
 2023SOL    HW3 8123   1.666   0.836   3.502
 2023SOL    MW4 8124   1.739   0.872   3.534
 2024SOL     OW 8125   1.756   1.130   3.430
 2024SOL    HW2 8126   1.834   1.167   3.470
 2024SOL    HW3 8127   1.740   1.048   3.477
 2024SOL    MW4 8128   1.764   1.124   3.441
 2025SOL     OW 8129   1.993   1.237   3.522
 2025SOL    HW2 8130   2.013   1.254   3.614
 2025SOL    HW3 8131   1.983   1.324   3.483
 2025SOL    MW4 8132   1.995   1.251   3.529
 2026SOL     OW 8133   1.989   1.493   3.387
 2026SOL    HW2 8134   2.060   1.551   3.414
 2026SOL    HW3 8135   1.909   1.536   3.419
 2026SOL    MW4 8136   1.988   1.506   3.395
 2027SOL     OW 8137   1.761   1.638   3.499
 2027SOL    HW2 8138   1.765   1.731   3.480
 2027SOL    HW3 8139   1.683   1.607   3.452
 2027SOL    MW4 8140   1.751   1.646   3.490
 2028SOL     OW 8141   1.780   1.906   3.433
 2028SOL    HW2 8142   1.869   1.934   3.458
 2028SOL    HW3 8143   1.783   1.900   3.338
 2028SOL    MW4 8144   1.792   1.909   3.424
 2029SOL     OW 8145   1.999   2.051   3.475
 2029SOL    HW2 8146   2.082   2.016   3.442
 2029SOL    HW3 8147   2.005   2.146   3.460
 2029SOL    MW4 8148   2.011   2.059   3.469
 2030SOL     OW 8149   2.007   2.322   3.386
 2030SOL    HW2 8150   2.076   2.383   3.413
 2030SOL    HW3 8151   2.010   2.323   3.290
 2030SOL    MW4 8152   2.016   2.331   3.377
 2031SOL     OW 8153   1.812   2.464   3.500
 2031SOL    HW2 8154   1.873   2.406   3.456
 2031SOL    HW3 8155   1.726   2.425   3.485
 2031SOL    MW4 8156   1.808   2.452   3.492
 2032SOL     OW 8157   1.787   2.721   3.371
 2032SOL    HW2 8158   1.861   2.770   3.408
 2032SOL    HW3 8159   1.788   2.637   3.417
 2032SOL    MW4 8160   1.797   2.717   3.382
 2033SOL     OW 8161   2.003   2.859   3.438
 2033SOL    HW2 8162   2.026   2.875   3.529
 2033SOL    HW3 8163   1.988   2.946   3.401
 2033SOL    MW4 8164   2.004   2.873   3.445
 2034SOL     OW 8165   1.964   3.116   3.356
 2034SOL    HW2 8166   2.052   3.149   3.378
 2034SOL    HW3 8167   1.905   3.165   3.414
 2034SOL    MW4 8168   1.968   3.127   3.367
 2035SOL     OW 8169   1.757   3.266   3.483
 2035SOL    HW2 8170   1.751   3.269   3.579
 2035SOL    HW3 8171   1.753   3.357   3.456
 2035SOL    MW4 8172   1.756   3.278   3.492
 2036SOL     OW 8173   1.790   3.553   3.371
 2036SOL    HW2 8174   1.721   3.616   3.395
 2036SOL    HW3 8175   1.784   3.546   3.276
 2036SOL    MW4 8176   1.780   3.561   3.362
 2037SOL     OW 8177   1.992   3.624   3.529
 2037SOL    HW2 8178   2.072   3.594   3.485
 2037SOL    HW3 8179   1.920   3.587   3.478
 2037SOL    MW4 8180   1.993   3.615   3.516
 2038SOL     OW 8181   2.025   3.848   3.373
 2038SOL    HW2 8182   1.949   3.904   3.391
 2038SOL    HW3 8183   2.017   3.777   3.437
 2038SOL    MW4 8184   2.014   3.846   3.384
 2039SOL     OW 8185   1.813   4.033   3.425
 2039SOL    HW2 8186   1.797   4.032   3.520
 2039SOL    HW3 8187   1.736   3.990   3.388
 2039SOL    MW4 8188   1.801   4.027   3.433
 2040SOL     OW 8189   1.747   4.291   3.364
 2040SOL    HW2 8190   1.780   4.205   3.390
 2040SOL    HW3 8191   1.748   4.289   3.269
 2040SOL    MW4 8192   1.752   4.279   3.355
 2041SOL     OW 8193   1.996   4.397   3.459
 2041SOL    HW2 8194   1.911   4.363   3.435
 2041SOL    HW3 8195   1.997   4.487   3.426
 2041SOL    MW4 8196   1.985   4.405   3.452
 2042SOL     OW 8197   2.462   4.615   3.385
 2042SOL    HW2 8198   2.467   4.525   3.418
 2042SOL    HW3 8199   2.471   4.607   3.290
 2042SOL    MW4 8200   2.464   4.602   3.377
 2043SOL     OW 8201   2.236   0.108   3.466
 2043SOL    HW2 8202   2.248   0.194   3.424
 2043SOL    HW3 8203   2.312   0.058   3.439
 2043SOL    MW4 8204   2.247   0.113   3.457
 2044SOL     OW 8205   2.218   0.389   3.411
 2044SOL    HW2 8206   2.305   0.419   3.440
 2044SOL    HW3 8207   2.157   0.442   3.462
 2044SOL    MW4 8208   2.222   0.400   3.422
 2045SOL     OW 8209   2.477   0.470   3.488
 2045SOL    HW2 8210   2.557   0.449   3.439
 2045SOL    HW3 8211   2.471   0.566   3.484
 2045SOL    MW4 8212   2.487   0.480   3.481
 2046SOL     OW 8213   2.427   0.718   3.446
 2046SOL    HW2 8214   2.503   0.775   3.459
 2046SOL    HW3 8215   2.427   0.699   3.352
 2046SOL    MW4 8216   2.437   0.723   3.435
 2047SOL     OW 8217   2.215   0.867   3.530
 2047SOL    HW2 8218   2.227   0.953   3.490
 2047SOL    HW3 8219   2.289   0.815   3.497
 2047SOL    MW4 8220   2.227   0.871   3.520
 2048SOL     OW 8221   2.224   1.119   3.398
 2048SOL    HW2 8222   2.298   1.177   3.417
 2048SOL    HW3 8223   2.148   1.164   3.435
 2048SOL    MW4 8224   2.224   1.133   3.405
 2049SOL     OW 8225   2.445   1.258   3.477
 2049SOL    HW2 8226   2.439   1.269   3.572
 2049SOL    HW3 8227   2.531   1.218   3.462
 2049SOL    MW4 8228   2.456   1.254   3.487
 2050SOL     OW 8229   2.425   1.558   3.417
 2050SOL    HW2 8230   2.438   1.465   3.436
 2050SOL    HW3 8231   2.450   1.568   3.326
 2050SOL    MW4 8232   2.430   1.547   3.408
 2051SOL     OW 8233   2.184   1.663   3.492
 2051SOL    HW2 8234   2.198   1.664   3.586
 2051SOL    HW3 8235   2.263   1.622   3.456
 2051SOL    MW4 8236   2.197   1.658   3.499
 2052SOL     OW 8237   2.227   1.937   3.405
 2052SOL    HW2 8238   2.212   1.850   3.442
 2052SOL    HW3 8239   2.236   1.922   3.311
 2052SOL    MW4 8240   2.226   1.924   3.398
 2053SOL     OW 8241   2.459   2.053   3.491
 2053SOL    HW2 8242   2.453   2.078   3.583
 2053SOL    HW3 8243   2.373   2.016   3.471
 2053SOL    MW4 8244   2.447   2.052   3.501
 2054SOL     OW 8245   2.430   2.320   3.392
 2054SOL    HW2 8246   2.510   2.372   3.388
 2054SOL    HW3 8247   2.456   2.240   3.437
 2054SOL    MW4 8248   2.444   2.317   3.398
 2055SOL     OW 8249   2.222   2.495   3.460
 2055SOL    HW2 8250   2.243   2.582   3.428
 2055SOL    HW3 8251   2.302   2.444   3.449
 2055SOL    MW4 8252   2.235   2.499   3.454
 2056SOL     OW 8253   2.270   2.754   3.409
 2056SOL    HW2 8254   2.188   2.789   3.442
 2056SOL    HW3 8255   2.265   2.768   3.314
 2056SOL    MW4 8256   2.258   2.760   3.400
 2057SOL     OW 8257   2.466   2.916   3.527
 2057SOL    HW2 8258   2.451   3.004   3.493
 2057SOL    HW3 8259   2.398   2.863   3.486
 2057SOL    MW4 8260   2.455   2.921   3.517
 2058SOL     OW 8261   2.426   3.150   3.369
 2058SOL    HW2 8262   2.512   3.171   3.406
 2058SOL    HW3 8263   2.446   3.123   3.279
 2058SOL    MW4 8264   2.440   3.149   3.362
 2059SOL     OW 8265   2.182   3.248   3.476
 2059SOL    HW2 8266   2.202   3.252   3.570
 2059SOL    HW3 8267   2.263   3.216   3.436
 2059SOL    MW4 8268   2.196   3.244   3.483
 2060SOL     OW 8269   2.215   3.526   3.408
 2060SOL    HW2 8270   2.198   3.432   3.416
 2060SOL    HW3 8271   2.198   3.546   3.316
 2060SOL    MW4 8272   2.211   3.516   3.397
 2061SOL     OW 8273   2.457   3.643   3.468
 2061SOL    HW2 8274   2.461   3.734   3.440
 2061SOL    HW3 8275   2.375   3.609   3.431
 2061SOL    MW4 8276   2.447   3.650   3.459
 2062SOL     OW 8277   2.445   3.918   3.372
 2062SOL    HW2 8278   2.519   3.959   3.416
 2062SOL    HW3 8279   2.368   3.951   3.419
 2062SOL    MW4 8280   2.444   3.928   3.384
 2063SOL     OW 8281   2.225   4.005   3.516
 2063SOL    HW2 8282   2.223   4.091   3.475
 2063SOL    HW3 8283   2.163   3.953   3.465
 2063SOL    MW4 8284   2.217   4.009   3.504
 2064SOL     OW 8285   2.210   4.234   3.366
 2064SOL    HW2 8286   2.133   4.285   3.392
 2064SOL    HW3 8287   2.219   4.253   3.272
 2064SOL    MW4 8288   2.201   4.243   3.357
 2065SOL     OW 8289   2.457   4.340   3.474
 2065SOL    HW2 8290   2.466   4.336   3.570
 2065SOL    HW3 8291   2.365   4.323   3.458
 2065SOL    MW4 8292   2.446   4.338   3.485
 2066SOL     OW 8293   2.934   0.003   3.384
 2066SOL    HW2 8294   2.849   0.039   3.411
 2066SOL    HW3 8295   2.930   0.002   3.288
 2066SOL    MW4 8296   2.922   0.007   3.375
 2067SOL     OW 8297   2.669   0.088   3.469
 2067SOL    HW2 8298   2.656   0.180   3.445
 2067SOL    HW3 8299   2.591   0.044   3.436
 2067SOL    MW4 8300   2.657   0.095   3.462
 2068SOL     OW 8301   2.687   0.341   3.358
 2068SOL    HW2 8302   2.756   0.392   3.402
 2068SOL    HW3 8303   2.701   0.357   3.265
 2068SOL    MW4 8304   2.698   0.350   3.352
 2069SOL     OW 8305   2.928   0.468   3.472
 2069SOL    HW2 8306   2.942   0.463   3.566
 2069SOL    HW3 8307   2.915   0.561   3.454
 2069SOL    MW4 8308   2.928   0.480   3.482
 2070SOL     OW 8309   2.891   0.738   3.389
 2070SOL    HW2 8310   2.959   0.790   3.432
 2070SOL    HW3 8311   2.809   0.769   3.428
 2070SOL    MW4 8312   2.889   0.749   3.400
 2071SOL     OW 8313   2.666   0.868   3.505
 2071SOL    HW2 8314   2.676   0.858   3.599
 2071SOL    HW3 8315   2.671   0.962   3.490
 2071SOL    MW4 8316   2.668   0.879   3.515
 2072SOL     OW 8317   2.687   1.142   3.408
 2072SOL    HW2 8318   2.758   1.203   3.430
 2072SOL    HW3 8319   2.686   1.140   3.312
 2072SOL    MW4 8320   2.696   1.150   3.398
 2073SOL     OW 8321   2.904   1.307   3.462
 2073SOL    HW2 8322   2.904   1.292   3.557
 2073SOL    HW3 8323   2.984   1.266   3.431
 2073SOL    MW4 8324   2.915   1.300   3.471
 2074SOL     OW 8325   2.845   1.549   3.376
 2074SOL    HW2 8326   2.777   1.586   3.433
 2074SOL    HW3 8327   2.857   1.459   3.409
 2074SOL    MW4 8328   2.838   1.542   3.388
 2075SOL     OW 8329   2.653   1.689   3.509
 2075SOL    HW2 8330   2.654   1.773   3.463
 2075SOL    HW3 8331   2.576   1.644   3.474
 2075SOL    MW4 8332   2.643   1.694   3.498
 2076SOL     OW 8333   2.664   1.909   3.365
 2076SOL    HW2 8334   2.592   1.968   3.387
 2076SOL    HW3 8335   2.658   1.898   3.270
 2076SOL    MW4 8336   2.654   1.915   3.355
 2077SOL     OW 8337   2.882   2.084   3.436
 2077SOL    HW2 8338   2.880   2.070   3.531
 2077SOL    HW3 8339   2.801   2.046   3.404
 2077SOL    MW4 8340   2.871   2.077   3.444
 2078SOL     OW 8341   2.885   2.345   3.351
 2078SOL    HW2 8342   2.894   2.253   3.376
 2078SOL    HW3 8343   2.911   2.348   3.259
 2078SOL    MW4 8344   2.890   2.333   3.342
 2079SOL     OW 8345   2.663   2.473   3.473
 2079SOL    HW2 8346   2.658   2.474   3.568
 2079SOL    HW3 8347   2.747   2.432   3.453
 2079SOL    MW4 8348   2.673   2.467   3.483
 2080SOL     OW 8349   2.660   2.749   3.422
 2080SOL    HW2 8350   2.647   2.656   3.441
 2080SOL    HW3 8351   2.584   2.792   3.462
 2080SOL    MW4 8352   2.648   2.743   3.430
 2081SOL     OW 8353   2.906   2.875   3.510
 2081SOL    HW2 8354   2.919   2.877   3.605
 2081SOL    HW3 8355   2.815   2.848   3.499
 2081SOL    MW4 8356   2.895   2.872   3.521
 2082SOL     OW 8357   2.925   3.135   3.384
 2082SOL    HW2 8358   2.924   3.043   3.411
 2082SOL    HW3 8359   2.933   3.132   3.289
 2082SOL    MW4 8360   2.926   3.122   3.375
 2083SOL     OW 8361   2.664   3.218   3.468
 2083SOL    HW2 8362   2.663   3.219   3.563
 2083SOL    HW3 8363   2.751   3.184   3.445
 2083SOL    MW4 8364   2.675   3.213   3.477
 2084SOL     OW 8365   2.673   3.482   3.360
 2084SOL    HW2 8366   2.676   3.398   3.405
 2084SOL    HW3 8367   2.597   3.527   3.398
 2084SOL    MW4 8368   2.663   3.477   3.371
 2085SOL     OW 8369   2.869   3.625   3.492
 2085SOL    HW2 8370   2.889   3.711   3.455
 2085SOL    HW3 8371   2.816   3.582   3.425
 2085SOL    MW4 8372   2.865   3.631   3.478
 2086SOL     OW 8373   2.902   3.865   3.379
 2086SOL    HW2 8374   2.974   3.913   3.420
 2086SOL    HW3 8375   2.823   3.910   3.409
 2086SOL    MW4 8376   2.901   3.877   3.388
 2087SOL     OW 8377   2.688   4.010   3.479
 2087SOL    HW2 8378   2.668   4.037   3.568
 2087SOL    HW3 8379   2.709   4.091   3.433
 2087SOL    MW4 8380   2.688   4.024   3.484
 2088SOL     OW 8381   2.710   4.259   3.337
 2088SOL    HW2 8382   2.786   4.301   3.376
 2088SOL    HW3 8383   2.637   4.283   3.393
 2088SOL    MW4 8384   2.710   4.267   3.349
 2089SOL     OW 8385   2.920   4.392   3.442
 2089SOL    HW2 8386   2.905   4.395   3.536
 2089SOL    HW3 8387   2.926   4.483   3.415
 2089SOL    MW4 8388   2.919   4.404   3.451
 2090SOL     OW 8389   3.375   0.008   3.407
 2090SOL    HW2 8390   3.299   0.062   3.430
 2090SOL    HW3 8391   3.375   0.007   3.311
 2090SOL    MW4 8392   3.365   0.015   3.397
 2091SOL     OW 8393   3.156   0.159   3.474
 2091SOL    HW2 8394   3.153   0.239   3.423
 2091SOL    HW3 8395   3.090   0.102   3.435
 2091SOL    MW4 8396   3.147   0.162   3.462
 2092SOL     OW 8397   3.182   0.403   3.347
 2092SOL    HW2 8398   3.094   0.433   3.374
 2092SOL    HW3 8399   3.177   0.399   3.252
 2092SOL    MW4 8400   3.170   0.407   3.338
 2093SOL     OW 8401   3.380   0.523   3.482
 2093SOL    HW2 8402   3.381   0.522   3.577
 2093SOL    HW3 8403   3.296   0.482   3.459
 2093SOL    MW4 8404   3.369   0.517   3.491
 2094SOL     OW 8405   3.364   0.780   3.352
 2094SOL    HW2 8406   3.427   0.829   3.404
 2094SOL    HW3 8407   3.368   0.691   3.387
 2094SOL    MW4 8408   3.373   0.774   3.364
 2095SOL     OW 8409   3.114   0.869   3.454
 2095SOL    HW2 8410   3.108   0.961   3.430
 2095SOL    HW3 8411   3.195   0.838   3.415
 2095SOL    MW4 8412   3.124   0.877   3.446
 2096SOL     OW 8413   3.114   1.130   3.397
 2096SOL    HW2 8414   3.195   1.170   3.430
 2096SOL    HW3 8415   3.124   1.131   3.302
 2096SOL    MW4 8416   3.126   1.136   3.389
 2097SOL     OW 8417   3.338   1.274   3.508
 2097SOL    HW2 8418   3.421   1.231   3.486
 2097SOL    HW3 8419   3.347   1.362   3.471
 2097SOL    MW4 8420   3.350   1.280   3.500
 2098SOL     OW 8421   3.352   1.554   3.413
 2098SOL    HW2 8422   3.407   1.611   3.467
 2098SOL    HW3 8423   3.263   1.585   3.428
 2098SOL    MW4 8424   3.348   1.566   3.422
 2099SOL     OW 8425   3.098   1.675   3.451
 2099SOL    HW2 8426   3.088   1.760   3.408
 2099SOL    HW3 8427   3.012   1.634   3.442
 2099SOL    MW4 8428   3.085   1.681   3.444
 2100SOL     OW 8429   3.077   1.931   3.345
 2100SOL    HW2 8430   3.001   1.979   3.376
 2100SOL    HW3 8431   3.072   1.935   3.250
 2100SOL    MW4 8432   3.067   1.938   3.337
 2101SOL     OW 8433   3.315   2.054   3.465
 2101SOL    HW2 8434   3.312   2.143   3.430
 2101SOL    HW3 8435   3.235   2.013   3.433
 2101SOL    MW4 8436   3.304   2.061   3.456
 2102SOL     OW 8437   3.328   2.324   3.387
 2102SOL    HW2 8438   3.405   2.356   3.434
 2102SOL    HW3 8439   3.254   2.362   3.434
 2102SOL    MW4 8440   3.329   2.333   3.399
 2103SOL     OW 8441   3.103   2.440   3.497
 2103SOL    HW2 8442   3.112   2.523   3.450
 2103SOL    HW3 8443   3.023   2.401   3.462
 2103SOL    MW4 8444   3.093   2.445   3.486
 2104SOL     OW 8445   3.115   2.693   3.394
 2104SOL    HW2 8446   3.189   2.730   3.442
 2104SOL    HW3 8447   3.038   2.730   3.437
 2104SOL    MW4 8448   3.115   2.703   3.406
 2105SOL     OW 8449   3.364   2.805   3.490
 2105SOL    HW2 8450   3.433   2.762   3.439
 2105SOL    HW3 8451   3.354   2.891   3.450
 2105SOL    MW4 8452   3.372   2.811   3.478
 2106SOL     OW 8453   3.365   3.054   3.384
 2106SOL    HW2 8454   3.445   3.089   3.423
 2106SOL    HW3 8455   3.294   3.103   3.426
 2106SOL    MW4 8456   3.366   3.065   3.395
 2107SOL     OW 8457   3.163   3.239   3.496
 2107SOL    HW2 8458   3.158   3.332   3.473
 2107SOL    HW3 8459   3.077   3.204   3.471
 2107SOL    MW4 8460   3.151   3.247   3.489
 2108SOL     OW 8461   3.143   3.503   3.414
 2108SOL    HW2 8462   3.063   3.542   3.449
 2108SOL    HW3 8463   3.129   3.501   3.319
 2108SOL    MW4 8464   3.130   3.508   3.406
 2109SOL     OW 8465   3.407   3.605   3.482
 2109SOL    HW2 8466   3.397   3.696   3.456
 2109SOL    HW3 8467   3.326   3.562   3.456
 2109SOL    MW4 8468   3.395   3.611   3.475
 2110SOL     OW 8469   3.387   3.851   3.354
 2110SOL    HW2 8470   3.455   3.911   3.384
 2110SOL    HW3 8471   3.304   3.893   3.378
 2110SOL    MW4 8472   3.385   3.864   3.361
 2111SOL     OW 8473   3.158   3.999   3.438
 2111SOL    HW2 8474   3.156   4.003   3.534
 2111SOL    HW3 8475   3.159   4.090   3.410
 2111SOL    MW4 8476   3.157   4.011   3.447
 2112SOL     OW 8477   3.152   4.268   3.363
 2112SOL    HW2 8478   3.228   4.310   3.402
 2112SOL    HW3 8479   3.077   4.319   3.395
 2112SOL    MW4 8480   3.152   4.280   3.373
 2113SOL     OW 8481   3.342   4.405   3.496
 2113SOL    HW2 8482   3.345   4.402   3.592
 2113SOL    HW3 8483   3.345   4.498   3.475
 2113SOL    MW4 8484   3.343   4.417   3.506
 2114SOL     OW 8485   3.816   0.005   3.423
 2114SOL    HW2 8486   3.740   0.059   3.444
 2114SOL    HW3 8487   3.808  -0.014   3.330
 2114SOL    MW4 8488   3.805   0.010   3.414
 2115SOL     OW 8489   3.608   0.155   3.487
 2115SOL    HW2 8490   3.600   0.239   3.442
 2115SOL    HW3 8491   3.527   0.108   3.465
 2115SOL    MW4 8492   3.596   0.160   3.478
 2116SOL     OW 8493   3.602   0.412   3.389
 2116SOL    HW2 8494   3.666   0.461   3.441
 2116SOL    HW3 8495   3.517   0.444   3.420
 2116SOL    MW4 8496   3.599   0.423   3.400
 2117SOL     OW 8497   3.824   0.548   3.517
 2117SOL    HW2 8498   3.828   0.532   3.611
 2117SOL    HW3 8499   3.877   0.478   3.478
 2117SOL    MW4 8500   3.832   0.537   3.524
 2118SOL     OW 8501   3.802   0.784   3.370
 2118SOL    HW2 8502   3.865   0.853   3.390
 2118SOL    HW3 8503   3.819   0.716   3.435
 2118SOL    MW4 8504   3.813   0.784   3.381
 2119SOL     OW 8505   3.578   0.881   3.495
 2119SOL    HW2 8506   3.582   0.849   3.585
 2119SOL    HW3 8507   3.655   0.844   3.453
 2119SOL    MW4 8508   3.588   0.872   3.501
 2120SOL     OW 8509   3.564   1.150   3.412
 2120SOL    HW2 8510   3.570   1.059   3.441
 2120SOL    HW3 8511   3.576   1.146   3.318
 2120SOL    MW4 8512   3.566   1.138   3.404
 2121SOL     OW 8513   3.783   1.303   3.461
 2121SOL    HW2 8514   3.781   1.305   3.557
 2121SOL    HW3 8515   3.703   1.255   3.437
 2121SOL    MW4 8516   3.772   1.297   3.471
 2122SOL     OW 8517   3.748   1.570   3.365
 2122SOL    HW2 8518   3.820   1.626   3.396
 2122SOL    HW3 8519   3.754   1.491   3.419
 2122SOL    MW4 8520   3.758   1.567   3.377
 2123SOL     OW 8521   3.555   1.694   3.549
 2123SOL    HW2 8522   3.538   1.774   3.499
 2123SOL    HW3 8523   3.602   1.637   3.488
 2123SOL    MW4 8524   3.559   1.697   3.534
 2124SOL     OW 8525   3.537   1.928   3.372
 2124SOL    HW2 8526   3.608   1.971   3.419
 2124SOL    HW3 8527   3.457   1.965   3.409
 2124SOL    MW4 8528   3.536   1.939   3.383
 2125SOL     OW 8529   3.759   2.062   3.499
 2125SOL    HW2 8530   3.770   2.059   3.594
 2125SOL    HW3 8531   3.836   2.018   3.464
 2125SOL    MW4 8532   3.770   2.056   3.507
 2126SOL     OW 8533   3.803   2.293   3.357
 2126SOL    HW2 8534   3.884   2.333   3.388
 2126SOL    HW3 8535   3.784   2.225   3.422
 2126SOL    MW4 8536   3.811   2.289   3.370
 2127SOL     OW 8537   3.561   2.427   3.504
 2127SOL    HW2 8538   3.560   2.512   3.460
 2127SOL    HW3 8539   3.623   2.375   3.454
 2127SOL    MW4 8540   3.569   2.432   3.491
 2128SOL     OW 8541   3.587   2.680   3.381
 2128SOL    HW2 8542   3.659   2.724   3.425
 2128SOL    HW3 8543   3.583   2.720   3.294
 2128SOL    MW4 8544   3.596   2.691   3.375
 2129SOL     OW 8545   3.812   2.840   3.493
 2129SOL    HW2 8546   3.838   2.858   3.583
 2129SOL    HW3 8547   3.819   2.924   3.448
 2129SOL    MW4 8548   3.816   2.853   3.499
 2130SOL     OW 8549   3.813   3.099   3.380
 2130SOL    HW2 8550   3.885   3.156   3.408
 2130SOL    HW3 8551   3.809   3.112   3.285
 2130SOL    MW4 8552   3.822   3.108   3.371
 2131SOL     OW 8553   3.582   3.185   3.489
 2131SOL    HW2 8554   3.571   3.271   3.449
 2131SOL    HW3 8555   3.664   3.152   3.454
 2131SOL    MW4 8556   3.591   3.192   3.479
 2132SOL     OW 8557   3.615   3.456   3.371
 2132SOL    HW2 8558   3.545   3.504   3.415
 2132SOL    HW3 8559   3.594   3.460   3.278
 2132SOL    MW4 8560   3.603   3.463   3.365
 2133SOL     OW 8561   3.828   3.610   3.459
 2133SOL    HW2 8562   3.831   3.610   3.555
 2133SOL    HW3 8563   3.761   3.546   3.437
 2133SOL    MW4 8564   3.820   3.602   3.469
 2134SOL     OW 8565   3.833   3.874   3.395
 2134SOL    HW2 8566   3.760   3.917   3.439
 2134SOL    HW3 8567   3.826   3.782   3.420
 2134SOL    MW4 8568   3.823   3.868   3.404
 2135SOL     OW 8569   3.583   4.011   3.476
 2135SOL    HW2 8570   3.593   4.016   3.571
 2135SOL    HW3 8571   3.569   4.101   3.448
 2135SOL    MW4 8572   3.583   4.023   3.484
 2136SOL     OW 8573   3.589   4.290   3.410
 2136SOL    HW2 8574   3.504   4.328   3.433
 2136SOL    HW3 8575   3.578   4.260   3.320
 2136SOL    MW4 8576   3.577   4.291   3.401
 2137SOL     OW 8577   3.828   4.417   3.528
 2137SOL    HW2 8578   3.754   4.366   3.494
 2137SOL    HW3 8579   3.810   4.507   3.500
 2137SOL    MW4 8580   3.815   4.422   3.520
 2138SOL     OW 8581   4.249   4.634   3.415
 2138SOL    HW2 8582   4.281   4.551   3.449
 2138SOL    HW3 8583   4.314   4.698   3.443
 2138SOL    MW4 8584   4.261   4.632   3.423
 2139SOL     OW 8585   4.047   0.143   3.518
 2139SOL    HW2 8586   4.115   0.089   3.476
 2139SOL    HW3 8587   3.965   0.106   3.487
 2139SOL    MW4 8588   4.045   0.131   3.509
 2140SOL     OW 8589   4.020   0.394   3.414
 2140SOL    HW2 8590   4.025   0.315   3.467
 2140SOL    HW3 8591   4.019   0.363   3.323
 2140SOL    MW4 8592   4.020   0.380   3.409
 2141SOL     OW 8593   4.241   0.562   3.511
 2141SOL    HW2 8594   4.235   0.644   3.462
 2141SOL    HW3 8595   4.167   0.510   3.479
 2141SOL    MW4 8596   4.230   0.566   3.500
 2142SOL     OW 8597   4.243   0.819   3.358
 2142SOL    HW2 8598   4.327   0.858   3.381
 2142SOL    HW3 8599   4.257   0.783   3.270
 2142SOL    MW4 8600   4.256   0.819   3.349
 2143SOL     OW 8601   4.002   0.951   3.471
 2143SOL    HW2 8602   3.998   1.045   3.455
 2143SOL    HW3 8603   4.086   0.923   3.434
 2143SOL    MW4 8604   4.013   0.959   3.464
 2144SOL     OW 8605   4.019   1.219   3.370
 2144SOL    HW2 8606   4.067   1.274   3.432
 2144SOL    HW3 8607   3.927   1.243   3.383
 2144SOL    MW4 8608   4.013   1.229   3.380
 2145SOL     OW 8609   4.237   1.331   3.506
 2145SOL    HW2 8610   4.243   1.411   3.453
 2145SOL    HW3 8611   4.303   1.273   3.469
 2145SOL    MW4 8612   4.246   1.334   3.494
 2146SOL     OW 8613   4.224   1.585   3.357
 2146SOL    HW2 8614   4.138   1.614   3.386
 2146SOL    HW3 8615   4.224   1.597   3.262
 2146SOL    MW4 8616   4.213   1.590   3.348
 2147SOL     OW 8617   3.983   1.687   3.454
 2147SOL    HW2 8618   3.999   1.688   3.548
 2147SOL    HW3 8619   3.995   1.778   3.427
 2147SOL    MW4 8620   3.987   1.699   3.462
 2148SOL     OW 8621   4.002   1.958   3.392
 2148SOL    HW2 8622   4.089   1.988   3.417
 2148SOL    HW3 8623   4.009   1.939   3.299
 2148SOL    MW4 8624   4.015   1.959   3.383
 2149SOL     OW 8625   4.256   2.054   3.467
 2149SOL    HW2 8626   4.263   2.149   3.455
 2149SOL    HW3 8627   4.340   2.019   3.436
 2149SOL    MW4 8628   4.268   2.062   3.461
 2150SOL     OW 8629   4.244   2.344   3.389
 2150SOL    HW2 8630   4.165   2.384   3.423
 2150SOL    HW3 8631   4.239   2.356   3.294
 2150SOL    MW4 8632   4.233   2.351   3.381
 2151SOL     OW 8633   4.018   2.447   3.495
 2151SOL    HW2 8634   4.003   2.438   3.589
 2151SOL    HW3 8635   4.015   2.541   3.479
 2151SOL    MW4 8636   4.016   2.458   3.505
 2152SOL     OW 8637   4.052   2.721   3.405
 2152SOL    HW2 8638   4.127   2.772   3.438
 2152SOL    HW3 8639   3.975   2.764   3.442
 2152SOL    MW4 8640   4.052   2.733   3.414
 2153SOL     OW 8641   4.273   2.862   3.492
 2153SOL    HW2 8642   4.290   2.854   3.585
 2153SOL    HW3 8643   4.356   2.840   3.449
 2153SOL    MW4 8644   4.286   2.858   3.498
 2154SOL     OW 8645   4.244   3.130   3.403
 2154SOL    HW2 8646   4.228   3.040   3.429
 2154SOL    HW3 8647   4.246   3.128   3.308
 2154SOL    MW4 8648   4.242   3.118   3.394
 2155SOL     OW 8649   4.007   3.276   3.464
 2155SOL    HW2 8650   4.018   3.360   3.421
 2155SOL    HW3 8651   4.089   3.230   3.448
 2155SOL    MW4 8652   4.019   3.281   3.456
 2156SOL     OW 8653   4.055   3.522   3.331
 2156SOL    HW2 8654   4.127   3.551   3.387
 2156SOL    HW3 8655   3.976   3.552   3.376
 2156SOL    MW4 8656   4.054   3.530   3.344
 2157SOL     OW 8657   4.268   3.618   3.478
 2157SOL    HW2 8658   4.277   3.607   3.572
 2157SOL    HW3 8659   4.281   3.712   3.463
 2157SOL    MW4 8660   4.271   3.629   3.488
 2158SOL     OW 8661   4.297   3.895   3.418
 2158SOL    HW2 8662   4.382   3.921   3.451
 2158SOL    HW3 8663   4.312   3.874   3.326
 2158SOL    MW4 8664   4.310   3.896   3.410
 2159SOL     OW 8665   4.045   4.028   3.489
 2159SOL    HW2 8666   4.131   4.002   3.456
 2159SOL    HW3 8667   3.983   3.977   3.436
 2159SOL    MW4 8668   4.048   4.018   3.477
 2160SOL     OW 8669   4.040   4.294   3.405
 2160SOL    HW2 8670   4.040   4.207   3.445
 2160SOL    HW3 8671   3.957   4.333   3.432
 2160SOL    MW4 8672   4.029   4.288   3.414
 2161SOL     OW 8673   4.287   4.363   3.496
 2161SOL    HW2 8674   4.295   4.369   3.591
 2161SOL    HW3 8675   4.193   4.351   3.480
 2161SOL    MW4 8676   4.275   4.362   3.506
 2162SOL     OW 8677   0.192   0.003   3.881
 2162SOL    HW2 8678   0.174   0.010   3.975
 2162SOL    HW3 8679   0.110   0.032   3.839
 2162SOL    MW4 8680   0.179   0.008   3.888
 2163SOL     OW 8681   4.437   0.098   3.767
 2163SOL    HW2 8682   4.437   0.191   3.791
 2163SOL    HW3 8683   4.423   0.099   3.672
 2163SOL    MW4 8684   4.435   0.111   3.757
 2164SOL     OW 8685   4.441   0.341   3.893
 2164SOL    HW2 8686   4.364   0.387   3.861
 2164SOL    HW3 8687   4.515   0.386   3.851
 2164SOL    MW4 8688   4.441   0.353   3.883
 2165SOL     OW 8689   0.204   0.501   3.764
 2165SOL    HW2 8690   0.183   0.591   3.788
 2165SOL    HW3 8691   0.197   0.500   3.668
 2165SOL    MW4 8692   0.201   0.513   3.755
 2166SOL     OW 8693   0.197   0.788   3.856
 2166SOL    HW2 8694   0.203   0.783   3.951
 2166SOL    HW3 8695   0.126   0.850   3.839
 2166SOL    MW4 8696   0.188   0.796   3.866
 2167SOL     OW 8697   4.465   0.921   3.748
 2167SOL    HW2 8698   4.382   0.879   3.773
 2167SOL    HW3 8699   4.459   1.009   3.785
 2167SOL    MW4 8700   4.453   0.927   3.756
 2168SOL     OW 8701   4.483   1.165   3.861
 2168SOL    HW2 8702   4.406   1.215   3.833
 2168SOL    HW3 8703   4.558   1.218   3.831
 2168SOL    MW4 8704   4.483   1.179   3.853
 2169SOL     OW 8705   0.193   1.316   3.722
 2169SOL    HW2 8706   0.196   1.401   3.767
 2169SOL    HW3 8707   0.191   1.338   3.629
 2169SOL    MW4 8708   0.193   1.330   3.716
 2170SOL     OW 8709   0.200   1.559   3.849
 2170SOL    HW2 8710   0.196   1.545   3.944
 2170SOL    HW3 8711   0.109   1.571   3.823
 2170SOL    MW4 8712   0.188   1.559   3.858
 2171SOL     OW 8713   4.438   1.632   3.749
 2171SOL    HW2 8714   4.433   1.722   3.782
 2171SOL    HW3 8715   4.447   1.642   3.654
 2171SOL    MW4 8716   4.438   1.645   3.741
 2172SOL     OW 8717   4.460   1.902   3.838
 2172SOL    HW2 8718   4.469   1.895   3.933
 2172SOL    HW3 8719   4.383   1.957   3.825
 2172SOL    MW4 8720   4.451   1.908   3.849
 2173SOL     OW 8721   0.158   2.076   3.717
 2173SOL    HW2 8722   0.155   2.153   3.774
 2173SOL    HW3 8723   0.089   2.019   3.752
 2173SOL    MW4 8724   0.148   2.079   3.729
 2174SOL     OW 8725   0.246   2.338   3.839
 2174SOL    HW2 8726   0.236   2.320   3.932
 2174SOL    HW3 8727   0.168   2.388   3.816
 2174SOL    MW4 8728   0.235   2.342   3.848
 2175SOL     OW 8729   0.027   2.489   3.767
 2175SOL    HW2 8730  -0.042   2.432   3.801
 2175SOL    HW3 8731   0.017   2.571   3.816
 2175SOL    MW4 8732   0.017   2.493   3.778
 2176SOL     OW 8733   0.021   2.735   3.895
 2176SOL    HW2 8734   0.025   2.727   3.991
 2176SOL    HW3 8735   0.107   2.769   3.870
 2176SOL    MW4 8736   0.033   2.739   3.905
 2177SOL     OW 8737   0.291   2.851   3.783
 2177SOL    HW2 8738   0.367   2.794   3.797
 2177SOL    HW3 8739   0.297   2.876   3.691
 2177SOL    MW4 8740   0.302   2.847   3.772
 2178SOL     OW 8741   0.229   3.095   3.867
 2178SOL    HW2 8742   0.222   3.083   3.961
 2178SOL    HW3 8743   0.264   3.012   3.835
 2178SOL    MW4 8744   0.233   3.083   3.875
 2179SOL     OW 8745   4.469   3.167   3.748
 2179SOL    HW2 8746   4.548   3.119   3.776
 2179SOL    HW3 8747   4.478   3.173   3.653
 2179SOL    MW4 8748   4.481   3.161   3.739
 2180SOL     OW 8749   0.006   3.438   3.869
 2180SOL    HW2 8750   0.078   3.484   3.824
 2180SOL    HW3 8751   0.012   3.349   3.836
 2180SOL    MW4 8752   0.017   3.433   3.859
 2181SOL     OW 8753   0.229   3.594   3.755
 2181SOL    HW2 8754   0.306   3.547   3.786
 2181SOL    HW3 8755   0.231   3.677   3.803
 2181SOL    MW4 8756   0.239   3.599   3.766
 2182SOL     OW 8757   0.263   3.839   3.882
 2182SOL    HW2 8758   0.278   3.836   3.976
 2182SOL    HW3 8759   0.331   3.897   3.847
 2182SOL    MW4 8760   0.274   3.846   3.890
 2183SOL     OW 8761   0.011   3.981   3.818
 2183SOL    HW2 8762  -0.069   3.928   3.818
 2183SOL    HW3 8763   0.080   3.920   3.842
 2183SOL    MW4 8764   0.009   3.966   3.821
 2184SOL     OW 8765   0.032   4.263   3.899
 2184SOL    HW2 8766   0.114   4.286   3.855
 2184SOL    HW3 8767   0.021   4.169   3.881
 2184SOL    MW4 8768   0.041   4.254   3.891
 2185SOL     OW 8769   0.264   4.373   3.812
 2185SOL    HW2 8770   0.319   4.314   3.864
 2185SOL    HW3 8771   0.275   4.459   3.853
 2185SOL    MW4 8772   0.273   4.377   3.824
 2186SOL     OW 8773   0.605   0.007   3.888
 2186SOL    HW2 8774   0.591  -0.073   3.838
 2186SOL    HW3 8775   0.539   0.069   3.856
 2186SOL    MW4 8776   0.595   0.005   3.878
 2187SOL     OW 8777   0.392   0.144   3.770
 2187SOL    HW2 8778   0.391   0.231   3.809
 2187SOL    HW3 8779   0.315   0.100   3.807
 2187SOL    MW4 8780   0.382   0.150   3.780
 2188SOL     OW 8781   0.436   0.405   3.860
 2188SOL    HW2 8782   0.508   0.447   3.812
 2188SOL    HW3 8783   0.357   0.449   3.827
 2188SOL    MW4 8784   0.435   0.416   3.850
 2189SOL     OW 8785   0.638   0.528   3.709
 2189SOL    HW2 8786   0.716   0.477   3.732
 2189SOL    HW3 8787   0.645   0.607   3.763
 2189SOL    MW4 8788   0.649   0.532   3.719
 2190SOL     OW 8789   0.638   0.789   3.836
 2190SOL    HW2 8790   0.701   0.839   3.784
 2190SOL    HW3 8791   0.553   0.824   3.812
 2190SOL    MW4 8792   0.635   0.800   3.826
 2191SOL     OW 8793   0.416   0.910   3.738
 2191SOL    HW2 8794   0.405   0.991   3.788
 2191SOL    HW3 8795   0.341   0.856   3.764
 2191SOL    MW4 8796   0.405   0.913   3.748
 2192SOL     OW 8797   0.384   1.155   3.856
 2192SOL    HW2 8798   0.462   1.193   3.816
 2192SOL    HW3 8799   0.311   1.202   3.816
 2192SOL    MW4 8800   0.385   1.166   3.846
 2193SOL     OW 8801   0.610   1.278   3.729
 2193SOL    HW2 8802   0.699   1.254   3.756
 2193SOL    HW3 8803   0.607   1.259   3.635
 2193SOL    MW4 8804   0.622   1.272   3.720
 2194SOL     OW 8805   0.634   1.549   3.808
 2194SOL    HW2 8806   0.722   1.585   3.796
 2194SOL    HW3 8807   0.640   1.460   3.775
 2194SOL    MW4 8808   0.646   1.542   3.802
 2195SOL     OW 8809   0.392   1.700   3.720
 2195SOL    HW2 8810   0.478   1.665   3.742
 2195SOL    HW3 8811   0.331   1.650   3.775
 2195SOL    MW4 8812   0.395   1.689   3.730
 2196SOL     OW 8813   0.398   1.979   3.818
 2196SOL    HW2 8814   0.393   1.893   3.777
 2196SOL    HW3 8815   0.320   2.025   3.788
 2196SOL    MW4 8816   0.387   1.974   3.809
 2197SOL     OW 8817   0.657   2.022   3.729
 2197SOL    HW2 8818   0.684   2.109   3.757
 2197SOL    HW3 8819   0.562   2.019   3.744
 2197SOL    MW4 8820   0.648   2.033   3.734
 2198SOL     OW 8821   0.685   2.299   3.835
 2198SOL    HW2 8822   0.764   2.322   3.785
 2198SOL    HW3 8823   0.615   2.351   3.796
 2198SOL    MW4 8824   0.687   2.309   3.823
 2199SOL     OW 8825   0.484   2.439   3.711
 2199SOL    HW2 8826   0.409   2.404   3.758
 2199SOL    HW3 8827   0.455   2.444   3.620
 2199SOL    MW4 8828   0.470   2.435   3.705
 2200SOL     OW 8829   0.501   2.683   3.851
 2200SOL    HW2 8830   0.565   2.745   3.817
 2200SOL    HW3 8831   0.501   2.611   3.788
 2200SOL    MW4 8832   0.509   2.682   3.838
 2201SOL     OW 8833   0.685   2.834   3.719
 2201SOL    HW2 8834   0.771   2.793   3.730
 2201SOL    HW3 8835   0.662   2.820   3.627
 2201SOL    MW4 8836   0.693   2.827   3.709
 2202SOL     OW 8837   0.693   3.078   3.871
 2202SOL    HW2 8838   0.698   3.061   3.965
 2202SOL    HW3 8839   0.677   2.992   3.832
 2202SOL    MW4 8840   0.692   3.064   3.878
 2203SOL     OW 8841   0.467   3.199   3.755
 2203SOL    HW2 8842   0.521   3.156   3.822
 2203SOL    HW3 8843   0.377   3.181   3.781
 2203SOL    MW4 8844   0.462   3.191   3.768
 2204SOL     OW 8845   0.458   3.462   3.847
 2204SOL    HW2 8846   0.532   3.504   3.803
 2204SOL    HW3 8847   0.455   3.374   3.810
 2204SOL    MW4 8848   0.468   3.456   3.836
 2205SOL     OW 8849   0.674   3.604   3.726
 2205SOL    HW2 8850   0.697   3.697   3.730
 2205SOL    HW3 8851   0.678   3.582   3.632
 2205SOL    MW4 8852   0.678   3.613   3.714
 2206SOL     OW 8853   0.704   3.880   3.819
 2206SOL    HW2 8854   0.707   3.867   3.913
 2206SOL    HW3 8855   0.761   3.955   3.803
 2206SOL    MW4 8856   0.712   3.888   3.829
 2207SOL     OW 8857   0.450   3.989   3.771
 2207SOL    HW2 8858   0.527   3.941   3.803
 2207SOL    HW3 8859   0.460   3.990   3.676
 2207SOL    MW4 8860   0.462   3.983   3.763
 2208SOL     OW 8861   0.476   4.211   3.944
 2208SOL    HW2 8862   0.533   4.276   3.901
 2208SOL    HW3 8863   0.471   4.139   3.882
 2208SOL    MW4 8864   0.483   4.210   3.930
 2209SOL     OW 8865   0.621   4.410   3.758
 2209SOL    HW2 8866   0.708   4.380   3.785
 2209SOL    HW3 8867   0.611   4.380   3.668
 2209SOL    MW4 8868   0.631   4.402   3.750
 2210SOL     OW 8869   1.076   0.032   3.879
 2210SOL    HW2 8870   1.158   0.069   3.848
 2210SOL    HW3 8871   1.073  -0.056   3.840
 2210SOL    MW4 8872   1.086   0.025   3.870
 2211SOL     OW 8873   0.827   0.126   3.789
 2211SOL    HW2 8874   0.911   0.101   3.829
 2211SOL    HW3 8875   0.761   0.083   3.843
 2211SOL    MW4 8876   0.829   0.117   3.801
 2212SOL     OW 8877   0.851   0.384   3.821
 2212SOL    HW2 8878   0.833   0.382   3.915
 2212SOL    HW3 8879   0.852   0.292   3.795
 2212SOL    MW4 8880   0.849   0.372   3.830
 2213SOL     OW 8881   1.082   0.513   3.771
 2213SOL    HW2 8882   1.162   0.475   3.806
 2213SOL    HW3 8883   1.012   0.456   3.802
 2213SOL    MW4 8884   1.083   0.501   3.780
 2214SOL     OW 8885   1.113   0.808   3.859
 2214SOL    HW2 8886   1.105   0.816   3.954
 2214SOL    HW3 8887   1.088   0.718   3.840
 2214SOL    MW4 8888   1.109   0.797   3.869
 2215SOL     OW 8889   0.881   0.910   3.731
 2215SOL    HW2 8890   0.972   0.887   3.749
 2215SOL    HW3 8891   0.874   0.910   3.635
 2215SOL    MW4 8892   0.892   0.907   3.721
 2216SOL     OW 8893   0.870   1.172   3.804
 2216SOL    HW2 8894   0.854   1.182   3.898
 2216SOL    HW3 8895   0.863   1.077   3.789
 2216SOL    MW4 8896   0.867   1.161   3.815
 2217SOL     OW 8897   1.121   1.306   3.732
 2217SOL    HW2 8898   1.108   1.390   3.775
 2217SOL    HW3 8899   1.041   1.257   3.752
 2217SOL    MW4 8900   1.109   1.310   3.740
 2218SOL     OW 8901   1.116   1.532   3.884
 2218SOL    HW2 8902   1.118   1.550   3.978
 2218SOL    HW3 8903   1.203   1.555   3.853
 2218SOL    MW4 8904   1.128   1.538   3.892
 2219SOL     OW 8905   0.892   1.649   3.775
 2219SOL    HW2 8906   0.969   1.605   3.812
 2219SOL    HW3 8907   0.905   1.644   3.680
 2219SOL    MW4 8908   0.904   1.642   3.767
 2220SOL     OW 8909   0.884   1.917   3.866
 2220SOL    HW2 8910   0.888   1.828   3.833
 2220SOL    HW3 8911   0.800   1.951   3.835
 2220SOL    MW4 8912   0.874   1.910   3.857
 2221SOL     OW 8913   1.072   2.085   3.733
 2221SOL    HW2 8914   1.008   2.032   3.781
 2221SOL    HW3 8915   1.040   2.085   3.643
 2221SOL    MW4 8916   1.059   2.078   3.728
 2222SOL     OW 8917   1.162   2.345   3.830
 2222SOL    HW2 8918   1.166   2.346   3.925
 2222SOL    HW3 8919   1.140   2.255   3.807
 2222SOL    MW4 8920   1.159   2.333   3.839
 2223SOL     OW 8921   0.933   2.423   3.718
 2223SOL    HW2 8922   0.924   2.517   3.735
 2223SOL    HW3 8923   1.009   2.397   3.770
 2223SOL    MW4 8924   0.942   2.432   3.727
 2224SOL     OW 8925   0.924   2.699   3.770
 2224SOL    HW2 8926   0.910   2.717   3.863
 2224SOL    HW3 8927   1.004   2.747   3.748
 2224SOL    MW4 8928   0.933   2.707   3.780
 2225SOL     OW 8929   1.161   2.846   3.704
 2225SOL    HW2 8930   1.234   2.817   3.759
 2225SOL    HW3 8931   1.142   2.934   3.735
 2225SOL    MW4 8932   1.168   2.854   3.716
 2226SOL     OW 8933   1.082   3.111   3.766
 2226SOL    HW2 8934   1.157   3.170   3.764
 2226SOL    HW3 8935   1.007   3.166   3.744
 2226SOL    MW4 8936   1.082   3.126   3.763
 2227SOL     OW 8937   0.847   3.258   3.731
 2227SOL    HW2 8938   0.780   3.196   3.763
 2227SOL    HW3 8939   0.858   3.235   3.639
 2227SOL    MW4 8940   0.839   3.246   3.723
 2228SOL     OW 8941   0.867   3.490   3.903
 2228SOL    HW2 8942   0.863   3.399   3.872
 2228SOL    HW3 8943   0.797   3.535   3.855
 2228SOL    MW4 8944   0.857   3.484   3.893
 2229SOL     OW 8945   1.100   3.635   3.772
 2229SOL    HW2 8946   1.104   3.727   3.797
 2229SOL    HW3 8947   1.028   3.600   3.824
 2229SOL    MW4 8948   1.091   3.643   3.782
 2230SOL     OW 8949   1.117   3.905   3.827
 2230SOL    HW2 8950   1.120   3.923   3.921
 2230SOL    HW3 8951   1.187   3.960   3.790
 2230SOL    MW4 8952   1.127   3.915   3.834
 2231SOL     OW 8953   0.893   4.055   3.745
 2231SOL    HW2 8954   0.973   4.005   3.764
 2231SOL    HW3 8955   0.893   4.064   3.649
 2231SOL    MW4 8956   0.904   4.049   3.735
 2232SOL     OW 8957   0.854   4.313   3.861
 2232SOL    HW2 8958   0.894   4.312   3.948
 2232SOL    HW3 8959   0.876   4.228   3.823
 2232SOL    MW4 8960   0.862   4.302   3.867
 2233SOL     OW 8961   1.073   4.452   3.759
 2233SOL    HW2 8962   0.984   4.418   3.769
 2233SOL    HW3 8963   1.084   4.464   3.665
 2233SOL    MW4 8964   1.063   4.449   3.748
 2234SOL     OW 8965   1.566   0.039   3.870
 2234SOL    HW2 8966   1.553   0.036   3.965
 2234SOL    HW3 8967   1.559  -0.052   3.841
 2234SOL    MW4 8968   1.563   0.027   3.879
 2235SOL     OW 8969   1.308   0.140   3.790
 2235SOL    HW2 8970   1.306   0.227   3.828
 2235SOL    HW3 8971   1.390   0.101   3.820
 2235SOL    MW4 8972   1.318   0.146   3.799
 2236SOL     OW 8973   1.307   0.406   3.870
 2236SOL    HW2 8974   1.300   0.401   3.965
 2236SOL    HW3 8975   1.400   0.423   3.853
 2236SOL    MW4 8976   1.318   0.408   3.880
 2237SOL     OW 8977   1.566   0.509   3.834
 2237SOL    HW2 8978   1.656   0.483   3.850
 2237SOL    HW3 8979   1.559   0.596   3.872
 2237SOL    MW4 8980   1.577   0.517   3.841
 2238SOL     OW 8981   1.522   0.766   3.940
 2238SOL    HW2 8982   1.605   0.804   3.912
 2238SOL    HW3 8983   1.462   0.782   3.867
 2238SOL    MW4 8984   1.525   0.773   3.927
 2239SOL     OW 8985   1.344   0.883   3.740
 2239SOL    HW2 8986   1.347   0.974   3.769
 2239SOL    HW3 8987   1.269   0.846   3.787
 2239SOL    MW4 8988   1.334   0.890   3.750
 2240SOL     OW 8989   1.324   1.125   3.870
 2240SOL    HW2 8990   1.398   1.170   3.829
 2240SOL    HW3 8991   1.246   1.163   3.830
 2240SOL    MW4 8992   1.324   1.136   3.860
 2241SOL     OW 8993   1.566   1.256   3.768
 2241SOL    HW2 8994   1.650   1.220   3.796
 2241SOL    HW3 8995   1.553   1.332   3.825
 2241SOL    MW4 8996   1.575   1.261   3.779
 2242SOL     OW 8997   1.508   1.517   3.872
 2242SOL    HW2 8998   1.512   1.521   3.968
 2242SOL    HW3 8999   1.593   1.550   3.844
 2242SOL    MW4 9000   1.520   1.522   3.881
 2243SOL     OW 9001   1.317   1.657   3.719
 2243SOL    HW2 9002   1.330   1.744   3.755
 2243SOL    HW3 9003   1.385   1.604   3.760
 2243SOL    MW4 9004   1.328   1.661   3.730
 2244SOL     OW 9005   1.321   1.930   3.843
 2244SOL    HW2 9006   1.311   1.922   3.938
 2244SOL    HW3 9007   1.239   1.969   3.813
 2244SOL    MW4 9008   1.309   1.934   3.851
 2245SOL     OW 9009   1.557   2.094   3.801
 2245SOL    HW2 9010   1.469   2.065   3.825
 2245SOL    HW3 9011   1.558   2.094   3.706
 2245SOL    MW4 9012   1.546   2.090   3.792
 2246SOL     OW 9013   1.604   2.357   3.870
 2246SOL    HW2 9014   1.688   2.387   3.836
 2246SOL    HW3 9015   1.595   2.268   3.837
 2246SOL    MW4 9016   1.614   2.349   3.861
 2247SOL     OW 9017   1.387   2.472   3.751
 2247SOL    HW2 9018   1.466   2.447   3.798
 2247SOL    HW3 9019   1.330   2.395   3.755
 2247SOL    MW4 9020   1.390   2.458   3.757
 2248SOL     OW 9021   1.369   2.732   3.848
 2248SOL    HW2 9022   1.366   2.734   3.944
 2248SOL    HW3 9023   1.366   2.639   3.826
 2248SOL    MW4 9024   1.369   2.720   3.858
 2249SOL     OW 9025   1.596   2.855   3.734
 2249SOL    HW2 9026   1.520   2.812   3.773
 2249SOL    HW3 9027   1.582   2.846   3.639
 2249SOL    MW4 9028   1.584   2.848   3.726
 2250SOL     OW 9029   1.571   3.118   3.838
 2250SOL    HW2 9030   1.554   3.112   3.932
 2250SOL    HW3 9031   1.568   3.027   3.808
 2250SOL    MW4 9032   1.568   3.105   3.847
 2251SOL     OW 9033   1.333   3.251   3.723
 2251SOL    HW2 9034   1.338   3.340   3.758
 2251SOL    HW3 9035   1.411   3.207   3.759
 2251SOL    MW4 9036   1.344   3.257   3.732
 2252SOL     OW 9037   1.328   3.491   3.828
 2252SOL    HW2 9038   1.379   3.567   3.801
 2252SOL    HW3 9039   1.237   3.517   3.816
 2252SOL    MW4 9040   1.323   3.504   3.823
 2253SOL     OW 9041   1.524   3.676   3.766
 2253SOL    HW2 9042   1.601   3.628   3.797
 2253SOL    HW3 9043   1.537   3.765   3.800
 2253SOL    MW4 9044   1.536   3.681   3.774
 2254SOL     OW 9045   1.561   3.931   3.836
 2254SOL    HW2 9046   1.565   3.949   3.930
 2254SOL    HW3 9047   1.481   3.975   3.806
 2254SOL    MW4 9048   1.551   3.939   3.844
 2255SOL     OW 9049   1.333   4.046   3.742
 2255SOL    HW2 9050   1.337   4.139   3.764
 2255SOL    HW3 9051   1.337   4.044   3.647
 2255SOL    MW4 9052   1.334   4.058   3.733
 2256SOL     OW 9053   1.328   4.311   3.827
 2256SOL    HW2 9054   1.413   4.342   3.796
 2256SOL    HW3 9055   1.265   4.359   3.774
 2256SOL    MW4 9056   1.331   4.322   3.816
 2257SOL     OW 9057   1.549   4.449   3.750
 2257SOL    HW2 9058   1.631   4.402   3.766
 2257SOL    HW3 9059   1.531   4.434   3.657
 2257SOL    MW4 9060   1.558   4.441   3.740
 2258SOL     OW 9061   2.037   0.005   3.910
 2258SOL    HW2 9062   2.108   0.058   3.873
 2258SOL    HW3 9063   2.033  -0.073   3.853
 2258SOL    MW4 9064   2.046   0.001   3.897
 2259SOL     OW 9065   1.821   0.130   3.783
 2259SOL    HW2 9066   1.889   0.075   3.822
 2259SOL    HW3 9067   1.740   0.101   3.825
 2259SOL    MW4 9068   1.819   0.119   3.794
 2260SOL     OW 9069   1.819   0.407   3.876
 2260SOL    HW2 9070   1.811   0.396   3.971
 2260SOL    HW3 9071   1.812   0.319   3.840
 2260SOL    MW4 9072   1.817   0.394   3.884
 2261SOL     OW 9073   2.085   0.492   3.803
 2261SOL    HW2 9074   2.004   0.450   3.830
 2261SOL    HW3 9075   2.076   0.504   3.708
 2261SOL    MW4 9076   2.073   0.488   3.794
 2262SOL     OW 9077   2.016   0.737   3.888
 2262SOL    HW2 9078   2.009   0.721   3.982
 2262SOL    HW3 9079   2.025   0.651   3.849
 2262SOL    MW4 9080   2.016   0.724   3.895
 2263SOL     OW 9081   1.764   0.864   3.837
 2263SOL    HW2 9082   1.847   0.819   3.852
 2263SOL    HW3 9083   1.753   0.863   3.742
 2263SOL    MW4 9084   1.774   0.858   3.827
 2264SOL     OW 9085   1.798   1.127   3.879
 2264SOL    HW2 9086   1.769   1.132   3.970
 2264SOL    HW3 9087   1.790   1.034   3.857
 2264SOL    MW4 9088   1.793   1.115   3.888
 2265SOL     OW 9089   2.016   1.293   3.785
 2265SOL    HW2 9090   2.086   1.243   3.828
 2265SOL    HW3 9091   1.935   1.254   3.818
 2265SOL    MW4 9092   2.015   1.281   3.795
 2266SOL     OW 9093   2.013   1.569   3.787
 2266SOL    HW2 9094   1.920   1.588   3.774
 2266SOL    HW3 9095   2.024   1.479   3.755
 2266SOL    MW4 9096   2.002   1.559   3.781
 2267SOL     OW 9097   1.737   1.628   3.781
 2267SOL    HW2 9098   1.739   1.719   3.811
 2267SOL    HW3 9099   1.740   1.634   3.686
 2267SOL    MW4 9100   1.737   1.641   3.773
 2268SOL     OW 9101   1.766   1.903   3.848
 2268SOL    HW2 9102   1.799   1.910   3.937
 2268SOL    HW3 9103   1.698   1.969   3.842
 2268SOL    MW4 9104   1.761   1.912   3.859
 2269SOL     OW 9105   2.002   2.038   3.756
 2269SOL    HW2 9106   1.920   2.001   3.791
 2269SOL    HW3 9107   1.999   2.019   3.663
 2269SOL    MW4 9108   1.991   2.030   3.749
 2270SOL     OW 9109   2.049   2.327   3.821
 2270SOL    HW2 9110   1.959   2.352   3.798
 2270SOL    HW3 9111   2.064   2.245   3.774
 2270SOL    MW4 9112   2.039   2.320   3.812
 2271SOL     OW 9113   1.830   2.480   3.769
 2271SOL    HW2 9114   1.841   2.569   3.801
 2271SOL    HW3 9115   1.838   2.487   3.674
 2271SOL    MW4 9116   1.833   2.492   3.760
 2272SOL     OW 9117   1.852   2.811   3.813
 2272SOL    HW2 9118   1.836   2.794   3.906
 2272SOL    HW3 9119   1.765   2.830   3.777
 2272SOL    MW4 9120   1.838   2.812   3.820
 2273SOL     OW 9121   2.078   2.887   3.697
 2273SOL    HW2 9122   2.149   2.854   3.752
 2273SOL    HW3 9123   1.999   2.851   3.735
 2273SOL    MW4 9124   2.077   2.878   3.709
 2274SOL     OW 9125   1.998   3.104   3.826
 2274SOL    HW2 9126   2.009   3.020   3.782
 2274SOL    HW3 9127   2.083   3.147   3.816
 2274SOL    MW4 9128   2.011   3.099   3.819
 2275SOL     OW 9129   1.785   3.265   3.751
 2275SOL    HW2 9130   1.855   3.203   3.772
 2275SOL    HW3 9131   1.706   3.227   3.791
 2275SOL    MW4 9132   1.784   3.252   3.759
 2276SOL     OW 9133   1.743   3.525   3.853
 2276SOL    HW2 9134   1.830   3.565   3.844
 2276SOL    HW3 9135   1.756   3.433   3.831
 2276SOL    MW4 9136   1.757   3.519   3.849
 2277SOL     OW 9137   2.001   3.627   3.802
 2277SOL    HW2 9138   2.081   3.574   3.812
 2277SOL    HW3 9139   1.987   3.632   3.708
 2277SOL    MW4 9140   2.010   3.621   3.791
 2278SOL     OW 9141   1.997   3.919   3.853
 2278SOL    HW2 9142   2.086   3.953   3.845
 2278SOL    HW3 9143   2.005   3.826   3.833
 2278SOL    MW4 9144   2.010   3.911   3.849
 2279SOL     OW 9145   1.787   4.048   3.703
 2279SOL    HW2 9146   1.855   3.990   3.739
 2279SOL    HW3 9147   1.706   4.015   3.742
 2279SOL    MW4 9148   1.785   4.036   3.713
 2280SOL     OW 9149   1.808   4.299   3.817
 2280SOL    HW2 9150   1.881   4.349   3.780
 2280SOL    HW3 9151   1.820   4.211   3.783
 2280SOL    MW4 9152   1.820   4.294   3.808
 2281SOL     OW 9153   2.018   4.448   3.727
 2281SOL    HW2 9154   2.083   4.384   3.756
 2281SOL    HW3 9155   2.009   4.432   3.633
 2281SOL    MW4 9156   2.026   4.437   3.719
 2282SOL     OW 9157   2.424   4.645   3.855
 2282SOL    HW2 9158   2.423   4.642   3.951
 2282SOL    HW3 9159   2.507   4.686   3.833
 2282SOL    MW4 9160   2.435   4.650   3.865
 2283SOL     OW 9161   2.234   0.125   3.759
 2283SOL    HW2 9162   2.300   0.061   3.781
 2283SOL    HW3 9163   2.236   0.129   3.663
 2283SOL    MW4 9164   2.243   0.117   3.749
 2284SOL     OW 9165   2.304   0.353   3.901
 2284SOL    HW2 9166   2.303   0.266   3.861
 2284SOL    HW3 9167   2.219   0.391   3.877
 2284SOL    MW4 9168   2.292   0.347   3.892
 2285SOL     OW 9169   2.511   0.489   3.780
 2285SOL    HW2 9170   2.437   0.441   3.816
 2285SOL    HW3 9171   2.505   0.475   3.685
 2285SOL    MW4 9172   2.501   0.481   3.772
 2286SOL     OW 9173   2.482   0.770   3.907
 2286SOL    HW2 9174   2.409   0.819   3.869
 2286SOL    HW3 9175   2.475   0.683   3.870
 2286SOL    MW4 9176   2.472   0.765   3.897
 2287SOL     OW 9177   2.238   0.871   3.809
 2287SOL    HW2 9178   2.168   0.815   3.842
 2287SOL    HW3 9179   2.226   0.869   3.714
 2287SOL    MW4 9180   2.227   0.864   3.801
 2288SOL     OW 9181   2.222   1.145   3.880
 2288SOL    HW2 9182   2.232   1.159   3.974
 2288SOL    HW3 9183   2.228   1.051   3.868
 2288SOL    MW4 9184   2.224   1.135   3.891
 2289SOL     OW 9185   2.453   1.255   3.779
 2289SOL    HW2 9186   2.448   1.346   3.810
 2289SOL    HW3 9187   2.371   1.216   3.808
 2289SOL    MW4 9188   2.442   1.262   3.787
 2290SOL     OW 9189   2.407   1.507   3.876
 2290SOL    HW2 9190   2.488   1.532   3.831
 2290SOL    HW3 9191   2.345   1.576   3.852
 2290SOL    MW4 9192   2.410   1.520   3.867
 2291SOL     OW 9193   2.239   1.686   3.759
 2291SOL    HW2 9194   2.230   1.772   3.800
 2291SOL    HW3 9195   2.158   1.640   3.781
 2291SOL    MW4 9196   2.227   1.692   3.767
 2292SOL     OW 9197   2.260   1.945   3.886
 2292SOL    HW2 9198   2.258   1.942   3.981
 2292SOL    HW3 9199   2.178   1.989   3.862
 2292SOL    MW4 9200   2.249   1.951   3.895
 2293SOL     OW 9201   2.459   2.085   3.775
 2293SOL    HW2 9202   2.455   2.176   3.805
 2293SOL    HW3 9203   2.390   2.041   3.824
 2293SOL    MW4 9204   2.449   2.092   3.785
 2294SOL     OW 9205   2.440   2.362   3.802
 2294SOL    HW2 9206   2.521   2.402   3.770
 2294SOL    HW3 9207   2.372   2.424   3.776
 2294SOL    MW4 9208   2.441   2.376   3.794
 2295SOL     OW 9209   2.223   2.534   3.735
 2295SOL    HW2 9210   2.157   2.477   3.774
 2295SOL    HW3 9211   2.211   2.524   3.640
 2295SOL    MW4 9212   2.213   2.526   3.728
 2296SOL     OW 9213   2.267   2.772   3.871
 2296SOL    HW2 9214   2.235   2.774   3.961
 2296SOL    HW3 9215   2.258   2.680   3.845
 2296SOL    MW4 9216   2.261   2.760   3.879
 2297SOL     OW 9217   2.521   2.861   3.787
 2297SOL    HW2 9218   2.441   2.826   3.827
 2297SOL    HW3 9219   2.499   2.874   3.695
 2297SOL    MW4 9220   2.507   2.858   3.780
 2298SOL     OW 9221   2.463   3.118   3.882
 2298SOL    HW2 9222   2.448   3.102   3.975
 2298SOL    HW3 9223   2.474   3.031   3.844
 2298SOL    MW4 9224   2.462   3.105   3.889
 2299SOL     OW 9225   2.231   3.245   3.773
 2299SOL    HW2 9226   2.228   3.339   3.790
 2299SOL    HW3 9227   2.303   3.213   3.827
 2299SOL    MW4 9228   2.240   3.253   3.782
 2300SOL     OW 9229   2.262   3.508   3.870
 2300SOL    HW2 9230   2.268   3.500   3.965
 2300SOL    HW3 9231   2.322   3.579   3.848
 2300SOL    MW4 9232   2.270   3.516   3.879
 2301SOL     OW 9233   2.474   3.678   3.748
 2301SOL    HW2 9234   2.540   3.616   3.777
 2301SOL    HW3 9235   2.464   3.660   3.654
 2301SOL    MW4 9236   2.481   3.667   3.739
 2302SOL     OW 9237   2.487   3.924   3.896
 2302SOL    HW2 9238   2.544   3.988   3.854
 2302SOL    HW3 9239   2.507   3.841   3.851
 2302SOL    MW4 9240   2.498   3.921   3.885
 2303SOL     OW 9241   2.253   4.009   3.807
 2303SOL    HW2 9242   2.332   3.966   3.839
 2303SOL    HW3 9243   2.255   3.994   3.712
 2303SOL    MW4 9244   2.264   4.002   3.799
 2304SOL     OW 9245   2.209   4.277   3.815
 2304SOL    HW2 9246   2.205   4.282   3.910
 2304SOL    HW3 9247   2.229   4.185   3.797
 2304SOL    MW4 9248   2.211   4.265   3.825
 2305SOL     OW 9249   2.459   4.370   3.743
 2305SOL    HW2 9250   2.374   4.332   3.766
 2305SOL    HW3 9251   2.452   4.462   3.767
 2305SOL    MW4 9252   2.447   4.377   3.750
 2306SOL     OW 9253   2.905   4.638   3.835
 2306SOL    HW2 9254   2.882   4.629   3.928
 2306SOL    HW3 9255   2.971   4.708   3.834
 2306SOL    MW4 9256   2.910   4.646   3.847
 2307SOL     OW 9257   2.659   0.100   3.764
 2307SOL    HW2 9258   2.738   0.055   3.796
 2307SOL    HW3 9259   2.667   0.097   3.669
 2307SOL    MW4 9260   2.671   0.093   3.756
 2308SOL     OW 9261   2.738   0.379   3.864
 2308SOL    HW2 9262   2.720   0.299   3.815
 2308SOL    HW3 9263   2.668   0.439   3.837
 2308SOL    MW4 9264   2.726   0.377   3.854
 2309SOL     OW 9265   2.954   0.515   3.762
 2309SOL    HW2 9266   3.032   0.465   3.787
 2309SOL    HW3 9267   2.881   0.466   3.801
 2309SOL    MW4 9268   2.954   0.502   3.771
 2310SOL     OW 9269   2.938   0.747   3.877
 2310SOL    HW2 9270   3.017   0.791   3.847
 2310SOL    HW3 9271   2.945   0.658   3.843
 2310SOL    MW4 9272   2.949   0.741   3.869
 2311SOL     OW 9273   2.709   0.869   3.798
 2311SOL    HW2 9274   2.786   0.834   3.842
 2311SOL    HW3 9275   2.635   0.823   3.838
 2311SOL    MW4 9276   2.709   0.858   3.809
 2312SOL     OW 9277   2.696   1.144   3.854
 2312SOL    HW2 9278   2.705   1.051   3.834
 2312SOL    HW3 9279   2.611   1.168   3.820
 2312SOL    MW4 9280   2.686   1.135   3.847
 2313SOL     OW 9281   2.899   1.291   3.731
 2313SOL    HW2 9282   2.891   1.381   3.764
 2313SOL    HW3 9283   2.831   1.243   3.778
 2313SOL    MW4 9284   2.889   1.297   3.742
 2314SOL     OW 9285   2.893   1.568   3.873
 2314SOL    HW2 9286   2.907   1.539   3.963
 2314SOL    HW3 9287   2.977   1.605   3.846
 2314SOL    MW4 9288   2.906   1.569   3.882
 2315SOL     OW 9289   2.633   1.635   3.773
 2315SOL    HW2 9290   2.724   1.615   3.797
 2315SOL    HW3 9291   2.636   1.647   3.678
 2315SOL    MW4 9292   2.646   1.634   3.764
 2316SOL     OW 9293   2.685   1.904   3.875
 2316SOL    HW2 9294   2.659   1.820   3.837
 2316SOL    HW3 9295   2.623   1.967   3.837
 2316SOL    MW4 9296   2.673   1.901   3.865
 2317SOL     OW 9297   2.884   2.058   3.751
 2317SOL    HW2 9298   2.871   2.146   3.787
 2317SOL    HW3 9299   2.822   2.003   3.799
 2317SOL    MW4 9300   2.874   2.062   3.762
 2318SOL     OW 9301   2.901   2.306   3.882
 2318SOL    HW2 9302   2.888   2.337   3.972
 2318SOL    HW3 9303   2.978   2.353   3.851
 2318SOL    MW4 9304   2.909   2.316   3.890
 2319SOL     OW 9305   2.694   2.472   3.730
 2319SOL    HW2 9306   2.704   2.562   3.762
 2319SOL    HW3 9307   2.756   2.421   3.782
 2319SOL    MW4 9308   2.704   2.477   3.741
 2320SOL     OW 9309   2.736   2.711   3.852
 2320SOL    HW2 9310   2.713   2.688   3.942
 2320SOL    HW3 9311   2.661   2.762   3.821
 2320SOL    MW4 9312   2.723   2.715   3.860
 2321SOL     OW 9313   2.940   2.858   3.787
 2321SOL    HW2 9314   2.927   2.938   3.837
 2321SOL    HW3 9315   2.869   2.800   3.816
 2321SOL    MW4 9316   2.929   2.861   3.798
 2322SOL     OW 9317   2.915   3.107   3.896
 2322SOL    HW2 9318   2.987   3.154   3.853
 2322SOL    HW3 9319   2.836   3.151   3.865
 2322SOL    MW4 9320   2.914   3.119   3.887
 2323SOL     OW 9321   2.686   3.214   3.740
 2323SOL    HW2 9322   2.688   3.303   3.775
 2323SOL    HW3 9323   2.613   3.172   3.786
 2323SOL    MW4 9324   2.677   3.221   3.750
 2324SOL     OW 9325   2.674   3.484   3.826
 2324SOL    HW2 9326   2.676   3.482   3.922
 2324SOL    HW3 9327   2.760   3.517   3.801
 2324SOL    MW4 9328   2.686   3.488   3.836
 2325SOL     OW 9329   2.922   3.614   3.760
 2325SOL    HW2 9330   3.005   3.569   3.775
 2325SOL    HW3 9331   2.906   3.604   3.666
 2325SOL    MW4 9332   2.931   3.607   3.750
 2326SOL     OW 9333   2.904   3.893   3.791
 2326SOL    HW2 9334   2.889   3.896   3.885
 2326SOL    HW3 9335   2.922   3.801   3.772
 2326SOL    MW4 9336   2.904   3.881   3.801
 2327SOL     OW 9337   2.689   4.065   3.751
 2327SOL    HW2 9338   2.707   4.141   3.805
 2327SOL    HW3 9339   2.768   4.011   3.759
 2327SOL    MW4 9340   2.702   4.068   3.759
 2328SOL     OW 9341   2.681   4.297   3.904
 2328SOL    HW2 9342   2.754   4.336   3.857
 2328SOL    HW3 9343   2.603   4.333   3.862
 2328SOL    MW4 9344   2.680   4.307   3.892
 2329SOL     OW 9345   2.885   4.394   3.724
 2329SOL    HW2 9346   2.957   4.350   3.770
 2329SOL    HW3 9347   2.892   4.485   3.752
 2329SOL    MW4 9348   2.896   4.400   3.734
 2330SOL     OW 9349   3.369   0.023   3.853
 2330SOL    HW2 9350   3.355   0.022   3.948
 2330SOL    HW3 9351   3.437   0.089   3.840
 2330SOL    MW4 9352   3.376   0.032   3.864
 2331SOL     OW 9353   3.127   0.116   3.747
 2331SOL    HW2 9354   3.214   0.082   3.770
 2331SOL    HW3 9355   3.131   0.131   3.653
 2331SOL    MW4 9356   3.139   0.113   3.738
 2332SOL     OW 9357   3.181   0.360   3.870
 2332SOL    HW2 9358   3.144   0.350   3.957
 2332SOL    HW3 9359   3.162   0.276   3.826
 2332SOL    MW4 9360   3.174   0.347   3.876
 2333SOL     OW 9361   3.390   0.489   3.764
 2333SOL    HW2 9362   3.463   0.462   3.819
 2333SOL    HW3 9363   3.314   0.445   3.803
 2333SOL    MW4 9364   3.390   0.480   3.776
 2334SOL     OW 9365   3.329   0.726   3.869
 2334SOL    HW2 9366   3.331   0.710   3.963
 2334SOL    HW3 9367   3.349   0.641   3.829
 2334SOL    MW4 9368   3.332   0.713   3.876
 2335SOL     OW 9369   3.153   0.898   3.775
 2335SOL    HW2 9370   3.226   0.843   3.803
 2335SOL    HW3 9371   3.151   0.889   3.680
 2335SOL    MW4 9372   3.162   0.890   3.766
 2336SOL     OW 9373   3.135   1.191   3.867
 2336SOL    HW2 9374   3.124   1.099   3.843
 2336SOL    HW3 9375   3.056   1.234   3.832
 2336SOL    MW4 9376   3.123   1.184   3.859
 2337SOL     OW 9377   3.368   1.308   3.794
 2337SOL    HW2 9378   3.295   1.253   3.824
 2337SOL    HW3 9379   3.353   1.316   3.699
 2337SOL    MW4 9380   3.356   1.301   3.785
 2338SOL     OW 9381   3.312   1.566   3.881
 2338SOL    HW2 9382   3.234   1.594   3.833
 2338SOL    HW3 9383   3.326   1.475   3.855
 2338SOL    MW4 9384   3.304   1.558   3.871
 2339SOL     OW 9385   3.122   1.694   3.753
 2339SOL    HW2 9386   3.127   1.789   3.766
 2339SOL    HW3 9387   3.123   1.683   3.658
 2339SOL    MW4 9388   3.123   1.705   3.743
 2340SOL     OW 9389   3.111   1.949   3.837
 2340SOL    HW2 9390   3.116   1.930   3.931
 2340SOL    HW3 9391   3.029   1.997   3.827
 2340SOL    MW4 9392   3.101   1.953   3.848
 2341SOL     OW 9393   3.336   2.066   3.743
 2341SOL    HW2 9394   3.251   2.026   3.763
 2341SOL    HW3 9395   3.332   2.084   3.649
 2341SOL    MW4 9396   3.324   2.063   3.733
 2342SOL     OW 9397   3.365   2.324   3.895
 2342SOL    HW2 9398   3.283   2.366   3.869
 2342SOL    HW3 9399   3.360   2.236   3.857
 2342SOL    MW4 9400   3.354   2.318   3.887
 2343SOL     OW 9401   3.138   2.441   3.761
 2343SOL    HW2 9402   3.139   2.533   3.788
 2343SOL    HW3 9403   3.122   2.445   3.666
 2343SOL    MW4 9404   3.136   2.454   3.752
 2344SOL     OW 9405   3.154   2.695   3.863
 2344SOL    HW2 9406   3.149   2.704   3.959
 2344SOL    HW3 9407   3.085   2.753   3.830
 2344SOL    MW4 9408   3.144   2.704   3.872
 2345SOL     OW 9409   3.391   2.859   3.764
 2345SOL    HW2 9410   3.319   2.807   3.799
 2345SOL    HW3 9411   3.398   2.832   3.673
 2345SOL    MW4 9412   3.382   2.849   3.757
 2346SOL     OW 9413   3.346   3.073   3.916
 2346SOL    HW2 9414   3.423   3.126   3.898
 2346SOL    HW3 9415   3.355   2.997   3.858
 2346SOL    MW4 9416   3.357   3.070   3.906
 2347SOL     OW 9417   3.149   3.205   3.778
 2347SOL    HW2 9418   3.215   3.147   3.814
 2347SOL    HW3 9419   3.160   3.200   3.684
 2347SOL    MW4 9420   3.159   3.197   3.771
 2348SOL     OW 9421   3.144   3.483   3.864
 2348SOL    HW2 9422   3.231   3.514   3.837
 2348SOL    HW3 9423   3.145   3.389   3.844
 2348SOL    MW4 9424   3.156   3.475   3.858
 2349SOL     OW 9425   3.384   3.602   3.759
 2349SOL    HW2 9426   3.367   3.695   3.774
 2349SOL    HW3 9427   3.405   3.596   3.665
 2349SOL    MW4 9428   3.385   3.613   3.748
 2350SOL     OW 9429   3.369   3.876   3.815
 2350SOL    HW2 9430   3.445   3.927   3.789
 2350SOL    HW3 9431   3.295   3.917   3.769
 2350SOL    MW4 9432   3.369   3.888   3.805
 2351SOL     OW 9433   3.147   4.018   3.709
 2351SOL    HW2 9434   3.145   4.098   3.762
 2351SOL    HW3 9435   3.061   3.977   3.725
 2351SOL    MW4 9436   3.135   4.023   3.718
 2352SOL     OW 9437   3.108   4.268   3.858
 2352SOL    HW2 9438   3.096   4.286   3.951
 2352SOL    HW3 9439   3.188   4.316   3.835
 2352SOL    MW4 9440   3.117   4.277   3.867
 2353SOL     OW 9441   3.347   4.416   3.785
 2353SOL    HW2 9442   3.432   4.371   3.786
 2353SOL    HW3 9443   3.364   4.499   3.831
 2353SOL    MW4 9444   3.361   4.421   3.791
 2354SOL     OW 9445   3.765   4.661   3.888
 2354SOL    HW2 9446   3.843   4.699   3.846
 2354SOL    HW3 9447   3.771   4.567   3.867
 2354SOL    MW4 9448   3.776   4.653   3.880
 2355SOL     OW 9449   3.588   0.179   3.758
 2355SOL    HW2 9450   3.646   0.114   3.798
 2355SOL    HW3 9451   3.589   0.157   3.665
 2355SOL    MW4 9452   3.596   0.167   3.751
 2356SOL     OW 9453   3.620   0.407   3.901
 2356SOL    HW2 9454   3.694   0.448   3.857
 2356SOL    HW3 9455   3.608   0.324   3.855
 2356SOL    MW4 9456   3.628   0.402   3.889
 2357SOL     OW 9457   3.848   0.510   3.778
 2357SOL    HW2 9458   3.907   0.453   3.828
 2357SOL    HW3 9459   3.846   0.592   3.827
 2357SOL    MW4 9460   3.856   0.513   3.791
 2358SOL     OW 9461   3.837   0.755   3.875
 2358SOL    HW2 9462   3.899   0.800   3.817
 2358SOL    HW3 9463   3.751   0.782   3.844
 2358SOL    MW4 9464   3.834   0.765   3.864
 2359SOL     OW 9465   3.581   0.834   3.778
 2359SOL    HW2 9466   3.573   0.928   3.797
 2359SOL    HW3 9467   3.502   0.795   3.817
 2359SOL    MW4 9468   3.569   0.841   3.786
 2360SOL     OW 9469   3.598   1.124   3.792
 2360SOL    HW2 9470   3.660   1.176   3.742
 2360SOL    HW3 9471   3.517   1.175   3.791
 2360SOL    MW4 9472   3.595   1.138   3.785
 2361SOL     OW 9473   3.788   1.315   3.725
 2361SOL    HW2 9474   3.858   1.259   3.758
 2361SOL    HW3 9475   3.782   1.386   3.789
 2361SOL    MW4 9476   3.796   1.317   3.738
 2362SOL     OW 9477   3.790   1.560   3.855
 2362SOL    HW2 9478   3.801   1.573   3.949
 2362SOL    HW3 9479   3.709   1.606   3.834
 2362SOL    MW4 9480   3.781   1.568   3.865
 2363SOL     OW 9481   3.555   1.714   3.823
 2363SOL    HW2 9482   3.489   1.648   3.847
 2363SOL    HW3 9483   3.563   1.706   3.728
 2363SOL    MW4 9484   3.547   1.704   3.814
 2364SOL     OW 9485   3.574   2.002   3.892
 2364SOL    HW2 9486   3.581   1.909   3.874
 2364SOL    HW3 9487   3.498   2.031   3.842
 2364SOL    MW4 9488   3.565   1.994   3.883
 2365SOL     OW 9489   3.811   2.104   3.757
 2365SOL    HW2 9490   3.890   2.067   3.796
 2365SOL    HW3 9491   3.739   2.054   3.797
 2365SOL    MW4 9492   3.812   2.092   3.768
 2366SOL     OW 9493   3.804   2.361   3.874
 2366SOL    HW2 9494   3.715   2.388   3.855
 2366SOL    HW3 9495   3.811   2.273   3.836
 2366SOL    MW4 9496   3.793   2.353   3.866
 2367SOL     OW 9497   3.566   2.482   3.778
 2367SOL    HW2 9498   3.488   2.433   3.805
 2367SOL    HW3 9499   3.579   2.457   3.687
 2367SOL    MW4 9500   3.557   2.472   3.770
 2368SOL     OW 9501   3.609   2.742   3.870
 2368SOL    HW2 9502   3.591   2.652   3.841
 2368SOL    HW3 9503   3.533   2.792   3.839
 2368SOL    MW4 9504   3.596   2.737   3.862
 2369SOL     OW 9505   3.839   2.855   3.765
 2369SOL    HW2 9506   3.913   2.803   3.797
 2369SOL    HW3 9507   3.762   2.802   3.785
 2369SOL    MW4 9508   3.839   2.841   3.772
 2370SOL     OW 9509   3.790   3.124   3.863
 2370SOL    HW2 9510   3.704   3.163   3.848
 2370SOL    HW3 9511   3.779   3.032   3.838
 2370SOL    MW4 9512   3.777   3.117   3.857
 2371SOL     OW 9513   3.544   3.234   3.770
 2371SOL    HW2 9514   3.560   3.325   3.791
 2371SOL    HW3 9515   3.558   3.228   3.676
 2371SOL    MW4 9516   3.548   3.245   3.760
 2372SOL     OW 9517   3.611   3.486   3.843
 2372SOL    HW2 9518   3.605   3.473   3.938
 2372SOL    HW3 9519   3.529   3.529   3.819
 2372SOL    MW4 9520   3.600   3.490   3.852
 2373SOL     OW 9521   3.844   3.620   3.742
 2373SOL    HW2 9522   3.849   3.709   3.776
 2373SOL    HW3 9523   3.762   3.585   3.777
 2373SOL    MW4 9524   3.834   3.627   3.751
 2374SOL     OW 9525   3.822   3.876   3.855
 2374SOL    HW2 9526   3.830   3.888   3.950
 2374SOL    HW3 9527   3.900   3.919   3.819
 2374SOL    MW4 9528   3.834   3.883   3.863
 2375SOL     OW 9529   3.603   4.014   3.754
 2375SOL    HW2 9530   3.595   4.092   3.809
 2375SOL    HW3 9531   3.674   3.964   3.793
 2375SOL    MW4 9532   3.611   4.018   3.767
 2376SOL     OW 9533   3.594   4.277   3.870
 2376SOL    HW2 9534   3.579   4.272   3.965
 2376SOL    HW3 9535   3.679   4.319   3.861
 2376SOL    MW4 9536   3.603   4.282   3.881
 2377SOL     OW 9537   3.837   4.392   3.819
 2377SOL    HW2 9538   3.923   4.349   3.827
 2377SOL    HW3 9539   3.824   4.402   3.725
 2377SOL    MW4 9540   3.847   4.388   3.808
 2378SOL     OW 9541   4.238   4.607   3.888
 2378SOL    HW2 9542   4.232   4.633   3.980
 2378SOL    HW3 9543   4.306   4.663   3.852
 2378SOL    MW4 9544   4.246   4.618   3.895
 2379SOL     OW 9545   4.010   0.087   3.787
 2379SOL    HW2 9546   4.094   0.061   3.825
 2379SOL    HW3 9547   4.030   0.102   3.694
 2379SOL    MW4 9548   4.024   0.085   3.780
 2380SOL     OW 9549   4.055   0.352   3.897
 2380SOL    HW2 9550   4.035   0.339   3.990
 2380SOL    HW3 9551   4.051   0.264   3.860
 2380SOL    MW4 9552   4.052   0.338   3.904
 2381SOL     OW 9553   4.255   0.523   3.785
 2381SOL    HW2 9554   4.183   0.464   3.809
 2381SOL    HW3 9555   4.250   0.529   3.690
 2381SOL    MW4 9556   4.245   0.516   3.776
 2382SOL     OW 9557   4.238   0.799   3.874
 2382SOL    HW2 9558   4.163   0.831   3.824
 2382SOL    HW3 9559   4.249   0.708   3.845
 2382SOL    MW4 9560   4.230   0.791   3.864
 2383SOL     OW 9561   4.013   0.915   3.743
 2383SOL    HW2 9562   4.033   1.004   3.772
 2383SOL    HW3 9563   4.009   0.921   3.648
 2383SOL    MW4 9564   4.015   0.927   3.734
 2384SOL     OW 9565   4.011   1.183   3.840
 2384SOL    HW2 9566   4.001   1.177   3.935
 2384SOL    HW3 9567   4.093   1.232   3.828
 2384SOL    MW4 9568   4.021   1.189   3.851
 2385SOL     OW 9569   4.267   1.298   3.776
 2385SOL    HW2 9570   4.264   1.381   3.825
 2385SOL    HW3 9571   4.249   1.323   3.686
 2385SOL    MW4 9572   4.264   1.313   3.771
 2386SOL     OW 9573   4.226   1.543   3.892
 2386SOL    HW2 9574   4.149   1.573   3.844
 2386SOL    HW3 9575   4.300   1.572   3.840
 2386SOL    MW4 9576   4.226   1.551   3.879
 2387SOL     OW 9577   4.016   1.680   3.741
 2387SOL    HW2 9578   4.022   1.767   3.781
 2387SOL    HW3 9579   3.934   1.645   3.774
 2387SOL    MW4 9580   4.006   1.687   3.751
 2388SOL     OW 9581   4.028   1.930   3.845
 2388SOL    HW2 9582   4.040   1.909   3.938
 2388SOL    HW3 9583   4.111   1.970   3.819
 2388SOL    MW4 9584   4.041   1.933   3.854
 2389SOL     OW 9585   4.250   2.054   3.750
 2389SOL    HW2 9586   4.274   2.146   3.759
 2389SOL    HW3 9587   4.249   2.038   3.656
 2389SOL    MW4 9588   4.253   2.064   3.739
 2390SOL     OW 9589   4.292   2.311   3.832
 2390SOL    HW2 9590   4.283   2.298   3.926
 2390SOL    HW3 9591   4.214   2.360   3.808
 2390SOL    MW4 9592   4.281   2.316   3.841
 2391SOL     OW 9593   4.042   2.453   3.773
 2391SOL    HW2 9594   4.051   2.544   3.801
 2391SOL    HW3 9595   3.962   2.423   3.817
 2391SOL    MW4 9596   4.033   2.461   3.783
 2392SOL     OW 9597   4.050   2.717   3.842
 2392SOL    HW2 9598   4.065   2.721   3.936
 2392SOL    HW3 9599   4.135   2.741   3.803
 2392SOL    MW4 9600   4.063   2.720   3.849
 2393SOL     OW 9601   4.295   2.838   3.760
 2393SOL    HW2 9602   4.272   2.920   3.803
 2393SOL    HW3 9603   4.373   2.808   3.806
 2393SOL    MW4 9604   4.302   2.845   3.771
 2394SOL     OW 9605   4.220   3.085   3.860
 2394SOL    HW2 9606   4.155   3.140   3.815
 2394SOL    HW3 9607   4.304   3.117   3.829
 2394SOL    MW4 9608   4.222   3.097   3.850
 2395SOL     OW 9609   4.018   3.225   3.728
 2395SOL    HW2 9610   3.931   3.187   3.743
 2395SOL    HW3 9611   4.019   3.248   3.635
 2395SOL    MW4 9612   4.006   3.223   3.718
 2396SOL     OW 9613   4.043   3.456   3.869
 2396SOL    HW2 9614   4.036   3.377   3.815
 2396SOL    HW3 9615   3.977   3.515   3.834
 2396SOL    MW4 9616   4.033   3.453   3.857
 2397SOL     OW 9617   4.274   3.546   3.763
 2397SOL    HW2 9618   4.197   3.517   3.811
 2397SOL    HW3 9619   4.345   3.490   3.793
 2397SOL    MW4 9620   4.273   3.535   3.773
 2398SOL     OW 9621   4.277   3.823   3.846
 2398SOL    HW2 9622   4.201   3.852   3.796
 2398SOL    HW3 9623   4.282   3.729   3.831
 2398SOL    MW4 9624   4.268   3.815   3.838
 2399SOL     OW 9625   4.058   3.974   3.758
 2399SOL    HW2 9626   4.062   4.065   3.788
 2399SOL    HW3 9627   4.055   3.980   3.662
 2399SOL    MW4 9628   4.059   3.987   3.749
 2400SOL     OW 9629   4.066   4.230   3.861
 2400SOL    HW2 9630   4.077   4.257   3.952
 2400SOL    HW3 9631   4.144   4.263   3.816
 2400SOL    MW4 9632   4.077   4.238   3.867
 2401SOL     OW 9633   4.299   4.365   3.762
 2401SOL    HW2 9634   4.275   4.445   3.809
 2401SOL    HW3 9635   4.370   4.327   3.814
 2401SOL    MW4 9636   4.306   4.371   3.775
 2402SOL     OW 9637   0.189   0.007   4.146
 2402SOL    HW2 9638   0.270   0.036   4.189
 2402SOL    HW3 9639   0.181  -0.085   4.171
 2402SOL    MW4 9640   0.199  -0.002   4.155
 2403SOL     OW 9641   4.454   0.136   4.275
 2403SOL    HW2 9642   4.450   0.097   4.363
 2403SOL    HW3 9643   4.531   0.095   4.235
 2403SOL    MW4 9644   4.464   0.125   4.282
 2404SOL     OW 9645   4.446   0.401   4.169
 2404SOL    HW2 9646   4.465   0.323   4.221
 2404SOL    HW3 9647   4.442   0.369   4.079
 2404SOL    MW4 9648   4.448   0.386   4.164
 2405SOL     OW 9649   0.208   0.487   4.224
 2405SOL    HW2 9650   0.269   0.418   4.197
 2405SOL    HW3 9651   0.122   0.454   4.200
 2405SOL    MW4 9652   0.205   0.473   4.218
 2406SOL     OW 9653   0.176   0.764   4.156
 2406SOL    HW2 9654   0.092   0.797   4.186
 2406SOL    HW3 9655   0.184   0.678   4.198
 2406SOL    MW4 9656   0.166   0.757   4.166
 2407SOL     OW 9657   4.448   0.876   4.272
 2407SOL    HW2 9658   4.365   0.839   4.242
 2407SOL    HW3 9659   4.448   0.966   4.238
 2407SOL    MW4 9660   4.437   0.883   4.263
 2408SOL     OW 9661   4.408   1.125   4.138
 2408SOL    HW2 9662   4.486   1.161   4.180
 2408SOL    HW3 9663   4.423   1.138   4.044
 2408SOL    MW4 9664   4.420   1.132   4.131
 2409SOL     OW 9665   0.143   1.241   4.272
 2409SOL    HW2 9666   0.161   1.242   4.366
 2409SOL    HW3 9667   0.230   1.232   4.232
 2409SOL    MW4 9668   0.157   1.240   4.279
 2410SOL     OW 9669   0.503   1.749   4.722
 2410SOL    HW2 9670   0.448   1.813   4.767
 2410SOL    HW3 9671   0.461   1.736   4.637
 2410SOL    MW4 9672   0.490   1.756   4.717
 2411SOL     OW 9673   0.038   1.682   4.246
 2411SOL    HW2 9674  -0.047   1.650   4.218
 2411SOL    HW3 9675   0.041   1.773   4.216
 2411SOL    MW4 9676   0.027   1.690   4.238
 2412SOL     OW 9677   0.191   2.063   4.245
 2412SOL    HW2 9678   0.165   2.075   4.337
 2412SOL    HW3 9679   0.267   2.004   4.249
 2412SOL    MW4 9680   0.198   2.056   4.258
 2413SOL     OW 9681   0.476   1.403   4.592
 2413SOL    HW2 9682   0.468   1.483   4.541
 2413SOL    HW3 9683   0.450   1.429   4.681
 2413SOL    MW4 9684   0.471   1.417   4.597
 2414SOL     OW 9685   0.203   2.313   4.104
 2414SOL    HW2 9686   0.283   2.351   4.142
 2414SOL    HW3 9687   0.203   2.222   4.135
 2414SOL    MW4 9688   0.214   2.306   4.113
 2415SOL     OW 9689   4.480   2.437   4.212
 2415SOL    HW2 9690   4.399   2.392   4.191
 2415SOL    HW3 9691   4.549   2.382   4.174
 2415SOL    MW4 9692   4.479   2.424   4.204
 2416SOL     OW 9693   0.005   2.712   4.158
 2416SOL    HW2 9694   0.079   2.754   4.203
 2416SOL    HW3 9695   0.009   2.621   4.186
 2416SOL    MW4 9696   0.016   2.706   4.168
 2417SOL     OW 9697   0.253   2.833   4.246
 2417SOL    HW2 9698   0.317   2.775   4.204
 2417SOL    HW3 9699   0.257   2.914   4.196
 2417SOL    MW4 9700   0.262   2.836   4.234
 2418SOL     OW 9701   0.249   3.092   4.157
 2418SOL    HW2 9702   0.331   3.117   4.199
 2418SOL    HW3 9703   0.188   3.161   4.181
 2418SOL    MW4 9704   0.252   3.104   4.166
 2419SOL     OW 9705   0.020   3.239   4.195
 2419SOL    HW2 9706  -0.060   3.199   4.160
 2419SOL    HW3 9707   0.008   3.333   4.182
 2419SOL    MW4 9708   0.008   3.246   4.189
 2420SOL     OW 9709   4.449   3.515   4.146
 2420SOL    HW2 9710   4.375   3.566   4.181
 2420SOL    HW3 9711   4.440   3.522   4.051
 2420SOL    MW4 9712   4.438   3.523   4.138
 2421SOL     OW 9713   0.216   3.618   4.204
 2421SOL    HW2 9714   0.280   3.555   4.173
 2421SOL    HW3 9715   0.132   3.585   4.173
 2421SOL    MW4 9716   0.213   3.606   4.196
 2422SOL     OW 9717   0.052   3.947   4.222
 2422SOL    HW2 9718  -0.029   3.912   4.185
 2422SOL    HW3 9719   0.067   3.896   4.301
 2422SOL    MW4 9720   0.043   3.935   4.227
 2423SOL     OW 9721   0.051   3.852   4.486
 2423SOL    HW2 9722   0.074   3.760   4.498
 2423SOL    HW3 9723  -0.043   3.850   4.466
 2423SOL    MW4 9724   0.042   3.839   4.485
 2424SOL     OW 9725   4.472   4.219   4.172
 2424SOL    HW2 9726   4.498   4.128   4.187
 2424SOL    HW3 9727   4.480   4.231   4.077
 2424SOL    MW4 9728   4.477   4.209   4.161
 2425SOL     OW 9729   0.209   4.384   4.244
 2425SOL    HW2 9730   0.205   4.413   4.336
 2425SOL    HW3 9731   0.126   4.338   4.231
 2425SOL    MW4 9732   0.197   4.382   4.255
 2426SOL     OW 9733   0.598   4.574   4.147
 2426SOL    HW2 9734   0.548   4.639   4.197
 2426SOL    HW3 9735   0.576   4.591   4.056
 2426SOL    MW4 9736   0.589   4.585   4.142
 2427SOL     OW 9737   0.431   0.088   4.267
 2427SOL    HW2 9738   0.439   0.107   4.360
 2427SOL    HW3 9739   0.447   0.172   4.223
 2427SOL    MW4 9740   0.434   0.102   4.273
 2428SOL     OW 9741   0.427   0.335   4.128
 2428SOL    HW2 9742   0.486   0.400   4.166
 2428SOL    HW3 9743   0.425   0.357   4.035
 2428SOL    MW4 9744   0.434   0.347   4.121
 2429SOL     OW 9745   0.633   0.508   4.211
 2429SOL    HW2 9746   0.704   0.463   4.165
 2429SOL    HW3 9747   0.634   0.597   4.176
 2429SOL    MW4 9748   0.643   0.514   4.200
 2430SOL     OW 9749   0.663   0.772   4.114
 2430SOL    HW2 9750   0.588   0.811   4.158
 2430SOL    HW3 9751   0.643   0.780   4.020
 2430SOL    MW4 9752   0.651   0.778   4.107
 2431SOL     OW 9753   0.412   0.890   4.218
 2431SOL    HW2 9754   0.389   0.977   4.186
 2431SOL    HW3 9755   0.337   0.835   4.193
 2431SOL    MW4 9756   0.399   0.894   4.211
 2432SOL     OW 9757   0.363   1.141   4.140
 2432SOL    HW2 9758   0.445   1.184   4.165
 2432SOL    HW3 9759   0.364   1.140   4.045
 2432SOL    MW4 9760   0.374   1.146   4.131
 2433SOL     OW 9761   0.627   1.244   4.208
 2433SOL    HW2 9762   0.670   1.257   4.293
 2433SOL    HW3 9763   0.634   1.329   4.164
 2433SOL    MW4 9764   0.634   1.257   4.213
 2434SOL     OW 9765   0.646   1.493   4.084
 2434SOL    HW2 9766   0.717   1.552   4.109
 2434SOL    HW3 9767   0.630   1.512   3.992
 2434SOL    MW4 9768   0.653   1.503   4.075
 2435SOL     OW 9769   0.197   1.492   4.125
 2435SOL    HW2 9770   0.182   1.405   4.162
 2435SOL    HW3 9771   0.139   1.550   4.176
 2435SOL    MW4 9772   0.187   1.488   4.137
 2436SOL     OW 9773   0.430   1.897   4.125
 2436SOL    HW2 9774   0.428   1.801   4.129
 2436SOL    HW3 9775   0.403   1.917   4.035
 2436SOL    MW4 9776   0.426   1.887   4.114
 2437SOL     OW 9777   0.676   2.006   4.176
 2437SOL    HW2 9778   0.663   2.026   4.268
 2437SOL    HW3 9779   0.597   1.958   4.150
 2437SOL    MW4 9780   0.664   2.002   4.185
 2438SOL     OW 9781   0.749   2.286   4.106
 2438SOL    HW2 9782   0.708   2.205   4.135
 2438SOL    HW3 9783   0.723   2.294   4.014
 2438SOL    MW4 9784   0.740   2.276   4.098
 2439SOL     OW 9785   0.399   2.451   4.239
 2439SOL    HW2 9786   0.397   2.540   4.203
 2439SOL    HW3 9787   0.487   2.443   4.276
 2439SOL    MW4 9788   0.411   2.462   4.239
 2440SOL     OW 9789   0.440   2.695   4.132
 2440SOL    HW2 9790   0.523   2.732   4.162
 2440SOL    HW3 9791   0.459   2.663   4.043
 2440SOL    MW4 9792   0.454   2.695   4.124
 2441SOL     OW 9793   0.675   2.814   4.225
 2441SOL    HW2 9794   0.680   2.811   4.320
 2441SOL    HW3 9795   0.679   2.908   4.203
 2441SOL    MW4 9796   0.676   2.826   4.234
 2442SOL     OW 9797   0.696   3.077   4.151
 2442SOL    HW2 9798   0.768   3.133   4.180
 2442SOL    HW3 9799   0.618   3.119   4.186
 2442SOL    MW4 9800   0.695   3.089   4.159
 2443SOL     OW 9801   0.486   3.207   4.254
 2443SOL    HW2 9802   0.504   3.239   4.343
 2443SOL    HW3 9803   0.461   3.286   4.205
 2443SOL    MW4 9804   0.485   3.222   4.259
 2444SOL     OW 9805   0.416   3.447   4.134
 2444SOL    HW2 9806   0.482   3.497   4.182
 2444SOL    HW3 9807   0.447   3.446   4.044
 2444SOL    MW4 9808   0.429   3.453   4.128
 2445SOL     OW 9809   0.608   3.618   4.263
 2445SOL    HW2 9810   0.607   3.622   4.359
 2445SOL    HW3 9811   0.692   3.578   4.242
 2445SOL    MW4 9812   0.619   3.613   4.273
 2446SOL     OW 9813   0.712   3.827   4.076
 2446SOL    HW2 9814   0.752   3.878   4.147
 2446SOL    HW3 9815   0.648   3.772   4.120
 2446SOL    MW4 9816   0.709   3.827   4.091
 2447SOL     OW 9817   0.522   3.923   4.344
 2447SOL    HW2 9818   0.505   4.017   4.348
 2447SOL    HW3 9819   0.461   3.891   4.278
 2447SOL    MW4 9820   0.512   3.931   4.336
 2448SOL     OW 9821   0.465   4.184   4.248
 2448SOL    HW2 9822   0.376   4.219   4.248
 2448SOL    HW3 9823   0.486   4.171   4.156
 2448SOL    MW4 9824   0.456   4.187   4.236
 2449SOL     OW 9825   0.678   4.355   4.310
 2449SOL    HW2 9826   0.603   4.301   4.287
 2449SOL    HW3 9827   0.677   4.427   4.247
 2449SOL    MW4 9828   0.668   4.357   4.299
 2450SOL     OW 9829   1.080   4.642   4.151
 2450SOL    HW2 9830   1.070   4.548   4.133
 2450SOL    HW3 9831   1.066   4.684   4.066
 2450SOL    MW4 9832   1.077   4.635   4.137
 2451SOL     OW 9833   0.811   0.096   4.196
 2451SOL    HW2 9834   0.897   0.054   4.185
 2451SOL    HW3 9835   0.749   0.031   4.164
 2451SOL    MW4 9836   0.814   0.082   4.190
 2452SOL     OW 9837   0.835   0.363   4.089
 2452SOL    HW2 9838   0.917   0.393   4.129
 2452SOL    HW3 9839   0.825   0.273   4.119
 2452SOL    MW4 9840   0.844   0.355   4.098
 2453SOL     OW 9841   1.074   0.515   4.202
 2453SOL    HW2 9842   1.047   0.509   4.294
 2453SOL    HW3 9843   1.157   0.467   4.199
 2453SOL    MW4 9844   1.082   0.508   4.214
 2454SOL     OW 9845   1.098   0.800   4.148
 2454SOL    HW2 9846   1.169   0.834   4.203
 2454SOL    HW3 9847   1.089   0.708   4.173
 2454SOL    MW4 9848   1.106   0.793   4.158
 2455SOL     OW 9849   0.855   0.931   4.227
 2455SOL    HW2 9850   0.927   0.882   4.188
 2455SOL    HW3 9851   0.776   0.886   4.196
 2455SOL    MW4 9852   0.854   0.918   4.218
 2456SOL     OW 9853   0.858   1.166   4.089
 2456SOL    HW2 9854   0.863   1.078   4.126
 2456SOL    HW3 9855   0.775   1.200   4.122
 2456SOL    MW4 9856   0.847   1.159   4.098
 2457SOL     OW 9857   1.074   1.268   4.247
 2457SOL    HW2 9858   1.054   1.226   4.330
 2457SOL    HW3 9859   1.009   1.234   4.186
 2457SOL    MW4 9860   1.063   1.258   4.250
 2458SOL     OW 9861   1.119   1.517   4.164
 2458SOL    HW2 9862   1.035   1.562   4.173
 2458SOL    HW3 9863   1.105   1.431   4.203
 2458SOL    MW4 9864   1.106   1.512   4.170
 2459SOL     OW 9865   0.873   1.639   4.174
 2459SOL    HW2 9866   0.863   1.639   4.269
 2459SOL    HW3 9867   0.888   1.731   4.151
 2459SOL    MW4 9868   0.874   1.651   4.183
 2460SOL     OW 9869   0.916   1.896   4.124
 2460SOL    HW2 9870   0.840   1.948   4.149
 2460SOL    HW3 9871   0.929   1.916   4.031
 2460SOL    MW4 9872   0.908   1.905   4.115
 2461SOL     OW 9873   1.128   2.055   4.206
 2461SOL    HW2 9874   1.131   2.049   4.301
 2461SOL    HW3 9875   1.047   2.008   4.182
 2461SOL    MW4 9876   1.117   2.048   4.215
 2462SOL     OW 9877   1.127   2.319   4.123
 2462SOL    HW2 9878   1.205   2.356   4.164
 2462SOL    HW3 9879   1.133   2.225   4.139
 2462SOL    MW4 9880   1.138   2.312   4.131
 2463SOL     OW 9881   0.920   2.477   4.225
 2463SOL    HW2 9882   1.001   2.427   4.213
 2463SOL    HW3 9883   0.854   2.427   4.176
 2463SOL    MW4 9884   0.922   2.464   4.217
 2464SOL     OW 9885   0.860   2.712   4.046
 2464SOL    HW2 9886   0.872   2.621   4.074
 2464SOL    HW3 9887   0.793   2.747   4.105
 2464SOL    MW4 9888   0.853   2.705   4.057
 2465SOL     OW 9889   1.090   2.891   4.134
 2465SOL    HW2 9890   1.088   2.984   4.113
 2465SOL    HW3 9891   1.005   2.858   4.104
 2465SOL    MW4 9892   1.078   2.899   4.127
 2466SOL     OW 9893   1.079   3.149   4.050
 2466SOL    HW2 9894   1.156   3.198   4.077
 2466SOL    HW3 9895   1.083   3.146   3.955
 2466SOL    MW4 9896   1.089   3.155   4.041
 2467SOL     OW 9897   0.879   3.251   4.230
 2467SOL    HW2 9898   0.913   3.211   4.310
 2467SOL    HW3 9899   0.942   3.227   4.163
 2467SOL    MW4 9900   0.892   3.243   4.232
 2468SOL     OW 9901   0.872   3.530   4.175
 2468SOL    HW2 9902   0.883   3.438   4.198
 2468SOL    HW3 9903   0.867   3.531   4.079
 2468SOL    MW4 9904   0.872   3.518   4.165
 2469SOL     OW 9905   0.999   3.719   4.308
 2469SOL    HW2 9906   0.939   3.794   4.315
 2469SOL    HW3 9907   0.951   3.654   4.257
 2469SOL    MW4 9908   0.985   3.721   4.302
 2470SOL     OW 9909   1.152   3.800   4.107
 2470SOL    HW2 9910   1.185   3.881   4.145
 2470SOL    HW3 9911   1.091   3.766   4.172
 2470SOL    MW4 9912   1.148   3.806   4.120
 2471SOL     OW 9913   0.827   3.934   4.307
 2471SOL    HW2 9914   0.866   4.022   4.307
 2471SOL    HW3 9915   0.741   3.946   4.347
 2471SOL    MW4 9916   0.821   3.947   4.312
 2472SOL     OW 9917   1.003   4.357   4.114
 2472SOL    HW2 9918   1.094   4.330   4.105
 2472SOL    HW3 9919   0.964   4.292   4.173
 2472SOL    MW4 9920   1.010   4.345   4.120
 2473SOL     OW 9921   1.022   4.297   4.541
 2473SOL    HW2 9922   1.101   4.349   4.529
 2473SOL    HW3 9923   1.039   4.244   4.619
 2473SOL    MW4 9924   1.034   4.297   4.550
 2474SOL     OW 9925   1.550   0.046   4.137
 2474SOL    HW2 9926   1.626   0.087   4.178
 2474SOL    HW3 9927   1.476   0.069   4.193
 2474SOL    MW4 9928   1.550   0.054   4.150
 2475SOL     OW 9929   1.296   0.106   4.267
 2475SOL    HW2 9930   1.289   0.076   4.358
 2475SOL    HW3 9931   1.221   0.066   4.223
 2475SOL    MW4 9932   1.285   0.097   4.273
 2476SOL     OW 9933   1.297   0.371   4.163
 2476SOL    HW2 9934   1.374   0.411   4.202
 2476SOL    HW3 9935   1.297   0.281   4.197
 2476SOL    MW4 9936   1.307   0.364   4.172
 2477SOL     OW 9937   1.532   0.490   4.272
 2477SOL    HW2 9938   1.536   0.484   4.367
 2477SOL    HW3 9939   1.544   0.583   4.253
 2477SOL    MW4 9940   1.534   0.501   4.282
 2478SOL     OW 9941   1.518   0.765   4.232
 2478SOL    HW2 9942   1.598   0.809   4.263
 2478SOL    HW3 9943   1.515   0.786   4.138
 2478SOL    MW4 9944   1.528   0.774   4.224
 2479SOL     OW 9945   1.295   0.919   4.301
 2479SOL    HW2 9946   1.304   0.998   4.247
 2479SOL    HW3 9947   1.372   0.867   4.278
 2479SOL    MW4 9948   1.307   0.923   4.291
 2480SOL     OW 9949   1.321   1.138   4.154
 2480SOL    HW2 9950   1.244   1.189   4.176
 2480SOL    HW3 9951   1.313   1.120   4.060
 2480SOL    MW4 9952   1.310   1.143   4.145
 2481SOL     OW 9953   1.545   1.273   4.276
 2481SOL    HW2 9954   1.539   1.263   4.371
 2481SOL    HW3 9955   1.476   1.218   4.241
 2481SOL    MW4 9956   1.535   1.265   4.284
 2482SOL     OW 9957   1.535   1.513   4.145
 2482SOL    HW2 9958   1.466   1.563   4.188
 2482SOL    HW3 9959   1.539   1.431   4.194
 2482SOL    MW4 9960   1.526   1.509   4.157
 2483SOL     OW 9961   1.340   1.680   4.260
 2483SOL    HW2 9962   1.344   1.756   4.201
 2483SOL    HW3 9963   1.259   1.636   4.236
 2483SOL    MW4 9964   1.330   1.684   4.249
 2484SOL     OW 9965   1.349   1.912   4.123
 2484SOL    HW2 9966   1.429   1.942   4.166
 2484SOL    HW3 9967   1.278   1.957   4.169
 2484SOL    MW4 9968   1.350   1.922   4.135
 2485SOL     OW 9969   1.573   2.043   4.231
 2485SOL    HW2 9970   1.657   2.034   4.186
 2485SOL    HW3 9971   1.551   2.136   4.223
 2485SOL    MW4 9972   1.581   2.054   4.224
 2486SOL     OW 9973   1.549   2.342   4.134
 2486SOL    HW2 9974   1.614   2.400   4.172
 2486SOL    HW3 9975   1.566   2.346   4.040
 2486SOL    MW4 9976   1.560   2.351   4.126
 2487SOL     OW 9977   1.534   2.884   4.211
 2487SOL    HW2 9978   1.549   2.863   4.303
 2487SOL    HW3 9979   1.617   2.866   4.168
 2487SOL    MW4 9980   1.547   2.879   4.217
 2488SOL     OW 9981   1.346   2.714   4.119
 2488SOL    HW2 9982   1.417   2.769   4.151
 2488SOL    HW3 9983   1.267   2.764   4.136
 2488SOL    MW4 9984   1.345   2.728   4.126
 2489SOL     OW 9985   1.659   2.288   4.497
 2489SOL    HW2 9986   1.650   2.340   4.578
 2489SOL    HW3 9987   1.726   2.223   4.518
 2489SOL    MW4 9988   1.667   2.286   4.510
 2490SOL     OW 9989   1.529   3.151   4.117
 2490SOL    HW2 9990   1.570   3.198   4.190
 2490SOL    HW3 9991   1.514   3.063   4.150
 2490SOL    MW4 9992   1.532   3.146   4.131
 2491SOL     OW 9993   1.292   3.291   4.142
 2491SOL    HW2 9994   1.379   3.252   4.146
 2491SOL    HW3 9995   1.308   3.384   4.124
 2491SOL    MW4 9996   1.305   3.298   4.140
 2492SOL     OW 9997   1.321   3.579   4.091
 2492SOL    HW2 9998   1.252   3.645   4.084
 2492SOL    HW3 9999   1.346   3.561   4.000
 2492SOL    MW410000   1.315   3.585   4.078
 2493SOL     OW10001   1.547   3.699   4.183
 2493SOL    HW210002   1.548   3.680   4.277
 2493SOL    HW310003   1.467   3.658   4.151
 2493SOL    MW410004   1.536   3.691   4.191
 2494SOL     OW10005   1.536   3.973   4.100
 2494SOL    HW210006   1.453   4.011   4.128
 2494SOL    HW310007   1.537   3.885   4.138
 2494SOL    MW410008   1.525   3.967   4.109
 2495SOL     OW10009   1.286   4.067   4.210
 2495SOL    HW210010   1.283   4.083   4.304
 2495SOL    HW310011   1.296   4.154   4.171
 2495SOL    MW410012   1.287   4.080   4.217
 2496SOL     OW10013   1.298   4.311   4.104
 2496SOL    HW210014   1.375   4.352   4.143
 2496SOL    HW310015   1.320   4.299   4.012
 2496SOL    MW410016   1.311   4.315   4.097
 2497SOL     OW10017   1.521   4.447   4.174
 2497SOL    HW210018   1.524   4.541   4.157
 2497SOL    HW310019   1.611   4.417   4.158
 2497SOL    MW410020   1.533   4.455   4.169
 2498SOL     OW10021   1.955   4.637   4.182
 2498SOL    HW210022   1.894   4.706   4.210
 2498SOL    HW310023   1.979   4.661   4.093
 2498SOL    MW410024   1.950   4.649   4.174
 2499SOL     OW10025   1.756   0.146   4.279
 2499SOL    HW210026   1.757   0.158   4.373
 2499SOL    HW310027   1.750   0.234   4.243
 2499SOL    MW410028   1.756   0.159   4.286
 2500SOL     OW10029   1.779   0.399   4.177
 2500SOL    HW210030   1.848   0.416   4.241
 2500SOL    HW310031   1.702   0.445   4.212
 2500SOL    MW410032   1.778   0.408   4.190
 2501SOL     OW10033   2.009   0.503   4.324
 2501SOL    HW210034   2.009   0.494   4.419
 2501SOL    HW310035   2.083   0.449   4.296
 2501SOL    MW410036   2.019   0.494   4.333
 2502SOL     OW10037   1.996   0.717   4.152
 2502SOL    HW210038   2.079   0.764   4.162
 2502SOL    HW310039   2.002   0.643   4.212
 2502SOL    MW410040   2.007   0.714   4.161
 2503SOL     OW10041   1.793   0.877   4.246
 2503SOL    HW210042   1.801   0.971   4.228
 2503SOL    HW310043   1.867   0.838   4.201
 2503SOL    MW410044   1.804   0.884   4.238
 2504SOL     OW10045   1.773   1.148   4.172
 2504SOL    HW210046   1.845   1.201   4.206
 2504SOL    HW310047   1.695   1.184   4.215
 2504SOL    MW410048   1.772   1.160   4.182
 2505SOL     OW10049   1.987   1.319   4.245
 2505SOL    HW210050   2.060   1.263   4.219
 2505SOL    HW310051   1.982   1.385   4.176
 2505SOL    MW410052   1.996   1.320   4.232
 2506SOL     OW10053   2.002   1.531   4.072
 2506SOL    HW210054   2.063   1.601   4.096
 2506SOL    HW310055   2.006   1.528   3.977
 2506SOL    MW410056   2.011   1.540   4.063
 2507SOL     OW10057   1.780   1.644   4.209
 2507SOL    HW210058   1.838   1.598   4.150
 2507SOL    HW310059   1.692   1.614   4.185
 2507SOL    MW410060   1.776   1.634   4.198
 2508SOL     OW10061   1.840   1.903   4.115
 2508SOL    HW210062   1.822   1.811   4.133
 2508SOL    HW310063   1.922   1.921   4.161
 2508SOL    MW410064   1.848   1.894   4.124
 2509SOL     OW10065   1.727   2.495   4.301
 2509SOL    HW210066   1.733   2.425   4.366
 2509SOL    HW310067   1.817   2.526   4.291
 2509SOL    MW410068   1.740   2.490   4.308
 2510SOL     OW10069   2.515   2.361   4.078
 2510SOL    HW210070   2.484   2.350   3.988
 2510SOL    HW310071   2.470   2.293   4.128
 2510SOL    MW410072   2.505   2.351   4.073
 2511SOL     OW10073   1.687   3.013   4.563
 2511SOL    HW210074   1.678   2.920   4.540
 2511SOL    HW310075   1.741   3.050   4.494
 2511SOL    MW410076   1.693   3.006   4.551
 2512SOL     OW10077   1.781   2.807   4.090
 2512SOL    HW210078   1.830   2.745   4.143
 2512SOL    HW310079   1.829   2.890   4.099
 2512SOL    MW410080   1.794   2.810   4.098
 2513SOL     OW10081   1.882   3.107   4.377
 2513SOL    HW210082   1.957   3.054   4.406
 2513SOL    HW310083   1.896   3.118   4.283
 2513SOL    MW410084   1.894   3.101   4.369
 2514SOL     OW10085   2.154   2.857   4.106
 2514SOL    HW210086   2.208   2.935   4.121
 2514SOL    HW310087   2.148   2.816   4.192
 2514SOL    MW410088   2.161   2.862   4.120
 2515SOL     OW10089   1.685   3.296   4.326
 2515SOL    HW210090   1.714   3.356   4.257
 2515SOL    HW310091   1.761   3.239   4.340
 2515SOL    MW410092   1.699   3.297   4.319
 2516SOL     OW10093   1.729   3.495   4.136
 2516SOL    HW210094   1.666   3.565   4.153
 2516SOL    HW310095   1.739   3.494   4.041
 2516SOL    MW410096   1.722   3.504   4.126
 2517SOL     OW10097   1.991   3.604   4.210
 2517SOL    HW210098   1.987   3.696   4.183
 2517SOL    HW310099   1.907   3.567   4.182
 2517SOL    MW410100   1.979   3.611   4.203
 2518SOL     OW10101   2.014   3.895   4.133
 2518SOL    HW210102   1.946   3.955   4.163
 2518SOL    HW310103   2.005   3.895   4.038
 2518SOL    MW410104   2.003   3.903   4.124
 2519SOL     OW10105   1.783   4.080   4.174
 2519SOL    HW210106   1.775   4.171   4.145
 2519SOL    HW310107   1.695   4.044   4.164
 2519SOL    MW410108   1.771   4.087   4.169
 2520SOL     OW10109   1.777   4.349   4.105
 2520SOL    HW210110   1.843   4.399   4.152
 2520SOL    HW310111   1.796   4.364   4.013
 2520SOL    MW410112   1.788   4.357   4.099
 2521SOL     OW10113   2.026   4.385   4.265
 2521SOL    HW210114   1.981   4.351   4.342
 2521SOL    HW310115   1.997   4.476   4.258
 2521SOL    MW410116   2.016   4.393   4.274
 2522SOL     OW10117   2.414   4.647   4.127
 2522SOL    HW210118   2.484   4.694   4.173
 2522SOL    HW310119   2.413   4.560   4.167
 2522SOL    MW410120   2.423   4.642   4.138
 2523SOL     OW10121   2.215   0.096   4.269
 2523SOL    HW210122   2.280   0.053   4.215
 2523SOL    HW310123   2.134   0.046   4.255
 2523SOL    MW410124   2.213   0.084   4.260
 2524SOL     OW10125   2.221   0.355   4.175
 2524SOL    HW210126   2.230   0.270   4.216
 2524SOL    HW310127   2.245   0.340   4.083
 2524SOL    MW410128   2.225   0.342   4.168
 2525SOL     OW10129   2.445   0.500   4.244
 2525SOL    HW210130   2.511   0.448   4.199
 2525SOL    HW310131   2.364   0.452   4.232
 2525SOL    MW410132   2.443   0.487   4.236
 2526SOL     OW10133   2.458   0.773   4.181
 2526SOL    HW210134   2.443   0.681   4.201
 2526SOL    HW310135   2.475   0.776   4.087
 2526SOL    MW410136   2.458   0.761   4.172
 2527SOL     OW10137   2.205   0.862   4.250
 2527SOL    HW210138   2.194   0.852   4.345
 2527SOL    HW310139   2.297   0.840   4.235
 2527SOL    MW410140   2.216   0.858   4.261
 2528SOL     OW10141   2.206   1.144   4.164
 2528SOL    HW210142   2.279   1.183   4.212
 2528SOL    HW310143   2.198   1.056   4.202
 2528SOL    MW410144   2.215   1.137   4.176
 2529SOL     OW10145   2.440   1.292   4.229
 2529SOL    HW210146   2.451   1.271   4.321
 2529SOL    HW310147   2.517   1.256   4.186
 2529SOL    MW410148   2.452   1.285   4.235
 2530SOL     OW10149   2.453   1.566   4.133
 2530SOL    HW210150   2.426   1.488   4.180
 2530SOL    HW310151   2.443   1.543   4.040
 2530SOL    MW410152   2.448   1.553   4.127
 2531SOL     OW10153   2.208   1.692   4.172
 2531SOL    HW210154   2.280   1.629   4.163
 2531SOL    HW310155   2.250   1.777   4.157
 2531SOL    MW410156   2.223   1.695   4.169
 2532SOL     OW10157   2.354   1.923   4.153
 2532SOL    HW210158   2.447   1.903   4.145
 2532SOL    HW310159   2.352   2.013   4.187
 2532SOL    MW410160   2.366   1.932   4.157
 2533SOL     OW10161   2.362   2.181   4.248
 2533SOL    HW210162   2.277   2.208   4.281
 2533SOL    HW310163   2.418   2.176   4.325
 2533SOL    MW410164   2.358   2.184   4.262
 2534SOL     OW10165   2.635   2.623   4.116
 2534SOL    HW210166   2.691   2.622   4.193
 2534SOL    HW310167   2.581   2.545   4.124
 2534SOL    MW410168   2.635   2.613   4.127
 2535SOL     OW10169   2.544   2.488   4.396
 2535SOL    HW210170   2.480   2.516   4.330
 2535SOL    HW310171   2.518   2.533   4.476
 2535SOL    MW410172   2.532   2.498   4.398
 2536SOL     OW10173   1.967   2.600   4.211
 2536SOL    HW210174   2.031   2.646   4.265
 2536SOL    HW310175   2.019   2.555   4.144
 2536SOL    MW410176   1.982   2.601   4.209
 2537SOL     OW10177   2.510   2.813   4.330
 2537SOL    HW210178   2.487   2.743   4.269
 2537SOL    HW310179   2.440   2.812   4.396
 2537SOL    MW410180   2.497   2.803   4.331
 2538SOL     OW10181   2.213   3.167   4.277
 2538SOL    HW210182   2.174   3.097   4.328
 2538SOL    HW310183   2.251   3.226   4.342
 2538SOL    MW410184   2.213   3.166   4.292
 2539SOL     OW10185   1.938   3.042   4.097
 2539SOL    HW210186   1.967   3.067   4.009
 2539SOL    HW310187   2.013   2.996   4.135
 2539SOL    MW410188   1.952   3.039   4.091
 2540SOL     OW10189   2.231   3.443   4.149
 2540SOL    HW210190   2.220   3.353   4.181
 2540SOL    HW310191   2.150   3.487   4.174
 2540SOL    MW410192   2.219   3.437   4.156
 2541SOL     OW10193   2.461   3.571   4.216
 2541SOL    HW210194   2.376   3.531   4.199
 2541SOL    HW310195   2.445   3.665   4.215
 2541SOL    MW410196   2.448   3.578   4.214
 2542SOL     OW10197   2.467   3.828   4.158
 2542SOL    HW210198   2.548   3.861   4.199
 2542SOL    HW310199   2.478   3.847   4.065
 2542SOL    MW410200   2.479   3.835   4.151
 2543SOL     OW10201   2.249   3.992   4.235
 2543SOL    HW210202   2.326   3.935   4.229
 2543SOL    HW310203   2.178   3.940   4.199
 2543SOL    MW410204   2.250   3.978   4.229
 2544SOL     OW10205   2.210   4.259   4.105
 2544SOL    HW210206   2.202   4.166   4.128
 2544SOL    HW310207   2.135   4.300   4.148
 2544SOL    MW410208   2.199   4.252   4.114
 2545SOL     OW10209   2.414   4.381   4.235
 2545SOL    HW210210   2.491   4.324   4.233
 2545SOL    HW310211   2.347   4.331   4.188
 2545SOL    MW410212   2.416   4.367   4.229
 2546SOL     OW10213   2.869   4.641   4.116
 2546SOL    HW210214   2.937   4.698   4.152
 2546SOL    HW310215   2.868   4.564   4.173
 2546SOL    MW410216   2.878   4.639   4.128
 2547SOL     OW10217   2.646   0.097   4.239
 2547SOL    HW210218   2.656   0.188   4.211
 2547SOL    HW310219   2.714   0.050   4.190
 2547SOL    MW410220   2.657   0.103   4.229
 2548SOL     OW10221   2.662   0.355   4.149
 2548SOL    HW210222   2.700   0.356   4.061
 2548SOL    HW310223   2.736   0.377   4.207
 2548SOL    MW410224   2.677   0.358   4.145
 2549SOL     OW10225   3.287   0.694   4.138
 2549SOL    HW210226   3.351   0.735   4.196
 2549SOL    HW310227   3.208   0.746   4.148
 2549SOL    MW410228   3.285   0.706   4.147
 2550SOL     OW10229   3.032   0.844   4.162
 2550SOL    HW210230   3.050   0.938   4.172
 2550SOL    HW310231   2.995   0.836   4.074
 2550SOL    MW410232   3.029   0.855   4.152
 2551SOL     OW10233   2.696   0.868   4.301
 2551SOL    HW210234   2.750   0.790   4.313
 2551SOL    HW310235   2.615   0.834   4.260
 2551SOL    MW410236   2.692   0.853   4.297
 2552SOL     OW10237   2.663   1.143   4.140
 2552SOL    HW210238   2.652   1.059   4.185
 2552SOL    HW310239   2.678   1.120   4.048
 2552SOL    MW410240   2.663   1.129   4.134
 2553SOL     OW10241   2.893   1.256   4.234
 2553SOL    HW210242   2.966   1.199   4.210
 2553SOL    HW310243   2.816   1.215   4.193
 2553SOL    MW410244   2.892   1.243   4.225
 2554SOL     OW10245   2.920   1.508   4.127
 2554SOL    HW210246   2.975   1.565   4.181
 2554SOL    HW310247   2.931   1.421   4.166
 2554SOL    MW410248   2.929   1.504   4.139
 2555SOL     OW10249   2.702   1.631   4.247
 2555SOL    HW210250   2.763   1.568   4.209
 2555SOL    HW310251   2.615   1.597   4.225
 2555SOL    MW410252   2.699   1.618   4.239
 2556SOL     OW10253   2.654   1.883   4.145
 2556SOL    HW210254   2.671   1.791   4.169
 2556SOL    HW310255   2.662   1.885   4.050
 2556SOL    MW410256   2.657   1.871   4.136
 2557SOL     OW10257   2.882   2.034   4.223
 2557SOL    HW210258   2.855   2.122   4.195
 2557SOL    HW310259   2.804   1.980   4.210
 2557SOL    MW410260   2.868   2.038   4.217
 2558SOL     OW10261   2.782   2.298   4.146
 2558SOL    HW210262   2.789   2.364   4.216
 2558SOL    HW310263   2.689   2.300   4.122
 2558SOL    MW410264   2.771   2.307   4.152
 2559SOL     OW10265   2.646   3.211   4.420
 2559SOL    HW210266   2.654   3.281   4.485
 2559SOL    HW310267   2.557   3.178   4.432
 2559SOL    MW410268   2.635   3.216   4.430
 2560SOL     OW10269   2.424   3.004   4.149
 2560SOL    HW210270   2.443   2.934   4.212
 2560SOL    HW310271   2.377   3.069   4.200
 2560SOL    MW410272   2.420   3.003   4.164
 2561SOL     OW10273   2.893   2.941   4.133
 2561SOL    HW210274   2.888   3.016   4.192
 2561SOL    HW310275   2.877   2.978   4.046
 2561SOL    MW410276   2.891   2.956   4.129
 2562SOL     OW10277   2.915   3.110   4.346
 2562SOL    HW210278   2.963   3.066   4.416
 2562SOL    HW310279   2.833   3.138   4.387
 2562SOL    MW410280   2.910   3.108   4.360
 2563SOL     OW10281   2.687   3.205   4.133
 2563SOL    HW210282   2.640   3.127   4.103
 2563SOL    HW310283   2.681   3.201   4.228
 2563SOL    MW410284   2.680   3.194   4.141
 2564SOL     OW10285   2.689   3.475   4.101
 2564SOL    HW210286   2.681   3.380   4.116
 2564SOL    HW310287   2.605   3.510   4.130
 2564SOL    MW410288   2.676   3.467   4.107
 2565SOL     OW10289   2.883   3.637   4.207
 2565SOL    HW210290   2.888   3.643   4.302
 2565SOL    HW310291   2.817   3.569   4.191
 2565SOL    MW410292   2.875   3.629   4.217
 2566SOL     OW10293   2.849   3.881   4.079
 2566SOL    HW210294   2.924   3.929   4.114
 2566SOL    HW310295   2.861   3.791   4.111
 2566SOL    MW410296   2.860   3.875   4.088
 2567SOL     OW10297   2.678   3.978   4.275
 2567SOL    HW210298   2.652   4.063   4.240
 2567SOL    HW310299   2.743   3.945   4.213
 2567SOL    MW410300   2.683   3.985   4.262
 2568SOL     OW10301   2.646   4.236   4.170
 2568SOL    HW210302   2.724   4.285   4.197
 2568SOL    HW310303   2.646   4.241   4.075
 2568SOL    MW410304   2.656   4.243   4.161
 2569SOL     OW10305   2.860   4.399   4.276
 2569SOL    HW210306   2.877   4.414   4.369
 2569SOL    HW310307   2.942   4.362   4.243
 2569SOL    MW410308   2.873   4.396   4.284
 2570SOL     OW10309   3.343   4.657   4.143
 2570SOL    HW210310   3.420   4.685   4.192
 2570SOL    HW310311   3.351   4.562   4.138
 2570SOL    MW410312   3.354   4.648   4.149
 2571SOL     OW10313   3.087   0.099   4.219
 2571SOL    HW210314   3.080   0.098   4.315
 2571SOL    HW310315   3.174   0.066   4.201
 2571SOL    MW410316   3.097   0.095   4.229
 2572SOL     OW10317   3.084   0.349   4.126
 2572SOL    HW210318   3.165   0.387   4.161
 2572SOL    HW310319   3.089   0.256   4.151
 2572SOL    MW410320   3.095   0.342   4.134
 2573SOL     OW10321   3.324   0.438   4.231
 2573SOL    HW210322   3.417   0.427   4.212
 2573SOL    HW310323   3.308   0.532   4.219
 2573SOL    MW410324   3.334   0.449   4.227
 2574SOL     OW10325   3.451   0.815   4.328
 2574SOL    HW210326   3.478   0.907   4.318
 2574SOL    HW310327   3.414   0.810   4.416
 2574SOL    MW410328   3.450   0.827   4.338
 2575SOL     OW10329   3.124   0.969   4.712
 2575SOL    HW210330   3.126   0.951   4.806
 2575SOL    HW310331   3.036   0.943   4.685
 2575SOL    MW410332   3.113   0.963   4.721
 2576SOL     OW10333   3.105   1.121   4.131
 2576SOL    HW210334   3.167   1.176   4.178
 2576SOL    HW310335   3.100   1.160   4.044
 2576SOL    MW410336   3.113   1.133   4.126
 2577SOL     OW10337   3.512   1.075   4.306
 2577SOL    HW210338   3.555   1.106   4.385
 2577SOL    HW310339   3.423   1.109   4.312
 2577SOL    MW410340   3.506   1.083   4.317
 2578SOL     OW10341   3.514   1.396   4.339
 2578SOL    HW210342   3.469   1.468   4.294
 2578SOL    HW310343   3.496   1.412   4.432
 2578SOL    MW410344   3.505   1.408   4.346
 2579SOL     OW10345   3.095   1.685   4.262
 2579SOL    HW210346   3.075   1.702   4.354
 2579SOL    HW310347   3.088   1.771   4.220
 2579SOL    MW410348   3.092   1.699   4.269
 2580SOL     OW10349   3.114   1.918   4.107
 2580SOL    HW210350   3.175   1.990   4.121
 2580SOL    HW310351   3.029   1.953   4.133
 2580SOL    MW410352   3.111   1.932   4.112
 2581SOL     OW10353   3.301   2.115   4.197
 2581SOL    HW210354   3.388   2.077   4.204
 2581SOL    HW310355   3.316   2.209   4.195
 2581SOL    MW410356   3.315   2.122   4.198
 2582SOL     OW10357   3.348   2.390   4.148
 2582SOL    HW210358   3.434   2.424   4.175
 2582SOL    HW310359   3.360   2.368   4.055
 2582SOL    MW410360   3.361   2.392   4.139
 2583SOL     OW10361   3.123   2.502   4.274
 2583SOL    HW210362   3.098   2.590   4.244
 2583SOL    HW310363   3.189   2.473   4.211
 2583SOL    MW410364   3.128   2.510   4.262
 2584SOL     OW10365   3.091   2.767   4.161
 2584SOL    HW210366   3.167   2.816   4.193
 2584SOL    HW310367   3.022   2.832   4.151
 2584SOL    MW410368   3.092   2.782   4.164
 2585SOL     OW10369   3.338   2.865   4.222
 2585SOL    HW210370   3.362   2.956   4.204
 2585SOL    HW310371   3.418   2.816   4.204
 2585SOL    MW410372   3.352   2.871   4.217
 2586SOL     OW10373   3.394   3.131   4.177
 2586SOL    HW210374   3.317   3.175   4.214
 2586SOL    HW310375   3.366   3.103   4.090
 2586SOL    MW410376   3.380   3.133   4.171
 2587SOL     OW10377   3.133   3.256   4.265
 2587SOL    HW210378   3.116   3.340   4.221
 2587SOL    HW310379   3.046   3.221   4.283
 2587SOL    MW410380   3.119   3.263   4.262
 2588SOL     OW10381   3.119   3.518   4.160
 2588SOL    HW210382   3.031   3.555   4.167
 2588SOL    HW310383   3.133   3.507   4.066
 2588SOL    MW410384   3.109   3.521   4.148
 2589SOL     OW10385   3.377   3.616   4.165
 2589SOL    HW210386   3.395   3.614   4.259
 2589SOL    HW310387   3.283   3.601   4.157
 2589SOL    MW410388   3.367   3.614   4.176
 2590SOL     OW10389   3.333   3.905   4.086
 2590SOL    HW210390   3.371   3.818   4.093
 2590SOL    HW310391   3.330   3.922   3.991
 2590SOL    MW410392   3.337   3.896   4.074
 2591SOL     OW10393   3.065   4.009   4.186
 2591SOL    HW210394   3.075   3.996   4.281
 2591SOL    HW310395   3.153   3.999   4.151
 2591SOL    MW410396   3.078   4.006   4.194
 2592SOL     OW10397   3.074   4.284   4.138
 2592SOL    HW210398   3.164   4.313   4.155
 2592SOL    HW310399   3.076   4.190   4.155
 2592SOL    MW410400   3.086   4.276   4.143
 2593SOL     OW10401   3.331   4.379   4.184
 2593SOL    HW210402   3.354   4.409   4.273
 2593SOL    HW310403   3.404   4.323   4.159
 2593SOL    MW410404   3.343   4.376   4.193
 2594SOL     OW10405   3.776   4.632   4.168
 2594SOL    HW210406   3.839   4.695   4.201
 2594SOL    HW310407   3.767   4.653   4.075
 2594SOL    MW410408   3.783   4.643   4.160
 2595SOL     OW10409   3.546   0.086   4.291
 2595SOL    HW210410   3.557   0.177   4.262
 2595SOL    HW310411   3.626   0.042   4.262
 2595SOL    MW410412   3.558   0.092   4.283
 2596SOL     OW10413   3.595   0.349   4.179
 2596SOL    HW210414   3.674   0.373   4.226
 2596SOL    HW310415   3.609   0.380   4.090
 2596SOL    MW410416   3.607   0.357   4.173
 2597SOL     OW10417   3.814   0.453   4.302
 2597SOL    HW210418   3.843   0.407   4.380
 2597SOL    HW310419   3.783   0.538   4.333
 2597SOL    MW410420   3.814   0.458   4.316
 2598SOL     OW10421   3.790   0.853   4.144
 2598SOL    HW210422   3.770   0.940   4.110
 2598SOL    HW310423   3.799   0.798   4.066
 2598SOL    MW410424   3.788   0.857   4.129
 2599SOL     OW10425   3.693   0.690   4.345
 2599SOL    HW210426   3.601   0.716   4.342
 2599SOL    HW310427   3.734   0.742   4.276
 2599SOL    MW410428   3.686   0.701   4.336
 2600SOL     OW10429   3.698   1.110   4.062
 2600SOL    HW210430   3.620   1.110   4.118
 2600SOL    HW310431   3.664   1.122   3.973
 2600SOL    MW410432   3.683   1.111   4.057
 2601SOL     OW10433   3.776   1.313   4.254
 2601SOL    HW210434   3.773   1.238   4.193
 2601SOL    HW310435   3.686   1.343   4.259
 2601SOL    MW410436   3.764   1.307   4.247
 2602SOL     OW10437   3.793   1.573   4.140
 2602SOL    HW210438   3.791   1.485   4.179
 2602SOL    HW310439   3.833   1.628   4.206
 2602SOL    MW410440   3.798   1.569   4.154
 2603SOL     OW10441   3.568   1.999   4.168
 2603SOL    HW210442   3.554   1.995   4.074
 2603SOL    HW310443   3.564   1.908   4.197
 2603SOL    MW410444   3.566   1.986   4.159
 2604SOL     OW10445   3.324   1.550   4.165
 2604SOL    HW210446   3.313   1.553   4.070
 2604SOL    HW310447   3.244   1.590   4.199
 2604SOL    MW410448   3.312   1.556   4.157
 2605SOL     OW10449   3.832   2.078   4.208
 2605SOL    HW210450   3.850   2.070   4.301
 2605SOL    HW310451   3.741   2.048   4.198
 2605SOL    MW410452   3.822   2.073   4.219
 2606SOL     OW10453   3.810   2.342   4.150
 2606SOL    HW210454   3.807   2.247   4.159
 2606SOL    HW310455   3.797   2.358   4.057
 2606SOL    MW410456   3.808   2.332   4.139
 2607SOL     OW10457   3.594   2.476   4.248
 2607SOL    HW210458   3.575   2.466   4.342
 2607SOL    HW310459   3.676   2.428   4.235
 2607SOL    MW410460   3.602   2.468   4.259
 2608SOL     OW10461   3.593   2.741   4.171
 2608SOL    HW210462   3.594   2.650   4.202
 2608SOL    HW310463   3.597   2.734   4.075
 2608SOL    MW410464   3.593   2.728   4.162
 2609SOL     OW10465   3.864   2.838   4.183
 2609SOL    HW210466   3.891   2.831   4.275
 2609SOL    HW310467   3.783   2.788   4.178
 2609SOL    MW410468   3.857   2.831   4.194
 2610SOL     OW10469   3.828   3.113   4.140
 2610SOL    HW210470   3.850   3.024   4.164
 2610SOL    HW310471   3.828   3.113   4.044
 2610SOL    MW410472   3.831   3.102   4.130
 2611SOL     OW10473   3.656   3.218   4.311
 2611SOL    HW210474   3.729   3.197   4.253
 2611SOL    HW310475   3.579   3.185   4.267
 2611SOL    MW410476   3.656   3.211   4.298
 2612SOL     OW10477   3.590   3.444   4.104
 2612SOL    HW210478   3.624   3.414   4.188
 2612SOL    HW310479   3.519   3.503   4.127
 2612SOL    MW410480   3.585   3.447   4.118
 2613SOL     OW10481   3.868   3.657   4.296
 2613SOL    HW210482   3.908   3.589   4.242
 2613SOL    HW310483   3.797   3.613   4.342
 2613SOL    MW410484   3.864   3.642   4.295
 2614SOL     OW10485   3.818   3.875   4.139
 2614SOL    HW210486   3.731   3.909   4.162
 2614SOL    HW310487   3.828   3.796   4.193
 2614SOL    MW410488   3.808   3.869   4.149
 2615SOL     OW10489   3.587   3.969   4.234
 2615SOL    HW210490   3.588   3.956   4.328
 2615SOL    HW310491   3.500   3.939   4.206
 2615SOL    MW410492   3.576   3.963   4.242
 2616SOL     OW10493   3.574   4.239   4.137
 2616SOL    HW210494   3.653   4.284   4.167
 2616SOL    HW310495   3.593   4.146   4.149
 2616SOL    MW410496   3.587   4.233   4.143
 2617SOL     OW10497   3.818   4.370   4.206
 2617SOL    HW210498   3.903   4.336   4.178
 2617SOL    HW310499   3.825   4.465   4.194
 2617SOL    MW410500   3.830   4.378   4.201
 2618SOL     OW10501   4.215   0.003   4.155
 2618SOL    HW210502   4.253  -0.083   4.171
 2618SOL    HW310503   4.275   0.064   4.197
 2618SOL    MW410504   4.228   0.000   4.163
 2619SOL     OW10505   3.987   0.119   4.270
 2619SOL    HW210506   4.005   0.213   4.272
 2619SOL    HW310507   4.062   0.081   4.225
 2619SOL    MW410508   3.999   0.127   4.264
 2620SOL     OW10509   4.035   0.380   4.164
 2620SOL    HW210510   4.113   0.422   4.200
 2620SOL    HW310511   3.963   0.417   4.215
 2620SOL    MW410512   4.036   0.390   4.176
 2621SOL     OW10513   4.236   0.537   4.294
 2621SOL    HW210514   4.240   0.626   4.259
 2621SOL    HW310515   4.315   0.495   4.261
 2621SOL    MW410516   4.247   0.543   4.285
 2622SOL     OW10517   4.207   0.781   4.153
 2622SOL    HW210518   4.157   0.854   4.191
 2622SOL    HW310519   4.207   0.800   4.059
 2622SOL    MW410520   4.200   0.793   4.145
 2623SOL     OW10521   4.028   0.977   4.283
 2623SOL    HW210522   4.034   1.060   4.236
 2623SOL    HW310523   3.963   0.926   4.233
 2623SOL    MW410524   4.020   0.981   4.270
 2624SOL     OW10525   4.039   1.222   4.163
 2624SOL    HW210526   4.112   1.245   4.220
 2624SOL    HW310527   3.963   1.262   4.204
 2624SOL    MW410528   4.039   1.230   4.176
 2625SOL     OW10529   4.272   1.326   4.276
 2625SOL    HW210530   4.284   1.278   4.358
 2625SOL    HW310531   4.317   1.272   4.210
 2625SOL    MW410532   4.279   1.312   4.278
 2626SOL     OW10533   4.249   1.599   4.170
 2626SOL    HW210534   4.251   1.514   4.213
 2626SOL    HW310535   4.247   1.579   4.077
 2626SOL    MW410536   4.249   1.585   4.164
 2627SOL     OW10537   4.244   1.855   4.660
 2627SOL    HW210538   4.159   1.830   4.695
 2627SOL    HW310539   4.276   1.777   4.616
 2627SOL    MW410540   4.237   1.842   4.659
 2628SOL     OW10541   4.048   1.908   4.135
 2628SOL    HW210542   4.026   1.837   4.196
 2628SOL    HW310543   3.974   1.969   4.143
 2628SOL    MW410544   4.035   1.906   4.144
 2629SOL     OW10545   4.491   1.924   4.122
 2629SOL    HW210546   4.565   1.975   4.156
 2629SOL    HW310547   4.414   1.961   4.167
 2629SOL    MW410548   4.490   1.936   4.133
 2630SOL     OW10549   4.235   2.285   4.110
 2630SOL    HW210550   4.171   2.334   4.162
 2630SOL    HW310551   4.232   2.196   4.145
 2630SOL    MW410552   4.226   2.280   4.121
 2631SOL     OW10553   4.041   2.465   4.266
 2631SOL    HW210554   4.064   2.489   4.356
 2631SOL    HW310555   3.968   2.404   4.275
 2631SOL    MW410556   4.035   2.460   4.279
 2632SOL     OW10557   4.073   2.695   4.118
 2632SOL    HW210558   4.058   2.611   4.161
 2632SOL    HW310559   3.993   2.746   4.136
 2632SOL    MW410560   4.060   2.691   4.126
 2633SOL     OW10561   4.271   2.855   4.220
 2633SOL    HW210562   4.206   2.798   4.178
 2633SOL    HW310563   4.355   2.816   4.197
 2633SOL    MW410564   4.273   2.842   4.211
 2634SOL     OW10565   4.259   3.118   4.138
 2634SOL    HW210566   4.271   3.026   4.162
 2634SOL    HW310567   4.251   3.117   4.043
 2634SOL    MW410568   4.260   3.106   4.129
 2635SOL     OW10569   4.048   3.193   4.306
 2635SOL    HW210570   4.124   3.158   4.260
 2635SOL    HW310571   3.973   3.160   4.256
 2635SOL    MW410572   4.048   3.184   4.293
 2636SOL     OW10573   3.997   3.436   4.167
 2636SOL    HW210574   4.016   3.348   4.200
 2636SOL    HW310575   3.995   3.426   4.072
 2636SOL    MW410576   3.999   3.423   4.159
 2637SOL     OW10577   4.203   3.580   4.310
 2637SOL    HW210578   4.231   3.665   4.345
 2637SOL    HW310579   4.114   3.595   4.279
 2637SOL    MW410580   4.195   3.593   4.311
 2638SOL     OW10581   4.279   3.873   4.125
 2638SOL    HW210582   4.198   3.916   4.154
 2638SOL    HW310583   4.261   3.846   4.035
 2638SOL    MW410584   4.266   3.875   4.117
 2639SOL     OW10585   4.037   4.005   4.204
 2639SOL    HW210586   4.042   4.012   4.299
 2639SOL    HW310587   3.955   3.960   4.187
 2639SOL    MW410588   4.027   4.000   4.214
 2640SOL     OW10589   4.094   4.271   4.144
 2640SOL    HW210590   4.148   4.339   4.184
 2640SOL    HW310591   4.102   4.196   4.204
 2640SOL    MW410592   4.102   4.270   4.157
 2641SOL     OW10593   4.451   4.276   4.506
 2641SOL    HW210594   4.393   4.303   4.577
 2641SOL    HW310595   4.534   4.322   4.523
 2641SOL    MW410596   4.455   4.286   4.518
 2642SOL     OW10597   3.985   4.188   4.647
 2642SOL    HW210598   3.930   4.155   4.718
 2642SOL    HW310599   3.929   4.251   4.601
 2642SOL    MW410600   3.970   4.192   4.650
 2643SOL     OW10601   4.215   4.576   4.551
 2643SOL    HW210602   4.201   4.495   4.600
 2643SOL    HW310603   4.132   4.622   4.556
 2643SOL    MW410604   4.202   4.571   4.558
 2644SOL     OW10605   3.953   0.027   4.588
 2644SOL    HW210606   3.894  -0.029   4.637
 2644SOL    HW310607   3.924   0.019   4.497
 2644SOL    MW410608   3.942   0.019   4.582
 2645SOL     OW10609   4.001   1.720   4.726
 2645SOL    HW210610   3.958   1.663   4.789
 2645SOL    HW310611   4.021   1.663   4.652
 2645SOL    MW410612   3.998   1.705   4.725
 2646SOL     OW10613   0.480   0.128   4.529
 2646SOL    HW210614   0.457   0.036   4.540
 2646SOL    HW310615   0.570   0.127   4.498
 2646SOL    MW410616   0.488   0.116   4.526
 2647SOL     OW10617   0.252   0.763   4.606
 2647SOL    HW210618   0.321   0.736   4.667
 2647SOL    HW310619   0.195   0.686   4.599
 2647SOL    MW410620   0.254   0.749   4.614
 2648SOL     OW10621   4.220   0.831   4.592
 2648SOL    HW210622   4.238   0.738   4.607
 2648SOL    HW310623   4.306   0.870   4.580
 2648SOL    MW410624   4.233   0.824   4.592
 2649SOL     OW10625   0.735   1.335   4.450
 2649SOL    HW210626   0.778   1.421   4.445
 2649SOL    HW310627   0.659   1.350   4.507
 2649SOL    MW410628   0.730   1.348   4.457
 2650SOL     OW10629   1.184   1.991   4.475
 2650SOL    HW210630   1.280   1.987   4.485
 2650SOL    HW310631   1.155   2.044   4.549
 2650SOL    MW410632   1.193   1.997   4.486
 2651SOL     OW10633   4.072   1.264   4.503
 2651SOL    HW210634   4.016   1.191   4.529
 2651SOL    HW310635   4.159   1.240   4.535
 2651SOL    MW410636   4.076   1.251   4.511
 2652SOL     OW10637   0.133   1.657   4.494
 2652SOL    HW210638   0.095   1.670   4.407
 2652SOL    HW310639   0.127   1.742   4.536
 2652SOL    MW410640   0.127   1.670   4.488
 2653SOL     OW10641   0.426   1.636   4.178
 2653SOL    HW210642   0.354   1.587   4.139
 2653SOL    HW310643   0.505   1.594   4.142
 2653SOL    MW410644   0.427   1.624   4.168
 2654SOL     OW10645   0.049   1.910   4.601
 2654SOL    HW210646   0.057   1.997   4.563
 2654SOL    HW310647  -0.045   1.899   4.617
 2654SOL    MW410648   0.038   1.920   4.598
 2655SOL     OW10649   4.261   2.364   4.619
 2655SOL    HW210650   4.343   2.412   4.607
 2655SOL    HW310651   4.193   2.425   4.590
 2655SOL    MW410652   4.263   2.378   4.614
 2656SOL     OW10653   0.594   3.060   4.640
 2656SOL    HW210654   0.635   2.982   4.603
 2656SOL    HW310655   0.666   3.121   4.653
 2656SOL    MW410656   0.609   3.058   4.637
 2657SOL     OW10657   0.244   2.781   4.776
 2657SOL    HW210658   0.169   2.772   4.835
 2657SOL    HW310659   0.273   2.871   4.786
 2657SOL    MW410660   0.238   2.791   4.785
 2658SOL     OW10661   0.019   2.475   4.495
 2658SOL    HW210662   0.014   2.460   4.401
 2658SOL    HW310663   0.043   2.567   4.504
 2658SOL    MW410664   0.022   2.485   4.484
 2659SOL     OW10665   3.656   3.487   4.412
 2659SOL    HW210666   3.652   3.392   4.406
 2659SOL    HW310667   3.565   3.516   4.403
 2659SOL    MW410668   3.643   3.478   4.410
 2660SOL     OW10669   0.472   3.312   4.518
 2660SOL    HW210670   0.378   3.327   4.522
 2660SOL    HW310671   0.492   3.259   4.595
 2660SOL    MW410672   0.463   3.307   4.528
 2661SOL     OW10673   4.089   3.990   4.487
 2661SOL    HW210674   4.046   3.910   4.518
 2661SOL    HW310675   4.051   4.060   4.540
 2661SOL    MW410676   4.079   3.989   4.498
 2662SOL     OW10677   4.461   0.033   4.556
 2662SOL    HW210678   4.373  -0.004   4.557
 2662SOL    HW310679   4.448   0.127   4.571
 2662SOL    MW410680   4.448   0.041   4.558
 2663SOL     OW10681   3.200   0.410   4.470
 2663SOL    HW210682   3.244   0.409   4.385
 2663SOL    HW310683   3.132   0.343   4.463
 2663SOL    MW410684   3.197   0.401   4.458
 2664SOL     OW10685   3.801   4.062   4.838
 2664SOL    HW210686   3.781   3.970   4.819
 2664SOL    HW310687   3.715   4.104   4.845
 2664SOL    MW410688   3.787   4.055   4.836
 2665SOL     OW10689   3.717   3.814   4.714
 2665SOL    HW210690   3.802   3.787   4.679
 2665SOL    HW310691   3.673   3.732   4.736
 2665SOL    MW410692   3.723   3.800   4.713
 2666SOL     OW10693   0.423   4.542   4.602
 2666SOL    HW210694   0.414   4.448   4.587
 2666SOL    HW310695   0.512   4.552   4.636
 2666SOL    MW410696   0.434   4.531   4.605
 2667SOL     OW10697   3.946   0.556   4.693
 2667SOL    HW210698   3.925   0.562   4.786
 2667SOL    HW310699   3.886   0.618   4.651
 2667SOL    MW410700   3.935   0.565   4.700
 2668SOL     OW10701   1.010   0.681   4.650
 2668SOL    HW210702   0.987   0.756   4.595
 2668SOL    HW310703   0.990   0.604   4.596
 2668SOL    MW410704   1.004   0.681   4.636
 2669SOL     OW10705   0.811   0.472   4.752
 2669SOL    HW210706   0.744   0.478   4.683
 2669SOL    HW310707   0.862   0.552   4.743
 2669SOL    MW410708   0.809   0.483   4.741
 2670SOL     OW10709   0.898   0.885   4.497
 2670SOL    HW210710   0.892   0.898   4.402
 2670SOL    HW310711   0.807   0.880   4.526
 2670SOL    MW410712   0.885   0.886   4.488
 2671SOL     OW10713   0.420   0.960   4.495
 2671SOL    HW210714   0.423   0.937   4.402
 2671SOL    HW310715   0.363   0.894   4.534
 2671SOL    MW410716   0.413   0.948   4.488
 2672SOL     OW10717   2.231   1.108   4.493
 2672SOL    HW210718   2.178   1.141   4.565
 2672SOL    HW310719   2.301   1.173   4.483
 2672SOL    MW410720   2.233   1.121   4.502
 2673SOL     OW10721   0.410   1.643   4.458
 2673SOL    HW210722   0.315   1.637   4.453
 2673SOL    HW310723   0.438   1.657   4.367
 2673SOL    MW410724   0.401   1.644   4.445
 2674SOL     OW10725   1.395   0.921   4.567
 2674SOL    HW210726   1.355   0.939   4.482
 2674SOL    HW310727   1.332   0.954   4.631
 2674SOL    MW410728   1.381   0.928   4.564
 2675SOL     OW10729   0.869   1.601   4.438
 2675SOL    HW210730   0.816   1.663   4.488
 2675SOL    HW310731   0.958   1.611   4.473
 2675SOL    MW410732   0.874   1.611   4.449
 2676SOL     OW10733   0.630   2.044   4.464
 2676SOL    HW210734   0.713   2.091   4.456
 2676SOL    HW310735   0.653   1.962   4.507
 2676SOL    MW410736   0.644   2.039   4.469
 2677SOL     OW10737   1.126   1.732   4.540
 2677SOL    HW210738   1.212   1.693   4.555
 2677SOL    HW310739   1.146   1.819   4.505
 2677SOL    MW410740   1.140   1.739   4.537
 2678SOL     OW10741   0.402   2.149   4.587
 2678SOL    HW210742   0.481   2.120   4.540
 2678SOL    HW310743   0.415   2.243   4.600
 2678SOL    MW410744   0.414   2.157   4.582
 2679SOL     OW10745   0.881   2.656   4.448
 2679SOL    HW210746   0.875   2.618   4.360
 2679SOL    HW310747   0.949   2.723   4.440
 2679SOL    MW410748   0.889   2.660   4.435
 2680SOL     OW10749   0.660   2.427   4.382
 2680SOL    HW210750   0.690   2.489   4.448
 2680SOL    HW310751   0.722   2.354   4.389
 2680SOL    MW410752   0.672   2.426   4.392
 2681SOL     OW10753   0.994   3.140   4.450
 2681SOL    HW210754   1.066   3.203   4.455
 2681SOL    HW310755   0.940   3.159   4.526
 2681SOL    MW410756   0.997   3.151   4.461
 2682SOL     OW10757   0.866   3.450   4.613
 2682SOL    HW210758   0.799   3.508   4.577
 2682SOL    HW310759   0.946   3.503   4.615
 2682SOL    MW410760   0.868   3.465   4.609
 2683SOL     OW10761   1.255   4.461   4.495
 2683SOL    HW210762   1.349   4.445   4.491
 2683SOL    HW310763   1.247   4.544   4.542
 2683SOL    MW410764   1.266   4.470   4.501
 2684SOL     OW10765   0.318   2.424   4.518
 2684SOL    HW210766   0.346   2.441   4.428
 2684SOL    HW310767   0.231   2.464   4.524
 2684SOL    MW410768   0.310   2.432   4.507
 2685SOL     OW10769   4.454   3.210   4.466
 2685SOL    HW210770   4.370   3.255   4.470
 2685SOL    HW310771   4.481   3.218   4.374
 2685SOL    MW410772   4.446   3.217   4.455
 2686SOL     OW10773   1.556   3.639   4.447
 2686SOL    HW210774   1.581   3.557   4.489
 2686SOL    HW310775   1.630   3.698   4.462
 2686SOL    MW410776   1.569   3.636   4.455
 2687SOL     OW10777   0.191   4.113   4.523
 2687SOL    HW210778   0.157   4.023   4.520
 2687SOL    HW310779   0.115   4.168   4.508
 2687SOL    MW410780   0.176   4.108   4.520
 2688SOL     OW10781   0.323   3.888   4.155
 2688SOL    HW210782   0.304   3.801   4.191
 2688SOL    HW310783   0.241   3.936   4.165
 2688SOL    MW410784   0.310   3.883   4.161
 2689SOL     OW10785   0.155   4.492   4.511
 2689SOL    HW210786   0.088   4.561   4.516
 2689SOL    HW310787   0.237   4.536   4.534
 2689SOL    MW410788   0.157   4.507   4.515
 2690SOL     OW10789   0.446   0.423   4.590
 2690SOL    HW210790   0.535   0.449   4.567
 2690SOL    HW310791   0.444   0.328   4.579
 2690SOL    MW410792   0.457   0.414   4.585
 2691SOL     OW10793   0.433   4.254   4.539
 2691SOL    HW210794   0.346   4.214   4.539
 2691SOL    HW310795   0.472   4.226   4.457
 2691SOL    MW410796   0.426   4.245   4.528
 2692SOL     OW10797   0.456   0.649   4.751
 2692SOL    HW210798   0.438   0.570   4.700
 2692SOL    HW310799   0.465   0.618   4.842
 2692SOL    MW410800   0.455   0.634   4.757
 2693SOL     OW10801   1.295   0.637   4.568
 2693SOL    HW210802   1.333   0.724   4.563
 2693SOL    HW310803   1.206   0.651   4.601
 2693SOL    MW410804   1.288   0.650   4.571
 2694SOL     OW10805   1.825   1.101   4.574
 2694SOL    HW210806   1.861   1.017   4.546
 2694SOL    HW310807   1.901   1.159   4.579
 2694SOL    MW410808   1.840   1.097   4.571
 2695SOL     OW10809   0.276   1.208   4.523
 2695SOL    HW210810   0.311   1.125   4.493
 2695SOL    HW310811   0.353   1.263   4.537
 2695SOL    MW410812   0.291   1.204   4.521
 2696SOL     OW10813   0.939   1.918   4.718
 2696SOL    HW210814   1.013   1.857   4.721
 2696SOL    HW310815   0.980   2.004   4.716
 2696SOL    MW410816   0.954   1.921   4.718
 2697SOL     OW10817   1.012   1.155   4.481
 2697SOL    HW210818   0.943   1.221   4.480
 2697SOL    HW310819   0.967   1.074   4.507
 2697SOL    MW410820   0.997   1.153   4.484
 2698SOL     OW10821   2.051   1.273   4.655
 2698SOL    HW210822   2.042   1.281   4.750
 2698SOL    HW310823   2.037   1.362   4.622
 2698SOL    MW410824   2.048   1.286   4.663
 2699SOL     OW10825   1.220   1.129   4.663
 2699SOL    HW210826   1.160   1.136   4.590
 2699SOL    HW310827   1.206   1.208   4.714
 2699SOL    MW410828   1.211   1.140   4.660
 2700SOL     OW10829   0.998   2.398   4.529
 2700SOL    HW210830   0.955   2.483   4.531
 2700SOL    HW310831   1.088   2.417   4.502
 2700SOL    MW410832   1.004   2.411   4.526
 2701SOL     OW10833   1.597   2.440   4.714
 2701SOL    HW210834   1.654   2.490   4.773
 2701SOL    HW310835   1.529   2.502   4.689
 2701SOL    MW410836   1.595   2.455   4.719
 2702SOL     OW10837   1.449   3.159   4.536
 2702SOL    HW210838   1.517   3.092   4.529
 2702SOL    HW310839   1.483   3.221   4.600
 2702SOL    MW410840   1.462   3.158   4.543
 2703SOL     OW10841   1.654   3.382   4.593
 2703SOL    HW210842   1.727   3.344   4.642
 2703SOL    HW310843   1.660   3.341   4.506
 2703SOL    MW410844   1.664   3.371   4.588
 2704SOL     OW10845   0.693   2.822   4.525
 2704SOL    HW210846   0.761   2.757   4.508
 2704SOL    HW310847   0.623   2.773   4.569
 2704SOL    MW410848   0.693   2.807   4.529
 2705SOL     OW10849   0.740   4.501   4.552
 2705SOL    HW210850   0.813   4.446   4.580
 2705SOL    HW310851   0.702   4.454   4.478
 2705SOL    MW410852   0.745   4.488   4.546
 2706SOL     OW10853   1.311   2.880   4.531
 2706SOL    HW210854   1.225   2.876   4.491
 2706SOL    HW310855   1.341   2.970   4.517
 2706SOL    MW410856   1.304   2.891   4.524
 2707SOL     OW10857   1.058   2.868   4.401
 2707SOL    HW210858   1.016   2.949   4.430
 2707SOL    HW310859   1.073   2.881   4.307
 2707SOL    MW410860   1.055   2.880   4.392
 2708SOL     OW10861   2.040   3.597   4.473
 2708SOL    HW210862   2.027   3.616   4.380
 2708SOL    HW310863   2.027   3.503   4.481
 2708SOL    MW410864   2.037   3.587   4.462
 2709SOL     OW10865   0.431   3.770   4.584
 2709SOL    HW210866   0.459   3.825   4.511
 2709SOL    HW310867   0.447   3.823   4.662
 2709SOL    MW410868   0.437   3.784   4.585
 2710SOL     OW10869   0.210   3.355   4.570
 2710SOL    HW210870   0.205   3.446   4.540
 2710SOL    HW310871   0.136   3.312   4.528
 2710SOL    MW410872   0.200   3.362   4.561
 2711SOL     OW10873   0.742   0.102   4.472
 2711SOL    HW210874   0.773   0.097   4.382
 2711SOL    HW310875   0.756   0.015   4.507
 2711SOL    MW410876   0.748   0.090   4.465
 2712SOL     OW10877   0.909   4.192   4.295
 2712SOL    HW210878   0.962   4.210   4.373
 2712SOL    HW310879   0.831   4.246   4.307
 2712SOL    MW410880   0.906   4.202   4.307
 2713SOL     OW10881   2.277   4.022   4.521
 2713SOL    HW210882   2.274   4.009   4.426
 2713SOL    HW310883   2.289   3.935   4.557
 2713SOL    MW410884   2.278   4.009   4.513
 2714SOL     OW10885   1.782   4.547   4.545
 2714SOL    HW210886   1.832   4.471   4.575
 2714SOL    HW310887   1.701   4.510   4.511
 2714SOL    MW410888   1.778   4.532   4.544
 2715SOL     OW10889   1.536   4.441   4.457
 2715SOL    HW210890   1.529   4.346   4.468
 2715SOL    HW310891   1.523   4.456   4.364
 2715SOL    MW410892   1.533   4.430   4.446
 2716SOL     OW10893   0.683   0.535   4.503
 2716SOL    HW210894   0.669   0.626   4.528
 2716SOL    HW310895   0.664   0.533   4.409
 2716SOL    MW410896   0.678   0.547   4.493
 2717SOL     OW10897   1.764   0.158   4.552
 2717SOL    HW210898   1.782   0.064   4.547
 2717SOL    HW310899   1.679   0.164   4.596
 2717SOL    MW410900   1.755   0.146   4.557
 2718SOL     OW10901   0.961   0.464   4.457
 2718SOL    HW210902   0.868   0.482   4.470
 2718SOL    HW310903   0.973   0.374   4.487
 2718SOL    MW410904   0.951   0.455   4.463
 2719SOL     OW10905   1.785   1.671   4.492
 2719SOL    HW210906   1.865   1.620   4.482
 2719SOL    HW310907   1.754   1.686   4.403
 2719SOL    MW410908   1.791   1.666   4.479
 2720SOL     OW10909   0.621   0.782   4.568
 2720SOL    HW210910   0.553   0.840   4.532
 2720SOL    HW310911   0.579   0.739   4.643
 2720SOL    MW410912   0.606   0.784   4.573
 2721SOL     OW10913   1.475   0.230   4.646
 2721SOL    HW210914   1.498   0.316   4.610
 2721SOL    HW310915   1.478   0.243   4.741
 2721SOL    MW410916   1.478   0.243   4.654
 2722SOL     OW10917   1.544   1.183   4.544
 2722SOL    HW210918   1.496   1.103   4.566
 2722SOL    HW310919   1.636   1.160   4.561
 2722SOL    MW410920   1.550   1.169   4.549
 2723SOL     OW10921   1.471   1.724   4.515
 2723SOL    HW210922   1.501   1.641   4.552
 2723SOL    HW310923   1.434   1.701   4.430
 2723SOL    MW410924   1.470   1.710   4.508
 2724SOL     OW10925   1.406   2.647   4.640
 2724SOL    HW210926   1.368   2.732   4.619
 2724SOL    HW310927   1.358   2.585   4.584
 2724SOL    MW410928   1.394   2.650   4.630
 2725SOL     OW10929   2.329   2.579   4.231
 2725SOL    HW210930   2.278   2.531   4.166
 2725SOL    HW310931   2.268   2.643   4.267
 2725SOL    MW410932   2.314   2.581   4.227
 2726SOL     OW10933   0.830   2.222   4.380
 2726SOL    HW210934   0.902   2.271   4.421
 2726SOL    HW310935   0.850   2.225   4.286
 2726SOL    MW410936   0.842   2.229   4.373
 2727SOL     OW10937   1.290   4.025   4.504
 2727SOL    HW210938   1.272   4.040   4.597
 2727SOL    HW310939   1.289   3.929   4.495
 2727SOL    MW410940   1.287   4.014   4.515
 2728SOL     OW10941   1.320   2.463   4.242
 2728SOL    HW210942   1.313   2.549   4.202
 2728SOL    HW310943   1.396   2.423   4.201
 2728SOL    MW410944   1.329   2.469   4.232
 2729SOL     OW10945   1.277   2.446   4.510
 2729SOL    HW210946   1.311   2.452   4.421
 2729SOL    HW310947   1.305   2.360   4.541
 2729SOL    MW410948   1.285   2.435   4.502
 2730SOL     OW10949   1.249   3.333   4.417
 2730SOL    HW210950   1.326   3.289   4.454
 2730SOL    HW310951   1.257   3.321   4.323
 2730SOL    MW410952   1.260   3.326   4.410
 2731SOL     OW10953   0.851   3.191   4.674
 2731SOL    HW210954   0.922   3.162   4.730
 2731SOL    HW310955   0.869   3.284   4.657
 2731SOL    MW410956   0.862   3.200   4.679
 2732SOL     OW10957   0.600   3.564   4.525
 2732SOL    HW210958   0.563   3.476   4.524
 2732SOL    HW310959   0.536   3.617   4.572
 2732SOL    MW410960   0.587   3.560   4.531
 2733SOL     OW10961   2.281   3.317   4.505
 2733SOL    HW210962   2.323   3.235   4.532
 2733SOL    HW310963   2.188   3.303   4.521
 2733SOL    MW410964   2.274   3.304   4.510
 2734SOL     OW10965   1.995   3.308   4.544
 2734SOL    HW210966   1.942   3.258   4.483
 2734SOL    HW310967   2.017   3.246   4.614
 2734SOL    MW410968   1.991   3.293   4.545
 2735SOL     OW10969   2.415   3.088   4.538
 2735SOL    HW210970   2.368   3.004   4.535
 2735SOL    HW310971   2.469   3.082   4.616
 2735SOL    MW410972   2.416   3.076   4.548
 2736SOL     OW10973   1.111   3.548   4.513
 2736SOL    HW210974   1.080   3.608   4.445
 2736SOL    HW310975   1.152   3.476   4.464
 2736SOL    MW410976   1.113   3.546   4.498
 2737SOL     OW10977   1.757   4.054   4.459
 2737SOL    HW210978   1.764   4.071   4.365
 2737SOL    HW310979   1.770   3.959   4.467
 2737SOL    MW410980   1.760   4.044   4.448
 2738SOL     OW10981   1.957   0.377   4.589
 2738SOL    HW210982   1.907   0.298   4.568
 2738SOL    HW310983   2.037   0.345   4.631
 2738SOL    MW410984   1.961   0.363   4.591
 2739SOL     OW10985   0.965   0.227   4.597
 2739SOL    HW210986   0.889   0.170   4.588
 2739SOL    HW310987   0.943   0.285   4.670
 2739SOL    MW410988   0.952   0.227   4.606
 2740SOL     OW10989   1.246   0.074   4.546
 2740SOL    HW210990   1.324   0.121   4.577
 2740SOL    HW310991   1.175   0.137   4.556
 2740SOL    MW410992   1.247   0.089   4.552
 2741SOL     OW10993   2.322   0.035   4.520
 2741SOL    HW210994   2.324  -0.061   4.527
 2741SOL    HW310995   2.280   0.052   4.436
 2741SOL    MW410996   2.317   0.024   4.510
 2742SOL     OW10997   1.925   0.831   4.483
 2742SOL    HW210998   1.873   0.859   4.408
 2742SOL    HW310999   1.882   0.752   4.515
 2742SOL    MW411000   1.912   0.824   4.477
 2743SOL     OW11001   1.549   0.491   4.543
 2743SOL    HW211002   1.476   0.554   4.541
 2743SOL    HW311003   1.620   0.538   4.586
 2743SOL    MW411004   1.548   0.506   4.549
 2744SOL     OW11005   2.181   1.702   4.459
 2744SOL    HW211006   2.240   1.776   4.477
 2744SOL    HW311007   2.173   1.699   4.364
 2744SOL    MW411008   2.187   1.712   4.449
 2745SOL     OW11009   0.732   1.807   4.573
 2745SOL    HW211010   0.800   1.851   4.623
 2745SOL    HW311011   0.660   1.795   4.635
 2745SOL    MW411012   0.732   1.811   4.588
 2746SOL     OW11013   1.565   1.491   4.600
 2746SOL    HW211014   1.573   1.395   4.595
 2746SOL    HW311015   1.654   1.523   4.584
 2746SOL    MW411016   1.578   1.482   4.598
 2747SOL     OW11017   1.078   2.161   4.655
 2747SOL    HW211018   1.161   2.198   4.684
 2747SOL    HW311019   1.028   2.236   4.623
 2747SOL    MW411020   1.082   2.176   4.655
 2748SOL     OW11021   1.480   2.003   4.500
 2748SOL    HW211022   1.520   2.018   4.414
 2748SOL    HW311023   1.488   1.909   4.514
 2748SOL    MW411024   1.486   1.993   4.490
 2749SOL     OW11025   2.146   2.421   4.084
 2749SOL    HW211026   2.116   2.383   4.001
 2749SOL    HW311027   2.126   2.354   4.149
 2749SOL    MW411028   2.139   2.407   4.082
 2750SOL     OW11029   1.350   2.211   4.664
 2750SOL    HW211030   1.411   2.145   4.632
 2750SOL    HW311031   1.403   2.266   4.722
 2750SOL    MW411032   1.365   2.209   4.667
 2751SOL     OW11033   2.961   3.253   4.705
 2751SOL    HW211034   3.033   3.315   4.695
 2751SOL    HW311035   3.000   3.168   4.683
 2751SOL    MW411036   2.976   3.250   4.701
 2752SOL     OW11037   1.802   3.169   4.758
 2752SOL    HW211038   1.753   3.106   4.705
 2752SOL    HW311039   1.892   3.138   4.755
 2752SOL    MW411040   1.807   3.157   4.751
 2753SOL     OW11041   1.804   3.767   4.555
 2753SOL    HW211042   1.811   3.792   4.647
 2753SOL    HW311043   1.880   3.711   4.539
 2753SOL    MW411044   1.815   3.763   4.565
 2754SOL     OW11045   2.631   2.790   4.761
 2754SOL    HW211046   2.571   2.747   4.701
 2754SOL    HW311047   2.715   2.791   4.715
 2754SOL    MW411048   2.634   2.785   4.747
 2755SOL     OW11049   2.308   2.627   4.880
 2755SOL    HW211050   2.367   2.625   4.956
 2755SOL    HW311051   2.292   2.720   4.865
 2755SOL    MW411052   2.314   2.639   4.888
 2756SOL     OW11053   2.801   3.881   4.626
 2756SOL    HW211054   2.724   3.929   4.595
 2756SOL    HW311055   2.788   3.873   4.721
 2756SOL    MW411056   2.789   3.886   4.634
 2757SOL     OW11057   2.554   4.034   4.540
 2757SOL    HW211058   2.460   4.022   4.530
 2757SOL    HW311059   2.589   4.026   4.451
 2757SOL    MW411060   2.546   4.031   4.527
 2758SOL     OW11061   2.436   3.542   4.488
 2758SOL    HW211062   2.383   3.462   4.488
 2758SOL    HW311063   2.445   3.565   4.396
 2758SOL    MW411064   2.430   3.535   4.476
 2759SOL     OW11065   2.281   3.753   4.586
 2759SOL    HW211066   2.347   3.684   4.581
 2759SOL    HW311067   2.200   3.712   4.554
 2759SOL    MW411068   2.279   3.739   4.581
 2760SOL     OW11069   1.923   4.287   4.545
 2760SOL    HW211070   1.885   4.202   4.528
 2760SOL    HW311071   1.987   4.272   4.614
 2760SOL    MW411072   1.927   4.274   4.552
 2761SOL     OW11073   1.297   3.747   4.550
 2761SOL    HW211074   1.371   3.699   4.513
 2761SOL    HW311075   1.232   3.679   4.570
 2761SOL    MW411076   1.299   3.731   4.548
 2762SOL     OW11077   2.199   0.251   4.676
 2762SOL    HW211078   2.237   0.170   4.642
 2762SOL    HW311079   2.260   0.280   4.744
 2762SOL    MW411080   2.213   0.245   4.681
 2763SOL     OW11081   2.478   0.662   4.873
 2763SOL    HW211082   2.558   0.697   4.912
 2763SOL    HW311083   2.469   0.710   4.791
 2763SOL    MW411084   2.487   0.673   4.868
 2764SOL     OW11085   1.988   1.489   4.465
 2764SOL    HW211086   2.073   1.532   4.464
 2764SOL    HW311087   1.993   1.424   4.394
 2764SOL    MW411088   2.000   1.486   4.455
 2765SOL     OW11089   2.474   0.788   4.621
 2765SOL    HW211090   2.382   0.799   4.596
 2765SOL    HW311091   2.501   0.707   4.577
 2765SOL    MW411092   2.465   0.779   4.612
 2766SOL     OW11093   2.889   0.682   4.350
 2766SOL    HW211094   2.952   0.664   4.420
 2766SOL    HW311095   2.938   0.734   4.287
 2766SOL    MW411096   2.904   0.686   4.351
 2767SOL     OW11097   3.287   1.220   4.324
 2767SOL    HW211098   3.248   1.235   4.410
 2767SOL    HW311099   3.363   1.278   4.322
 2767SOL    MW411100   3.292   1.229   4.335
 2768SOL     OW11101   2.215   0.853   4.529
 2768SOL    HW211102   2.222   0.949   4.523
 2768SOL    HW311103   2.122   0.835   4.512
 2768SOL    MW411104   2.204   0.864   4.526
 2769SOL     OW11105   2.651   1.435   4.629
 2769SOL    HW211106   2.670   1.443   4.722
 2769SOL    HW311107   2.708   1.364   4.599
 2769SOL    MW411108   2.661   1.427   4.637
 2770SOL     OW11109   2.639   1.684   4.500
 2770SOL    HW211110   2.660   1.659   4.411
 2770SOL    HW311111   2.638   1.602   4.549
 2770SOL    MW411112   2.641   1.670   4.495
 2771SOL     OW11113   2.433   1.870   4.459
 2771SOL    HW211114   2.507   1.810   4.471
 2771SOL    HW311115   2.435   1.892   4.366
 2771SOL    MW411116   2.443   1.865   4.448
 2772SOL     OW11117   2.140   2.179   4.756
 2772SOL    HW211118   2.049   2.155   4.738
 2772SOL    HW311119   2.135   2.263   4.802
 2772SOL    MW411120   2.127   2.187   4.760
 2773SOL     OW11121   2.406   2.099   4.635
 2773SOL    HW211122   2.406   2.019   4.584
 2773SOL    HW311123   2.317   2.105   4.671
 2773SOL    MW411124   2.394   2.089   4.633
 2774SOL     OW11125   2.815   2.469   4.354
 2774SOL    HW211126   2.722   2.466   4.376
 2774SOL    HW311127   2.836   2.563   4.352
 2774SOL    MW411128   2.806   2.481   4.357
 2775SOL     OW11129   1.616   2.734   4.444
 2775SOL    HW211130   1.652   2.663   4.391
 2775SOL    HW311131   1.545   2.694   4.493
 2775SOL    MW411132   1.612   2.720   4.443
 2776SOL     OW11133   2.289   2.908   4.788
 2776SOL    HW211134   2.373   2.953   4.776
 2776SOL    HW311135   2.269   2.873   4.701
 2776SOL    MW411136   2.298   2.909   4.775
 2777SOL     OW11137   2.703   3.465   4.586
 2777SOL    HW211138   2.692   3.408   4.662
 2777SOL    HW311139   2.614   3.495   4.565
 2777SOL    MW411140   2.690   3.461   4.593
 2778SOL     OW11141   2.532   3.043   4.774
 2778SOL    HW211142   2.596   3.105   4.810
 2778SOL    HW311143   2.573   2.957   4.786
 2778SOL    MW411144   2.546   3.040   4.780
 2779SOL     OW11145   1.518   4.176   4.459
 2779SOL    HW211146   1.446   4.118   4.483
 2779SOL    HW311147   1.597   4.121   4.466
 2779SOL    MW411148   1.519   4.161   4.463
 2780SOL     OW11149   3.096   4.041   4.463
 2780SOL    HW211150   3.020   4.016   4.516
 2780SOL    HW311151   3.168   3.990   4.499
 2780SOL    MW411152   3.095   4.031   4.474
 2781SOL     OW11153   2.071   3.079   4.682
 2781SOL    HW211154   2.087   3.036   4.598
 2781SOL    HW311155   2.139   3.045   4.740
 2781SOL    MW411156   2.082   3.069   4.679
 2782SOL     OW11157   3.292   3.937   4.621
 2782SOL    HW211158   3.303   3.996   4.696
 2782SOL    HW311159   3.306   3.849   4.657
 2782SOL    MW411160   3.296   3.933   4.636
 2783SOL     OW11161   3.277   4.144   4.864
 2783SOL    HW211162   3.248   4.196   4.789
 2783SOL    HW311163   3.222   4.175   4.937
 2783SOL    MW411164   3.266   4.155   4.864
 2784SOL     OW11165   2.174   4.231   4.665
 2784SOL    HW211166   2.195   4.147   4.625
 2784SOL    HW311167   2.223   4.231   4.747
 2784SOL    MW411168   2.183   4.220   4.671
 2785SOL     OW11169   2.332   4.424   4.522
 2785SOL    HW211170   2.276   4.352   4.548
 2785SOL    HW311171   2.345   4.412   4.427
 2785SOL    MW411172   2.326   4.413   4.513
 2786SOL     OW11173   2.878   0.418   4.295
 2786SOL    HW211174   2.888   0.513   4.303
 2786SOL    HW311175   2.954   0.390   4.244
 2786SOL    MW411176   2.889   0.427   4.290
 2787SOL     OW11177   3.040   4.498   4.735
 2787SOL    HW211178   3.096   4.433   4.694
 2787SOL    HW311179   2.955   4.488   4.691
 2787SOL    MW411180   3.036   4.488   4.724
 2788SOL     OW11181   2.605   4.317   4.592
 2788SOL    HW211182   2.518   4.346   4.564
 2788SOL    HW311183   2.603   4.222   4.582
 2788SOL    MW411184   2.593   4.309   4.587
 2789SOL     OW11185   2.859   0.892   4.647
 2789SOL    HW211186   2.854   0.799   4.671
 2789SOL    HW311187   2.776   0.909   4.603
 2789SOL    MW411188   2.847   0.882   4.644
 2790SOL     OW11189   2.901   0.317   4.807
 2790SOL    HW211190   2.889   0.410   4.789
 2790SOL    HW311191   2.817   0.277   4.784
 2790SOL    MW411192   2.889   0.324   4.802
 2791SOL     OW11193   1.795   0.616   4.644
 2791SOL    HW211194   1.845   0.534   4.642
 2791SOL    HW311195   1.817   0.655   4.728
 2791SOL    MW411196   1.805   0.611   4.655
 2792SOL     OW11197   2.635   1.026   4.536
 2792SOL    HW211198   2.574   0.969   4.581
 2792SOL    HW311199   2.655   0.981   4.454
 2792SOL    MW411200   2.630   1.013   4.531
 2793SOL     OW11201   3.122   1.216   4.576
 2793SOL    HW211202   3.028   1.226   4.558
 2793SOL    HW311203   3.130   1.126   4.608
 2793SOL    MW411204   3.111   1.205   4.578
 2794SOL     OW11205   3.099   1.728   4.529
 2794SOL    HW211206   3.023   1.769   4.571
 2794SOL    HW311207   3.134   1.669   4.597
 2794SOL    MW411208   3.094   1.726   4.544
 2795SOL     OW11209   2.855   1.843   4.600
 2795SOL    HW211210   2.852   1.931   4.562
 2795SOL    HW311211   2.774   1.802   4.570
 2795SOL    MW411212   2.844   1.850   4.591
 2796SOL     OW11213   2.571   2.204   4.432
 2796SOL    HW211214   2.560   2.297   4.414
 2796SOL    HW311215   2.523   2.190   4.514
 2796SOL    MW411216   2.563   2.215   4.441
 2797SOL     OW11217   2.825   2.106   4.484
 2797SOL    HW211218   2.736   2.140   4.477
 2797SOL    HW311219   2.846   2.075   4.396
 2797SOL    MW411220   2.816   2.106   4.471
 2798SOL     OW11221   3.035   2.289   4.510
 2798SOL    HW211222   2.960   2.228   4.505
 2798SOL    HW311223   3.033   2.335   4.426
 2798SOL    MW411224   3.025   2.287   4.498
 2799SOL     OW11225   2.457   2.640   4.616
 2799SOL    HW211226   2.409   2.605   4.691
 2799SOL    HW311227   2.399   2.706   4.579
 2799SOL    MW411228   2.443   2.644   4.621
 2800SOL     OW11229   3.605   3.555   4.696
 2800SOL    HW211230   3.629   3.553   4.603
 2800SOL    HW311231   3.664   3.491   4.737
 2800SOL    MW411232   3.616   3.546   4.689
 2801SOL     OW11233   2.792   2.749   4.322
 2801SOL    HW211234   2.828   2.802   4.251
 2801SOL    HW311235   2.698   2.769   4.321
 2801SOL    MW411236   2.784   2.759   4.313
 2802SOL     OW11237   2.718   3.293   4.815
 2802SOL    HW211238   2.795   3.260   4.769
 2802SOL    HW311239   2.753   3.347   4.886
 2802SOL    MW411240   2.733   3.296   4.819
 2803SOL     OW11241   3.040   2.989   4.583
 2803SOL    HW211242   3.123   2.952   4.554
 2803SOL    HW311243   2.981   2.914   4.588
 2803SOL    MW411244   3.043   2.974   4.580
 2804SOL     OW11245   2.635   0.233   4.749
 2804SOL    HW211246   2.567   0.292   4.781
 2804SOL    HW311247   2.595   0.146   4.752
 2804SOL    MW411248   2.621   0.229   4.754
 2805SOL     OW11249   3.564   4.248   4.812
 2805SOL    HW211250   3.477   4.234   4.849
 2805SOL    HW311251   3.553   4.230   4.719
 2805SOL    MW411252   3.551   4.244   4.804
 2806SOL     OW11253   3.963   3.724   4.559
 2806SOL    HW211254   3.950   3.689   4.471
 2806SOL    HW311255   3.983   3.647   4.612
 2806SOL    MW411256   3.964   3.709   4.554
 2807SOL     OW11257   2.899   3.622   4.474
 2807SOL    HW211258   2.833   3.572   4.521
 2807SOL    HW311259   2.890   3.712   4.508
 2807SOL    MW411260   2.889   3.627   4.485
 2808SOL     OW11261   3.213   4.268   4.619
 2808SOL    HW211262   3.181   4.201   4.558
 2808SOL    HW311263   3.287   4.308   4.574
 2808SOL    MW411264   3.218   4.265   4.605
 2809SOL     OW11265   2.725   0.416   4.527
 2809SOL    HW211266   2.720   0.333   4.574
 2809SOL    HW311267   2.798   0.406   4.466
 2809SOL    MW411268   2.734   0.404   4.525
 2810SOL     OW11269   2.865   0.609   4.706
 2810SOL    HW211270   2.948   0.613   4.660
 2810SOL    HW311271   2.809   0.554   4.651
 2810SOL    MW411272   2.868   0.602   4.693
 2811SOL     OW11273   2.412   0.405   4.792
 2811SOL    HW211274   2.413   0.414   4.696
 2811SOL    HW311275   2.445   0.489   4.824
 2811SOL    MW411276   2.417   0.417   4.783
 2812SOL     OW11277   2.469   1.243   4.509
 2812SOL    HW211278   2.526   1.171   4.533
 2812SOL    HW311279   2.509   1.320   4.550
 2812SOL    MW411280   2.482   1.244   4.518
 2813SOL     OW11281   2.831   4.465   4.555
 2813SOL    HW211282   2.752   4.414   4.572
 2813SOL    HW311283   2.800   4.556   4.551
 2813SOL    MW411284   2.816   4.471   4.556
 2814SOL     OW11285   2.779   0.071   4.506
 2814SOL    HW211286   2.734   0.066   4.422
 2814SOL    HW311287   2.710   0.090   4.569
 2814SOL    MW411288   2.764   0.073   4.503
 2815SOL     OW11289   3.206   1.464   4.668
 2815SOL    HW211290   3.185   1.465   4.761
 2815SOL    HW311291   3.165   1.383   4.635
 2815SOL    MW411292   3.198   1.453   4.676
 2816SOL     OW11293   2.825   1.239   4.514
 2816SOL    HW211294   2.784   1.153   4.516
 2816SOL    HW311295   2.856   1.249   4.424
 2816SOL    MW411296   2.824   1.229   4.502
 2817SOL     OW11297   3.975   0.986   4.553
 2817SOL    HW211298   4.003   0.968   4.464
 2817SOL    HW311299   4.047   0.954   4.608
 2817SOL    MW411300   3.988   0.980   4.549
 2818SOL     OW11301   3.505   1.469   4.595
 2818SOL    HW211302   3.534   1.560   4.584
 2818SOL    HW311303   3.418   1.477   4.634
 2818SOL    MW411304   3.497   1.482   4.598
 2819SOL     OW11305   3.316   1.880   4.577
 2819SOL    HW211306   3.309   1.971   4.549
 2819SOL    HW311307   3.236   1.839   4.546
 2819SOL    MW411308   3.305   1.887   4.569
 2820SOL     OW11309   3.297   2.146   4.473
 2820SOL    HW211310   3.217   2.186   4.507
 2820SOL    HW311311   3.281   2.137   4.379
 2820SOL    MW411312   3.284   2.150   4.465
 2821SOL     OW11313   3.552   1.745   4.507
 2821SOL    HW211314   3.468   1.785   4.526
 2821SOL    HW311315   3.553   1.736   4.411
 2821SOL    MW411316   3.541   1.749   4.497
 2822SOL     OW11317   2.861   2.789   4.585
 2822SOL    HW211318   2.832   2.798   4.494
 2822SOL    HW311319   2.905   2.705   4.588
 2822SOL    MW411320   2.863   2.779   4.573
 2823SOL     OW11321   3.239   2.571   4.518
 2823SOL    HW211322   3.165   2.571   4.578
 2823SOL    HW311323   3.201   2.564   4.431
 2823SOL    MW411324   3.224   2.570   4.514
 2824SOL     OW11325   2.982   2.535   4.629
 2824SOL    HW211326   2.987   2.450   4.584
 2824SOL    HW311327   2.913   2.523   4.695
 2824SOL    MW411328   2.973   2.522   4.632
 2825SOL     OW11329   3.753   3.087   4.559
 2825SOL    HW211330   3.733   3.130   4.476
 2825SOL    HW311331   3.819   3.021   4.536
 2825SOL    MW411332   3.759   3.084   4.545
 2826SOL     OW11333   3.400   3.592   4.436
 2826SOL    HW211334   3.393   3.637   4.520
 2826SOL    HW311335   3.345   3.514   4.446
 2826SOL    MW411336   3.392   3.588   4.449
 2827SOL     OW11337   3.440   3.098   4.553
 2827SOL    HW211338   3.386   3.019   4.542
 2827SOL    HW311339   3.530   3.066   4.553
 2827SOL    MW411340   3.444   3.083   4.552
 2828SOL     OW11341   3.912   2.875   4.461
 2828SOL    HW211342   3.870   2.798   4.499
 2828SOL    HW311343   4.003   2.870   4.491
 2828SOL    MW411344   3.918   2.864   4.470
 2829SOL     OW11345   3.784   3.336   4.705
 2829SOL    HW211346   3.790   3.253   4.657
 2829SOL    HW311347   3.870   3.376   4.696
 2829SOL    MW411348   3.796   3.330   4.698
 2830SOL     OW11349   3.570   4.200   4.543
 2830SOL    HW211350   3.651   4.249   4.525
 2830SOL    HW311351   3.590   4.111   4.516
 2830SOL    MW411352   3.583   4.195   4.537
 2831SOL     OW11353   3.052   0.172   4.487
 2831SOL    HW211354   2.970   0.124   4.498
 2831SOL    HW311355   3.101   0.155   4.567
 2831SOL    MW411356   3.047   0.164   4.499
 2832SOL     OW11357   3.088   0.108   4.777
 2832SOL    HW211358   3.034   0.029   4.782
 2832SOL    HW311359   3.029   0.180   4.799
 2832SOL    MW411360   3.073   0.107   4.781
 2833SOL     OW11361   3.398   4.409   4.439
 2833SOL    HW211362   3.449   4.332   4.464
 2833SOL    HW311363   3.440   4.481   4.486
 2833SOL    MW411364   3.410   4.408   4.448
 2834SOL     OW11365   3.565   3.920   4.521
 2834SOL    HW211366   3.619   3.892   4.595
 2834SOL    HW311367   3.476   3.921   4.555
 2834SOL    MW411368   3.561   3.917   4.535
 2835SOL     OW11369   3.524   4.618   4.560
 2835SOL    HW211370   3.461   4.675   4.603
 2835SOL    HW311371   3.538   4.657   4.474
 2835SOL    MW411372   3.518   4.630   4.554
 2836SOL     OW11373   3.353   0.826   4.590
 2836SOL    HW211374   3.279   0.876   4.623
 2836SOL    HW311375   3.430   0.878   4.614
 2836SOL    MW411376   3.354   0.839   4.597
 2837SOL     OW11377   2.559   4.649   4.675
 2837SOL    HW211378   2.487   4.660   4.614
 2837SOL    HW311379   2.573   4.554   4.679
 2837SOL    MW411380   2.552   4.638   4.667
 2838SOL     OW11381   4.296   1.615   4.563
 2838SOL    HW211382   4.321   1.549   4.627
 2838SOL    HW311383   4.366   1.614   4.498
 2838SOL    MW411384   4.309   1.606   4.563
 2839SOL     OW11385   3.802   0.773   4.592
 2839SOL    HW211386   3.742   0.773   4.517
 2839SOL    HW311387   3.872   0.834   4.567
 2839SOL    MW411388   3.803   0.781   4.579
 2840SOL     OW11389   4.479   0.920   4.542
 2840SOL    HW211390   4.478   0.910   4.447
 2840SOL    HW311391   4.572   0.913   4.565
 2840SOL    MW411392   4.492   0.918   4.532
 2841SOL     OW11393   4.219   0.533   4.574
 2841SOL    HW211394   4.215   0.532   4.479
 2841SOL    HW311395   4.130   0.555   4.602
 2841SOL    MW411396   4.207   0.536   4.565
 2842SOL     OW11397   3.545   1.726   4.215
 2842SOL    HW211398   3.621   1.677   4.184
 2842SOL    HW311399   3.469   1.675   4.186
 2842SOL    MW411400   3.545   1.713   4.207
 2843SOL     OW11401   3.923   1.735   4.317
 2843SOL    HW211402   3.970   1.664   4.361
 2843SOL    HW311403   3.876   1.780   4.387
 2843SOL    MW411404   3.923   1.732   4.332
 2844SOL     OW11405   3.733   2.360   4.540
 2844SOL    HW211406   3.641   2.354   4.566
 2844SOL    HW311407   3.763   2.270   4.533
 2844SOL    MW411408   3.725   2.348   4.543
 2845SOL     OW11409   3.813   1.855   4.548
 2845SOL    HW211410   3.723   1.822   4.555
 2845SOL    HW311411   3.860   1.812   4.619
 2845SOL    MW411412   3.807   1.845   4.558
 2846SOL     OW11413   0.298   1.952   4.760
 2846SOL    HW211414   0.327   2.017   4.695
 2846SOL    HW311415   0.210   1.928   4.731
 2846SOL    MW411416   0.290   1.957   4.748
 2847SOL     OW11417   3.889   2.100   4.467
 2847SOL    HW211418   3.980   2.108   4.496
 2847SOL    HW311419   3.858   2.018   4.506
 2847SOL    MW411420   3.897   2.090   4.476
 2848SOL     OW11421   3.771   2.644   4.580
 2848SOL    HW211422   3.748   2.553   4.560
 2848SOL    HW311423   3.688   2.688   4.592
 2848SOL    MW411424   3.757   2.638   4.579
 2849SOL     OW11425   4.075   2.551   4.535
 2849SOL    HW211426   3.991   2.582   4.568
 2849SOL    HW311427   4.131   2.628   4.534
 2849SOL    MW411428   4.071   2.565   4.539
 2850SOL     OW11429   4.400   2.943   4.591
 2850SOL    HW211430   4.418   3.029   4.552
 2850SOL    HW311431   4.477   2.891   4.568
 2850SOL    MW411432   4.413   2.948   4.583
 2851SOL     OW11433   3.291   3.341   4.509
 2851SOL    HW211434   3.251   3.291   4.438
 2851SOL    HW311435   3.355   3.281   4.548
 2851SOL    MW411436   3.294   3.326   4.505
 2852SOL     OW11437   3.351   3.674   4.695
 2852SOL    HW211438   3.272   3.621   4.705
 2852SOL    HW311439   3.423   3.615   4.714
 2852SOL    MW411440   3.350   3.660   4.699
 2853SOL     OW11441   3.105   3.517   4.652
 2853SOL    HW211442   3.043   3.555   4.590
 2853SOL    HW311443   3.153   3.452   4.601
 2853SOL    MW411444   3.104   3.514   4.637
 2854SOL     OW11445   4.185   3.350   4.472
 2854SOL    HW211446   4.192   3.428   4.417
 2854SOL    HW311447   4.127   3.291   4.424
 2854SOL    MW411448   4.179   3.352   4.459
 2855SOL     OW11449   0.269   3.051   4.711
 2855SOL    HW211450   0.243   3.137   4.677
 2855SOL    HW311451   0.364   3.052   4.707
 2855SOL    MW411452   0.278   3.063   4.706
 2856SOL     OW11453   4.288   3.820   4.398
 2856SOL    HW211454   4.222   3.879   4.434
 2856SOL    HW311455   4.289   3.840   4.304
 2856SOL    MW411456   4.279   3.830   4.390
 2857SOL     OW11457   3.811   4.331   4.487
 2857SOL    HW211458   3.806   4.351   4.393
 2857SOL    HW311459   3.801   4.416   4.530
 2857SOL    MW411460   3.809   4.345   4.480
 2858SOL     OW11461   3.348   0.185   4.694
 2858SOL    HW211462   3.268   0.154   4.737
 2858SOL    HW311463   3.323   0.267   4.653
 2858SOL    MW411464   3.334   0.192   4.695
 2859SOL     OW11465   3.592   0.936   4.672
 2859SOL    HW211466   3.629   1.019   4.640
 2859SOL    HW311467   3.665   0.875   4.670
 2859SOL    MW411468   3.606   0.939   4.668
 2860SOL     OW11469   3.093   0.657   4.565
 2860SOL    HW211470   3.142   0.579   4.538
 2860SOL    HW311471   3.160   0.717   4.598
 2860SOL    MW411472   3.108   0.655   4.566
 2861SOL     OW11473   4.432   0.314   4.544
 2861SOL    HW211474   4.511   0.367   4.555
 2861SOL    HW311475   4.361   0.370   4.574
 2861SOL    MW411476   4.433   0.328   4.549
 2862SOL     OW11477   0.181   0.484   4.508
 2862SOL    HW211478   0.270   0.457   4.532
 2862SOL    HW311479   0.181   0.481   4.412
 2862SOL    MW411480   0.193   0.480   4.498
 2863SOL     OW11481   3.953   0.330   4.516
 2863SOL    HW211482   3.973   0.391   4.587
 2863SOL    HW311483   3.951   0.244   4.558
 2863SOL    MW411484   3.955   0.327   4.531
 2864SOL     OW11485   3.659   1.185   4.517
 2864SOL    HW211486   3.615   1.259   4.559
 2864SOL    HW311487   3.728   1.225   4.465
 2864SOL    MW411488   3.662   1.200   4.516
 2865SOL     OW11489   4.336   1.193   4.539
 2865SOL    HW211490   4.407   1.258   4.544
 2865SOL    HW311491   4.380   1.109   4.544
 2865SOL    MW411492   4.351   1.191   4.540
 2866SOL     OW11493   0.056   1.395   4.551
 2866SOL    HW211494   0.079   1.488   4.548
 2866SOL    HW311495   0.139   1.351   4.570
 2866SOL    MW411496   0.070   1.402   4.553
 2867SOL     OW11497   4.035   1.541   4.511
 2867SOL    HW211498   4.130   1.555   4.511
 2867SOL    HW311499   4.024   1.447   4.501
 2867SOL    MW411500   4.046   1.531   4.510
 2868SOL     OW11501   3.286   2.859   4.514
 2868SOL    HW211502   3.302   2.766   4.530
 2868SOL    HW311503   3.305   2.871   4.421
 2868SOL    MW411504   3.290   2.848   4.504
 2869SOL     OW11505   4.257   2.039   4.280
 2869SOL    HW211506   4.190   1.978   4.250
 2869SOL    HW311507   4.220   2.077   4.360
 2869SOL    MW411508   4.243   2.036   4.287
 2870SOL     OW11509   0.120   2.143   4.494
 2870SOL    HW211510   0.209   2.138   4.530
 2870SOL    HW311511   0.089   2.230   4.519
 2870SOL    MW411512   0.128   2.154   4.502
 2871SOL     OW11513   4.145   2.100   4.557
 2871SOL    HW211514   4.192   2.022   4.588
 2871SOL    HW311515   4.190   2.173   4.601
 2871SOL    MW411516   4.157   2.099   4.567
 2872SOL     OW11517   3.458   2.403   4.515
 2872SOL    HW211518   3.387   2.460   4.545
 2872SOL    HW311519   3.421   2.314   4.519
 2872SOL    MW411520   3.444   2.399   4.519
 2873SOL     OW11521   0.485   2.642   4.624
 2873SOL    HW211522   0.442   2.566   4.585
 2873SOL    HW311523   0.425   2.671   4.693
 2873SOL    MW411524   0.471   2.636   4.628
 2874SOL     OW11525   4.183   2.810   4.504
 2874SOL    HW211526   4.246   2.862   4.554
 2874SOL    HW311527   4.205   2.827   4.412
 2874SOL    MW411528   4.194   2.819   4.498
 2875SOL     OW11529   0.126   2.754   4.522
 2875SOL    HW211530   0.179   2.788   4.451
 2875SOL    HW311531   0.177   2.770   4.601
 2875SOL    MW411532   0.139   2.760   4.523
 2876SOL     OW11533   0.221   3.610   4.478
 2876SOL    HW211534   0.290   3.675   4.494
 2876SOL    HW311535   0.218   3.601   4.383
 2876SOL    MW411536   0.230   3.617   4.468
 2877SOL     OW11537   3.759   4.518   4.684
 2877SOL    HW211538   3.735   4.467   4.761
 2877SOL    HW311539   3.676   4.554   4.653
 2877SOL    MW411540   3.745   4.516   4.690
 2878SOL     OW11541   4.224   4.328   4.692
 2878SOL    HW211542   4.219   4.331   4.787
 2878SOL    HW311543   4.158   4.263   4.667
 2878SOL    MW411544   4.215   4.320   4.701
 2879SOL     OW11545   4.014   3.462   4.647
 2879SOL    HW211546   4.067   3.442   4.724
 2879SOL    HW311547   4.058   3.418   4.574
 2879SOL    MW411548   4.027   3.454   4.648
 2880SOL     OW11549   2.466   0.526   4.524
 2880SOL    HW211550   2.556   0.494   4.528
 2880SOL    HW311551   2.445   0.528   4.430
 2880SOL    MW411552   2.475   0.522   4.512
 2881SOL     OW11553   4.299   4.438   4.262
 2881SOL    HW211554   4.350   4.357   4.259
 2881SOL    HW311555   4.283   4.452   4.355
 2881SOL    MW411556   4.304   4.429   4.274
 2882NA      NA11557   2.682   4.249   0.667
 2883NA      NA11558   0.739   2.085   0.371
   4.49070   4.66690  10.00000
