Gromacs Runs On Most of All Computer Systems in water t= 450.00000 step= 450000
11558
    1RG35     P    1   2.141   2.800   4.487
    1RG35   O1P    2   2.163   2.707   4.373
    1RG35   O2P    3   2.057   2.916   4.457
    1RG35   O5'    4   2.062   2.710   4.585
    1RG35   C5'    5   1.976   2.761   4.689
    1RG35  H5'1    6   1.898   2.817   4.638
    1RG35  H5'2    7   2.025   2.828   4.760
    1RG35   C4'    8   1.907   2.650   4.774
    1RG35   H4'    9   1.827   2.701   4.827
    1RG35   O4'   10   1.855   2.551   4.684
    1RG35   C1'   11   1.911   2.423   4.701
    1RG35   H1'   12   1.837   2.371   4.763
    1RG35    N9   13   1.942   2.351   4.574
    1RG35    C8   14   2.026   2.381   4.472
    1RG35    H8   15   2.071   2.477   4.449
    1RG35    N7   16   2.037   2.278   4.390
    1RG35    C5   17   1.957   2.178   4.440
    1RG35    C6   18   1.919   2.047   4.392
    1RG35    O6   19   1.950   1.985   4.294
    1RG35    N1   20   1.840   1.979   4.481
    1RG35    H1   21   1.836   1.880   4.462
    1RG35    C2   22   1.796   2.035   4.593
    1RG35    N2   23   1.733   1.959   4.669
    1RG35   H21   24   1.721   1.860   4.651
    1RG35   H22   25   1.692   2.007   4.749
    1RG35    N3   26   1.815   2.157   4.641
    1RG35    C4   27   1.901   2.223   4.557
    1RG35   C3'   28   1.997   2.571   4.869
    1RG35   H3'   29   2.089   2.621   4.900
    1RG35   C2'   30   2.042   2.447   4.779
    1RG35  H2'1   31   2.119   2.471   4.706
    1RG35   O2'   32   2.084   2.337   4.859
    1RG35  HO'2   33   2.148   2.291   4.804
    1RG35   O3'   34   1.915   2.522   4.976
    1RG35   H3T   35   1.952   2.437   4.999
    1RG35   O3P   36   2.269   2.829   4.556
    2SOL     OW   37   0.429   0.142   0.476
    2SOL    HW2   38   0.443   0.066   0.419
    2SOL    HW3   39   0.485   0.210   0.438
    2SOL    MW4   40   0.438   0.141   0.463
    3SOL     OW   41   4.042   0.039   0.431
    3SOL    HW2   42   4.118   0.027   0.374
    3SOL    HW3   43   4.008  -0.050   0.444
    3SOL    MW4   44   4.047   0.026   0.425
    4SOL     OW   45   3.834   0.398   0.463
    4SOL    HW2   46   3.768   0.450   0.417
    4SOL    HW3   47   3.819   0.417   0.556
    4SOL    MW4   48   3.823   0.407   0.469
    5SOL     OW   49   0.420   1.534   0.520
    5SOL    HW2   50   0.393   1.443   0.520
    5SOL    HW3   51   0.343   1.582   0.488
    5SOL    MW4   52   0.406   1.529   0.516
    6SOL     OW   53   1.392   0.934   0.441
    6SOL    HW2   54   1.488   0.935   0.439
    6SOL    HW3   55   1.369   0.947   0.533
    6SOL    MW4   56   1.401   0.936   0.453
    7SOL     OW   57   0.247   0.564   0.440
    7SOL    HW2   58   0.254   0.571   0.535
    7SOL    HW3   59   0.253   0.470   0.423
    7SOL    MW4   60   0.249   0.552   0.450
    8SOL     OW   61   0.388   0.990   0.480
    8SOL    HW2   62   0.396   0.983   0.575
    8SOL    HW3   63   0.421   0.907   0.446
    8SOL    MW4   64   0.393   0.978   0.488
    9SOL     OW   65   0.911   0.950   0.425
    9SOL    HW2   66   0.917   0.930   0.519
    9SOL    HW3   67   0.826   0.992   0.414
    9SOL    MW4   68   0.901   0.953   0.436
   10SOL     OW   69   0.644   1.041   0.374
   10SOL    HW2   70   0.654   0.956   0.332
   10SOL    HW3   71   0.561   1.034   0.422
   10SOL    MW4   72   0.634   1.029   0.375
   11SOL     OW   73   0.293   1.888   0.291
   11SOL    HW2   74   0.266   1.804   0.330
   11SOL    HW3   75   0.386   1.895   0.311
   11SOL    MW4   76   0.302   1.878   0.299
   12SOL     OW   77   4.061   2.254   0.530
   12SOL    HW2   78   3.967   2.242   0.546
   12SOL    HW3   79   4.104   2.201   0.597
   12SOL    MW4   80   4.054   2.246   0.541
   13SOL     OW   81   0.186   1.629   0.402
   13SOL    HW2   82   0.158   1.548   0.359
   13SOL    HW3   83   0.105   1.666   0.439
   13SOL    MW4   84   0.171   1.623   0.402
   14SOL     OW   85   0.511   2.361   0.191
   14SOL    HW2   86   0.550   2.447   0.178
   14SOL    HW3   87   0.423   2.379   0.225
   14SOL    MW4   88   0.505   2.375   0.194
   15SOL     OW   89   0.233   2.787   0.483
   15SOL    HW2   90   0.310   2.773   0.428
   15SOL    HW3   91   0.195   2.869   0.451
   15SOL    MW4   92   0.238   2.796   0.472
   16SOL     OW   93   4.222   3.275   0.471
   16SOL    HW2   94   4.141   3.224   0.461
   16SOL    HW3   95   4.289   3.210   0.492
   16SOL    MW4   96   4.220   3.260   0.472
   17SOL     OW   97   0.112   3.006   0.372
   17SOL    HW2   98   0.062   2.984   0.293
   17SOL    HW3   99   0.129   3.100   0.364
   17SOL    MW4  100   0.107   3.016   0.360
   18SOL     OW  101   0.431   3.399   0.410
   18SOL    HW2  102   0.478   3.317   0.422
   18SOL    HW3  103   0.484   3.464   0.457
   18SOL    MW4  104   0.444   3.397   0.418
   19SOL     OW  105   0.592   3.835   0.333
   19SOL    HW2  106   0.671   3.806   0.289
   19SOL    HW3  107   0.616   3.919   0.374
   19SOL    MW4  108   0.605   3.843   0.333
   20SOL     OW  109   4.110   3.784   0.439
   20SOL    HW2  110   4.177   3.848   0.462
   20SOL    HW3  111   4.159   3.703   0.425
   20SOL    MW4  112   4.126   3.782   0.441
   21SOL     OW  113   0.057   3.804   0.220
   21SOL    HW2  114   0.138   3.823   0.267
   21SOL    HW3  115   0.078   3.818   0.128
   21SOL    MW4  116   0.070   3.808   0.214
   22SOL     OW  117   4.463   4.486   0.426
   22SOL    HW2  118   4.444   4.413   0.367
   22SOL    HW3  119   4.420   4.463   0.508
   22SOL    MW4  120   4.455   4.473   0.429
   23SOL     OW  121   4.371   4.268   0.268
   23SOL    HW2  122   4.387   4.181   0.305
   23SOL    HW3  123   4.276   4.280   0.276
   23SOL    MW4  124   4.360   4.258   0.274
   24SOL     OW  125   4.452   4.033   0.368
   24SOL    HW2  126   4.401   3.997   0.441
   24SOL    HW3  127   4.474   3.957   0.314
   24SOL    MW4  128   4.448   4.018   0.371
   25SOL     OW  129   0.569   3.163   0.516
   25SOL    HW2  130   0.530   3.187   0.600
   25SOL    HW3  131   0.651   3.212   0.513
   25SOL    MW4  132   0.575   3.173   0.527
   26SOL     OW  133   0.462   4.542   0.361
   26SOL    HW2  134   0.381   4.500   0.387
   26SOL    HW3  135   0.451   4.563   0.269
   26SOL    MW4  136   0.450   4.539   0.352
   27SOL     OW  137   0.227   0.296   0.364
   27SOL    HW2  138   0.142   0.251   0.360
   27SOL    HW3  139   0.286   0.230   0.400
   27SOL    MW4  140   0.224   0.281   0.368
   28SOL     OW  141   4.489   0.705   0.375
   28SOL    HW2  142   4.462   0.658   0.296
   28SOL    HW3  143   4.570   0.661   0.402
   28SOL    MW4  144   4.496   0.693   0.368
   29SOL     OW  145   0.904   4.487   0.389
   29SOL    HW2  146   0.969   4.422   0.414
   29SOL    HW3  147   0.820   4.443   0.404
   29SOL    MW4  148   0.901   4.472   0.394
   30SOL     OW  149   1.141   1.101   0.393
   30SOL    HW2  150   1.066   1.047   0.417
   30SOL    HW3  151   1.213   1.039   0.381
   30SOL    MW4  152   1.140   1.086   0.395
   31SOL     OW  153   0.705   0.563   0.464
   31SOL    HW2  154   0.767   0.609   0.407
   31SOL    HW3  155   0.715   0.471   0.440
   31SOL    MW4  156   0.714   0.557   0.453
   32SOL     OW  157   0.279   1.284   0.489
   32SOL    HW2  158   0.304   1.205   0.440
   32SOL    HW3  159   0.211   1.325   0.435
   32SOL    MW4  160   0.273   1.279   0.475
   33SOL     OW  161   0.125   2.108   0.427
   33SOL    HW2  162   0.039   2.100   0.385
   33SOL    HW3  163   0.181   2.049   0.376
   33SOL    MW4  164   0.121   2.099   0.414
   34SOL     OW  165   0.676   2.084   0.240
   34SOL    HW2  166   0.659   2.085   0.146
   34SOL    HW3  167   0.766   2.053   0.248
   34SOL    MW4  168   0.686   2.080   0.229
   35SOL     OW  169   0.923   2.724   0.225
   35SOL    HW2  170   1.008   2.682   0.211
   35SOL    HW3  171   0.944   2.813   0.253
   35SOL    MW4  172   0.937   2.730   0.227
   36SOL     OW  173   0.669   2.614   0.161
   36SOL    HW2  174   0.653   2.655   0.076
   36SOL    HW3  175   0.759   2.640   0.183
   36SOL    MW4  176   0.679   2.623   0.153
   37SOL     OW  177   3.890   2.468   0.175
   37SOL    HW2  178   3.922   2.499   0.091
   37SOL    HW3  179   3.964   2.419   0.212
   37SOL    MW4  180   3.904   2.465   0.169
   38SOL     OW  181   1.458   2.506   0.498
   38SOL    HW2  182   1.415   2.425   0.469
   38SOL    HW3  183   1.392   2.574   0.485
   38SOL    MW4  184   1.444   2.504   0.492
   39SOL     OW  185   0.638   2.496   0.467
   39SOL    HW2  186   0.602   2.579   0.436
   39SOL    HW3  187   0.733   2.509   0.466
   39SOL    MW4  188   0.645   2.509   0.463
   40SOL     OW  189   4.389   3.060   0.536
   40SOL    HW2  190   4.457   3.048   0.470
   40SOL    HW3  191   4.331   2.985   0.524
   40SOL    MW4  192   4.390   3.048   0.526
   41SOL     OW  193   0.514   2.724   0.375
   41SOL    HW2  194   0.568   2.702   0.299
   41SOL    HW3  195   0.565   2.789   0.423
   41SOL    MW4  196   0.528   2.730   0.371
   42SOL     OW  197   0.848   0.436   0.195
   42SOL    HW2  198   0.823   0.440   0.103
   42SOL    HW3  199   0.854   0.528   0.222
   42SOL    MW4  200   0.845   0.449   0.187
   43SOL     OW  201   0.239   3.588   0.512
   43SOL    HW2  202   0.274   3.670   0.476
   43SOL    HW3  203   0.298   3.520   0.481
   43SOL    MW4  204   0.251   3.590   0.503
   44SOL     OW  205   0.574   3.610   0.505
   44SOL    HW2  206   0.574   3.695   0.459
   44SOL    HW3  207   0.608   3.630   0.592
   44SOL    MW4  208   0.578   3.624   0.510
   45SOL     OW  209   1.078   3.563   0.530
   45SOL    HW2  210   1.002   3.507   0.544
   45SOL    HW3  211   1.149   3.503   0.509
   45SOL    MW4  212   1.077   3.548   0.529
   46SOL     OW  213   0.249   4.390   0.481
   46SOL    HW2  214   0.159   4.413   0.460
   46SOL    HW3  215   0.254   4.295   0.466
   46SOL    MW4  216   0.238   4.380   0.476
   47SOL     OW  217   0.790   3.510   0.357
   47SOL    HW2  218   0.811   3.583   0.299
   47SOL    HW3  219   0.704   3.531   0.392
   47SOL    MW4  220   0.782   3.522   0.354
   48SOL     OW  221   0.646   4.352   0.492
   48SOL    HW2  222   0.586   4.421   0.463
   48SOL    HW3  223   0.663   4.371   0.584
   48SOL    MW4  224   0.641   4.364   0.500
   49SOL     OW  225   0.670   0.289   0.351
   49SOL    HW2  226   0.728   0.218   0.377
   49SOL    HW3  227   0.713   0.328   0.275
   49SOL    MW4  228   0.683   0.285   0.344
   50SOL     OW  229   0.897   0.689   0.301
   50SOL    HW2  230   0.911   0.781   0.325
   50SOL    HW3  231   0.982   0.648   0.317
   50SOL    MW4  232   0.910   0.696   0.307
   51SOL     OW  233   0.484   0.718   0.391
   51SOL    HW2  234   0.405   0.667   0.373
   51SOL    HW3  235   0.548   0.653   0.419
   51SOL    MW4  236   0.482   0.703   0.393
   52SOL     OW  237   1.389   0.646   0.435
   52SOL    HW2  238   1.439   0.617   0.511
   52SOL    HW3  239   1.395   0.741   0.437
   52SOL    MW4  240   1.396   0.655   0.445
   53SOL     OW  241   1.937   0.835   0.366
   53SOL    HW2  242   1.956   0.870   0.279
   53SOL    HW3  243   1.845   0.859   0.381
   53SOL    MW4  244   1.927   0.843   0.356
   54SOL     OW  245   1.541   0.490   0.267
   54SOL    HW2  246   1.499   0.561   0.315
   54SOL    HW3  247   1.551   0.523   0.178
   54SOL    MW4  248   1.537   0.503   0.261
   55SOL     OW  249   0.911   1.726   0.410
   55SOL    HW2  250   0.835   1.679   0.377
   55SOL    HW3  251   0.904   1.721   0.505
   55SOL    MW4  252   0.900   1.719   0.418
   56SOL     OW  253   0.734   1.331   0.426
   56SOL    HW2  254   0.709   1.244   0.397
   56SOL    HW3  255   0.829   1.331   0.423
   56SOL    MW4  256   0.743   1.320   0.422
   57SOL     OW  257   1.359   1.409   0.223
   57SOL    HW2  258   1.322   1.353   0.155
   57SOL    HW3  259   1.287   1.467   0.249
   57SOL    MW4  260   1.345   1.409   0.218
   58SOL     OW  261   1.017   1.362   0.429
   58SOL    HW2  262   1.055   1.282   0.392
   58SOL    HW3  263   1.065   1.433   0.387
   58SOL    MW4  264   1.028   1.361   0.418
   59SOL     OW  265   1.160   1.595   0.337
   59SOL    HW2  266   1.227   1.661   0.355
   59SOL    HW3  267   1.077   1.638   0.357
   59SOL    MW4  268   1.158   1.609   0.342
   60SOL     OW  269   4.349   2.139   0.233
   60SOL    HW2  270   4.365   2.150   0.140
   60SOL    HW3  271   4.300   2.217   0.259
   60SOL    MW4  272   4.344   2.151   0.224
   61SOL     OW  273   0.551   1.885   0.387
   61SOL    HW2  274   0.590   1.811   0.340
   61SOL    HW3  275   0.579   1.962   0.338
   61SOL    MW4  276   0.560   1.885   0.374
   62SOL     OW  277   0.843   2.257   0.451
   62SOL    HW2  278   0.875   2.169   0.430
   62SOL    HW3  279   0.920   2.313   0.441
   62SOL    MW4  280   0.858   2.253   0.447
   63SOL     OW  281   0.448   2.209   0.513
   63SOL    HW2  282   0.433   2.232   0.605
   63SOL    HW3  283   0.382   2.258   0.465
   63SOL    MW4  284   0.437   2.218   0.519
   64SOL     OW  285   0.920   2.562   0.508
   64SOL    HW2  286   0.992   2.502   0.488
   64SOL    HW3  287   0.889   2.535   0.595
   64SOL    MW4  288   0.926   2.551   0.517
   65SOL     OW  289   1.104   2.383   0.427
   65SOL    HW2  290   1.187   2.339   0.448
   65SOL    HW3  291   1.129   2.450   0.363
   65SOL    MW4  292   1.119   2.386   0.421
   66SOL     OW  293   0.666   2.907   0.507
   66SOL    HW2  294   0.640   3.000   0.509
   66SOL    HW3  295   0.687   2.887   0.598
   66SOL    MW4  296   0.665   2.917   0.520
   67SOL     OW  297   0.823   3.251   0.475
   67SOL    HW2  298   0.849   3.269   0.565
   67SOL    HW3  299   0.809   3.338   0.436
   67SOL    MW4  300   0.824   3.265   0.482
   68SOL     OW  301   2.147   3.643   0.476
   68SOL    HW2  302   2.115   3.665   0.563
   68SOL    HW3  303   2.133   3.549   0.468
   68SOL    MW4  304   2.141   3.634   0.486
   69SOL     OW  305   0.887   4.085   0.526
   69SOL    HW2  306   0.799   4.078   0.489
   69SOL    HW3  307   0.874   4.081   0.621
   69SOL    MW4  308   0.874   4.084   0.534
   70SOL     OW  309   0.624   4.078   0.451
   70SOL    HW2  310   0.563   4.061   0.523
   70SOL    HW3  311   0.635   4.173   0.452
   70SOL    MW4  312   0.618   4.088   0.461
   71SOL     OW  313   1.111   4.259   0.450
   71SOL    HW2  314   1.041   4.194   0.457
   71SOL    HW3  315   1.130   4.283   0.541
   71SOL    MW4  316   1.105   4.254   0.463
   72SOL     OW  317   1.111   0.534   0.450
   72SOL    HW2  318   1.094   0.451   0.406
   72SOL    HW3  319   1.205   0.548   0.439
   72SOL    MW4  320   1.121   0.525   0.443
   73SOL     OW  321   0.871   0.117   0.439
   73SOL    HW2  322   0.889   0.024   0.426
   73SOL    HW3  323   0.874   0.130   0.533
   73SOL    MW4  324   0.874   0.107   0.449
   74SOL     OW  325   1.352   0.289   0.392
   74SOL    HW2  326   1.277   0.282   0.334
   74SOL    HW3  327   1.411   0.350   0.349
   74SOL    MW4  328   1.350   0.297   0.379
   75SOL     OW  329   2.036   0.187   0.330
   75SOL    HW2  330   1.975   0.258   0.307
   75SOL    HW3  331   1.979   0.116   0.360
   75SOL    MW4  332   2.020   0.187   0.331
   76SOL     OW  333   1.070   0.297   0.320
   76SOL    HW2  334   1.025   0.233   0.375
   76SOL    HW3  335   1.001   0.333   0.264
   76SOL    MW4  336   1.055   0.294   0.320
   77SOL     OW  337   2.305   0.482   0.373
   77SOL    HW2  338   2.210   0.494   0.374
   77SOL    HW3  339   2.317   0.387   0.386
   77SOL    MW4  340   2.294   0.471   0.375
   78SOL     OW  341   2.428   0.967   0.516
   78SOL    HW2  342   2.480   0.938   0.440
   78SOL    HW3  343   2.337   0.961   0.487
   78SOL    MW4  344   2.423   0.962   0.502
   79SOL     OW  345   1.725   1.202   0.427
   79SOL    HW2  346   1.663   1.227   0.496
   79SOL    HW3  347   1.721   1.275   0.365
   79SOL    MW4  348   1.716   1.215   0.428
   80SOL     OW  349   1.678   0.935   0.440
   80SOL    HW2  350   1.715   0.925   0.528
   80SOL    HW3  351   1.690   1.028   0.420
   80SOL    MW4  352   1.685   0.946   0.449
   81SOL     OW  353   1.383   1.258   0.455
   81SOL    HW2  354   1.297   1.217   0.441
   81SOL    HW3  355   1.394   1.318   0.381
   81SOL    MW4  356   1.373   1.260   0.444
   82SOL     OW  357   1.635   1.644   0.436
   82SOL    HW2  358   1.660   1.729   0.472
   82SOL    HW3  359   1.630   1.587   0.513
   82SOL    MW4  360   1.637   1.648   0.451
   83SOL     OW  361   1.181   2.580   0.233
   83SOL    HW2  362   1.238   2.550   0.162
   83SOL    HW3  363   1.232   2.649   0.276
   83SOL    MW4  364   1.196   2.585   0.229
   84SOL     OW  365   1.312   2.751   0.411
   84SOL    HW2  366   1.234   2.795   0.444
   84SOL    HW3  367   1.383   2.812   0.428
   84SOL    MW4  368   1.311   2.765   0.417
   85SOL     OW  369   1.990   1.934   0.407
   85SOL    HW2  370   2.035   2.005   0.452
   85SOL    HW3  371   2.009   1.950   0.314
   85SOL    MW4  372   1.998   1.946   0.401
   86SOL     OW  373   1.614   2.155   0.502
   86SOL    HW2  374   1.673   2.229   0.518
   86SOL    HW3  375   1.669   2.078   0.516
   86SOL    MW4  376   1.629   2.155   0.506
   87SOL     OW  377   0.946   2.008   0.317
   87SOL    HW2  378   1.038   2.025   0.340
   87SOL    HW3  379   0.934   1.915   0.336
   87SOL    MW4  380   0.957   1.998   0.323
   88SOL     OW  381   0.876   2.996   0.362
   88SOL    HW2  382   0.870   3.090   0.380
   88SOL    HW3  383   0.797   2.959   0.399
   88SOL    MW4  384   0.865   3.004   0.369
   89SOL     OW  385   2.020   2.163   0.557
   89SOL    HW2  386   2.039   2.111   0.635
   89SOL    HW3  387   2.099   2.217   0.545
   89SOL    MW4  388   2.033   2.163   0.566
   90SOL     OW  389   2.030   0.564   0.388
   90SOL    HW2  390   2.016   0.658   0.379
   90SOL    HW3  391   1.942   0.526   0.391
   90SOL    MW4  392   2.017   0.572   0.387
   91SOL     OW  393   1.028   3.881   0.389
   91SOL    HW2  394   1.047   3.817   0.458
   91SOL    HW3  395   0.978   3.949   0.433
   91SOL    MW4  396   1.024   3.881   0.404
   92SOL     OW  397   1.971   2.588   0.422
   92SOL    HW2  398   2.061   2.579   0.390
   92SOL    HW3  399   1.968   2.676   0.460
   92SOL    MW4  400   1.983   2.599   0.423
   93SOL     OW  401   1.321   3.955   0.442
   93SOL    HW2  402   1.242   3.926   0.397
   93SOL    HW3  403   1.337   4.043   0.409
   93SOL    MW4  404   1.313   3.962   0.432
   94SOL     OW  405   1.769   3.065   0.466
   94SOL    HW2  406   1.835   2.995   0.473
   94SOL    HW3  407   1.686   3.018   0.456
   94SOL    MW4  408   1.767   3.049   0.466
   95SOL     OW  409   2.224   3.909   0.396
   95SOL    HW2  410   2.209   3.815   0.408
   95SOL    HW3  411   2.292   3.914   0.329
   95SOL    MW4  412   2.231   3.897   0.389
   96SOL     OW  413   0.841   3.745   0.229
   96SOL    HW2  414   0.840   3.786   0.143
   96SOL    HW3  415   0.918   3.782   0.272
   96SOL    MW4  416   0.851   3.756   0.224
   97SOL     OW  417   1.883   4.647   0.421
   97SOL    HW2  418   1.810   4.708   0.429
   97SOL    HW3  419   1.846   4.569   0.380
   97SOL    MW4  420   1.869   4.645   0.417
   98SOL     OW  421   2.035   4.636   0.668
   98SOL    HW2  422   2.057   4.543   0.662
   98SOL    HW3  423   1.983   4.654   0.589
   98SOL    MW4  424   2.031   4.626   0.657
   99SOL     OW  425   2.493   4.402   0.195
   99SOL    HW2  426   2.535   4.461   0.258
   99SOL    HW3  427   2.464   4.459   0.124
   99SOL    MW4  428   2.495   4.417   0.194
  100SOL     OW  429   1.364   4.217   0.350
  100SOL    HW2  430   1.271   4.228   0.370
  100SOL    HW3  431   1.404   4.299   0.380
  100SOL    MW4  432   1.357   4.230   0.357
  101SOL     OW  433   2.567   0.598   0.453
  101SOL    HW2  434   2.487   0.569   0.410
  101SOL    HW3  435   2.594   0.676   0.404
  101SOL    MW4  436   2.560   0.605   0.441
  102SOL     OW  437   1.749   1.913   0.563
  102SOL    HW2  438   1.767   1.882   0.651
  102SOL    HW3  439   1.834   1.914   0.520
  102SOL    MW4  440   1.762   1.909   0.569
  103SOL     OW  441   2.012   1.254   0.470
  103SOL    HW2  442   2.038   1.336   0.429
  103SOL    HW3  443   1.922   1.240   0.440
  103SOL    MW4  444   2.003   1.263   0.461
  104SOL     OW  445   2.456   1.266   0.516
  104SOL    HW2  446   2.546   1.292   0.492
  104SOL    HW3  447   2.454   1.171   0.502
  104SOL    MW4  448   2.468   1.257   0.511
  105SOL     OW  449   2.488   1.831   0.502
  105SOL    HW2  450   2.490   1.926   0.493
  105SOL    HW3  451   2.544   1.800   0.431
  105SOL    MW4  452   2.496   1.839   0.491
  106SOL     OW  453   1.633   1.411   0.257
  106SOL    HW2  454   1.542   1.407   0.229
  106SOL    HW3  455   1.643   1.500   0.291
  106SOL    MW4  456   1.622   1.423   0.258
  107SOL     OW  457   1.367   1.807   0.468
  107SOL    HW2  458   1.438   1.761   0.424
  107SOL    HW3  459   1.356   1.760   0.551
  107SOL    MW4  460   1.375   1.794   0.473
  108SOL     OW  461   2.294   2.302   0.461
  108SOL    HW2  462   2.275   2.376   0.404
  108SOL    HW3  463   2.301   2.341   0.548
  108SOL    MW4  464   2.292   2.317   0.465
  109SOL     OW  465   1.777   3.350   0.464
  109SOL    HW2  466   1.765   3.261   0.433
  109SOL    HW3  467   1.872   3.360   0.472
  109SOL    MW4  468   1.788   3.340   0.461
  110SOL     OW  469   1.048   2.825   0.496
  110SOL    HW2  470   0.988   2.892   0.462
  110SOL    HW3  471   1.001   2.743   0.485
  110SOL    MW4  472   1.034   2.823   0.490
  111SOL     OW  473   1.538   3.528   0.441
  111SOL    HW2  474   1.623   3.485   0.442
  111SOL    HW3  475   1.558   3.619   0.419
  111SOL    MW4  476   1.552   3.535   0.438
  112SOL     OW  477   1.176   2.032   0.479
  112SOL    HW2  478   1.126   2.024   0.560
  112SOL    HW3  479   1.236   1.957   0.480
  112SOL    MW4  480   1.177   2.021   0.490
  113SOL     OW  481   3.622   1.474   0.404
  113SOL    HW2  482   3.528   1.486   0.394
  113SOL    HW3  483   3.642   1.507   0.491
  113SOL    MW4  484   3.612   1.480   0.414
  114SOL     OW  485   1.820   2.361   0.509
  114SOL    HW2  486   1.868   2.283   0.537
  114SOL    HW3  487   1.886   2.419   0.472
  114SOL    MW4  488   1.835   2.358   0.508
  115SOL     OW  489   1.355   2.249   0.421
  115SOL    HW2  490   1.441   2.209   0.433
  115SOL    HW3  491   1.295   2.174   0.419
  115SOL    MW4  492   1.358   2.234   0.423
  116SOL     OW  493   1.291   3.374   0.491
  116SOL    HW2  494   1.366   3.432   0.478
  116SOL    HW3  495   1.282   3.326   0.409
  116SOL    MW4  496   1.300   3.375   0.479
  117SOL     OW  497   2.412   3.581   0.453
  117SOL    HW2  498   2.320   3.608   0.452
  117SOL    HW3  499   2.434   3.572   0.546
  117SOL    MW4  500   2.403   3.584   0.465
  118SOL     OW  501   1.793   4.373   0.351
  118SOL    HW2  502   1.747   4.298   0.313
  118SOL    HW3  503   1.886   4.354   0.336
  118SOL    MW4  504   1.799   4.361   0.344
  119SOL     OW  505   1.563   3.810   0.398
  119SOL    HW2  506   1.485   3.866   0.399
  119SOL    HW3  507   1.635   3.870   0.416
  119SOL    MW4  508   1.562   3.825   0.400
  120SOL     OW  509   1.518   4.442   0.417
  120SOL    HW2  510   1.513   4.435   0.513
  120SOL    HW3  511   1.612   4.437   0.398
  120SOL    MW4  512   1.530   4.441   0.427
  121SOL     OW  513   1.408   0.038   0.483
  121SOL    HW2  514   1.377   0.116   0.437
  121SOL    HW3  515   1.390  -0.034   0.422
  121SOL    MW4  516   1.402   0.038   0.469
  122SOL     OW  517   2.484   4.430   0.694
  122SOL    HW2  518   2.483   4.353   0.750
  122SOL    HW3  519   2.447   4.500   0.749
  122SOL    MW4  520   2.479   4.429   0.709
  123SOL     OW  521   2.328   0.210   0.413
  123SOL    HW2  522   2.295   0.193   0.501
  123SOL    HW3  523   2.256   0.184   0.356
  123SOL    MW4  524   2.314   0.204   0.417
  124SOL     OW  525   2.800   1.538   0.507
  124SOL    HW2  526   2.774   1.557   0.597
  124SOL    HW3  527   2.798   1.442   0.501
  124SOL    MW4  528   2.796   1.528   0.518
  125SOL     OW  529   2.917   0.394   0.496
  125SOL    HW2  530   2.855   0.407   0.425
  125SOL    HW3  531   2.986   0.459   0.481
  125SOL    MW4  532   2.918   0.404   0.485
  126SOL     OW  533   2.143   0.981   0.501
  126SOL    HW2  534   2.123   1.073   0.480
  126SOL    HW3  535   2.066   0.933   0.470
  126SOL    MW4  536   2.130   0.987   0.494
  127SOL     OW  537   2.761   1.253   0.510
  127SOL    HW2  538   2.777   1.170   0.464
  127SOL    HW3  539   2.826   1.255   0.579
  127SOL    MW4  540   2.772   1.243   0.513
  128SOL     OW  541   2.675   1.713   0.332
  128SOL    HW2  542   2.744   1.775   0.310
  128SOL    HW3  543   2.711   1.660   0.403
  128SOL    MW4  544   2.689   1.714   0.338
  129SOL     OW  545   3.101   1.856   0.391
  129SOL    HW2  546   3.127   1.924   0.453
  129SOL    HW3  547   3.181   1.833   0.344
  129SOL    MW4  548   3.115   1.862   0.393
  130SOL     OW  549   2.881   4.548   0.427
  130SOL    HW2  550   2.938   4.625   0.430
  130SOL    HW3  551   2.942   4.474   0.432
  130SOL    MW4  552   2.897   4.549   0.428
  131SOL     OW  553   2.039   1.692   0.602
  131SOL    HW2  554   2.131   1.704   0.622
  131SOL    HW3  555   2.015   1.768   0.548
  131SOL    MW4  556   2.048   1.704   0.598
  132SOL     OW  557   1.559   1.528   0.683
  132SOL    HW2  558   1.613   1.556   0.757
  132SOL    HW3  559   1.471   1.557   0.705
  132SOL    MW4  560   1.554   1.535   0.696
  133SOL     OW  561   2.490   2.107   0.479
  133SOL    HW2  562   2.430   2.179   0.460
  133SOL    HW3  563   2.577   2.144   0.467
  133SOL    MW4  564   2.493   2.122   0.475
  134SOL     OW  565   2.762   2.175   0.452
  134SOL    HW2  566   2.788   2.116   0.380
  134SOL    HW3  567   2.798   2.133   0.530
  134SOL    MW4  568   2.770   2.161   0.453
  135SOL     OW  569   2.505   2.631   0.443
  135SOL    HW2  570   2.581   2.573   0.442
  135SOL    HW3  571   2.520   2.688   0.519
  135SOL    MW4  572   2.517   2.631   0.453
  136SOL     OW  573   1.686   2.648   0.363
  136SOL    HW2  574   1.635   2.575   0.398
  136SOL    HW3  575   1.777   2.619   0.370
  136SOL    MW4  576   1.692   2.634   0.368
  137SOL     OW  577   1.551   2.871   0.471
  137SOL    HW2  578   1.553   2.849   0.564
  137SOL    HW3  579   1.601   2.801   0.429
  137SOL    MW4  580   1.558   2.859   0.478
  138SOL     OW  581   2.009   4.034   0.252
  138SOL    HW2  582   2.014   4.030   0.156
  138SOL    HW3  583   2.088   3.989   0.282
  138SOL    MW4  584   2.020   4.027   0.243
  139SOL     OW  585   2.424   3.922   0.218
  139SOL    HW2  586   2.493   3.856   0.211
  139SOL    HW3  587   2.471   4.006   0.212
  139SOL    MW4  588   2.439   3.925   0.216
  140SOL     OW  589   1.777   4.000   0.447
  140SOL    HW2  590   1.722   4.059   0.395
  140SOL    HW3  591   1.845   3.970   0.386
  140SOL    MW4  592   1.779   4.003   0.432
  141SOL     OW  593   2.112   3.363   0.463
  141SOL    HW2  594   2.141   3.333   0.549
  141SOL    HW3  595   2.160   3.307   0.401
  141SOL    MW4  596   2.122   3.352   0.466
  142SOL     OW  597   2.335   4.321   0.441
  142SOL    HW2  598   2.373   4.382   0.505
  142SOL    HW3  599   2.362   4.357   0.356
  142SOL    MW4  600   2.344   4.334   0.438
  143SOL     OW  601   2.069   4.276   0.382
  143SOL    HW2  602   2.050   4.189   0.348
  143SOL    HW3  603   2.164   4.279   0.388
  143SOL    MW4  604   2.079   4.265   0.378
  144SOL     OW  605   3.059   0.139   0.465
  144SOL    HW2  606   3.003   0.215   0.484
  144SOL    HW3  607   3.094   0.113   0.550
  144SOL    MW4  608   3.056   0.146   0.478
  145SOL     OW  609   2.607   3.680   0.293
  145SOL    HW2  610   2.518   3.663   0.325
  145SOL    HW3  611   2.634   3.598   0.252
  145SOL    MW4  612   2.599   3.667   0.292
  146SOL     OW  613   2.586   4.150   0.512
  146SOL    HW2  614   2.507   4.202   0.505
  146SOL    HW3  615   2.559   4.071   0.559
  146SOL    MW4  616   2.572   4.147   0.517
  147SOL     OW  617   2.620   0.200   0.390
  147SOL    HW2  618   2.663   0.261   0.331
  147SOL    HW3  619   2.529   0.228   0.391
  147SOL    MW4  620   2.614   0.211   0.382
  148SOL     OW  621   1.782   0.398   0.423
  148SOL    HW2  622   1.764   0.324   0.481
  148SOL    HW3  623   1.696   0.425   0.390
  148SOL    MW4  624   1.768   0.392   0.426
  149SOL     OW  625   3.083   0.598   0.429
  149SOL    HW2  626   3.087   0.686   0.467
  149SOL    HW3  627   3.174   0.571   0.421
  149SOL    MW4  628   3.095   0.606   0.433
  150SOL     OW  629   2.372   1.521   0.335
  150SOL    HW2  630   2.391   1.434   0.371
  150SOL    HW3  631   2.458   1.564   0.330
  150SOL    MW4  632   2.386   1.515   0.339
  151SOL     OW  633   2.640   0.854   0.299
  151SOL    HW2  634   2.711   0.877   0.359
  151SOL    HW3  635   2.685   0.823   0.220
  151SOL    MW4  636   2.656   0.853   0.297
  152SOL     OW  637   3.064   1.608   0.514
  152SOL    HW2  638   2.972   1.585   0.502
  152SOL    HW3  639   3.075   1.690   0.466
  152SOL    MW4  640   3.053   1.616   0.506
  153SOL     OW  641   3.371   1.213   0.408
  153SOL    HW2  642   3.464   1.232   0.393
  153SOL    HW3  643   3.356   1.236   0.499
  153SOL    MW4  644   3.382   1.219   0.418
  154SOL     OW  645   3.609   1.752   0.254
  154SOL    HW2  646   3.623   1.657   0.262
  154SOL    HW3  647   3.670   1.791   0.316
  154SOL    MW4  648   3.619   1.744   0.263
  155SOL     OW  649   2.631   0.142   0.707
  155SOL    HW2  650   2.635   0.227   0.751
  155SOL    HW3  651   2.633   0.163   0.614
  155SOL    MW4  652   2.632   0.156   0.701
  156SOL     OW  653   3.168   2.042   0.588
  156SOL    HW2  654   3.082   2.074   0.618
  156SOL    HW3  655   3.210   2.010   0.668
  156SOL    MW4  656   3.162   2.042   0.603
  157SOL     OW  657   2.716   2.456   0.436
  157SOL    HW2  658   2.797   2.490   0.398
  157SOL    HW3  659   2.733   2.362   0.446
  157SOL    MW4  660   2.729   2.448   0.432
  158SOL     OW  661   2.857   1.961   0.291
  158SOL    HW2  662   2.861   1.952   0.195
  158SOL    HW3  663   2.945   1.935   0.320
  158SOL    MW4  664   2.869   1.956   0.282
  159SOL     OW  665   2.238   2.544   0.340
  159SOL    HW2  666   2.225   2.567   0.248
  159SOL    HW3  667   2.315   2.593   0.366
  159SOL    MW4  668   2.246   2.553   0.332
  160SOL     OW  669   2.668   2.911   0.339
  160SOL    HW2  670   2.605   2.838   0.335
  160SOL    HW3  671   2.615   2.989   0.328
  160SOL    MW4  672   2.653   2.912   0.337
  161SOL     OW  673   3.060   3.107   0.445
  161SOL    HW2  674   3.117   3.131   0.518
  161SOL    HW3  675   3.036   3.016   0.463
  161SOL    MW4  676   3.064   3.098   0.457
  162SOL     OW  677   3.355   3.074   0.439
  162SOL    HW2  678   3.344   2.979   0.433
  162SOL    HW3  679   3.285   3.110   0.385
  162SOL    MW4  680   3.345   3.066   0.431
  163SOL     OW  681   2.237   3.090   0.412
  163SOL    HW2  682   2.266   3.113   0.500
  163SOL    HW3  683   2.318   3.086   0.361
  163SOL    MW4  684   2.252   3.093   0.417
  164SOL     OW  685   1.623   4.150   0.260
  164SOL    HW2  686   1.627   4.118   0.169
  164SOL    HW3  687   1.531   4.170   0.274
  164SOL    MW4  688   1.611   4.148   0.250
  165SOL     OW  689   3.417   4.028   0.441
  165SOL    HW2  690   3.339   4.039   0.386
  165SOL    HW3  691   3.395   3.957   0.501
  165SOL    MW4  692   3.404   4.020   0.442
  166SOL     OW  693   2.858   3.290   0.423
  166SOL    HW2  694   2.811   3.251   0.497
  166SOL    HW3  695   2.942   3.244   0.421
  166SOL    MW4  696   2.863   3.279   0.433
  167SOL     OW  697   2.591   3.374   0.317
  167SOL    HW2  698   2.682   3.361   0.344
  167SOL    HW3  699   2.551   3.421   0.390
  167SOL    MW4  700   2.597   3.378   0.330
  168SOL     OW  701   3.701   3.984   0.498
  168SOL    HW2  702   3.724   3.891   0.487
  168SOL    HW3  703   3.616   3.993   0.456
  168SOL    MW4  704   3.693   3.973   0.491
  169SOL     OW  705   3.181   4.116   0.314
  169SOL    HW2  706   3.152   4.192   0.363
  169SOL    HW3  707   3.102   4.086   0.267
  169SOL    MW4  708   3.166   4.122   0.314
  170SOL     OW  709   3.343   0.273   0.484
  170SOL    HW2  710   3.265   0.220   0.468
  170SOL    HW3  711   3.413   0.209   0.498
  170SOL    MW4  712   3.342   0.258   0.483
  171SOL     OW  713   2.618   4.595   0.357
  171SOL    HW2  714   2.603   4.688   0.373
  171SOL    HW3  715   2.713   4.584   0.368
  171SOL    MW4  716   2.629   4.606   0.361
  172SOL     OW  717   2.866   4.004   0.322
  172SOL    HW2  718   2.844   3.915   0.350
  172SOL    HW3  719   2.785   4.039   0.285
  172SOL    MW4  720   2.852   3.997   0.321
  173SOL     OW  721   2.738   0.444   0.294
  173SOL    HW2  722   2.671   0.492   0.342
  173SOL    HW3  723   2.798   0.511   0.262
  173SOL    MW4  724   2.737   0.459   0.296
  174SOL     OW  725   3.069   0.866   0.491
  174SOL    HW2  726   3.079   0.870   0.586
  174SOL    HW3  727   3.151   0.902   0.456
  174SOL    MW4  728   3.081   0.871   0.499
  175SOL     OW  729   3.367   0.539   0.444
  175SOL    HW2  730   3.359   0.445   0.454
  175SOL    HW3  731   3.435   0.551   0.378
  175SOL    MW4  732   3.375   0.528   0.437
  176SOL     OW  733   3.599   0.850   0.437
  176SOL    HW2  734   3.593   0.756   0.420
  176SOL    HW3  735   3.588   0.858   0.531
  176SOL    MW4  736   3.597   0.838   0.447
  177SOL     OW  737   3.544   0.311   0.265
  177SOL    HW2  738   3.458   0.274   0.284
  177SOL    HW3  739   3.603   0.236   0.262
  177SOL    MW4  740   3.541   0.296   0.267
  178SOL     OW  741   3.460   1.818   0.612
  178SOL    HW2  742   3.421   1.821   0.525
  178SOL    HW3  743   3.386   1.814   0.672
  178SOL    MW4  744   3.445   1.818   0.608
  179SOL     OW  745   3.357   1.750   0.338
  179SOL    HW2  746   3.358   1.657   0.362
  179SOL    HW3  747   3.436   1.762   0.286
  179SOL    MW4  748   3.368   1.739   0.334
  180SOL     OW  749   3.304   0.932   0.381
  180SOL    HW2  750   3.393   0.899   0.368
  180SOL    HW3  751   3.313   1.027   0.384
  180SOL    MW4  752   3.316   0.940   0.379
  181SOL     OW  753   4.042   1.798   0.358
  181SOL    HW2  754   4.042   1.812   0.263
  181SOL    HW3  755   3.950   1.789   0.381
  181SOL    MW4  756   4.030   1.798   0.349
  182SOL     OW  757   3.315   2.277   0.605
  182SOL    HW2  758   3.263   2.200   0.583
  182SOL    HW3  759   3.358   2.254   0.687
  182SOL    MW4  760   3.314   2.264   0.613
  183SOL     OW  761   3.611   2.685   0.465
  183SOL    HW2  762   3.668   2.691   0.542
  183SOL    HW3  763   3.605   2.592   0.446
  183SOL    MW4  764   3.618   2.674   0.472
  184SOL     OW  765   2.010   2.895   0.479
  184SOL    HW2  766   2.028   2.883   0.573
  184SOL    HW3  767   2.080   2.952   0.448
  184SOL    MW4  768   2.022   2.901   0.488
  185SOL     OW  769   3.228   2.606   0.239
  185SOL    HW2  770   3.240   2.575   0.149
  185SOL    HW3  771   3.282   2.547   0.292
  185SOL    MW4  772   3.236   2.594   0.234
  186SOL     OW  773   2.983   2.868   0.711
  186SOL    HW2  774   2.971   2.840   0.621
  186SOL    HW3  775   3.038   2.801   0.750
  186SOL    MW4  776   2.989   2.856   0.704
  187SOL     OW  777   2.908   0.667   0.206
  187SOL    HW2  778   2.980   0.641   0.262
  187SOL    HW3  779   2.950   0.697   0.125
  187SOL    MW4  780   2.923   0.667   0.203
  188SOL     OW  781   2.940   4.113   0.563
  188SOL    HW2  782   2.928   4.066   0.481
  188SOL    HW3  783   3.016   4.071   0.604
  188SOL    MW4  784   2.949   4.101   0.558
  189SOL     OW  785   3.382   3.534   0.678
  189SOL    HW2  786   3.383   3.456   0.624
  189SOL    HW3  787   3.312   3.519   0.741
  189SOL    MW4  788   3.373   3.522   0.679
  190SOL     OW  789   3.730   3.310   0.407
  190SOL    HW2  790   3.744   3.359   0.488
  190SOL    HW3  791   3.756   3.370   0.337
  190SOL    MW4  792   3.736   3.324   0.409
  191SOL     OW  793   3.464   3.312   0.542
  191SOL    HW2  794   3.545   3.332   0.494
  191SOL    HW3  795   3.444   3.222   0.518
  191SOL    MW4  796   3.472   3.303   0.533
  192SOL     OW  797   2.809   3.764   0.470
  192SOL    HW2  798   2.882   3.703   0.471
  192SOL    HW3  799   2.739   3.717   0.426
  192SOL    MW4  800   2.810   3.750   0.465
  193SOL     OW  801   2.498   3.118   0.293
  193SOL    HW2  802   2.504   3.100   0.199
  193SOL    HW3  803   2.524   3.210   0.300
  193SOL    MW4  804   2.502   3.128   0.281
  194SOL     OW  805   4.307   0.002   0.284
  194SOL    HW2  806   4.302  -0.012   0.189
  194SOL    HW3  807   4.355  -0.074   0.316
  194SOL    MW4  808   4.312  -0.010   0.275
  195SOL     OW  809   3.797   0.142   0.353
  195SOL    HW2  810   3.812   0.234   0.374
  195SOL    HW3  811   3.882   0.100   0.363
  195SOL    MW4  812   3.810   0.148   0.357
  196SOL     OW  813   3.641   0.566   0.323
  196SOL    HW2  814   3.624   0.496   0.260
  196SOL    HW3  815   3.709   0.619   0.282
  196SOL    MW4  816   3.648   0.564   0.309
  197SOL     OW  817   3.868   0.727   0.237
  197SOL    HW2  818   3.947   0.681   0.265
  197SOL    HW3  819   3.868   0.809   0.287
  197SOL    MW4  820   3.878   0.732   0.247
  198SOL     OW  821   4.050   0.560   0.384
  198SOL    HW2  822   4.134   0.518   0.405
  198SOL    HW3  823   3.984   0.500   0.418
  198SOL    MW4  824   4.053   0.547   0.392
  199SOL     OW  825   4.377   0.941   0.472
  199SOL    HW2  826   4.290   0.904   0.486
  199SOL    HW3  827   4.427   0.870   0.431
  199SOL    MW4  828   4.372   0.927   0.469
  200SOL     OW  829   3.861   0.945   0.416
  200SOL    HW2  830   3.872   1.038   0.435
  200SOL    HW3  831   3.768   0.928   0.436
  200SOL    MW4  832   3.850   0.955   0.421
  201SOL     OW  833   4.155   1.585   0.491
  201SOL    HW2  834   4.104   1.642   0.434
  201SOL    HW3  835   4.241   1.627   0.497
  201SOL    MW4  836   4.160   1.598   0.484
  202SOL     OW  837   3.822   1.248   0.430
  202SOL    HW2  838   3.909   1.277   0.405
  202SOL    HW3  839   3.764   1.317   0.397
  202SOL    MW4  840   3.826   1.261   0.422
  203SOL     OW  841   3.314   1.474   0.415
  203SOL    HW2  842   3.224   1.500   0.430
  203SOL    HW3  843   3.309   1.380   0.396
  203SOL    MW4  844   3.302   1.465   0.414
  204SOL     OW  845   2.814   0.970   0.469
  204SOL    HW2  846   2.785   0.945   0.557
  204SOL    HW3  847   2.906   0.946   0.467
  204SOL    MW4  848   2.822   0.964   0.481
  205SOL     OW  849   3.661   2.412   0.361
  205SOL    HW2  850   3.721   2.427   0.288
  205SOL    HW3  851   3.701   2.340   0.410
  205SOL    MW4  852   3.674   2.405   0.358
  206SOL     OW  853   4.220   2.837   0.477
  206SOL    HW2  854   4.244   2.745   0.467
  206SOL    HW3  855   4.124   2.838   0.471
  206SOL    MW4  856   4.210   2.825   0.475
  207SOL     OW  857   2.989   2.578   0.353
  207SOL    HW2  858   3.014   2.531   0.433
  207SOL    HW3  859   3.071   2.591   0.306
  207SOL    MW4  860   3.003   2.573   0.358
  208SOL     OW  861   2.979   3.532   0.491
  208SOL    HW2  862   3.031   3.553   0.413
  208SOL    HW3  863   2.940   3.447   0.471
  208SOL    MW4  864   2.980   3.524   0.478
  209SOL     OW  865   3.344   2.788   0.457
  209SOL    HW2  866   3.435   2.764   0.442
  209SOL    HW3  867   3.295   2.736   0.393
  209SOL    MW4  868   3.349   2.778   0.446
  210SOL     OW  869   3.955   2.865   0.443
  210SOL    HW2  870   3.931   2.818   0.364
  210SOL    HW3  871   3.942   2.957   0.421
  210SOL    MW4  872   3.950   2.871   0.430
  211SOL     OW  873   3.794   2.739   0.260
  211SOL    HW2  874   3.807   2.659   0.208
  211SOL    HW3  875   3.742   2.710   0.335
  211SOL    MW4  876   3.789   2.724   0.263
  212SOL     OW  877   3.962   4.047   0.391
  212SOL    HW2  878   3.993   3.957   0.386
  212SOL    HW3  879   3.871   4.040   0.417
  212SOL    MW4  880   3.954   4.034   0.393
  213SOL     OW  881   3.385   2.448   0.387
  213SOL    HW2  882   3.369   2.376   0.448
  213SOL    HW3  883   3.470   2.430   0.349
  213SOL    MW4  884   3.394   2.436   0.390
  214SOL     OW  885   3.335   3.828   0.617
  214SOL    HW2  886   3.389   3.839   0.694
  214SOL    HW3  887   3.329   3.733   0.605
  214SOL    MW4  888   3.341   3.817   0.625
  215SOL     OW  889   4.297   3.941   0.611
  215SOL    HW2  890   4.262   3.890   0.684
  215SOL    HW3  891   4.253   4.025   0.618
  215SOL    MW4  892   4.287   3.945   0.622
  216SOL     OW  893   3.479   4.299   0.473
  216SOL    HW2  894   3.456   4.212   0.439
  216SOL    HW3  895   3.537   4.280   0.548
  216SOL    MW4  896   3.484   4.285   0.479
  217SOL     OW  897   3.642   4.503   0.356
  217SOL    HW2  898   3.575   4.436   0.373
  217SOL    HW3  899   3.621   4.536   0.269
  217SOL    MW4  900   3.630   4.498   0.347
  218SOL     OW  901   4.447   0.204   0.418
  218SOL    HW2  902   4.386   0.138   0.384
  218SOL    HW3  903   4.463   0.178   0.508
  218SOL    MW4  904   4.441   0.192   0.425
  219SOL     OW  905   4.119   0.832   0.478
  219SOL    HW2  906   4.030   0.863   0.458
  219SOL    HW3  907   4.119   0.740   0.452
  219SOL    MW4  908   4.107   0.824   0.472
  220SOL     OW  909   0.639   1.601   0.357
  220SOL    HW2  910   0.573   1.586   0.424
  220SOL    HW3  911   0.676   1.515   0.340
  220SOL    MW4  912   0.635   1.588   0.364
  221SOL     OW  913   4.325   0.450   0.437
  221SOL    HW2  914   4.368   0.368   0.412
  221SOL    HW3  915   4.391   0.518   0.423
  221SOL    MW4  916   4.339   0.448   0.432
  222SOL     OW  917   4.371   1.200   0.361
  222SOL    HW2  918   4.378   1.115   0.404
  222SOL    HW3  919   4.283   1.230   0.380
  222SOL    MW4  920   4.361   1.193   0.369
  223SOL     OW  921   3.556   0.081   0.497
  223SOL    HW2  922   3.570  -0.006   0.459
  223SOL    HW3  923   3.630   0.133   0.467
  223SOL    MW4  924   3.568   0.076   0.488
  224SOL     OW  925   4.136   1.297   0.445
  224SOL    HW2  926   4.138   1.392   0.450
  224SOL    HW3  927   4.169   1.267   0.530
  224SOL    MW4  928   4.140   1.306   0.457
  225SOL     OW  929   0.086   1.368   0.313
  225SOL    HW2  930   0.011   1.314   0.339
  225SOL    HW3  931   0.104   1.342   0.223
  225SOL    MW4  932   0.078   1.358   0.305
  226SOL     OW  933   4.155   2.377   0.289
  226SOL    HW2  934   4.123   2.306   0.345
  226SOL    HW3  935   4.182   2.445   0.350
  226SOL    MW4  936   4.154   2.376   0.305
  227SOL     OW  937   4.425   1.709   0.506
  227SOL    HW2  938   4.446   1.722   0.598
  227SOL    HW3  939   4.392   1.794   0.477
  227SOL    MW4  940   4.423   1.722   0.514
  228SOL     OW  941   0.279   2.361   0.371
  228SOL    HW2  942   0.218   2.288   0.363
  228SOL    HW3  943   0.226   2.434   0.402
  228SOL    MW4  944   0.264   2.361   0.374
  229SOL     OW  945   4.274   1.954   0.436
  229SOL    HW2  946   4.202   1.895   0.415
  229SOL    HW3  947   4.285   2.008   0.357
  229SOL    MW4  948   4.266   1.953   0.423
  230SOL     OW  949   0.075   2.528   0.474
  230SOL    HW2  950   0.114   2.616   0.480
  230SOL    HW3  951   0.055   2.505   0.565
  230SOL    MW4  952   0.078   2.537   0.487
  231SOL     OW  953   4.266   3.529   0.411
  231SOL    HW2  954   4.356   3.545   0.383
  231SOL    HW3  955   4.263   3.435   0.432
  231SOL    MW4  956   4.278   3.519   0.410
  232SOL     OW  957   4.285   2.574   0.448
  232SOL    HW2  958   4.257   2.543   0.534
  232SOL    HW3  959   4.378   2.555   0.444
  232SOL    MW4  960   4.293   2.567   0.459
  233SOL     OW  961   0.307   3.823   0.345
  233SOL    HW2  962   0.288   3.907   0.385
  233SOL    HW3  963   0.392   3.835   0.304
  233SOL    MW4  964   0.316   3.835   0.345
  234SOL     OW  965   0.038   3.557   0.337
  234SOL    HW2  966   0.054   3.623   0.269
  234SOL    HW3  967   0.108   3.569   0.400
  234SOL    MW4  968   0.049   3.567   0.336
  235SOL     OW  969   0.151   3.287   0.373
  235SOL    HW2  970   0.109   3.361   0.330
  235SOL    HW3  971   0.243   3.314   0.382
  235SOL    MW4  972   0.158   3.300   0.369
  236SOL     OW  973   3.832   3.717   0.490
  236SOL    HW2  974   3.842   3.632   0.532
  236SOL    HW3  975   3.917   3.734   0.450
  236SOL    MW4  976   3.845   3.708   0.490
  237SOL     OW  977   3.957   3.162   0.481
  237SOL    HW2  978   3.967   3.192   0.572
  237SOL    HW3  979   3.874   3.200   0.453
  237SOL    MW4  980   3.947   3.171   0.489
  238SOL     OW  981   0.217   4.092   0.456
  238SOL    HW2  982   0.206   4.073   0.550
  238SOL    HW3  983   0.129   4.080   0.419
  238SOL    MW4  984   0.204   4.088   0.464
  239SOL     OW  985   4.080   4.287   0.337
  239SOL    HW2  986   4.030   4.206   0.335
  239SOL    HW3  987   4.016   4.353   0.366
  239SOL    MW4  988   4.065   4.285   0.341
  240SOL     OW  989   4.203   4.203   0.591
  240SOL    HW2  990   4.257   4.282   0.591
  240SOL    HW3  991   4.139   4.218   0.521
  240SOL    MW4  992   4.201   4.215   0.582
  241SOL     OW  993   3.906   4.459   0.454
  241SOL    HW2  994   3.896   4.428   0.544
  241SOL    HW3  995   3.817   4.479   0.426
  241SOL    MW4  996   3.893   4.458   0.463
  242SOL     OW  997   0.192   0.014   0.840
  242SOL    HW2  998   0.222  -0.068   0.802
  242SOL    HW3  999   0.108   0.032   0.798
  242SOL    MW4 1000   0.185   0.006   0.829
  243SOL     OW 1001   4.470   0.124   0.692
  243SOL    HW2 1002   4.392   0.089   0.736
  243SOL    HW3 1003   4.480   0.212   0.728
  243SOL    MW4 1004   4.461   0.131   0.703
  244SOL     OW 1005   4.481   0.370   0.798
  244SOL    HW2 1006   4.482   0.363   0.893
  244SOL    HW3 1007   4.551   0.433   0.778
  244SOL    MW4 1008   4.490   0.377   0.808
  245SOL     OW 1009   0.213   0.547   0.720
  245SOL    HW2 1010   0.283   0.503   0.769
  245SOL    HW3 1011   0.210   0.636   0.756
  245SOL    MW4 1012   0.222   0.553   0.732
  246SOL     OW 1013   0.221   0.821   0.823
  246SOL    HW2 1014   0.208   0.805   0.916
  246SOL    HW3 1015   0.133   0.833   0.788
  246SOL    MW4 1016   0.208   0.820   0.830
  247SOL     OW 1017   4.447   0.889   0.745
  247SOL    HW2 1018   4.398   0.809   0.765
  247SOL    HW3 1019   4.435   0.903   0.651
  247SOL    MW4 1020   4.439   0.880   0.735
  248SOL     OW 1021   4.484   1.143   0.829
  248SOL    HW2 1022   4.479   1.142   0.925
  248SOL    HW3 1023   4.480   1.050   0.804
  248SOL    MW4 1024   4.483   1.130   0.838
  249SOL     OW 1025   0.178   1.321   0.742
  249SOL    HW2 1026   0.110   1.258   0.763
  249SOL    HW3 1027   0.198   1.306   0.649
  249SOL    MW4 1028   0.172   1.311   0.732
  250SOL     OW 1029   0.183   1.583   0.835
  250SOL    HW2 1030   0.276   1.595   0.816
  250SOL    HW3 1031   0.162   1.498   0.796
  250SOL    MW4 1032   0.193   1.573   0.827
  251SOL     OW 1033   4.429   1.729   0.785
  251SOL    HW2 1034   4.356   1.675   0.816
  251SOL    HW3 1035   4.508   1.681   0.811
  251SOL    MW4 1036   4.430   1.716   0.792
  252SOL     OW 1037   4.481   1.988   0.860
  252SOL    HW2 1038   4.570   2.004   0.827
  252SOL    HW3 1039   4.464   1.896   0.839
  252SOL    MW4 1040   4.491   1.978   0.853
  253SOL     OW 1041   0.190   2.085   0.689
  253SOL    HW2 1042   0.213   2.172   0.723
  253SOL    HW3 1043   0.150   2.104   0.604
  253SOL    MW4 1044   0.188   2.099   0.682
  254SOL     OW 1045   0.274   2.338   0.801
  254SOL    HW2 1046   0.279   2.335   0.897
  254SOL    HW3 1047   0.347   2.395   0.776
  254SOL    MW4 1048   0.284   2.345   0.811
  255SOL     OW 1049   0.043   2.476   0.736
  255SOL    HW2 1050  -0.017   2.419   0.785
  255SOL    HW3 1051   0.130   2.454   0.772
  255SOL    MW4 1052   0.047   2.465   0.747
  256SOL     OW 1053   4.476   2.732   0.825
  256SOL    HW2 1054   4.446   2.726   0.915
  256SOL    HW3 1055   4.497   2.641   0.800
  256SOL    MW4 1056   4.475   2.719   0.833
  257SOL     OW 1057   0.258   2.821   0.765
  257SOL    HW2 1058   0.169   2.793   0.786
  257SOL    HW3 1059   0.266   2.808   0.670
  257SOL    MW4 1060   0.247   2.816   0.755
  258SOL     OW 1061   0.263   3.090   0.836
  258SOL    HW2 1062   0.249   3.104   0.930
  258SOL    HW3 1063   0.256   2.995   0.825
  258SOL    MW4 1064   0.261   3.079   0.847
  259SOL     OW 1065   4.473   3.129   0.801
  259SOL    HW2 1066   4.569   3.125   0.807
  259SOL    HW3 1067   4.452   3.102   0.712
  259SOL    MW4 1068   4.483   3.125   0.790
  260SOL     OW 1069   4.485   3.442   0.855
  260SOL    HW2 1070   4.431   3.492   0.794
  260SOL    HW3 1071   4.473   3.351   0.829
  260SOL    MW4 1072   4.476   3.437   0.843
  261SOL     OW 1073   0.231   3.570   0.774
  261SOL    HW2 1074   0.153   3.517   0.788
  261SOL    HW3 1075   0.242   3.572   0.679
  261SOL    MW4 1076   0.222   3.563   0.764
  262SOL     OW 1077   0.285   3.843   0.822
  262SOL    HW2 1078   0.284   3.837   0.918
  262SOL    HW3 1079   0.269   3.754   0.792
  262SOL    MW4 1080   0.283   3.831   0.831
  263SOL     OW 1081   0.099   4.007   0.718
  263SOL    HW2 1082   0.021   3.955   0.700
  263SOL    HW3 1083   0.156   3.949   0.768
  263SOL    MW4 1084   0.097   3.992   0.722
  264SOL     OW 1085   0.055   4.256   0.823
  264SOL    HW2 1086   0.030   4.260   0.916
  264SOL    HW3 1087   0.054   4.163   0.802
  264SOL    MW4 1088   0.052   4.244   0.833
  265SOL     OW 1089   0.260   4.438   0.745
  265SOL    HW2 1090   0.194   4.377   0.778
  265SOL    HW3 1091   0.266   4.420   0.652
  265SOL    MW4 1092   0.252   4.428   0.737
  266SOL     OW 1093   0.636   0.030   0.839
  266SOL    HW2 1094   0.651   0.019   0.933
  266SOL    HW3 1095   0.563   0.091   0.834
  266SOL    MW4 1096   0.628   0.036   0.851
  267SOL     OW 1097   0.415   0.179   0.761
  267SOL    HW2 1098   0.326   0.150   0.781
  267SOL    HW3 1099   0.418   0.179   0.665
  267SOL    MW4 1100   0.403   0.175   0.751
  268SOL     OW 1101   0.442   0.453   0.844
  268SOL    HW2 1102   0.510   0.497   0.794
  268SOL    HW3 1103   0.444   0.362   0.812
  268SOL    MW4 1104   0.451   0.447   0.833
  269SOL     OW 1105   0.656   0.578   0.724
  269SOL    HW2 1106   0.719   0.521   0.767
  269SOL    HW3 1107   0.694   0.596   0.638
  269SOL    MW4 1108   0.669   0.573   0.718
  270SOL     OW 1109   0.653   0.836   0.808
  270SOL    HW2 1110   0.569   0.880   0.799
  270SOL    HW3 1111   0.637   0.747   0.777
  270SOL    MW4 1112   0.640   0.830   0.803
  271SOL     OW 1113   0.431   0.974   0.741
  271SOL    HW2 1114   0.419   1.059   0.785
  271SOL    HW3 1115   0.356   0.922   0.770
  271SOL    MW4 1116   0.419   0.978   0.751
  272SOL     OW 1117   0.427   1.233   0.830
  272SOL    HW2 1118   0.503   1.273   0.788
  272SOL    HW3 1119   0.352   1.280   0.793
  272SOL    MW4 1120   0.427   1.244   0.820
  273SOL     OW 1121   0.648   1.328   0.693
  273SOL    HW2 1122   0.667   1.412   0.736
  273SOL    HW3 1123   0.675   1.341   0.602
  273SOL    MW4 1124   0.654   1.341   0.687
  274SOL     OW 1125   0.674   1.550   0.840
  274SOL    HW2 1126   0.669   1.521   0.931
  274SOL    HW3 1127   0.589   1.588   0.821
  274SOL    MW4 1128   0.662   1.551   0.849
  275SOL     OW 1129   0.430   1.656   0.767
  275SOL    HW2 1130   0.430   1.749   0.745
  275SOL    HW3 1131   0.433   1.611   0.682
  275SOL    MW4 1132   0.431   1.662   0.753
  276SOL     OW 1133   0.413   1.909   0.653
  276SOL    HW2 1134   0.337   1.967   0.649
  276SOL    HW3 1135   0.449   1.910   0.564
  276SOL    MW4 1136   0.407   1.916   0.641
  277SOL     OW 1137   0.591   2.003   0.843
  277SOL    HW2 1138   0.554   1.989   0.930
  277SOL    HW3 1139   0.530   1.959   0.783
  277SOL    MW4 1140   0.578   1.995   0.847
  278SOL     OW 1141   0.655   2.267   0.845
  278SOL    HW2 1142   0.657   2.284   0.939
  278SOL    HW3 1143   0.645   2.172   0.838
  278SOL    MW4 1144   0.654   2.256   0.856
  279SOL     OW 1145   0.519   2.465   0.711
  279SOL    HW2 1146   0.572   2.402   0.760
  279SOL    HW3 1147   0.555   2.464   0.622
  279SOL    MW4 1148   0.531   2.457   0.706
  280SOL     OW 1149   0.478   2.684   0.866
  280SOL    HW2 1150   0.493   2.602   0.819
  280SOL    HW3 1151   0.403   2.724   0.821
  280SOL    MW4 1152   0.470   2.679   0.854
  281SOL     OW 1153   0.702   2.844   0.780
  281SOL    HW2 1154   0.772   2.793   0.819
  281SOL    HW3 1155   0.622   2.795   0.801
  281SOL    MW4 1156   0.701   2.831   0.788
  282SOL     OW 1157   0.688   3.105   0.886
  282SOL    HW2 1158   0.607   3.145   0.855
  282SOL    HW3 1159   0.682   3.014   0.857
  282SOL    MW4 1160   0.676   3.098   0.878
  283SOL     OW 1161   0.495   3.254   0.770
  283SOL    HW2 1162   0.485   3.346   0.795
  283SOL    HW3 1163   0.417   3.211   0.806
  283SOL    MW4 1164   0.483   3.260   0.778
  284SOL     OW 1165   0.502   3.509   0.872
  284SOL    HW2 1166   0.503   3.487   0.965
  284SOL    HW3 1167   0.409   3.522   0.851
  284SOL    MW4 1168   0.490   3.508   0.881
  285SOL     OW 1169   0.696   3.666   0.757
  285SOL    HW2 1170   0.633   3.615   0.808
  285SOL    HW3 1171   0.686   3.755   0.790
  285SOL    MW4 1172   0.687   3.671   0.769
  286SOL     OW 1173   0.661   3.926   0.829
  286SOL    HW2 1174   0.750   3.959   0.820
  286SOL    HW3 1175   0.608   3.983   0.774
  286SOL    MW4 1176   0.666   3.937   0.821
  287SOL     OW 1177   0.458   4.059   0.675
  287SOL    HW2 1178   0.449   4.137   0.730
  287SOL    HW3 1179   0.410   3.991   0.722
  287SOL    MW4 1180   0.451   4.061   0.689
  288SOL     OW 1181   0.454   4.279   0.843
  288SOL    HW2 1182   0.448   4.261   0.937
  288SOL    HW3 1183   0.387   4.345   0.827
  288SOL    MW4 1184   0.445   4.286   0.853
  289SOL     OW 1185   0.679   4.432   0.766
  289SOL    HW2 1186   0.608   4.379   0.802
  289SOL    HW3 1187   0.646   4.522   0.772
  289SOL    MW4 1188   0.665   4.437   0.772
  290SOL     OW 1189   1.098   4.661   0.814
  290SOL    HW2 1190   1.162   4.729   0.792
  290SOL    HW3 1191   1.015   4.695   0.782
  290SOL    MW4 1192   1.095   4.675   0.807
  291SOL     OW 1193   0.857   0.156   0.707
  291SOL    HW2 1194   0.851   0.247   0.738
  291SOL    HW3 1195   0.774   0.116   0.736
  291SOL    MW4 1196   0.845   0.163   0.715
  292SOL     OW 1197   0.855   0.428   0.823
  292SOL    HW2 1198   0.883   0.390   0.906
  292SOL    HW3 1199   0.933   0.472   0.789
  292SOL    MW4 1200   0.869   0.428   0.829
  293SOL     OW 1201   1.081   0.547   0.732
  293SOL    HW2 1202   1.154   0.495   0.764
  293SOL    HW3 1203   1.085   0.540   0.637
  293SOL    MW4 1204   1.091   0.539   0.724
  294SOL     OW 1205   1.120   0.792   0.826
  294SOL    HW2 1206   1.120   0.787   0.922
  294SOL    HW3 1207   1.108   0.702   0.797
  294SOL    MW4 1208   1.118   0.779   0.835
  295SOL     OW 1209   0.899   0.916   0.703
  295SOL    HW2 1210   0.964   0.865   0.751
  295SOL    HW3 1211   0.816   0.896   0.746
  295SOL    MW4 1212   0.897   0.907   0.715
  296SOL     OW 1213   0.871   1.182   0.793
  296SOL    HW2 1214   0.889   1.097   0.754
  296SOL    HW3 1215   0.791   1.212   0.751
  296SOL    MW4 1216   0.863   1.175   0.782
  297SOL     OW 1217   1.100   1.300   0.699
  297SOL    HW2 1218   1.018   1.263   0.729
  297SOL    HW3 1219   1.085   1.319   0.606
  297SOL    MW4 1220   1.087   1.298   0.690
  298SOL     OW 1221   1.113   1.549   0.813
  298SOL    HW2 1222   1.042   1.606   0.784
  298SOL    HW3 1223   1.097   1.465   0.769
  298SOL    MW4 1224   1.102   1.545   0.804
  299SOL     OW 1225   0.888   1.700   0.712
  299SOL    HW2 1226   0.883   1.789   0.747
  299SOL    HW3 1227   0.827   1.650   0.764
  299SOL    MW4 1228   0.880   1.705   0.723
  300SOL     OW 1229   0.852   1.928   0.833
  300SOL    HW2 1230   0.865   1.933   0.928
  300SOL    HW3 1231   0.765   1.964   0.819
  300SOL    MW4 1232   0.842   1.933   0.844
  301SOL     OW 1233   1.079   2.040   0.749
  301SOL    HW2 1234   1.096   2.134   0.760
  301SOL    HW3 1235   0.997   2.025   0.796
  301SOL    MW4 1236   1.071   2.051   0.756
  302SOL     OW 1237   1.111   2.333   0.791
  302SOL    HW2 1238   1.112   2.333   0.887
  302SOL    HW3 1239   1.197   2.366   0.766
  302SOL    MW4 1240   1.123   2.337   0.801
  303SOL     OW 1241   0.868   2.455   0.769
  303SOL    HW2 1242   0.954   2.412   0.773
  303SOL    HW3 1243   0.806   2.387   0.792
  303SOL    MW4 1244   0.871   2.440   0.772
  304SOL     OW 1245   0.925   2.709   0.861
  304SOL    HW2 1246   0.919   2.716   0.957
  304SOL    HW3 1247   0.906   2.617   0.842
  304SOL    MW4 1248   0.922   2.698   0.871
  305SOL     OW 1249   1.144   2.847   0.741
  305SOL    HW2 1250   1.073   2.798   0.781
  305SOL    HW3 1251   1.116   2.863   0.651
  305SOL    MW4 1252   1.131   2.843   0.735
  306SOL     OW 1253   1.096   3.115   0.837
  306SOL    HW2 1254   1.016   3.138   0.791
  306SOL    HW3 1255   1.119   3.028   0.805
  306SOL    MW4 1256   1.088   3.107   0.827
  307SOL     OW 1257   0.871   3.253   0.738
  307SOL    HW2 1258   0.889   3.336   0.782
  307SOL    HW3 1259   0.818   3.203   0.800
  307SOL    MW4 1260   0.867   3.257   0.752
  308SOL     OW 1261   0.917   3.501   0.856
  308SOL    HW2 1262   0.995   3.553   0.843
  308SOL    HW3 1263   0.845   3.556   0.824
  308SOL    MW4 1264   0.917   3.515   0.850
  309SOL     OW 1265   1.139   3.644   0.781
  309SOL    HW2 1266   1.221   3.604   0.810
  309SOL    HW3 1267   1.123   3.606   0.694
  309SOL    MW4 1268   1.148   3.634   0.773
  310SOL     OW 1269   1.134   3.893   0.874
  310SOL    HW2 1270   1.138   3.885   0.969
  310SOL    HW3 1271   1.132   3.802   0.843
  310SOL    MW4 1272   1.134   3.880   0.882
  311SOL     OW 1273   0.905   4.056   0.814
  311SOL    HW2 1274   0.920   4.146   0.843
  311SOL    HW3 1275   0.981   4.007   0.848
  311SOL    MW4 1276   0.917   4.061   0.822
  312SOL     OW 1277   0.925   4.334   0.858
  312SOL    HW2 1278   0.997   4.375   0.810
  312SOL    HW3 1279   0.846   4.378   0.826
  312SOL    MW4 1280   0.924   4.345   0.848
  313SOL     OW 1281   1.144   4.406   0.695
  313SOL    HW2 1282   1.217   4.364   0.741
  313SOL    HW3 1283   1.143   4.496   0.728
  313SOL    MW4 1284   1.153   4.412   0.705
  314SOL     OW 1285   1.541   0.006   0.792
  314SOL    HW2 1286   1.537  -0.013   0.886
  314SOL    HW3 1287   1.468   0.065   0.777
  314SOL    MW4 1288   1.531   0.011   0.803
  315SOL     OW 1289   1.323   0.149   0.732
  315SOL    HW2 1290   1.330   0.244   0.744
  315SOL    HW3 1291   1.341   0.135   0.639
  315SOL    MW4 1292   1.327   0.160   0.722
  316SOL     OW 1293   1.314   0.420   0.800
  316SOL    HW2 1294   1.320   0.428   0.895
  316SOL    HW3 1295   1.396   0.457   0.767
  316SOL    MW4 1296   1.326   0.426   0.808
  317SOL     OW 1297   1.538   0.576   0.689
  317SOL    HW2 1298   1.549   0.660   0.733
  317SOL    HW3 1299   1.612   0.523   0.719
  317SOL    MW4 1300   1.549   0.580   0.699
  318SOL     OW 1301   1.563   0.867   0.860
  318SOL    HW2 1302   1.633   0.873   0.795
  318SOL    HW3 1303   1.494   0.924   0.825
  318SOL    MW4 1304   1.563   0.876   0.847
  319SOL     OW 1305   1.325   0.947   0.710
  319SOL    HW2 1306   1.325   1.033   0.752
  319SOL    HW3 1307   1.247   0.904   0.744
  319SOL    MW4 1308   1.315   0.953   0.720
  320SOL     OW 1309   1.340   1.202   0.828
  320SOL    HW2 1310   1.422   1.226   0.785
  320SOL    HW3 1311   1.271   1.236   0.771
  320SOL    MW4 1312   1.342   1.210   0.815
  321SOL     OW 1313   1.573   1.261   0.649
  321SOL    HW2 1314   1.566   1.355   0.667
  321SOL    HW3 1315   1.500   1.242   0.591
  321SOL    MW4 1316   1.563   1.271   0.643
  322SOL     OW 1317   1.743   1.639   0.900
  322SOL    HW2 1318   1.684   1.609   0.969
  322SOL    HW3 1319   1.822   1.586   0.912
  322SOL    MW4 1320   1.746   1.628   0.911
  323SOL     OW 1321   1.329   1.686   0.710
  323SOL    HW2 1322   1.326   1.776   0.742
  323SOL    HW3 1323   1.268   1.638   0.765
  323SOL    MW4 1324   1.321   1.691   0.721
  324SOL     OW 1325   1.321   1.929   0.841
  324SOL    HW2 1326   1.331   1.933   0.936
  324SOL    HW3 1327   1.230   1.951   0.825
  324SOL    MW4 1328   1.310   1.933   0.852
  325SOL     OW 1329   1.562   2.048   0.764
  325SOL    HW2 1330   1.478   2.004   0.771
  325SOL    HW3 1331   1.574   2.062   0.670
  325SOL    MW4 1332   1.553   2.044   0.752
  326SOL     OW 1333   1.560   2.304   0.863
  326SOL    HW2 1334   1.491   2.352   0.817
  326SOL    HW3 1335   1.550   2.214   0.833
  326SOL    MW4 1336   1.549   2.298   0.853
  327SOL     OW 1337   1.371   2.437   0.739
  327SOL    HW2 1338   1.383   2.525   0.775
  327SOL    HW3 1339   1.414   2.440   0.653
  327SOL    MW4 1340   1.378   2.449   0.732
  328SOL     OW 1341   1.371   2.706   0.845
  328SOL    HW2 1342   1.361   2.716   0.940
  328SOL    HW3 1343   1.305   2.764   0.808
  328SOL    MW4 1344   1.361   2.715   0.853
  329SOL     OW 1345   1.578   2.826   0.732
  329SOL    HW2 1346   1.582   2.914   0.769
  329SOL    HW3 1347   1.504   2.785   0.778
  329SOL    MW4 1348   1.569   2.832   0.743
  330SOL     OW 1349   1.560   3.089   0.808
  330SOL    HW2 1350   1.567   3.102   0.902
  330SOL    HW3 1351   1.477   3.130   0.784
  330SOL    MW4 1352   1.550   3.096   0.817
  331SOL     OW 1353   1.317   3.268   0.749
  331SOL    HW2 1354   1.246   3.227   0.799
  331SOL    HW3 1355   1.275   3.299   0.669
  331SOL    MW4 1356   1.302   3.267   0.745
  332SOL     OW 1357   1.369   3.512   0.864
  332SOL    HW2 1358   1.434   3.551   0.805
  332SOL    HW3 1359   1.371   3.419   0.842
  332SOL    MW4 1360   1.378   3.505   0.853
  333SOL     OW 1361   1.564   3.625   0.709
  333SOL    HW2 1362   1.646   3.580   0.729
  333SOL    HW3 1363   1.542   3.598   0.620
  333SOL    MW4 1364   1.572   3.615   0.700
  334SOL     OW 1365   1.592   3.903   0.792
  334SOL    HW2 1366   1.508   3.939   0.763
  334SOL    HW3 1367   1.592   3.812   0.760
  334SOL    MW4 1368   1.581   3.895   0.784
  335SOL     OW 1369   1.341   3.999   0.716
  335SOL    HW2 1370   1.270   3.951   0.760
  335SOL    HW3 1371   1.324   3.987   0.623
  335SOL    MW4 1372   1.329   3.991   0.709
  336SOL     OW 1373   1.369   4.265   0.803
  336SOL    HW2 1374   1.438   4.314   0.758
  336SOL    HW3 1375   1.379   4.175   0.772
  336SOL    MW4 1376   1.380   4.260   0.793
  337SOL     OW 1377   1.568   4.413   0.685
  337SOL    HW2 1378   1.660   4.388   0.695
  337SOL    HW3 1379   1.564   4.504   0.713
  337SOL    MW4 1380   1.579   4.421   0.690
  338SOL     OW 1381   1.777   0.142   0.768
  338SOL    HW2 1382   1.841   0.091   0.817
  338SOL    HW3 1383   1.693   0.100   0.787
  338SOL    MW4 1384   1.774   0.130   0.777
  339SOL     OW 1385   1.704   0.142   0.518
  339SOL    HW2 1386   1.616   0.106   0.518
  339SOL    HW3 1387   1.729   0.147   0.610
  339SOL    MW4 1388   1.696   0.138   0.530
  340SOL     OW 1389   1.763   0.423   0.803
  340SOL    HW2 1390   1.778   0.330   0.787
  340SOL    HW3 1391   1.839   0.467   0.764
  340SOL    MW4 1392   1.775   0.417   0.796
  341SOL     OW 1393   1.997   0.534   0.682
  341SOL    HW2 1394   2.012   0.541   0.587
  341SOL    HW3 1395   2.073   0.486   0.714
  341SOL    MW4 1396   2.009   0.528   0.673
  342SOL     OW 1397   1.989   0.759   0.856
  342SOL    HW2 1398   2.068   0.806   0.829
  342SOL    HW3 1399   1.995   0.675   0.810
  342SOL    MW4 1400   2.000   0.754   0.846
  343SOL     OW 1401   1.785   0.893   0.702
  343SOL    HW2 1402   1.794   0.981   0.737
  343SOL    HW3 1403   1.850   0.841   0.749
  343SOL    MW4 1404   1.795   0.898   0.713
  344SOL     OW 1405   1.794   1.159   0.807
  344SOL    HW2 1406   1.875   1.207   0.788
  344SOL    HW3 1407   1.729   1.198   0.749
  344SOL    MW4 1408   1.796   1.171   0.797
  345SOL     OW 1409   2.013   1.315   0.749
  345SOL    HW2 1410   2.085   1.276   0.798
  345SOL    HW3 1411   2.042   1.314   0.658
  345SOL    MW4 1412   2.026   1.310   0.743
  346SOL     OW 1413   2.009   1.572   0.871
  346SOL    HW2 1414   2.021   1.624   0.792
  346SOL    HW3 1415   2.017   1.481   0.841
  346SOL    MW4 1416   2.012   1.567   0.857
  347SOL     OW 1417   2.087   1.506   0.404
  347SOL    HW2 1418   2.083   1.569   0.476
  347SOL    HW3 1419   2.177   1.514   0.371
  347SOL    MW4 1420   2.099   1.516   0.409
  348SOL     OW 1421   1.798   1.896   0.830
  348SOL    HW2 1422   1.771   1.805   0.846
  348SOL    HW3 1423   1.715   1.943   0.818
  348SOL    MW4 1424   1.783   1.890   0.831
  349SOL     OW 1425   2.042   2.040   0.792
  349SOL    HW2 1426   2.016   2.122   0.832
  349SOL    HW3 1427   1.975   1.977   0.820
  349SOL    MW4 1428   2.030   2.042   0.801
  350SOL     OW 1429   2.028   2.323   0.851
  350SOL    HW2 1430   2.026   2.315   0.946
  350SOL    HW3 1431   1.946   2.366   0.829
  350SOL    MW4 1432   2.017   2.327   0.861
  351SOL     OW 1433   1.785   2.427   0.767
  351SOL    HW2 1434   1.712   2.370   0.790
  351SOL    HW3 1435   1.792   2.420   0.671
  351SOL    MW4 1436   1.777   2.418   0.757
  352SOL     OW 1437   1.810   2.705   0.826
  352SOL    HW2 1438   1.791   2.612   0.809
  352SOL    HW3 1439   1.735   2.752   0.790
  352SOL    MW4 1440   1.798   2.699   0.819
  353SOL     OW 1441   2.045   2.846   0.738
  353SOL    HW2 1442   2.130   2.815   0.769
  353SOL    HW3 1443   1.982   2.780   0.768
  353SOL    MW4 1444   2.048   2.833   0.746
  354SOL     OW 1445   2.010   3.128   0.792
  354SOL    HW2 1446   1.924   3.170   0.789
  354SOL    HW3 1447   1.992   3.035   0.777
  354SOL    MW4 1448   1.996   3.122   0.790
  355SOL     OW 1449   1.772   3.251   0.733
  355SOL    HW2 1450   1.697   3.191   0.741
  355SOL    HW3 1451   1.771   3.276   0.640
  355SOL    MW4 1452   1.762   3.246   0.722
  356SOL     OW 1453   1.789   3.516   0.824
  356SOL    HW2 1454   1.793   3.525   0.919
  356SOL    HW3 1455   1.782   3.422   0.809
  356SOL    MW4 1456   1.788   3.505   0.834
  357SOL     OW 1457   2.065   3.672   0.738
  357SOL    HW2 1458   2.079   3.763   0.763
  357SOL    HW3 1459   1.972   3.657   0.758
  357SOL    MW4 1460   2.054   3.682   0.744
  358SOL     OW 1461   2.090   3.952   0.807
  358SOL    HW2 1462   2.088   3.951   0.903
  358SOL    HW3 1463   2.007   3.994   0.782
  358SOL    MW4 1464   2.078   3.958   0.816
  359SOL     OW 1465   1.835   4.022   0.718
  359SOL    HW2 1466   1.749   4.000   0.753
  359SOL    HW3 1467   1.824   4.021   0.623
  359SOL    MW4 1468   1.823   4.019   0.710
  360SOL     OW 1469   1.813   4.296   0.758
  360SOL    HW2 1470   1.797   4.301   0.852
  360SOL    HW3 1471   1.829   4.203   0.741
  360SOL    MW4 1472   1.813   4.284   0.768
  361SOL     OW 1473   2.102   4.360   0.646
  361SOL    HW2 1474   2.018   4.342   0.690
  361SOL    HW3 1475   2.089   4.332   0.556
  361SOL    MW4 1476   2.089   4.354   0.640
  362SOL     OW 1477   2.421   4.666   0.823
  362SOL    HW2 1478   2.436   4.683   0.915
  362SOL    HW3 1479   2.489   4.716   0.777
  362SOL    MW4 1480   2.432   4.675   0.829
  363SOL     OW 1481   2.226   0.155   0.681
  363SOL    HW2 1482   2.288   0.106   0.735
  363SOL    HW3 1483   2.157   0.092   0.659
  363SOL    MW4 1484   2.225   0.141   0.685
  364SOL     OW 1485   2.216   0.404   0.799
  364SOL    HW2 1486   2.296   0.440   0.760
  364SOL    HW3 1487   2.204   0.320   0.753
  364SOL    MW4 1488   2.225   0.397   0.788
  365SOL     OW 1489   2.449   0.524   0.698
  365SOL    HW2 1490   2.490   0.540   0.613
  365SOL    HW3 1491   2.519   0.488   0.752
  365SOL    MW4 1492   2.463   0.522   0.694
  366SOL     OW 1493   2.458   0.794   0.765
  366SOL    HW2 1494   2.454   0.836   0.679
  366SOL    HW3 1495   2.446   0.701   0.747
  366SOL    MW4 1496   2.456   0.787   0.751
  367SOL     OW 1497   2.201   0.932   0.753
  367SOL    HW2 1498   2.290   0.898   0.748
  367SOL    HW3 1499   2.178   0.953   0.663
  367SOL    MW4 1500   2.209   0.930   0.741
  368SOL     OW 1501   2.223   1.202   0.893
  368SOL    HW2 1502   2.215   1.194   0.988
  368SOL    HW3 1503   2.218   1.112   0.861
  368SOL    MW4 1504   2.222   1.189   0.901
  369SOL     OW 1505   2.466   1.292   0.787
  369SOL    HW2 1506   2.382   1.263   0.824
  369SOL    HW3 1507   2.453   1.287   0.692
  369SOL    MW4 1508   2.453   1.287   0.779
  370SOL     OW 1509   2.482   1.562   0.871
  370SOL    HW2 1510   2.562   1.599   0.834
  370SOL    HW3 1511   2.477   1.474   0.836
  370SOL    MW4 1512   2.492   1.555   0.862
  371SOL     OW 1513   2.318   1.699   0.684
  371SOL    HW2 1514   2.364   1.649   0.751
  371SOL    HW3 1515   2.386   1.725   0.622
  371SOL    MW4 1516   2.333   1.696   0.685
  372SOL     OW 1517   2.281   1.905   0.879
  372SOL    HW2 1518   2.291   1.836   0.814
  372SOL    HW3 1519   2.196   1.945   0.859
  372SOL    MW4 1520   2.271   1.901   0.868
  373SOL     OW 1521   2.503   2.048   0.742
  373SOL    HW2 1522   2.423   2.000   0.762
  373SOL    HW3 1523   2.498   2.066   0.648
  373SOL    MW4 1524   2.492   2.044   0.733
  374SOL     OW 1525   2.470   2.306   0.857
  374SOL    HW2 1526   2.532   2.363   0.810
  374SOL    HW3 1527   2.482   2.220   0.816
  374SOL    MW4 1528   2.480   2.302   0.845
  375SOL     OW 1529   2.257   2.428   0.747
  375SOL    HW2 1530   2.326   2.409   0.811
  375SOL    HW3 1531   2.179   2.387   0.784
  375SOL    MW4 1532   2.256   2.420   0.760
  376SOL     OW 1533   2.293   2.699   0.812
  376SOL    HW2 1534   2.261   2.695   0.902
  376SOL    HW3 1535   2.285   2.609   0.780
  376SOL    MW4 1536   2.287   2.687   0.820
  377SOL     OW 1537   2.510   2.807   0.679
  377SOL    HW2 1538   2.591   2.799   0.730
  377SOL    HW3 1539   2.444   2.761   0.731
  377SOL    MW4 1540   2.512   2.800   0.693
  378SOL     OW 1541   2.448   3.078   0.763
  378SOL    HW2 1542   2.460   3.079   0.858
  378SOL    HW3 1543   2.454   2.986   0.739
  378SOL    MW4 1544   2.450   3.066   0.773
  379SOL     OW 1545   2.235   3.228   0.681
  379SOL    HW2 1546   2.155   3.184   0.710
  379SOL    HW3 1547   2.306   3.176   0.719
  379SOL    MW4 1548   2.234   3.215   0.690
  380SOL     OW 1549   2.244   3.471   0.838
  380SOL    HW2 1550   2.230   3.384   0.801
  380SOL    HW3 1551   2.173   3.524   0.803
  380SOL    MW4 1552   2.233   3.467   0.829
  381SOL     OW 1553   2.467   3.564   0.723
  381SOL    HW2 1554   2.547   3.518   0.748
  381SOL    HW3 1555   2.399   3.525   0.779
  381SOL    MW4 1556   2.469   3.553   0.734
  382SOL     OW 1557   2.507   3.817   0.827
  382SOL    HW2 1558   2.463   3.865   0.756
  382SOL    HW3 1559   2.488   3.725   0.809
  382SOL    MW4 1560   2.499   3.812   0.815
  383SOL     OW 1561   2.383   3.987   0.642
  383SOL    HW2 1562   2.347   4.061   0.691
  383SOL    HW3 1563   2.319   3.972   0.572
  383SOL    MW4 1564   2.370   3.995   0.639
  384SOL     OW 1565   2.243   4.182   0.817
  384SOL    HW2 1566   2.188   4.103   0.816
  384SOL    HW3 1567   2.205   4.239   0.751
  384SOL    MW4 1568   2.231   4.179   0.808
  385SOL     OW 1569   2.560   4.197   0.839
  385SOL    HW2 1570   2.480   4.144   0.844
  385SOL    HW3 1571   2.589   4.205   0.930
  385SOL    MW4 1572   2.553   4.191   0.852
  386SOL     OW 1573   2.860   4.659   0.829
  386SOL    HW2 1574   2.853   4.568   0.801
  386SOL    HW3 1575   2.780   4.700   0.797
  386SOL    MW4 1576   2.849   4.652   0.821
  387SOL     OW 1577   2.765   4.432   0.665
  387SOL    HW2 1578   2.781   4.461   0.575
  387SOL    HW3 1579   2.670   4.433   0.674
  387SOL    MW4 1580   2.755   4.436   0.654
  388SOL     OW 1581   2.645   0.387   0.827
  388SOL    HW2 1582   2.657   0.376   0.921
  388SOL    HW3 1583   2.733   0.404   0.793
  388SOL    MW4 1584   2.658   0.388   0.835
  389SOL     OW 1585   2.914   0.464   0.771
  389SOL    HW2 1586   2.989   0.414   0.802
  389SOL    HW3 1587   2.917   0.456   0.676
  389SOL    MW4 1588   2.925   0.457   0.762
  390SOL     OW 1589   2.902   0.724   0.830
  390SOL    HW2 1590   2.896   0.729   0.925
  390SOL    HW3 1591   2.906   0.630   0.811
  390SOL    MW4 1592   2.902   0.713   0.840
  391SOL     OW 1593   2.717   0.906   0.723
  391SOL    HW2 1594   2.785   0.843   0.748
  391SOL    HW3 1595   2.635   0.860   0.738
  391SOL    MW4 1596   2.715   0.891   0.728
  392SOL     OW 1597   2.689   1.147   0.880
  392SOL    HW2 1598   2.689   1.068   0.827
  392SOL    HW3 1599   2.616   1.199   0.845
  392SOL    MW4 1600   2.679   1.143   0.868
  393SOL     OW 1601   2.911   1.299   0.762
  393SOL    HW2 1602   2.988   1.247   0.786
  393SOL    HW3 1603   2.837   1.252   0.800
  393SOL    MW4 1604   2.911   1.286   0.770
  394SOL     OW 1605   2.930   1.551   0.889
  394SOL    HW2 1606   3.009   1.596   0.858
  394SOL    HW3 1607   2.928   1.470   0.839
  394SOL    MW4 1608   2.940   1.546   0.878
  395SOL     OW 1609   2.711   1.643   0.755
  395SOL    HW2 1610   2.711   1.738   0.747
  395SOL    HW3 1611   2.775   1.624   0.823
  395SOL    MW4 1612   2.719   1.653   0.763
  396SOL     OW 1613   2.733   1.926   0.813
  396SOL    HW2 1614   2.733   1.922   0.909
  396SOL    HW3 1615   2.649   1.967   0.791
  396SOL    MW4 1616   2.722   1.931   0.823
  397SOL     OW 1617   2.898   2.100   0.685
  397SOL    HW2 1618   2.896   2.184   0.731
  397SOL    HW3 1619   2.844   2.042   0.738
  397SOL    MW4 1620   2.891   2.104   0.698
  398SOL     OW 1621   2.902   2.350   0.801
  398SOL    HW2 1622   2.910   2.346   0.896
  398SOL    HW3 1623   2.821   2.398   0.786
  398SOL    MW4 1624   2.893   2.356   0.812
  399SOL     OW 1625   2.679   2.465   0.710
  399SOL    HW2 1626   2.688   2.463   0.614
  399SOL    HW3 1627   2.717   2.549   0.735
  399SOL    MW4 1628   2.685   2.476   0.701
  400SOL     OW 1629   2.750   2.725   0.783
  400SOL    HW2 1630   2.743   2.701   0.876
  400SOL    HW3 1631   2.826   2.784   0.780
  400SOL    MW4 1632   2.759   2.730   0.795
  401SOL     OW 1633   2.926   2.838   0.446
  401SOL    HW2 1634   2.954   2.758   0.402
  401SOL    HW3 1635   2.834   2.849   0.422
  401SOL    MW4 1636   2.917   2.829   0.437
  402SOL     OW 1637   2.926   3.131   0.789
  402SOL    HW2 1638   2.848   3.152   0.738
  402SOL    HW3 1639   2.961   3.053   0.747
  402SOL    MW4 1640   2.920   3.124   0.777
  403SOL     OW 1641   2.708   3.212   0.657
  403SOL    HW2 1642   2.713   3.288   0.716
  403SOL    HW3 1643   2.620   3.179   0.668
  403SOL    MW4 1644   2.697   3.218   0.666
  404SOL     OW 1645   2.713   3.439   0.814
  404SOL    HW2 1646   2.698   3.430   0.908
  404SOL    HW3 1647   2.806   3.461   0.806
  404SOL    MW4 1648   2.724   3.441   0.825
  405SOL     OW 1649   2.967   3.535   0.798
  405SOL    HW2 1650   2.936   3.615   0.842
  405SOL    HW3 1651   2.976   3.561   0.706
  405SOL    MW4 1652   2.964   3.549   0.791
  406SOL     OW 1653   2.894   3.793   0.849
  406SOL    HW2 1654   2.880   3.823   0.939
  406SOL    HW3 1655   2.854   3.860   0.794
  406SOL    MW4 1656   2.887   3.806   0.854
  407SOL     OW 1657   2.715   3.934   0.701
  407SOL    HW2 1658   2.649   3.899   0.761
  407SOL    HW3 1659   2.723   3.867   0.633
  407SOL    MW4 1660   2.708   3.920   0.700
  408SOL     OW 1661   2.894   4.198   0.864
  408SOL    HW2 1662   2.860   4.250   0.937
  408SOL    HW3 1663   2.986   4.185   0.884
  408SOL    MW4 1664   2.902   4.203   0.876
  409SOL     OW 1665   3.059   4.342   0.478
  409SOL    HW2 1666   3.131   4.333   0.541
  409SOL    HW3 1667   2.999   4.272   0.501
  409SOL    MW4 1668   3.061   4.332   0.490
  410SOL     OW 1669   3.297   4.579   0.821
  410SOL    HW2 1670   3.300   4.585   0.916
  410SOL    HW3 1671   3.225   4.636   0.796
  410SOL    MW4 1672   3.288   4.588   0.830
  411SOL     OW 1673   3.102   0.090   0.729
  411SOL    HW2 1674   3.130   0.172   0.768
  411SOL    HW3 1675   3.015   0.074   0.766
  411SOL    MW4 1676   3.094   0.098   0.739
  412SOL     OW 1677   3.162   0.341   0.845
  412SOL    HW2 1678   3.176   0.330   0.939
  412SOL    HW3 1679   3.239   0.388   0.814
  412SOL    MW4 1680   3.174   0.346   0.854
  413SOL     OW 1681   3.382   0.504   0.715
  413SOL    HW2 1682   3.467   0.463   0.733
  413SOL    HW3 1683   3.377   0.507   0.619
  413SOL    MW4 1684   3.393   0.499   0.705
  414SOL     OW 1685   3.380   0.762   0.831
  414SOL    HW2 1686   3.291   0.795   0.816
  414SOL    HW3 1687   3.379   0.674   0.793
  414SOL    MW4 1688   3.368   0.755   0.824
  415SOL     OW 1689   3.127   0.862   0.776
  415SOL    HW2 1690   3.106   0.953   0.798
  415SOL    HW3 1691   3.049   0.813   0.799
  415SOL    MW4 1692   3.114   0.868   0.782
  416SOL     OW 1693   3.142   1.143   0.805
  416SOL    HW2 1694   3.171   1.164   0.894
  416SOL    HW3 1695   3.212   1.175   0.749
  416SOL    MW4 1696   3.155   1.150   0.810
  417SOL     OW 1697   3.358   1.259   0.680
  417SOL    HW2 1698   3.431   1.206   0.711
  417SOL    HW3 1699   3.374   1.345   0.719
  417SOL    MW4 1700   3.370   1.263   0.689
  418SOL     OW 1701   3.374   1.504   0.814
  418SOL    HW2 1702   3.337   1.502   0.902
  418SOL    HW3 1703   3.463   1.537   0.826
  418SOL    MW4 1704   3.381   1.508   0.827
  419SOL     OW 1705   3.165   1.667   0.760
  419SOL    HW2 1706   3.247   1.620   0.774
  419SOL    HW3 1707   3.136   1.638   0.673
  419SOL    MW4 1708   3.172   1.657   0.750
  420SOL     OW 1709   3.258   1.909   0.811
  420SOL    HW2 1710   3.247   1.905   0.906
  420SOL    HW3 1711   3.220   1.827   0.779
  420SOL    MW4 1712   3.252   1.898   0.820
  421SOL     OW 1713   3.585   1.971   0.822
  421SOL    HW2 1714   3.558   2.063   0.820
  421SOL    HW3 1715   3.522   1.926   0.766
  421SOL    MW4 1716   3.573   1.977   0.814
  422SOL     OW 1717   3.494   2.240   0.825
  422SOL    HW2 1718   3.455   2.246   0.912
  422SOL    HW3 1719   3.569   2.299   0.828
  422SOL    MW4 1720   3.499   2.249   0.837
  423SOL     OW 1721   3.101   2.474   0.596
  423SOL    HW2 1722   3.177   2.416   0.597
  423SOL    HW3 1723   3.034   2.427   0.645
  423SOL    MW4 1724   3.102   2.460   0.602
  424SOL     OW 1725   3.143   2.668   0.806
  424SOL    HW2 1726   3.127   2.612   0.729
  424SOL    HW3 1727   3.228   2.708   0.789
  424SOL    MW4 1728   3.152   2.666   0.793
  425SOL     OW 1729   3.359   2.805   0.727
  425SOL    HW2 1730   3.344   2.805   0.632
  425SOL    HW3 1731   3.438   2.753   0.739
  425SOL    MW4 1732   3.367   2.799   0.716
  426SOL     OW 1733   3.322   3.074   0.823
  426SOL    HW2 1734   3.317   3.067   0.919
  426SOL    HW3 1735   3.337   2.985   0.793
  426SOL    MW4 1736   3.324   3.062   0.832
  427SOL     OW 1737   3.152   3.244   0.681
  427SOL    HW2 1738   3.212   3.178   0.716
  427SOL    HW3 1739   3.070   3.228   0.728
  427SOL    MW4 1740   3.149   3.233   0.692
  428SOL     OW 1741   3.214   3.432   0.871
  428SOL    HW2 1742   3.203   3.355   0.814
  428SOL    HW3 1743   3.132   3.480   0.862
  428SOL    MW4 1744   3.201   3.428   0.862
  429SOL     OW 1745   3.643   4.215   0.675
  429SOL    HW2 1746   3.687   4.142   0.632
  429SOL    HW3 1747   3.715   4.274   0.701
  429SOL    MW4 1748   3.658   4.213   0.673
  430SOL     OW 1749   3.487   3.874   0.844
  430SOL    HW2 1750   3.494   3.969   0.843
  430SOL    HW3 1751   3.435   3.855   0.921
  430SOL    MW4 1752   3.481   3.884   0.854
  431SOL     OW 1753   3.122   3.939   0.728
  431SOL    HW2 1754   3.197   3.898   0.685
  431SOL    HW3 1755   3.072   3.866   0.765
  431SOL    MW4 1756   3.125   3.924   0.727
  432SOL     OW 1757   3.186   4.177   0.856
  432SOL    HW2 1758   3.198   4.240   0.786
  432SOL    HW3 1759   3.166   4.095   0.812
  432SOL    MW4 1760   3.185   4.174   0.841
  433SOL     OW 1761   3.271   4.344   0.653
  433SOL    HW2 1762   3.283   4.429   0.697
  433SOL    HW3 1763   3.347   4.336   0.595
  433SOL    MW4 1764   3.282   4.354   0.652
  434SOL     OW 1765   3.823   4.615   0.834
  434SOL    HW2 1766   3.899   4.650   0.788
  434SOL    HW3 1767   3.748   4.654   0.789
  434SOL    MW4 1768   3.823   4.625   0.822
  435SOL     OW 1769   3.580   0.057   0.758
  435SOL    HW2 1770   3.503   0.010   0.787
  435SOL    HW3 1771   3.568   0.068   0.663
  435SOL    MW4 1772   3.569   0.053   0.749
  436SOL     OW 1773   3.578   0.340   0.852
  436SOL    HW2 1774   3.587   0.353   0.947
  436SOL    HW3 1775   3.573   0.245   0.841
  436SOL    MW4 1776   3.578   0.329   0.863
  437SOL     OW 1777   3.767   0.495   0.711
  437SOL    HW2 1778   3.763   0.582   0.751
  437SOL    HW3 1779   3.695   0.447   0.750
  437SOL    MW4 1780   3.757   0.500   0.721
  438SOL     OW 1781   3.783   0.755   0.797
  438SOL    HW2 1782   3.779   0.752   0.893
  438SOL    HW3 1783   3.869   0.793   0.778
  438SOL    MW4 1784   3.794   0.760   0.807
  439SOL     OW 1785   3.571   0.890   0.704
  439SOL    HW2 1786   3.642   0.830   0.727
  439SOL    HW3 1787   3.496   0.858   0.753
  439SOL    MW4 1788   3.570   0.878   0.713
  440SOL     OW 1789   3.589   1.148   0.788
  440SOL    HW2 1790   3.596   1.153   0.883
  440SOL    HW3 1791   3.579   1.055   0.769
  440SOL    MW4 1792   3.588   1.136   0.798
  441SOL     OW 1793   3.826   1.288   0.715
  441SOL    HW2 1794   3.748   1.243   0.748
  441SOL    HW3 1795   3.819   1.283   0.620
  441SOL    MW4 1796   3.815   1.282   0.707
  442SOL     OW 1797   3.821   1.537   0.822
  442SOL    HW2 1798   3.900   1.583   0.793
  442SOL    HW3 1799   3.827   1.451   0.780
  442SOL    MW4 1800   3.833   1.532   0.813
  443SOL     OW 1801   3.674   1.643   0.607
  443SOL    HW2 1802   3.598   1.695   0.633
  443SOL    HW3 1803   3.706   1.605   0.689
  443SOL    MW4 1804   3.668   1.645   0.621
  444SOL     OW 1805   3.811   1.997   0.675
  444SOL    HW2 1806   3.879   1.959   0.732
  444SOL    HW3 1807   3.729   1.976   0.720
  444SOL    MW4 1808   3.809   1.989   0.689
  445SOL     OW 1809   3.780   2.263   0.579
  445SOL    HW2 1810   3.743   2.316   0.649
  445SOL    HW3 1811   3.781   2.174   0.615
  445SOL    MW4 1812   3.775   2.258   0.593
  446SOL     OW 1813   3.794   1.819   0.461
  446SOL    HW2 1814   3.806   1.896   0.516
  446SOL    HW3 1815   3.752   1.755   0.519
  446SOL    MW4 1816   3.790   1.821   0.476
  447SOL     OW 1817   3.718   2.423   0.823
  447SOL    HW2 1818   3.667   2.502   0.836
  447SOL    HW3 1819   3.777   2.420   0.899
  447SOL    MW4 1820   3.719   2.433   0.835
  448SOL     OW 1821   3.584   2.663   0.836
  448SOL    HW2 1822   3.585   2.691   0.927
  448SOL    HW3 1823   3.656   2.710   0.795
  448SOL    MW4 1824   3.593   2.673   0.842
  449SOL     OW 1825   3.788   2.785   0.681
  449SOL    HW2 1826   3.784   2.876   0.709
  449SOL    HW3 1827   3.843   2.787   0.603
  449SOL    MW4 1828   3.795   2.797   0.674
  450SOL     OW 1829   3.782   3.028   0.822
  450SOL    HW2 1830   3.862   3.081   0.814
  450SOL    HW3 1831   3.713   3.083   0.785
  450SOL    MW4 1832   3.784   3.042   0.816
  451SOL     OW 1833   3.564   3.206   0.774
  451SOL    HW2 1834   3.484   3.160   0.796
  451SOL    HW3 1835   3.542   3.259   0.697
  451SOL    MW4 1836   3.551   3.207   0.767
  452SOL     OW 1837   3.624   3.497   0.842
  452SOL    HW2 1838   3.632   3.404   0.861
  452SOL    HW3 1839   3.534   3.508   0.811
  452SOL    MW4 1840   3.613   3.486   0.841
  453SOL     OW 1841   3.807   3.455   0.624
  453SOL    HW2 1842   3.730   3.492   0.668
  453SOL    HW3 1843   3.876   3.458   0.690
  453SOL    MW4 1844   3.806   3.460   0.639
  454SOL     OW 1845   3.752   3.769   0.911
  454SOL    HW2 1846   3.674   3.815   0.880
  454SOL    HW3 1847   3.739   3.678   0.882
  454SOL    MW4 1848   3.740   3.763   0.903
  455SOL     OW 1849   2.621   4.131   0.242
  455SOL    HW2 1850   2.580   4.212   0.210
  455SOL    HW3 1851   2.597   4.129   0.335
  455SOL    MW4 1852   2.612   4.142   0.250
  456SOL     OW 1853   3.478   4.138   0.864
  456SOL    HW2 1854   3.539   4.165   0.795
  456SOL    HW3 1855   3.393   4.174   0.836
  456SOL    MW4 1856   3.475   4.147   0.851
  457SOL     OW 1857   3.875   4.365   0.705
  457SOL    HW2 1858   3.944   4.316   0.749
  457SOL    HW3 1859   3.872   4.450   0.749
  457SOL    MW4 1860   3.883   4.370   0.717
  458SOL     OW 1861   4.243   4.660   0.815
  458SOL    HW2 1862   4.240   4.685   0.907
  458SOL    HW3 1863   4.169   4.705   0.776
  458SOL    MW4 1864   4.233   4.670   0.822
  459SOL     OW 1865   4.015   0.108   0.727
  459SOL    HW2 1866   3.996   0.194   0.764
  459SOL    HW3 1867   4.029   0.124   0.634
  459SOL    MW4 1868   4.015   0.122   0.720
  460SOL     OW 1869   3.978   0.358   0.833
  460SOL    HW2 1870   4.052   0.399   0.788
  460SOL    HW3 1871   3.901   0.396   0.791
  460SOL    MW4 1872   3.978   0.368   0.821
  461SOL     OW 1873   4.233   0.441   0.704
  461SOL    HW2 1874   4.306   0.409   0.757
  461SOL    HW3 1875   4.266   0.443   0.615
  461SOL    MW4 1876   4.247   0.437   0.699
  462SOL     OW 1877   4.252   0.687   0.809
  462SOL    HW2 1878   4.166   0.721   0.784
  462SOL    HW3 1879   4.253   0.598   0.775
  462SOL    MW4 1880   4.241   0.680   0.801
  463SOL     OW 1881   4.041   0.834   0.740
  463SOL    HW2 1882   4.046   0.927   0.763
  463SOL    HW3 1883   4.068   0.831   0.648
  463SOL    MW4 1884   4.045   0.846   0.731
  464SOL     OW 1885   4.039   1.106   0.786
  464SOL    HW2 1886   4.036   1.115   0.882
  464SOL    HW3 1887   3.978   1.173   0.754
  464SOL    MW4 1888   4.030   1.116   0.795
  465SOL     OW 1889   4.240   1.264   0.703
  465SOL    HW2 1890   4.168   1.203   0.717
  465SOL    HW3 1891   4.315   1.222   0.747
  465SOL    MW4 1892   4.241   1.250   0.711
  466SOL     OW 1893   4.245   1.534   0.863
  466SOL    HW2 1894   4.257   1.517   0.957
  466SOL    HW3 1895   4.258   1.448   0.822
  466SOL    MW4 1896   4.248   1.520   0.870
  467SOL     OW 1897   4.036   1.648   0.733
  467SOL    HW2 1898   4.103   1.605   0.785
  467SOL    HW3 1899   4.060   1.631   0.642
  467SOL    MW4 1900   4.048   1.640   0.728
  468SOL     OW 1901   4.029   1.909   0.817
  468SOL    HW2 1902   4.039   1.817   0.794
  468SOL    HW3 1903   4.104   1.952   0.775
  468SOL    MW4 1904   4.040   1.903   0.808
  469SOL     OW 1905   4.243   2.072   0.712
  469SOL    HW2 1906   4.324   2.041   0.752
  469SOL    HW3 1907   4.256   2.057   0.618
  469SOL    MW4 1908   4.256   2.066   0.705
  470SOL     OW 1909   4.325   2.319   0.819
  470SOL    HW2 1910   4.257   2.372   0.777
  470SOL    HW3 1911   4.302   2.229   0.798
  470SOL    MW4 1912   4.313   2.314   0.811
  471SOL     OW 1913   4.137   2.472   0.686
  471SOL    HW2 1914   4.065   2.508   0.737
  471SOL    HW3 1915   4.098   2.401   0.635
  471SOL    MW4 1916   4.122   2.467   0.686
  472SOL     OW 1917   3.985   2.666   0.856
  472SOL    HW2 1918   4.054   2.719   0.814
  472SOL    HW3 1919   3.903   2.700   0.819
  472SOL    MW4 1920   3.983   2.678   0.845
  473SOL     OW 1921   4.216   2.818   0.744
  473SOL    HW2 1922   4.308   2.804   0.767
  473SOL    HW3 1923   4.216   2.830   0.649
  473SOL    MW4 1924   4.228   2.818   0.735
  474SOL     OW 1925   4.223   3.053   0.880
  474SOL    HW2 1926   4.213   2.973   0.829
  474SOL    HW3 1927   4.308   3.088   0.853
  474SOL    MW4 1928   4.233   3.047   0.870
  475SOL     OW 1929   4.010   3.181   0.762
  475SOL    HW2 1930   4.012   3.276   0.775
  475SOL    HW3 1931   4.091   3.150   0.803
  475SOL    MW4 1932   4.021   3.190   0.770
  476SOL     OW 1933   4.028   3.461   0.791
  476SOL    HW2 1934   4.031   3.494   0.881
  476SOL    HW3 1935   4.113   3.485   0.754
  476SOL    MW4 1936   4.039   3.469   0.798
  477SOL     OW 1937   4.273   3.572   0.696
  477SOL    HW2 1938   4.232   3.656   0.717
  477SOL    HW3 1939   4.260   3.562   0.602
  477SOL    MW4 1940   4.266   3.582   0.686
  478SOL     OW 1941   4.177   3.813   0.829
  478SOL    HW2 1942   4.225   3.845   0.905
  478SOL    HW3 1943   4.102   3.872   0.822
  478SOL    MW4 1944   4.173   3.825   0.838
  479SOL     OW 1945   3.918   3.943   0.748
  479SOL    HW2 1946   3.868   3.890   0.810
  479SOL    HW3 1947   3.915   3.893   0.666
  479SOL    MW4 1948   3.911   3.930   0.745
  480SOL     OW 1949   4.049   4.185   0.813
  480SOL    HW2 1950   4.117   4.199   0.747
  480SOL    HW3 1951   3.995   4.114   0.778
  480SOL    MW4 1952   4.051   4.177   0.800
  481SOL     OW 1953   4.356   4.412   0.671
  481SOL    HW2 1954   4.315   4.482   0.720
  481SOL    HW3 1955   4.425   4.378   0.729
  481SOL    MW4 1956   4.360   4.417   0.685
  482SOL     OW 1957   0.235   4.633   1.112
  482SOL    HW2 1958   0.302   4.692   1.145
  482SOL    HW3 1959   0.225   4.657   1.020
  482SOL    MW4 1960   0.243   4.644   1.104
  483SOL     OW 1961   0.019   0.135   1.214
  483SOL    HW2 1962  -0.049   0.074   1.185
  483SOL    HW3 1963   0.101   0.086   1.202
  483SOL    MW4 1964   0.021   0.120   1.209
  484SOL     OW 1965   4.459   0.380   1.078
  484SOL    HW2 1966   4.383   0.424   1.117
  484SOL    HW3 1967   4.464   0.296   1.123
  484SOL    MW4 1968   4.450   0.375   1.089
  485SOL     OW 1969   0.136   0.511   1.239
  485SOL    HW2 1970   0.141   0.598   1.199
  485SOL    HW3 1971   0.070   0.465   1.187
  485SOL    MW4 1972   0.128   0.517   1.227
  486SOL     OW 1973   0.169   0.757   1.120
  486SOL    HW2 1974   0.253   0.802   1.124
  486SOL    HW3 1975   0.108   0.815   1.165
  486SOL    MW4 1976   0.172   0.771   1.126
  487SOL     OW 1977   4.434   0.923   1.233
  487SOL    HW2 1978   4.428   0.918   1.329
  487SOL    HW3 1979   4.352   0.884   1.203
  487SOL    MW4 1980   4.422   0.917   1.242
  488SOL     OW 1981   4.469   1.163   1.098
  488SOL    HW2 1982   4.385   1.200   1.126
  488SOL    HW3 1983   4.476   1.080   1.144
  488SOL    MW4 1984   4.459   1.157   1.107
  489SOL     OW 1985   0.231   1.279   1.183
  489SOL    HW2 1986   0.299   1.226   1.142
  489SOL    HW3 1987   0.149   1.233   1.164
  489SOL    MW4 1988   0.229   1.266   1.175
  490SOL     OW 1989   0.224   1.539   1.111
  490SOL    HW2 1990   0.229   1.444   1.124
  490SOL    HW3 1991   0.220   1.549   1.015
  490SOL    MW4 1992   0.224   1.528   1.100
  491SOL     OW 1993   0.029   1.686   1.236
  491SOL    HW2 1994   0.024   1.775   1.202
  491SOL    HW3 1995   0.097   1.644   1.184
  491SOL    MW4 1996   0.037   1.692   1.225
  492SOL     OW 1997   0.017   1.942   1.140
  492SOL    HW2 1998  -0.059   1.985   1.180
  492SOL    HW3 1999   0.011   1.964   1.047
  492SOL    MW4 2000   0.006   1.951   1.133
  493SOL     OW 2001   0.248   2.068   1.191
  493SOL    HW2 2002   0.238   2.162   1.177
  493SOL    HW3 2003   0.164   2.031   1.165
  493SOL    MW4 2004   0.236   2.076   1.186
  494SOL     OW 2005   0.250   2.344   1.089
  494SOL    HW2 2006   0.320   2.379   1.144
  494SOL    HW3 2007   0.169   2.369   1.133
  494SOL    MW4 2008   0.249   2.352   1.102
  495SOL     OW 2009   0.035   2.431   1.223
  495SOL    HW2 2010   0.012   2.453   1.313
  495SOL    HW3 2011  -0.043   2.386   1.189
  495SOL    MW4 2012   0.021   2.428   1.230
  496SOL     OW 2013   4.465   2.678   1.104
  496SOL    HW2 2014   4.392   2.716   1.153
  496SOL    HW3 2015   4.484   2.596   1.150
  496SOL    MW4 2016   4.458   2.672   1.117
  497SOL     OW 2017   0.215   2.808   1.212
  497SOL    HW2 2018   0.205   2.801   1.307
  497SOL    HW3 2019   0.130   2.781   1.177
  497SOL    MW4 2020   0.203   2.803   1.220
  498SOL     OW 2021   0.223   3.083   1.108
  498SOL    HW2 2022   0.296   3.115   1.161
  498SOL    HW3 2023   0.210   2.993   1.137
  498SOL    MW4 2024   0.231   3.075   1.119
  499SOL     OW 2025   4.410   3.216   1.193
  499SOL    HW2 2026   4.330   3.170   1.170
  499SOL    HW3 2027   4.478   3.174   1.141
  499SOL    MW4 2028   4.408   3.204   1.183
  500SOL     OW 2029   4.451   3.490   1.142
  500SOL    HW2 2030   4.434   3.401   1.173
  500SOL    HW3 2031   4.466   3.479   1.048
  500SOL    MW4 2032   4.451   3.477   1.133
  501SOL     OW 2033   0.214   3.590   1.200
  501SOL    HW2 2034   0.208   3.610   1.293
  501SOL    HW3 2035   0.129   3.551   1.178
  501SOL    MW4 2036   0.202   3.587   1.209
  502SOL     OW 2037   0.268   3.848   1.102
  502SOL    HW2 2038   0.191   3.899   1.123
  502SOL    HW3 2039   0.245   3.758   1.125
  502SOL    MW4 2040   0.255   3.843   1.108
  503SOL     OW 2041   0.043   3.990   1.170
  503SOL    HW2 2042   0.031   4.007   1.264
  503SOL    HW3 2043  -0.039   3.947   1.143
  503SOL    MW4 2044   0.030   3.986   1.179
  504SOL     OW 2045   4.486   4.250   1.101
  504SOL    HW2 2046   4.557   4.295   1.147
  504SOL    HW3 2047   4.500   4.158   1.120
  504SOL    MW4 2048   4.498   4.244   1.109
  505SOL     OW 2049   0.204   4.376   1.215
  505SOL    HW2 2050   0.204   4.393   1.310
  505SOL    HW3 2051   0.204   4.463   1.176
  505SOL    MW4 2052   0.204   4.390   1.223
  506SOL     OW 2053   0.639   4.648   1.108
  506SOL    HW2 2054   0.719   4.697   1.129
  506SOL    HW3 2055   0.649   4.565   1.154
  506SOL    MW4 2056   0.651   4.644   1.117
  507SOL     OW 2057   0.460   0.138   1.229
  507SOL    HW2 2058   0.457   0.222   1.183
  507SOL    HW3 2059   0.534   0.092   1.190
  507SOL    MW4 2060   0.469   0.143   1.218
  508SOL     OW 2061   0.400   0.401   1.127
  508SOL    HW2 2062   0.312   0.432   1.149
  508SOL    HW3 2063   0.408   0.420   1.033
  508SOL    MW4 2064   0.389   0.408   1.117
  509SOL     OW 2065   0.694   0.507   1.188
  509SOL    HW2 2066   0.709   0.586   1.136
  509SOL    HW3 2067   0.606   0.478   1.163
  509SOL    MW4 2068   0.684   0.514   1.178
  510SOL     OW 2069   0.694   0.776   1.092
  510SOL    HW2 2070   0.611   0.797   1.135
  510SOL    HW3 2071   0.679   0.792   1.000
  510SOL    MW4 2072   0.681   0.781   1.086
  511SOL     OW 2073   0.426   0.883   1.167
  511SOL    HW2 2074   0.431   0.887   1.262
  511SOL    HW3 2075   0.436   0.973   1.138
  511SOL    MW4 2076   0.428   0.895   1.176
  512SOL     OW 2077   0.456   1.142   1.083
  512SOL    HW2 2078   0.521   1.184   1.139
  512SOL    HW3 2079   0.461   1.190   1.000
  512SOL    MW4 2080   0.465   1.154   1.079
  513SOL     OW 2081   0.670   1.278   1.210
  513SOL    HW2 2082   0.756   1.246   1.182
  513SOL    HW3 2083   0.668   1.369   1.181
  513SOL    MW4 2084   0.681   1.286   1.203
  514SOL     OW 2085   0.653   1.541   1.117
  514SOL    HW2 2086   0.730   1.584   1.156
  514SOL    HW3 2087   0.583   1.607   1.124
  514SOL    MW4 2088   0.654   1.556   1.123
  515SOL     OW 2089   0.448   1.717   1.154
  515SOL    HW2 2090   0.463   1.712   1.249
  515SOL    HW3 2091   0.376   1.656   1.138
  515SOL    MW4 2092   0.441   1.708   1.165
  516SOL     OW 2093   0.460   1.969   1.065
  516SOL    HW2 2094   0.446   1.876   1.078
  516SOL    HW3 2095   0.384   2.011   1.107
  516SOL    MW4 2096   0.448   1.962   1.073
  517SOL     OW 2097   0.687   2.075   1.201
  517SOL    HW2 2098   0.673   2.079   1.296
  517SOL    HW3 2099   0.615   2.021   1.169
  517SOL    MW4 2100   0.676   2.068   1.209
  518SOL     OW 2101   0.668   2.357   1.131
  518SOL    HW2 2102   0.583   2.391   1.157
  518SOL    HW3 2103   0.670   2.268   1.167
  518SOL    MW4 2104   0.657   2.350   1.140
  519SOL     OW 2105   0.437   2.445   1.234
  519SOL    HW2 2106   0.439   2.450   1.330
  519SOL    HW3 2107   0.440   2.537   1.206
  519SOL    MW4 2108   0.437   2.458   1.243
  520SOL     OW 2109   0.463   2.696   1.143
  520SOL    HW2 2110   0.384   2.735   1.180
  520SOL    HW3 2111   0.456   2.712   1.049
  520SOL    MW4 2112   0.451   2.703   1.135
  521SOL     OW 2113   0.686   2.806   1.246
  521SOL    HW2 2114   0.692   2.897   1.216
  521SOL    HW3 2115   0.600   2.777   1.216
  521SOL    MW4 2116   0.675   2.815   1.238
  522SOL     OW 2117   0.717   3.082   1.167
  522SOL    HW2 2118   0.796   3.130   1.193
  522SOL    HW3 2119   0.722   3.078   1.072
  522SOL    MW4 2120   0.728   3.088   1.158
  523SOL     OW 2121   0.448   3.197   1.241
  523SOL    HW2 2122   0.450   3.292   1.224
  523SOL    HW3 2123   0.532   3.165   1.207
  523SOL    MW4 2124   0.460   3.206   1.234
  524SOL     OW 2125   0.446   3.461   1.153
  524SOL    HW2 2126   0.517   3.508   1.197
  524SOL    HW3 2127   0.368   3.513   1.172
  524SOL    MW4 2128   0.445   3.474   1.161
  525SOL     OW 2129   0.662   3.611   1.222
  525SOL    HW2 2130   0.667   3.628   1.316
  525SOL    HW3 2131   0.672   3.698   1.182
  525SOL    MW4 2132   0.664   3.625   1.229
  526SOL     OW 2133   0.671   3.861   1.118
  526SOL    HW2 2134   0.597   3.886   1.173
  526SOL    HW3 2135   0.642   3.878   1.029
  526SOL    MW4 2136   0.658   3.867   1.114
  527SOL     OW 2137   0.461   3.957   1.256
  527SOL    HW2 2138   0.480   4.040   1.213
  527SOL    HW3 2139   0.388   3.921   1.207
  527SOL    MW4 2140   0.454   3.963   1.244
  528SOL     OW 2141   0.450   4.243   1.121
  528SOL    HW2 2142   0.528   4.294   1.144
  528SOL    HW3 2143   0.379   4.284   1.170
  528SOL    MW4 2144   0.451   4.255   1.130
  529SOL     OW 2145   0.664   4.398   1.214
  529SOL    HW2 2146   0.672   4.402   1.310
  529SOL    HW3 2147   0.750   4.370   1.184
  529SOL    MW4 2148   0.676   4.395   1.223
  530SOL     OW 2149   1.090   4.635   1.099
  530SOL    HW2 2150   1.108   4.544   1.123
  530SOL    HW3 2151   1.084   4.635   1.004
  530SOL    MW4 2152   1.092   4.623   1.090
  531SOL     OW 2153   0.868   0.092   1.202
  531SOL    HW2 2154   0.868   0.088   1.297
  531SOL    HW3 2155   0.951   0.053   1.176
  531SOL    MW4 2156   0.879   0.086   1.211
  532SOL     OW 2157   0.912   0.360   1.104
  532SOL    HW2 2158   0.908   0.272   1.143
  532SOL    HW3 2159   0.839   0.407   1.144
  532SOL    MW4 2160   0.902   0.354   1.115
  533SOL     OW 2161   1.140   0.514   1.176
  533SOL    HW2 2162   1.121   0.535   1.268
  533SOL    HW3 2163   1.064   0.464   1.147
  533SOL    MW4 2164   1.127   0.510   1.185
  534SOL     OW 2165   1.143   0.782   1.100
  534SOL    HW2 2166   1.066   0.830   1.129
  534SOL    HW3 2167   1.132   0.694   1.134
  534SOL    MW4 2168   1.131   0.777   1.108
  535SOL     OW 2169   0.903   0.921   1.195
  535SOL    HW2 2170   0.879   1.005   1.155
  535SOL    HW3 2171   0.835   0.860   1.166
  535SOL    MW4 2172   0.891   0.924   1.186
  536SOL     OW 2173   0.879   1.186   1.070
  536SOL    HW2 2174   0.969   1.208   1.095
  536SOL    HW3 2175   0.878   1.190   0.975
  536SOL    MW4 2176   0.891   1.189   1.061
  537SOL     OW 2177   1.113   1.264   1.210
  537SOL    HW2 2178   1.110   1.285   1.303
  537SOL    HW3 2179   1.198   1.221   1.198
  537SOL    MW4 2180   1.124   1.261   1.221
  538SOL     OW 2181   1.095   1.533   1.099
  538SOL    HW2 2182   1.102   1.443   1.131
  538SOL    HW3 2183   1.116   1.527   1.006
  538SOL    MW4 2184   1.099   1.520   1.091
  539SOL     OW 2185   0.879   1.666   1.229
  539SOL    HW2 2186   0.878   1.750   1.182
  539SOL    HW3 2187   0.957   1.622   1.195
  539SOL    MW4 2188   0.889   1.671   1.218
  540SOL     OW 2189   0.898   1.932   1.107
  540SOL    HW2 2190   0.970   1.987   1.137
  540SOL    HW3 2191   0.819   1.980   1.131
  540SOL    MW4 2192   0.897   1.945   1.114
  541SOL     OW 2193   1.114   2.076   1.204
  541SOL    HW2 2194   1.127   2.099   1.295
  541SOL    HW3 2195   1.119   2.159   1.156
  541SOL    MW4 2196   1.117   2.090   1.209
  542SOL     OW 2197   1.152   2.321   1.084
  542SOL    HW2 2198   1.224   2.361   1.133
  542SOL    HW3 2199   1.073   2.358   1.123
  542SOL    MW4 2200   1.151   2.331   1.095
  543SOL     OW 2201   0.932   2.412   1.213
  543SOL    HW2 2202   0.928   2.418   1.309
  543SOL    HW3 2203   0.844   2.385   1.187
  543SOL    MW4 2204   0.920   2.409   1.222
  544SOL     OW 2205   0.912   2.697   1.143
  544SOL    HW2 2206   0.925   2.612   1.186
  544SOL    HW3 2207   0.832   2.732   1.182
  544SOL    MW4 2208   0.903   2.690   1.154
  545SOL     OW 2209   1.127   2.876   1.221
  545SOL    HW2 2210   1.137   2.886   1.316
  545SOL    HW3 2211   1.049   2.823   1.210
  545SOL    MW4 2212   1.118   2.871   1.232
  546SOL     OW 2213   1.172   3.120   1.125
  546SOL    HW2 2214   1.158   3.030   1.155
  546SOL    HW3 2215   1.151   3.118   1.032
  546SOL    MW4 2216   1.167   3.108   1.117
  547SOL     OW 2217   0.933   3.241   1.237
  547SOL    HW2 2218   0.904   3.323   1.196
  547SOL    HW3 2219   1.011   3.217   1.188
  547SOL    MW4 2220   0.939   3.249   1.225
  548SOL     OW 2221   0.907   3.505   1.130
  548SOL    HW2 2222   0.824   3.545   1.155
  548SOL    HW3 2223   0.903   3.499   1.034
  548SOL    MW4 2224   0.895   3.509   1.120
  549SOL     OW 2225   1.137   3.596   1.245
  549SOL    HW2 2226   1.213   3.541   1.223
  549SOL    HW3 2227   1.064   3.557   1.197
  549SOL    MW4 2228   1.138   3.583   1.236
  550SOL     OW 2229   1.128   3.871   1.153
  550SOL    HW2 2230   1.041   3.905   1.175
  550SOL    HW3 2231   1.127   3.780   1.183
  550SOL    MW4 2232   1.116   3.864   1.160
  551SOL     OW 2233   0.897   4.013   1.207
  551SOL    HW2 2234   0.896   4.026   1.302
  551SOL    HW3 2235   0.822   3.957   1.190
  551SOL    MW4 2236   0.887   4.008   1.218
  552SOL     OW 2237   0.906   4.289   1.143
  552SOL    HW2 2238   0.913   4.195   1.158
  552SOL    HW3 2239   0.926   4.300   1.050
  552SOL    MW4 2240   0.910   4.278   1.133
  553SOL     OW 2241   1.155   4.385   1.208
  553SOL    HW2 2242   1.155   4.412   1.300
  553SOL    HW3 2243   1.064   4.363   1.189
  553SOL    MW4 2244   1.143   4.386   1.218
  554SOL     OW 2245   1.540   4.656   1.068
  554SOL    HW2 2246   1.621   4.705   1.085
  554SOL    HW3 2247   1.560   4.567   1.099
  554SOL    MW4 2248   1.554   4.651   1.075
  555SOL     OW 2249   1.319   0.125   1.192
  555SOL    HW2 2250   1.393   0.075   1.157
  555SOL    HW3 2251   1.242   0.071   1.173
  555SOL    MW4 2252   1.319   0.112   1.185
  556SOL     OW 2253   1.360   0.393   1.076
  556SOL    HW2 2254   1.332   0.302   1.089
  556SOL    HW3 2255   1.291   0.445   1.118
  556SOL    MW4 2256   1.347   0.388   1.084
  557SOL     OW 2257   1.594   0.490   1.174
  557SOL    HW2 2258   1.573   0.578   1.144
  557SOL    HW3 2259   1.517   0.437   1.151
  557SOL    MW4 2260   1.581   0.494   1.167
  558SOL     OW 2261   1.574   0.740   1.121
  558SOL    HW2 2262   1.645   0.790   1.163
  558SOL    HW3 2263   1.584   0.759   1.027
  558SOL    MW4 2264   1.585   0.749   1.114
  559SOL     OW 2265   1.361   0.887   1.220
  559SOL    HW2 2266   1.428   0.825   1.192
  559SOL    HW3 2267   1.284   0.864   1.168
  559SOL    MW4 2268   1.360   0.876   1.209
  560SOL     OW 2269   1.354   1.156   1.125
  560SOL    HW2 2270   1.358   1.062   1.143
  560SOL    HW3 2271   1.353   1.163   1.030
  560SOL    MW4 2272   1.355   1.145   1.115
  561SOL     OW 2273   1.586   1.277   1.215
  561SOL    HW2 2274   1.645   1.211   1.180
  561SOL    HW3 2275   1.498   1.242   1.196
  561SOL    MW4 2276   1.582   1.264   1.208
  562SOL     OW 2277   1.570   1.569   1.091
  562SOL    HW2 2278   1.632   1.617   1.145
  562SOL    HW3 2279   1.577   1.478   1.122
  562SOL    MW4 2280   1.579   1.563   1.103
  563SOL     OW 2281   1.343   1.675   1.192
  563SOL    HW2 2282   1.415   1.626   1.151
  563SOL    HW3 2283   1.264   1.627   1.167
  563SOL    MW4 2284   1.342   1.662   1.183
  564SOL     OW 2285   1.362   1.947   1.133
  564SOL    HW2 2286   1.345   1.856   1.157
  564SOL    HW3 2287   1.290   1.996   1.172
  564SOL    MW4 2288   1.350   1.941   1.141
  565SOL     OW 2289   1.594   2.048   1.237
  565SOL    HW2 2290   1.591   2.141   1.214
  565SOL    HW3 2291   1.511   2.013   1.204
  565SOL    MW4 2292   1.582   2.055   1.229
  566SOL     OW 2293   1.593   2.330   1.140
  566SOL    HW2 2294   1.504   2.358   1.166
  566SOL    HW3 2295   1.593   2.336   1.045
  566SOL    MW4 2296   1.581   2.335   1.131
  567SOL     OW 2297   1.349   2.462   1.219
  567SOL    HW2 2298   1.359   2.474   1.314
  567SOL    HW3 2299   1.371   2.547   1.181
  567SOL    MW4 2300   1.353   2.475   1.227
  568SOL     OW 2301   1.347   2.749   1.111
  568SOL    HW2 2302   1.419   2.801   1.147
  568SOL    HW3 2303   1.268   2.790   1.146
  568SOL    MW4 2304   1.346   2.761   1.120
  569SOL     OW 2305   1.576   2.856   1.211
  569SOL    HW2 2306   1.656   2.819   1.174
  569SOL    HW3 2307   1.565   2.940   1.166
  569SOL    MW4 2308   1.585   2.862   1.200
  570SOL     OW 2309   1.598   3.106   1.074
  570SOL    HW2 2310   1.683   3.147   1.086
  570SOL    HW3 2311   1.537   3.162   1.122
  570SOL    MW4 2312   1.601   3.119   1.082
  571SOL     OW 2313   1.402   3.241   1.215
  571SOL    HW2 2314   1.400   3.243   1.311
  571SOL    HW3 2315   1.325   3.191   1.190
  571SOL    MW4 2316   1.392   3.235   1.224
  572SOL     OW 2317   1.389   3.516   1.138
  572SOL    HW2 2318   1.387   3.422   1.152
  572SOL    HW3 2319   1.382   3.527   1.043
  572SOL    MW4 2320   1.388   3.505   1.127
  573SOL     OW 2321   1.610   3.658   1.224
  573SOL    HW2 2322   1.606   3.735   1.167
  573SOL    HW3 2323   1.536   3.604   1.196
  573SOL    MW4 2324   1.599   3.661   1.213
  574SOL     OW 2325   1.622   3.900   1.073
  574SOL    HW2 2326   1.539   3.930   1.110
  574SOL    HW3 2327   1.604   3.889   0.980
  574SOL    MW4 2328   1.608   3.902   1.066
  575SOL     OW 2329   1.398   3.978   1.193
  575SOL    HW2 2330   1.384   4.070   1.168
  575SOL    HW3 2331   1.313   3.937   1.180
  575SOL    MW4 2332   1.385   3.985   1.188
  576SOL     OW 2333   1.360   4.259   1.081
  576SOL    HW2 2334   1.287   4.310   1.116
  576SOL    HW3 2335   1.346   4.258   0.986
  576SOL    MW4 2336   1.348   4.265   1.073
  577SOL     OW 2337   1.578   4.386   1.159
  577SOL    HW2 2338   1.577   4.382   1.255
  577SOL    HW3 2339   1.497   4.342   1.132
  577SOL    MW4 2340   1.567   4.380   1.168
  578SOL     OW 2341   1.937   4.629   0.960
  578SOL    HW2 2342   1.952   4.557   1.021
  578SOL    HW3 2343   2.008   4.623   0.897
  578SOL    MW4 2344   1.948   4.619   0.960
  579SOL     OW 2345   1.772   0.131   1.171
  579SOL    HW2 2346   1.787   0.220   1.138
  579SOL    HW3 2347   1.845   0.080   1.137
  579SOL    MW4 2348   1.784   0.136   1.162
  580SOL     OW 2349   1.820   0.381   1.072
  580SOL    HW2 2350   1.747   0.419   1.120
  580SOL    HW3 2351   1.805   0.407   0.981
  580SOL    MW4 2352   1.809   0.389   1.066
  581SOL     OW 2353   2.034   0.523   1.215
  581SOL    HW2 2354   2.019   0.504   1.307
  581SOL    HW3 2355   1.960   0.482   1.170
  581SOL    MW4 2356   2.022   0.515   1.221
  582SOL     OW 2357   2.005   0.773   1.126
  582SOL    HW2 2358   2.017   0.684   1.161
  582SOL    HW3 2359   2.011   0.762   1.031
  582SOL    MW4 2360   2.007   0.760   1.118
  583SOL     OW 2361   1.779   0.888   1.226
  583SOL    HW2 2362   1.780   0.918   1.317
  583SOL    HW3 2363   1.867   0.856   1.210
  583SOL    MW4 2364   1.790   0.888   1.236
  584SOL     OW 2365   1.778   1.131   1.092
  584SOL    HW2 2366   1.783   1.039   1.117
  584SOL    HW3 2367   1.780   1.131   0.997
  584SOL    MW4 2368   1.779   1.119   1.083
  585SOL     OW 2369   1.987   1.315   1.223
  585SOL    HW2 2370   2.067   1.263   1.211
  585SOL    HW3 2371   1.918   1.260   1.185
  585SOL    MW4 2372   1.989   1.301   1.216
  586SOL     OW 2373   2.026   1.578   1.144
  586SOL    HW2 2374   2.022   1.487   1.173
  586SOL    HW3 2375   2.024   1.573   1.048
  586SOL    MW4 2376   2.025   1.565   1.135
  587SOL     OW 2377   1.785   1.687   1.233
  587SOL    HW2 2378   1.795   1.781   1.219
  587SOL    HW3 2379   1.864   1.649   1.193
  587SOL    MW4 2380   1.797   1.694   1.226
  588SOL     OW 2381   1.827   1.934   1.111
  588SOL    HW2 2382   1.754   1.975   1.158
  588SOL    HW3 2383   1.797   1.926   1.021
  588SOL    MW4 2384   1.814   1.939   1.106
  589SOL     OW 2385   2.071   2.054   1.208
  589SOL    HW2 2386   2.067   2.048   1.304
  589SOL    HW3 2387   1.994   2.008   1.177
  589SOL    MW4 2388   2.060   2.047   1.217
  590SOL     OW 2389   2.047   2.314   1.126
  590SOL    HW2 2390   2.116   2.370   1.163
  590SOL    HW3 2391   2.060   2.229   1.168
  590SOL    MW4 2392   2.058   2.311   1.136
  591SOL     OW 2393   1.806   2.488   1.190
  591SOL    HW2 2394   1.869   2.426   1.152
  591SOL    HW3 2395   1.722   2.442   1.186
  591SOL    MW4 2396   1.803   2.474   1.184
  592SOL     OW 2397   1.803   2.746   1.091
  592SOL    HW2 2398   1.814   2.660   1.131
  592SOL    HW3 2399   1.804   2.728   0.997
  592SOL    MW4 2400   1.804   2.732   1.084
  593SOL     OW 2401   2.021   2.869   1.219
  593SOL    HW2 2402   2.031   2.955   1.179
  593SOL    HW3 2403   1.948   2.829   1.172
  593SOL    MW4 2404   2.013   2.875   1.207
  594SOL     OW 2405   2.009   3.103   1.061
  594SOL    HW2 2406   1.935   3.154   1.093
  594SOL    HW3 2407   2.020   3.130   0.970
  594SOL    MW4 2408   2.001   3.113   1.054
  595SOL     OW 2409   1.812   3.266   1.177
  595SOL    HW2 2410   1.800   3.268   1.272
  595SOL    HW3 2411   1.820   3.358   1.151
  595SOL    MW4 2412   1.811   3.278   1.186
  596SOL     OW 2413   1.818   3.520   1.102
  596SOL    HW2 2414   1.900   3.558   1.134
  596SOL    HW3 2415   1.749   3.570   1.147
  596SOL    MW4 2416   1.820   3.532   1.113
  597SOL     OW 2417   2.056   3.633   1.191
  597SOL    HW2 2418   2.059   3.636   1.286
  597SOL    HW3 2419   2.135   3.585   1.166
  597SOL    MW4 2420   2.067   3.627   1.200
  598SOL     OW 2421   2.079   3.900   1.086
  598SOL    HW2 2422   1.993   3.942   1.092
  598SOL    HW3 2423   2.066   3.814   1.126
  598SOL    MW4 2424   2.066   3.894   1.092
  599SOL     OW 2425   1.847   4.035   1.146
  599SOL    HW2 2426   1.843   4.043   1.241
  599SOL    HW3 2427   1.773   3.978   1.123
  599SOL    MW4 2428   1.837   4.028   1.156
  600SOL     OW 2429   1.800   4.282   1.050
  600SOL    HW2 2430   1.802   4.189   1.073
  600SOL    HW3 2431   1.722   4.316   1.094
  600SOL    MW4 2432   1.790   4.274   1.059
  601SOL     OW 2433   1.997   4.422   1.188
  601SOL    HW2 2434   1.994   4.419   1.283
  601SOL    HW3 2435   1.925   4.366   1.159
  601SOL    MW4 2436   1.987   4.414   1.197
  602SOL     OW 2437   2.449   0.017   1.096
  602SOL    HW2 2438   2.519   0.059   1.146
  602SOL    HW3 2439   2.370   0.033   1.147
  602SOL    MW4 2440   2.448   0.025   1.109
  603SOL     OW 2441   2.190   0.092   1.202
  603SOL    HW2 2442   2.188   0.179   1.163
  603SOL    HW3 2443   2.124   0.042   1.153
  603SOL    MW4 2444   2.181   0.097   1.190
  604SOL     OW 2445   2.192   0.341   1.077
  604SOL    HW2 2446   2.141   0.401   1.131
  604SOL    HW3 2447   2.170   0.366   0.987
  604SOL    MW4 2448   2.182   0.352   1.072
  605SOL     OW 2449   2.448   0.458   1.142
  605SOL    HW2 2450   2.417   0.481   1.229
  605SOL    HW3 2451   2.379   0.401   1.107
  605SOL    MW4 2452   2.435   0.454   1.149
  606SOL     OW 2453   2.461   0.759   1.065
  606SOL    HW2 2454   2.452   0.664   1.064
  606SOL    HW3 2455   2.454   0.785   0.973
  606SOL    MW4 2456   2.459   0.750   1.052
  607SOL     OW 2457   2.219   0.883   1.239
  607SOL    HW2 2458   2.283   0.819   1.208
  607SOL    HW3 2459   2.135   0.853   1.204
  607SOL    MW4 2460   2.217   0.871   1.230
  608SOL     OW 2461   2.221   1.160   1.183
  608SOL    HW2 2462   2.303   1.190   1.223
  608SOL    HW3 2463   2.212   1.069   1.213
  608SOL    MW4 2464   2.231   1.152   1.192
  609SOL     OW 2465   2.495   1.234   1.261
  609SOL    HW2 2466   2.581   1.196   1.245
  609SOL    HW3 2467   2.495   1.315   1.210
  609SOL    MW4 2468   2.507   1.240   1.252
  610SOL     OW 2469   2.487   1.488   1.140
  610SOL    HW2 2470   2.406   1.532   1.165
  610SOL    HW3 2471   2.499   1.512   1.048
  610SOL    MW4 2472   2.478   1.497   1.131
  611SOL     OW 2473   2.266   1.649   1.261
  611SOL    HW2 2474   2.283   1.725   1.206
  611SOL    HW3 2475   2.181   1.616   1.230
  611SOL    MW4 2476   2.257   1.654   1.250
  612SOL     OW 2477   2.311   1.903   1.150
  612SOL    HW2 2478   2.235   1.954   1.178
  612SOL    HW3 2479   2.299   1.890   1.056
  612SOL    MW4 2480   2.300   1.908   1.141
  613SOL     OW 2481   2.516   2.058   1.222
  613SOL    HW2 2482   2.592   2.024   1.175
  613SOL    HW3 2483   2.442   2.007   1.188
  613SOL    MW4 2484   2.516   2.046   1.211
  614SOL     OW 2485   2.470   2.321   1.126
  614SOL    HW2 2486   2.481   2.236   1.168
  614SOL    HW3 2487   2.461   2.301   1.033
  614SOL    MW4 2488   2.470   2.307   1.119
  615SOL     OW 2489   2.253   2.478   1.205
  615SOL    HW2 2490   2.253   2.474   1.301
  615SOL    HW3 2491   2.332   2.429   1.179
  615SOL    MW4 2492   2.264   2.471   1.214
  616SOL     OW 2493   2.241   2.730   1.092
  616SOL    HW2 2494   2.248   2.645   1.137
  616SOL    HW3 2495   2.162   2.770   1.127
  616SOL    MW4 2496   2.232   2.724   1.102
  617SOL     OW 2497   2.491   2.839   1.171
  617SOL    HW2 2498   2.484   2.847   1.266
  617SOL    HW3 2499   2.407   2.805   1.143
  617SOL    MW4 2500   2.479   2.836   1.180
  618SOL     OW 2501   2.485   3.098   1.043
  618SOL    HW2 2502   2.401   3.126   1.080
  618SOL    HW3 2503   2.497   3.009   1.076
  618SOL    MW4 2504   2.476   3.090   1.053
  619SOL     OW 2505   2.249   3.210   1.157
  619SOL    HW2 2506   2.261   3.304   1.140
  619SOL    HW3 2507   2.161   3.191   1.124
  619SOL    MW4 2508   2.239   3.220   1.151
  620SOL     OW 2509   2.263   3.477   1.109
  620SOL    HW2 2510   2.346   3.520   1.134
  620SOL    HW3 2511   2.266   3.473   1.013
  620SOL    MW4 2512   2.275   3.482   1.100
  621SOL     OW 2513   2.488   3.628   1.185
  621SOL    HW2 2514   2.463   3.635   1.277
  621SOL    HW3 2515   2.511   3.717   1.159
  621SOL    MW4 2516   2.488   3.641   1.194
  622SOL     OW 2517   2.532   3.876   1.093
  622SOL    HW2 2518   2.445   3.909   1.115
  622SOL    HW3 2519   2.527   3.853   1.000
  622SOL    MW4 2520   2.520   3.877   1.084
  623SOL     OW 2521   2.313   4.024   1.180
  623SOL    HW2 2522   2.294   4.115   1.157
  623SOL    HW3 2523   2.235   3.976   1.151
  623SOL    MW4 2524   2.300   4.030   1.173
  624SOL     OW 2525   2.220   4.278   1.113
  624SOL    HW2 2526   2.137   4.324   1.131
  624SOL    HW3 2527   2.222   4.268   1.018
  624SOL    MW4 2528   2.209   4.282   1.103
  625SOL     OW 2529   2.471   4.402   1.179
  625SOL    HW2 2530   2.385   4.366   1.158
  625SOL    HW3 2531   2.475   4.486   1.133
  625SOL    MW4 2532   2.461   4.408   1.170
  626SOL     OW 2533   2.911   0.003   1.112
  626SOL    HW2 2534   2.917  -0.082   1.154
  626SOL    HW3 2535   2.887  -0.017   1.021
  626SOL    MW4 2536   2.909  -0.011   1.105
  627SOL     OW 2537   2.683   0.110   1.242
  627SOL    HW2 2538   2.665   0.107   1.336
  627SOL    HW3 2539   2.771   0.073   1.233
  627SOL    MW4 2540   2.692   0.105   1.253
  628SOL     OW 2541   2.718   0.364   1.132
  628SOL    HW2 2542   2.725   0.272   1.157
  628SOL    HW3 2543   2.628   0.388   1.155
  628SOL    MW4 2544   2.707   0.355   1.138
  629SOL     OW 2545   2.942   0.502   1.213
  629SOL    HW2 2546   2.933   0.591   1.178
  629SOL    HW3 2547   2.866   0.455   1.178
  629SOL    MW4 2548   2.931   0.507   1.203
  630SOL     OW 2549   2.917   0.761   1.111
  630SOL    HW2 2550   2.995   0.813   1.130
  630SOL    HW3 2551   2.846   0.808   1.155
  630SOL    MW4 2552   2.918   0.774   1.119
  631SOL     OW 2553   2.682   0.858   1.212
  631SOL    HW2 2554   2.684   0.953   1.200
  631SOL    HW3 2555   2.610   0.828   1.157
  631SOL    MW4 2556   2.673   0.867   1.203
  632SOL     OW 2557   2.718   1.129   1.155
  632SOL    HW2 2558   2.792   1.185   1.175
  632SOL    HW3 2559   2.702   1.142   1.061
  632SOL    MW4 2560   2.725   1.138   1.145
  633SOL     OW 2561   2.960   1.253   1.218
  633SOL    HW2 2562   2.970   1.238   1.312
  633SOL    HW3 2563   2.939   1.346   1.211
  633SOL    MW4 2564   2.958   1.263   1.230
  634SOL     OW 2565   2.911   1.513   1.148
  634SOL    HW2 2566   2.989   1.560   1.178
  634SOL    HW3 2567   2.917   1.515   1.053
  634SOL    MW4 2568   2.922   1.520   1.140
  635SOL     OW 2569   2.696   1.659   1.231
  635SOL    HW2 2570   2.774   1.611   1.204
  635SOL    HW3 2571   2.624   1.597   1.219
  635SOL    MW4 2572   2.697   1.645   1.226
  636SOL     OW 2573   2.745   1.912   1.081
  636SOL    HW2 2574   2.811   1.966   1.123
  636SOL    HW3 2575   2.743   1.831   1.132
  636SOL    MW4 2576   2.753   1.909   1.093
  637SOL     OW 2577   2.967   2.038   1.210
  637SOL    HW2 2578   2.967   2.047   1.305
  637SOL    HW3 2579   2.964   2.128   1.177
  637SOL    MW4 2580   2.966   2.051   1.218
  638SOL     OW 2581   2.941   2.296   1.093
  638SOL    HW2 2582   3.021   2.329   1.134
  638SOL    HW3 2583   2.871   2.349   1.131
  638SOL    MW4 2584   2.942   2.307   1.103
  639SOL     OW 2585   2.706   2.436   1.191
  639SOL    HW2 2586   2.691   2.446   1.285
  639SOL    HW3 2587   2.630   2.389   1.159
  639SOL    MW4 2588   2.694   2.431   1.199
  640SOL     OW 2589   2.700   2.690   1.066
  640SOL    HW2 2590   2.687   2.601   1.100
  640SOL    HW3 2591   2.627   2.740   1.102
  640SOL    MW4 2592   2.689   2.685   1.075
  641SOL     OW 2593   2.956   2.827   1.148
  641SOL    HW2 2594   2.956   2.829   1.244
  641SOL    HW3 2595   2.877   2.779   1.125
  641SOL    MW4 2596   2.946   2.821   1.158
  642SOL     OW 2597   2.947   3.105   1.075
  642SOL    HW2 2598   2.960   3.014   1.100
  642SOL    HW3 2599   2.935   3.103   0.980
  642SOL    MW4 2600   2.947   3.093   1.066
  643SOL     OW 2601   2.707   3.173   1.217
  643SOL    HW2 2602   2.785   3.136   1.176
  643SOL    HW3 2603   2.634   3.142   1.164
  643SOL    MW4 2604   2.708   3.164   1.205
  644SOL     OW 2605   2.701   3.433   1.096
  644SOL    HW2 2606   2.700   3.350   1.143
  644SOL    HW3 2607   2.623   3.480   1.126
  644SOL    MW4 2608   2.690   3.429   1.106
  645SOL     OW 2609   2.911   3.600   1.200
  645SOL    HW2 2610   2.988   3.556   1.162
  645SOL    HW3 2611   2.837   3.548   1.168
  645SOL    MW4 2612   2.912   3.587   1.191
  646SOL     OW 2613   2.944   3.860   1.125
  646SOL    HW2 2614   3.021   3.913   1.149
  646SOL    HW3 2615   2.963   3.773   1.159
  646SOL    MW4 2616   2.957   3.856   1.132
  647SOL     OW 2617   2.720   4.004   1.239
  647SOL    HW2 2618   2.797   3.961   1.203
  647SOL    HW3 2619   2.646   3.958   1.201
  647SOL    MW4 2620   2.720   3.992   1.229
  648SOL     OW 2621   2.680   4.237   1.098
  648SOL    HW2 2622   2.696   4.161   1.153
  648SOL    HW3 2623   2.614   4.288   1.146
  648SOL    MW4 2624   2.673   4.234   1.112
  649SOL     OW 2625   2.914   4.399   1.202
  649SOL    HW2 2626   2.995   4.348   1.191
  649SOL    HW3 2627   2.844   4.339   1.176
  649SOL    MW4 2628   2.916   4.384   1.197
  650SOL     OW 2629   3.357   4.627   1.112
  650SOL    HW2 2630   3.439   4.678   1.117
  650SOL    HW3 2631   3.293   4.680   1.159
  650SOL    MW4 2632   3.360   4.641   1.119
  651SOL     OW 2633   3.156   0.110   1.228
  651SOL    HW2 2634   3.153   0.091   1.321
  651SOL    HW3 2635   3.067   0.092   1.196
  651SOL    MW4 2636   3.144   0.105   1.236
  652SOL     OW 2637   3.182   0.362   1.121
  652SOL    HW2 2638   3.189   0.280   1.170
  652SOL    HW3 2639   3.106   0.406   1.158
  652SOL    MW4 2640   3.173   0.357   1.132
  653SOL     OW 2641   3.361   0.498   1.255
  653SOL    HW2 2642   3.375   0.584   1.214
  653SOL    HW3 2643   3.297   0.455   1.197
  653SOL    MW4 2644   3.354   0.504   1.242
  654SOL     OW 2645   3.382   0.743   1.118
  654SOL    HW2 2646   3.309   0.801   1.141
  654SOL    HW3 2647   3.375   0.733   1.023
  654SOL    MW4 2648   3.371   0.749   1.108
  655SOL     OW 2649   3.159   0.897   1.176
  655SOL    HW2 2650   3.143   0.914   1.268
  655SOL    HW3 2651   3.171   0.983   1.137
  655SOL    MW4 2652   3.159   0.910   1.183
  656SOL     OW 2653   3.197   1.155   1.078
  656SOL    HW2 2654   3.264   1.199   1.129
  656SOL    HW3 2655   3.115   1.192   1.109
  656SOL    MW4 2656   3.195   1.166   1.088
  657SOL     OW 2657   3.410   1.264   1.235
  657SOL    HW2 2658   3.419   1.290   1.326
  657SOL    HW3 2659   3.413   1.346   1.186
  657SOL    MW4 2660   3.411   1.278   1.240
  658SOL     OW 2661   3.348   1.505   1.106
  658SOL    HW2 2662   3.425   1.560   1.118
  658SOL    HW3 2663   3.278   1.552   1.151
  658SOL    MW4 2664   3.349   1.518   1.114
  659SOL     OW 2665   3.126   1.662   1.227
  659SOL    HW2 2666   3.147   1.672   1.320
  659SOL    HW3 2667   3.135   1.750   1.191
  659SOL    MW4 2668   3.130   1.675   1.234
  660SOL     OW 2669   3.171   1.894   1.081
  660SOL    HW2 2670   3.224   1.941   1.145
  660SOL    HW3 2671   3.085   1.936   1.087
  660SOL    MW4 2672   3.166   1.906   1.090
  661SOL     OW 2673   3.399   2.006   1.196
  661SOL    HW2 2674   3.462   1.949   1.152
  661SOL    HW3 2675   3.416   2.093   1.160
  661SOL    MW4 2676   3.410   2.010   1.185
  662SOL     OW 2677   3.422   2.254   1.101
  662SOL    HW2 2678   3.491   2.316   1.127
  662SOL    HW3 2679   3.343   2.289   1.143
  662SOL    MW4 2680   3.421   2.267   1.110
  663SOL     OW 2681   3.190   2.408   1.203
  663SOL    HW2 2682   3.197   2.407   1.298
  663SOL    HW3 2683   3.178   2.500   1.180
  663SOL    MW4 2684   3.189   2.420   1.212
  664SOL     OW 2685   3.159   2.661   1.092
  664SOL    HW2 2686   3.085   2.722   1.102
  664SOL    HW3 2687   3.153   2.632   1.001
  664SOL    MW4 2688   3.148   2.665   1.081
  665SOL     OW 2689   3.341   2.802   1.218
  665SOL    HW2 2690   3.321   2.886   1.176
  665SOL    HW3 2691   3.270   2.744   1.190
  665SOL    MW4 2692   3.329   2.806   1.209
  666SOL     OW 2693   3.329   3.080   1.125
  666SOL    HW2 2694   3.416   3.110   1.151
  666SOL    HW3 2695   3.269   3.145   1.161
  666SOL    MW4 2696   3.332   3.092   1.133
  667SOL     OW 2697   3.136   3.241   1.238
  667SOL    HW2 2698   3.150   3.330   1.205
  667SOL    HW3 2699   3.060   3.208   1.190
  667SOL    MW4 2700   3.128   3.248   1.227
  668SOL     OW 2701   3.146   3.488   1.144
  668SOL    HW2 2702   3.211   3.543   1.188
  668SOL    HW3 2703   3.180   3.477   1.055
  668SOL    MW4 2704   3.159   3.494   1.138
  669SOL     OW 2705   3.385   3.599   1.228
  669SOL    HW2 2706   3.389   3.611   1.323
  669SOL    HW3 2707   3.461   3.544   1.208
  669SOL    MW4 2708   3.396   3.593   1.238
  670SOL     OW 2709   3.390   3.846   1.092
  670SOL    HW2 2710   3.311   3.880   1.134
  670SOL    HW3 2711   3.398   3.756   1.126
  670SOL    MW4 2712   3.381   3.839   1.102
  671SOL     OW 2713   3.185   3.979   1.211
  671SOL    HW2 2714   3.181   3.978   1.306
  671SOL    HW3 2715   3.166   4.070   1.187
  671SOL    MW4 2716   3.182   3.991   1.220
  672SOL     OW 2717   3.151   4.270   1.120
  672SOL    HW2 2718   3.236   4.287   1.161
  672SOL    HW3 2719   3.172   4.243   1.031
  672SOL    MW4 2720   3.165   4.268   1.114
  673SOL     OW 2721   3.389   4.362   1.204
  673SOL    HW2 2722   3.470   4.329   1.165
  673SOL    HW3 2723   3.393   4.457   1.193
  673SOL    MW4 2724   3.400   4.370   1.197
  674SOL     OW 2725   3.835   4.651   1.117
  674SOL    HW2 2726   3.835   4.564   1.158
  674SOL    HW3 2727   3.830   4.633   1.024
  674SOL    MW4 2728   3.834   4.637   1.110
  675SOL     OW 2729   3.571   0.107   1.153
  675SOL    HW2 2730   3.583   0.202   1.161
  675SOL    HW3 2731   3.658   0.073   1.136
  675SOL    MW4 2732   3.584   0.115   1.152
  676SOL     OW 2733   3.593   0.385   1.142
  676SOL    HW2 2734   3.666   0.430   1.184
  676SOL    HW3 2735   3.515   0.426   1.178
  676SOL    MW4 2736   3.592   0.396   1.152
  677SOL     OW 2737   3.806   0.536   1.220
  677SOL    HW2 2738   3.886   0.502   1.179
  677SOL    HW3 2739   3.784   0.613   1.168
  677SOL    MW4 2740   3.814   0.541   1.208
  678SOL     OW 2741   3.796   0.765   1.061
  678SOL    HW2 2742   3.870   0.802   1.111
  678SOL    HW3 2743   3.721   0.819   1.086
  678SOL    MW4 2744   3.796   0.777   1.071
  679SOL     OW 2745   3.587   0.913   1.180
  679SOL    HW2 2746   3.591   0.991   1.125
  679SOL    HW3 2747   3.518   0.859   1.140
  679SOL    MW4 2748   3.578   0.916   1.167
  680SOL     OW 2749   3.591   1.156   1.061
  680SOL    HW2 2750   3.675   1.189   1.093
  680SOL    HW3 2751   3.528   1.181   1.129
  680SOL    MW4 2752   3.594   1.164   1.074
  681SOL     OW 2753   3.816   1.259   1.170
  681SOL    HW2 2754   3.817   1.244   1.264
  681SOL    HW3 2755   3.836   1.352   1.160
  681SOL    MW4 2756   3.819   1.269   1.181
  682SOL     OW 2757   3.859   1.518   1.111
  682SOL    HW2 2758   3.932   1.577   1.132
  682SOL    HW3 2759   3.843   1.534   1.018
  682SOL    MW4 2760   3.867   1.528   1.102
  683SOL     OW 2761   3.590   1.631   1.180
  683SOL    HW2 2762   3.609   1.721   1.153
  683SOL    HW3 2763   3.675   1.587   1.178
  683SOL    MW4 2764   3.604   1.637   1.176
  684SOL     OW 2765   3.633   1.882   1.075
  684SOL    HW2 2766   3.682   1.943   1.131
  684SOL    HW3 2767   3.629   1.926   0.990
  684SOL    MW4 2768   3.639   1.896   1.071
  685SOL     OW 2769   3.798   2.068   1.233
  685SOL    HW2 2770   3.830   2.049   1.321
  685SOL    HW3 2771   3.873   2.055   1.176
  685SOL    MW4 2772   3.812   2.064   1.237
  686SOL     OW 2773   3.833   2.312   1.106
  686SOL    HW2 2774   3.923   2.335   1.130
  686SOL    HW3 2775   3.819   2.225   1.145
  686SOL    MW4 2776   3.843   2.303   1.114
  687SOL     OW 2777   3.606   2.444   1.182
  687SOL    HW2 2778   3.591   2.428   1.275
  687SOL    HW3 2779   3.689   2.402   1.163
  687SOL    MW4 2780   3.615   2.437   1.192
  688SOL     OW 2781   3.582   2.729   1.116
  688SOL    HW2 2782   3.583   2.634   1.125
  688SOL    HW3 2783   3.496   2.755   1.150
  688SOL    MW4 2784   3.571   2.720   1.121
  689SOL     OW 2785   3.809   2.828   1.232
  689SOL    HW2 2786   3.788   2.837   1.325
  689SOL    HW3 2787   3.725   2.812   1.190
  689SOL    MW4 2788   3.795   2.827   1.239
  690SOL     OW 2789   3.839   3.096   1.088
  690SOL    HW2 2790   3.826   3.011   1.131
  690SOL    HW3 2791   3.830   3.077   0.995
  690SOL    MW4 2792   3.836   3.082   1.082
  691SOL     OW 2793   3.590   3.187   1.208
  691SOL    HW2 2794   3.572   3.273   1.170
  691SOL    HW3 2795   3.674   3.162   1.169
  691SOL    MW4 2796   3.599   3.195   1.198
  692SOL     OW 2797   3.610   3.461   1.125
  692SOL    HW2 2798   3.677   3.512   1.170
  692SOL    HW3 2799   3.616   3.489   1.034
  692SOL    MW4 2800   3.619   3.472   1.119
  693SOL     OW 2801   3.811   3.622   1.229
  693SOL    HW2 2802   3.825   3.606   1.322
  693SOL    HW3 2803   3.829   3.715   1.217
  693SOL    MW4 2804   3.816   3.632   1.239
  694SOL     OW 2805   3.832   3.882   1.163
  694SOL    HW2 2806   3.754   3.926   1.195
  694SOL    HW3 2807   3.805   3.844   1.079
  694SOL    MW4 2808   3.818   3.883   1.156
  695SOL     OW 2809   3.598   4.002   1.237
  695SOL    HW2 2810   3.606   3.986   1.331
  695SOL    HW3 2811   3.530   3.941   1.209
  695SOL    MW4 2812   3.590   3.992   1.246
  696SOL     OW 2813   3.608   4.244   1.094
  696SOL    HW2 2814   3.595   4.171   1.155
  696SOL    HW3 2815   3.562   4.217   1.014
  696SOL    MW4 2816   3.600   4.231   1.092
  697SOL     OW 2817   3.827   4.365   1.217
  697SOL    HW2 2818   3.817   4.366   1.313
  697SOL    HW3 2819   3.753   4.313   1.186
  697SOL    MW4 2820   3.816   4.358   1.226
  698SOL     OW 2821   4.298   4.656   1.112
  698SOL    HW2 2822   4.283   4.562   1.115
  698SOL    HW3 2823   4.220   4.694   1.154
  698SOL    MW4 2824   4.286   4.649   1.118
  699SOL     OW 2825   4.061   0.128   1.202
  699SOL    HW2 2826   4.041   0.118   1.295
  699SOL    HW3 2827   3.999   0.071   1.157
  699SOL    MW4 2828   4.050   0.120   1.208
  700SOL     OW 2829   4.022   0.377   1.101
  700SOL    HW2 2830   4.031   0.290   1.138
  700SOL    HW3 2831   4.009   0.362   1.007
  700SOL    MW4 2832   4.022   0.364   1.093
  701SOL     OW 2833   4.239   0.509   1.197
  701SOL    HW2 2834   4.225   0.509   1.292
  701SOL    HW3 2835   4.166   0.457   1.162
  701SOL    MW4 2836   4.227   0.502   1.205
  702SOL     OW 2837   4.246   0.768   1.086
  702SOL    HW2 2838   4.254   0.676   1.113
  702SOL    HW3 2839   4.245   0.765   0.990
  702SOL    MW4 2840   4.247   0.755   1.077
  703SOL     OW 2841   4.024   0.882   1.217
  703SOL    HW2 2842   4.039   0.891   1.311
  703SOL    HW3 2843   4.098   0.830   1.186
  703SOL    MW4 2844   4.036   0.876   1.225
  704SOL     OW 2845   4.013   1.109   1.057
  704SOL    HW2 2846   4.022   1.026   1.104
  704SOL    HW3 2847   3.932   1.147   1.091
  704SOL    MW4 2848   4.004   1.103   1.068
  705SOL     OW 2849   4.222   1.274   1.193
  705SOL    HW2 2850   4.214   1.269   1.288
  705SOL    HW3 2851   4.144   1.231   1.160
  705SOL    MW4 2852   4.211   1.268   1.201
  706SOL     OW 2853   4.297   1.550   1.128
  706SOL    HW2 2854   4.297   1.465   1.173
  706SOL    HW3 2855   4.364   1.601   1.173
  706SOL    MW4 2856   4.306   1.545   1.140
  707SOL     OW 2857   4.052   1.709   1.178
  707SOL    HW2 2858   4.032   1.715   1.271
  707SOL    HW3 2859   4.133   1.658   1.174
  707SOL    MW4 2860   4.060   1.703   1.190
  708SOL     OW 2861   4.003   1.979   1.098
  708SOL    HW2 2862   4.020   1.892   1.135
  708SOL    HW3 2863   4.010   1.966   1.004
  708SOL    MW4 2864   4.007   1.966   1.091
  709SOL     OW 2865   4.250   2.064   1.220
  709SOL    HW2 2866   4.275   2.142   1.171
  709SOL    HW3 2867   4.160   2.047   1.192
  709SOL    MW4 2868   4.241   2.072   1.210
  710SOL     OW 2869   4.316   2.308   1.102
  710SOL    HW2 2870   4.241   2.360   1.131
  710SOL    HW3 2871   4.314   2.316   1.006
  710SOL    MW4 2872   4.306   2.316   1.093
  711SOL     OW 2873   4.077   2.426   1.199
  711SOL    HW2 2874   4.063   2.421   1.294
  711SOL    HW3 2875   4.050   2.515   1.176
  711SOL    MW4 2876   4.071   2.437   1.209
  712SOL     OW 2877   4.040   2.696   1.136
  712SOL    HW2 2878   3.966   2.748   1.168
  712SOL    HW3 2879   4.030   2.696   1.041
  712SOL    MW4 2880   4.029   2.703   1.128
  713SOL     OW 2881   4.259   2.802   1.229
  713SOL    HW2 2882   4.258   2.895   1.203
  713SOL    HW3 2883   4.177   2.767   1.196
  713SOL    MW4 2884   4.248   2.810   1.221
  714SOL     OW 2885   4.205   3.051   1.146
  714SOL    HW2 2886   4.138   3.114   1.174
  714SOL    HW3 2887   4.193   3.044   1.051
  714SOL    MW4 2888   4.195   3.059   1.137
  715SOL     OW 2889   4.012   3.274   1.213
  715SOL    HW2 2890   3.998   3.250   1.305
  715SOL    HW3 2891   3.951   3.218   1.165
  715SOL    MW4 2892   4.002   3.263   1.219
  716SOL     OW 2893   4.021   3.532   1.072
  716SOL    HW2 2894   4.043   3.445   1.107
  716SOL    HW3 2895   3.942   3.557   1.120
  716SOL    MW4 2896   4.013   3.524   1.083
  717SOL     OW 2897   4.251   3.645   1.237
  717SOL    HW2 2898   4.178   3.621   1.179
  717SOL    HW3 2899   4.322   3.586   1.212
  717SOL    MW4 2900   4.251   3.634   1.226
  718SOL     OW 2901   4.285   3.879   1.097
  718SOL    HW2 2902   4.217   3.939   1.126
  718SOL    HW3 2903   4.278   3.804   1.156
  718SOL    MW4 2904   4.275   3.877   1.108
  719SOL     OW 2905   4.076   4.030   1.200
  719SOL    HW2 2906   4.077   4.117   1.159
  719SOL    HW3 2907   3.987   3.998   1.185
  719SOL    MW4 2908   4.064   4.038   1.193
  720SOL     OW 2909   4.052   4.282   1.087
  720SOL    HW2 2910   3.973   4.325   1.120
  720SOL    HW3 2911   4.031   4.262   0.996
  720SOL    MW4 2912   4.039   4.285   1.079
  721SOL     OW 2913   4.276   4.393   1.210
  721SOL    HW2 2914   4.207   4.346   1.164
  721SOL    HW3 2915   4.357   4.348   1.184
  721SOL    MW4 2916   4.278   4.381   1.201
  722SOL     OW 2917   0.187   0.007   1.621
  722SOL    HW2 2918   0.268   0.044   1.585
  722SOL    HW3 2919   0.117   0.061   1.584
  722SOL    MW4 2920   0.189   0.019   1.611
  723SOL     OW 2921   4.491   0.172   1.482
  723SOL    HW2 2922   4.410   0.130   1.512
  723SOL    HW3 2923   4.489   0.164   1.387
  723SOL    MW4 2924   4.480   0.165   1.474
  724SOL     OW 2925   4.482   0.435   1.585
  724SOL    HW2 2926   4.465   0.417   1.677
  724SOL    HW3 2927   4.495   0.349   1.545
  724SOL    MW4 2928   4.482   0.421   1.592
  725SOL     OW 2929   0.239   0.543   1.498
  725SOL    HW2 2930   0.164   0.520   1.553
  725SOL    HW3 2931   0.210   0.523   1.408
  725SOL    MW4 2932   0.225   0.537   1.493
  726SOL     OW 2933   0.209   0.814   1.559
  726SOL    HW2 2934   0.287   0.854   1.521
  726SOL    HW3 2935   0.226   0.720   1.554
  726SOL    MW4 2936   0.221   0.807   1.553
  727SOL     OW 2937   4.447   0.915   1.500
  727SOL    HW2 2938   4.474   1.003   1.525
  727SOL    HW3 2939   4.520   0.859   1.525
  727SOL    MW4 2940   4.460   0.919   1.506
  728SOL     OW 2941   4.482   1.188   1.576
  728SOL    HW2 2942   4.497   1.197   1.670
  728SOL    HW3 2943   4.556   1.235   1.536
  728SOL    MW4 2944   4.494   1.195   1.583
  729SOL     OW 2945   0.232   1.304   1.474
  729SOL    HW2 2946   0.231   1.391   1.512
  729SOL    HW3 2947   0.225   1.319   1.379
  729SOL    MW4 2948   0.231   1.317   1.466
  730SOL     OW 2949   0.269   1.539   1.586
  730SOL    HW2 2950   0.274   1.532   1.682
  730SOL    HW3 2951   0.192   1.593   1.570
  730SOL    MW4 2952   0.260   1.545   1.597
  731SOL     OW 2953   0.036   1.677   1.518
  731SOL    HW2 2954   0.029   1.771   1.530
  731SOL    HW3 2955   0.037   1.665   1.423
  731SOL    MW4 2956   0.035   1.688   1.507
  732SOL     OW 2957   0.032   1.945   1.584
  732SOL    HW2 2958   0.032   1.953   1.679
  732SOL    HW3 2959  -0.053   1.980   1.557
  732SOL    MW4 2960   0.021   1.951   1.593
  733SOL     OW 2961   0.254   2.075   1.492
  733SOL    HW2 2962   0.176   2.032   1.526
  733SOL    HW3 2963   0.257   2.051   1.399
  733SOL    MW4 2964   0.244   2.066   1.484
  734SOL     OW 2965   0.210   2.336   1.576
  734SOL    HW2 2966   0.207   2.324   1.670
  734SOL    HW3 2967   0.213   2.247   1.540
  734SOL    MW4 2968   0.210   2.322   1.583
  735SOL     OW 2969   4.479   2.485   1.488
  735SOL    HW2 2970   4.398   2.453   1.526
  735SOL    HW3 2971   4.545   2.421   1.514
  735SOL    MW4 2972   4.477   2.473   1.496
  736SOL     OW 2973   4.447   2.718   1.629
  736SOL    HW2 2974   4.365   2.749   1.592
  736SOL    HW3 2975   4.460   2.632   1.589
  736SOL    MW4 2976   4.438   2.711   1.619
  737SOL     OW 2977   0.176   2.800   1.478
  737SOL    HW2 2978   0.251   2.757   1.519
  737SOL    HW3 2979   0.101   2.775   1.532
  737SOL    MW4 2980   0.176   2.791   1.491
  738SOL     OW 2981   0.251   3.059   1.587
  738SOL    HW2 2982   0.183   3.111   1.544
  738SOL    HW3 2983   0.256   2.979   1.534
  738SOL    MW4 2984   0.243   3.055   1.574
  739SOL     OW 2985   4.489   3.228   1.474
  739SOL    HW2 2986   4.483   3.316   1.511
  739SOL    HW3 2987   4.462   3.238   1.383
  739SOL    MW4 2988   4.485   3.241   1.467
  740SOL     OW 2989   4.463   3.489   1.576
  740SOL    HW2 2990   4.447   3.492   1.670
  740SOL    HW3 2991   4.385   3.528   1.536
  740SOL    MW4 2992   4.451   3.494   1.583
  741SOL     OW 2993   0.192   3.631   1.480
  741SOL    HW2 2994   0.179   3.715   1.524
  741SOL    HW3 2995   0.120   3.576   1.512
  741SOL    MW4 2996   0.181   3.635   1.490
  742SOL     OW 2997   0.213   3.894   1.606
  742SOL    HW2 2998   0.224   3.895   1.701
  742SOL    HW3 2999   0.287   3.943   1.572
  742SOL    MW4 3000   0.224   3.901   1.614
  743SOL     OW 3001   0.019   4.007   1.452
  743SOL    HW2 3002  -0.003   4.095   1.483
  743SOL    HW3 3003   0.081   3.973   1.517
  743SOL    MW4 3004   0.024   4.014   1.465
  744SOL     OW 3005   4.434   4.260   1.572
  744SOL    HW2 3006   4.441   4.280   1.665
  744SOL    HW3 3007   4.360   4.313   1.542
  744SOL    MW4 3008   4.425   4.270   1.581
  745SOL     OW 3009   0.172   4.426   1.509
  745SOL    HW2 3010   0.090   4.378   1.521
  745SOL    HW3 3011   0.153   4.514   1.543
  745SOL    MW4 3012   0.159   4.432   1.516
  746SOL     OW 3013   0.674   4.652   1.624
  746SOL    HW2 3014   0.740   4.709   1.584
  746SOL    HW3 3015   0.590   4.688   1.594
  746SOL    MW4 3016   0.672   4.664   1.615
  747SOL     OW 3017   0.433   0.102   1.510
  747SOL    HW2 3018   0.419   0.193   1.537
  747SOL    HW3 3019   0.447   0.106   1.416
  747SOL    MW4 3020   0.433   0.114   1.501
  748SOL     OW 3021   0.436   0.368   1.584
  748SOL    HW2 3022   0.521   0.409   1.565
  748SOL    HW3 3023   0.372   0.423   1.539
  748SOL    MW4 3024   0.439   0.380   1.575
  749SOL     OW 3025   0.679   0.500   1.481
  749SOL    HW2 3026   0.673   0.591   1.509
  749SOL    HW3 3027   0.692   0.505   1.386
  749SOL    MW4 3028   0.680   0.513   1.472
  750SOL     OW 3029   0.663   0.786   1.563
  750SOL    HW2 3030   0.656   0.800   1.658
  750SOL    HW3 3031   0.737   0.841   1.536
  750SOL    MW4 3032   0.672   0.795   1.572
  751SOL     OW 3033   0.453   0.912   1.448
  751SOL    HW2 3034   0.448   0.995   1.495
  751SOL    HW3 3035   0.526   0.866   1.489
  751SOL    MW4 3036   0.462   0.917   1.460
  752SOL     OW 3037   0.437   1.156   1.590
  752SOL    HW2 3038   0.514   1.204   1.559
  752SOL    HW3 3039   0.363   1.201   1.549
  752SOL    MW4 3040   0.438   1.168   1.580
  753SOL     OW 3041   0.643   1.301   1.494
  753SOL    HW2 3042   0.653   1.393   1.520
  753SOL    HW3 3043   0.650   1.303   1.399
  753SOL    MW4 3044   0.645   1.314   1.485
  754SOL     OW 3045   0.685   1.566   1.577
  754SOL    HW2 3046   0.761   1.621   1.555
  754SOL    HW3 3047   0.609   1.618   1.550
  754SOL    MW4 3048   0.685   1.580   1.570
  755SOL     OW 3049   0.474   1.700   1.451
  755SOL    HW2 3050   0.494   1.782   1.497
  755SOL    HW3 3051   0.413   1.655   1.509
  755SOL    MW4 3052   0.468   1.705   1.465
  756SOL     OW 3053   0.485   1.939   1.593
  756SOL    HW2 3054   0.473   1.933   1.688
  756SOL    HW3 3055   0.411   1.992   1.563
  756SOL    MW4 3056   0.473   1.945   1.602
  757SOL     OW 3057   0.689   2.073   1.482
  757SOL    HW2 3058   0.765   2.030   1.522
  757SOL    HW3 3059   0.614   2.023   1.516
  757SOL    MW4 3060   0.689   2.061   1.492
  758SOL     OW 3061   0.686   2.314   1.612
  758SOL    HW2 3062   0.599   2.346   1.588
  758SOL    HW3 3063   0.688   2.223   1.582
  758SOL    MW4 3064   0.675   2.306   1.605
  759SOL     OW 3065   0.448   2.449   1.520
  759SOL    HW2 3066   0.443   2.539   1.551
  759SOL    HW3 3067   0.362   2.412   1.537
  759SOL    MW4 3068   0.436   2.456   1.526
  760SOL     OW 3069   0.411   2.710   1.612
  760SOL    HW2 3070   0.404   2.714   1.708
  760SOL    HW3 3071   0.498   2.745   1.593
  760SOL    MW4 3072   0.421   2.715   1.622
  761SOL     OW 3073   0.676   2.821   1.531
  761SOL    HW2 3074   0.653   2.914   1.538
  761SOL    HW3 3075   0.694   2.808   1.438
  761SOL    MW4 3076   0.676   2.832   1.520
  762SOL     OW 3077   0.649   3.097   1.576
  762SOL    HW2 3078   0.732   3.141   1.555
  762SOL    HW3 3079   0.581   3.160   1.551
  762SOL    MW4 3080   0.651   3.111   1.570
  763SOL     OW 3081   0.437   3.255   1.512
  763SOL    HW2 3082   0.372   3.200   1.557
  763SOL    HW3 3083   0.434   3.225   1.421
  763SOL    MW4 3084   0.428   3.243   1.506
  764SOL     OW 3085   0.437   3.527   1.606
  764SOL    HW2 3086   0.431   3.440   1.565
  764SOL    HW3 3087   0.359   3.574   1.575
  764SOL    MW4 3088   0.426   3.522   1.597
  765SOL     OW 3089   0.658   3.651   1.499
  765SOL    HW2 3090   0.739   3.608   1.529
  765SOL    HW3 3091   0.588   3.599   1.537
  765SOL    MW4 3092   0.660   3.639   1.508
  766SOL     OW 3093   0.650   3.916   1.581
  766SOL    HW2 3094   0.738   3.951   1.566
  766SOL    HW3 3095   0.656   3.824   1.555
  766SOL    MW4 3096   0.663   3.909   1.576
  767SOL     OW 3097   0.419   4.044   1.508
  767SOL    HW2 3098   0.507   4.011   1.526
  767SOL    HW3 3099   0.403   4.021   1.416
  767SOL    MW4 3100   0.428   4.037   1.498
  768SOL     OW 3101   0.433   4.332   1.554
  768SOL    HW2 3102   0.424   4.239   1.533
  768SOL    HW3 3103   0.344   4.366   1.549
  768SOL    MW4 3104   0.420   4.324   1.550
  769SOL     OW 3105   0.710   4.410   1.475
  769SOL    HW2 3106   0.630   4.364   1.498
  769SOL    HW3 3107   0.700   4.496   1.515
  769SOL    MW4 3108   0.698   4.415   1.483
  770SOL     OW 3109   1.121   4.665   1.577
  770SOL    HW2 3110   1.139   4.675   1.671
  770SOL    HW3 3111   1.198   4.702   1.534
  770SOL    MW4 3112   1.133   4.672   1.584
  771SOL     OW 3113   0.880   0.123   1.480
  771SOL    HW2 3114   0.876   0.215   1.508
  771SOL    HW3 3115   0.957   0.088   1.524
  771SOL    MW4 3116   0.890   0.131   1.489
  772SOL     OW 3117   0.896   0.367   1.593
  772SOL    HW2 3118   0.898   0.356   1.688
  772SOL    HW3 3119   0.824   0.428   1.577
  772SOL    MW4 3120   0.887   0.373   1.603
  773SOL     OW 3121   1.064   0.523   1.438
  773SOL    HW2 3122   1.082   0.598   1.494
  773SOL    HW3 3123   1.002   0.470   1.487
  773SOL    MW4 3124   1.058   0.526   1.452
  774SOL     OW 3125   1.094   0.765   1.563
  774SOL    HW2 3126   1.092   0.778   1.658
  774SOL    HW3 3127   1.179   0.800   1.535
  774SOL    MW4 3128   1.105   0.772   1.572
  775SOL     OW 3129   0.885   0.921   1.461
  775SOL    HW2 3130   0.955   0.861   1.485
  775SOL    HW3 3131   0.885   0.922   1.365
  775SOL    MW4 3132   0.894   0.913   1.451
  776SOL     OW 3133   0.891   1.167   1.588
  776SOL    HW2 3134   0.903   1.078   1.556
  776SOL    HW3 3135   0.806   1.194   1.553
  776SOL    MW4 3136   0.881   1.159   1.579
  777SOL     OW 3137   1.107   1.312   1.489
  777SOL    HW2 3138   1.184   1.275   1.531
  777SOL    HW3 3139   1.035   1.257   1.519
  777SOL    MW4 3140   1.108   1.300   1.499
  778SOL     OW 3141   1.106   1.560   1.582
  778SOL    HW2 3142   1.197   1.584   1.568
  778SOL    HW3 3143   1.099   1.470   1.551
  778SOL    MW4 3144   1.117   1.551   1.576
  779SOL     OW 3145   0.900   1.708   1.512
  779SOL    HW2 3146   0.977   1.652   1.524
  779SOL    HW3 3147   0.881   1.703   1.419
  779SOL    MW4 3148   0.908   1.700   1.501
  780SOL     OW 3149   0.906   1.968   1.607
  780SOL    HW2 3150   0.979   2.020   1.576
  780SOL    HW3 3151   0.923   1.880   1.573
  780SOL    MW4 3152   0.918   1.963   1.598
  781SOL     OW 3153   1.164   2.103   1.474
  781SOL    HW2 3154   1.237   2.051   1.508
  781SOL    HW3 3155   1.168   2.185   1.523
  781SOL    MW4 3156   1.174   2.107   1.485
  782SOL     OW 3157   1.174   2.333   1.594
  782SOL    HW2 3158   1.249   2.378   1.556
  782SOL    HW3 3159   1.098   2.373   1.553
  782SOL    MW4 3160   1.174   2.344   1.584
  783SOL     OW 3161   0.913   2.437   1.479
  783SOL    HW2 3162   0.913   2.532   1.491
  783SOL    HW3 3163   0.827   2.409   1.510
  783SOL    MW4 3164   0.902   2.446   1.484
  784SOL     OW 3165   0.910   2.694   1.613
  784SOL    HW2 3166   0.914   2.691   1.709
  784SOL    HW3 3167   0.837   2.754   1.595
  784SOL    MW4 3168   0.901   2.702   1.623
  785SOL     OW 3169   1.148   2.858   1.522
  785SOL    HW2 3170   1.135   2.946   1.557
  785SOL    HW3 3171   1.067   2.812   1.544
  785SOL    MW4 3172   1.135   2.863   1.529
  786SOL     OW 3173   1.110   3.119   1.574
  786SOL    HW2 3174   1.120   3.145   1.666
  786SOL    HW3 3175   1.188   3.154   1.531
  786SOL    MW4 3176   1.122   3.127   1.581
  787SOL     OW 3177   0.887   3.261   1.498
  787SOL    HW2 3178   0.964   3.206   1.517
  787SOL    HW3 3179   0.888   3.271   1.403
  787SOL    MW4 3180   0.897   3.255   1.488
  788SOL     OW 3181   0.904   3.527   1.602
  788SOL    HW2 3182   0.992   3.546   1.570
  788SOL    HW3 3183   0.887   3.438   1.571
  788SOL    MW4 3184   0.914   3.518   1.594
  789SOL     OW 3185   1.158   3.628   1.515
  789SOL    HW2 3186   1.214   3.560   1.552
  789SOL    HW3 3187   1.148   3.604   1.423
  789SOL    MW4 3188   1.164   3.616   1.508
  790SOL     OW 3189   1.125   3.885   1.607
  790SOL    HW2 3190   1.211   3.927   1.601
  790SOL    HW3 3191   1.135   3.803   1.558
  790SOL    MW4 3192   1.138   3.879   1.600
  791SOL     OW 3193   0.894   4.020   1.490
  791SOL    HW2 3194   0.890   4.107   1.530
  791SOL    HW3 3195   0.975   3.982   1.525
  791SOL    MW4 3196   0.904   4.027   1.500
  792SOL     OW 3197   0.912   4.264   1.591
  792SOL    HW2 3198   0.911   4.279   1.686
  792SOL    HW3 3199   0.839   4.316   1.558
  792SOL    MW4 3200   0.902   4.273   1.599
  793SOL     OW 3201   1.145   4.413   1.492
  793SOL    HW2 3202   1.066   4.363   1.515
  793SOL    HW3 3203   1.128   4.501   1.525
  793SOL    MW4 3204   1.132   4.418   1.499
  794SOL     OW 3205   1.540   4.646   1.567
  794SOL    HW2 3206   1.535   4.651   1.662
  794SOL    HW3 3207   1.466   4.698   1.535
  794SOL    MW4 3208   1.530   4.654   1.575
  795SOL     OW 3209   1.340   0.137   1.478
  795SOL    HW2 3210   1.312   0.221   1.513
  795SOL    HW3 3211   1.334   0.147   1.383
  795SOL    MW4 3212   1.336   0.149   1.470
  796SOL     OW 3213   1.301   0.408   1.531
  796SOL    HW2 3214   1.381   0.452   1.500
  796SOL    HW3 3215   1.230   0.452   1.484
  796SOL    MW4 3216   1.302   0.420   1.520
  797SOL     OW 3217   1.557   0.527   1.456
  797SOL    HW2 3218   1.620   0.471   1.501
  797SOL    HW3 3219   1.576   0.515   1.363
  797SOL    MW4 3220   1.568   0.518   1.449
  798SOL     OW 3221   1.571   0.770   1.584
  798SOL    HW2 3222   1.553   0.745   1.674
  798SOL    HW3 3223   1.584   0.687   1.538
  798SOL    MW4 3224   1.570   0.756   1.589
  799SOL     OW 3225   1.351   0.898   1.509
  799SOL    HW2 3226   1.435   0.860   1.534
  799SOL    HW3 3227   1.353   0.901   1.413
  799SOL    MW4 3228   1.362   0.893   1.499
  800SOL     OW 3229   1.329   1.163   1.571
  800SOL    HW2 3230   1.308   1.165   1.665
  800SOL    HW3 3231   1.327   1.070   1.548
  800SOL    MW4 3232   1.326   1.151   1.581
  801SOL     OW 3233   1.558   1.328   1.498
  801SOL    HW2 3234   1.479   1.276   1.512
  801SOL    HW3 3235   1.580   1.314   1.406
  801SOL    MW4 3236   1.551   1.319   1.488
  802SOL     OW 3237   1.582   1.596   1.577
  802SOL    HW2 3238   1.578   1.598   1.673
  802SOL    HW3 3239   1.581   1.503   1.556
  802SOL    MW4 3240   1.581   1.584   1.587
  803SOL     OW 3241   1.330   1.684   1.472
  803SOL    HW2 3242   1.413   1.641   1.492
  803SOL    HW3 3243   1.324   1.680   1.377
  803SOL    MW4 3244   1.341   1.678   1.462
  804SOL     OW 3245   1.360   1.931   1.589
  804SOL    HW2 3246   1.368   1.919   1.684
  804SOL    HW3 3247   1.351   1.842   1.554
  804SOL    MW4 3248   1.360   1.917   1.597
  805SOL     OW 3249   1.588   2.061   1.514
  805SOL    HW2 3250   1.512   2.011   1.545
  805SOL    HW3 3251   1.588   2.047   1.419
  805SOL    MW4 3252   1.578   2.053   1.505
  806SOL     OW 3253   1.598   2.328   1.557
  806SOL    HW2 3254   1.681   2.351   1.516
  806SOL    HW3 3255   1.590   2.233   1.543
  806SOL    MW4 3256   1.608   2.318   1.550
  807SOL     OW 3257   1.384   2.482   1.490
  807SOL    HW2 3258   1.375   2.566   1.534
  807SOL    HW3 3259   1.463   2.443   1.529
  807SOL    MW4 3260   1.393   2.488   1.501
  808SOL     OW 3261   1.391   2.732   1.610
  808SOL    HW2 3262   1.455   2.779   1.557
  808SOL    HW3 3263   1.306   2.761   1.576
  808SOL    MW4 3264   1.388   2.742   1.599
  809SOL     OW 3265   1.612   2.864   1.481
  809SOL    HW2 3266   1.688   2.810   1.502
  809SOL    HW3 3267   1.607   2.864   1.386
  809SOL    MW4 3268   1.621   2.857   1.471
  810SOL     OW 3269   1.599   3.115   1.609
  810SOL    HW2 3270   1.657   3.174   1.561
  810SOL    HW3 3271   1.615   3.029   1.570
  810SOL    MW4 3272   1.609   3.111   1.598
  811SOL     OW 3273   1.361   3.207   1.508
  811SOL    HW2 3274   1.371   3.298   1.537
  811SOL    HW3 3275   1.434   3.160   1.548
  811SOL    MW4 3276   1.372   3.213   1.517
  812SOL     OW 3277   1.367   3.468   1.610
  812SOL    HW2 3278   1.359   3.482   1.704
  812SOL    HW3 3279   1.433   3.531   1.582
  812SOL    MW4 3280   1.375   3.478   1.619
  813SOL     OW 3281   1.564   3.628   1.503
  813SOL    HW2 3282   1.571   3.718   1.534
  813SOL    HW3 3283   1.575   3.634   1.408
  813SOL    MW4 3284   1.567   3.640   1.494
  814SOL     OW 3285   1.599   3.890   1.577
  814SOL    HW2 3286   1.580   3.893   1.670
  814SOL    HW3 3287   1.526   3.935   1.535
  814SOL    MW4 3288   1.587   3.896   1.584
  815SOL     OW 3289   1.382   4.018   1.479
  815SOL    HW2 3290   1.380   4.114   1.489
  815SOL    HW3 3291   1.391   4.005   1.384
  815SOL    MW4 3292   1.383   4.029   1.468
  816SOL     OW 3293   1.355   4.279   1.583
  816SOL    HW2 3294   1.432   4.312   1.537
  816SOL    HW3 3295   1.285   4.340   1.560
  816SOL    MW4 3296   1.356   4.291   1.574
  817SOL     OW 3297   1.607   4.392   1.445
  817SOL    HW2 3298   1.679   4.354   1.496
  817SOL    HW3 3299   1.599   4.482   1.477
  817SOL    MW4 3300   1.616   4.399   1.456
  818SOL     OW 3301   2.002   0.025   1.580
  818SOL    HW2 3302   1.990   0.021   1.675
  818SOL    HW3 3303   1.917   0.052   1.546
  818SOL    MW4 3304   1.989   0.028   1.588
  819SOL     OW 3305   1.765   0.111   1.451
  819SOL    HW2 3306   1.675   0.079   1.464
  819SOL    HW3 3307   1.774   0.120   1.356
  819SOL    MW4 3308   1.754   0.108   1.440
  820SOL     OW 3309   1.759   0.369   1.570
  820SOL    HW2 3310   1.849   0.392   1.548
  820SOL    HW3 3311   1.747   0.280   1.536
  820SOL    MW4 3312   1.769   0.360   1.562
  821SOL     OW 3313   2.016   0.476   1.490
  821SOL    HW2 3314   2.105   0.449   1.510
  821SOL    HW3 3315   2.004   0.559   1.537
  821SOL    MW4 3316   2.026   0.483   1.499
  822SOL     OW 3317   2.007   0.744   1.602
  822SOL    HW2 3318   2.086   0.797   1.589
  822SOL    HW3 3319   1.937   0.798   1.566
  822SOL    MW4 3320   2.008   0.759   1.595
  823SOL     OW 3321   1.806   0.906   1.515
  823SOL    HW2 3322   1.789   0.996   1.544
  823SOL    HW3 3323   1.727   0.858   1.540
  823SOL    MW4 3324   1.793   0.912   1.522
  824SOL     OW 3325   1.775   1.165   1.604
  824SOL    HW2 3326   1.851   1.218   1.579
  824SOL    HW3 3327   1.700   1.220   1.581
  824SOL    MW4 3328   1.775   1.179   1.598
  825SOL     OW 3329   2.033   1.247   1.508
  825SOL    HW2 3330   2.034   1.339   1.536
  825SOL    HW3 3331   2.026   1.251   1.413
  825SOL    MW4 3332   2.032   1.260   1.499
  826SOL     OW 3333   2.022   1.519   1.582
  826SOL    HW2 3334   2.097   1.578   1.571
  826SOL    HW3 3335   1.945   1.574   1.566
  826SOL    MW4 3336   2.022   1.534   1.579
  827SOL     OW 3337   1.816   1.707   1.504
  827SOL    HW2 3338   1.750   1.648   1.539
  827SOL    HW3 3339   1.795   1.713   1.411
  827SOL    MW4 3340   1.804   1.700   1.496
  828SOL     OW 3341   1.820   1.973   1.597
  828SOL    HW2 3342   1.808   1.879   1.581
  828SOL    HW3 3343   1.739   2.014   1.567
  828SOL    MW4 3344   1.808   1.966   1.591
  829SOL     OW 3345   2.064   2.057   1.478
  829SOL    HW2 3346   2.139   2.022   1.527
  829SOL    HW3 3347   1.988   2.012   1.515
  829SOL    MW4 3348   2.064   2.047   1.489
  830SOL     OW 3349   2.041   2.319   1.583
  830SOL    HW2 3350   2.043   2.294   1.676
  830SOL    HW3 3351   2.045   2.236   1.536
  830SOL    MW4 3352   2.042   2.305   1.589
  831SOL     OW 3353   1.828   2.480   1.460
  831SOL    HW2 3354   1.908   2.433   1.482
  831SOL    HW3 3355   1.830   2.490   1.365
  831SOL    MW4 3356   1.839   2.475   1.450
  832SOL     OW 3357   1.823   2.729   1.582
  832SOL    HW2 3358   1.902   2.769   1.545
  832SOL    HW3 3359   1.821   2.641   1.546
  832SOL    MW4 3360   1.833   2.723   1.572
  833SOL     OW 3361   2.042   2.841   1.504
  833SOL    HW2 3362   2.037   2.929   1.542
  833SOL    HW3 3363   2.042   2.856   1.410
  833SOL    MW4 3364   2.041   2.855   1.497
  834SOL     OW 3365   1.997   3.112   1.573
  834SOL    HW2 3366   1.997   3.124   1.668
  834SOL    HW3 3367   2.083   3.142   1.544
  834SOL    MW4 3368   2.008   3.117   1.582
  835SOL     OW 3369   1.796   3.273   1.459
  835SOL    HW2 3370   1.805   3.356   1.506
  835SOL    HW3 3371   1.872   3.222   1.486
  835SOL    MW4 3372   1.808   3.278   1.468
  836SOL     OW 3373   1.827   3.517   1.573
  836SOL    HW2 3374   1.816   3.507   1.668
  836SOL    HW3 3375   1.743   3.551   1.543
  836SOL    MW4 3376   1.815   3.520   1.582
  837SOL     OW 3377   2.068   3.583   1.455
  837SOL    HW2 3378   2.131   3.522   1.492
  837SOL    HW3 3379   1.983   3.556   1.491
  837SOL    MW4 3380   2.065   3.572   1.464
  838SOL     OW 3381   2.044   3.836   1.568
  838SOL    HW2 3382   2.112   3.884   1.522
  838SOL    HW3 3383   2.049   3.747   1.533
  838SOL    MW4 3384   2.053   3.831   1.557
  839SOL     OW 3385   1.826   3.990   1.435
  839SOL    HW2 3386   1.885   3.944   1.494
  839SOL    HW3 3387   1.741   3.948   1.449
  839SOL    MW4 3388   1.822   3.978   1.445
  840SOL     OW 3389   1.787   4.229   1.578
  840SOL    HW2 3390   1.861   4.272   1.534
  840SOL    HW3 3391   1.782   4.143   1.536
  840SOL    MW4 3392   1.796   4.224   1.567
  841SOL     OW 3393   1.985   4.409   1.473
  841SOL    HW2 3394   2.061   4.358   1.499
  841SOL    HW3 3395   1.997   4.494   1.516
  841SOL    MW4 3396   1.997   4.413   1.482
  842SOL     OW 3397   2.438   4.641   1.608
  842SOL    HW2 3398   2.423   4.629   1.702
  842SOL    HW3 3399   2.362   4.690   1.578
  842SOL    MW4 3400   2.426   4.646   1.616
  843SOL     OW 3401   2.241   0.130   1.480
  843SOL    HW2 3402   2.165   0.099   1.529
  843SOL    HW3 3403   2.216   0.122   1.388
  843SOL    MW4 3404   2.228   0.125   1.474
  844SOL     OW 3405   2.262   0.389   1.565
  844SOL    HW2 3406   2.235   0.390   1.657
  844SOL    HW3 3407   2.255   0.297   1.539
  844SOL    MW4 3408   2.257   0.377   1.574
  845SOL     OW 3409   2.476   0.496   1.423
  845SOL    HW2 3410   2.553   0.464   1.469
  845SOL    HW3 3411   2.403   0.450   1.464
  845SOL    MW4 3412   2.477   0.486   1.434
  846SOL     OW 3413   2.464   0.727   1.573
  846SOL    HW2 3414   2.383   0.769   1.544
  846SOL    HW3 3415   2.463   0.642   1.529
  846SOL    MW4 3416   2.453   0.721   1.563
  847SOL     OW 3417   2.241   0.867   1.518
  847SOL    HW2 3418   2.251   0.958   1.546
  847SOL    HW3 3419   2.239   0.871   1.422
  847SOL    MW4 3420   2.242   0.879   1.509
  848SOL     OW 3421   2.269   1.126   1.587
  848SOL    HW2 3422   2.259   1.135   1.681
  848SOL    HW3 3423   2.189   1.164   1.551
  848SOL    MW4 3424   2.257   1.132   1.594
  849SOL     OW 3425   2.498   1.276   1.526
  849SOL    HW2 3426   2.416   1.232   1.547
  849SOL    HW3 3427   2.504   1.273   1.431
  849SOL    MW4 3428   2.488   1.270   1.516
  850SOL     OW 3429   2.526   1.539   1.598
  850SOL    HW2 3430   2.606   1.567   1.554
  850SOL    HW3 3431   2.510   1.450   1.565
  850SOL    MW4 3432   2.534   1.531   1.588
  851SOL     OW 3433   2.263   1.648   1.540
  851SOL    HW2 3434   2.348   1.615   1.569
  851SOL    HW3 3435   2.272   1.657   1.445
  851SOL    MW4 3436   2.275   1.645   1.531
  852SOL     OW 3437   2.270   1.903   1.618
  852SOL    HW2 3438   2.265   1.897   1.714
  852SOL    HW3 3439   2.258   1.813   1.588
  852SOL    MW4 3440   2.268   1.890   1.627
  853SOL     OW 3441   2.485   2.047   1.492
  853SOL    HW2 3442   2.407   1.994   1.508
  853SOL    HW3 3443   2.500   2.039   1.398
  853SOL    MW4 3444   2.477   2.039   1.481
  854SOL     OW 3445   2.487   2.314   1.572
  854SOL    HW2 3446   2.489   2.318   1.667
  854SOL    HW3 3447   2.496   2.220   1.552
  854SOL    MW4 3448   2.488   2.302   1.582
  855SOL     OW 3449   2.273   2.479   1.470
  855SOL    HW2 3450   2.346   2.430   1.506
  855SOL    HW3 3451   2.200   2.463   1.530
  855SOL    MW4 3452   2.273   2.471   1.483
  856SOL     OW 3453   2.298   2.718   1.595
  856SOL    HW2 3454   2.309   2.639   1.542
  856SOL    HW3 3455   2.215   2.756   1.564
  856SOL    MW4 3456   2.288   2.713   1.584
  857SOL     OW 3457   2.475   2.853   1.438
  857SOL    HW2 3458   2.484   2.932   1.491
  857SOL    HW3 3459   2.410   2.800   1.483
  857SOL    MW4 3460   2.468   2.857   1.451
  858SOL     OW 3461   2.444   3.068   1.616
  858SOL    HW2 3462   2.527   3.110   1.595
  858SOL    HW3 3463   2.379   3.118   1.567
  858SOL    MW4 3464   2.446   3.080   1.607
  859SOL     OW 3465   2.253   3.172   1.458
  859SOL    HW2 3466   2.258   3.261   1.492
  859SOL    HW3 3467   2.236   3.183   1.364
  859SOL    MW4 3468   2.252   3.185   1.450
  860SOL     OW 3469   2.274   3.424   1.555
  860SOL    HW2 3470   2.280   3.436   1.650
  860SOL    HW3 3471   2.340   3.483   1.519
  860SOL    MW4 3472   2.284   3.434   1.563
  861SOL     OW 3473   2.475   3.604   1.459
  861SOL    HW2 3474   2.553   3.573   1.505
  861SOL    HW3 3475   2.469   3.697   1.483
  861SOL    MW4 3476   2.484   3.612   1.468
  862SOL     OW 3477   2.475   3.858   1.552
  862SOL    HW2 3478   2.455   3.863   1.645
  862SOL    HW3 3479   2.558   3.905   1.543
  862SOL    MW4 3480   2.483   3.865   1.563
  863SOL     OW 3481   2.235   4.001   1.453
  863SOL    HW2 3482   2.314   3.968   1.496
  863SOL    HW3 3483   2.262   4.016   1.362
  863SOL    MW4 3484   2.249   3.999   1.447
  864SOL     OW 3485   2.217   4.272   1.565
  864SOL    HW2 3486   2.298   4.312   1.535
  864SOL    HW3 3487   2.223   4.181   1.536
  864SOL    MW4 3488   2.228   4.265   1.558
  865SOL     OW 3489   2.448   4.389   1.458
  865SOL    HW2 3490   2.431   4.474   1.500
  865SOL    HW3 3491   2.452   4.409   1.365
  865SOL    MW4 3492   2.446   4.403   1.451
  866SOL     OW 3493   2.894   4.654   1.592
  866SOL    HW2 3494   2.879   4.646   1.687
  866SOL    HW3 3495   2.821   4.706   1.560
  866SOL    MW4 3496   2.883   4.660   1.601
  867SOL     OW 3497   2.675   0.118   1.526
  867SOL    HW2 3498   2.687   0.207   1.559
  867SOL    HW3 3499   2.602   0.083   1.576
  867SOL    MW4 3500   2.667   0.125   1.537
  868SOL     OW 3501   2.696   0.396   1.573
  868SOL    HW2 3502   2.683   0.393   1.668
  868SOL    HW3 3503   2.770   0.455   1.561
  868SOL    MW4 3504   2.704   0.403   1.584
  869SOL     OW 3505   2.949   0.507   1.497
  869SOL    HW2 3506   2.954   0.600   1.520
  869SOL    HW3 3507   2.950   0.505   1.402
  869SOL    MW4 3508   2.950   0.519   1.488
  870SOL     OW 3509   2.943   0.788   1.584
  870SOL    HW2 3510   2.930   0.762   1.676
  870SOL    HW3 3511   2.855   0.807   1.552
  870SOL    MW4 3512   2.930   0.787   1.592
  871SOL     OW 3513   2.686   0.878   1.480
  871SOL    HW2 3514   2.623   0.817   1.517
  871SOL    HW3 3515   2.682   0.864   1.386
  871SOL    MW4 3516   2.677   0.868   1.473
  872SOL     OW 3517   2.717   1.125   1.605
  872SOL    HW2 3518   2.699   1.042   1.561
  872SOL    HW3 3519   2.648   1.184   1.573
  872SOL    MW4 3520   2.706   1.122   1.595
  873SOL     OW 3521   2.977   1.260   1.499
  873SOL    HW2 3522   3.056   1.247   1.551
  873SOL    HW3 3523   2.918   1.189   1.527
  873SOL    MW4 3524   2.980   1.249   1.509
  874SOL     OW 3525   2.978   1.522   1.593
  874SOL    HW2 3526   2.909   1.570   1.548
  874SOL    HW3 3527   2.965   1.431   1.566
  874SOL    MW4 3528   2.967   1.517   1.583
  875SOL     OW 3529   2.767   1.655   1.502
  875SOL    HW2 3530   2.758   1.743   1.539
  875SOL    HW3 3531   2.742   1.665   1.410
  875SOL    MW4 3532   2.762   1.668   1.495
  876SOL     OW 3533   2.722   1.928   1.582
  876SOL    HW2 3534   2.706   1.921   1.676
  876SOL    HW3 3535   2.636   1.949   1.545
  876SOL    MW4 3536   2.708   1.929   1.590
  877SOL     OW 3537   2.937   2.078   1.487
  877SOL    HW2 3538   2.931   2.167   1.523
  877SOL    HW3 3539   2.854   2.037   1.512
  877SOL    MW4 3540   2.925   2.085   1.495
  878SOL     OW 3541   2.936   2.338   1.585
  878SOL    HW2 3542   2.912   2.322   1.676
  878SOL    HW3 3543   2.858   2.377   1.546
  878SOL    MW4 3544   2.923   2.341   1.592
  879SOL     OW 3545   2.696   2.467   1.453
  879SOL    HW2 3546   2.705   2.546   1.506
  879SOL    HW3 3547   2.624   2.418   1.494
  879SOL    MW4 3548   2.688   2.471   1.466
  880SOL     OW 3549   2.692   2.725   1.567
  880SOL    HW2 3550   2.767   2.763   1.522
  880SOL    HW3 3551   2.616   2.755   1.518
  880SOL    MW4 3552   2.692   2.734   1.555
  881SOL     OW 3553   2.940   2.822   1.446
  881SOL    HW2 3554   2.994   2.764   1.499
  881SOL    HW3 3555   2.940   2.905   1.494
  881SOL    MW4 3556   2.947   2.826   1.460
  882SOL     OW 3557   2.921   3.070   1.577
  882SOL    HW2 3558   2.903   3.060   1.671
  882SOL    HW3 3559   2.991   3.135   1.573
  882SOL    MW4 3560   2.928   3.077   1.589
  883SOL     OW 3561   2.683   3.185   1.502
  883SOL    HW2 3562   2.774   3.168   1.528
  883SOL    HW3 3563   2.679   3.160   1.410
  883SOL    MW4 3564   2.695   3.179   1.493
  884SOL     OW 3565   2.692   3.460   1.572
  884SOL    HW2 3566   2.688   3.467   1.668
  884SOL    HW3 3567   2.687   3.367   1.554
  884SOL    MW4 3568   2.691   3.449   1.583
  885SOL     OW 3569   2.916   3.600   1.475
  885SOL    HW2 3570   2.837   3.556   1.504
  885SOL    HW3 3571   2.914   3.594   1.380
  885SOL    MW4 3572   2.905   3.594   1.466
  886SOL     OW 3573   2.932   3.831   1.604
  886SOL    HW2 3574   2.861   3.886   1.572
  886SOL    HW3 3575   2.928   3.753   1.549
  886SOL    MW4 3576   2.922   3.828   1.592
  887SOL     OW 3577   2.701   4.008   1.522
  887SOL    HW2 3578   2.701   4.097   1.558
  887SOL    HW3 3579   2.708   4.021   1.427
  887SOL    MW4 3580   2.702   4.021   1.514
  888SOL     OW 3581   2.672   4.289   1.627
  888SOL    HW2 3582   2.744   4.345   1.597
  888SOL    HW3 3583   2.594   4.329   1.587
  888SOL    MW4 3584   2.671   4.302   1.618
  889SOL     OW 3585   2.886   4.415   1.464
  889SOL    HW2 3586   2.896   4.504   1.499
  889SOL    HW3 3587   2.894   4.425   1.369
  889SOL    MW4 3588   2.888   4.428   1.456
  890SOL     OW 3589   3.393   4.639   1.592
  890SOL    HW2 3590   3.473   4.682   1.561
  890SOL    HW3 3591   3.404   4.547   1.569
  890SOL    MW4 3592   3.405   4.632   1.585
  891SOL     OW 3593   3.147   0.061   1.497
  891SOL    HW2 3594   3.223   0.032   1.547
  891SOL    HW3 3595   3.072   0.036   1.551
  891SOL    MW4 3596   3.147   0.054   1.511
  892SOL     OW 3597   3.156   0.318   1.603
  892SOL    HW2 3598   3.154   0.231   1.563
  892SOL    HW3 3599   3.072   0.358   1.579
  892SOL    MW4 3600   3.145   0.312   1.595
  893SOL     OW 3601   3.368   0.499   1.519
  893SOL    HW2 3602   3.313   0.427   1.549
  893SOL    HW3 3603   3.370   0.490   1.424
  893SOL    MW4 3604   3.361   0.488   1.511
  894SOL     OW 3605   3.359   0.800   1.571
  894SOL    HW2 3606   3.372   0.791   1.666
  894SOL    HW3 3607   3.354   0.710   1.539
  894SOL    MW4 3608   3.360   0.787   1.579
  895SOL     OW 3609   3.149   0.930   1.462
  895SOL    HW2 3610   3.229   0.889   1.494
  895SOL    HW3 3611   3.079   0.886   1.510
  895SOL    MW4 3612   3.150   0.919   1.473
  896SOL     OW 3613   3.212   1.163   1.603
  896SOL    HW2 3614   3.201   1.124   1.690
  896SOL    HW3 3615   3.192   1.091   1.542
  896SOL    MW4 3616   3.208   1.148   1.606
  897SOL     OW 3617   3.439   1.287   1.507
  897SOL    HW2 3618   3.514   1.232   1.532
  897SOL    HW3 3619   3.363   1.240   1.540
  897SOL    MW4 3620   3.439   1.274   1.515
  898SOL     OW 3621   3.406   1.530   1.614
  898SOL    HW2 3622   3.401   1.536   1.710
  898SOL    HW3 3623   3.403   1.436   1.596
  898SOL    MW4 3624   3.405   1.518   1.625
  899SOL     OW 3625   3.192   1.691   1.513
  899SOL    HW2 3626   3.272   1.648   1.545
  899SOL    HW3 3627   3.122   1.628   1.531
  899SOL    MW4 3628   3.193   1.677   1.519
  900SOL     OW 3629   3.189   1.965   1.607
  900SOL    HW2 3630   3.199   1.877   1.573
  900SOL    HW3 3631   3.105   1.995   1.572
  900SOL    MW4 3632   3.179   1.958   1.598
  901SOL     OW 3633   3.415   2.047   1.475
  901SOL    HW2 3634   3.330   2.018   1.510
  901SOL    HW3 3635   3.410   2.030   1.381
  901SOL    MW4 3636   3.403   2.041   1.467
  902SOL     OW 3637   3.391   2.302   1.582
  902SOL    HW2 3638   3.458   2.352   1.536
  902SOL    HW3 3639   3.405   2.212   1.553
  902SOL    MW4 3640   3.402   2.297   1.572
  903SOL     OW 3641   3.184   2.433   1.473
  903SOL    HW2 3642   3.258   2.390   1.517
  903SOL    HW3 3643   3.107   2.387   1.505
  903SOL    MW4 3644   3.184   2.421   1.483
  904SOL     OW 3645   3.104   2.667   1.609
  904SOL    HW2 3646   3.175   2.718   1.570
  904SOL    HW3 3647   3.112   2.580   1.570
  904SOL    MW4 3648   3.114   2.662   1.599
  905SOL     OW 3649   3.308   2.814   1.511
  905SOL    HW2 3650   3.327   2.902   1.544
  905SOL    HW3 3651   3.320   2.821   1.416
  905SOL    MW4 3652   3.312   2.827   1.502
  906SOL     OW 3653   3.352   3.093   1.599
  906SOL    HW2 3654   3.371   3.098   1.693
  906SOL    HW3 3655   3.432   3.126   1.557
  906SOL    MW4 3656   3.365   3.098   1.606
  907SOL     OW 3657   3.122   3.244   1.518
  907SOL    HW2 3658   3.206   3.215   1.553
  907SOL    HW3 3659   3.133   3.240   1.423
  907SOL    MW4 3660   3.135   3.240   1.510
  908SOL     OW 3661   3.133   3.496   1.620
  908SOL    HW2 3662   3.140   3.404   1.593
  908SOL    HW3 3663   3.058   3.530   1.571
  908SOL    MW4 3664   3.124   3.488   1.610
  909SOL     OW 3665   3.373   3.629   1.514
  909SOL    HW2 3666   3.454   3.586   1.541
  909SOL    HW3 3667   3.303   3.580   1.557
  909SOL    MW4 3668   3.374   3.617   1.523
  910SOL     OW 3669   3.350   3.880   1.606
  910SOL    HW2 3670   3.269   3.914   1.567
  910SOL    HW3 3671   3.354   3.789   1.577
  910SOL    MW4 3672   3.340   3.872   1.597
  911SOL     OW 3673   3.118   3.983   1.471
  911SOL    HW2 3674   3.118   4.065   1.522
  911SOL    HW3 3675   3.041   3.936   1.503
  911SOL    MW4 3676   3.108   3.988   1.482
  912SOL     OW 3677   3.120   4.245   1.563
  912SOL    HW2 3678   3.127   4.266   1.656
  912SOL    HW3 3679   3.040   4.289   1.534
  912SOL    MW4 3680   3.110   4.254   1.571
  913SOL     OW 3681   3.360   4.365   1.486
  913SOL    HW2 3682   3.285   4.314   1.516
  913SOL    HW3 3683   3.352   4.365   1.390
  913SOL    MW4 3684   3.349   4.358   1.477
  914SOL     OW 3685   3.821   4.628   1.569
  914SOL    HW2 3686   3.822   4.644   1.663
  914SOL    HW3 3687   3.902   4.667   1.537
  914SOL    MW4 3688   3.832   4.635   1.577
  915SOL     OW 3689   3.612   0.103   1.470
  915SOL    HW2 3690   3.692   0.064   1.505
  915SOL    HW3 3691   3.611   0.077   1.378
  915SOL    MW4 3692   3.622   0.094   1.462
  916SOL     OW 3693   3.597   0.371   1.579
  916SOL    HW2 3694   3.585   0.287   1.533
  916SOL    HW3 3695   3.524   0.425   1.549
  916SOL    MW4 3696   3.586   0.367   1.569
  917SOL     OW 3697   3.837   0.504   1.495
  917SOL    HW2 3698   3.759   0.457   1.525
  917SOL    HW3 3699   3.827   0.511   1.400
  917SOL    MW4 3700   3.826   0.499   1.486
  918SOL     OW 3701   3.851   0.762   1.621
  918SOL    HW2 3702   3.771   0.795   1.580
  918SOL    HW3 3703   3.856   0.671   1.593
  918SOL    MW4 3704   3.841   0.755   1.612
  919SOL     OW 3705   3.626   0.855   1.455
  919SOL    HW2 3706   3.534   0.837   1.475
  919SOL    HW3 3707   3.627   0.872   1.361
  919SOL    MW4 3708   3.614   0.855   1.445
  920SOL     OW 3709   3.624   1.109   1.588
  920SOL    HW2 3710   3.698   1.150   1.543
  920SOL    HW3 3711   3.621   1.020   1.552
  920SOL    MW4 3712   3.633   1.102   1.577
  921SOL     OW 3713   3.816   1.241   1.444
  921SOL    HW2 3714   3.896   1.214   1.490
  921SOL    HW3 3715   3.812   1.336   1.456
  921SOL    MW4 3716   3.826   1.250   1.451
  922SOL     OW 3717   3.821   1.497   1.530
  922SOL    HW2 3718   3.824   1.505   1.626
  922SOL    HW3 3719   3.747   1.550   1.504
  922SOL    MW4 3720   3.812   1.505   1.540
  923SOL     OW 3721   3.609   1.682   1.456
  923SOL    HW2 3722   3.549   1.628   1.507
  923SOL    HW3 3723   3.591   1.657   1.365
  923SOL    MW4 3724   3.598   1.672   1.451
  924SOL     OW 3725   3.611   1.917   1.612
  924SOL    HW2 3726   3.607   1.826   1.582
  924SOL    HW3 3727   3.543   1.962   1.562
  924SOL    MW4 3728   3.602   1.911   1.601
  925SOL     OW 3729   3.854   2.057   1.523
  925SOL    HW2 3730   3.826   2.146   1.544
  925SOL    HW3 3731   3.785   2.000   1.557
  925SOL    MW4 3732   3.841   2.061   1.530
  926SOL     OW 3733   3.802   2.308   1.588
  926SOL    HW2 3734   3.821   2.295   1.681
  926SOL    HW3 3735   3.881   2.350   1.553
  926SOL    MW4 3736   3.815   2.312   1.595
  927SOL     OW 3737   3.595   2.438   1.469
  927SOL    HW2 3738   3.593   2.531   1.493
  927SOL    HW3 3739   3.671   2.403   1.516
  927SOL    MW4 3740   3.605   2.446   1.479
  928SOL     OW 3741   3.560   2.704   1.558
  928SOL    HW2 3742   3.569   2.693   1.652
  928SOL    HW3 3743   3.470   2.734   1.545
  928SOL    MW4 3744   3.549   2.706   1.569
  929SOL     OW 3745   3.773   2.868   1.505
  929SOL    HW2 3746   3.847   2.810   1.522
  929SOL    HW3 3747   3.696   2.812   1.514
  929SOL    MW4 3748   3.772   2.853   1.508
  930SOL     OW 3749   3.801   3.124   1.600
  930SOL    HW2 3750   3.882   3.143   1.552
  930SOL    HW3 3751   3.777   3.035   1.572
  930SOL    MW4 3752   3.808   3.115   1.590
  931SOL     OW 3753   3.576   3.210   1.479
  931SOL    HW2 3754   3.657   3.181   1.521
  931SOL    HW3 3755   3.595   3.207   1.385
  931SOL    MW4 3756   3.589   3.206   1.472
  932SOL     OW 3757   3.584   3.465   1.601
  932SOL    HW2 3758   3.656   3.522   1.572
  932SOL    HW3 3759   3.594   3.385   1.549
  932SOL    MW4 3760   3.595   3.462   1.590
  933SOL     OW 3761   3.810   3.593   1.517
  933SOL    HW2 3762   3.879   3.535   1.550
  933SOL    HW3 3763   3.828   3.677   1.559
  933SOL    MW4 3764   3.822   3.596   1.527
  934SOL     OW 3765   3.862   3.867   1.589
  934SOL    HW2 3766   3.930   3.916   1.542
  934SOL    HW3 3767   3.780   3.896   1.550
  934SOL    MW4 3768   3.860   3.877   1.578
  935SOL     OW 3769   3.597   3.951   1.509
  935SOL    HW2 3770   3.589   4.038   1.548
  935SOL    HW3 3771   3.516   3.907   1.533
  935SOL    MW4 3772   3.585   3.957   1.517
  936SOL     OW 3773   3.578   4.208   1.598
  936SOL    HW2 3774   3.579   4.244   1.686
  936SOL    HW3 3775   3.512   4.259   1.551
  936SOL    MW4 3776   3.570   4.219   1.603
  937SOL     OW 3777   3.792   4.345   1.497
  937SOL    HW2 3778   3.719   4.292   1.530
  937SOL    HW3 3779   3.789   4.425   1.550
  937SOL    MW4 3780   3.782   4.349   1.509
  938SOL     OW 3781   4.277   0.026   1.577
  938SOL    HW2 3782   4.274   0.019   1.673
  938SOL    HW3 3783   4.294  -0.063   1.547
  938SOL    MW4 3784   4.279   0.014   1.586
  939SOL     OW 3785   4.035   0.120   1.464
  939SOL    HW2 3786   4.037   0.204   1.511
  939SOL    HW3 3787   4.112   0.074   1.495
  939SOL    MW4 3788   4.045   0.125   1.475
  940SOL     OW 3789   4.049   0.359   1.590
  940SOL    HW2 3790   4.030   0.337   1.682
  940SOL    HW3 3791   3.970   0.401   1.558
  940SOL    MW4 3792   4.036   0.362   1.598
  941SOL     OW 3793   4.228   0.548   1.486
  941SOL    HW2 3794   4.160   0.487   1.516
  941SOL    HW3 3795   4.309   0.515   1.526
  941SOL    MW4 3796   4.230   0.536   1.495
  942SOL     OW 3797   4.257   0.771   1.627
  942SOL    HW2 3798   4.260   0.694   1.571
  942SOL    HW3 3799   4.326   0.828   1.593
  942SOL    MW4 3800   4.267   0.769   1.615
  943SOL     OW 3801   4.055   0.898   1.499
  943SOL    HW2 3802   4.126   0.845   1.533
  943SOL    HW3 3803   3.977   0.865   1.543
  943SOL    MW4 3804   4.054   0.887   1.509
  944SOL     OW 3805   4.063   1.161   1.576
  944SOL    HW2 3806   4.059   1.164   1.672
  944SOL    HW3 3807   4.062   1.068   1.555
  944SOL    MW4 3808   4.062   1.149   1.586
  945SOL     OW 3809   4.270   1.312   1.486
  945SOL    HW2 3810   4.198   1.256   1.517
  945SOL    HW3 3811   4.349   1.271   1.521
  945SOL    MW4 3812   4.271   1.299   1.494
  946SOL     OW 3813   4.267   1.558   1.587
  946SOL    HW2 3814   4.272   1.467   1.557
  946SOL    HW3 3815   4.351   1.597   1.563
  946SOL    MW4 3816   4.278   1.551   1.580
  947SOL     OW 3817   4.038   1.659   1.456
  947SOL    HW2 3818   4.114   1.612   1.490
  947SOL    HW3 3819   3.963   1.607   1.486
  947SOL    MW4 3820   4.038   1.646   1.465
  948SOL     OW 3821   4.063   1.905   1.598
  948SOL    HW2 3822   4.032   1.821   1.566
  948SOL    HW3 3823   4.001   1.969   1.564
  948SOL    MW4 3824   4.051   1.903   1.590
  949SOL     OW 3825   4.294   2.036   1.475
  949SOL    HW2 3826   4.225   1.974   1.497
  949SOL    HW3 3827   4.286   2.048   1.381
  949SOL    MW4 3828   4.284   2.029   1.466
  950SOL     OW 3829   4.281   2.314   1.602
  950SOL    HW2 3830   4.263   2.303   1.695
  950SOL    HW3 3831   4.297   2.225   1.570
  950SOL    MW4 3832   4.280   2.301   1.610
  951SOL     OW 3833   4.035   2.401   1.475
  951SOL    HW2 3834   4.031   2.492   1.506
  951SOL    HW3 3835   4.118   2.368   1.510
  951SOL    MW4 3836   4.046   2.409   1.484
  952SOL     OW 3837   3.983   2.656   1.572
  952SOL    HW2 3838   3.981   2.657   1.668
  952SOL    HW3 3839   4.051   2.720   1.550
  952SOL    MW4 3840   3.992   2.665   1.582
  953SOL     OW 3841   4.207   2.828   1.520
  953SOL    HW2 3842   4.229   2.919   1.541
  953SOL    HW3 3843   4.224   2.820   1.426
  953SOL    MW4 3844   4.212   2.839   1.510
  954SOL     OW 3845   4.262   3.090   1.577
  954SOL    HW2 3846   4.258   3.100   1.672
  954SOL    HW3 3847   4.347   3.126   1.552
  954SOL    MW4 3848   4.273   3.096   1.586
  955SOL     OW 3849   4.032   3.225   1.485
  955SOL    HW2 3850   4.046   3.318   1.501
  955SOL    HW3 3851   4.108   3.182   1.526
  955SOL    MW4 3852   4.044   3.231   1.493
  956SOL     OW 3853   4.043   3.475   1.609
  956SOL    HW2 3854   4.044   3.487   1.704
  956SOL    HW3 3855   4.100   3.544   1.576
  956SOL    MW4 3856   4.050   3.486   1.618
  957SOL     OW 3857   4.244   3.631   1.508
  957SOL    HW2 3858   4.274   3.717   1.537
  957SOL    HW3 3859   4.240   3.637   1.413
  957SOL    MW4 3860   4.247   3.643   1.499
  958SOL     OW 3861   4.322   3.875   1.594
  958SOL    HW2 3862   4.243   3.920   1.564
  958SOL    HW3 3863   4.393   3.917   1.545
  958SOL    MW4 3864   4.321   3.887   1.583
  959SOL     OW 3865   4.071   4.004   1.477
  959SOL    HW2 3866   4.065   4.097   1.501
  959SOL    HW3 3867   4.075   4.005   1.381
  959SOL    MW4 3868   4.071   4.017   1.467
  960SOL     OW 3869   4.037   4.277   1.581
  960SOL    HW2 3870   4.063   4.283   1.673
  960SOL    HW3 3871   3.944   4.296   1.581
  960SOL    MW4 3872   4.028   4.280   1.593
  961SOL     OW 3873   4.241   4.427   1.480
  961SOL    HW2 3874   4.157   4.387   1.503
  961SOL    HW3 3875   4.246   4.419   1.385
  961SOL    MW4 3876   4.230   4.421   1.471
  962SOL     OW 3877   0.213   0.047   1.898
  962SOL    HW2 3878   0.293   0.094   1.920
  962SOL    HW3 3879   0.215   0.040   1.803
  962SOL    MW4 3880   0.224   0.052   1.888
  963SOL     OW 3881   4.462   0.145   1.987
  963SOL    HW2 3882   4.452   0.233   1.949
  963SOL    HW3 3883   4.542   0.111   1.946
  963SOL    MW4 3884   4.471   0.153   1.976
  964SOL     OW 3885   4.482   0.387   1.851
  964SOL    HW2 3886   4.401   0.430   1.880
  964SOL    HW3 3887   4.552   0.446   1.880
  964SOL    MW4 3888   4.480   0.400   1.859
  965SOL     OW 3889   0.208   0.534   1.932
  965SOL    HW2 3890   0.290   0.498   1.899
  965SOL    HW3 3891   0.207   0.624   1.899
  965SOL    MW4 3892   0.218   0.541   1.923
  966SOL     OW 3893   0.192   0.797   1.838
  966SOL    HW2 3894   0.276   0.814   1.881
  966SOL    HW3 3895   0.210   0.808   1.744
  966SOL    MW4 3896   0.206   0.800   1.831
  967SOL     OW 3897   4.490   0.945   1.967
  967SOL    HW2 3898   4.408   0.908   1.934
  967SOL    HW3 3899   4.559   0.891   1.929
  967SOL    MW4 3900   4.488   0.933   1.958
  968SOL     OW 3901   0.026   1.190   1.855
  968SOL    HW2 3902  -0.047   1.238   1.896
  968SOL    HW3 3903   0.025   1.105   1.900
  968SOL    MW4 3904   0.016   1.185   1.867
  969SOL     OW 3905   0.240   1.282   1.960
  969SOL    HW2 3906   0.255   1.369   1.922
  969SOL    HW3 3907   0.163   1.249   1.915
  969SOL    MW4 3908   0.232   1.289   1.949
  970SOL     OW 3909   0.283   1.548   1.864
  970SOL    HW2 3910   0.354   1.610   1.881
  970SOL    HW3 3911   0.205   1.592   1.899
  970SOL    MW4 3912   0.282   1.562   1.871
  971SOL     OW 3913   0.050   1.656   1.976
  971SOL    HW2 3914   0.041   1.670   2.070
  971SOL    HW3 3915  -0.037   1.627   1.947
  971SOL    MW4 3916   0.037   1.654   1.984
  972SOL     OW 3917   0.044   1.936   1.857
  972SOL    HW2 3918  -0.035   1.951   1.909
  972SOL    HW3 3919   0.074   1.850   1.884
  972SOL    MW4 3920   0.037   1.927   1.868
  973SOL     OW 3921   0.255   2.065   2.026
  973SOL    HW2 3922   0.255   2.153   1.990
  973SOL    HW3 3923   0.176   2.024   1.991
  973SOL    MW4 3924   0.245   2.071   2.017
  974SOL     OW 3925   0.192   2.296   1.854
  974SOL    HW2 3926   0.264   2.355   1.877
  974SOL    HW3 3927   0.118   2.328   1.904
  974SOL    MW4 3928   0.192   2.308   1.863
  975SOL     OW 3929   0.002   2.432   1.992
  975SOL    HW2 3930   0.022   2.449   2.084
  975SOL    HW3 3931  -0.011   2.519   1.954
  975SOL    MW4 3932   0.003   2.446   1.999
  976SOL     OW 3933   4.488   2.701   1.893
  976SOL    HW2 3934   4.408   2.747   1.919
  976SOL    HW3 3935   4.492   2.713   1.798
  976SOL    MW4 3936   4.478   2.709   1.884
  977SOL     OW 3937   0.198   2.877   1.992
  977SOL    HW2 3938   0.180   2.961   1.950
  977SOL    HW3 3939   0.123   2.822   1.969
  977SOL    MW4 3940   0.186   2.881   1.984
  978SOL     OW 3941   0.192   3.114   1.864
  978SOL    HW2 3942   0.276   3.145   1.897
  978SOL    HW3 3943   0.210   3.092   1.773
  978SOL    MW4 3944   0.206   3.115   1.856
  979SOL     OW 3945   4.467   3.252   1.980
  979SOL    HW2 3946   4.401   3.204   1.931
  979SOL    HW3 3947   4.550   3.208   1.959
  979SOL    MW4 3948   4.470   3.240   1.971
  980SOL     OW 3949   4.460   3.507   1.844
  980SOL    HW2 3950   4.533   3.553   1.887
  980SOL    HW3 3951   4.467   3.417   1.875
  980SOL    MW4 3952   4.471   3.501   1.854
  981SOL     OW 3953   0.171   3.615   1.983
  981SOL    HW2 3954   0.166   3.599   2.078
  981SOL    HW3 3955   0.255   3.578   1.957
  981SOL    MW4 3956   0.181   3.608   1.992
  982SOL     OW 3957   0.224   3.897   1.882
  982SOL    HW2 3958   0.302   3.936   1.920
  982SOL    HW3 3959   0.226   3.806   1.911
  982SOL    MW4 3960   0.234   3.890   1.891
  983SOL     OW 3961   4.488   4.022   1.961
  983SOL    HW2 3962   4.495   4.107   1.918
  983SOL    HW3 3963   4.565   3.973   1.930
  983SOL    MW4 3964   4.500   4.027   1.951
  984SOL     OW 3965   0.001   4.283   1.844
  984SOL    HW2 3966  -0.051   4.343   1.899
  984SOL    HW3 3967   0.092   4.312   1.856
  984SOL    MW4 3968   0.006   4.295   1.853
  985SOL     OW 3969   0.243   4.414   1.941
  985SOL    HW2 3970   0.196   4.416   2.024
  985SOL    HW3 3971   0.250   4.506   1.915
  985SOL    MW4 3972   0.237   4.427   1.948
  986SOL     OW 3973   0.662   4.667   1.901
  986SOL    HW2 3974   0.656   4.577   1.933
  986SOL    HW3 3975   0.666   4.658   1.806
  986SOL    MW4 3976   0.662   4.654   1.893
  987SOL     OW 3977   0.457   0.163   1.990
  987SOL    HW2 3978   0.456   0.254   1.964
  987SOL    HW3 3979   0.533   0.125   1.945
  987SOL    MW4 3980   0.467   0.170   1.981
  988SOL     OW 3981   0.478   0.411   1.856
  988SOL    HW2 3982   0.558   0.462   1.868
  988SOL    HW3 3983   0.462   0.414   1.762
  988SOL    MW4 3984   0.486   0.418   1.845
  989SOL     OW 3985   0.697   0.556   1.956
  989SOL    HW2 3986   0.696   0.540   2.050
  989SOL    HW3 3987   0.772   0.505   1.923
  989SOL    MW4 3988   0.707   0.547   1.964
  990SOL     OW 3989   0.695   0.802   1.854
  990SOL    HW2 3990   0.768   0.846   1.898
  990SOL    HW3 3991   0.685   0.719   1.901
  990SOL    MW4 3992   0.703   0.797   1.866
  991SOL     OW 3993   0.436   0.863   1.956
  991SOL    HW2 3994   0.438   0.958   1.941
  991SOL    HW3 3995   0.517   0.831   1.915
  991SOL    MW4 3996   0.447   0.871   1.948
  992SOL     OW 3997   0.456   1.133   1.856
  992SOL    HW2 3998   0.375   1.179   1.879
  992SOL    HW3 3999   0.456   1.130   1.760
  992SOL    MW4 4000   0.446   1.139   1.847
  993SOL     OW 4001   0.651   1.296   1.969
  993SOL    HW2 4002   0.649   1.306   2.064
  993SOL    HW3 4003   0.580   1.235   1.949
  993SOL    MW4 4004   0.642   1.289   1.979
  994SOL     OW 4005   0.707   1.553   1.862
  994SOL    HW2 4006   0.706   1.462   1.890
  994SOL    HW3 4007   0.698   1.550   1.767
  994SOL    MW4 4008   0.706   1.541   1.853
  995SOL     OW 4009   0.491   1.704   1.952
  995SOL    HW2 4010   0.496   1.712   2.047
  995SOL    HW3 4011   0.564   1.646   1.929
  995SOL    MW4 4012   0.501   1.697   1.961
  996SOL     OW 4013   0.469   1.973   1.880
  996SOL    HW2 4014   0.475   1.881   1.905
  996SOL    HW3 4015   0.387   2.004   1.919
  996SOL    MW4 4016   0.459   1.965   1.888
  997SOL     OW 4017   0.671   2.093   2.001
  997SOL    HW2 4018   0.670   2.064   2.092
  997SOL    HW3 4019   0.588   2.062   1.965
  997SOL    MW4 4020   0.660   2.085   2.008
  998SOL     OW 4021   0.683   2.354   1.880
  998SOL    HW2 4022   0.690   2.263   1.910
  998SOL    HW3 4023   0.695   2.349   1.785
  998SOL    MW4 4024   0.686   2.341   1.871
  999SOL     OW 4025   0.419   2.411   1.970
  999SOL    HW2 4026   0.418   2.413   2.065
  999SOL    HW3 4027   0.506   2.378   1.947
  999SOL    MW4 4028   0.431   2.407   1.979
 1000SOL     OW 4029   0.425   2.699   1.885
 1000SOL    HW2 4030   0.411   2.609   1.914
 1000SOL    HW3 4031   0.362   2.750   1.935
 1000SOL    MW4 4032   0.415   2.694   1.895
 1001SOL     OW 4033   0.682   2.795   1.948
 1001SOL    HW2 4034   0.680   2.829   2.037
 1001SOL    HW3 4035   0.595   2.758   1.934
 1001SOL    MW4 4036   0.670   2.794   1.958
 1002SOL     OW 4037   0.699   3.070   1.870
 1002SOL    HW2 4038   0.678   2.981   1.899
 1002SOL    HW3 4039   0.692   3.066   1.775
 1002SOL    MW4 4040   0.695   3.058   1.861
 1003SOL     OW 4041   0.443   3.224   1.944
 1003SOL    HW2 4042   0.432   3.316   1.922
 1003SOL    HW3 4043   0.526   3.199   1.905
 1003SOL    MW4 4044   0.452   3.233   1.936
 1004SOL     OW 4045   0.399   3.493   1.885
 1004SOL    HW2 4046   0.464   3.550   1.927
 1004SOL    HW3 4047   0.417   3.502   1.792
 1004SOL    MW4 4048   0.410   3.502   1.879
 1005SOL     OW 4049   0.614   3.632   1.976
 1005SOL    HW2 4050   0.689   3.586   1.939
 1005SOL    HW3 4051   0.617   3.719   1.937
 1005SOL    MW4 4052   0.624   3.637   1.966
 1006SOL     OW 4053   0.628   3.865   1.848
 1006SOL    HW2 4054   0.709   3.910   1.872
 1006SOL    HW3 4055   0.614   3.888   1.756
 1006SOL    MW4 4056   0.637   3.874   1.839
 1007SOL     OW 4057   0.447   4.013   1.976
 1007SOL    HW2 4058   0.441   4.097   1.931
 1007SOL    HW3 4059   0.514   3.964   1.928
 1007SOL    MW4 4060   0.455   4.018   1.964
 1008SOL     OW 4061   0.445   4.262   1.846
 1008SOL    HW2 4062   0.377   4.309   1.895
 1008SOL    HW3 4063   0.427   4.282   1.754
 1008SOL    MW4 4064   0.434   4.271   1.840
 1009SOL     OW 4065   0.655   4.395   1.977
 1009SOL    HW2 4066   0.735   4.347   1.956
 1009SOL    HW3 4067   0.588   4.355   1.921
 1009SOL    MW4 4068   0.657   4.383   1.967
 1010SOL     OW 4069   1.131   0.003   1.859
 1010SOL    HW2 4070   1.188   0.059   1.911
 1010SOL    HW3 4071   1.126  -0.079   1.909
 1010SOL    MW4 4072   1.138  -0.001   1.872
 1011SOL     OW 4073   0.901   0.132   1.983
 1011SOL    HW2 4074   0.964   0.083   1.930
 1011SOL    HW3 4075   0.815   0.102   1.953
 1011SOL    MW4 4076   0.898   0.121   1.972
 1012SOL     OW 4077   0.911   0.383   1.871
 1012SOL    HW2 4078   0.996   0.421   1.893
 1012SOL    HW3 4079   0.904   0.306   1.928
 1012SOL    MW4 4080   0.922   0.378   1.881
 1013SOL     OW 4081   1.140   0.523   1.954
 1013SOL    HW2 4082   1.209   0.484   1.900
 1013SOL    HW3 4083   1.133   0.613   1.921
 1013SOL    MW4 4084   1.148   0.530   1.943
 1014SOL     OW 4085   1.137   0.781   1.844
 1014SOL    HW2 4086   1.214   0.825   1.880
 1014SOL    HW3 4087   1.062   0.830   1.880
 1014SOL    MW4 4088   1.137   0.793   1.854
 1015SOL     OW 4089   0.933   0.928   1.953
 1015SOL    HW2 4090   0.934   0.927   2.049
 1015SOL    HW3 4091   0.927   1.020   1.931
 1015SOL    MW4 4092   0.933   0.940   1.963
 1016SOL     OW 4093   0.880   1.194   1.875
 1016SOL    HW2 4094   0.799   1.221   1.918
 1016SOL    HW3 4095   0.862   1.206   1.782
 1016SOL    MW4 4096   0.867   1.199   1.869
 1017SOL     OW 4097   1.107   1.317   1.981
 1017SOL    HW2 4098   1.130   1.398   1.935
 1017SOL    HW3 4099   1.024   1.290   1.942
 1017SOL    MW4 4100   1.099   1.324   1.970
 1018SOL     OW 4101   1.110   1.583   1.863
 1018SOL    HW2 4102   1.034   1.625   1.903
 1018SOL    HW3 4103   1.085   1.567   1.772
 1018SOL    MW4 4104   1.097   1.587   1.856
 1019SOL     OW 4105   0.909   1.709   1.978
 1019SOL    HW2 4106   0.906   1.797   1.940
 1019SOL    HW3 4107   0.833   1.665   1.941
 1019SOL    MW4 4108   0.899   1.715   1.968
 1020SOL     OW 4109   0.906   1.967   1.882
 1020SOL    HW2 4110   0.830   2.013   1.916
 1020SOL    HW3 4111   0.900   1.976   1.787
 1020SOL    MW4 4112   0.895   1.974   1.874
 1021SOL     OW 4113   1.158   2.044   1.930
 1021SOL    HW2 4114   1.152   2.140   1.924
 1021SOL    HW3 4115   1.075   2.012   1.895
 1021SOL    MW4 4116   1.146   2.053   1.925
 1022SOL     OW 4117   1.126   2.314   1.881
 1022SOL    HW2 4118   1.202   2.350   1.927
 1022SOL    HW3 4119   1.146   2.327   1.788
 1022SOL    MW4 4120   1.139   2.320   1.875
 1023SOL     OW 4121   0.910   2.426   1.996
 1023SOL    HW2 4122   0.985   2.394   1.947
 1023SOL    HW3 4123   0.834   2.404   1.942
 1023SOL    MW4 4124   0.910   2.419   1.983
 1024SOL     OW 4125   0.931   2.691   1.903
 1024SOL    HW2 4126   0.947   2.607   1.947
 1024SOL    HW3 4127   0.839   2.711   1.922
 1024SOL    MW4 4128   0.921   2.682   1.911
 1025SOL     OW 4129   1.152   2.911   1.936
 1025SOL    HW2 4130   1.153   2.913   2.032
 1025SOL    HW3 4131   1.095   2.837   1.914
 1025SOL    MW4 4132   1.144   2.902   1.946
 1026SOL     OW 4133   1.139   3.181   1.828
 1026SOL    HW2 4134   1.058   3.199   1.876
 1026SOL    HW3 4135   1.151   3.086   1.837
 1026SOL    MW4 4136   1.130   3.171   1.835
 1027SOL     OW 4137   0.902   3.242   1.945
 1027SOL    HW2 4138   0.893   3.247   2.040
 1027SOL    HW3 4139   0.831   3.185   1.916
 1027SOL    MW4 4140   0.892   3.235   1.953
 1028SOL     OW 4141   0.853   3.515   1.875
 1028SOL    HW2 4142   0.873   3.422   1.887
 1028SOL    HW3 4143   0.878   3.533   1.785
 1028SOL    MW4 4144   0.859   3.505   1.865
 1029SOL     OW 4145   1.116   3.620   1.950
 1029SOL    HW2 4146   1.115   3.618   2.045
 1029SOL    HW3 4147   1.034   3.579   1.923
 1029SOL    MW4 4148   1.105   3.615   1.959
 1030SOL     OW 4149   1.102   3.893   1.880
 1030SOL    HW2 4150   1.112   3.806   1.918
 1030SOL    HW3 4151   1.105   3.879   1.786
 1030SOL    MW4 4152   1.104   3.880   1.873
 1031SOL     OW 4153   0.871   4.007   1.955
 1031SOL    HW2 4154   0.876   4.016   2.050
 1031SOL    HW3 4155   0.960   3.983   1.928
 1031SOL    MW4 4156   0.883   4.005   1.964
 1032SOL     OW 4157   0.884   4.283   1.875
 1032SOL    HW2 4158   0.943   4.328   1.935
 1032SOL    HW3 4159   0.873   4.196   1.912
 1032SOL    MW4 4160   0.890   4.277   1.888
 1033SOL     OW 4161   1.098   4.407   1.990
 1033SOL    HW2 4162   1.114   4.398   2.084
 1033SOL    HW3 4163   1.174   4.365   1.950
 1033SOL    MW4 4164   1.110   4.400   1.997
 1034SOL     OW 4165   1.551   4.659   1.850
 1034SOL    HW2 4166   1.629   4.710   1.869
 1034SOL    HW3 4167   1.567   4.575   1.893
 1034SOL    MW4 4168   1.563   4.654   1.858
 1035SOL     OW 4169   1.327   0.137   1.973
 1035SOL    HW2 4170   1.331   0.117   2.067
 1035SOL    HW3 4171   1.403   0.091   1.936
 1035SOL    MW4 4172   1.338   0.129   1.981
 1036SOL     OW 4173   1.336   0.387   1.802
 1036SOL    HW2 4174   1.332   0.298   1.837
 1036SOL    HW3 4175   1.328   0.375   1.707
 1036SOL    MW4 4176   1.334   0.373   1.794
 1037SOL     OW 4177   1.546   0.510   1.969
 1037SOL    HW2 4178   1.627   0.478   1.928
 1037SOL    HW3 4179   1.476   0.475   1.913
 1037SOL    MW4 4180   1.547   0.501   1.956
 1038SOL     OW 4181   1.561   0.773   1.859
 1038SOL    HW2 4182   1.625   0.822   1.910
 1038SOL    HW3 4183   1.561   0.685   1.898
 1038SOL    MW4 4184   1.569   0.768   1.871
 1039SOL     OW 4185   1.360   0.937   1.943
 1039SOL    HW2 4186   1.373   0.947   2.038
 1039SOL    HW3 4187   1.427   0.874   1.916
 1039SOL    MW4 4188   1.370   0.930   1.952
 1040SOL     OW 4189   1.298   1.172   1.839
 1040SOL    HW2 4190   1.306   1.081   1.869
 1040SOL    HW3 4191   1.227   1.208   1.892
 1040SOL    MW4 4192   1.290   1.165   1.850
 1041SOL     OW 4193   1.517   1.290   1.960
 1041SOL    HW2 4194   1.523   1.376   1.920
 1041SOL    HW3 4195   1.435   1.253   1.927
 1041SOL    MW4 4196   1.507   1.296   1.951
 1042SOL     OW 4197   1.578   1.539   1.843
 1042SOL    HW2 4198   1.650   1.568   1.899
 1042SOL    HW3 4199   1.501   1.582   1.880
 1042SOL    MW4 4200   1.577   1.549   1.856
 1043SOL     OW 4201   1.360   1.684   1.960
 1043SOL    HW2 4202   1.360   1.680   2.056
 1043SOL    HW3 4203   1.274   1.653   1.935
 1043SOL    MW4 4204   1.349   1.680   1.970
 1044SOL     OW 4205   1.399   1.941   1.867
 1044SOL    HW2 4206   1.397   1.857   1.912
 1044SOL    HW3 4207   1.309   1.974   1.874
 1044SOL    MW4 4208   1.387   1.934   1.874
 1045SOL     OW 4209   1.618   2.079   1.967
 1045SOL    HW2 4210   1.627   2.167   1.931
 1045SOL    HW3 4211   1.532   2.049   1.937
 1045SOL    MW4 4212   1.608   2.087   1.958
 1046SOL     OW 4213   1.619   2.328   1.855
 1046SOL    HW2 4214   1.701   2.378   1.855
 1046SOL    HW3 4215   1.596   2.319   1.763
 1046SOL    MW4 4216   1.627   2.334   1.843
 1047SOL     OW 4217   1.365   2.437   1.955
 1047SOL    HW2 4218   1.376   2.530   1.932
 1047SOL    HW3 4219   1.450   2.398   1.936
 1047SOL    MW4 4220   1.378   2.444   1.950
 1048SOL     OW 4221   1.374   2.711   1.906
 1048SOL    HW2 4222   1.310   2.773   1.941
 1048SOL    HW3 4223   1.382   2.734   1.814
 1048SOL    MW4 4224   1.366   2.722   1.898
 1049SOL     OW 4225   1.604   2.880   1.958
 1049SOL    HW2 4226   1.681   2.838   1.920
 1049SOL    HW3 4227   1.535   2.814   1.948
 1049SOL    MW4 4228   1.605   2.865   1.951
 1050SOL     OW 4229   1.576   3.151   1.885
 1050SOL    HW2 4230   1.591   3.063   1.918
 1050SOL    HW3 4231   1.598   3.146   1.792
 1050SOL    MW4 4232   1.581   3.139   1.877
 1051SOL     OW 4233   1.344   3.219   2.010
 1051SOL    HW2 4234   1.422   3.190   1.963
 1051SOL    HW3 4235   1.273   3.209   1.947
 1051SOL    MW4 4236   1.345   3.214   1.996
 1052SOL     OW 4237   1.340   3.474   1.885
 1052SOL    HW2 4238   1.333   3.393   1.936
 1052SOL    HW3 4239   1.260   3.522   1.906
 1052SOL    MW4 4240   1.328   3.469   1.895
 1053SOL     OW 4241   1.569   3.604   1.957
 1053SOL    HW2 4242   1.596   3.590   2.047
 1053SOL    HW3 4243   1.487   3.554   1.949
 1053SOL    MW4 4244   1.562   3.595   1.968
 1054SOL     OW 4245   1.541   3.880   1.836
 1054SOL    HW2 4246   1.619   3.920   1.874
 1054SOL    HW3 4247   1.543   3.789   1.866
 1054SOL    MW4 4248   1.551   3.873   1.845
 1055SOL     OW 4249   1.334   4.038   1.955
 1055SOL    HW2 4250   1.401   3.987   1.909
 1055SOL    HW3 4251   1.253   3.989   1.941
 1055SOL    MW4 4252   1.332   4.025   1.947
 1056SOL     OW 4253   1.332   4.316   1.880
 1056SOL    HW2 4254   1.328   4.222   1.898
 1056SOL    HW3 4255   1.354   4.322   1.787
 1056SOL    MW4 4256   1.334   4.305   1.870
 1057SOL     OW 4257   1.571   4.411   1.978
 1057SOL    HW2 4258   1.584   4.400   2.073
 1057SOL    HW3 4259   1.487   4.369   1.961
 1057SOL    MW4 4260   1.561   4.404   1.989
 1058SOL     OW 4261   2.018   4.664   1.855
 1058SOL    HW2 4262   2.091   4.706   1.901
 1058SOL    HW3 4263   2.015   4.575   1.891
 1058SOL    MW4 4264   2.027   4.658   1.866
 1059SOL     OW 4265   1.798   0.143   1.941
 1059SOL    HW2 4266   1.801   0.144   2.037
 1059SOL    HW3 4267   1.862   0.075   1.917
 1059SOL    MW4 4268   1.807   0.134   1.951
 1060SOL     OW 4269   1.770   0.414   1.855
 1060SOL    HW2 4270   1.776   0.325   1.891
 1060SOL    HW3 4271   1.767   0.402   1.760
 1060SOL    MW4 4272   1.770   0.400   1.847
 1061SOL     OW 4273   1.999   0.502   1.989
 1061SOL    HW2 4274   2.019   0.594   1.971
 1061SOL    HW3 4275   1.929   0.480   1.927
 1061SOL    MW4 4276   1.992   0.511   1.978
 1062SOL     OW 4277   1.991   0.760   1.881
 1062SOL    HW2 4278   2.070   0.810   1.903
 1062SOL    HW3 4279   1.998   0.745   1.787
 1062SOL    MW4 4280   2.003   0.764   1.872
 1063SOL     OW 4281   1.774   0.906   1.999
 1063SOL    HW2 4282   1.775   0.994   1.962
 1063SOL    HW3 4283   1.849   0.862   1.959
 1063SOL    MW4 4284   1.784   0.912   1.989
 1064SOL     OW 4285   1.773   1.165   1.881
 1064SOL    HW2 4286   1.683   1.186   1.906
 1064SOL    HW3 4287   1.774   1.173   1.785
 1064SOL    MW4 4288   1.761   1.169   1.872
 1065SOL     OW 4289   2.011   1.275   1.970
 1065SOL    HW2 4290   2.084   1.215   1.952
 1065SOL    HW3 4291   1.934   1.226   1.943
 1065SOL    MW4 4292   2.011   1.260   1.964
 1066SOL     OW 4293   2.042   1.540   1.878
 1066SOL    HW2 4294   2.033   1.451   1.912
 1066SOL    HW3 4295   2.028   1.531   1.784
 1066SOL    MW4 4296   2.039   1.527   1.870
 1067SOL     OW 4297   1.791   1.672   1.978
 1067SOL    HW2 4298   1.800   1.763   1.949
 1067SOL    HW3 4299   1.867   1.627   1.940
 1067SOL    MW4 4300   1.802   1.678   1.969
 1068SOL     OW 4301   1.837   1.926   1.899
 1068SOL    HW2 4302   1.762   1.985   1.912
 1068SOL    HW3 4303   1.850   1.925   1.804
 1068SOL    MW4 4304   1.829   1.934   1.888
 1069SOL     OW 4305   2.042   2.044   2.027
 1069SOL    HW2 4306   2.124   2.004   1.999
 1069SOL    HW3 4307   1.975   2.000   1.976
 1069SOL    MW4 4308   2.044   2.033   2.016
 1070SOL     OW 4309   2.062   2.282   1.872
 1070SOL    HW2 4310   2.131   2.314   1.931
 1070SOL    HW3 4311   2.035   2.198   1.910
 1070SOL    MW4 4312   2.068   2.275   1.885
 1071SOL     OW 4313   1.844   2.457   1.936
 1071SOL    HW2 4314   1.840   2.442   2.030
 1071SOL    HW3 4315   1.925   2.414   1.908
 1071SOL    MW4 4316   1.854   2.449   1.945
 1072SOL     OW 4317   1.832   2.735   1.880
 1072SOL    HW2 4318   1.829   2.642   1.902
 1072SOL    HW3 4319   1.833   2.738   1.784
 1072SOL    MW4 4320   1.832   2.723   1.870
 1073SOL     OW 4321   2.086   2.843   1.943
 1073SOL    HW2 4322   2.073   2.854   2.038
 1073SOL    HW3 4323   2.003   2.805   1.913
 1073SOL    MW4 4324   2.073   2.839   1.952
 1074SOL     OW 4325   2.035   3.102   1.851
 1074SOL    HW2 4326   1.970   3.138   1.911
 1074SOL    HW3 4327   2.042   3.010   1.876
 1074SOL    MW4 4328   2.028   3.094   1.862
 1075SOL     OW 4329   1.834   3.241   1.959
 1075SOL    HW2 4330   1.848   3.237   2.054
 1075SOL    HW3 4331   1.746   3.205   1.947
 1075SOL    MW4 4332   1.824   3.236   1.970
 1076SOL     OW 4333   1.798   3.490   1.850
 1076SOL    HW2 4334   1.807   3.406   1.896
 1076SOL    HW3 4335   1.717   3.528   1.884
 1076SOL    MW4 4336   1.788   3.484   1.861
 1077SOL     OW 4337   2.035   3.606   1.937
 1077SOL    HW2 4338   2.019   3.700   1.922
 1077SOL    HW3 4339   1.961   3.562   1.896
 1077SOL    MW4 4340   2.023   3.613   1.930
 1078SOL     OW 4341   2.004   3.849   1.856
 1078SOL    HW2 4342   2.074   3.910   1.881
 1078SOL    HW3 4343   2.012   3.840   1.761
 1078SOL    MW4 4344   2.014   3.856   1.847
 1079SOL     OW 4345   1.778   3.985   1.958
 1079SOL    HW2 4346   1.782   4.079   1.946
 1079SOL    HW3 4347   1.852   3.952   1.907
 1079SOL    MW4 4348   1.788   3.993   1.949
 1080SOL     OW 4349   1.792   4.254   1.891
 1080SOL    HW2 4350   1.709   4.296   1.911
 1080SOL    HW3 4351   1.798   4.255   1.795
 1080SOL    MW4 4352   1.782   4.260   1.881
 1081SOL     OW 4353   1.999   4.414   1.978
 1081SOL    HW2 4354   2.065   4.369   1.925
 1081SOL    HW3 4355   1.916   4.375   1.951
 1081SOL    MW4 4356   1.997   4.403   1.967
 1082SOL     OW 4357   2.438   4.620   1.889
 1082SOL    HW2 4358   2.514   4.667   1.924
 1082SOL    HW3 4359   2.437   4.537   1.936
 1082SOL    MW4 4360   2.448   4.616   1.900
 1083SOL     OW 4361   2.242   0.153   1.971
 1083SOL    HW2 4362   2.250   0.155   2.066
 1083SOL    HW3 4363   2.306   0.087   1.943
 1083SOL    MW4 4364   2.252   0.145   1.980
 1084SOL     OW 4365   2.209   0.381   1.832
 1084SOL    HW2 4366   2.208   0.290   1.863
 1084SOL    HW3 4367   2.160   0.429   1.899
 1084SOL    MW4 4368   2.202   0.375   1.845
 1085SOL     OW 4369   2.468   0.489   1.924
 1085SOL    HW2 4370   2.533   0.428   1.888
 1085SOL    HW3 4371   2.385   0.459   1.887
 1085SOL    MW4 4372   2.466   0.477   1.914
 1086SOL     OW 4373   2.448   0.763   1.855
 1086SOL    HW2 4374   2.455   0.674   1.887
 1086SOL    HW3 4375   2.468   0.757   1.761
 1086SOL    MW4 4376   2.452   0.751   1.847
 1087SOL     OW 4377   2.218   0.893   1.940
 1087SOL    HW2 4378   2.223   0.892   2.035
 1087SOL    HW3 4379   2.293   0.841   1.911
 1087SOL    MW4 4380   2.228   0.886   1.948
 1088SOL     OW 4381   2.249   1.148   1.860
 1088SOL    HW2 4382   2.337   1.181   1.878
 1088SOL    HW3 4383   2.249   1.060   1.898
 1088SOL    MW4 4384   2.261   1.140   1.868
 1089SOL     OW 4385   2.487   1.242   1.980
 1089SOL    HW2 4386   2.474   1.240   2.075
 1089SOL    HW3 4387   2.496   1.335   1.959
 1089SOL    MW4 4388   2.487   1.254   1.990
 1090SOL     OW 4389   2.493   1.519   1.883
 1090SOL    HW2 4390   2.425   1.573   1.922
 1090SOL    HW3 4391   2.494   1.543   1.791
 1090SOL    MW4 4392   2.484   1.529   1.876
 1091SOL     OW 4393   2.278   1.660   1.974
 1091SOL    HW2 4394   2.268   1.667   2.069
 1091SOL    HW3 4395   2.196   1.619   1.945
 1091SOL    MW4 4396   2.266   1.655   1.983
 1092SOL     OW 4397   2.263   1.928   1.905
 1092SOL    HW2 4398   2.350   1.964   1.922
 1092SOL    HW3 4399   2.265   1.840   1.943
 1092SOL    MW4 4400   2.275   1.921   1.912
 1093SOL     OW 4401   2.486   2.047   1.962
 1093SOL    HW2 4402   2.565   1.998   1.937
 1093SOL    HW3 4403   2.485   2.122   1.903
 1093SOL    MW4 4404   2.497   2.050   1.951
 1094SOL     OW 4405   2.491   2.315   1.842
 1094SOL    HW2 4406   2.571   2.330   1.891
 1094SOL    HW3 4407   2.422   2.350   1.897
 1094SOL    MW4 4408   2.492   2.322   1.855
 1095SOL     OW 4409   2.281   2.400   1.985
 1095SOL    HW2 4410   2.273   2.402   2.080
 1095SOL    HW3 4411   2.279   2.492   1.959
 1095SOL    MW4 4412   2.280   2.412   1.994
 1096SOL     OW 4413   2.292   2.654   1.880
 1096SOL    HW2 4414   2.222   2.709   1.916
 1096SOL    HW3 4415   2.287   2.668   1.786
 1096SOL    MW4 4416   2.282   2.663   1.872
 1097SOL     OW 4417   2.505   2.801   1.995
 1097SOL    HW2 4418   2.501   2.895   1.978
 1097SOL    HW3 4419   2.422   2.767   1.961
 1097SOL    MW4 4420   2.493   2.809   1.989
 1098SOL     OW 4421   2.468   3.058   1.899
 1098SOL    HW2 4422   2.405   3.128   1.917
 1098SOL    HW3 4423   2.467   3.049   1.804
 1098SOL    MW4 4424   2.460   3.066   1.889
 1099SOL     OW 4425   2.270   3.252   1.963
 1099SOL    HW2 4426   2.262   3.258   2.058
 1099SOL    HW3 4427   2.204   3.187   1.939
 1099SOL    MW4 4428   2.260   3.244   1.972
 1100SOL     OW 4429   2.282   3.510   1.840
 1100SOL    HW2 4430   2.279   3.422   1.877
 1100SOL    HW3 4431   2.194   3.545   1.855
 1100SOL    MW4 4432   2.270   3.503   1.846
 1101SOL     OW 4433   2.502   3.637   1.974
 1101SOL    HW2 4434   2.492   3.639   2.069
 1101SOL    HW3 4435   2.423   3.593   1.942
 1101SOL    MW4 4436   2.490   3.631   1.982
 1102SOL     OW 4437   2.426   3.864   1.841
 1102SOL    HW2 4438   2.348   3.889   1.890
 1102SOL    HW3 4439   2.457   3.785   1.884
 1102SOL    MW4 4440   2.420   3.857   1.853
 1103SOL     OW 4441   2.212   4.011   1.943
 1103SOL    HW2 4442   2.243   4.022   2.032
 1103SOL    HW3 4443   2.204   4.100   1.909
 1103SOL    MW4 4444   2.215   4.024   1.950
 1104SOL     OW 4445   2.202   4.281   1.854
 1104SOL    HW2 4446   2.276   4.323   1.898
 1104SOL    HW3 4447   2.225   4.284   1.761
 1104SOL    MW4 4448   2.215   4.287   1.848
 1105SOL     OW 4449   2.423   4.370   2.017
 1105SOL    HW2 4450   2.450   4.392   2.106
 1105SOL    HW3 4451   2.497   4.324   1.979
 1105SOL    MW4 4452   2.436   4.367   2.024
 1106SOL     OW 4453   2.897   4.645   1.883
 1106SOL    HW2 4454   2.980   4.684   1.911
 1106SOL    HW3 4455   2.896   4.559   1.925
 1106SOL    MW4 4456   2.908   4.639   1.893
 1107SOL     OW 4457   2.646   0.083   1.972
 1107SOL    HW2 4458   2.665   0.100   2.064
 1107SOL    HW3 4459   2.725   0.041   1.939
 1107SOL    MW4 4460   2.659   0.079   1.980
 1108SOL     OW 4461   2.684   0.333   1.840
 1108SOL    HW2 4462   2.740   0.388   1.895
 1108SOL    HW3 4463   2.674   0.252   1.890
 1108SOL    MW4 4464   2.690   0.330   1.854
 1109SOL     OW 4465   2.872   0.495   1.986
 1109SOL    HW2 4466   2.950   0.449   1.955
 1109SOL    HW3 4467   2.875   0.580   1.942
 1109SOL    MW4 4468   2.883   0.500   1.976
 1110SOL     OW 4469   2.896   0.735   1.845
 1110SOL    HW2 4470   2.973   0.777   1.884
 1110SOL    HW3 4471   2.821   0.780   1.887
 1110SOL    MW4 4472   2.896   0.747   1.856
 1111SOL     OW 4473   2.689   0.876   1.967
 1111SOL    HW2 4474   2.701   0.963   1.930
 1111SOL    HW3 4475   2.606   0.846   1.930
 1111SOL    MW4 4476   2.680   0.884   1.957
 1112SOL     OW 4477   2.721   1.149   1.878
 1112SOL    HW2 4478   2.634   1.179   1.904
 1112SOL    HW3 4479   2.716   1.136   1.784
 1112SOL    MW4 4480   2.709   1.151   1.869
 1113SOL     OW 4481   2.951   1.257   1.974
 1113SOL    HW2 4482   2.955   1.348   1.944
 1113SOL    HW3 4483   2.867   1.226   1.943
 1113SOL    MW4 4484   2.941   1.265   1.966
 1114SOL     OW 4485   2.947   1.532   1.868
 1114SOL    HW2 4486   3.037   1.558   1.887
 1114SOL    HW3 4487   2.944   1.522   1.773
 1114SOL    MW4 4488   2.958   1.534   1.858
 1115SOL     OW 4489   2.724   1.665   1.956
 1115SOL    HW2 4490   2.799   1.618   1.922
 1115SOL    HW3 4491   2.648   1.615   1.926
 1115SOL    MW4 4492   2.724   1.652   1.947
 1116SOL     OW 4493   2.689   1.898   1.846
 1116SOL    HW2 4494   2.766   1.947   1.874
 1116SOL    HW3 4495   2.701   1.810   1.883
 1116SOL    MW4 4496   2.701   1.893   1.855
 1117SOL     OW 4497   2.911   2.008   1.972
 1117SOL    HW2 4498   2.912   2.032   2.065
 1117SOL    HW3 4499   2.996   1.964   1.959
 1117SOL    MW4 4500   2.923   2.005   1.983
 1118SOL     OW 4501   2.921   2.282   1.865
 1118SOL    HW2 4502   3.006   2.311   1.897
 1118SOL    HW3 4503   2.916   2.190   1.889
 1118SOL    MW4 4504   2.932   2.274   1.872
 1119SOL     OW 4505   2.726   2.444   1.994
 1119SOL    HW2 4506   2.716   2.514   1.929
 1119SOL    HW3 4507   2.800   2.392   1.962
 1119SOL    MW4 4508   2.734   2.446   1.981
 1120SOL     OW 4509   2.686   2.658   1.829
 1120SOL    HW2 4510   2.613   2.703   1.871
 1120SOL    HW3 4511   2.688   2.693   1.740
 1120SOL    MW4 4512   2.677   2.669   1.823
 1121SOL     OW 4513   2.902   2.779   1.962
 1121SOL    HW2 4514   2.898   2.866   1.923
 1121SOL    HW3 4515   2.827   2.732   1.924
 1121SOL    MW4 4516   2.891   2.784   1.952
 1122SOL     OW 4517   2.890   3.058   1.859
 1122SOL    HW2 4518   2.968   3.100   1.893
 1122SOL    HW3 4519   2.818   3.113   1.889
 1122SOL    MW4 4520   2.891   3.071   1.867
 1123SOL     OW 4521   2.684   3.225   1.992
 1123SOL    HW2 4522   2.681   3.314   1.959
 1123SOL    HW3 4523   2.601   3.186   1.966
 1123SOL    MW4 4524   2.673   3.232   1.984
 1124SOL     OW 4525   2.706   3.485   1.858
 1124SOL    HW2 4526   2.783   3.528   1.895
 1124SOL    HW3 4527   2.632   3.532   1.898
 1124SOL    MW4 4528   2.706   3.497   1.869
 1125SOL     OW 4529   2.931   3.603   1.997
 1125SOL    HW2 4530   2.935   3.607   2.092
 1125SOL    HW3 4531   3.008   3.553   1.971
 1125SOL    MW4 4532   2.942   3.597   2.006
 1126SOL     OW 4533   2.906   3.867   1.887
 1126SOL    HW2 4534   2.892   3.783   1.931
 1126SOL    HW3 4535   2.918   3.845   1.795
 1126SOL    MW4 4536   2.905   3.853   1.881
 1127SOL     OW 4537   2.652   3.983   1.945
 1127SOL    HW2 4538   2.721   3.923   1.918
 1127SOL    HW3 4539   2.571   3.938   1.923
 1127SOL    MW4 4540   2.650   3.970   1.939
 1128SOL     OW 4541   2.630   4.253   1.887
 1128SOL    HW2 4542   2.626   4.157   1.890
 1128SOL    HW3 4543   2.651   4.273   1.795
 1128SOL    MW4 4544   2.632   4.243   1.875
 1129SOL     OW 4545   2.884   4.365   1.967
 1129SOL    HW2 4546   2.892   4.366   2.062
 1129SOL    HW3 4547   2.799   4.325   1.951
 1129SOL    MW4 4548   2.874   4.360   1.977
 1130SOL     OW 4549   3.352   4.663   1.862
 1130SOL    HW2 4550   3.351   4.571   1.889
 1130SOL    HW3 4551   3.372   4.661   1.769
 1130SOL    MW4 4552   3.354   4.651   1.854
 1131SOL     OW 4553   3.122   0.112   1.973
 1131SOL    HW2 4554   3.131   0.104   2.068
 1131SOL    HW3 4555   3.205   0.078   1.938
 1131SOL    MW4 4556   3.134   0.107   1.981
 1132SOL     OW 4557   3.104   0.382   1.872
 1132SOL    HW2 4558   3.120   0.297   1.914
 1132SOL    HW3 4559   3.121   0.365   1.779
 1132SOL    MW4 4560   3.108   0.368   1.865
 1133SOL     OW 4561   3.342   0.503   1.969
 1133SOL    HW2 4562   3.421   0.455   1.946
 1133SOL    HW3 4563   3.271   0.455   1.925
 1133SOL    MW4 4564   3.343   0.490   1.960
 1134SOL     OW 4565   3.368   0.758   1.853
 1134SOL    HW2 4566   3.292   0.801   1.894
 1134SOL    HW3 4567   3.371   0.672   1.894
 1134SOL    MW4 4568   3.358   0.752   1.864
 1135SOL     OW 4569   3.133   0.848   1.967
 1135SOL    HW2 4570   3.123   0.843   2.062
 1135SOL    HW3 4571   3.143   0.941   1.948
 1135SOL    MW4 4572   3.133   0.859   1.977
 1136SOL     OW 4573   3.160   1.115   1.878
 1136SOL    HW2 4574   3.231   1.154   1.930
 1136SOL    HW3 4575   3.080   1.144   1.921
 1136SOL    MW4 4576   3.159   1.124   1.891
 1137SOL     OW 4577   3.384   1.254   1.967
 1137SOL    HW2 4578   3.389   1.262   2.062
 1137SOL    HW3 4579   3.412   1.340   1.934
 1137SOL    MW4 4580   3.389   1.267   1.975
 1138SOL     OW 4581   3.456   1.504   1.895
 1138SOL    HW2 4582   3.536   1.554   1.910
 1138SOL    HW3 4583   3.386   1.560   1.929
 1138SOL    MW4 4584   3.457   1.518   1.902
 1139SOL     OW 4585   3.194   1.648   1.948
 1139SOL    HW2 4586   3.185   1.658   2.043
 1139SOL    HW3 4587   3.192   1.738   1.914
 1139SOL    MW4 4588   3.192   1.661   1.956
 1140SOL     OW 4589   3.182   1.921   1.878
 1140SOL    HW2 4590   3.256   1.970   1.916
 1140SOL    HW3 4591   3.173   1.956   1.790
 1140SOL    MW4 4592   3.191   1.932   1.872
 1141SOL     OW 4593   3.407   2.054   1.987
 1141SOL    HW2 4594   3.469   1.999   1.941
 1141SOL    HW3 4595   3.421   2.142   1.952
 1141SOL    MW4 4596   3.417   2.058   1.977
 1142SOL     OW 4597   3.430   2.294   1.858
 1142SOL    HW2 4598   3.351   2.327   1.902
 1142SOL    HW3 4599   3.407   2.294   1.765
 1142SOL    MW4 4600   3.416   2.298   1.852
 1143SOL     OW 4601   3.172   2.370   1.951
 1143SOL    HW2 4602   3.169   2.380   2.046
 1143SOL    HW3 4603   3.155   2.458   1.917
 1143SOL    MW4 4604   3.170   2.383   1.959
 1144SOL     OW 4605   3.128   2.639   1.882
 1144SOL    HW2 4606   3.050   2.688   1.910
 1144SOL    HW3 4607   3.124   2.641   1.787
 1144SOL    MW4 4608   3.117   2.645   1.873
 1145SOL     OW 4609   3.331   2.821   1.915
 1145SOL    HW2 4610   3.341   2.807   2.010
 1145SOL    HW3 4611   3.252   2.773   1.893
 1145SOL    MW4 4612   3.322   2.813   1.925
 1146SOL     OW 4613   3.350   3.084   1.876
 1146SOL    HW2 4614   3.422   3.117   1.929
 1146SOL    HW3 4615   3.349   2.990   1.891
 1146SOL    MW4 4616   3.359   3.076   1.885
 1147SOL     OW 4617   3.113   3.193   1.965
 1147SOL    HW2 4618   3.137   3.283   1.943
 1147SOL    HW3 4619   3.191   3.141   1.943
 1147SOL    MW4 4620   3.127   3.198   1.960
 1148SOL     OW 4621   3.150   3.455   1.885
 1148SOL    HW2 4622   3.210   3.520   1.921
 1148SOL    HW3 4623   3.142   3.476   1.792
 1148SOL    MW4 4624   3.157   3.466   1.878
 1149SOL     OW 4625   3.353   3.620   1.962
 1149SOL    HW2 4626   3.438   3.584   1.935
 1149SOL    HW3 4627   3.358   3.713   1.940
 1149SOL    MW4 4628   3.365   3.627   1.955
 1150SOL     OW 4629   3.356   3.886   1.893
 1150SOL    HW2 4630   3.280   3.918   1.942
 1150SOL    HW3 4631   3.334   3.905   1.802
 1150SOL    MW4 4632   3.343   3.893   1.888
 1151SOL     OW 4633   3.133   4.005   1.979
 1151SOL    HW2 4634   3.124   4.014   2.073
 1151SOL    HW3 4635   3.056   3.955   1.951
 1151SOL    MW4 4636   3.122   4.000   1.988
 1152SOL     OW 4637   3.112   4.250   1.855
 1152SOL    HW2 4638   3.123   4.158   1.879
 1152SOL    HW3 4639   3.035   4.278   1.904
 1152SOL    MW4 4640   3.103   4.242   1.865
 1153SOL     OW 4641   3.338   4.403   1.951
 1153SOL    HW2 4642   3.418   4.351   1.947
 1153SOL    HW3 4643   3.269   4.342   1.926
 1153SOL    MW4 4644   3.340   4.388   1.947
 1154SOL     OW 4645   3.822   4.656   1.845
 1154SOL    HW2 4646   3.815   4.573   1.891
 1154SOL    HW3 4647   3.747   4.707   1.875
 1154SOL    MW4 4648   3.811   4.652   1.855
 1155SOL     OW 4649   3.587   0.115   1.966
 1155SOL    HW2 4650   3.580   0.117   2.061
 1155SOL    HW3 4651   3.515   0.058   1.938
 1155SOL    MW4 4652   3.576   0.108   1.975
 1156SOL     OW 4653   3.562   0.372   1.856
 1156SOL    HW2 4654   3.575   0.282   1.885
 1156SOL    HW3 4655   3.574   0.368   1.761
 1156SOL    MW4 4656   3.565   0.360   1.847
 1157SOL     OW 4657   3.809   0.485   1.955
 1157SOL    HW2 4658   3.811   0.579   1.939
 1157SOL    HW3 4659   3.719   0.459   1.937
 1157SOL    MW4 4660   3.798   0.494   1.951
 1158SOL     OW 4661   3.836   0.751   1.915
 1158SOL    HW2 4662   3.762   0.804   1.945
 1158SOL    HW3 4663   3.829   0.753   1.819
 1158SOL    MW4 4664   3.825   0.758   1.906
 1159SOL     OW 4665   3.613   0.887   2.012
 1159SOL    HW2 4666   3.627   0.976   1.979
 1159SOL    HW3 4667   3.528   0.861   1.976
 1159SOL    MW4 4668   3.604   0.896   2.003
 1160SOL     OW 4669   3.612   1.126   1.873
 1160SOL    HW2 4670   3.523   1.145   1.901
 1160SOL    HW3 4671   3.607   1.126   1.777
 1160SOL    MW4 4672   3.600   1.129   1.864
 1161SOL     OW 4673   3.814   1.305   1.970
 1161SOL    HW2 4674   3.812   1.309   2.065
 1161SOL    HW3 4675   3.732   1.262   1.946
 1161SOL    MW4 4676   3.803   1.300   1.979
 1162SOL     OW 4677   3.847   1.533   1.813
 1162SOL    HW2 4678   3.924   1.567   1.859
 1162SOL    HW3 4679   3.835   1.445   1.849
 1162SOL    MW4 4680   3.855   1.526   1.824
 1163SOL     OW 4681   3.661   1.659   1.994
 1163SOL    HW2 4682   3.658   1.751   1.968
 1163SOL    HW3 4683   3.731   1.622   1.940
 1163SOL    MW4 4684   3.670   1.666   1.983
 1164SOL     OW 4685   3.653   1.902   1.878
 1164SOL    HW2 4686   3.717   1.966   1.910
 1164SOL    HW3 4687   3.647   1.920   1.784
 1164SOL    MW4 4688   3.661   1.913   1.870
 1165SOL     OW 4689   3.844   2.062   1.997
 1165SOL    HW2 4690   3.920   2.027   1.951
 1165SOL    HW3 4691   3.841   2.154   1.971
 1165SOL    MW4 4692   3.853   2.070   1.987
 1166SOL     OW 4693   3.836   2.308   1.899
 1166SOL    HW2 4694   3.911   2.355   1.935
 1166SOL    HW3 4695   3.760   2.347   1.944
 1166SOL    MW4 4696   3.836   2.319   1.910
 1167SOL     OW 4697   3.620   2.460   1.978
 1167SOL    HW2 4698   3.609   2.540   1.927
 1167SOL    HW3 4699   3.564   2.396   1.933
 1167SOL    MW4 4700   3.611   2.462   1.965
 1168SOL     OW 4701   3.592   2.690   1.841
 1168SOL    HW2 4702   3.659   2.740   1.889
 1168SOL    HW3 4703   3.509   2.723   1.875
 1168SOL    MW4 4704   3.590   2.701   1.852
 1169SOL     OW 4705   3.790   2.841   1.970
 1169SOL    HW2 4706   3.809   2.846   2.063
 1169SOL    HW3 4707   3.789   2.932   1.940
 1169SOL    MW4 4708   3.792   2.854   1.978
 1170SOL     OW 4709   3.803   3.118   1.895
 1170SOL    HW2 4710   3.721   3.165   1.910
 1170SOL    HW3 4711   3.812   3.115   1.800
 1170SOL    MW4 4712   3.793   3.124   1.885
 1171SOL     OW 4713   3.558   3.227   1.995
 1171SOL    HW2 4714   3.560   3.219   2.090
 1171SOL    HW3 4715   3.555   3.321   1.979
 1171SOL    MW4 4716   3.558   3.238   2.006
 1172SOL     OW 4717   3.594   3.487   1.883
 1172SOL    HW2 4718   3.669   3.539   1.912
 1172SOL    HW3 4719   3.606   3.478   1.788
 1172SOL    MW4 4720   3.606   3.493   1.874
 1173SOL     OW 4721   3.817   3.618   2.014
 1173SOL    HW2 4722   3.881   3.569   1.962
 1173SOL    HW3 4723   3.832   3.709   1.989
 1173SOL    MW4 4724   3.827   3.623   2.004
 1174SOL     OW 4725   3.840   3.876   1.875
 1174SOL    HW2 4726   3.759   3.924   1.892
 1174SOL    HW3 4727   3.842   3.865   1.780
 1174SOL    MW4 4728   3.830   3.881   1.864
 1175SOL     OW 4729   3.612   4.018   1.948
 1175SOL    HW2 4730   3.604   4.016   2.043
 1175SOL    HW3 4731   3.526   3.988   1.916
 1175SOL    MW4 4732   3.600   4.014   1.956
 1176SOL     OW 4733   3.580   4.302   1.864
 1176SOL    HW2 4734   3.648   4.361   1.895
 1176SOL    HW3 4735   3.595   4.221   1.913
 1176SOL    MW4 4736   3.591   4.299   1.875
 1177SOL     OW 4737   3.803   4.414   1.975
 1177SOL    HW2 4738   3.794   4.414   2.070
 1177SOL    HW3 4739   3.888   4.373   1.959
 1177SOL    MW4 4740   3.813   4.408   1.986
 1178SOL     OW 4741   4.285   4.666   1.847
 1178SOL    HW2 4742   4.203   4.690   1.890
 1178SOL    HW3 4743   4.351   4.723   1.887
 1178SOL    MW4 4744   4.283   4.677   1.858
 1179SOL     OW 4745   4.051   0.078   1.979
 1179SOL    HW2 4746   4.027   0.080   2.071
 1179SOL    HW3 4747   3.968   0.067   1.932
 1179SOL    MW4 4748   4.037   0.077   1.985
 1180SOL     OW 4749   4.053   0.357   1.877
 1180SOL    HW2 4750   4.040   0.272   1.919
 1180SOL    HW3 4751   3.982   0.411   1.912
 1180SOL    MW4 4752   4.042   0.353   1.887
 1181SOL     OW 4753   4.260   0.514   1.947
 1181SOL    HW2 4754   4.237   0.507   2.040
 1181SOL    HW3 4755   4.189   0.469   1.901
 1181SOL    MW4 4756   4.248   0.507   1.953
 1182SOL     OW 4757   4.261   0.788   1.914
 1182SOL    HW2 4758   4.274   0.694   1.929
 1182SOL    HW3 4759   4.258   0.796   1.819
 1182SOL    MW4 4760   4.262   0.777   1.904
 1183SOL     OW 4761   4.044   0.927   1.985
 1183SOL    HW2 4762   4.126   0.878   1.982
 1183SOL    HW3 4763   3.978   0.866   1.953
 1183SOL    MW4 4764   4.046   0.912   1.980
 1184SOL     OW 4765   4.047   1.187   1.865
 1184SOL    HW2 4766   4.036   1.094   1.886
 1184SOL    HW3 4767   3.973   1.230   1.908
 1184SOL    MW4 4768   4.036   1.180   1.873
 1185SOL     OW 4769   4.284   1.287   1.956
 1185SOL    HW2 4770   4.255   1.288   2.048
 1185SOL    HW3 4771   4.209   1.252   1.908
 1185SOL    MW4 4772   4.270   1.283   1.962
 1186SOL     OW 4773   4.285   1.558   1.866
 1186SOL    HW2 4774   4.288   1.470   1.902
 1186SOL    HW3 4775   4.287   1.546   1.771
 1186SOL    MW4 4776   4.285   1.545   1.858
 1187SOL     OW 4777   4.054   1.690   1.955
 1187SOL    HW2 4778   4.055   1.691   2.051
 1187SOL    HW3 4779   4.136   1.647   1.931
 1187SOL    MW4 4780   4.065   1.684   1.965
 1188SOL     OW 4781   4.070   1.954   1.862
 1188SOL    HW2 4782   4.032   1.872   1.893
 1188SOL    HW3 4783   4.069   1.946   1.767
 1188SOL    MW4 4784   4.065   1.942   1.854
 1189SOL     OW 4785   4.304   2.046   1.975
 1189SOL    HW2 4786   4.298   2.063   2.069
 1189SOL    HW3 4787   4.216   2.017   1.950
 1189SOL    MW4 4788   4.291   2.045   1.984
 1190SOL     OW 4789   4.258   2.308   1.888
 1190SOL    HW2 4790   4.259   2.216   1.915
 1190SOL    HW3 4791   4.339   2.345   1.922
 1190SOL    MW4 4792   4.269   2.301   1.896
 1191SOL     OW 4793   4.052   2.462   1.983
 1191SOL    HW2 4794   4.054   2.456   2.079
 1191SOL    HW3 4795   4.130   2.415   1.955
 1191SOL    MW4 4796   4.063   2.455   1.992
 1192SOL     OW 4797   4.016   2.723   1.860
 1192SOL    HW2 4798   4.026   2.640   1.906
 1192SOL    HW3 4799   3.942   2.766   1.904
 1192SOL    MW4 4800   4.007   2.718   1.872
 1193SOL     OW 4801   4.273   2.855   1.986
 1193SOL    HW2 4802   4.250   2.881   2.075
 1193SOL    HW3 4803   4.193   2.815   1.951
 1193SOL    MW4 4804   4.259   2.853   1.993
 1194SOL     OW 4805   4.266   3.108   1.847
 1194SOL    HW2 4806   4.187   3.151   1.879
 1194SOL    HW3 4807   4.263   3.020   1.885
 1194SOL    MW4 4808   4.255   3.102   1.856
 1195SOL     OW 4809   4.044   3.217   1.951
 1195SOL    HW2 4810   4.039   3.232   2.046
 1195SOL    HW3 4811   3.954   3.196   1.926
 1195SOL    MW4 4812   4.031   3.216   1.961
 1196SOL     OW 4813   4.056   3.495   1.880
 1196SOL    HW2 4814   4.135   3.533   1.919
 1196SOL    HW3 4815   4.055   3.405   1.911
 1196SOL    MW4 4816   4.066   3.488   1.889
 1197SOL     OW 4817   4.277   3.610   2.014
 1197SOL    HW2 4818   4.290   3.699   1.982
 1197SOL    HW3 4819   4.335   3.557   1.960
 1197SOL    MW4 4820   4.286   3.615   2.003
 1198SOL     OW 4821   4.288   3.861   1.884
 1198SOL    HW2 4822   4.363   3.918   1.903
 1198SOL    HW3 4823   4.297   3.842   1.791
 1198SOL    MW4 4824   4.299   3.866   1.874
 1199SOL     OW 4825   4.067   4.010   1.967
 1199SOL    HW2 4826   4.147   3.958   1.956
 1199SOL    HW3 4827   3.998   3.956   1.928
 1199SOL    MW4 4828   4.068   3.996   1.961
 1200SOL     OW 4829   4.050   4.264   1.850
 1200SOL    HW2 4830   4.119   4.319   1.887
 1200SOL    HW3 4831   4.069   4.176   1.884
 1200SOL    MW4 4832   4.061   4.259   1.860
 1201SOL     OW 4833   4.253   4.410   1.962
 1201SOL    HW2 4834   4.254   4.410   2.058
 1201SOL    HW3 4835   4.261   4.502   1.938
 1201SOL    MW4 4836   4.254   4.422   1.972
 1202SOL     OW 4837   0.176   4.633   2.332
 1202SOL    HW2 4838   0.196   4.620   2.424
 1202SOL    HW3 4839   0.247   4.688   2.299
 1202SOL    MW4 4840   0.188   4.638   2.340
 1203SOL     OW 4841   4.455   0.139   2.262
 1203SOL    HW2 4842   4.524   0.079   2.293
 1203SOL    HW3 4843   4.459   0.131   2.167
 1203SOL    MW4 4844   4.465   0.130   2.254
 1204SOL     OW 4845   4.465   0.405   2.347
 1204SOL    HW2 4846   4.545   0.437   2.304
 1204SOL    HW3 4847   4.460   0.312   2.322
 1204SOL    MW4 4848   4.475   0.397   2.338
 1205SOL     OW 4849   0.209   0.529   2.213
 1205SOL    HW2 4850   0.279   0.475   2.249
 1205SOL    HW3 4851   0.213   0.514   2.118
 1205SOL    MW4 4852   0.219   0.520   2.205
 1206SOL     OW 4853   0.170   0.781   2.321
 1206SOL    HW2 4854   0.202   0.771   2.411
 1206SOL    HW3 4855   0.180   0.694   2.282
 1206SOL    MW4 4856   0.176   0.768   2.328
 1207SOL     OW 4857   4.451   0.927   2.243
 1207SOL    HW2 4858   4.525   0.875   2.273
 1207SOL    HW3 4859   4.460   0.929   2.147
 1207SOL    MW4 4860   4.462   0.921   2.234
 1208SOL     OW 4861   0.005   1.178   2.350
 1208SOL    HW2 4862   0.022   1.180   2.444
 1208SOL    HW3 4863  -0.002   1.085   2.328
 1208SOL    MW4 4864   0.007   1.166   2.359
 1209SOL     OW 4865   0.245   1.307   2.251
 1209SOL    HW2 4866   0.158   1.271   2.269
 1209SOL    HW3 4867   0.260   1.286   2.159
 1209SOL    MW4 4868   0.235   1.300   2.241
 1210SOL     OW 4869   0.286   1.560   2.342
 1210SOL    HW2 4870   0.284   1.548   2.437
 1210SOL    HW3 4871   0.293   1.471   2.307
 1210SOL    MW4 4872   0.286   1.547   2.350
 1211SOL     OW 4873   0.041   1.666   2.240
 1211SOL    HW2 4874   0.047   1.761   2.255
 1211SOL    HW3 4875   0.120   1.631   2.281
 1211SOL    MW4 4876   0.053   1.674   2.247
 1212SOL     OW 4877   0.001   1.932   2.325
 1212SOL    HW2 4878  -0.071   1.980   2.284
 1212SOL    HW3 4879   0.077   1.991   2.318
 1212SOL    MW4 4880   0.002   1.946   2.319
 1213SOL     OW 4881   0.268   2.066   2.307
 1213SOL    HW2 4882   0.343   2.026   2.352
 1213SOL    HW3 4883   0.287   2.055   2.214
 1213SOL    MW4 4884   0.281   2.059   2.301
 1214SOL     OW 4885   0.202   2.306   2.401
 1214SOL    HW2 4886   0.225   2.305   2.494
 1214SOL    HW3 4887   0.230   2.221   2.369
 1214SOL    MW4 4888   0.209   2.295   2.409
 1215SOL     OW 4889   0.047   2.474   2.250
 1215SOL    HW2 4890   0.051   2.555   2.301
 1215SOL    HW3 4891   0.100   2.411   2.299
 1215SOL    MW4 4892   0.055   2.476   2.263
 1216SOL     OW 4893   4.488   2.743   2.344
 1216SOL    HW2 4894   4.493   2.757   2.438
 1216SOL    HW3 4895   4.570   2.778   2.310
 1216SOL    MW4 4896   4.499   2.750   2.352
 1217SOL     OW 4897   0.230   2.857   2.260
 1217SOL    HW2 4898   0.311   2.811   2.283
 1217SOL    HW3 4899   0.226   2.853   2.165
 1217SOL    MW4 4900   0.240   2.850   2.251
 1218SOL     OW 4901   0.216   3.112   2.359
 1218SOL    HW2 4902   0.147   3.156   2.310
 1218SOL    HW3 4903   0.216   3.022   2.326
 1218SOL    MW4 4904   0.207   3.105   2.349
 1219SOL     OW 4905   4.486   3.232   2.250
 1219SOL    HW2 4906   4.476   3.321   2.284
 1219SOL    HW3 4907   4.470   3.240   2.156
 1219SOL    MW4 4908   4.483   3.244   2.242
 1220SOL     OW 4909   0.002   3.487   2.394
 1220SOL    HW2 4910   0.007   3.498   2.489
 1220SOL    HW3 4911  -0.082   3.527   2.370
 1220SOL    MW4 4912  -0.009   3.494   2.403
 1221SOL     OW 4913   0.225   3.589   2.259
 1221SOL    HW2 4914   0.301   3.547   2.299
 1221SOL    HW3 4915   0.151   3.557   2.311
 1221SOL    MW4 4916   0.225   3.579   2.272
 1222SOL     OW 4917   0.239   3.850   2.335
 1222SOL    HW2 4918   0.166   3.888   2.286
 1222SOL    HW3 4919   0.238   3.757   2.310
 1222SOL    MW4 4920   0.229   3.843   2.325
 1223SOL     OW 4921   0.033   4.011   2.235
 1223SOL    HW2 4922   0.013   4.098   2.271
 1223SOL    HW3 4923   0.014   4.019   2.142
 1223SOL    MW4 4924   0.028   4.024   2.228
 1224SOL     OW 4925   4.479   4.265   2.356
 1224SOL    HW2 4926   4.486   4.300   2.445
 1224SOL    HW3 4927   4.544   4.315   2.306
 1224SOL    MW4 4928   4.488   4.276   2.361
 1225SOL     OW 4929   0.196   4.382   2.225
 1225SOL    HW2 4930   0.266   4.337   2.271
 1225SOL    HW3 4931   0.193   4.469   2.265
 1225SOL    MW4 4932   0.205   4.388   2.236
 1226SOL     OW 4933   0.652   0.004   2.316
 1226SOL    HW2 4934   0.644  -0.003   2.411
 1226SOL    HW3 4935   0.738   0.045   2.302
 1226SOL    MW4 4936   0.662   0.009   2.327
 1227SOL     OW 4937   0.394   0.120   2.256
 1227SOL    HW2 4938   0.466   0.063   2.285
 1227SOL    HW3 4939   0.422   0.151   2.170
 1227SOL    MW4 4940   0.408   0.117   2.249
 1228SOL     OW 4941   0.420   0.391   2.309
 1228SOL    HW2 4942   0.437   0.398   2.403
 1228SOL    HW3 4943   0.434   0.298   2.290
 1228SOL    MW4 4944   0.424   0.379   2.319
 1229SOL     OW 4945   0.691   0.532   2.241
 1229SOL    HW2 4946   0.674   0.624   2.264
 1229SOL    HW3 4947   0.609   0.487   2.262
 1229SOL    MW4 4948   0.678   0.539   2.247
 1230SOL     OW 4949   0.672   0.809   2.276
 1230SOL    HW2 4950   0.663   0.811   2.371
 1230SOL    HW3 4951   0.593   0.854   2.244
 1230SOL    MW4 4952   0.660   0.815   2.284
 1231SOL     OW 4953   0.412   0.908   2.231
 1231SOL    HW2 4954   0.329   0.874   2.264
 1231SOL    HW3 4955   0.409   0.892   2.136
 1231SOL    MW4 4956   0.401   0.902   2.223
 1232SOL     OW 4957   0.465   1.160   2.348
 1232SOL    HW2 4958   0.453   1.073   2.310
 1232SOL    HW3 4959   0.384   1.206   2.326
 1232SOL    MW4 4960   0.452   1.154   2.340
 1233SOL     OW 4961   0.677   1.300   2.242
 1233SOL    HW2 4962   0.666   1.388   2.279
 1233SOL    HW3 4963   0.608   1.248   2.282
 1233SOL    MW4 4964   0.666   1.305   2.252
 1234SOL     OW 4965   0.682   1.558   2.353
 1234SOL    HW2 4966   0.694   1.582   2.445
 1234SOL    HW3 4967   0.750   1.608   2.307
 1234SOL    MW4 4968   0.692   1.568   2.359
 1235SOL     OW 4969   0.485   1.694   2.214
 1235SOL    HW2 4970   0.563   1.656   2.253
 1235SOL    HW3 4971   0.413   1.638   2.244
 1235SOL    MW4 4972   0.486   1.682   2.223
 1236SOL     OW 4973   0.470   1.899   2.387
 1236SOL    HW2 4974   0.540   1.950   2.347
 1236SOL    HW3 4975   0.457   1.825   2.328
 1236SOL    MW4 4976   0.478   1.896   2.374
 1237SOL     OW 4977   0.663   2.058   2.268
 1237SOL    HW2 4978   0.753   2.037   2.293
 1237SOL    HW3 4979   0.649   2.147   2.301
 1237SOL    MW4 4980   0.673   2.067   2.276
 1238SOL     OW 4981   0.617   2.305   2.384
 1238SOL    HW2 4982   0.628   2.304   2.479
 1238SOL    HW3 4983   0.690   2.358   2.352
 1238SOL    MW4 4984   0.628   2.312   2.392
 1239SOL     OW 4985   0.413   2.449   2.261
 1239SOL    HW2 4986   0.486   2.401   2.299
 1239SOL    HW3 4987   0.339   2.431   2.319
 1239SOL    MW4 4988   0.412   2.440   2.274
 1240SOL     OW 4989   0.484   2.719   2.340
 1240SOL    HW2 4990   0.456   2.730   2.431
 1240SOL    HW3 4991   0.465   2.627   2.320
 1240SOL    MW4 4992   0.478   2.708   2.349
 1241SOL     OW 4993   0.699   2.860   2.266
 1241SOL    HW2 4994   0.771   2.799   2.280
 1241SOL    HW3 4995   0.622   2.815   2.302
 1241SOL    MW4 4996   0.698   2.846   2.273
 1242SOL     OW 4997   0.691   3.119   2.347
 1242SOL    HW2 4998   0.601   3.127   2.314
 1242SOL    HW3 4999   0.716   3.028   2.328
 1242SOL    MW4 5000   0.682   3.108   2.340
 1243SOL     OW 5001   0.441   3.216   2.245
 1243SOL    HW2 5002   0.361   3.179   2.283
 1243SOL    HW3 5003   0.435   3.194   2.152
 1243SOL    MW4 5004   0.430   3.208   2.238
 1244SOL     OW 5005   0.452   3.480   2.361
 1244SOL    HW2 5006   0.534   3.524   2.338
 1244SOL    HW3 5007   0.455   3.397   2.314
 1244SOL    MW4 5008   0.463   3.475   2.352
 1245SOL     OW 5009   0.677   3.631   2.242
 1245SOL    HW2 5010   0.696   3.719   2.273
 1245SOL    HW3 5011   0.640   3.643   2.154
 1245SOL    MW4 5012   0.675   3.644   2.234
 1246SOL     OW 5013   0.691   3.889   2.337
 1246SOL    HW2 5014   0.688   3.897   2.433
 1246SOL    HW3 5015   0.611   3.932   2.307
 1246SOL    MW4 5016   0.680   3.896   2.346
 1247SOL     OW 5017   0.471   4.026   2.257
 1247SOL    HW2 5018   0.400   3.970   2.285
 1247SOL    HW3 5019   0.470   4.020   2.161
 1247SOL    MW4 5020   0.462   4.018   2.248
 1248SOL     OW 5021   0.428   4.293   2.364
 1248SOL    HW2 5022   0.517   4.318   2.340
 1248SOL    HW3 5023   0.423   4.199   2.345
 1248SOL    MW4 5024   0.439   4.284   2.358
 1249SOL     OW 5025   0.676   4.393   2.254
 1249SOL    HW2 5026   0.666   4.487   2.268
 1249SOL    HW3 5027   0.655   4.381   2.161
 1249SOL    MW4 5028   0.672   4.404   2.243
 1250SOL     OW 5029   1.138   4.638   2.379
 1250SOL    HW2 5030   1.132   4.646   2.474
 1250SOL    HW3 5031   1.061   4.684   2.345
 1250SOL    MW4 5032   1.127   4.645   2.387
 1251SOL     OW 5033   0.912   0.108   2.261
 1251SOL    HW2 5034   0.923   0.196   2.297
 1251SOL    HW3 5035   0.899   0.121   2.167
 1251SOL    MW4 5036   0.912   0.121   2.253
 1252SOL     OW 5037   0.919   0.406   2.318
 1252SOL    HW2 5038   0.995   0.463   2.306
 1252SOL    HW3 5039   0.847   0.452   2.275
 1252SOL    MW4 5040   0.919   0.419   2.311
 1253SOL     OW 5041   1.148   0.569   2.245
 1253SOL    HW2 5042   1.221   0.516   2.276
 1253SOL    HW3 5043   1.141   0.547   2.152
 1253SOL    MW4 5044   1.157   0.559   2.237
 1254SOL     OW 5045   1.141   0.834   2.364
 1254SOL    HW2 5046   1.069   0.877   2.318
 1254SOL    HW3 5047   1.150   0.749   2.320
 1254SOL    MW4 5048   1.133   0.828   2.352
 1255SOL     OW 5049   0.919   0.936   2.232
 1255SOL    HW2 5050   0.897   1.019   2.273
 1255SOL    HW3 5051   0.844   0.880   2.248
 1255SOL    MW4 5052   0.906   0.939   2.240
 1256SOL     OW 5053   0.899   1.178   2.367
 1256SOL    HW2 5054   0.974   1.216   2.322
 1256SOL    HW3 5055   0.827   1.238   2.349
 1256SOL    MW4 5056   0.900   1.191   2.359
 1257SOL     OW 5057   1.141   1.324   2.260
 1257SOL    HW2 5058   1.217   1.269   2.278
 1257SOL    HW3 5059   1.134   1.325   2.164
 1257SOL    MW4 5060   1.150   1.317   2.250
 1258SOL     OW 5061   1.118   1.587   2.360
 1258SOL    HW2 5062   1.036   1.617   2.320
 1258SOL    HW3 5063   1.128   1.497   2.331
 1258SOL    MW4 5064   1.109   1.579   2.351
 1259SOL     OW 5065   0.881   1.714   2.241
 1259SOL    HW2 5066   0.870   1.803   2.273
 1259SOL    HW3 5067   0.904   1.724   2.148
 1259SOL    MW4 5068   0.883   1.727   2.233
 1260SOL     OW 5069   0.913   1.985   2.341
 1260SOL    HW2 5070   0.927   1.996   2.435
 1260SOL    HW3 5071   0.985   2.034   2.300
 1260SOL    MW4 5072   0.925   1.993   2.348
 1261SOL     OW 5073   1.129   2.109   2.218
 1261SOL    HW2 5074   1.193   2.045   2.250
 1261SOL    HW3 5075   1.120   2.091   2.125
 1261SOL    MW4 5076   1.136   2.098   2.210
 1262SOL     OW 5077   1.114   2.336   2.385
 1262SOL    HW2 5078   1.180   2.396   2.350
 1262SOL    HW3 5079   1.125   2.256   2.335
 1262SOL    MW4 5080   1.124   2.333   2.374
 1263SOL     OW 5081   0.841   2.450   2.270
 1263SOL    HW2 5082   0.915   2.417   2.320
 1263SOL    HW3 5083   0.863   2.429   2.179
 1263SOL    MW4 5084   0.854   2.443   2.265
 1264SOL     OW 5085   0.905   2.699   2.319
 1264SOL    HW2 5086   0.886   2.700   2.413
 1264SOL    HW3 5087   0.883   2.610   2.292
 1264SOL    MW4 5088   0.900   2.687   2.328
 1265SOL     OW 5089   1.123   2.867   2.224
 1265SOL    HW2 5090   1.195   2.821   2.267
 1265SOL    HW3 5091   1.045   2.817   2.248
 1265SOL    MW4 5092   1.122   2.854   2.233
 1266SOL     OW 5093   1.106   3.112   2.366
 1266SOL    HW2 5094   1.032   3.155   2.322
 1266SOL    HW3 5095   1.112   3.027   2.323
 1266SOL    MW4 5096   1.097   3.107   2.354
 1267SOL     OW 5097   0.919   3.221   2.210
 1267SOL    HW2 5098   0.929   3.304   2.257
 1267SOL    HW3 5099   0.843   3.180   2.252
 1267SOL    MW4 5100   0.910   3.226   2.222
 1268SOL     OW 5101   0.918   3.467   2.330
 1268SOL    HW2 5102   0.910   3.463   2.425
 1268SOL    HW3 5103   0.846   3.524   2.302
 1268SOL    MW4 5104   0.907   3.474   2.339
 1269SOL     OW 5105   1.147   3.608   2.232
 1269SOL    HW2 5106   1.216   3.569   2.285
 1269SOL    HW3 5107   1.066   3.569   2.264
 1269SOL    MW4 5108   1.146   3.598   2.243
 1270SOL     OW 5109   1.146   3.892   2.297
 1270SOL    HW2 5110   1.223   3.942   2.267
 1270SOL    HW3 5111   1.162   3.803   2.266
 1270SOL    MW4 5112   1.159   3.887   2.289
 1271SOL     OW 5113   0.913   4.026   2.230
 1271SOL    HW2 5114   0.995   3.990   2.263
 1271SOL    HW3 5115   0.845   3.974   2.273
 1271SOL    MW4 5116   0.915   4.014   2.240
 1272SOL     OW 5117   0.880   4.263   2.364
 1272SOL    HW2 5118   0.897   4.186   2.311
 1272SOL    HW3 5119   0.814   4.312   2.316
 1272SOL    MW4 5120   0.874   4.260   2.351
 1273SOL     OW 5121   1.119   4.379   2.290
 1273SOL    HW2 5122   1.031   4.351   2.315
 1273SOL    HW3 5123   1.124   4.470   2.317
 1273SOL    MW4 5124   1.108   4.387   2.297
 1274SOL     OW 5125   1.594   4.660   2.336
 1274SOL    HW2 5126   1.673   4.709   2.313
 1274SOL    HW3 5127   1.522   4.716   2.309
 1274SOL    MW4 5128   1.595   4.674   2.329
 1275SOL     OW 5129   1.353   0.092   2.258
 1275SOL    HW2 5130   1.332   0.182   2.283
 1275SOL    HW3 5131   1.280   0.040   2.292
 1275SOL    MW4 5132   1.341   0.097   2.266
 1276SOL     OW 5133   1.325   0.383   2.330
 1276SOL    HW2 5134   1.319   0.363   2.423
 1276SOL    HW3 5135   1.400   0.442   2.323
 1276SOL    MW4 5136   1.334   0.388   2.342
 1277SOL     OW 5137   1.569   0.554   2.267
 1277SOL    HW2 5138   1.645   0.503   2.295
 1277SOL    HW3 5139   1.560   0.535   2.174
 1277SOL    MW4 5140   1.578   0.545   2.258
 1278SOL     OW 5141   1.585   0.787   2.385
 1278SOL    HW2 5142   1.664   0.825   2.348
 1278SOL    HW3 5143   1.576   0.703   2.340
 1278SOL    MW4 5144   1.594   0.781   2.374
 1279SOL     OW 5145   1.373   0.933   2.243
 1279SOL    HW2 5146   1.445   0.875   2.268
 1279SOL    HW3 5147   1.298   0.898   2.290
 1279SOL    MW4 5148   1.373   0.921   2.252
 1280SOL     OW 5149   1.348   1.180   2.357
 1280SOL    HW2 5150   1.332   1.165   2.450
 1280SOL    HW3 5151   1.362   1.093   2.321
 1280SOL    MW4 5152   1.348   1.167   2.365
 1281SOL     OW 5153   1.570   1.311   2.252
 1281SOL    HW2 5154   1.499   1.260   2.291
 1281SOL    HW3 5155   1.555   1.306   2.158
 1281SOL    MW4 5156   1.559   1.304   2.245
 1282SOL     OW 5157   1.537   1.572   2.356
 1282SOL    HW2 5158   1.619   1.617   2.337
 1282SOL    HW3 5159   1.551   1.482   2.327
 1282SOL    MW4 5160   1.549   1.566   2.350
 1283SOL     OW 5161   1.332   1.714   2.249
 1283SOL    HW2 5162   1.402   1.655   2.277
 1283SOL    HW3 5163   1.251   1.672   2.280
 1283SOL    MW4 5164   1.331   1.700   2.257
 1284SOL     OW 5165   1.339   1.979   2.346
 1284SOL    HW2 5166   1.429   2.011   2.337
 1284SOL    HW3 5167   1.342   1.888   2.315
 1284SOL    MW4 5168   1.351   1.971   2.341
 1285SOL     OW 5169   1.585   2.102   2.245
 1285SOL    HW2 5170   1.653   2.042   2.275
 1285SOL    HW3 5171   1.584   2.091   2.150
 1285SOL    MW4 5172   1.594   2.093   2.236
 1286SOL     OW 5173   1.561   2.365   2.359
 1286SOL    HW2 5174   1.551   2.363   2.455
 1286SOL    HW3 5175   1.557   2.273   2.333
 1286SOL    MW4 5176   1.559   2.352   2.369
 1287SOL     OW 5177   1.347   2.472   2.247
 1287SOL    HW2 5178   1.433   2.438   2.269
 1287SOL    HW3 5179   1.329   2.438   2.160
 1287SOL    MW4 5180   1.356   2.463   2.239
 1288SOL     OW 5181   1.359   2.746   2.350
 1288SOL    HW2 5182   1.440   2.791   2.326
 1288SOL    HW3 5183   1.366   2.660   2.308
 1288SOL    MW4 5184   1.370   2.741   2.341
 1289SOL     OW 5185   1.585   2.869   2.244
 1289SOL    HW2 5186   1.600   2.961   2.265
 1289SOL    HW3 5187   1.582   2.867   2.148
 1289SOL    MW4 5188   1.586   2.881   2.234
 1290SOL     OW 5189   1.615   3.127   2.350
 1290SOL    HW2 5190   1.632   3.128   2.444
 1290SOL    HW3 5191   1.526   3.160   2.341
 1290SOL    MW4 5192   1.606   3.132   2.361
 1291SOL     OW 5193   1.356   3.220   2.300
 1291SOL    HW2 5194   1.271   3.184   2.325
 1291SOL    HW3 5195   1.355   3.222   2.205
 1291SOL    MW4 5196   1.345   3.216   2.291
 1292SOL     OW 5197   1.369   3.484   2.351
 1292SOL    HW2 5198   1.369   3.499   2.446
 1292SOL    HW3 5199   1.364   3.389   2.342
 1292SOL    MW4 5200   1.368   3.473   2.362
 1293SOL     OW 5201   1.628   3.578   2.216
 1293SOL    HW2 5202   1.637   3.663   2.259
 1293SOL    HW3 5203   1.541   3.547   2.242
 1293SOL    MW4 5204   1.617   3.585   2.225
 1294SOL     OW 5205   1.568   3.854   2.337
 1294SOL    HW2 5206   1.564   3.867   2.432
 1294SOL    HW3 5207   1.652   3.892   2.312
 1294SOL    MW4 5208   1.579   3.860   2.346
 1295SOL     OW 5209   1.386   4.033   2.244
 1295SOL    HW2 5210   1.460   3.980   2.275
 1295SOL    HW3 5211   1.373   4.004   2.153
 1295SOL    MW4 5212   1.394   4.022   2.236
 1296SOL     OW 5213   1.371   4.293   2.371
 1296SOL    HW2 5214   1.379   4.218   2.313
 1296SOL    HW3 5215   1.285   4.329   2.353
 1296SOL    MW4 5216   1.361   4.288   2.361
 1297SOL     OW 5217   1.589   4.380   2.256
 1297SOL    HW2 5218   1.507   4.365   2.304
 1297SOL    HW3 5219   1.600   4.475   2.255
 1297SOL    MW4 5220   1.579   4.390   2.262
 1298SOL     OW 5221   2.026   0.034   2.354
 1298SOL    HW2 5222   2.109   0.061   2.316
 1298SOL    HW3 5223   2.013  -0.056   2.323
 1298SOL    MW4 5224   2.035   0.025   2.345
 1299SOL     OW 5225   1.819   0.159   2.228
 1299SOL    HW2 5226   1.806   0.243   2.272
 1299SOL    HW3 5227   1.899   0.123   2.269
 1299SOL    MW4 5228   1.828   0.165   2.239
 1300SOL     OW 5229   1.773   0.401   2.361
 1300SOL    HW2 5230   1.767   0.373   2.452
 1300SOL    HW3 5231   1.865   0.426   2.349
 1300SOL    MW4 5232   1.784   0.400   2.371
 1301SOL     OW 5233   2.014   0.500   2.264
 1301SOL    HW2 5234   2.007   0.590   2.293
 1301SOL    HW3 5235   2.002   0.504   2.169
 1301SOL    MW4 5236   2.012   0.512   2.255
 1302SOL     OW 5237   1.994   0.761   2.361
 1302SOL    HW2 5238   2.065   0.808   2.317
 1302SOL    HW3 5239   1.916   0.811   2.341
 1302SOL    MW4 5240   1.993   0.774   2.353
 1303SOL     OW 5241   1.781   0.916   2.280
 1303SOL    HW2 5242   1.780   1.003   2.321
 1303SOL    HW3 5243   1.767   0.934   2.187
 1303SOL    MW4 5244   1.779   0.930   2.273
 1304SOL     OW 5245   1.790   1.173   2.378
 1304SOL    HW2 5246   1.872   1.209   2.343
 1304SOL    HW3 5247   1.721   1.226   2.338
 1304SOL    MW4 5248   1.792   1.185   2.368
 1305SOL     OW 5249   2.031   1.263   2.260
 1305SOL    HW2 5250   2.049   1.352   2.291
 1305SOL    HW3 5251   2.007   1.275   2.168
 1305SOL    MW4 5252   2.030   1.276   2.252
 1306SOL     OW 5253   2.040   1.541   2.370
 1306SOL    HW2 5254   2.038   1.527   2.465
 1306SOL    HW3 5255   1.953   1.575   2.348
 1306SOL    MW4 5256   2.029   1.544   2.380
 1307SOL     OW 5257   1.790   1.660   2.264
 1307SOL    HW2 5258   1.788   1.755   2.277
 1307SOL    HW3 5259   1.798   1.649   2.169
 1307SOL    MW4 5260   1.791   1.671   2.253
 1308SOL     OW 5261   1.781   1.937   2.364
 1308SOL    HW2 5262   1.778   1.919   2.458
 1308SOL    HW3 5263   1.863   1.986   2.352
 1308SOL    MW4 5264   1.792   1.941   2.375
 1309SOL     OW 5265   2.010   2.088   2.307
 1309SOL    HW2 5266   2.079   2.035   2.349
 1309SOL    HW3 5267   2.025   2.078   2.214
 1309SOL    MW4 5268   2.021   2.080   2.301
 1310SOL     OW 5269   2.014   2.363   2.377
 1310SOL    HW2 5270   2.095   2.395   2.337
 1310SOL    HW3 5271   2.005   2.274   2.344
 1310SOL    MW4 5272   2.023   2.355   2.367
 1311SOL     OW 5273   1.792   2.446   2.234
 1311SOL    HW2 5274   1.867   2.424   2.289
 1311SOL    HW3 5275   1.716   2.417   2.283
 1311SOL    MW4 5276   1.792   2.439   2.248
 1312SOL     OW 5277   1.803   2.713   2.282
 1312SOL    HW2 5278   1.777   2.622   2.264
 1312SOL    HW3 5279   1.723   2.764   2.267
 1312SOL    MW4 5280   1.789   2.708   2.278
 1313SOL     OW 5281   2.041   2.846   2.208
 1313SOL    HW2 5282   2.106   2.788   2.248
 1313SOL    HW3 5283   1.959   2.797   2.212
 1313SOL    MW4 5284   2.038   2.832   2.214
 1314SOL     OW 5285   2.048   3.087   2.369
 1314SOL    HW2 5286   2.129   3.127   2.338
 1314SOL    HW3 5287   2.047   3.001   2.326
 1314SOL    MW4 5288   2.059   3.081   2.359
 1315SOL     OW 5289   1.839   3.215   2.239
 1315SOL    HW2 5290   1.907   3.173   2.292
 1315SOL    HW3 5291   1.758   3.172   2.267
 1315SOL    MW4 5292   1.837   3.204   2.250
 1316SOL     OW 5293   1.825   3.456   2.357
 1316SOL    HW2 5294   1.839   3.370   2.317
 1316SOL    HW3 5295   1.745   3.488   2.317
 1316SOL    MW4 5296   1.817   3.448   2.346
 1317SOL     OW 5297   2.026   3.593   2.215
 1317SOL    HW2 5298   1.953   3.538   2.243
 1317SOL    HW3 5299   2.026   3.586   2.120
 1317SOL    MW4 5300   2.016   3.585   2.207
 1318SOL     OW 5301   2.035   3.867   2.302
 1318SOL    HW2 5302   2.025   3.873   2.397
 1318SOL    HW3 5303   2.017   3.776   2.281
 1318SOL    MW4 5304   2.031   3.856   2.312
 1319SOL     OW 5305   1.791   3.975   2.239
 1319SOL    HW2 5306   1.882   3.951   2.256
 1319SOL    HW3 5307   1.784   3.977   2.144
 1319SOL    MW4 5308   1.802   3.972   2.229
 1320SOL     OW 5309   1.819   4.238   2.356
 1320SOL    HW2 5310   1.813   4.150   2.321
 1320SOL    HW3 5311   1.742   4.284   2.321
 1320SOL    MW4 5312   1.808   4.233   2.347
 1321SOL     OW 5313   2.007   4.439   2.242
 1321SOL    HW2 5314   1.940   4.378   2.273
 1321SOL    HW3 5315   2.016   4.419   2.149
 1321SOL    MW4 5316   1.999   4.428   2.234
 1322SOL     OW 5317   2.479   4.658   2.399
 1322SOL    HW2 5318   2.556   4.697   2.358
 1322SOL    HW3 5319   2.478   4.567   2.368
 1322SOL    MW4 5320   2.489   4.651   2.390
 1323SOL     OW 5321   2.277   0.143   2.264
 1323SOL    HW2 5322   2.274   0.231   2.301
 1323SOL    HW3 5323   2.348   0.099   2.311
 1323SOL    MW4 5324   2.286   0.148   2.275
 1324SOL     OW 5325   2.230   0.388   2.385
 1324SOL    HW2 5326   2.308   0.431   2.350
 1324SOL    HW3 5327   2.157   0.427   2.337
 1324SOL    MW4 5328   2.230   0.399   2.374
 1325SOL     OW 5329   2.472   0.475   2.275
 1325SOL    HW2 5330   2.546   0.429   2.314
 1325SOL    HW3 5331   2.482   0.462   2.181
 1325SOL    MW4 5332   2.483   0.468   2.268
 1326SOL     OW 5333   2.446   0.747   2.327
 1326SOL    HW2 5334   2.537   0.774   2.317
 1326SOL    HW3 5335   2.446   0.655   2.299
 1326SOL    MW4 5336   2.458   0.738   2.322
 1327SOL     OW 5337   2.219   0.846   2.217
 1327SOL    HW2 5338   2.215   0.935   2.252
 1327SOL    HW3 5339   2.299   0.809   2.254
 1327SOL    MW4 5340   2.229   0.853   2.226
 1328SOL     OW 5341   2.240   1.108   2.306
 1328SOL    HW2 5342   2.312   1.167   2.285
 1328SOL    HW3 5343   2.162   1.149   2.267
 1328SOL    MW4 5344   2.239   1.121   2.298
 1329SOL     OW 5345   2.475   1.249   2.259
 1329SOL    HW2 5346   2.559   1.206   2.274
 1329SOL    HW3 5347   2.485   1.336   2.296
 1329SOL    MW4 5348   2.487   1.255   2.266
 1330SOL     OW 5349   2.500   1.514   2.350
 1330SOL    HW2 5350   2.511   1.499   2.444
 1330SOL    HW3 5351   2.580   1.559   2.323
 1330SOL    MW4 5352   2.512   1.518   2.359
 1331SOL     OW 5353   2.260   1.662   2.254
 1331SOL    HW2 5354   2.324   1.599   2.287
 1331SOL    HW3 5355   2.182   1.647   2.307
 1331SOL    MW4 5356   2.258   1.652   2.265
 1332SOL     OW 5357   2.236   1.933   2.388
 1332SOL    HW2 5358   2.294   1.989   2.336
 1332SOL    HW3 5359   2.255   1.844   2.357
 1332SOL    MW4 5360   2.246   1.929   2.377
 1333SOL     OW 5361   2.425   2.083   2.231
 1333SOL    HW2 5362   2.500   2.029   2.256
 1333SOL    HW3 5363   2.435   2.097   2.137
 1333SOL    MW4 5364   2.436   2.078   2.222
 1334SOL     OW 5365   2.450   2.311   2.375
 1334SOL    HW2 5366   2.526   2.352   2.334
 1334SOL    HW3 5367   2.445   2.224   2.335
 1334SOL    MW4 5368   2.459   2.305   2.365
 1335SOL     OW 5369   2.239   2.429   2.252
 1335SOL    HW2 5370   2.255   2.522   2.269
 1335SOL    HW3 5371   2.311   2.384   2.296
 1335SOL    MW4 5372   2.251   2.436   2.260
 1336SOL     OW 5373   2.260   2.693   2.327
 1336SOL    HW2 5374   2.234   2.687   2.419
 1336SOL    HW3 5375   2.343   2.742   2.329
 1336SOL    MW4 5376   2.268   2.699   2.339
 1337SOL     OW 5377   2.512   2.828   2.272
 1337SOL    HW2 5378   2.583   2.779   2.314
 1337SOL    HW3 5379   2.525   2.813   2.178
 1337SOL    MW4 5380   2.523   2.820   2.265
 1338SOL     OW 5381   2.475   3.111   2.332
 1338SOL    HW2 5382   2.567   3.138   2.324
 1338SOL    HW3 5383   2.477   3.016   2.321
 1338SOL    MW4 5384   2.487   3.102   2.329
 1339SOL     OW 5385   2.243   3.233   2.246
 1339SOL    HW2 5386   2.249   3.321   2.283
 1339SOL    HW3 5387   2.325   3.191   2.273
 1339SOL    MW4 5388   2.255   3.239   2.255
 1340SOL     OW 5389   2.270   3.486   2.347
 1340SOL    HW2 5390   2.251   3.486   2.441
 1340SOL    HW3 5391   2.197   3.534   2.308
 1340SOL    MW4 5392   2.258   3.493   2.355
 1341SOL     OW 5393   2.483   3.643   2.238
 1341SOL    HW2 5394   2.498   3.728   2.280
 1341SOL    HW3 5395   2.407   3.607   2.283
 1341SOL    MW4 5396   2.475   3.650   2.249
 1342SOL     OW 5397   2.494   3.891   2.337
 1342SOL    HW2 5398   2.495   3.899   2.433
 1342SOL    HW3 5399   2.418   3.943   2.310
 1342SOL    MW4 5400   2.484   3.899   2.346
 1343SOL     OW 5401   2.266   4.025   2.230
 1343SOL    HW2 5402   2.252   4.113   2.266
 1343SOL    HW3 5403   2.194   3.973   2.266
 1343SOL    MW4 5404   2.255   4.030   2.240
 1344SOL     OW 5405   2.220   4.280   2.342
 1344SOL    HW2 5406   2.211   4.279   2.437
 1344SOL    HW3 5407   2.146   4.332   2.311
 1344SOL    MW4 5408   2.209   4.287   2.350
 1345SOL     OW 5409   2.468   4.406   2.295
 1345SOL    HW2 5410   2.539   4.349   2.323
 1345SOL    HW3 5411   2.388   4.357   2.316
 1345SOL    MW4 5412   2.467   4.392   2.302
 1346SOL     OW 5413   2.919   4.621   2.405
 1346SOL    HW2 5414   2.998   4.658   2.368
 1346SOL    HW3 5415   2.902   4.542   2.354
 1346SOL    MW4 5416   2.927   4.615   2.394
 1347SOL     OW 5417   2.709   0.093   2.270
 1347SOL    HW2 5418   2.698   0.184   2.299
 1347SOL    HW3 5419   2.778   0.058   2.327
 1347SOL    MW4 5420   2.717   0.101   2.281
 1348SOL     OW 5421   2.698   0.352   2.384
 1348SOL    HW2 5422   2.701   0.366   2.479
 1348SOL    HW3 5423   2.774   0.398   2.350
 1348SOL    MW4 5424   2.708   0.360   2.392
 1349SOL     OW 5425   2.908   0.457   2.250
 1349SOL    HW2 5426   2.913   0.550   2.270
 1349SOL    HW3 5427   2.909   0.453   2.155
 1349SOL    MW4 5428   2.909   0.469   2.240
 1350SOL     OW 5429   2.898   0.739   2.325
 1350SOL    HW2 5430   2.921   0.734   2.418
 1350SOL    HW3 5431   2.820   0.794   2.323
 1350SOL    MW4 5432   2.891   0.746   2.337
 1351SOL     OW 5433   2.675   0.868   2.262
 1351SOL    HW2 5434   2.678   0.960   2.289
 1351SOL    HW3 5435   2.694   0.871   2.168
 1351SOL    MW4 5436   2.678   0.881   2.253
 1352SOL     OW 5437   2.732   1.117   2.344
 1352SOL    HW2 5438   2.729   1.124   2.439
 1352SOL    HW3 5439   2.808   1.169   2.318
 1352SOL    MW4 5440   2.741   1.125   2.353
 1353SOL     OW 5441   2.956   1.247   2.263
 1353SOL    HW2 5442   3.040   1.201   2.274
 1353SOL    HW3 5443   2.946   1.254   2.168
 1353SOL    MW4 5444   2.966   1.242   2.252
 1354SOL     OW 5445   2.941   1.552   2.369
 1354SOL    HW2 5446   2.937   1.556   2.464
 1354SOL    HW3 5447   2.936   1.458   2.349
 1354SOL    MW4 5448   2.940   1.540   2.379
 1355SOL     OW 5449   2.709   1.670   2.250
 1355SOL    HW2 5450   2.777   1.628   2.303
 1355SOL    HW3 5451   2.744   1.669   2.161
 1355SOL    MW4 5452   2.723   1.664   2.245
 1356SOL     OW 5453   2.663   1.943   2.324
 1356SOL    HW2 5454   2.664   1.946   2.419
 1356SOL    HW3 5455   2.668   1.851   2.302
 1356SOL    MW4 5456   2.664   1.931   2.333
 1357SOL     OW 5457   2.916   2.067   2.251
 1357SOL    HW2 5458   2.994   2.018   2.279
 1357SOL    HW3 5459   2.843   2.022   2.294
 1357SOL    MW4 5460   2.917   2.054   2.260
 1358SOL     OW 5461   2.894   2.339   2.337
 1358SOL    HW2 5462   2.910   2.336   2.431
 1358SOL    HW3 5463   2.910   2.250   2.307
 1358SOL    MW4 5464   2.898   2.327   2.345
 1359SOL     OW 5465   2.656   2.447   2.256
 1359SOL    HW2 5466   2.740   2.412   2.286
 1359SOL    HW3 5467   2.664   2.451   2.161
 1359SOL    MW4 5468   2.669   2.443   2.248
 1360SOL     OW 5469   2.714   2.685   2.397
 1360SOL    HW2 5470   2.785   2.729   2.350
 1360SOL    HW3 5471   2.699   2.605   2.347
 1360SOL    MW4 5472   2.722   2.680   2.384
 1361SOL     OW 5473   2.917   2.810   2.241
 1361SOL    HW2 5474   2.916   2.904   2.257
 1361SOL    HW3 5475   2.903   2.802   2.146
 1361SOL    MW4 5476   2.915   2.821   2.230
 1362SOL     OW 5477   2.939   3.077   2.338
 1362SOL    HW2 5478   3.020   3.122   2.314
 1362SOL    HW3 5479   2.869   3.140   2.319
 1362SOL    MW4 5480   2.940   3.091   2.332
 1363SOL     OW 5481   2.726   3.226   2.264
 1363SOL    HW2 5482   2.708   3.319   2.276
 1363SOL    HW3 5483   2.743   3.216   2.170
 1363SOL    MW4 5484   2.726   3.237   2.253
 1364SOL     OW 5485   2.710   3.499   2.319
 1364SOL    HW2 5486   2.783   3.559   2.302
 1364SOL    HW3 5487   2.633   3.544   2.285
 1364SOL    MW4 5488   2.710   3.513   2.312
 1365SOL     OW 5489   2.960   3.628   2.263
 1365SOL    HW2 5490   3.035   3.577   2.294
 1365SOL    HW3 5491   2.963   3.709   2.314
 1365SOL    MW4 5492   2.970   3.632   2.274
 1366SOL     OW 5493   2.930   3.877   2.387
 1366SOL    HW2 5494   2.906   3.894   2.478
 1366SOL    HW3 5495   2.858   3.913   2.335
 1366SOL    MW4 5496   2.918   3.884   2.392
 1367SOL     OW 5497   2.727   3.982   2.242
 1367SOL    HW2 5498   2.647   3.944   2.277
 1367SOL    HW3 5499   2.709   3.995   2.149
 1367SOL    MW4 5500   2.714   3.979   2.234
 1368SOL     OW 5501   2.699   4.230   2.341
 1368SOL    HW2 5502   2.700   4.227   2.437
 1368SOL    HW3 5503   2.695   4.138   2.315
 1368SOL    MW4 5504   2.698   4.217   2.350
 1369SOL     OW 5505   2.893   4.399   2.246
 1369SOL    HW2 5506   2.961   4.355   2.296
 1369SOL    HW3 5507   2.812   4.355   2.272
 1369SOL    MW4 5508   2.891   4.388   2.256
 1370SOL     OW 5509   3.387   4.608   2.364
 1370SOL    HW2 5510   3.400   4.619   2.458
 1370SOL    HW3 5511   3.454   4.664   2.324
 1370SOL    MW4 5512   3.397   4.616   2.371
 1371SOL     OW 5513   3.171   0.083   2.274
 1371SOL    HW2 5514   3.170   0.175   2.303
 1371SOL    HW3 5515   3.254   0.049   2.307
 1371SOL    MW4 5516   3.182   0.091   2.282
 1372SOL     OW 5517   3.143   0.369   2.356
 1372SOL    HW2 5518   3.214   0.419   2.315
 1372SOL    HW3 5519   3.064   0.395   2.308
 1372SOL    MW4 5520   3.142   0.379   2.344
 1373SOL     OW 5521   3.349   0.508   2.256
 1373SOL    HW2 5522   3.428   0.462   2.284
 1373SOL    HW3 5523   3.354   0.510   2.161
 1373SOL    MW4 5524   3.360   0.502   2.247
 1374SOL     OW 5525   3.355   0.751   2.370
 1374SOL    HW2 5526   3.436   0.794   2.342
 1374SOL    HW3 5527   3.361   0.662   2.335
 1374SOL    MW4 5528   3.366   0.745   2.361
 1375SOL     OW 5529   3.125   0.852   2.235
 1375SOL    HW2 5530   3.194   0.805   2.283
 1375SOL    HW3 5531   3.044   0.805   2.258
 1375SOL    MW4 5532   3.123   0.839   2.245
 1376SOL     OW 5533   3.175   1.112   2.342
 1376SOL    HW2 5534   3.258   1.143   2.306
 1376SOL    HW3 5535   3.165   1.024   2.306
 1376SOL    MW4 5536   3.185   1.105   2.332
 1377SOL     OW 5537   3.397   1.255   2.252
 1377SOL    HW2 5538   3.471   1.218   2.299
 1377SOL    HW3 5539   3.388   1.344   2.286
 1377SOL    MW4 5540   3.405   1.261   2.262
 1378SOL     OW 5541   3.396   1.510   2.334
 1378SOL    HW2 5542   3.390   1.512   2.429
 1378SOL    HW3 5543   3.315   1.551   2.303
 1378SOL    MW4 5544   3.384   1.516   2.342
 1379SOL     OW 5545   3.145   1.641   2.228
 1379SOL    HW2 5546   3.139   1.733   2.254
 1379SOL    HW3 5547   3.067   1.600   2.264
 1379SOL    MW4 5548   3.134   1.648   2.236
 1380SOL     OW 5549   3.124   1.910   2.342
 1380SOL    HW2 5550   3.129   1.910   2.438
 1380SOL    HW3 5551   3.198   1.964   2.314
 1380SOL    MW4 5552   3.134   1.917   2.351
 1381SOL     OW 5553   3.345   2.022   2.258
 1381SOL    HW2 5554   3.422   1.977   2.295
 1381SOL    HW3 5555   3.365   2.031   2.165
 1381SOL    MW4 5556   3.358   2.017   2.251
 1382SOL     OW 5557   3.361   2.294   2.331
 1382SOL    HW2 5558   3.273   2.322   2.308
 1382SOL    HW3 5559   3.360   2.199   2.321
 1382SOL    MW4 5560   3.349   2.285   2.327
 1383SOL     OW 5561   3.141   2.431   2.226
 1383SOL    HW2 5562   3.159   2.525   2.232
 1383SOL    HW3 5563   3.060   2.419   2.275
 1383SOL    MW4 5564   3.133   2.442   2.233
 1384SOL     OW 5565   3.158   2.700   2.307
 1384SOL    HW2 5566   3.178   2.720   2.399
 1384SOL    HW3 5567   3.069   2.730   2.295
 1384SOL    MW4 5568   3.149   2.706   2.318
 1385SOL     OW 5569   3.358   2.846   2.189
 1385SOL    HW2 5570   3.377   2.933   2.224
 1385SOL    HW3 5571   3.283   2.816   2.241
 1385SOL    MW4 5572   3.350   2.853   2.201
 1386SOL     OW 5573   3.347   3.065   2.346
 1386SOL    HW2 5574   3.418   3.130   2.342
 1386SOL    HW3 5575   3.274   3.106   2.299
 1386SOL    MW4 5576   3.347   3.079   2.339
 1387SOL     OW 5577   3.148   3.208   2.246
 1387SOL    HW2 5578   3.152   3.294   2.288
 1387SOL    HW3 5579   3.145   3.226   2.153
 1387SOL    MW4 5580   3.148   3.222   2.240
 1388SOL     OW 5581   3.174   3.479   2.347
 1388SOL    HW2 5582   3.171   3.484   2.443
 1388SOL    HW3 5583   3.245   3.538   2.323
 1388SOL    MW4 5584   3.183   3.487   2.357
 1389SOL     OW 5585   3.363   3.663   2.249
 1389SOL    HW2 5586   3.444   3.627   2.284
 1389SOL    HW3 5587   3.369   3.648   2.154
 1389SOL    MW4 5588   3.375   3.656   2.241
 1390SOL     OW 5589   3.369   3.918   2.333
 1390SOL    HW2 5590   3.459   3.949   2.318
 1390SOL    HW3 5591   3.375   3.823   2.325
 1390SOL    MW4 5592   3.382   3.910   2.330
 1391SOL     OW 5593   3.120   4.024   2.267
 1391SOL    HW2 5594   3.201   3.988   2.303
 1391SOL    HW3 5595   3.051   3.967   2.301
 1391SOL    MW4 5596   3.122   4.012   2.276
 1392SOL     OW 5597   3.112   4.285   2.354
 1392SOL    HW2 5598   3.195   4.319   2.323
 1392SOL    HW3 5599   3.108   4.196   2.319
 1392SOL    MW4 5600   3.122   4.278   2.345
 1393SOL     OW 5601   3.344   4.370   2.232
 1393SOL    HW2 5602   3.364   4.452   2.277
 1393SOL    HW3 5603   3.352   4.392   2.139
 1393SOL    MW4 5604   3.348   4.383   2.225
 1394SOL     OW 5605   3.791   4.655   2.356
 1394SOL    HW2 5606   3.798   4.653   2.452
 1394SOL    HW3 5607   3.874   4.694   2.327
 1394SOL    MW4 5608   3.803   4.660   2.365
 1395SOL     OW 5609   3.561   0.116   2.252
 1395SOL    HW2 5610   3.576   0.206   2.280
 1395SOL    HW3 5611   3.642   0.070   2.277
 1395SOL    MW4 5612   3.574   0.122   2.259
 1396SOL     OW 5613   3.587   0.384   2.332
 1396SOL    HW2 5614   3.607   0.386   2.426
 1396SOL    HW3 5615   3.657   0.435   2.292
 1396SOL    MW4 5616   3.599   0.391   2.339
 1397SOL     OW 5617   3.799   0.512   2.238
 1397SOL    HW2 5618   3.827   0.597   2.272
 1397SOL    HW3 5619   3.800   0.523   2.143
 1397SOL    MW4 5620   3.803   0.525   2.230
 1398SOL     OW 5621   3.847   0.755   2.357
 1398SOL    HW2 5622   3.847   0.749   2.452
 1398SOL    HW3 5623   3.920   0.813   2.336
 1398SOL    MW4 5624   3.857   0.762   2.366
 1399SOL     OW 5625   3.581   0.869   2.276
 1399SOL    HW2 5626   3.660   0.823   2.304
 1399SOL    HW3 5627   3.594   0.884   2.182
 1399SOL    MW4 5628   3.593   0.865   2.267
 1400SOL     OW 5629   3.627   1.137   2.341
 1400SOL    HW2 5630   3.639   1.148   2.435
 1400SOL    HW3 5631   3.611   1.043   2.330
 1400SOL    MW4 5632   3.626   1.126   2.352
 1401SOL     OW 5633   3.810   1.321   2.239
 1401SOL    HW2 5634   3.811   1.404   2.287
 1401SOL    HW3 5635   3.738   1.272   2.279
 1401SOL    MW4 5636   3.800   1.325   2.251
 1402SOL     OW 5637   3.836   1.563   2.337
 1402SOL    HW2 5638   3.830   1.541   2.430
 1402SOL    HW3 5639   3.749   1.597   2.315
 1402SOL    MW4 5640   3.824   1.565   2.346
 1403SOL     OW 5641   3.601   1.662   2.269
 1403SOL    HW2 5642   3.526   1.603   2.270
 1403SOL    HW3 5643   3.622   1.673   2.177
 1403SOL    MW4 5644   3.594   1.656   2.257
 1404SOL     OW 5645   3.582   1.920   2.366
 1404SOL    HW2 5646   3.657   1.962   2.324
 1404SOL    HW3 5647   3.591   1.828   2.344
 1404SOL    MW4 5648   3.593   1.914   2.358
 1405SOL     OW 5649   3.803   2.053   2.266
 1405SOL    HW2 5650   3.888   2.031   2.303
 1405SOL    HW3 5651   3.814   2.045   2.172
 1405SOL    MW4 5652   3.816   2.049   2.259
 1406SOL     OW 5653   3.849   2.365   2.351
 1406SOL    HW2 5654   3.762   2.400   2.330
 1406SOL    HW3 5655   3.853   2.282   2.303
 1406SOL    MW4 5656   3.838   2.358   2.342
 1407SOL     OW 5657   3.587   2.445   2.263
 1407SOL    HW2 5658   3.529   2.370   2.273
 1407SOL    HW3 5659   3.600   2.452   2.168
 1407SOL    MW4 5660   3.582   2.436   2.251
 1408SOL     OW 5661   3.555   2.700   2.349
 1408SOL    HW2 5662   3.557   2.606   2.333
 1408SOL    HW3 5663   3.480   2.732   2.299
 1408SOL    MW4 5664   3.545   2.692   2.340
 1409SOL     OW 5665   3.799   2.847   2.275
 1409SOL    HW2 5666   3.796   2.937   2.308
 1409SOL    HW3 5667   3.710   2.815   2.284
 1409SOL    MW4 5668   3.787   2.855   2.281
 1410SOL     OW 5669   3.819   3.114   2.356
 1410SOL    HW2 5670   3.814   3.109   2.452
 1410SOL    HW3 5671   3.907   3.146   2.338
 1410SOL    MW4 5672   3.830   3.117   2.366
 1411SOL     OW 5673   3.565   3.239   2.303
 1411SOL    HW2 5674   3.581   3.329   2.334
 1411SOL    HW3 5675   3.646   3.192   2.323
 1411SOL    MW4 5676   3.578   3.245   2.310
 1412SOL     OW 5677   3.561   3.510   2.387
 1412SOL    HW2 5678   3.563   3.515   2.483
 1412SOL    HW3 5679   3.634   3.565   2.359
 1412SOL    MW4 5680   3.571   3.518   2.396
 1413SOL     OW 5681   3.794   3.622   2.299
 1413SOL    HW2 5682   3.792   3.716   2.315
 1413SOL    HW3 5683   3.828   3.613   2.210
 1413SOL    MW4 5684   3.798   3.633   2.289
 1414SOL     OW 5685   3.831   3.887   2.342
 1414SOL    HW2 5686   3.825   3.888   2.438
 1414SOL    HW3 5687   3.905   3.944   2.322
 1414SOL    MW4 5688   3.840   3.895   2.352
 1415SOL     OW 5689   3.609   4.012   2.232
 1415SOL    HW2 5690   3.614   4.095   2.279
 1415SOL    HW3 5691   3.694   3.970   2.249
 1415SOL    MW4 5692   3.621   4.017   2.241
 1416SOL     OW 5693   3.586   4.259   2.338
 1416SOL    HW2 5694   3.659   4.310   2.301
 1416SOL    HW3 5695   3.509   4.290   2.290
 1416SOL    MW4 5696   3.586   4.270   2.327
 1417SOL     OW 5697   3.815   4.394   2.254
 1417SOL    HW2 5698   3.898   4.354   2.280
 1417SOL    HW3 5699   3.811   4.476   2.304
 1417SOL    MW4 5700   3.825   4.400   2.264
 1418SOL     OW 5701   4.232   4.665   2.367
 1418SOL    HW2 5702   4.236   4.659   2.463
 1418SOL    HW3 5703   4.306   4.721   2.344
 1418SOL    MW4 5704   4.242   4.672   2.377
 1419SOL     OW 5705   4.017   0.135   2.247
 1419SOL    HW2 5706   4.013   0.221   2.288
 1419SOL    HW3 5707   4.081   0.087   2.299
 1419SOL    MW4 5708   4.025   0.140   2.259
 1420SOL     OW 5709   4.028   0.393   2.346
 1420SOL    HW2 5710   4.105   0.423   2.297
 1420SOL    HW3 5711   3.954   0.412   2.288
 1420SOL    MW4 5712   4.028   0.399   2.332
 1421SOL     OW 5713   4.241   0.506   2.211
 1421SOL    HW2 5714   4.230   0.594   2.246
 1421SOL    HW3 5715   4.313   0.469   2.262
 1421SOL    MW4 5716   4.249   0.512   2.223
 1422SOL     OW 5717   4.242   0.765   2.330
 1422SOL    HW2 5718   4.167   0.823   2.314
 1422SOL    HW3 5719   4.317   0.811   2.292
 1422SOL    MW4 5720   4.242   0.779   2.323
 1423SOL     OW 5721   4.039   0.942   2.261
 1423SOL    HW2 5722   4.052   1.032   2.289
 1423SOL    HW3 5723   4.054   0.944   2.166
 1423SOL    MW4 5724   4.043   0.954   2.252
 1424SOL     OW 5725   4.033   1.187   2.355
 1424SOL    HW2 5726   4.014   1.181   2.449
 1424SOL    HW3 5727   3.955   1.225   2.317
 1424SOL    MW4 5728   4.020   1.191   2.363
 1425SOL     OW 5729   4.266   1.290   2.239
 1425SOL    HW2 5730   4.193   1.255   2.290
 1425SOL    HW3 5731   4.344   1.249   2.276
 1425SOL    MW4 5732   4.267   1.280   2.250
 1426SOL     OW 5733   4.273   1.563   2.358
 1426SOL    HW2 5734   4.278   1.476   2.320
 1426SOL    HW3 5735   4.355   1.606   2.334
 1426SOL    MW4 5736   4.284   1.557   2.350
 1427SOL     OW 5737   4.069   1.704   2.241
 1427SOL    HW2 5738   4.140   1.656   2.284
 1427SOL    HW3 5739   3.989   1.661   2.273
 1427SOL    MW4 5740   4.068   1.692   2.251
 1428SOL     OW 5741   4.051   1.960   2.362
 1428SOL    HW2 5742   4.042   1.951   2.457
 1428SOL    HW3 5743   4.055   1.870   2.329
 1428SOL    MW4 5744   4.050   1.947   2.370
 1429SOL     OW 5745   4.269   2.093   2.239
 1429SOL    HW2 5746   4.289   2.184   2.261
 1429SOL    HW3 5747   4.197   2.069   2.298
 1429SOL    MW4 5748   4.262   2.102   2.250
 1430SOL     OW 5749   4.292   2.370   2.334
 1430SOL    HW2 5750   4.218   2.422   2.304
 1430SOL    HW3 5751   4.369   2.421   2.310
 1430SOL    MW4 5752   4.292   2.384   2.327
 1431SOL     OW 5753   4.068   2.516   2.268
 1431SOL    HW2 5754   4.046   2.598   2.313
 1431SOL    HW3 5755   3.994   2.458   2.286
 1431SOL    MW4 5756   4.056   2.520   2.276
 1432SOL     OW 5757   4.041   2.755   2.407
 1432SOL    HW2 5758   4.042   2.748   2.502
 1432SOL    HW3 5759   3.966   2.812   2.388
 1432SOL    MW4 5760   4.031   2.761   2.417
 1433SOL     OW 5761   4.261   2.879   2.264
 1433SOL    HW2 5762   4.182   2.840   2.302
 1433SOL    HW3 5763   4.331   2.819   2.289
 1433SOL    MW4 5764   4.260   2.866   2.272
 1434SOL     OW 5765   4.268   3.118   2.391
 1434SOL    HW2 5766   4.253   3.031   2.354
 1434SOL    HW3 5767   4.326   3.161   2.329
 1434SOL    MW4 5768   4.274   3.112   2.378
 1435SOL     OW 5769   4.076   3.218   2.220
 1435SOL    HW2 5770   4.047   3.299   2.262
 1435SOL    HW3 5771   4.134   3.177   2.284
 1435SOL    MW4 5772   4.080   3.223   2.234
 1436SOL     OW 5773   4.019   3.464   2.363
 1436SOL    HW2 5774   4.092   3.524   2.374
 1436SOL    HW3 5775   3.944   3.521   2.348
 1436SOL    MW4 5776   4.019   3.480   2.362
 1437SOL     OW 5777   4.258   3.617   2.307
 1437SOL    HW2 5778   4.271   3.712   2.312
 1437SOL    HW3 5779   4.259   3.598   2.213
 1437SOL    MW4 5780   4.260   3.627   2.295
 1438SOL     OW 5781   4.298   3.882   2.330
 1438SOL    HW2 5782   4.285   3.890   2.424
 1438SOL    HW3 5783   4.382   3.924   2.314
 1438SOL    MW4 5784   4.307   3.888   2.340
 1439SOL     OW 5785   4.054   4.026   2.248
 1439SOL    HW2 5786   4.143   4.003   2.273
 1439SOL    HW3 5787   4.053   4.019   2.153
 1439SOL    MW4 5788   4.065   4.022   2.239
 1440SOL     OW 5789   4.040   4.291   2.346
 1440SOL    HW2 5790   4.125   4.329   2.326
 1440SOL    HW3 5791   4.042   4.204   2.306
 1440SOL    MW4 5792   4.051   4.284   2.338
 1441SOL     OW 5793   4.272   4.420   2.238
 1441SOL    HW2 5794   4.265   4.506   2.278
 1441SOL    HW3 5795   4.337   4.374   2.290
 1441SOL    MW4 5796   4.279   4.425   2.250
 1442SOL     OW 5797   0.226   4.664   2.601
 1442SOL    HW2 5798   0.214   4.580   2.646
 1442SOL    HW3 5799   0.147   4.714   2.623
 1442SOL    MW4 5800   0.214   4.659   2.610
 1443SOL     OW 5801   0.003   0.139   2.719
 1443SOL    HW2 5802   0.012   0.136   2.814
 1443SOL    HW3 5803  -0.010   0.232   2.699
 1443SOL    MW4 5804   0.002   0.151   2.729
 1444SOL     OW 5805   4.475   0.408   2.628
 1444SOL    HW2 5806   4.558   0.447   2.656
 1444SOL    HW3 5807   4.472   0.425   2.534
 1444SOL    MW4 5808   4.486   0.415   2.620
 1445SOL     OW 5809   0.229   0.512   2.693
 1445SOL    HW2 5810   0.235   0.522   2.788
 1445SOL    HW3 5811   0.316   0.481   2.667
 1445SOL    MW4 5812   0.241   0.509   2.702
 1446SOL     OW 5813   0.275   0.752   2.583
 1446SOL    HW2 5814   0.346   0.798   2.629
 1446SOL    HW3 5815   0.268   0.668   2.627
 1446SOL    MW4 5816   0.284   0.747   2.595
 1447SOL     OW 5817   0.060   0.866   2.715
 1447SOL    HW2 5818  -0.016   0.823   2.674
 1447SOL    HW3 5819   0.135   0.834   2.666
 1447SOL    MW4 5820   0.060   0.856   2.703
 1448SOL     OW 5821   0.017   1.159   2.628
 1448SOL    HW2 5822   0.079   1.211   2.680
 1448SOL    HW3 5823   0.035   1.068   2.653
 1448SOL    MW4 5824   0.028   1.154   2.639
 1449SOL     OW 5825   0.208   1.298   2.755
 1449SOL    HW2 5826   0.291   1.255   2.731
 1449SOL    HW3 5827   0.216   1.386   2.719
 1449SOL    MW4 5828   0.220   1.304   2.747
 1450SOL     OW 5829   0.262   1.551   2.620
 1450SOL    HW2 5830   0.325   1.608   2.663
 1450SOL    HW3 5831   0.177   1.583   2.648
 1450SOL    MW4 5832   0.259   1.562   2.630
 1451SOL     OW 5833   0.003   1.659   2.714
 1451SOL    HW2 5834   0.024   1.663   2.807
 1451SOL    HW3 5835  -0.010   1.750   2.688
 1451SOL    MW4 5836   0.004   1.672   2.723
 1452SOL     OW 5837   4.433   1.922   2.634
 1452SOL    HW2 5838   4.503   1.968   2.679
 1452SOL    HW3 5839   4.462   1.917   2.542
 1452SOL    MW4 5840   4.446   1.927   2.627
 1453SOL     OW 5841   0.158   2.064   2.762
 1453SOL    HW2 5842   0.242   2.041   2.722
 1453SOL    HW3 5843   0.147   2.157   2.744
 1453SOL    MW4 5844   0.167   2.073   2.754
 1454SOL     OW 5845   0.214   2.327   2.675
 1454SOL    HW2 5846   0.291   2.372   2.711
 1454SOL    HW3 5847   0.142   2.389   2.685
 1454SOL    MW4 5848   0.215   2.341   2.681
 1455SOL     OW 5849   0.007   2.524   2.703
 1455SOL    HW2 5850   0.005   2.498   2.795
 1455SOL    HW3 5851  -0.061   2.472   2.661
 1455SOL    MW4 5852  -0.002   2.514   2.709
 1456SOL     OW 5853   4.483   2.784   2.639
 1456SOL    HW2 5854   4.394   2.810   2.664
 1456SOL    HW3 5855   4.490   2.692   2.667
 1456SOL    MW4 5856   4.472   2.775   2.646
 1457SOL     OW 5857   0.243   2.903   2.720
 1457SOL    HW2 5858   0.228   2.995   2.697
 1457SOL    HW3 5859   0.157   2.861   2.708
 1457SOL    MW4 5860   0.229   2.909   2.715
 1458SOL     OW 5861   0.236   3.180   2.636
 1458SOL    HW2 5862   0.331   3.192   2.638
 1458SOL    HW3 5863   0.217   3.160   2.544
 1458SOL    MW4 5864   0.246   3.179   2.624
 1459SOL     OW 5865   0.019   3.268   2.781
 1459SOL    HW2 5866  -0.047   3.210   2.743
 1459SOL    HW3 5867   0.096   3.257   2.726
 1459SOL    MW4 5868   0.021   3.259   2.769
 1460SOL     OW 5869   4.478   3.517   2.671
 1460SOL    HW2 5870   4.550   3.561   2.716
 1460SOL    HW3 5871   4.480   3.428   2.705
 1460SOL    MW4 5872   4.488   3.511   2.681
 1461SOL     OW 5873   0.225   3.668   2.730
 1461SOL    HW2 5874   0.238   3.675   2.824
 1461SOL    HW3 5875   0.295   3.610   2.700
 1461SOL    MW4 5876   0.236   3.662   2.738
 1462SOL     OW 5877   0.179   3.903   2.607
 1462SOL    HW2 5878   0.181   3.821   2.655
 1462SOL    HW3 5879   0.180   3.877   2.515
 1462SOL    MW4 5880   0.179   3.889   2.601
 1463SOL     OW 5881   4.447   4.045   2.694
 1463SOL    HW2 5882   4.454   4.134   2.659
 1463SOL    HW3 5883   4.529   4.003   2.666
 1463SOL    MW4 5884   4.459   4.051   2.685
 1464SOL     OW 5885   4.490   4.348   2.625
 1464SOL    HW2 5886   4.419   4.367   2.686
 1464SOL    HW3 5887   4.569   4.383   2.667
 1464SOL    MW4 5888   4.491   4.355   2.638
 1465SOL     OW 5889   0.231   4.440   2.747
 1465SOL    HW2 5890   0.225   4.423   2.841
 1465SOL    HW3 5891   0.286   4.370   2.713
 1465SOL    MW4 5892   0.237   4.429   2.755
 1466SOL     OW 5893   0.673   4.646   2.596
 1466SOL    HW2 5894   0.753   4.695   2.615
 1466SOL    HW3 5895   0.603   4.701   2.630
 1466SOL    MW4 5896   0.674   4.660   2.603
 1467SOL     OW 5897   0.462   0.139   2.677
 1467SOL    HW2 5898   0.465   0.146   2.773
 1467SOL    HW3 5899   0.381   0.092   2.658
 1467SOL    MW4 5900   0.452   0.134   2.687
 1468SOL     OW 5901   0.466   0.420   2.591
 1468SOL    HW2 5902   0.542   0.451   2.638
 1468SOL    HW3 5903   0.458   0.327   2.615
 1468SOL    MW4 5904   0.475   0.412   2.600
 1469SOL     OW 5905   0.676   0.554   2.712
 1469SOL    HW2 5906   0.685   0.545   2.807
 1469SOL    HW3 5907   0.751   0.506   2.676
 1469SOL    MW4 5908   0.687   0.546   2.719
 1470SOL     OW 5909   0.702   0.805   2.553
 1470SOL    HW2 5910   0.777   0.841   2.600
 1470SOL    HW3 5911   0.690   0.717   2.590
 1470SOL    MW4 5912   0.710   0.798   2.564
 1471SOL     OW 5913   0.480   0.873   2.721
 1471SOL    HW2 5914   0.461   0.965   2.700
 1471SOL    HW3 5915   0.560   0.854   2.672
 1471SOL    MW4 5916   0.488   0.883   2.712
 1472SOL     OW 5917   0.441   1.141   2.642
 1472SOL    HW2 5918   0.511   1.203   2.660
 1472SOL    HW3 5919   0.438   1.136   2.546
 1472SOL    MW4 5920   0.450   1.148   2.631
 1473SOL     OW 5921   0.629   1.341   2.710
 1473SOL    HW2 5922   0.646   1.356   2.803
 1473SOL    HW3 5923   0.700   1.285   2.681
 1473SOL    MW4 5924   0.641   1.336   2.718
 1474SOL     OW 5925   0.662   1.594   2.624
 1474SOL    HW2 5926   0.587   1.643   2.658
 1474SOL    HW3 5927   0.650   1.505   2.658
 1474SOL    MW4 5928   0.650   1.589   2.633
 1475SOL     OW 5929   0.439   1.704   2.751
 1475SOL    HW2 5930   0.438   1.711   2.847
 1475SOL    HW3 5931   0.425   1.794   2.721
 1475SOL    MW4 5932   0.437   1.717   2.760
 1476SOL     OW 5933   0.404   1.970   2.649
 1476SOL    HW2 5934   0.480   1.984   2.705
 1476SOL    HW3 5935   0.440   1.964   2.561
 1476SOL    MW4 5936   0.419   1.971   2.645
 1477SOL     OW 5937   0.672   2.043   2.747
 1477SOL    HW2 5938   0.677   2.038   2.842
 1477SOL    HW3 5939   0.757   2.013   2.717
 1477SOL    MW4 5940   0.684   2.039   2.756
 1478SOL     OW 5941   0.657   2.316   2.653
 1478SOL    HW2 5942   0.731   2.372   2.678
 1478SOL    HW3 5943   0.674   2.233   2.697
 1478SOL    MW4 5944   0.669   2.313   2.662
 1479SOL     OW 5945   0.451   2.466   2.749
 1479SOL    HW2 5946   0.447   2.551   2.704
 1479SOL    HW3 5947   0.523   2.419   2.706
 1479SOL    MW4 5948   0.460   2.471   2.737
 1480SOL     OW 5949   0.416   2.706   2.609
 1480SOL    HW2 5950   0.494   2.745   2.649
 1480SOL    HW3 5951   0.343   2.749   2.653
 1480SOL    MW4 5952   0.417   2.717   2.620
 1481SOL     OW 5953   0.650   2.819   2.717
 1481SOL    HW2 5954   0.661   2.832   2.811
 1481SOL    HW3 5955   0.678   2.901   2.677
 1481SOL    MW4 5956   0.656   2.831   2.724
 1482SOL     OW 5957   0.704   3.083   2.617
 1482SOL    HW2 5958   0.771   3.141   2.653
 1482SOL    HW3 5959   0.706   3.100   2.523
 1482SOL    MW4 5960   0.713   3.093   2.609
 1483SOL     OW 5961   0.501   3.235   2.736
 1483SOL    HW2 5962   0.483   3.233   2.830
 1483SOL    HW3 5963   0.572   3.171   2.724
 1483SOL    MW4 5964   0.508   3.226   2.746
 1484SOL     OW 5965   0.429   3.477   2.646
 1484SOL    HW2 5966   0.454   3.390   2.678
 1484SOL    HW3 5967   0.419   3.466   2.551
 1484SOL    MW4 5968   0.431   3.464   2.638
 1485SOL     OW 5969   0.658   3.621   2.713
 1485SOL    HW2 5970   0.656   3.641   2.806
 1485SOL    HW3 5971   0.587   3.559   2.699
 1485SOL    MW4 5972   0.649   3.616   2.723
 1486SOL     OW 5973   0.674   3.892   2.628
 1486SOL    HW2 5974   0.586   3.922   2.652
 1486SOL    HW3 5975   0.673   3.799   2.648
 1486SOL    MW4 5976   0.662   3.884   2.634
 1487SOL     OW 5977   0.422   4.001   2.689
 1487SOL    HW2 5978   0.422   4.096   2.678
 1487SOL    HW3 5979   0.336   3.973   2.659
 1487SOL    MW4 5980   0.411   4.010   2.684
 1488SOL     OW 5981   0.449   4.280   2.647
 1488SOL    HW2 5982   0.534   4.314   2.675
 1488SOL    HW3 5983   0.440   4.308   2.556
 1488SOL    MW4 5984   0.459   4.288   2.639
 1489SOL     OW 5985   0.682   4.420   2.759
 1489SOL    HW2 5986   0.753   4.364   2.727
 1489SOL    HW3 5987   0.675   4.489   2.692
 1489SOL    MW4 5988   0.691   4.422   2.746
 1490SOL     OW 5989   1.120   4.641   2.658
 1490SOL    HW2 5990   1.202   4.677   2.692
 1490SOL    HW3 5991   1.121   4.549   2.688
 1490SOL    MW4 5992   1.131   4.633   2.667
 1491SOL     OW 5993   0.899   0.130   2.669
 1491SOL    HW2 5994   0.881   0.142   2.762
 1491SOL    HW3 5995   0.980   0.078   2.667
 1491SOL    MW4 5996   0.907   0.124   2.681
 1492SOL     OW 5997   0.883   0.412   2.586
 1492SOL    HW2 5998   0.878   0.321   2.615
 1492SOL    HW3 5999   0.897   0.406   2.492
 1492SOL    MW4 6000   0.884   0.399   2.578
 1493SOL     OW 6001   1.097   0.519   2.725
 1493SOL    HW2 6002   1.105   0.609   2.693
 1493SOL    HW3 6003   1.029   0.479   2.671
 1493SOL    MW4 6004   1.089   0.525   2.714
 1494SOL     OW 6005   1.142   0.803   2.641
 1494SOL    HW2 6006   1.210   0.854   2.685
 1494SOL    HW3 6007   1.157   0.819   2.548
 1494SOL    MW4 6008   1.153   0.812   2.635
 1495SOL     OW 6009   0.905   0.934   2.706
 1495SOL    HW2 6010   0.888   0.911   2.798
 1495SOL    HW3 6011   0.990   0.896   2.687
 1495SOL    MW4 6012   0.914   0.926   2.716
 1496SOL     OW 6013   0.850   1.185   2.636
 1496SOL    HW2 6014   0.871   1.102   2.678
 1496SOL    HW3 6015   0.888   1.178   2.549
 1496SOL    MW4 6016   0.857   1.173   2.630
 1497SOL     OW 6017   1.065   1.307   2.761
 1497SOL    HW2 6018   1.081   1.398   2.733
 1497SOL    HW3 6019   0.992   1.278   2.708
 1497SOL    MW4 6020   1.058   1.315   2.750
 1498SOL     OW 6021   1.112   1.564   2.636
 1498SOL    HW2 6022   1.032   1.613   2.657
 1498SOL    HW3 6023   1.116   1.567   2.540
 1498SOL    MW4 6024   1.102   1.571   2.626
 1499SOL     OW 6025   0.905   1.709   2.720
 1499SOL    HW2 6026   0.902   1.724   2.815
 1499SOL    HW3 6027   0.820   1.668   2.700
 1499SOL    MW4 6028   0.893   1.705   2.730
 1500SOL     OW 6029   0.912   1.984   2.629
 1500SOL    HW2 6030   0.985   2.017   2.682
 1500SOL    HW3 6031   0.903   1.892   2.655
 1500SOL    MW4 6032   0.921   1.976   2.640
 1501SOL     OW 6033   1.146   2.080   2.772
 1501SOL    HW2 6034   1.219   2.050   2.718
 1501SOL    HW3 6035   1.138   2.173   2.751
 1501SOL    MW4 6036   1.155   2.089   2.762
 1502SOL     OW 6037   1.111   2.339   2.673
 1502SOL    HW2 6038   1.189   2.393   2.689
 1502SOL    HW3 6039   1.095   2.348   2.579
 1502SOL    MW4 6040   1.120   2.347   2.662
 1503SOL     OW 6041   0.859   2.464   2.736
 1503SOL    HW2 6042   0.855   2.547   2.689
 1503SOL    HW3 6043   0.941   2.423   2.707
 1503SOL    MW4 6044   0.869   2.470   2.726
 1504SOL     OW 6045   0.864   2.702   2.587
 1504SOL    HW2 6046   0.939   2.745   2.627
 1504SOL    HW3 6047   0.789   2.733   2.637
 1504SOL    MW4 6048   0.864   2.712   2.599
 1505SOL     OW 6049   1.083   2.832   2.731
 1505SOL    HW2 6050   1.106   2.825   2.824
 1505SOL    HW3 6051   1.159   2.795   2.686
 1505SOL    MW4 6052   1.096   2.826   2.738
 1506SOL     OW 6053   1.148   3.096   2.649
 1506SOL    HW2 6054   1.122   3.007   2.672
 1506SOL    HW3 6055   1.136   3.101   2.554
 1506SOL    MW4 6056   1.143   3.085   2.639
 1507SOL     OW 6057   0.919   3.208   2.741
 1507SOL    HW2 6058   0.903   3.286   2.688
 1507SOL    HW3 6059   1.006   3.179   2.712
 1507SOL    MW4 6060   0.928   3.215   2.730
 1508SOL     OW 6061   0.887   3.462   2.599
 1508SOL    HW2 6062   0.961   3.508   2.641
 1508SOL    HW3 6063   0.810   3.512   2.628
 1508SOL    MW4 6064   0.887   3.475   2.608
 1509SOL     OW 6065   1.102   3.599   2.702
 1509SOL    HW2 6066   1.101   3.626   2.794
 1509SOL    HW3 6067   1.100   3.681   2.653
 1509SOL    MW4 6068   1.102   3.613   2.708
 1510SOL     OW 6069   1.098   3.851   2.580
 1510SOL    HW2 6070   1.178   3.889   2.618
 1510SOL    HW3 6071   1.110   3.859   2.486
 1510SOL    MW4 6072   1.110   3.857   2.573
 1511SOL     OW 6073   0.893   4.008   2.724
 1511SOL    HW2 6074   0.958   3.963   2.669
 1511SOL    HW3 6075   0.809   3.970   2.696
 1511SOL    MW4 6076   0.890   3.997   2.713
 1512SOL     OW 6077   0.888   4.266   2.648
 1512SOL    HW2 6078   0.892   4.174   2.673
 1512SOL    HW3 6079   0.884   4.265   2.553
 1512SOL    MW4 6080   0.888   4.254   2.639
 1513SOL     OW 6081   1.144   4.351   2.736
 1513SOL    HW2 6082   1.137   4.378   2.828
 1513SOL    HW3 6083   1.055   4.327   2.711
 1513SOL    MW4 6084   1.131   4.351   2.745
 1514SOL     OW 6085   1.599   4.633   2.621
 1514SOL    HW2 6086   1.588   4.542   2.647
 1514SOL    HW3 6087   1.598   4.631   2.525
 1514SOL    MW4 6088   1.598   4.621   2.612
 1515SOL     OW 6089   1.373   0.084   2.725
 1515SOL    HW2 6090   1.371   0.170   2.684
 1515SOL    HW3 6091   1.448   0.040   2.686
 1515SOL    MW4 6092   1.382   0.090   2.715
 1516SOL     OW 6093   1.317   0.355   2.608
 1516SOL    HW2 6094   1.404   0.392   2.624
 1516SOL    HW3 6095   1.257   0.414   2.653
 1516SOL    MW4 6096   1.321   0.367   2.616
 1517SOL     OW 6097   1.538   0.506   2.681
 1517SOL    HW2 6098   1.611   0.452   2.651
 1517SOL    HW3 6099   1.565   0.596   2.660
 1517SOL    MW4 6100   1.551   0.511   2.674
 1518SOL     OW 6101   1.603   0.776   2.662
 1518SOL    HW2 6102   1.537   0.834   2.700
 1518SOL    HW3 6103   1.596   0.791   2.568
 1518SOL    MW4 6104   1.593   0.785   2.654
 1519SOL     OW 6105   1.386   0.946   2.750
 1519SOL    HW2 6106   1.356   0.932   2.839
 1519SOL    HW3 6107   1.358   1.035   2.728
 1519SOL    MW4 6108   1.378   0.956   2.759
 1520SOL     OW 6109   1.296   1.181   2.626
 1520SOL    HW2 6110   1.377   1.227   2.647
 1520SOL    HW3 6111   1.226   1.239   2.658
 1520SOL    MW4 6112   1.297   1.195   2.633
 1521SOL     OW 6113   1.534   1.288   2.740
 1521SOL    HW2 6114   1.533   1.285   2.836
 1521SOL    HW3 6115   1.612   1.238   2.716
 1521SOL    MW4 6116   1.544   1.281   2.749
 1522SOL     OW 6117   1.560   1.550   2.645
 1522SOL    HW2 6118   1.547   1.458   2.668
 1522SOL    HW3 6119   1.572   1.549   2.550
 1522SOL    MW4 6120   1.560   1.538   2.635
 1523SOL     OW 6121   1.340   1.721   2.730
 1523SOL    HW2 6122   1.414   1.667   2.702
 1523SOL    HW3 6123   1.263   1.670   2.705
 1523SOL    MW4 6124   1.340   1.707   2.723
 1524SOL     OW 6125   1.346   1.978   2.634
 1524SOL    HW2 6126   1.340   1.889   2.670
 1524SOL    HW3 6127   1.340   1.967   2.540
 1524SOL    MW4 6128   1.345   1.965   2.627
 1525SOL     OW 6129   1.576   2.096   2.745
 1525SOL    HW2 6130   1.648   2.047   2.704
 1525SOL    HW3 6131   1.497   2.050   2.718
 1525SOL    MW4 6132   1.575   2.083   2.736
 1526SOL     OW 6133   1.593   2.352   2.655
 1526SOL    HW2 6134   1.667   2.392   2.700
 1526SOL    HW3 6135   1.588   2.264   2.693
 1526SOL    MW4 6136   1.602   2.345   2.666
 1527SOL     OW 6137   1.349   2.463   2.705
 1527SOL    HW2 6138   1.364   2.556   2.688
 1527SOL    HW3 6139   1.430   2.420   2.676
 1527SOL    MW4 6140   1.362   2.469   2.699
 1528SOL     OW 6141   1.334   2.730   2.625
 1528SOL    HW2 6142   1.415   2.767   2.661
 1528SOL    HW3 6143   1.351   2.725   2.530
 1528SOL    MW4 6144   1.347   2.734   2.617
 1529SOL     OW 6145   1.570   2.866   2.719
 1529SOL    HW2 6146   1.575   2.838   2.810
 1529SOL    HW3 6147   1.643   2.822   2.676
 1529SOL    MW4 6148   1.580   2.857   2.725
 1530SOL     OW 6149   1.596   3.125   2.640
 1530SOL    HW2 6150   1.680   3.153   2.675
 1530SOL    HW3 6151   1.588   3.033   2.666
 1530SOL    MW4 6152   1.606   3.117   2.648
 1531SOL     OW 6153   1.346   3.264   2.730
 1531SOL    HW2 6154   1.426   3.216   2.708
 1531SOL    HW3 6155   1.275   3.205   2.706
 1531SOL    MW4 6156   1.347   3.250   2.724
 1532SOL     OW 6157   1.357   3.531   2.634
 1532SOL    HW2 6158   1.340   3.441   2.664
 1532SOL    HW3 6159   1.278   3.579   2.658
 1532SOL    MW4 6160   1.345   3.525   2.641
 1533SOL     OW 6161   1.575   3.633   2.751
 1533SOL    HW2 6162   1.644   3.573   2.727
 1533SOL    HW3 6163   1.494   3.590   2.723
 1533SOL    MW4 6164   1.573   3.620   2.744
 1534SOL     OW 6165   1.580   3.870   2.610
 1534SOL    HW2 6166   1.502   3.907   2.650
 1534SOL    HW3 6167   1.584   3.781   2.644
 1534SOL    MW4 6168   1.570   3.863   2.620
 1535SOL     OW 6169   1.336   3.961   2.724
 1535SOL    HW2 6170   1.359   3.957   2.817
 1535SOL    HW3 6171   1.340   4.054   2.702
 1535SOL    MW4 6172   1.340   3.973   2.734
 1536SOL     OW 6173   1.360   4.239   2.639
 1536SOL    HW2 6174   1.283   4.281   2.677
 1536SOL    HW3 6175   1.362   4.269   2.548
 1536SOL    MW4 6176   1.350   4.248   2.632
 1537SOL     OW 6177   1.585   4.367   2.713
 1537SOL    HW2 6178   1.583   4.379   2.808
 1537SOL    HW3 6179   1.504   4.320   2.693
 1537SOL    MW4 6180   1.574   4.362   2.723
 1538SOL     OW 6181   2.031   4.629   2.620
 1538SOL    HW2 6182   2.112   4.667   2.654
 1538SOL    HW3 6183   2.028   4.657   2.529
 1538SOL    MW4 6184   2.041   4.638   2.613
 1539SOL     OW 6185   1.814   0.086   2.744
 1539SOL    HW2 6186   1.896   0.051   2.709
 1539SOL    HW3 6187   1.745   0.048   2.689
 1539SOL    MW4 6188   1.816   0.076   2.732
 1540SOL     OW 6189   1.782   0.343   2.651
 1540SOL    HW2 6190   1.842   0.393   2.706
 1540SOL    HW3 6191   1.789   0.253   2.683
 1540SOL    MW4 6192   1.791   0.338   2.662
 1541SOL     OW 6193   1.994   0.484   2.767
 1541SOL    HW2 6194   2.068   0.440   2.725
 1541SOL    HW3 6195   1.998   0.574   2.733
 1541SOL    MW4 6196   2.005   0.490   2.757
 1542SOL     OW 6197   2.040   0.739   2.654
 1542SOL    HW2 6198   1.968   0.789   2.692
 1542SOL    HW3 6199   2.034   0.756   2.560
 1542SOL    MW4 6200   2.030   0.748   2.646
 1543SOL     OW 6201   1.834   0.902   2.734
 1543SOL    HW2 6202   1.815   0.994   2.716
 1543SOL    HW3 6203   1.752   0.857   2.715
 1543SOL    MW4 6204   1.821   0.908   2.729
 1544SOL     OW 6205   1.781   1.195   2.652
 1544SOL    HW2 6206   1.868   1.226   2.679
 1544SOL    HW3 6207   1.789   1.180   2.558
 1544SOL    MW4 6208   1.794   1.197   2.643
 1545SOL     OW 6209   2.034   1.278   2.708
 1545SOL    HW2 6210   2.045   1.273   2.803
 1545SOL    HW3 6211   2.100   1.217   2.673
 1545SOL    MW4 6212   2.044   1.269   2.715
 1546SOL     OW 6213   2.038   1.550   2.646
 1546SOL    HW2 6214   1.961   1.597   2.676
 1546SOL    HW3 6215   2.020   1.458   2.666
 1546SOL    MW4 6216   2.025   1.544   2.652
 1547SOL     OW 6217   1.788   1.675   2.727
 1547SOL    HW2 6218   1.797   1.677   2.822
 1547SOL    HW3 6219   1.711   1.621   2.712
 1547SOL    MW4 6220   1.779   1.668   2.738
 1548SOL     OW 6221   1.774   1.921   2.633
 1548SOL    HW2 6222   1.865   1.947   2.647
 1548SOL    HW3 6223   1.767   1.835   2.673
 1548SOL    MW4 6224   1.785   1.913   2.640
 1549SOL     OW 6225   2.016   2.035   2.710
 1549SOL    HW2 6226   2.021   2.033   2.806
 1549SOL    HW3 6227   2.023   2.128   2.687
 1549SOL    MW4 6228   2.018   2.047   2.720
 1550SOL     OW 6229   2.025   2.305   2.652
 1550SOL    HW2 6230   2.099   2.354   2.688
 1550SOL    HW3 6231   2.032   2.317   2.558
 1550SOL    MW4 6232   2.036   2.313   2.645
 1551SOL     OW 6233   1.836   2.469   2.762
 1551SOL    HW2 6234   1.844   2.445   2.854
 1551SOL    HW3 6235   1.899   2.414   2.717
 1551SOL    MW4 6236   1.845   2.459   2.768
 1552SOL     OW 6237   1.785   2.710   2.591
 1552SOL    HW2 6238   1.788   2.634   2.650
 1552SOL    HW3 6239   1.781   2.673   2.503
 1552SOL    MW4 6240   1.785   2.695   2.587
 1553SOL     OW 6241   2.002   2.807   2.729
 1553SOL    HW2 6242   2.073   2.777   2.673
 1553SOL    HW3 6243   1.922   2.779   2.683
 1553SOL    MW4 6244   2.001   2.800   2.716
 1554SOL     OW 6245   2.063   3.081   2.652
 1554SOL    HW2 6246   2.043   2.996   2.691
 1554SOL    HW3 6247   2.062   3.065   2.558
 1554SOL    MW4 6248   2.060   3.068   2.645
 1555SOL     OW 6249   1.838   3.204   2.741
 1555SOL    HW2 6250   1.816   3.286   2.696
 1555SOL    HW3 6251   1.920   3.176   2.702
 1555SOL    MW4 6252   1.846   3.211   2.730
 1556SOL     OW 6253   1.780   3.456   2.641
 1556SOL    HW2 6254   1.862   3.488   2.680
 1556SOL    HW3 6255   1.796   3.461   2.546
 1556SOL    MW4 6256   1.793   3.461   2.634
 1557SOL     OW 6257   2.028   3.559   2.734
 1557SOL    HW2 6258   2.024   3.584   2.826
 1557SOL    HW3 6259   2.118   3.528   2.722
 1557SOL    MW4 6260   2.040   3.558   2.745
 1558SOL     OW 6261   2.014   3.860   2.595
 1558SOL    HW2 6262   1.939   3.877   2.653
 1558SOL    HW3 6263   2.038   3.770   2.613
 1558SOL    MW4 6264   2.007   3.851   2.605
 1559SOL     OW 6265   1.798   3.986   2.735
 1559SOL    HW2 6266   1.804   4.078   2.713
 1559SOL    HW3 6267   1.724   3.953   2.684
 1559SOL    MW4 6268   1.789   3.994   2.726
 1560SOL     OW 6269   1.819   4.260   2.634
 1560SOL    HW2 6270   1.732   4.296   2.652
 1560SOL    HW3 6271   1.825   4.261   2.539
 1560SOL    MW4 6272   1.808   4.265   2.624
 1561SOL     OW 6273   2.022   4.371   2.774
 1561SOL    HW2 6274   1.945   4.343   2.725
 1561SOL    HW3 6275   2.046   4.456   2.736
 1561SOL    MW4 6276   2.015   4.379   2.762
 1562SOL     OW 6277   2.489   4.638   2.667
 1562SOL    HW2 6278   2.543   4.704   2.710
 1562SOL    HW3 6279   2.501   4.655   2.573
 1562SOL    MW4 6280   2.498   4.649   2.660
 1563SOL     OW 6281   2.254   0.110   2.739
 1563SOL    HW2 6282   2.264   0.115   2.834
 1563SOL    HW3 6283   2.334   0.068   2.709
 1563SOL    MW4 6284   2.266   0.105   2.748
 1564SOL     OW 6285   2.221   0.373   2.657
 1564SOL    HW2 6286   2.227   0.278   2.671
 1564SOL    HW3 6287   2.223   0.383   2.561
 1564SOL    MW4 6288   2.222   0.362   2.646
 1565SOL     OW 6289   2.465   0.495   2.708
 1565SOL    HW2 6290   2.458   0.579   2.664
 1565SOL    HW3 6291   2.377   0.457   2.701
 1565SOL    MW4 6292   2.452   0.501   2.701
 1566SOL     OW 6293   2.454   0.766   2.611
 1566SOL    HW2 6294   2.382   0.821   2.642
 1566SOL    HW3 6295   2.436   0.753   2.517
 1566SOL    MW4 6296   2.442   0.772   2.602
 1567SOL     OW 6297   2.254   0.887   2.737
 1567SOL    HW2 6298   2.267   0.867   2.830
 1567SOL    HW3 6299   2.175   0.838   2.713
 1567SOL    MW4 6300   2.245   0.878   2.746
 1568SOL     OW 6301   2.263   1.138   2.586
 1568SOL    HW2 6302   2.257   1.052   2.626
 1568SOL    HW3 6303   2.256   1.121   2.492
 1568SOL    MW4 6304   2.262   1.124   2.579
 1569SOL     OW 6305   2.485   1.241   2.713
 1569SOL    HW2 6306   2.561   1.191   2.684
 1569SOL    HW3 6307   2.410   1.191   2.680
 1569SOL    MW4 6308   2.485   1.228   2.705
 1570SOL     OW 6309   2.499   1.494   2.633
 1570SOL    HW2 6310   2.422   1.540   2.664
 1570SOL    HW3 6311   2.493   1.407   2.673
 1570SOL    MW4 6312   2.488   1.488   2.642
 1571SOL     OW 6313   2.277   1.647   2.732
 1571SOL    HW2 6314   2.273   1.740   2.712
 1571SOL    HW3 6315   2.189   1.614   2.711
 1571SOL    MW4 6316   2.265   1.655   2.726
 1572SOL     OW 6317   2.254   1.914   2.666
 1572SOL    HW2 6318   2.171   1.959   2.684
 1572SOL    HW3 6319   2.265   1.922   2.571
 1572SOL    MW4 6320   2.244   1.921   2.656
 1573SOL     OW 6321   2.477   2.066   2.769
 1573SOL    HW2 6322   2.443   2.148   2.734
 1573SOL    HW3 6323   2.407   2.003   2.754
 1573SOL    MW4 6324   2.463   2.068   2.762
 1574SOL     OW 6325   2.460   2.314   2.659
 1574SOL    HW2 6326   2.540   2.353   2.695
 1574SOL    HW3 6327   2.470   2.323   2.564
 1574SOL    MW4 6328   2.472   2.321   2.651
 1575SOL     OW 6329   2.245   2.446   2.719
 1575SOL    HW2 6330   2.247   2.456   2.814
 1575SOL    HW3 6331   2.320   2.390   2.699
 1575SOL    MW4 6332   2.255   2.440   2.729
 1576SOL     OW 6333   2.239   2.700   2.605
 1576SOL    HW2 6334   2.309   2.755   2.641
 1576SOL    HW3 6335   2.253   2.614   2.645
 1576SOL    MW4 6336   2.250   2.696   2.615
 1577SOL     OW 6337   2.429   2.842   2.740
 1577SOL    HW2 6338   2.512   2.798   2.722
 1577SOL    HW3 6339   2.444   2.933   2.716
 1577SOL    MW4 6340   2.442   2.848   2.734
 1578SOL     OW 6341   2.491   3.070   2.614
 1578SOL    HW2 6342   2.430   3.137   2.646
 1578SOL    HW3 6343   2.475   3.067   2.519
 1578SOL    MW4 6344   2.481   3.078   2.606
 1579SOL     OW 6345   2.269   3.254   2.727
 1579SOL    HW2 6346   2.256   3.242   2.821
 1579SOL    HW3 6347   2.211   3.188   2.687
 1579SOL    MW4 6348   2.260   3.244   2.734
 1580SOL     OW 6349   2.283   3.509   2.631
 1580SOL    HW2 6350   2.362   3.553   2.663
 1580SOL    HW3 6351   2.290   3.420   2.666
 1580SOL    MW4 6352   2.294   3.503   2.640
 1581SOL     OW 6353   2.510   3.633   2.710
 1581SOL    HW2 6354   2.517   3.634   2.806
 1581SOL    HW3 6355   2.502   3.726   2.686
 1581SOL    MW4 6356   2.510   3.646   2.720
 1582SOL     OW 6357   2.465   3.893   2.618
 1582SOL    HW2 6358   2.520   3.937   2.683
 1582SOL    HW3 6359   2.376   3.919   2.641
 1582SOL    MW4 6360   2.460   3.902   2.629
 1583SOL     OW 6361   2.225   4.003   2.703
 1583SOL    HW2 6362   2.220   4.009   2.799
 1583SOL    HW3 6363   2.139   3.973   2.676
 1583SOL    MW4 6364   2.213   4.000   2.712
 1584SOL     OW 6365   2.232   4.273   2.628
 1584SOL    HW2 6366   2.234   4.179   2.646
 1584SOL    HW3 6367   2.158   4.306   2.680
 1584SOL    MW4 6368   2.222   4.265   2.638
 1585SOL     OW 6369   2.447   4.385   2.782
 1585SOL    HW2 6370   2.383   4.337   2.729
 1585SOL    HW3 6371   2.443   4.475   2.749
 1585SOL    MW4 6372   2.438   4.391   2.771
 1586SOL     OW 6373   2.891   4.657   2.682
 1586SOL    HW2 6374   2.967   4.708   2.711
 1586SOL    HW3 6375   2.896   4.660   2.587
 1586SOL    MW4 6376   2.902   4.664   2.673
 1587SOL     OW 6377   2.673   0.126   2.802
 1587SOL    HW2 6378   2.680   0.124   2.897
 1587SOL    HW3 6379   2.754   0.086   2.772
 1587SOL    MW4 6380   2.684   0.120   2.811
 1588SOL     OW 6381   2.709   0.371   2.659
 1588SOL    HW2 6382   2.713   0.291   2.712
 1588SOL    HW3 6383   2.631   0.417   2.692
 1588SOL    MW4 6384   2.699   0.366   2.671
 1589SOL     OW 6385   2.932   0.500   2.743
 1589SOL    HW2 6386   2.939   0.587   2.706
 1589SOL    HW3 6387   2.857   0.460   2.698
 1589SOL    MW4 6388   2.923   0.506   2.732
 1590SOL     OW 6389   2.939   0.730   2.598
 1590SOL    HW2 6390   2.996   0.801   2.628
 1590SOL    HW3 6391   2.853   0.751   2.635
 1590SOL    MW4 6392   2.935   0.742   2.607
 1591SOL     OW 6393   2.721   0.829   2.721
 1591SOL    HW2 6394   2.713   0.851   2.814
 1591SOL    HW3 6395   2.633   0.800   2.696
 1591SOL    MW4 6396   2.708   0.828   2.730
 1592SOL     OW 6397   2.704   1.084   2.622
 1592SOL    HW2 6398   2.770   1.131   2.673
 1592SOL    HW3 6399   2.702   0.996   2.660
 1592SOL    MW4 6400   2.712   1.078   2.634
 1593SOL     OW 6401   2.889   1.236   2.742
 1593SOL    HW2 6402   2.895   1.205   2.832
 1593SOL    HW3 6403   2.977   1.224   2.707
 1593SOL    MW4 6404   2.902   1.230   2.749
 1594SOL     OW 6405   2.898   1.500   2.646
 1594SOL    HW2 6406   2.831   1.558   2.681
 1594SOL    HW3 6407   2.878   1.414   2.683
 1594SOL    MW4 6408   2.887   1.497   2.656
 1595SOL     OW 6409   2.699   1.713   2.712
 1595SOL    HW2 6410   2.706   1.691   2.805
 1595SOL    HW3 6411   2.619   1.668   2.683
 1595SOL    MW4 6412   2.689   1.704   2.720
 1596SOL     OW 6413   2.674   1.960   2.605
 1596SOL    HW2 6414   2.687   1.874   2.645
 1596SOL    HW3 6415   2.607   2.002   2.660
 1596SOL    MW4 6416   2.667   1.954   2.618
 1597SOL     OW 6417   2.914   2.086   2.678
 1597SOL    HW2 6418   2.912   2.181   2.662
 1597SOL    HW3 6419   2.823   2.059   2.672
 1597SOL    MW4 6420   2.902   2.095   2.675
 1598SOL     OW 6421   2.917   2.346   2.610
 1598SOL    HW2 6422   2.985   2.387   2.662
 1598SOL    HW3 6423   2.836   2.392   2.635
 1598SOL    MW4 6424   2.915   2.358   2.620
 1599SOL     OW 6425   2.689   2.456   2.718
 1599SOL    HW2 6426   2.687   2.441   2.812
 1599SOL    HW3 6427   2.661   2.547   2.708
 1599SOL    MW4 6428   2.685   2.466   2.729
 1600SOL     OW 6429   2.676   2.758   2.662
 1600SOL    HW2 6430   2.764   2.782   2.690
 1600SOL    HW3 6431   2.687   2.723   2.573
 1600SOL    MW4 6432   2.689   2.757   2.654
 1601SOL     OW 6433   2.940   2.810   2.718
 1601SOL    HW2 6434   2.926   2.829   2.811
 1601SOL    HW3 6435   2.926   2.894   2.674
 1601SOL    MW4 6436   2.936   2.824   2.724
 1602SOL     OW 6437   2.920   3.064   2.616
 1602SOL    HW2 6438   2.839   3.112   2.634
 1602SOL    HW3 6439   2.931   3.070   2.521
 1602SOL    MW4 6440   2.911   3.071   2.606
 1603SOL     OW 6441   2.703   3.224   2.702
 1603SOL    HW2 6442   2.692   3.310   2.662
 1603SOL    HW3 6443   2.630   3.172   2.668
 1603SOL    MW4 6444   2.692   3.228   2.692
 1604SOL     OW 6445   2.735   3.500   2.610
 1604SOL    HW2 6446   2.661   3.551   2.643
 1604SOL    HW3 6447   2.724   3.500   2.515
 1604SOL    MW4 6448   2.724   3.507   2.601
 1605SOL     OW 6449   2.959   3.643   2.682
 1605SOL    HW2 6450   2.950   3.628   2.776
 1605SOL    HW3 6451   2.892   3.587   2.643
 1605SOL    MW4 6452   2.949   3.634   2.690
 1606SOL     OW 6453   2.896   3.910   2.667
 1606SOL    HW2 6454   2.971   3.959   2.702
 1606SOL    HW3 6455   2.923   3.818   2.673
 1606SOL    MW4 6456   2.909   3.904   2.672
 1607SOL     OW 6457   2.669   4.015   2.761
 1607SOL    HW2 6458   2.663   4.106   2.733
 1607SOL    HW3 6459   2.756   3.988   2.734
 1607SOL    MW4 6460   2.680   4.023   2.754
 1608SOL     OW 6461   2.680   4.268   2.642
 1608SOL    HW2 6462   2.758   4.306   2.683
 1608SOL    HW3 6463   2.606   4.314   2.683
 1608SOL    MW4 6464   2.680   4.279   2.653
 1609SOL     OW 6465   2.907   4.395   2.761
 1609SOL    HW2 6466   2.936   4.389   2.852
 1609SOL    HW3 6467   2.912   4.489   2.740
 1609SOL    MW4 6468   2.912   4.407   2.770
 1610SOL     OW 6469   3.372   0.010   2.631
 1610SOL    HW2 6470   3.379  -0.071   2.681
 1610SOL    HW3 6471   3.284   0.042   2.649
 1610SOL    MW4 6472   3.362   0.004   2.640
 1611SOL     OW 6473   3.121   0.122   2.733
 1611SOL    HW2 6474   3.128   0.124   2.828
 1611SOL    HW3 6475   3.140   0.212   2.706
 1611SOL    MW4 6476   3.124   0.134   2.742
 1612SOL     OW 6477   3.176   0.384   2.640
 1612SOL    HW2 6478   3.095   0.421   2.674
 1612SOL    HW3 6479   3.166   0.386   2.545
 1612SOL    MW4 6480   3.164   0.389   2.632
 1613SOL     OW 6481   3.411   0.505   2.732
 1613SOL    HW2 6482   3.406   0.599   2.716
 1613SOL    HW3 6483   3.330   0.470   2.696
 1613SOL    MW4 6484   3.400   0.513   2.725
 1614SOL     OW 6485   3.328   0.780   2.642
 1614SOL    HW2 6486   3.398   0.844   2.655
 1614SOL    HW3 6487   3.327   0.765   2.548
 1614SOL    MW4 6488   3.337   0.786   2.631
 1615SOL     OW 6489   3.107   0.915   2.697
 1615SOL    HW2 6490   3.102   0.924   2.792
 1615SOL    HW3 6491   3.187   0.864   2.682
 1615SOL    MW4 6492   3.117   0.910   2.708
 1616SOL     OW 6493   3.121   1.172   2.605
 1616SOL    HW2 6494   3.119   1.080   2.630
 1616SOL    HW3 6495   3.123   1.171   2.509
 1616SOL    MW4 6496   3.121   1.160   2.595
 1617SOL     OW 6497   3.368   1.291   2.700
 1617SOL    HW2 6498   3.353   1.292   2.795
 1617SOL    HW3 6499   3.290   1.249   2.664
 1617SOL    MW4 6500   3.356   1.286   2.708
 1618SOL     OW 6501   3.386   1.540   2.613
 1618SOL    HW2 6502   3.308   1.587   2.641
 1618SOL    HW3 6503   3.377   1.453   2.653
 1618SOL    MW4 6504   3.375   1.535   2.622
 1619SOL     OW 6505   3.134   1.641   2.708
 1619SOL    HW2 6506   3.109   1.731   2.687
 1619SOL    HW3 6507   3.058   1.589   2.685
 1619SOL    MW4 6508   3.121   1.646   2.702
 1620SOL     OW 6509   3.104   1.893   2.634
 1620SOL    HW2 6510   3.187   1.931   2.664
 1620SOL    HW3 6511   3.042   1.966   2.636
 1620SOL    MW4 6512   3.107   1.908   2.638
 1621SOL     OW 6513   3.352   2.059   2.698
 1621SOL    HW2 6514   3.357   2.067   2.793
 1621SOL    HW3 6515   3.325   2.146   2.668
 1621SOL    MW4 6516   3.349   2.071   2.707
 1622SOL     OW 6517   3.349   2.306   2.608
 1622SOL    HW2 6518   3.430   2.349   2.635
 1622SOL    HW3 6519   3.337   2.332   2.517
 1622SOL    MW4 6520   3.358   2.315   2.600
 1623SOL     OW 6521   3.138   2.456   2.732
 1623SOL    HW2 6522   3.148   2.541   2.689
 1623SOL    HW3 6523   3.208   2.402   2.695
 1623SOL    MW4 6524   3.149   2.460   2.721
 1624SOL     OW 6525   3.183   2.711   2.595
 1624SOL    HW2 6526   3.256   2.758   2.634
 1624SOL    HW3 6527   3.106   2.744   2.641
 1624SOL    MW4 6528   3.182   2.722   2.606
 1625SOL     OW 6529   3.384   2.853   2.743
 1625SOL    HW2 6530   3.391   2.859   2.838
 1625SOL    HW3 6531   3.456   2.797   2.717
 1625SOL    MW4 6532   3.394   2.847   2.752
 1626SOL     OW 6533   3.362   3.106   2.625
 1626SOL    HW2 6534   3.343   3.019   2.659
 1626SOL    HW3 6535   3.351   3.099   2.531
 1626SOL    MW4 6536   3.358   3.094   2.617
 1627SOL     OW 6537   3.129   3.204   2.731
 1627SOL    HW2 6538   3.216   3.170   2.711
 1627SOL    HW3 6539   3.069   3.141   2.692
 1627SOL    MW4 6540   3.133   3.192   2.723
 1628SOL     OW 6541   3.167   3.464   2.622
 1628SOL    HW2 6542   3.159   3.377   2.661
 1628SOL    HW3 6543   3.086   3.509   2.648
 1628SOL    MW4 6544   3.155   3.459   2.631
 1629SOL     OW 6545   3.355   3.654   2.722
 1629SOL    HW2 6546   3.360   3.640   2.817
 1629SOL    HW3 6547   3.281   3.600   2.694
 1629SOL    MW4 6548   3.346   3.645   2.731
 1630SOL     OW 6549   3.365   3.914   2.641
 1630SOL    HW2 6550   3.351   3.822   2.662
 1630SOL    HW3 6551   3.364   3.917   2.545
 1630SOL    MW4 6552   3.363   3.903   2.631
 1631SOL     OW 6553   3.125   4.064   2.751
 1631SOL    HW2 6554   3.133   4.150   2.710
 1631SOL    HW3 6555   3.205   4.018   2.725
 1631SOL    MW4 6556   3.137   4.069   2.742
 1632SOL     OW 6557   3.135   4.304   2.647
 1632SOL    HW2 6558   3.049   4.338   2.672
 1632SOL    HW3 6559   3.134   4.302   2.551
 1632SOL    MW4 6560   3.124   4.308   2.638
 1633SOL     OW 6561   3.375   4.408   2.722
 1633SOL    HW2 6562   3.383   4.400   2.817
 1633SOL    HW3 6563   3.289   4.371   2.703
 1633SOL    MW4 6564   3.364   4.402   2.732
 1634SOL     OW 6565   3.788   4.654   2.628
 1634SOL    HW2 6566   3.790   4.579   2.687
 1634SOL    HW3 6567   3.720   4.711   2.664
 1634SOL    MW4 6568   3.779   4.652   2.641
 1635SOL     OW 6569   3.585   0.123   2.755
 1635SOL    HW2 6570   3.582   0.210   2.716
 1635SOL    HW3 6571   3.515   0.075   2.712
 1635SOL    MW4 6572   3.575   0.128   2.744
 1636SOL     OW 6573   3.620   0.360   2.613
 1636SOL    HW2 6574   3.698   0.403   2.649
 1636SOL    HW3 6575   3.547   0.408   2.651
 1636SOL    MW4 6576   3.621   0.372   2.623
 1637SOL     OW 6577   3.824   0.504   2.719
 1637SOL    HW2 6578   3.820   0.502   2.814
 1637SOL    HW3 6579   3.909   0.466   2.697
 1637SOL    MW4 6580   3.835   0.499   2.728
 1638SOL     OW 6581   3.813   0.775   2.629
 1638SOL    HW2 6582   3.729   0.815   2.654
 1638SOL    HW3 6583   3.817   0.695   2.681
 1638SOL    MW4 6584   3.802   0.770   2.639
 1639SOL     OW 6585   3.569   0.916   2.703
 1639SOL    HW2 6586   3.585   0.919   2.798
 1639SOL    HW3 6587   3.574   1.007   2.675
 1639SOL    MW4 6588   3.572   0.929   2.712
 1640SOL     OW 6589   3.598   1.181   2.617
 1640SOL    HW2 6590   3.652   1.239   2.671
 1640SOL    HW3 6591   3.508   1.200   2.644
 1640SOL    MW4 6592   3.594   1.191   2.627
 1641SOL     OW 6593   3.820   1.319   2.745
 1641SOL    HW2 6594   3.889   1.269   2.701
 1641SOL    HW3 6595   3.825   1.407   2.706
 1641SOL    MW4 6596   3.830   1.324   2.734
 1642SOL     OW 6597   3.836   1.574   2.623
 1642SOL    HW2 6598   3.905   1.630   2.659
 1642SOL    HW3 6599   3.757   1.599   2.670
 1642SOL    MW4 6600   3.835   1.585   2.634
 1643SOL     OW 6601   3.595   1.676   2.745
 1643SOL    HW2 6602   3.574   1.767   2.724
 1643SOL    HW3 6603   3.520   1.626   2.711
 1643SOL    MW4 6604   3.582   1.681   2.738
 1644SOL     OW 6605   3.594   1.937   2.652
 1644SOL    HW2 6606   3.509   1.982   2.647
 1644SOL    HW3 6607   3.606   1.899   2.565
 1644SOL    MW4 6608   3.584   1.938   2.639
 1645SOL     OW 6609   3.815   2.103   2.727
 1645SOL    HW2 6610   3.894   2.057   2.699
 1645SOL    HW3 6611   3.743   2.043   2.707
 1645SOL    MW4 6612   3.816   2.089   2.721
 1646SOL     OW 6613   3.860   2.365   2.624
 1646SOL    HW2 6614   3.840   2.276   2.654
 1646SOL    HW3 6615   3.860   2.358   2.528
 1646SOL    MW4 6616   3.857   2.353   2.615
 1647SOL     OW 6617   3.581   2.438   2.695
 1647SOL    HW2 6618   3.589   2.411   2.787
 1647SOL    HW3 6619   3.668   2.426   2.658
 1647SOL    MW4 6620   3.593   2.433   2.702
 1648SOL     OW 6621   3.602   2.715   2.626
 1648SOL    HW2 6622   3.587   2.626   2.659
 1648SOL    HW3 6623   3.590   2.708   2.531
 1648SOL    MW4 6624   3.598   2.702   2.618
 1649SOL     OW 6625   3.810   2.864   2.751
 1649SOL    HW2 6626   3.888   2.816   2.721
 1649SOL    HW3 6627   3.738   2.826   2.701
 1649SOL    MW4 6628   3.811   2.853   2.741
 1650SOL     OW 6629   3.806   3.098   2.635
 1650SOL    HW2 6630   3.729   3.141   2.672
 1650SOL    HW3 6631   3.814   3.017   2.685
 1650SOL    MW4 6632   3.797   3.093   2.647
 1651SOL     OW 6633   3.586   3.241   2.742
 1651SOL    HW2 6634   3.571   3.328   2.707
 1651SOL    HW3 6635   3.513   3.189   2.708
 1651SOL    MW4 6636   3.574   3.246   2.733
 1652SOL     OW 6637   3.580   3.510   2.669
 1652SOL    HW2 6638   3.651   3.549   2.719
 1652SOL    HW3 6639   3.503   3.561   2.693
 1652SOL    MW4 6640   3.579   3.522   2.678
 1653SOL     OW 6641   3.822   3.617   2.773
 1653SOL    HW2 6642   3.886   3.556   2.737
 1653SOL    HW3 6643   3.836   3.699   2.725
 1653SOL    MW4 6644   3.832   3.620   2.762
 1654SOL     OW 6645   3.858   3.876   2.644
 1654SOL    HW2 6646   3.923   3.945   2.658
 1654SOL    HW3 6647   3.774   3.919   2.660
 1654SOL    MW4 6648   3.856   3.891   2.648
 1655SOL     OW 6649   3.626   3.996   2.735
 1655SOL    HW2 6650   3.613   4.081   2.692
 1655SOL    HW3 6651   3.545   3.949   2.719
 1655SOL    MW4 6652   3.614   4.001   2.727
 1656SOL     OW 6653   3.614   4.250   2.622
 1656SOL    HW2 6654   3.543   4.300   2.662
 1656SOL    HW3 6655   3.601   4.262   2.528
 1656SOL    MW4 6656   3.603   4.258   2.615
 1657SOL     OW 6657   3.825   4.402   2.753
 1657SOL    HW2 6658   3.907   4.388   2.705
 1657SOL    HW3 6659   3.762   4.344   2.711
 1657SOL    MW4 6660   3.828   4.393   2.741
 1658SOL     OW 6661   4.257   0.005   2.643
 1658SOL    HW2 6662   4.183   0.061   2.666
 1658SOL    HW3 6663   4.332   0.045   2.689
 1658SOL    MW4 6664   4.257   0.018   2.652
 1659SOL     OW 6665   4.007   0.136   2.711
 1659SOL    HW2 6666   4.024   0.144   2.805
 1659SOL    HW3 6667   3.933   0.076   2.705
 1659SOL    MW4 6668   3.999   0.129   2.722
 1660SOL     OW 6669   4.056   0.385   2.621
 1660SOL    HW2 6670   4.045   0.294   2.651
 1660SOL    HW3 6671   4.037   0.381   2.527
 1660SOL    MW4 6672   4.052   0.372   2.613
 1661SOL     OW 6673   4.240   0.547   2.712
 1661SOL    HW2 6674   4.174   0.484   2.682
 1661SOL    HW3 6675   4.323   0.508   2.686
 1661SOL    MW4 6676   4.242   0.533   2.704
 1662SOL     OW 6677   4.303   0.784   2.594
 1662SOL    HW2 6678   4.297   0.697   2.634
 1662SOL    HW3 6679   4.272   0.771   2.504
 1662SOL    MW4 6680   4.298   0.770   2.587
 1663SOL     OW 6681   4.053   0.896   2.688
 1663SOL    HW2 6682   4.135   0.855   2.660
 1663SOL    HW3 6683   3.984   0.842   2.650
 1663SOL    MW4 6684   4.055   0.884   2.680
 1664SOL     OW 6685   4.031   1.170   2.635
 1664SOL    HW2 6686   4.119   1.195   2.662
 1664SOL    HW3 6687   4.019   1.081   2.668
 1664SOL    MW4 6688   4.041   1.162   2.643
 1665SOL     OW 6689   4.276   1.275   2.726
 1665SOL    HW2 6690   4.272   1.364   2.690
 1665SOL    HW3 6691   4.361   1.242   2.699
 1665SOL    MW4 6692   4.287   1.283   2.718
 1666SOL     OW 6693   4.248   1.534   2.623
 1666SOL    HW2 6694   4.328   1.579   2.651
 1666SOL    HW3 6695   4.241   1.553   2.529
 1666SOL    MW4 6696   4.258   1.542   2.614
 1667SOL     OW 6697   4.065   1.707   2.713
 1667SOL    HW2 6698   4.048   1.683   2.804
 1667SOL    HW3 6699   4.135   1.648   2.685
 1667SOL    MW4 6700   4.072   1.696   2.721
 1668SOL     OW 6701   4.020   1.956   2.636
 1668SOL    HW2 6702   4.089   2.005   2.680
 1668SOL    HW3 6703   4.034   1.865   2.663
 1668SOL    MW4 6704   4.031   1.950   2.645
 1669SOL     OW 6705   4.223   2.109   2.736
 1669SOL    HW2 6706   4.256   2.187   2.691
 1669SOL    HW3 6707   4.284   2.040   2.711
 1669SOL    MW4 6708   4.236   2.110   2.727
 1670SOL     OW 6709   4.301   2.347   2.616
 1670SOL    HW2 6710   4.221   2.398   2.630
 1670SOL    HW3 6711   4.311   2.345   2.521
 1670SOL    MW4 6712   4.292   2.353   2.605
 1671SOL     OW 6713   4.079   2.490   2.713
 1671SOL    HW2 6714   4.092   2.463   2.804
 1671SOL    HW3 6715   4.003   2.440   2.684
 1671SOL    MW4 6716   4.071   2.480   2.721
 1672SOL     OW 6717   4.035   2.753   2.680
 1672SOL    HW2 6718   4.112   2.806   2.700
 1672SOL    HW3 6719   4.054   2.667   2.718
 1672SOL    MW4 6720   4.047   2.749   2.688
 1673SOL     OW 6721   4.264   2.899   2.759
 1673SOL    HW2 6722   4.284   2.887   2.852
 1673SOL    HW3 6723   4.270   2.993   2.745
 1673SOL    MW4 6724   4.268   2.910   2.770
 1674SOL     OW 6725   4.276   3.172   2.661
 1674SOL    HW2 6726   4.183   3.180   2.681
 1674SOL    HW3 6727   4.278   3.150   2.568
 1674SOL    MW4 6728   4.264   3.170   2.652
 1675SOL     OW 6729   4.024   3.238   2.739
 1675SOL    HW2 6730   4.023   3.325   2.700
 1675SOL    HW3 6731   3.944   3.196   2.707
 1675SOL    MW4 6732   4.013   3.244   2.730
 1676SOL     OW 6733   4.022   3.489   2.644
 1676SOL    HW2 6734   4.106   3.528   2.668
 1676SOL    HW3 6735   4.017   3.499   2.549
 1676SOL    MW4 6736   4.032   3.495   2.634
 1677SOL     OW 6737   4.234   3.623   2.740
 1677SOL    HW2 6738   4.238   3.605   2.833
 1677SOL    HW3 6739   4.320   3.595   2.706
 1677SOL    MW4 6740   4.246   3.617   2.748
 1678SOL     OW 6741   4.254   3.873   2.610
 1678SOL    HW2 6742   4.242   3.799   2.669
 1678SOL    HW3 6743   4.318   3.929   2.653
 1678SOL    MW4 6744   4.260   3.871   2.623
 1679SOL     OW 6745   4.053   4.054   2.717
 1679SOL    HW2 6746   4.048   4.037   2.812
 1679SOL    HW3 6747   4.117   3.990   2.686
 1679SOL    MW4 6748   4.061   4.043   2.726
 1680SOL     OW 6749   4.057   4.318   2.631
 1680SOL    HW2 6750   4.049   4.229   2.666
 1680SOL    HW3 6751   4.057   4.305   2.536
 1680SOL    MW4 6752   4.056   4.304   2.623
 1681SOL     OW 6753   4.268   4.419   2.760
 1681SOL    HW2 6754   4.193   4.384   2.711
 1681SOL    HW3 6755   4.273   4.511   2.733
 1681SOL    MW4 6756   4.259   4.426   2.750
 1682SOL     OW 6757   0.235   0.027   3.112
 1682SOL    HW2 6758   0.219   0.037   3.206
 1682SOL    HW3 6759   0.156   0.062   3.071
 1682SOL    MW4 6760   0.222   0.033   3.119
 1683SOL     OW 6761   0.000   0.117   2.988
 1683SOL    HW2 6762  -0.069   0.072   3.037
 1683SOL    HW3 6763   0.010   0.201   3.031
 1683SOL    MW4 6764  -0.008   0.122   3.000
 1684SOL     OW 6765   0.016   0.385   3.071
 1684SOL    HW2 6766   0.001   0.386   3.165
 1684SOL    HW3 6767  -0.058   0.433   3.034
 1684SOL    MW4 6768   0.005   0.391   3.078
 1685SOL     OW 6769   0.236   0.509   2.967
 1685SOL    HW2 6770   0.307   0.452   2.996
 1685SOL    HW3 6771   0.157   0.467   3.000
 1685SOL    MW4 6772   0.235   0.496   2.975
 1686SOL     OW 6773   0.235   0.757   3.117
 1686SOL    HW2 6774   0.210   0.743   3.208
 1686SOL    HW3 6775   0.250   0.670   3.082
 1686SOL    MW4 6776   0.234   0.744   3.124
 1687SOL     OW 6777   0.017   0.867   2.989
 1687SOL    HW2 6778   0.087   0.821   3.035
 1687SOL    HW3 6779   0.043   0.864   2.897
 1687SOL    MW4 6780   0.030   0.860   2.983
 1688SOL     OW 6781   4.481   1.134   3.131
 1688SOL    HW2 6782   4.419   1.169   3.067
 1688SOL    HW3 6783   4.496   1.044   3.102
 1688SOL    MW4 6784   4.474   1.126   3.119
 1689SOL     OW 6785   0.202   1.282   3.046
 1689SOL    HW2 6786   0.124   1.229   3.066
 1689SOL    HW3 6787   0.210   1.278   2.951
 1689SOL    MW4 6788   0.193   1.274   3.036
 1690SOL     OW 6789   0.227   1.548   3.127
 1690SOL    HW2 6790   0.149   1.587   3.088
 1690SOL    HW3 6791   0.229   1.459   3.090
 1690SOL    MW4 6792   0.217   1.541   3.117
 1691SOL     OW 6793   0.016   1.662   2.981
 1691SOL    HW2 6794  -0.059   1.610   3.011
 1691SOL    HW3 6795   0.004   1.747   3.022
 1691SOL    MW4 6796   0.005   1.666   2.990
 1692SOL     OW 6797   0.004   1.914   3.080
 1692SOL    HW2 6798  -0.074   1.957   3.044
 1692SOL    HW3 6799   0.076   1.973   3.060
 1692SOL    MW4 6800   0.003   1.927   3.073
 1693SOL     OW 6801   0.233   2.053   3.036
 1693SOL    HW2 6802   0.259   2.144   3.054
 1693SOL    HW3 6803   0.203   2.055   2.945
 1693SOL    MW4 6804   0.232   2.065   3.026
 1694SOL     OW 6805   0.233   2.320   3.108
 1694SOL    HW2 6806   0.240   2.318   3.203
 1694SOL    HW3 6807   0.303   2.378   3.080
 1694SOL    MW4 6808   0.243   2.327   3.117
 1695SOL     OW 6809   0.022   2.424   2.963
 1695SOL    HW2 6810   0.040   2.509   3.003
 1695SOL    HW3 6811   0.091   2.367   2.997
 1695SOL    MW4 6812   0.034   2.428   2.973
 1696SOL     OW 6813   0.037   2.674   3.078
 1696SOL    HW2 6814   0.010   2.685   3.169
 1696SOL    HW3 6815   0.096   2.748   3.061
 1696SOL    MW4 6816   0.042   2.685   3.088
 1697SOL     OW 6817   0.224   2.871   3.001
 1697SOL    HW2 6818   0.302   2.821   3.025
 1697SOL    HW3 6819   0.235   2.891   2.908
 1697SOL    MW4 6820   0.236   2.867   2.992
 1698SOL     OW 6821   0.259   3.110   3.119
 1698SOL    HW2 6822   0.183   3.159   3.088
 1698SOL    HW3 6823   0.243   3.020   3.091
 1698SOL    MW4 6824   0.247   3.104   3.111
 1699SOL     OW 6825   0.039   3.267   3.054
 1699SOL    HW2 6826  -0.035   3.208   3.073
 1699SOL    HW3 6827   0.053   3.259   2.960
 1699SOL    MW4 6828   0.031   3.258   3.044
 1700SOL     OW 6829   4.481   3.525   3.125
 1700SOL    HW2 6830   4.395   3.554   3.094
 1700SOL    HW3 6831   4.490   3.436   3.091
 1700SOL    MW4 6832   4.471   3.517   3.116
 1701SOL     OW 6833   0.205   3.654   2.995
 1701SOL    HW2 6834   0.197   3.741   3.034
 1701SOL    HW3 6835   0.127   3.607   3.027
 1701SOL    MW4 6836   0.193   3.660   3.005
 1702SOL     OW 6837   0.162   3.925   3.083
 1702SOL    HW2 6838   0.181   3.898   3.173
 1702SOL    HW3 6839   0.247   3.950   3.047
 1702SOL    MW4 6840   0.176   3.925   3.090
 1703SOL     OW 6841   4.406   4.006   2.970
 1703SOL    HW2 6842   4.484   3.961   3.001
 1703SOL    HW3 6843   4.416   4.010   2.875
 1703SOL    MW4 6844   4.417   4.000   2.962
 1704SOL     OW 6845   4.480   4.259   3.099
 1704SOL    HW2 6846   4.493   4.248   3.193
 1704SOL    HW3 6847   4.469   4.170   3.065
 1704SOL    MW4 6848   4.481   4.246   3.107
 1705SOL     OW 6849   0.223   4.417   3.026
 1705SOL    HW2 6850   0.149   4.367   3.061
 1705SOL    HW3 6851   0.214   4.504   3.066
 1705SOL    MW4 6852   0.212   4.422   3.036
 1706SOL     OW 6853   0.706   0.034   3.131
 1706SOL    HW2 6854   0.710  -0.059   3.107
 1706SOL    HW3 6855   0.629   0.067   3.086
 1706SOL    MW4 6856   0.697   0.026   3.122
 1707SOL     OW 6857   0.457   0.139   2.962
 1707SOL    HW2 6858   0.470   0.227   2.997
 1707SOL    HW3 6859   0.390   0.101   3.017
 1707SOL    MW4 6860   0.450   0.146   2.974
 1708SOL     OW 6861   0.478   0.381   3.077
 1708SOL    HW2 6862   0.483   0.397   3.171
 1708SOL    HW3 6863   0.548   0.434   3.039
 1708SOL    MW4 6864   0.488   0.390   3.085
 1709SOL     OW 6865   0.692   0.527   2.985
 1709SOL    HW2 6866   0.749   0.466   3.032
 1709SOL    HW3 6867   0.705   0.611   3.028
 1709SOL    MW4 6868   0.701   0.530   2.997
 1710SOL     OW 6869   0.669   0.780   3.121
 1710SOL    HW2 6870   0.663   0.762   3.214
 1710SOL    HW3 6871   0.603   0.847   3.104
 1710SOL    MW4 6872   0.660   0.786   3.131
 1711SOL     OW 6873   0.444   0.898   3.012
 1711SOL    HW2 6874   0.359   0.866   3.040
 1711SOL    HW3 6875   0.454   0.864   2.922
 1711SOL    MW4 6876   0.434   0.889   3.004
 1712SOL     OW 6877   0.453   1.165   3.093
 1712SOL    HW2 6878   0.445   1.073   3.069
 1712SOL    HW3 6879   0.363   1.197   3.097
 1712SOL    MW4 6880   0.440   1.157   3.091
 1713SOL     OW 6881   0.675   1.336   2.993
 1713SOL    HW2 6882   0.749   1.276   3.005
 1713SOL    HW3 6883   0.601   1.291   3.033
 1713SOL    MW4 6884   0.675   1.322   3.000
 1714SOL     OW 6885   0.673   1.579   3.107
 1714SOL    HW2 6886   0.681   1.563   3.201
 1714SOL    HW3 6887   0.669   1.491   3.069
 1714SOL    MW4 6888   0.674   1.565   3.115
 1715SOL     OW 6889   0.442   1.684   3.028
 1715SOL    HW2 6890   0.527   1.645   3.049
 1715SOL    HW3 6891   0.378   1.626   3.068
 1715SOL    MW4 6892   0.445   1.672   3.036
 1716SOL     OW 6893   0.447   1.937   3.140
 1716SOL    HW2 6894   0.435   1.847   3.107
 1716SOL    HW3 6895   0.375   1.986   3.101
 1716SOL    MW4 6896   0.436   1.931   3.131
 1717SOL     OW 6897   0.654   2.068   3.018
 1717SOL    HW2 6898   0.736   2.037   3.057
 1717SOL    HW3 6899   0.585   2.037   3.077
 1717SOL    MW4 6900   0.656   2.060   3.031
 1718SOL     OW 6901   0.685   2.308   3.137
 1718SOL    HW2 6902   0.689   2.284   3.230
 1718SOL    HW3 6903   0.672   2.224   3.092
 1718SOL    MW4 6904   0.684   2.294   3.144
 1719SOL     OW 6905   0.481   2.458   3.036
 1719SOL    HW2 6906   0.556   2.407   3.067
 1719SOL    HW3 6907   0.486   2.455   2.941
 1719SOL    MW4 6908   0.491   2.451   3.028
 1720SOL     OW 6909   0.406   2.712   3.121
 1720SOL    HW2 6910   0.493   2.747   3.101
 1720SOL    HW3 6911   0.410   2.621   3.091
 1720SOL    MW4 6912   0.418   2.704   3.114
 1721SOL     OW 6913   0.631   2.831   3.010
 1721SOL    HW2 6914   0.720   2.801   3.028
 1721SOL    HW3 6915   0.628   2.921   3.042
 1721SOL    MW4 6916   0.642   2.839   3.017
 1722SOL     OW 6917   0.672   3.104   3.091
 1722SOL    HW2 6918   0.672   3.090   3.186
 1722SOL    HW3 6919   0.603   3.167   3.076
 1722SOL    MW4 6920   0.663   3.110   3.102
 1723SOL     OW 6921   0.462   3.255   3.005
 1723SOL    HW2 6922   0.442   3.346   3.030
 1723SOL    HW3 6923   0.393   3.204   3.048
 1723SOL    MW4 6924   0.450   3.260   3.014
 1724SOL     OW 6925   0.429   3.526   3.101
 1724SOL    HW2 6926   0.426   3.520   3.197
 1724SOL    HW3 6927   0.344   3.563   3.077
 1724SOL    MW4 6928   0.417   3.530   3.111
 1725SOL     OW 6929   0.668   3.662   3.007
 1725SOL    HW2 6930   0.729   3.601   3.049
 1725SOL    HW3 6931   0.581   3.634   3.037
 1725SOL    MW4 6932   0.664   3.650   3.017
 1726SOL     OW 6933   0.644   3.921   3.107
 1726SOL    HW2 6934   0.650   3.921   3.202
 1726SOL    HW3 6935   0.662   3.830   3.082
 1726SOL    MW4 6936   0.647   3.909   3.116
 1727SOL     OW 6937   0.405   4.011   2.965
 1727SOL    HW2 6938   0.489   3.976   2.994
 1727SOL    HW3 6939   0.408   4.005   2.870
 1727SOL    MW4 6940   0.417   4.006   2.956
 1728SOL     OW 6941   0.443   4.271   3.097
 1728SOL    HW2 6942   0.431   4.189   3.049
 1728SOL    HW3 6943   0.376   4.330   3.063
 1728SOL    MW4 6944   0.433   4.268   3.086
 1729SOL     OW 6945   0.685   4.419   3.034
 1729SOL    HW2 6946   0.605   4.377   3.065
 1729SOL    HW3 6947   0.671   4.431   2.940
 1729SOL    MW4 6948   0.673   4.415   3.025
 1730SOL     OW 6949   1.124   0.005   3.065
 1730SOL    HW2 6950   1.210   0.035   3.036
 1730SOL    HW3 6951   1.062   0.061   3.017
 1730SOL    MW4 6952   1.127   0.016   3.055
 1731SOL     OW 6953   0.896   0.154   2.943
 1731SOL    HW2 6954   0.900   0.232   2.999
 1731SOL    HW3 6955   0.827   0.101   2.981
 1731SOL    MW4 6956   0.888   0.157   2.955
 1732SOL     OW 6957   0.884   0.378   3.112
 1732SOL    HW2 6958   0.878   0.373   3.207
 1732SOL    HW3 6959   0.964   0.428   3.096
 1732SOL    MW4 6960   0.894   0.384   3.122
 1733SOL     OW 6961   1.132   0.512   3.009
 1733SOL    HW2 6962   1.215   0.470   3.031
 1733SOL    HW3 6963   1.127   0.506   2.913
 1733SOL    MW4 6964   1.142   0.506   2.999
 1734SOL     OW 6965   1.097   0.770   3.113
 1734SOL    HW2 6966   1.067   0.773   3.204
 1734SOL    HW3 6967   1.102   0.677   3.092
 1734SOL    MW4 6968   1.093   0.758   3.122
 1735SOL     OW 6969   0.884   0.885   2.968
 1735SOL    HW2 6970   0.963   0.848   3.007
 1735SOL    HW3 6971   0.812   0.841   3.014
 1735SOL    MW4 6972   0.885   0.874   2.979
 1736SOL     OW 6973   0.848   1.139   3.093
 1736SOL    HW2 6974   0.912   1.207   3.070
 1736SOL    HW3 6975   0.867   1.067   3.033
 1736SOL    MW4 6976   0.859   1.139   3.082
 1737SOL     OW 6977   1.074   1.283   3.041
 1737SOL    HW2 6978   1.156   1.238   3.062
 1737SOL    HW3 6979   1.077   1.295   2.946
 1737SOL    MW4 6980   1.085   1.279   3.031
 1738SOL     OW 6981   1.124   1.539   3.110
 1738SOL    HW2 6982   1.204   1.563   3.064
 1738SOL    HW3 6983   1.117   1.444   3.098
 1738SOL    MW4 6984   1.134   1.530   3.102
 1739SOL     OW 6985   0.919   1.710   3.019
 1739SOL    HW2 6986   0.993   1.657   3.048
 1739SOL    HW3 6987   0.841   1.664   3.051
 1739SOL    MW4 6988   0.918   1.697   3.027
 1740SOL     OW 6989   0.876   1.962   3.129
 1740SOL    HW2 6990   0.877   1.946   3.223
 1740SOL    HW3 6991   0.899   1.878   3.090
 1740SOL    MW4 6992   0.879   1.949   3.136
 1741SOL     OW 6993   1.133   2.073   3.051
 1741SOL    HW2 6994   1.049   2.038   3.081
 1741SOL    HW3 6995   1.127   2.070   2.956
 1741SOL    MW4 6996   1.121   2.068   3.042
 1742SOL     OW 6997   1.138   2.335   3.135
 1742SOL    HW2 6998   1.064   2.373   3.089
 1742SOL    HW3 6999   1.138   2.243   3.110
 1742SOL    MW4 7000   1.129   2.328   3.126
 1743SOL     OW 7001   0.917   2.445   3.009
 1743SOL    HW2 7002   0.839   2.397   3.038
 1743SOL    HW3 7003   0.897   2.472   2.920
 1743SOL    MW4 7004   0.904   2.442   3.001
 1744SOL     OW 7005   0.877   2.714   3.113
 1744SOL    HW2 7006   0.880   2.720   3.208
 1744SOL    HW3 7007   0.877   2.620   3.095
 1744SOL    MW4 7008   0.877   2.702   3.123
 1745SOL     OW 7009   1.126   2.811   2.997
 1745SOL    HW2 7010   1.131   2.895   3.042
 1745SOL    HW3 7011   1.046   2.771   3.030
 1745SOL    MW4 7012   1.116   2.817   3.007
 1746SOL     OW 7013   1.135   3.068   3.109
 1746SOL    HW2 7014   1.210   3.110   3.068
 1746SOL    HW3 7015   1.059   3.109   3.069
 1746SOL    MW4 7016   1.135   3.079   3.098
 1747SOL     OW 7017   0.914   3.229   3.015
 1747SOL    HW2 7018   0.834   3.179   3.033
 1747SOL    HW3 7019   0.925   3.223   2.920
 1747SOL    MW4 7020   0.905   3.222   3.005
 1748SOL     OW 7021   0.890   3.498   3.118
 1748SOL    HW2 7022   0.966   3.535   3.072
 1748SOL    HW3 7023   0.894   3.404   3.097
 1748SOL    MW4 7024   0.901   3.490   3.109
 1749SOL     OW 7025   1.099   3.607   2.986
 1749SOL    HW2 7026   1.178   3.566   3.021
 1749SOL    HW3 7027   1.101   3.696   3.020
 1749SOL    MW4 7028   1.110   3.613   2.995
 1750SOL     OW 7029   1.117   3.863   3.096
 1750SOL    HW2 7030   1.117   3.846   3.190
 1750SOL    HW3 7031   1.051   3.931   3.084
 1750SOL    MW4 7032   1.108   3.869   3.107
 1751SOL     OW 7033   0.890   4.029   3.025
 1751SOL    HW2 7034   0.810   3.990   3.060
 1751SOL    HW3 7035   0.892   4.000   2.933
 1751SOL    MW4 7036   0.880   4.020   3.017
 1752SOL     OW 7037   0.913   4.275   3.137
 1752SOL    HW2 7038   0.914   4.188   3.098
 1752SOL    HW3 7039   0.843   4.321   3.090
 1752SOL    MW4 7040   0.904   4.270   3.125
 1753SOL     OW 7041   1.124   4.397   3.018
 1753SOL    HW2 7042   1.047   4.367   3.066
 1753SOL    HW3 7043   1.125   4.492   3.032
 1753SOL    MW4 7044   1.114   4.406   3.026
 1754SOL     OW 7045   1.599   4.614   3.126
 1754SOL    HW2 7046   1.579   4.597   3.218
 1754SOL    HW3 7047   1.521   4.658   3.092
 1754SOL    MW4 7048   1.586   4.617   3.134
 1755SOL     OW 7049   1.390   0.090   3.011
 1755SOL    HW2 7050   1.409   0.183   3.026
 1755SOL    HW3 7051   1.384   0.082   2.916
 1755SOL    MW4 7052   1.392   0.101   3.001
 1756SOL     OW 7053   1.378   0.366   3.062
 1756SOL    HW2 7054   1.375   0.384   3.156
 1756SOL    HW3 7055   1.458   0.409   3.031
 1756SOL    MW4 7056   1.388   0.374   3.070
 1757SOL     OW 7057   1.595   0.496   2.964
 1757SOL    HW2 7058   1.561   0.583   2.986
 1757SOL    HW3 7059   1.595   0.494   2.869
 1757SOL    MW4 7060   1.591   0.507   2.954
 1758SOL     OW 7061   1.556   0.746   3.072
 1758SOL    HW2 7062   1.549   0.745   3.167
 1758SOL    HW3 7063   1.490   0.810   3.044
 1758SOL    MW4 7064   1.547   0.755   3.081
 1759SOL     OW 7065   1.323   0.894   3.025
 1759SOL    HW2 7066   1.312   0.978   3.069
 1759SOL    HW3 7067   1.248   0.842   3.052
 1759SOL    MW4 7068   1.312   0.898   3.034
 1760SOL     OW 7069   1.302   1.167   3.127
 1760SOL    HW2 7070   1.309   1.144   3.220
 1760SOL    HW3 7071   1.378   1.221   3.110
 1760SOL    MW4 7072   1.313   1.171   3.137
 1761SOL     OW 7073   1.549   1.272   3.004
 1761SOL    HW2 7074   1.627   1.225   3.034
 1761SOL    HW3 7075   1.547   1.351   3.057
 1761SOL    MW4 7076   1.559   1.276   3.015
 1762SOL     OW 7077   1.605   1.513   3.133
 1762SOL    HW2 7078   1.689   1.530   3.091
 1762SOL    HW3 7079   1.544   1.574   3.090
 1762SOL    MW4 7080   1.608   1.523   3.122
 1763SOL     OW 7081   1.375   1.616   3.002
 1763SOL    HW2 7082   1.370   1.696   3.054
 1763SOL    HW3 7083   1.364   1.646   2.912
 1763SOL    MW4 7084   1.373   1.631   2.997
 1764SOL     OW 7085   1.363   1.886   3.094
 1764SOL    HW2 7086   1.359   1.896   3.189
 1764SOL    HW3 7087   1.284   1.930   3.062
 1764SOL    MW4 7088   1.352   1.893   3.102
 1765SOL     OW 7089   1.578   2.054   3.013
 1765SOL    HW2 7090   1.503   1.994   3.023
 1765SOL    HW3 7091   1.578   2.076   2.920
 1765SOL    MW4 7092   1.568   2.049   3.002
 1766SOL     OW 7093   1.595   2.315   3.084
 1766SOL    HW2 7094   1.518   2.365   3.054
 1766SOL    HW3 7095   1.581   2.227   3.049
 1766SOL    MW4 7096   1.583   2.310   3.076
 1767SOL     OW 7097   1.359   2.436   3.008
 1767SOL    HW2 7098   1.286   2.398   3.057
 1767SOL    HW3 7099   1.327   2.440   2.918
 1767SOL    MW4 7100   1.345   2.431   3.003
 1768SOL     OW 7101   1.346   2.707   3.116
 1768SOL    HW2 7102   1.347   2.616   3.087
 1768SOL    HW3 7103   1.271   2.745   3.071
 1768SOL    MW4 7104   1.336   2.700   3.106
 1769SOL     OW 7105   1.581   2.792   2.993
 1769SOL    HW2 7106   1.641   2.747   3.053
 1769SOL    HW3 7107   1.494   2.773   3.029
 1769SOL    MW4 7108   1.577   2.783   3.006
 1770SOL     OW 7109   1.615   3.067   3.087
 1770SOL    HW2 7110   1.608   3.072   3.183
 1770SOL    HW3 7111   1.616   2.973   3.068
 1770SOL    MW4 7112   1.614   3.055   3.097
 1771SOL     OW 7113   1.374   3.203   3.018
 1771SOL    HW2 7114   1.454   3.159   3.046
 1771SOL    HW3 7115   1.385   3.215   2.923
 1771SOL    MW4 7116   1.386   3.199   3.009
 1772SOL     OW 7117   1.307   3.469   3.091
 1772SOL    HW2 7118   1.321   3.467   3.185
 1772SOL    HW3 7119   1.313   3.378   3.063
 1772SOL    MW4 7120   1.309   3.457   3.100
 1773SOL     OW 7121   1.552   3.569   3.027
 1773SOL    HW2 7122   1.466   3.553   3.065
 1773SOL    HW3 7123   1.535   3.588   2.935
 1773SOL    MW4 7124   1.539   3.569   3.020
 1774SOL     OW 7125   1.555   3.848   3.086
 1774SOL    HW2 7126   1.642   3.881   3.061
 1774SOL    HW3 7127   1.562   3.753   3.078
 1774SOL    MW4 7128   1.567   3.840   3.082
 1775SOL     OW 7129   1.336   3.996   3.015
 1775SOL    HW2 7130   1.413   3.947   3.041
 1775SOL    HW3 7131   1.263   3.952   3.059
 1775SOL    MW4 7132   1.336   3.984   3.024
 1776SOL     OW 7133   1.360   4.268   3.092
 1776SOL    HW2 7134   1.341   4.175   3.076
 1776SOL    HW3 7135   1.277   4.312   3.078
 1776SOL    MW4 7136   1.347   4.261   3.088
 1777SOL     OW 7137   1.569   4.386   2.986
 1777SOL    HW2 7138   1.489   4.348   3.023
 1777SOL    HW3 7139   1.579   4.469   3.033
 1777SOL    MW4 7140   1.560   4.392   2.997
 1778SOL     OW 7141   2.063   0.012   3.106
 1778SOL    HW2 7142   2.044  -0.006   3.198
 1778SOL    HW3 7143   1.979   0.039   3.068
 1778SOL    MW4 7144   2.050   0.013   3.113
 1779SOL     OW 7145   1.820   0.099   3.025
 1779SOL    HW2 7146   1.762   0.033   3.062
 1779SOL    HW3 7147   1.813   0.087   2.930
 1779SOL    MW4 7148   1.811   0.089   3.017
 1780SOL     OW 7149   1.759   0.354   3.144
 1780SOL    HW2 7150   1.766   0.264   3.111
 1780SOL    HW3 7151   1.710   0.401   3.077
 1780SOL    MW4 7152   1.753   0.348   3.131
 1781SOL     OW 7153   2.003   0.448   3.052
 1781SOL    HW2 7154   1.915   0.417   3.071
 1781SOL    HW3 7155   2.005   0.459   2.957
 1781SOL    MW4 7156   1.992   0.446   3.042
 1782SOL     OW 7157   2.049   0.715   3.120
 1782SOL    HW2 7158   1.979   0.769   3.084
 1782SOL    HW3 7159   2.038   0.630   3.077
 1782SOL    MW4 7160   2.038   0.711   3.110
 1783SOL     OW 7161   1.811   0.846   3.018
 1783SOL    HW2 7162   1.726   0.812   3.044
 1783SOL    HW3 7163   1.795   0.886   2.932
 1783SOL    MW4 7164   1.798   0.847   3.010
 1784SOL     OW 7165   1.803   1.123   3.083
 1784SOL    HW2 7166   1.812   1.138   3.177
 1784SOL    HW3 7167   1.813   1.028   3.073
 1784SOL    MW4 7168   1.805   1.112   3.094
 1785SOL     OW 7169   1.990   1.289   2.983
 1785SOL    HW2 7170   2.067   1.250   3.025
 1785SOL    HW3 7171   1.919   1.226   3.000
 1785SOL    MW4 7172   1.991   1.275   2.991
 1786SOL     OW 7173   2.062   1.543   3.110
 1786SOL    HW2 7174   2.042   1.542   3.204
 1786SOL    HW3 7175   2.033   1.458   3.078
 1786SOL    MW4 7176   2.056   1.531   3.118
 1787SOL     OW 7177   1.816   1.652   3.003
 1787SOL    HW2 7178   1.800   1.746   3.011
 1787SOL    HW3 7179   1.905   1.640   3.036
 1787SOL    MW4 7180   1.826   1.663   3.008
 1788SOL     OW 7181   1.832   1.914   3.122
 1788SOL    HW2 7182   1.903   1.962   3.081
 1788SOL    HW3 7183   1.753   1.962   3.097
 1788SOL    MW4 7184   1.831   1.926   3.113
 1789SOL     OW 7185   2.032   2.066   2.986
 1789SOL    HW2 7186   2.114   2.028   3.020
 1789SOL    HW3 7187   2.017   2.143   3.041
 1789SOL    MW4 7188   2.041   2.071   2.998
 1790SOL     OW 7189   2.055   2.307   3.128
 1790SOL    HW2 7190   2.132   2.359   3.105
 1790SOL    HW3 7191   1.982   2.353   3.087
 1790SOL    MW4 7192   2.055   2.320   3.119
 1791SOL     OW 7193   1.844   2.451   3.054
 1791SOL    HW2 7194   1.831   2.544   3.073
 1791SOL    HW3 7195   1.765   2.409   3.086
 1791SOL    MW4 7196   1.832   2.458   3.061
 1792SOL     OW 7197   1.786   2.703   3.143
 1792SOL    HW2 7198   1.773   2.720   3.236
 1792SOL    HW3 7199   1.865   2.754   3.121
 1792SOL    MW4 7200   1.795   2.712   3.152
 1793SOL     OW 7201   2.013   2.813   3.013
 1793SOL    HW2 7202   2.033   2.906   3.028
 1793SOL    HW3 7203   1.991   2.809   2.920
 1793SOL    MW4 7204   2.013   2.825   3.003
 1794SOL     OW 7205   2.069   3.079   3.096
 1794SOL    HW2 7206   2.081   3.110   3.186
 1794SOL    HW3 7207   1.985   3.116   3.069
 1794SOL    MW4 7208   2.060   3.088   3.104
 1795SOL     OW 7209   1.838   3.201   3.010
 1795SOL    HW2 7210   1.757   3.159   3.040
 1795SOL    HW3 7211   1.834   3.193   2.915
 1795SOL    MW4 7212   1.827   3.194   3.001
 1796SOL     OW 7213   1.824   3.482   3.076
 1796SOL    HW2 7214   1.820   3.393   3.042
 1796SOL    HW3 7215   1.737   3.518   3.059
 1796SOL    MW4 7216   1.812   3.475   3.069
 1797SOL     OW 7217   2.047   3.628   3.025
 1797SOL    HW2 7218   2.049   3.715   3.065
 1797SOL    HW3 7219   1.965   3.589   3.056
 1797SOL    MW4 7220   2.036   3.635   3.034
 1798SOL     OW 7221   2.059   3.891   3.102
 1798SOL    HW2 7222   2.076   3.910   3.194
 1798SOL    HW3 7223   1.968   3.917   3.088
 1798SOL    MW4 7224   2.049   3.897   3.112
 1799SOL     OW 7225   1.803   3.952   3.000
 1799SOL    HW2 7226   1.789   4.044   3.026
 1799SOL    HW3 7227   1.797   3.953   2.904
 1799SOL    MW4 7228   1.800   3.965   2.991
 1800SOL     OW 7229   1.791   4.219   3.049
 1800SOL    HW2 7230   1.861   4.284   3.051
 1800SOL    HW3 7231   1.715   4.266   3.016
 1800SOL    MW4 7232   1.790   4.234   3.045
 1801SOL     OW 7233   2.020   4.387   3.060
 1801SOL    HW2 7234   2.032   4.478   3.086
 1801SOL    HW3 7235   2.017   4.390   2.965
 1801SOL    MW4 7236   2.021   4.399   3.051
 1802SOL     OW 7237   2.490   4.663   3.155
 1802SOL    HW2 7238   2.496   4.575   3.119
 1802SOL    HW3 7239   2.418   4.704   3.106
 1802SOL    MW4 7240   2.481   4.657   3.143
 1803SOL     OW 7241   2.283   0.131   3.018
 1803SOL    HW2 7242   2.276   0.206   3.077
 1803SOL    HW3 7243   2.210   0.074   3.042
 1803SOL    MW4 7244   2.272   0.133   3.029
 1804SOL     OW 7245   2.252   0.373   3.152
 1804SOL    HW2 7246   2.239   0.374   3.247
 1804SOL    HW3 7247   2.163   0.374   3.116
 1804SOL    MW4 7248   2.238   0.373   3.160
 1805SOL     OW 7249   2.487   0.482   3.025
 1805SOL    HW2 7250   2.424   0.420   3.063
 1805SOL    HW3 7251   2.476   0.472   2.930
 1805SOL    MW4 7252   2.477   0.473   3.017
 1806SOL     OW 7253   2.518   0.744   3.137
 1806SOL    HW2 7254   2.604   0.779   3.116
 1806SOL    HW3 7255   2.514   0.660   3.091
 1806SOL    MW4 7256   2.529   0.737   3.128
 1807SOL     OW 7257   2.279   0.869   3.024
 1807SOL    HW2 7258   2.353   0.821   3.061
 1807SOL    HW3 7259   2.202   0.821   3.055
 1807SOL    MW4 7260   2.279   0.857   3.033
 1808SOL     OW 7261   2.238   1.165   3.077
 1808SOL    HW2 7262   2.260   1.163   3.170
 1808SOL    HW3 7263   2.255   1.076   3.046
 1808SOL    MW4 7264   2.243   1.153   3.085
 1809SOL     OW 7265   2.481   1.280   2.999
 1809SOL    HW2 7266   2.408   1.225   3.025
 1809SOL    HW3 7267   2.489   1.266   2.905
 1809SOL    MW4 7268   2.473   1.271   2.990
 1810SOL     OW 7269   2.480   1.536   3.091
 1810SOL    HW2 7270   2.394   1.576   3.075
 1810SOL    HW3 7271   2.470   1.446   3.058
 1810SOL    MW4 7272   2.467   1.529   3.085
 1811SOL     OW 7273   2.265   1.692   3.021
 1811SOL    HW2 7274   2.195   1.634   3.049
 1811SOL    HW3 7275   2.273   1.677   2.927
 1811SOL    MW4 7276   2.257   1.683   3.012
 1812SOL     OW 7277   2.250   1.963   3.096
 1812SOL    HW2 7278   2.337   1.999   3.083
 1812SOL    HW3 7279   2.259   1.869   3.076
 1812SOL    MW4 7280   2.263   1.955   3.092
 1813SOL     OW 7281   2.482   2.079   3.038
 1813SOL    HW2 7282   2.555   2.032   3.078
 1813SOL    HW3 7283   2.501   2.077   2.944
 1813SOL    MW4 7284   2.495   2.073   3.031
 1814SOL     OW 7285   2.452   2.349   3.118
 1814SOL    HW2 7286   2.454   2.360   3.213
 1814SOL    HW3 7287   2.466   2.255   3.105
 1814SOL    MW4 7288   2.454   2.338   3.128
 1815SOL     OW 7289   2.246   2.479   3.005
 1815SOL    HW2 7290   2.255   2.562   3.053
 1815SOL    HW3 7291   2.324   2.429   3.030
 1815SOL    MW4 7292   2.258   2.483   3.014
 1816SOL     OW 7293   2.251   2.726   3.131
 1816SOL    HW2 7294   2.317   2.780   3.088
 1816SOL    HW3 7295   2.169   2.751   3.090
 1816SOL    MW4 7296   2.249   2.736   3.120
 1817SOL     OW 7297   2.475   2.847   3.026
 1817SOL    HW2 7298   2.469   2.940   3.046
 1817SOL    HW3 7299   2.458   2.841   2.932
 1817SOL    MW4 7300   2.472   2.858   3.016
 1818SOL     OW 7301   2.488   3.107   3.093
 1818SOL    HW2 7302   2.548   3.162   3.042
 1818SOL    HW3 7303   2.401   3.143   3.074
 1818SOL    MW4 7304   2.484   3.119   3.084
 1819SOL     OW 7305   2.270   3.237   3.001
 1819SOL    HW2 7306   2.264   3.326   3.036
 1819SOL    HW3 7307   2.190   3.194   3.030
 1819SOL    MW4 7308   2.259   3.243   3.009
 1820SOL     OW 7309   2.246   3.482   3.110
 1820SOL    HW2 7310   2.315   3.537   3.071
 1820SOL    HW3 7311   2.165   3.514   3.070
 1820SOL    MW4 7312   2.245   3.494   3.099
 1821SOL     OW 7313   2.461   3.638   2.977
 1821SOL    HW2 7314   2.542   3.594   2.999
 1821SOL    HW3 7315   2.463   3.720   3.026
 1821SOL    MW4 7316   2.472   3.643   2.986
 1822SOL     OW 7317   2.479   3.875   3.096
 1822SOL    HW2 7318   2.469   3.878   3.191
 1822SOL    HW3 7319   2.551   3.935   3.077
 1822SOL    MW4 7320   2.487   3.884   3.106
 1823SOL     OW 7321   2.265   4.008   2.974
 1823SOL    HW2 7322   2.337   3.949   2.998
 1823SOL    HW3 7323   2.188   3.971   3.017
 1823SOL    MW4 7324   2.264   3.995   2.983
 1824SOL     OW 7325   2.251   4.248   3.126
 1824SOL    HW2 7326   2.280   4.173   3.075
 1824SOL    HW3 7327   2.162   4.264   3.097
 1824SOL    MW4 7328   2.243   4.240   3.116
 1825SOL     OW 7329   2.473   4.410   3.060
 1825SOL    HW2 7330   2.394   4.365   3.089
 1825SOL    HW3 7331   2.478   4.393   2.966
 1825SOL    MW4 7332   2.463   4.402   3.051
 1826SOL     OW 7333   2.937   4.639   3.160
 1826SOL    HW2 7334   2.993   4.688   3.100
 1826SOL    HW3 7335   2.927   4.553   3.119
 1826SOL    MW4 7336   2.943   4.634   3.146
 1827SOL     OW 7337   2.730   0.131   3.068
 1827SOL    HW2 7338   2.798   0.080   3.113
 1827SOL    HW3 7339   2.648   0.099   3.106
 1827SOL    MW4 7340   2.728   0.120   3.079
 1828SOL     OW 7341   2.718   0.399   3.126
 1828SOL    HW2 7342   2.722   0.305   3.106
 1828SOL    HW3 7343   2.633   0.427   3.092
 1828SOL    MW4 7344   2.707   0.390   3.119
 1829SOL     OW 7345   2.940   0.533   3.027
 1829SOL    HW2 7346   2.867   0.479   3.058
 1829SOL    HW3 7347   2.945   0.514   2.933
 1829SOL    MW4 7348   2.931   0.523   3.019
 1830SOL     OW 7349   2.937   0.789   3.123
 1830SOL    HW2 7350   2.917   0.769   3.215
 1830SOL    HW3 7351   2.931   0.705   3.078
 1830SOL    MW4 7352   2.934   0.775   3.129
 1831SOL     OW 7353   2.719   0.872   2.994
 1831SOL    HW2 7354   2.692   0.960   3.021
 1831SOL    HW3 7355   2.804   0.859   3.036
 1831SOL    MW4 7356   2.727   0.882   3.003
 1832SOL     OW 7357   2.672   1.110   3.123
 1832SOL    HW2 7358   2.755   1.158   3.115
 1832SOL    HW3 7359   2.605   1.176   3.104
 1832SOL    MW4 7360   2.674   1.125   3.119
 1833SOL     OW 7361   2.905   1.240   3.039
 1833SOL    HW2 7362   2.991   1.212   3.071
 1833SOL    HW3 7363   2.907   1.335   3.047
 1833SOL    MW4 7364   2.917   1.249   3.044
 1834SOL     OW 7365   2.922   1.525   3.095
 1834SOL    HW2 7366   2.934   1.537   3.190
 1834SOL    HW3 7367   3.002   1.559   3.056
 1834SOL    MW4 7368   2.934   1.531   3.103
 1835SOL     OW 7369   2.702   1.670   2.988
 1835SOL    HW2 7370   2.775   1.639   3.040
 1835SOL    HW3 7371   2.629   1.611   3.011
 1835SOL    MW4 7372   2.702   1.658   2.998
 1836SOL     OW 7373   2.704   1.930   3.098
 1836SOL    HW2 7374   2.787   1.963   3.064
 1836SOL    HW3 7375   2.693   1.844   3.058
 1836SOL    MW4 7376   2.714   1.923   3.088
 1837SOL     OW 7377   2.928   2.041   2.951
 1837SOL    HW2 7378   2.927   2.130   2.987
 1837SOL    HW3 7379   2.918   2.054   2.856
 1837SOL    MW4 7380   2.927   2.054   2.943
 1838SOL     OW 7381   2.917   2.309   3.075
 1838SOL    HW2 7382   2.985   2.369   3.044
 1838SOL    HW3 7383   2.835   2.356   3.062
 1838SOL    MW4 7384   2.916   2.323   3.069
 1839SOL     OW 7385   2.689   2.449   3.012
 1839SOL    HW2 7386   2.694   2.542   3.034
 1839SOL    HW3 7387   2.614   2.417   3.061
 1839SOL    MW4 7388   2.680   2.457   3.021
 1840SOL     OW 7389   2.707   2.711   3.092
 1840SOL    HW2 7390   2.706   2.722   3.187
 1840SOL    HW3 7391   2.636   2.767   3.061
 1840SOL    MW4 7392   2.697   2.720   3.101
 1841SOL     OW 7393   2.924   2.863   3.005
 1841SOL    HW2 7394   3.006   2.820   3.032
 1841SOL    HW3 7395   2.855   2.807   3.041
 1841SOL    MW4 7396   2.926   2.850   3.013
 1842SOL     OW 7397   2.882   3.107   3.120
 1842SOL    HW2 7398   2.808   3.142   3.070
 1842SOL    HW3 7399   2.898   3.021   3.082
 1842SOL    MW4 7400   2.874   3.100   3.109
 1843SOL     OW 7401   2.689   3.245   2.971
 1843SOL    HW2 7402   2.692   3.338   2.995
 1843SOL    HW3 7403   2.707   3.244   2.877
 1843SOL    MW4 7404   2.692   3.257   2.962
 1844SOL     OW 7405   2.682   3.512   3.058
 1844SOL    HW2 7406   2.679   3.509   3.153
 1844SOL    HW3 7407   2.774   3.530   3.037
 1844SOL    MW4 7408   2.694   3.514   3.068
 1845SOL     OW 7409   2.920   3.617   2.973
 1845SOL    HW2 7410   3.002   3.594   3.016
 1845SOL    HW3 7411   2.906   3.709   2.995
 1845SOL    MW4 7412   2.929   3.626   2.982
 1846SOL     OW 7413   2.919   3.883   3.070
 1846SOL    HW2 7414   2.923   3.877   3.166
 1846SOL    HW3 7415   2.843   3.939   3.053
 1846SOL    MW4 7416   2.910   3.890   3.081
 1847SOL     OW 7417   2.682   4.042   3.044
 1847SOL    HW2 7418   2.673   4.135   3.064
 1847SOL    HW3 7419   2.680   4.037   2.949
 1847SOL    MW4 7420   2.681   4.053   3.034
 1848SOL     OW 7421   2.715   4.292   3.147
 1848SOL    HW2 7422   2.708   4.273   3.241
 1848SOL    HW3 7423   2.640   4.348   3.128
 1848SOL    MW4 7424   2.704   4.297   3.157
 1849SOL     OW 7425   2.957   4.402   3.034
 1849SOL    HW2 7426   3.034   4.351   3.059
 1849SOL    HW3 7427   2.883   4.356   3.074
 1849SOL    MW4 7428   2.957   4.389   3.043
 1850SOL     OW 7429   3.353   4.631   3.128
 1850SOL    HW2 7430   3.431   4.683   3.107
 1850SOL    HW3 7431   3.376   4.542   3.102
 1850SOL    MW4 7432   3.366   4.626   3.122
 1851SOL     OW 7433   3.128   0.132   3.021
 1851SOL    HW2 7434   3.141   0.215   3.068
 1851SOL    HW3 7435   3.196   0.074   3.056
 1851SOL    MW4 7436   3.139   0.135   3.032
 1852SOL     OW 7437   3.155   0.374   3.149
 1852SOL    HW2 7438   3.234   0.410   3.107
 1852SOL    HW3 7439   3.082   0.418   3.105
 1852SOL    MW4 7440   3.156   0.385   3.137
 1853SOL     OW 7441   3.362   0.492   3.012
 1853SOL    HW2 7442   3.447   0.453   3.034
 1853SOL    HW3 7443   3.360   0.491   2.916
 1853SOL    MW4 7444   3.373   0.487   3.002
 1854SOL     OW 7445   3.369   0.761   3.084
 1854SOL    HW2 7446   3.353   0.753   3.178
 1854SOL    HW3 7447   3.371   0.671   3.052
 1854SOL    MW4 7448   3.367   0.748   3.092
 1855SOL     OW 7449   3.154   0.889   2.976
 1855SOL    HW2 7450   3.220   0.827   3.008
 1855SOL    HW3 7451   3.073   0.862   3.019
 1855SOL    MW4 7452   3.152   0.877   2.986
 1856SOL     OW 7453   3.145   1.127   3.101
 1856SOL    HW2 7454   3.220   1.171   3.061
 1856SOL    HW3 7455   3.150   1.037   3.069
 1856SOL    MW4 7456   3.156   1.121   3.092
 1857SOL     OW 7457   3.344   1.286   2.963
 1857SOL    HW2 7458   3.419   1.239   2.998
 1857SOL    HW3 7459   3.347   1.371   3.007
 1857SOL    MW4 7460   3.354   1.291   2.974
 1858SOL     OW 7461   3.381   1.547   3.069
 1858SOL    HW2 7462   3.369   1.535   3.163
 1858SOL    HW3 7463   3.464   1.594   3.062
 1858SOL    MW4 7464   3.390   1.552   3.081
 1859SOL     OW 7465   3.136   1.661   2.986
 1859SOL    HW2 7466   3.220   1.627   3.017
 1859SOL    HW3 7467   3.142   1.657   2.891
 1859SOL    MW4 7468   3.148   1.656   2.978
 1860SOL     OW 7469   3.146   1.916   3.103
 1860SOL    HW2 7470   3.144   1.836   3.050
 1860SOL    HW3 7471   3.078   1.971   3.065
 1860SOL    MW4 7472   3.137   1.912   3.091
 1861SOL     OW 7473   3.358   2.040   2.987
 1861SOL    HW2 7474   3.438   1.994   3.014
 1861SOL    HW3 7475   3.287   1.994   3.033
 1861SOL    MW4 7476   3.359   2.028   2.997
 1862SOL     OW 7477   3.376   2.295   3.072
 1862SOL    HW2 7478   3.367   2.287   3.167
 1862SOL    HW3 7479   3.368   2.205   3.040
 1862SOL    MW4 7480   3.374   2.282   3.080
 1863SOL     OW 7481   3.146   2.465   3.016
 1863SOL    HW2 7482   3.213   2.400   3.040
 1863SOL    HW3 7483   3.160   2.481   2.923
 1863SOL    MW4 7484   3.157   2.458   3.007
 1864SOL     OW 7485   3.147   2.725   3.092
 1864SOL    HW2 7486   3.126   2.725   3.185
 1864SOL    HW3 7487   3.145   2.633   3.067
 1864SOL    MW4 7488   3.144   2.713   3.101
 1865SOL     OW 7489   3.390   2.863   3.027
 1865SOL    HW2 7490   3.381   2.950   3.067
 1865SOL    HW3 7491   3.305   2.821   3.042
 1865SOL    MW4 7492   3.378   2.869   3.034
 1866SOL     OW 7493   3.384   3.139   3.117
 1866SOL    HW2 7494   3.358   3.131   3.209
 1866SOL    HW3 7495   3.312   3.187   3.077
 1866SOL    MW4 7496   3.371   3.144   3.124
 1867SOL     OW 7497   3.114   3.236   3.004
 1867SOL    HW2 7498   3.031   3.206   3.040
 1867SOL    HW3 7499   3.108   3.218   2.910
 1867SOL    MW4 7500   3.103   3.229   2.996
 1868SOL     OW 7501   3.149   3.511   3.097
 1868SOL    HW2 7502   3.235   3.537   3.063
 1868SOL    HW3 7503   3.140   3.419   3.074
 1868SOL    MW4 7504   3.159   3.502   3.090
 1869SOL     OW 7505   3.376   3.628   3.000
 1869SOL    HW2 7506   3.446   3.581   3.046
 1869SOL    HW3 7507   3.390   3.720   3.022
 1869SOL    MW4 7508   3.387   3.634   3.009
 1870SOL     OW 7509   3.409   3.894   3.120
 1870SOL    HW2 7510   3.414   3.871   3.213
 1870SOL    HW3 7511   3.326   3.940   3.111
 1870SOL    MW4 7512   3.399   3.897   3.131
 1871SOL     OW 7513   3.158   4.008   3.010
 1871SOL    HW2 7514   3.075   3.976   3.046
 1871SOL    HW3 7515   3.142   4.017   2.916
 1871SOL    MW4 7516   3.145   4.005   3.003
 1872SOL     OW 7517   3.184   4.264   3.135
 1872SOL    HW2 7518   3.170   4.245   3.228
 1872SOL    HW3 7519   3.179   4.179   3.092
 1872SOL    MW4 7520   3.181   4.250   3.142
 1873SOL     OW 7521   3.415   4.376   2.992
 1873SOL    HW2 7522   3.494   4.348   3.038
 1873SOL    HW3 7523   3.344   4.325   3.031
 1873SOL    MW4 7524   3.416   4.366   3.003
 1874SOL     OW 7525   3.811   0.017   3.124
 1874SOL    HW2 7526   3.809  -0.076   3.101
 1874SOL    HW3 7527   3.721   0.047   3.112
 1874SOL    MW4 7528   3.799   0.009   3.120
 1875SOL     OW 7529   3.556   0.110   3.049
 1875SOL    HW2 7530   3.557   0.204   3.067
 1875SOL    HW3 7531   3.549   0.104   2.954
 1875SOL    MW4 7532   3.555   0.122   3.039
 1876SOL     OW 7533   3.596   0.379   3.084
 1876SOL    HW2 7534   3.597   0.398   3.178
 1876SOL    HW3 7535   3.674   0.423   3.050
 1876SOL    MW4 7536   3.607   0.387   3.092
 1877SOL     OW 7537   3.835   0.514   3.006
 1877SOL    HW2 7538   3.901   0.470   3.060
 1877SOL    HW3 7539   3.832   0.603   3.039
 1877SOL    MW4 7540   3.843   0.520   3.018
 1878SOL     OW 7541   3.789   0.777   3.102
 1878SOL    HW2 7542   3.799   0.769   3.197
 1878SOL    HW3 7543   3.869   0.821   3.073
 1878SOL    MW4 7544   3.801   0.782   3.111
 1879SOL     OW 7545   3.575   0.922   2.999
 1879SOL    HW2 7546   3.657   0.889   3.037
 1879SOL    HW3 7547   3.506   0.869   3.039
 1879SOL    MW4 7548   3.577   0.911   3.009
 1880SOL     OW 7549   3.557   1.175   3.109
 1880SOL    HW2 7550   3.634   1.224   3.080
 1880SOL    HW3 7551   3.567   1.089   3.069
 1880SOL    MW4 7552   3.569   1.170   3.100
 1881SOL     OW 7553   3.814   1.258   3.027
 1881SOL    HW2 7554   3.836   1.342   3.067
 1881SOL    HW3 7555   3.799   1.278   2.935
 1881SOL    MW4 7556   3.815   1.271   3.020
 1882SOL     OW 7557   3.829   1.513   3.117
 1882SOL    HW2 7558   3.822   1.516   3.212
 1882SOL    HW3 7559   3.754   1.564   3.086
 1882SOL    MW4 7560   3.818   1.520   3.126
 1883SOL     OW 7561   3.628   1.673   3.013
 1883SOL    HW2 7562   3.634   1.768   3.025
 1883SOL    HW3 7563   3.619   1.662   2.918
 1883SOL    MW4 7564   3.627   1.684   3.002
 1884SOL     OW 7565   3.617   1.949   3.080
 1884SOL    HW2 7566   3.620   1.940   3.176
 1884SOL    HW3 7567   3.703   1.981   3.056
 1884SOL    MW4 7568   3.629   1.952   3.090
 1885SOL     OW 7569   3.857   2.065   2.996
 1885SOL    HW2 7570   3.850   2.146   3.048
 1885SOL    HW3 7571   3.835   2.092   2.907
 1885SOL    MW4 7572   3.853   2.079   2.991
 1886SOL     OW 7573   3.855   2.329   3.103
 1886SOL    HW2 7574   3.830   2.331   3.196
 1886SOL    HW3 7575   3.783   2.374   3.059
 1886SOL    MW4 7576   3.842   2.335   3.110
 1887SOL     OW 7577   3.610   2.425   2.969
 1887SOL    HW2 7578   3.597   2.512   3.008
 1887SOL    HW3 7579   3.540   2.372   3.007
 1887SOL    MW4 7580   3.599   2.430   2.979
 1888SOL     OW 7581   3.594   2.679   3.098
 1888SOL    HW2 7582   3.676   2.712   3.060
 1888SOL    HW3 7583   3.529   2.745   3.076
 1888SOL    MW4 7584   3.596   2.692   3.090
 1889SOL     OW 7585   3.823   2.821   3.019
 1889SOL    HW2 7586   3.830   2.907   3.062
 1889SOL    HW3 7587   3.814   2.841   2.926
 1889SOL    MW4 7588   3.822   2.835   3.012
 1890SOL     OW 7589   3.848   3.076   3.127
 1890SOL    HW2 7590   3.932   3.111   3.096
 1890SOL    HW3 7591   3.784   3.141   3.101
 1890SOL    MW4 7592   3.851   3.089   3.120
 1891SOL     OW 7593   3.627   3.217   3.027
 1891SOL    HW2 7594   3.541   3.198   3.063
 1891SOL    HW3 7595   3.616   3.207   2.932
 1891SOL    MW4 7596   3.614   3.213   3.019
 1892SOL     OW 7597   3.575   3.486   3.099
 1892SOL    HW2 7598   3.656   3.533   3.081
 1892SOL    HW3 7599   3.594   3.395   3.076
 1892SOL    MW4 7600   3.588   3.480   3.093
 1893SOL     OW 7601   3.806   3.640   3.043
 1893SOL    HW2 7602   3.791   3.732   3.068
 1893SOL    HW3 7603   3.817   3.643   2.948
 1893SOL    MW4 7604   3.806   3.653   3.034
 1894SOL     OW 7605   3.776   3.909   3.116
 1894SOL    HW2 7606   3.788   3.925   3.209
 1894SOL    HW3 7607   3.713   3.975   3.088
 1894SOL    MW4 7608   3.769   3.919   3.124
 1895SOL     OW 7609   3.577   4.068   3.018
 1895SOL    HW2 7610   3.509   4.010   3.054
 1895SOL    HW3 7611   3.595   4.033   2.931
 1895SOL    MW4 7612   3.570   4.055   3.011
 1896SOL     OW 7613   3.630   4.308   3.165
 1896SOL    HW2 7614   3.710   4.347   3.130
 1896SOL    HW3 7615   3.632   4.217   3.136
 1896SOL    MW4 7616   3.640   4.301   3.157
 1897SOL     OW 7617   3.862   4.405   3.051
 1897SOL    HW2 7618   3.940   4.355   3.077
 1897SOL    HW3 7619   3.859   4.397   2.956
 1897SOL    MW4 7620   3.872   4.398   3.042
 1898SOL     OW 7621   4.263   0.025   3.115
 1898SOL    HW2 7622   4.278   0.021   3.210
 1898SOL    HW3 7623   4.276  -0.064   3.084
 1898SOL    MW4 7624   4.266   0.013   3.124
 1899SOL     OW 7625   4.032   0.144   2.988
 1899SOL    HW2 7626   4.113   0.117   3.030
 1899SOL    HW3 7627   3.964   0.094   3.033
 1899SOL    MW4 7628   4.033   0.134   2.999
 1900SOL     OW 7629   4.064   0.385   3.119
 1900SOL    HW2 7630   4.122   0.439   3.064
 1900SOL    HW3 7631   4.044   0.309   3.065
 1900SOL    MW4 7632   4.069   0.382   3.105
 1901SOL     OW 7633   4.278   0.526   2.972
 1901SOL    HW2 7634   4.262   0.614   3.004
 1901SOL    HW3 7635   4.271   0.534   2.876
 1901SOL    MW4 7636   4.275   0.539   2.963
 1902SOL     OW 7637   4.248   0.786   3.095
 1902SOL    HW2 7638   4.177   0.817   3.038
 1902SOL    HW3 7639   4.327   0.825   3.057
 1902SOL    MW4 7640   4.249   0.796   3.082
 1903SOL     OW 7641   4.025   0.870   2.964
 1903SOL    HW2 7642   4.015   0.957   3.001
 1903SOL    HW3 7643   4.032   0.884   2.870
 1903SOL    MW4 7644   4.024   0.883   2.956
 1904SOL     OW 7645   4.040   1.125   3.101
 1904SOL    HW2 7646   4.032   1.136   3.196
 1904SOL    HW3 7647   3.959   1.162   3.066
 1904SOL    MW4 7648   4.029   1.131   3.109
 1905SOL     OW 7649   4.260   1.264   2.999
 1905SOL    HW2 7650   4.180   1.216   3.024
 1905SOL    HW3 7651   4.267   1.251   2.904
 1905SOL    MW4 7652   4.250   1.256   2.989
 1906SOL     OW 7653   4.281   1.533   3.056
 1906SOL    HW2 7654   4.212   1.577   3.007
 1906SOL    HW3 7655   4.272   1.440   3.034
 1906SOL    MW4 7656   4.271   1.527   3.047
 1907SOL     OW 7657   4.031   1.648   2.985
 1907SOL    HW2 7658   4.039   1.737   3.021
 1907SOL    HW3 7659   3.970   1.605   3.044
 1907SOL    MW4 7660   4.024   1.654   2.998
 1908SOL     OW 7661   4.054   1.895   3.095
 1908SOL    HW2 7662   4.132   1.935   3.058
 1908SOL    HW3 7663   3.981   1.945   3.056
 1908SOL    MW4 7664   4.054   1.907   3.085
 1909SOL     OW 7665   4.272   2.063   3.004
 1909SOL    HW2 7666   4.273   2.146   3.051
 1909SOL    HW3 7667   4.242   2.086   2.916
 1909SOL    MW4 7668   4.268   2.077   2.998
 1910SOL     OW 7669   4.295   2.314   3.110
 1910SOL    HW2 7670   4.217   2.354   3.071
 1910SOL    HW3 7671   4.369   2.362   3.070
 1910SOL    MW4 7672   4.295   2.326   3.100
 1911SOL     OW 7673   4.086   2.455   2.991
 1911SOL    HW2 7674   4.106   2.542   3.025
 1911SOL    HW3 7675   4.005   2.430   3.035
 1911SOL    MW4 7676   4.078   2.463   3.002
 1912SOL     OW 7677   4.076   2.722   3.103
 1912SOL    HW2 7678   4.057   2.715   3.197
 1912SOL    HW3 7679   3.999   2.763   3.066
 1912SOL    MW4 7680   4.064   2.726   3.110
 1913SOL     OW 7681   4.306   2.855   3.024
 1913SOL    HW2 7682   4.234   2.806   3.064
 1913SOL    HW3 7683   4.383   2.801   3.039
 1913SOL    MW4 7684   4.306   2.841   3.031
 1914SOL     OW 7685   4.294   3.115   3.094
 1914SOL    HW2 7686   4.208   3.139   3.060
 1914SOL    HW3 7687   4.304   3.023   3.070
 1914SOL    MW4 7688   4.284   3.106   3.087
 1915SOL     OW 7689   4.057   3.212   3.009
 1915SOL    HW2 7690   4.031   3.297   3.046
 1915SOL    HW3 7691   4.040   3.221   2.916
 1915SOL    MW4 7692   4.051   3.224   3.002
 1916SOL     OW 7693   4.001   3.466   3.114
 1916SOL    HW2 7694   4.009   3.466   3.209
 1916SOL    HW3 7695   3.923   3.519   3.096
 1916SOL    MW4 7696   3.991   3.473   3.124
 1917SOL     OW 7697   4.239   3.593   3.011
 1917SOL    HW2 7698   4.218   3.679   3.047
 1917SOL    HW3 7699   4.160   3.541   3.026
 1917SOL    MW4 7700   4.226   3.597   3.017
 1918SOL     OW 7701   4.207   3.840   3.099
 1918SOL    HW2 7702   4.132   3.898   3.085
 1918SOL    HW3 7703   4.281   3.887   3.062
 1918SOL    MW4 7704   4.207   3.854   3.092
 1919SOL     OW 7705   4.001   4.019   2.983
 1919SOL    HW2 7706   4.039   4.091   3.033
 1919SOL    HW3 7707   3.927   3.989   3.036
 1919SOL    MW4 7708   3.996   4.025   2.996
 1920SOL     OW 7709   4.087   4.252   3.094
 1920SOL    HW2 7710   4.083   4.258   3.190
 1920SOL    HW3 7711   4.141   4.327   3.068
 1920SOL    MW4 7712   4.093   4.263   3.103
 1921SOL     OW 7713   4.279   4.438   3.035
 1921SOL    HW2 7714   4.347   4.379   3.067
 1921SOL    HW3 7715   4.284   4.431   2.940
 1921SOL    MW4 7716   4.288   4.429   3.027
 1922SOL     OW 7717   0.205   0.011   3.392
 1922SOL    HW2 7718   0.285   0.053   3.424
 1922SOL    HW3 7719   0.210  -0.079   3.427
 1922SOL    MW4 7720   0.216   0.004   3.401
 1923SOL     OW 7721   0.003   0.161   3.524
 1923SOL    HW2 7722   0.010   0.246   3.482
 1923SOL    HW3 7723   0.071   0.108   3.481
 1923SOL    MW4 7724   0.013   0.165   3.513
 1924SOL     OW 7725   0.026   0.393   3.354
 1924SOL    HW2 7726  -0.048   0.437   3.397
 1924SOL    HW3 7727   0.103   0.428   3.398
 1924SOL    MW4 7728   0.026   0.404   3.365
 1925SOL     OW 7729   0.230   0.498   3.486
 1925SOL    HW2 7730   0.318   0.475   3.456
 1925SOL    HW3 7731   0.224   0.592   3.472
 1925SOL    MW4 7732   0.241   0.507   3.480
 1926SOL     OW 7733   0.219   0.758   3.414
 1926SOL    HW2 7734   0.285   0.815   3.453
 1926SOL    HW3 7735   0.136   0.791   3.448
 1926SOL    MW4 7736   0.217   0.770   3.423
 1927SOL     OW 7737   4.459   0.867   3.483
 1927SOL    HW2 7738   4.439   0.849   3.574
 1927SOL    HW3 7739   4.458   0.963   3.476
 1927SOL    MW4 7740   4.456   0.877   3.494
 1928SOL     OW 7741   4.470   1.199   3.397
 1928SOL    HW2 7742   4.558   1.230   3.421
 1928SOL    HW3 7743   4.477   1.178   3.304
 1928SOL    MW4 7744   4.482   1.200   3.388
 1929SOL     OW 7745   0.221   1.287   3.473
 1929SOL    HW2 7746   0.309   1.266   3.442
 1929SOL    HW3 7747   0.208   1.379   3.449
 1929SOL    MW4 7748   0.231   1.297   3.466
 1930SOL     OW 7749   0.203   1.563   3.408
 1930SOL    HW2 7750   0.287   1.591   3.443
 1930SOL    HW3 7751   0.218   1.553   3.314
 1930SOL    MW4 7752   0.216   1.565   3.400
 1931SOL     OW 7753   4.467   1.699   3.474
 1931SOL    HW2 7754   4.395   1.669   3.418
 1931SOL    HW3 7755   4.545   1.658   3.437
 1931SOL    MW4 7756   4.468   1.689   3.462
 1932SOL     OW 7757   0.003   1.943   3.373
 1932SOL    HW2 7758  -0.003   1.856   3.413
 1932SOL    HW3 7759   0.007   1.925   3.279
 1932SOL    MW4 7760   0.003   1.929   3.366
 1933SOL     OW 7761   0.232   2.062   3.474
 1933SOL    HW2 7762   0.221   2.061   3.570
 1933SOL    HW3 7763   0.147   2.032   3.440
 1933SOL    MW4 7764   0.219   2.058   3.483
 1934SOL     OW 7765   0.225   2.313   3.398
 1934SOL    HW2 7766   0.145   2.347   3.440
 1934SOL    HW3 7767   0.235   2.225   3.435
 1934SOL    MW4 7768   0.216   2.306   3.409
 1935SOL     OW 7769   4.483   2.455   3.489
 1935SOL    HW2 7770   4.461   2.471   3.581
 1935SOL    HW3 7771   4.416   2.393   3.459
 1935SOL    MW4 7772   4.471   2.449   3.497
 1936SOL     OW 7773   4.479   2.682   3.365
 1936SOL    HW2 7774   4.544   2.730   3.416
 1936SOL    HW3 7775   4.476   2.595   3.404
 1936SOL    MW4 7776   4.487   2.677   3.377
 1937SOL     OW 7777   0.197   2.816   3.501
 1937SOL    HW2 7778   0.266   2.764   3.459
 1937SOL    HW3 7779   0.207   2.903   3.462
 1937SOL    MW4 7780   0.208   2.820   3.490
 1938SOL     OW 7781   0.207   3.068   3.381
 1938SOL    HW2 7782   0.125   3.116   3.394
 1938SOL    HW3 7783   0.225   3.075   3.288
 1938SOL    MW4 7784   0.198   3.076   3.371
 1939SOL     OW 7785   4.480   3.216   3.454
 1939SOL    HW2 7786   4.397   3.170   3.441
 1939SOL    HW3 7787   4.460   3.308   3.435
 1939SOL    MW4 7788   4.466   3.222   3.450
 1940SOL     OW 7789   4.485   3.484   3.410
 1940SOL    HW2 7790   4.408   3.540   3.422
 1940SOL    HW3 7791   4.492   3.473   3.316
 1940SOL    MW4 7792   4.475   3.490   3.399
 1941SOL     OW 7793   0.215   3.618   3.500
 1941SOL    HW2 7794   0.218   3.620   3.595
 1941SOL    HW3 7795   0.138   3.565   3.479
 1941SOL    MW4 7796   0.205   3.611   3.510
 1942SOL     OW 7797   0.224   3.863   3.346
 1942SOL    HW2 7798   0.144   3.909   3.371
 1942SOL    HW3 7799   0.217   3.777   3.388
 1942SOL    MW4 7800   0.213   3.858   3.355
 1943SOL     OW 7801   0.002   4.002   3.420
 1943SOL    HW2 7802   0.021   3.987   3.513
 1943SOL    HW3 7803   0.008   4.097   3.409
 1943SOL    MW4 7804   0.005   4.013   3.431
 1944SOL     OW 7805   4.485   4.277   3.394
 1944SOL    HW2 7806   4.409   4.330   3.416
 1944SOL    HW3 7807   4.559   4.323   3.435
 1944SOL    MW4 7808   4.485   4.290   3.403
 1945SOL     OW 7809   0.222   4.417   3.492
 1945SOL    HW2 7810   0.218   4.413   3.588
 1945SOL    HW3 7811   0.282   4.347   3.468
 1945SOL    MW4 7812   0.229   4.407   3.502
 1946SOL     OW 7813   0.661   4.653   3.411
 1946SOL    HW2 7814   0.746   4.688   3.439
 1946SOL    HW3 7815   0.651   4.685   3.321
 1946SOL    MW4 7816   0.671   4.662   3.402
 1947SOL     OW 7817   0.439   0.130   3.485
 1947SOL    HW2 7818   0.437   0.119   3.580
 1947SOL    HW3 7819   0.521   0.088   3.458
 1947SOL    MW4 7820   0.450   0.123   3.494
 1948SOL     OW 7821   0.450   0.379   3.366
 1948SOL    HW2 7822   0.513   0.419   3.426
 1948SOL    HW3 7823   0.442   0.288   3.397
 1948SOL    MW4 7824   0.457   0.372   3.378
 1949SOL     OW 7825   0.650   0.500   3.510
 1949SOL    HW2 7826   0.658   0.498   3.605
 1949SOL    HW3 7827   0.726   0.451   3.479
 1949SOL    MW4 7828   0.661   0.494   3.519
 1950SOL     OW 7829   0.674   0.756   3.398
 1950SOL    HW2 7830   0.597   0.808   3.420
 1950SOL    HW3 7831   0.655   0.669   3.433
 1950SOL    MW4 7832   0.661   0.751   3.405
 1951SOL     OW 7833   0.432   0.911   3.486
 1951SOL    HW2 7834   0.434   0.896   3.580
 1951SOL    HW3 7835   0.413   1.005   3.477
 1951SOL    MW4 7836   0.430   0.922   3.497
 1952SOL     OW 7837   0.456   1.162   3.363
 1952SOL    HW2 7838   0.548   1.181   3.378
 1952SOL    HW3 7839   0.449   1.150   3.268
 1952SOL    MW4 7840   0.467   1.163   3.353
 1953SOL     OW 7841   0.697   1.269   3.494
 1953SOL    HW2 7842   0.771   1.223   3.455
 1953SOL    HW3 7843   0.696   1.354   3.450
 1953SOL    MW4 7844   0.706   1.274   3.483
 1954SOL     OW 7845   0.683   1.520   3.378
 1954SOL    HW2 7846   0.759   1.549   3.428
 1954SOL    HW3 7847   0.610   1.571   3.415
 1954SOL    MW4 7848   0.683   1.530   3.390
 1955SOL     OW 7849   0.452   1.646   3.527
 1955SOL    HW2 7850   0.448   1.647   3.623
 1955SOL    HW3 7851   0.437   1.736   3.501
 1955SOL    MW4 7852   0.449   1.658   3.536
 1956SOL     OW 7853   0.436   1.888   3.412
 1956SOL    HW2 7854   0.366   1.944   3.445
 1956SOL    HW3 7855   0.436   1.903   3.318
 1956SOL    MW4 7856   0.427   1.897   3.404
 1957SOL     OW 7857   0.701   1.987   3.502
 1957SOL    HW2 7858   0.684   2.009   3.594
 1957SOL    HW3 7859   0.617   1.956   3.469
 1957SOL    MW4 7860   0.688   1.986   3.510
 1958SOL     OW 7861   0.657   2.266   3.414
 1958SOL    HW2 7862   0.728   2.326   3.440
 1958SOL    HW3 7863   0.669   2.190   3.471
 1958SOL    MW4 7864   0.668   2.264   3.425
 1959SOL     OW 7865   0.457   2.437   3.495
 1959SOL    HW2 7866   0.519   2.371   3.461
 1959SOL    HW3 7867   0.372   2.407   3.463
 1959SOL    MW4 7868   0.454   2.424   3.486
 1960SOL     OW 7869   0.431   2.688   3.381
 1960SOL    HW2 7870   0.469   2.602   3.399
 1960SOL    HW3 7871   0.412   2.687   3.287
 1960SOL    MW4 7872   0.434   2.677   3.371
 1961SOL     OW 7873   0.633   2.847   3.506
 1961SOL    HW2 7874   0.704   2.799   3.464
 1961SOL    HW3 7875   0.553   2.805   3.473
 1961SOL    MW4 7876   0.632   2.835   3.496
 1962SOL     OW 7877   0.648   3.081   3.358
 1962SOL    HW2 7878   0.573   3.132   3.388
 1962SOL    HW3 7879   0.638   2.996   3.401
 1962SOL    MW4 7880   0.637   3.077   3.368
 1963SOL     OW 7881   0.422   3.219   3.460
 1963SOL    HW2 7882   0.437   3.228   3.554
 1963SOL    HW3 7883   0.343   3.166   3.453
 1963SOL    MW4 7884   0.413   3.213   3.471
 1964SOL     OW 7885   0.438   3.487   3.375
 1964SOL    HW2 7886   0.426   3.394   3.395
 1964SOL    HW3 7887   0.361   3.529   3.414
 1964SOL    MW4 7888   0.426   3.480   3.383
 1965SOL     OW 7889   0.676   3.639   3.440
 1965SOL    HW2 7890   0.737   3.570   3.415
 1965SOL    HW3 7891   0.590   3.602   3.422
 1965SOL    MW4 7892   0.673   3.625   3.435
 1966SOL     OW 7893   0.669   3.901   3.381
 1966SOL    HW2 7894   0.587   3.928   3.420
 1966SOL    HW3 7895   0.676   3.807   3.400
 1966SOL    MW4 7896   0.659   3.892   3.388
 1967SOL     OW 7897   0.430   3.990   3.467
 1967SOL    HW2 7898   0.423   4.081   3.439
 1967SOL    HW3 7899   0.357   3.946   3.425
 1967SOL    MW4 7900   0.420   3.997   3.458
 1968SOL     OW 7901   0.418   4.243   3.382
 1968SOL    HW2 7902   0.493   4.288   3.422
 1968SOL    HW3 7903   0.428   4.259   3.288
 1968SOL    MW4 7904   0.429   4.251   3.375
 1969SOL     OW 7905   0.630   4.383   3.475
 1969SOL    HW2 7906   0.707   4.337   3.443
 1969SOL    HW3 7907   0.648   4.475   3.456
 1969SOL    MW4 7908   0.642   4.389   3.468
 1970SOL     OW 7909   1.096   4.649   3.382
 1970SOL    HW2 7910   1.177   4.676   3.426
 1970SOL    HW3 7911   1.110   4.671   3.290
 1970SOL    MW4 7912   1.108   4.656   3.376
 1971SOL     OW 7913   0.885   0.136   3.494
 1971SOL    HW2 7914   0.887   0.120   3.589
 1971SOL    HW3 7915   0.950   0.076   3.458
 1971SOL    MW4 7916   0.893   0.126   3.502
 1972SOL     OW 7917   0.871   0.391   3.391
 1972SOL    HW2 7918   0.950   0.433   3.424
 1972SOL    HW3 7919   0.869   0.306   3.434
 1972SOL    MW4 7920   0.881   0.386   3.401
 1973SOL     OW 7921   1.092   0.509   3.503
 1973SOL    HW2 7922   1.097   0.524   3.597
 1973SOL    HW3 7923   1.084   0.596   3.465
 1973SOL    MW4 7924   1.092   0.522   3.510
 1974SOL     OW 7925   1.075   0.753   3.385
 1974SOL    HW2 7926   1.161   0.774   3.420
 1974SOL    HW3 7927   1.015   0.809   3.433
 1974SOL    MW4 7928   1.078   0.763   3.396
 1975SOL     OW 7929   0.883   0.901   3.502
 1975SOL    HW2 7930   0.893   0.981   3.451
 1975SOL    HW3 7931   0.809   0.856   3.463
 1975SOL    MW4 7932   0.875   0.905   3.490
 1976SOL     OW 7933   0.907   1.120   3.346
 1976SOL    HW2 7934   0.986   1.172   3.362
 1976SOL    HW3 7935   0.887   1.135   3.253
 1976SOL    MW4 7936   0.915   1.129   3.336
 1977SOL     OW 7937   1.128   1.245   3.458
 1977SOL    HW2 7938   1.096   1.254   3.547
 1977SOL    HW3 7939   1.105   1.328   3.415
 1977SOL    MW4 7940   1.121   1.257   3.464
 1978SOL     OW 7941   1.099   1.517   3.383
 1978SOL    HW2 7942   1.177   1.564   3.412
 1978SOL    HW3 7943   1.092   1.537   3.290
 1978SOL    MW4 7944   1.108   1.526   3.375
 1979SOL     OW 7945   0.886   1.636   3.512
 1979SOL    HW2 7946   0.897   1.722   3.471
 1979SOL    HW3 7947   0.967   1.590   3.492
 1979SOL    MW4 7948   0.898   1.641   3.504
 1980SOL     OW 7949   0.918   1.887   3.389
 1980SOL    HW2 7950   0.985   1.948   3.421
 1980SOL    HW3 7951   0.837   1.918   3.429
 1980SOL    MW4 7952   0.916   1.899   3.399
 1981SOL     OW 7953   1.128   2.062   3.503
 1981SOL    HW2 7954   1.196   2.008   3.463
 1981SOL    HW3 7955   1.143   2.150   3.467
 1981SOL    MW4 7956   1.139   2.067   3.493
 1982SOL     OW 7957   1.160   2.331   3.407
 1982SOL    HW2 7958   1.240   2.362   3.449
 1982SOL    HW3 7959   1.171   2.356   3.315
 1982SOL    MW4 7960   1.172   2.338   3.400
 1983SOL     OW 7961   0.881   2.421   3.477
 1983SOL    HW2 7962   0.882   2.441   3.570
 1983SOL    HW3 7963   0.956   2.363   3.464
 1983SOL    MW4 7964   0.891   2.416   3.487
 1984SOL     OW 7965   0.870   2.716   3.389
 1984SOL    HW2 7966   0.951   2.759   3.417
 1984SOL    HW3 7967   0.876   2.627   3.424
 1984SOL    MW4 7968   0.881   2.710   3.397
 1985SOL     OW 7969   1.121   2.804   3.481
 1985SOL    HW2 7970   1.112   2.807   3.576
 1985SOL    HW3 7971   1.189   2.738   3.466
 1985SOL    MW4 7972   1.129   2.796   3.491
 1986SOL     OW 7973   1.115   3.080   3.410
 1986SOL    HW2 7974   1.104   2.988   3.436
 1986SOL    HW3 7975   1.158   3.076   3.325
 1986SOL    MW4 7976   1.119   3.067   3.402
 1987SOL     OW 7977   0.877   3.220   3.456
 1987SOL    HW2 7978   0.943   3.154   3.433
 1987SOL    HW3 7979   0.798   3.190   3.412
 1987SOL    MW4 7980   0.875   3.207   3.447
 1988SOL     OW 7981   0.888   3.481   3.393
 1988SOL    HW2 7982   0.886   3.391   3.424
 1988SOL    HW3 7983   0.903   3.474   3.299
 1988SOL    MW4 7984   0.890   3.468   3.385
 1989SOL     OW 7985   1.130   3.557   3.500
 1989SOL    HW2 7986   1.133   3.563   3.596
 1989SOL    HW3 7987   1.040   3.532   3.480
 1989SOL    MW4 7988   1.119   3.554   3.510
 1990SOL     OW 7989   1.106   3.826   3.391
 1990SOL    HW2 7990   1.181   3.875   3.426
 1990SOL    HW3 7991   1.117   3.737   3.425
 1990SOL    MW4 7992   1.117   3.821   3.400
 1991SOL     OW 7993   0.913   3.996   3.483
 1991SOL    HW2 7994   0.982   3.936   3.456
 1991SOL    HW3 7995   0.836   3.968   3.433
 1991SOL    MW4 7996   0.912   3.984   3.473
 1992SOL     OW 7997   0.881   4.265   3.423
 1992SOL    HW2 7998   0.880   4.177   3.458
 1992SOL    HW3 7999   0.916   4.255   3.334
 1992SOL    MW4 8000   0.885   4.252   3.416
 1993SOL     OW 8001   1.130   4.375   3.472
 1993SOL    HW2 8002   1.039   4.347   3.473
 1993SOL    HW3 8003   1.129   4.462   3.432
 1993SOL    MW4 8004   1.118   4.383   3.467
 1994SOL     OW 8005   1.560   4.639   3.410
 1994SOL    HW2 8006   1.554   4.558   3.461
 1994SOL    HW3 8007   1.484   4.690   3.439
 1994SOL    MW4 8008   1.549   4.635   3.421
 1995SOL     OW 8009   1.334   0.111   3.492
 1995SOL    HW2 8010   1.337   0.111   3.587
 1995SOL    HW3 8011   1.332   0.204   3.468
 1995SOL    MW4 8012   1.334   0.123   3.501
 1996SOL     OW 8013   1.317   0.372   3.383
 1996SOL    HW2 8014   1.385   0.417   3.433
 1996SOL    HW3 8015   1.235   0.408   3.417
 1996SOL    MW4 8016   1.315   0.383   3.394
 1997SOL     OW 8017   1.532   0.493   3.502
 1997SOL    HW2 8018   1.529   0.496   3.598
 1997SOL    HW3 8019   1.605   0.434   3.483
 1997SOL    MW4 8020   1.541   0.486   3.512
 1998SOL     OW 8021   1.573   0.721   3.369
 1998SOL    HW2 8022   1.493   0.767   3.394
 1998SOL    HW3 8023   1.563   0.633   3.406
 1998SOL    MW4 8024   1.561   0.715   3.377
 1999SOL     OW 8025   1.327   0.826   3.482
 1999SOL    HW2 8026   1.330   0.839   3.577
 1999SOL    HW3 8027   1.327   0.914   3.445
 1999SOL    MW4 8028   1.328   0.839   3.490
 2000SOL     OW 8029   1.329   1.074   3.386
 2000SOL    HW2 8030   1.407   1.118   3.420
 2000SOL    HW3 8031   1.256   1.120   3.427
 2000SOL    MW4 8032   1.330   1.086   3.396
 2001SOL     OW 8033   1.545   1.238   3.456
 2001SOL    HW2 8034   1.571   1.261   3.545
 2001SOL    HW3 8035   1.627   1.221   3.410
 2001SOL    MW4 8036   1.559   1.239   3.462
 2002SOL     OW 8037   1.560   1.498   3.414
 2002SOL    HW2 8038   1.552   1.407   3.440
 2002SOL    HW3 8039   1.578   1.495   3.320
 2002SOL    MW4 8040   1.561   1.486   3.405
 2003SOL     OW 8041   1.324   1.633   3.488
 2003SOL    HW2 8042   1.323   1.633   3.584
 2003SOL    HW3 8043   1.400   1.581   3.464
 2003SOL    MW4 8044   1.334   1.626   3.498
 2004SOL     OW 8045   1.323   1.882   3.376
 2004SOL    HW2 8046   1.386   1.933   3.426
 2004SOL    HW3 8047   1.333   1.793   3.410
 2004SOL    MW4 8048   1.333   1.877   3.387
 2005SOL     OW 8049   1.554   2.010   3.488
 2005SOL    HW2 8050   1.621   1.944   3.470
 2005SOL    HW3 8051   1.587   2.090   3.447
 2005SOL    MW4 8052   1.567   2.012   3.480
 2006SOL     OW 8053   1.634   2.263   3.363
 2006SOL    HW2 8054   1.557   2.311   3.393
 2006SOL    HW3 8055   1.632   2.271   3.268
 2006SOL    MW4 8056   1.623   2.270   3.355
 2007SOL     OW 8057   1.424   2.417   3.475
 2007SOL    HW2 8058   1.413   2.415   3.570
 2007SOL    HW3 8059   1.405   2.507   3.451
 2007SOL    MW4 8060   1.420   2.428   3.485
 2008SOL     OW 8061   1.355   2.678   3.409
 2008SOL    HW2 8062   1.417   2.740   3.448
 2008SOL    HW3 8063   1.350   2.704   3.317
 2008SOL    MW4 8064   1.362   2.690   3.402
 2009SOL     OW 8065   1.552   2.853   3.491
 2009SOL    HW2 8066   1.638   2.815   3.473
 2009SOL    HW3 8067   1.553   2.937   3.445
 2009SOL    MW4 8068   1.564   2.859   3.483
 2010SOL     OW 8069   1.586   3.105   3.368
 2010SOL    HW2 8070   1.659   3.143   3.416
 2010SOL    HW3 8071   1.508   3.143   3.407
 2010SOL    MW4 8072   1.585   3.115   3.379
 2011SOL     OW 8073   1.371   3.211   3.499
 2011SOL    HW2 8074   1.366   3.231   3.593
 2011SOL    HW3 8075   1.283   3.179   3.477
 2011SOL    MW4 8076   1.359   3.209   3.509
 2012SOL     OW 8077   1.360   3.455   3.359
 2012SOL    HW2 8078   1.369   3.372   3.405
 2012SOL    HW3 8079   1.280   3.494   3.394
 2012SOL    MW4 8080   1.351   3.449   3.369
 2013SOL     OW 8081   1.591   3.584   3.434
 2013SOL    HW2 8082   1.604   3.571   3.528
 2013SOL    HW3 8083   1.510   3.538   3.414
 2013SOL    MW4 8084   1.582   3.577   3.444
 2014SOL     OW 8085   1.559   3.852   3.356
 2014SOL    HW2 8086   1.583   3.762   3.379
 2014SOL    HW3 8087   1.546   3.850   3.262
 2014SOL    MW4 8088   1.561   3.840   3.347
 2015SOL     OW 8089   1.322   3.981   3.463
 2015SOL    HW2 8090   1.324   4.074   3.441
 2015SOL    HW3 8091   1.405   3.946   3.432
 2015SOL    MW4 8092   1.333   3.989   3.456
 2016SOL     OW 8093   1.336   4.230   3.384
 2016SOL    HW2 8094   1.262   4.281   3.415
 2016SOL    HW3 8095   1.338   4.246   3.289
 2016SOL    MW4 8096   1.327   4.239   3.375
 2017SOL     OW 8097   1.580   4.355   3.481
 2017SOL    HW2 8098   1.648   4.329   3.419
 2017SOL    HW3 8099   1.499   4.317   3.445
 2017SOL    MW4 8100   1.578   4.347   3.468
 2018SOL     OW 8101   2.000   4.624   3.374
 2018SOL    HW2 8102   2.070   4.662   3.428
 2018SOL    HW3 8103   1.922   4.673   3.399
 2018SOL    MW4 8104   1.999   4.636   3.385
 2019SOL     OW 8105   1.787   0.098   3.479
 2019SOL    HW2 8106   1.784   0.086   3.574
 2019SOL    HW3 8107   1.704   0.062   3.447
 2019SOL    MW4 8108   1.775   0.092   3.487
 2020SOL     OW 8109   1.785   0.368   3.418
 2020SOL    HW2 8110   1.797   0.277   3.444
 2020SOL    HW3 8111   1.787   0.366   3.322
 2020SOL    MW4 8112   1.787   0.356   3.409
 2021SOL     OW 8113   1.987   0.510   3.513
 2021SOL    HW2 8114   1.992   0.592   3.463
 2021SOL    HW3 8115   1.921   0.458   3.466
 2021SOL    MW4 8116   1.979   0.514   3.500
 2022SOL     OW 8117   2.005   0.766   3.385
 2022SOL    HW2 8118   2.079   0.816   3.419
 2022SOL    HW3 8119   2.032   0.740   3.297
 2022SOL    MW4 8120   2.019   0.769   3.378
 2023SOL     OW 8121   1.774   0.887   3.448
 2023SOL    HW2 8122   1.850   0.835   3.423
 2023SOL    HW3 8123   1.698   0.832   3.427
 2023SOL    MW4 8124   1.774   0.873   3.442
 2024SOL     OW 8125   1.788   1.151   3.363
 2024SOL    HW2 8126   1.869   1.186   3.401
 2024SOL    HW3 8127   1.782   1.062   3.398
 2024SOL    MW4 8128   1.798   1.144   3.372
 2025SOL     OW 8129   2.020   1.264   3.466
 2025SOL    HW2 8130   2.022   1.264   3.562
 2025SOL    HW3 8131   2.018   1.356   3.442
 2025SOL    MW4 8132   2.020   1.276   3.475
 2026SOL     OW 8133   2.029   1.525   3.385
 2026SOL    HW2 8134   2.105   1.568   3.425
 2026SOL    HW3 8135   1.954   1.567   3.425
 2026SOL    MW4 8136   2.029   1.536   3.395
 2027SOL     OW 8137   1.782   1.635   3.509
 2027SOL    HW2 8138   1.782   1.726   3.481
 2027SOL    HW3 8139   1.703   1.598   3.469
 2027SOL    MW4 8140   1.771   1.642   3.500
 2028SOL     OW 8141   1.819   1.896   3.404
 2028SOL    HW2 8142   1.879   1.955   3.449
 2028SOL    HW3 8143   1.842   1.902   3.311
 2028SOL    MW4 8144   1.830   1.904   3.398
 2029SOL     OW 8145   2.019   2.064   3.498
 2029SOL    HW2 8146   2.094   2.016   3.464
 2029SOL    HW3 8147   2.015   2.144   3.444
 2029SOL    MW4 8148   2.029   2.068   3.487
 2030SOL     OW 8149   2.017   2.326   3.398
 2030SOL    HW2 8150   2.103   2.357   3.426
 2030SOL    HW3 8151   2.026   2.311   3.304
 2030SOL    MW4 8152   2.029   2.328   3.389
 2031SOL     OW 8153   1.799   2.453   3.500
 2031SOL    HW2 8154   1.890   2.423   3.490
 2031SOL    HW3 8155   1.749   2.395   3.442
 2031SOL    MW4 8156   1.804   2.441   3.491
 2032SOL     OW 8157   1.785   2.729   3.415
 2032SOL    HW2 8158   1.867   2.770   3.441
 2032SOL    HW3 8159   1.800   2.635   3.427
 2032SOL    MW4 8160   1.798   2.722   3.420
 2033SOL     OW 8161   2.031   2.817   3.496
 2033SOL    HW2 8162   2.033   2.839   3.589
 2033SOL    HW3 8163   2.016   2.901   3.452
 2033SOL    MW4 8164   2.029   2.831   3.503
 2034SOL     OW 8165   2.058   3.091   3.370
 2034SOL    HW2 8166   2.120   3.152   3.409
 2034SOL    HW3 8167   1.973   3.117   3.406
 2034SOL    MW4 8168   2.055   3.103   3.380
 2035SOL     OW 8169   1.838   3.225   3.450
 2035SOL    HW2 8170   1.830   3.246   3.543
 2035SOL    HW3 8171   1.837   3.310   3.406
 2035SOL    MW4 8172   1.837   3.239   3.456
 2036SOL     OW 8173   1.858   3.487   3.355
 2036SOL    HW2 8174   1.775   3.531   3.375
 2036SOL    HW3 8175   1.866   3.494   3.260
 2036SOL    MW4 8176   1.848   3.493   3.345
 2037SOL     OW 8177   2.049   3.634   3.496
 2037SOL    HW2 8178   2.134   3.602   3.467
 2037SOL    HW3 8179   1.985   3.587   3.443
 2037SOL    MW4 8180   2.052   3.624   3.485
 2038SOL     OW 8181   2.044   3.884   3.385
 2038SOL    HW2 8182   1.957   3.920   3.402
 2038SOL    HW3 8183   2.042   3.797   3.427
 2038SOL    MW4 8184   2.032   3.877   3.393
 2039SOL     OW 8185   1.790   3.977   3.436
 2039SOL    HW2 8186   1.789   3.968   3.531
 2039SOL    HW3 8187   1.715   3.926   3.405
 2039SOL    MW4 8188   1.780   3.969   3.444
 2040SOL     OW 8189   1.780   4.256   3.329
 2040SOL    HW2 8190   1.790   4.171   3.373
 2040SOL    HW3 8191   1.764   4.233   3.238
 2040SOL    MW4 8192   1.779   4.242   3.323
 2041SOL     OW 8193   1.988   4.368   3.469
 2041SOL    HW2 8194   1.923   4.323   3.414
 2041SOL    HW3 8195   1.992   4.457   3.433
 2041SOL    MW4 8196   1.980   4.374   3.457
 2042SOL     OW 8197   2.455   0.014   3.423
 2042SOL    HW2 8198   2.455  -0.078   3.450
 2042SOL    HW3 8199   2.463   0.010   3.328
 2042SOL    MW4 8200   2.456   0.001   3.414
 2043SOL     OW 8201   2.216   0.097   3.519
 2043SOL    HW2 8202   2.206   0.187   3.489
 2043SOL    HW3 8203   2.305   0.072   3.493
 2043SOL    MW4 8204   2.226   0.105   3.512
 2044SOL     OW 8205   2.213   0.356   3.434
 2044SOL    HW2 8206   2.295   0.397   3.459
 2044SOL    HW3 8207   2.145   0.415   3.466
 2044SOL    MW4 8208   2.215   0.369   3.441
 2045SOL     OW 8209   2.438   0.489   3.510
 2045SOL    HW2 8210   2.512   0.451   3.463
 2045SOL    HW3 8211   2.429   0.577   3.473
 2045SOL    MW4 8212   2.447   0.496   3.499
 2046SOL     OW 8213   2.445   0.748   3.395
 2046SOL    HW2 8214   2.517   0.789   3.443
 2046SOL    HW3 8215   2.479   0.735   3.306
 2046SOL    MW4 8216   2.459   0.752   3.389
 2047SOL     OW 8217   2.234   0.911   3.494
 2047SOL    HW2 8218   2.234   0.999   3.456
 2047SOL    HW3 8219   2.313   0.870   3.458
 2047SOL    MW4 8220   2.245   0.917   3.484
 2048SOL     OW 8221   2.253   1.151   3.354
 2048SOL    HW2 8222   2.327   1.195   3.396
 2048SOL    HW3 8223   2.176   1.197   3.387
 2048SOL    MW4 8224   2.252   1.163   3.364
 2049SOL     OW 8225   2.457   1.301   3.467
 2049SOL    HW2 8226   2.422   1.292   3.556
 2049SOL    HW3 8227   2.529   1.238   3.463
 2049SOL    MW4 8228   2.462   1.291   3.478
 2050SOL     OW 8229   2.490   1.575   3.384
 2050SOL    HW2 8230   2.473   1.486   3.413
 2050SOL    HW3 8231   2.493   1.569   3.288
 2050SOL    MW4 8232   2.488   1.563   3.375
 2051SOL     OW 8233   2.250   1.673   3.467
 2051SOL    HW2 8234   2.250   1.678   3.562
 2051SOL    HW3 8235   2.339   1.648   3.443
 2051SOL    MW4 8236   2.261   1.670   3.476
 2052SOL     OW 8237   2.231   1.935   3.379
 2052SOL    HW2 8238   2.240   1.842   3.403
 2052SOL    HW3 8239   2.207   1.933   3.286
 2052SOL    MW4 8240   2.229   1.922   3.370
 2053SOL     OW 8241   2.463   2.028   3.494
 2053SOL    HW2 8242   2.447   2.048   3.586
 2053SOL    HW3 8243   2.379   1.997   3.460
 2053SOL    MW4 8244   2.450   2.027   3.501
 2054SOL     OW 8245   2.489   2.302   3.412
 2054SOL    HW2 8246   2.573   2.331   3.449
 2054SOL    HW3 8247   2.494   2.207   3.415
 2054SOL    MW4 8248   2.501   2.294   3.417
 2055SOL     OW 8249   2.252   2.437   3.473
 2055SOL    HW2 8250   2.271   2.526   3.442
 2055SOL    HW3 8251   2.335   2.391   3.465
 2055SOL    MW4 8252   2.265   2.443   3.468
 2056SOL     OW 8253   2.269   2.708   3.399
 2056SOL    HW2 8254   2.181   2.731   3.429
 2056SOL    HW3 8255   2.261   2.702   3.303
 2056SOL    MW4 8256   2.256   2.710   3.390
 2057SOL     OW 8257   2.492   2.829   3.501
 2057SOL    HW2 8258   2.512   2.910   3.453
 2057SOL    HW3 8259   2.409   2.800   3.463
 2057SOL    MW4 8260   2.484   2.836   3.489
 2058SOL     OW 8261   2.510   3.080   3.367
 2058SOL    HW2 8262   2.576   3.139   3.404
 2058SOL    HW3 8263   2.517   3.092   3.272
 2058SOL    MW4 8264   2.519   3.089   3.359
 2059SOL     OW 8265   2.285   3.228   3.452
 2059SOL    HW2 8266   2.294   3.240   3.547
 2059SOL    HW3 8267   2.359   3.172   3.428
 2059SOL    MW4 8268   2.296   3.222   3.462
 2060SOL     OW 8269   2.261   3.495   3.387
 2060SOL    HW2 8270   2.259   3.404   3.415
 2060SOL    HW3 8271   2.264   3.491   3.291
 2060SOL    MW4 8272   2.261   3.483   3.378
 2061SOL     OW 8273   2.488   3.612   3.488
 2061SOL    HW2 8274   2.481   3.699   3.450
 2061SOL    HW3 8275   2.409   3.567   3.460
 2061SOL    MW4 8276   2.477   3.617   3.480
 2062SOL     OW 8277   2.475   3.867   3.381
 2062SOL    HW2 8278   2.552   3.922   3.396
 2062SOL    HW3 8279   2.401   3.921   3.408
 2062SOL    MW4 8280   2.476   3.882   3.386
 2063SOL     OW 8281   2.274   4.001   3.474
 2063SOL    HW2 8282   2.258   4.092   3.450
 2063SOL    HW3 8283   2.194   3.955   3.450
 2063SOL    MW4 8284   2.261   4.007   3.467
 2064SOL     OW 8285   2.252   4.275   3.400
 2064SOL    HW2 8286   2.169   4.320   3.414
 2064SOL    HW3 8287   2.262   4.272   3.305
 2064SOL    MW4 8288   2.243   4.281   3.389
 2065SOL     OW 8289   2.467   4.419   3.494
 2065SOL    HW2 8290   2.453   4.432   3.588
 2065SOL    HW3 8291   2.393   4.365   3.467
 2065SOL    MW4 8292   2.455   4.414   3.503
 2066SOL     OW 8293   2.914   4.666   3.459
 2066SOL    HW2 8294   2.841   4.710   3.503
 2066SOL    HW3 8295   2.892   4.671   3.366
 2066SOL    MW4 8296   2.901   4.672   3.453
 2067SOL     OW 8297   2.678   0.130   3.535
 2067SOL    HW2 8298   2.671   0.221   3.507
 2067SOL    HW3 8299   2.603   0.086   3.495
 2067SOL    MW4 8300   2.667   0.136   3.526
 2068SOL     OW 8301   2.671   0.377   3.396
 2068SOL    HW2 8302   2.747   0.419   3.437
 2068SOL    HW3 8303   2.696   0.369   3.304
 2068SOL    MW4 8304   2.685   0.381   3.389
 2069SOL     OW 8305   2.899   0.464   3.517
 2069SOL    HW2 8306   2.890   0.473   3.612
 2069SOL    HW3 8307   2.878   0.550   3.482
 2069SOL    MW4 8308   2.895   0.476   3.525
 2070SOL     OW 8309   2.884   0.706   3.379
 2070SOL    HW2 8310   2.959   0.757   3.410
 2070SOL    HW3 8311   2.807   0.758   3.405
 2070SOL    MW4 8312   2.883   0.720   3.386
 2071SOL     OW 8313   2.664   0.867   3.511
 2071SOL    HW2 8314   2.670   0.868   3.606
 2071SOL    HW3 8315   2.669   0.959   3.485
 2071SOL    MW4 8316   2.666   0.879   3.520
 2072SOL     OW 8317   2.665   1.113   3.408
 2072SOL    HW2 8318   2.754   1.142   3.429
 2072SOL    HW3 8319   2.662   1.110   3.312
 2072SOL    MW4 8320   2.676   1.116   3.398
 2073SOL     OW 8321   2.903   1.255   3.459
 2073SOL    HW2 8322   2.909   1.255   3.554
 2073SOL    HW3 8323   2.979   1.204   3.430
 2073SOL    MW4 8324   2.914   1.248   3.468
 2074SOL     OW 8325   2.932   1.538   3.381
 2074SOL    HW2 8326   2.868   1.575   3.442
 2074SOL    HW3 8327   2.929   1.443   3.396
 2074SOL    MW4 8328   2.924   1.530   3.391
 2075SOL     OW 8329   2.720   1.650   3.517
 2075SOL    HW2 8330   2.737   1.744   3.509
 2075SOL    HW3 8331   2.634   1.638   3.477
 2075SOL    MW4 8332   2.711   1.661   3.511
 2076SOL     OW 8333   2.671   1.891   3.398
 2076SOL    HW2 8334   2.597   1.940   3.433
 2076SOL    HW3 8335   2.664   1.902   3.303
 2076SOL    MW4 8336   2.660   1.899   3.390
 2077SOL     OW 8337   2.897   2.051   3.447
 2077SOL    HW2 8338   2.901   2.054   3.543
 2077SOL    HW3 8339   2.820   1.998   3.428
 2077SOL    MW4 8340   2.887   2.045   3.457
 2078SOL     OW 8341   2.928   2.303   3.357
 2078SOL    HW2 8342   2.908   2.215   3.389
 2078SOL    HW3 8343   2.923   2.297   3.262
 2078SOL    MW4 8344   2.925   2.291   3.349
 2079SOL     OW 8345   2.735   2.425   3.474
 2079SOL    HW2 8346   2.717   2.408   3.566
 2079SOL    HW3 8347   2.814   2.375   3.455
 2079SOL    MW4 8348   2.743   2.416   3.483
 2080SOL     OW 8349   2.695   2.706   3.373
 2080SOL    HW2 8350   2.712   2.618   3.407
 2080SOL    HW3 8351   2.609   2.729   3.408
 2080SOL    MW4 8352   2.686   2.697   3.382
 2081SOL     OW 8353   2.904   2.815   3.483
 2081SOL    HW2 8354   2.883   2.802   3.576
 2081SOL    HW3 8355   2.833   2.771   3.436
 2081SOL    MW4 8356   2.891   2.808   3.489
 2082SOL     OW 8357   2.926   3.087   3.407
 2082SOL    HW2 8358   2.916   2.994   3.428
 2082SOL    HW3 8359   2.921   3.090   3.311
 2082SOL    MW4 8360   2.924   3.075   3.397
 2083SOL     OW 8361   2.706   3.252   3.458
 2083SOL    HW2 8362   2.707   3.257   3.554
 2083SOL    HW3 8363   2.781   3.196   3.436
 2083SOL    MW4 8364   2.716   3.245   3.468
 2084SOL     OW 8365   2.691   3.490   3.333
 2084SOL    HW2 8366   2.698   3.399   3.362
 2084SOL    HW3 8367   2.616   3.525   3.381
 2084SOL    MW4 8368   2.682   3.483   3.343
 2085SOL     OW 8369   2.921   3.608   3.468
 2085SOL    HW2 8370   2.918   3.698   3.437
 2085SOL    HW3 8371   2.849   3.564   3.421
 2085SOL    MW4 8372   2.911   3.614   3.457
 2086SOL     OW 8373   2.905   3.882   3.352
 2086SOL    HW2 8374   2.972   3.926   3.404
 2086SOL    HW3 8375   2.822   3.917   3.383
 2086SOL    MW4 8376   2.903   3.892   3.363
 2087SOL     OW 8377   2.686   4.015   3.479
 2087SOL    HW2 8378   2.668   4.008   3.572
 2087SOL    HW3 8379   2.690   4.110   3.462
 2087SOL    MW4 8380   2.684   4.027   3.489
 2088SOL     OW 8381   2.703   4.309   3.418
 2088SOL    HW2 8382   2.775   4.344   3.471
 2088SOL    HW3 8383   2.626   4.360   3.446
 2088SOL    MW4 8384   2.702   4.321   3.429
 2089SOL     OW 8385   2.940   4.386   3.523
 2089SOL    HW2 8386   2.943   4.390   3.618
 2089SOL    HW3 8387   2.942   4.477   3.494
 2089SOL    MW4 8388   2.941   4.398   3.531
 2090SOL     OW 8389   3.359   4.647   3.411
 2090SOL    HW2 8390   3.286   4.693   3.452
 2090SOL    HW3 8391   3.339   4.650   3.317
 2090SOL    MW4 8392   3.347   4.653   3.404
 2091SOL     OW 8393   3.160   0.103   3.564
 2091SOL    HW2 8394   3.138   0.190   3.529
 2091SOL    HW3 8395   3.092   0.046   3.529
 2091SOL    MW4 8396   3.148   0.107   3.555
 2092SOL     OW 8397   3.163   0.360   3.430
 2092SOL    HW2 8398   3.090   0.407   3.468
 2092SOL    HW3 8399   3.140   0.349   3.338
 2092SOL    MW4 8400   3.151   0.365   3.423
 2093SOL     OW 8401   3.392   0.470   3.509
 2093SOL    HW2 8402   3.395   0.473   3.605
 2093SOL    HW3 8403   3.307   0.432   3.489
 2093SOL    MW4 8404   3.382   0.466   3.519
 2094SOL     OW 8405   3.361   0.731   3.424
 2094SOL    HW2 8406   3.436   0.787   3.443
 2094SOL    HW3 8407   3.389   0.644   3.453
 2094SOL    MW4 8408   3.375   0.727   3.430
 2095SOL     OW 8409   3.103   0.837   3.454
 2095SOL    HW2 8410   3.105   0.928   3.424
 2095SOL    HW3 8411   3.193   0.806   3.443
 2095SOL    MW4 8412   3.115   0.845   3.449
 2096SOL     OW 8413   3.125   1.109   3.383
 2096SOL    HW2 8414   3.201   1.144   3.428
 2096SOL    HW3 8415   3.143   1.122   3.290
 2096SOL    MW4 8416   3.137   1.115   3.377
 2097SOL     OW 8417   3.343   1.257   3.478
 2097SOL    HW2 8418   3.423   1.215   3.447
 2097SOL    HW3 8419   3.338   1.339   3.428
 2097SOL    MW4 8420   3.353   1.263   3.467
 2098SOL     OW 8421   3.375   1.522   3.355
 2098SOL    HW2 8422   3.446   1.563   3.404
 2098SOL    HW3 8423   3.296   1.566   3.386
 2098SOL    MW4 8424   3.374   1.533   3.365
 2099SOL     OW 8425   3.154   1.662   3.466
 2099SOL    HW2 8426   3.142   1.748   3.428
 2099SOL    HW3 8427   3.079   1.611   3.435
 2099SOL    MW4 8428   3.142   1.666   3.457
 2100SOL     OW 8429   3.129   1.913   3.369
 2100SOL    HW2 8430   3.046   1.960   3.375
 2100SOL    HW3 8431   3.146   1.904   3.275
 2100SOL    MW4 8432   3.121   1.918   3.357
 2101SOL     OW 8433   3.363   2.038   3.439
 2101SOL    HW2 8434   3.341   2.131   3.427
 2101SOL    HW3 8435   3.282   1.992   3.415
 2101SOL    MW4 8436   3.349   2.044   3.434
 2102SOL     OW 8437   3.340   2.288   3.347
 2102SOL    HW2 8438   3.425   2.311   3.387
 2102SOL    HW3 8439   3.277   2.345   3.391
 2102SOL    MW4 8440   3.343   2.298   3.358
 2103SOL     OW 8441   3.146   2.431   3.459
 2103SOL    HW2 8442   3.145   2.519   3.421
 2103SOL    HW3 8443   3.074   2.385   3.415
 2103SOL    MW4 8444   3.136   2.437   3.448
 2104SOL     OW 8445   3.136   2.688   3.363
 2104SOL    HW2 8446   3.211   2.736   3.401
 2104SOL    HW3 8447   3.060   2.724   3.408
 2104SOL    MW4 8448   3.136   2.699   3.374
 2105SOL     OW 8449   3.340   2.848   3.459
 2105SOL    HW2 8450   3.417   2.802   3.425
 2105SOL    HW3 8451   3.355   2.939   3.435
 2105SOL    MW4 8452   3.352   2.854   3.452
 2106SOL     OW 8453   3.342   3.117   3.385
 2106SOL    HW2 8454   3.412   3.177   3.409
 2106SOL    HW3 8455   3.268   3.144   3.439
 2106SOL    MW4 8456   3.341   3.128   3.395
 2107SOL     OW 8457   3.124   3.236   3.543
 2107SOL    HW2 8458   3.137   3.315   3.491
 2107SOL    HW3 8459   3.042   3.199   3.511
 2107SOL    MW4 8460   3.115   3.242   3.532
 2108SOL     OW 8461   3.152   3.466   3.376
 2108SOL    HW2 8462   3.088   3.524   3.418
 2108SOL    HW3 8463   3.145   3.486   3.283
 2108SOL    MW4 8464   3.143   3.477   3.370
 2109SOL     OW 8465   3.347   3.613   3.518
 2109SOL    HW2 8466   3.342   3.695   3.470
 2109SOL    HW3 8467   3.289   3.553   3.470
 2109SOL    MW4 8468   3.338   3.616   3.505
 2110SOL     OW 8469   3.351   3.858   3.393
 2110SOL    HW2 8470   3.419   3.915   3.428
 2110SOL    HW3 8471   3.270   3.892   3.432
 2110SOL    MW4 8472   3.349   3.870   3.403
 2111SOL     OW 8473   3.124   3.976   3.501
 2111SOL    HW2 8474   3.144   3.988   3.594
 2111SOL    HW3 8475   3.131   4.065   3.464
 2111SOL    MW4 8476   3.128   3.990   3.508
 2112SOL     OW 8477   3.140   4.237   3.402
 2112SOL    HW2 8478   3.216   4.291   3.421
 2112SOL    HW3 8479   3.068   4.278   3.451
 2112SOL    MW4 8480   3.140   4.249   3.411
 2113SOL     OW 8481   3.358   4.385   3.507
 2113SOL    HW2 8482   3.349   4.391   3.602
 2113SOL    HW3 8483   3.344   4.475   3.476
 2113SOL    MW4 8484   3.355   4.398   3.516
 2114SOL     OW 8485   3.809   4.641   3.408
 2114SOL    HW2 8486   3.744   4.705   3.436
 2114SOL    HW3 8487   3.808   4.647   3.312
 2114SOL    MW4 8488   3.800   4.650   3.399
 2115SOL     OW 8489   3.578   0.119   3.527
 2115SOL    HW2 8490   3.574   0.196   3.471
 2115SOL    HW3 8491   3.521   0.055   3.485
 2115SOL    MW4 8492   3.570   0.121   3.514
 2116SOL     OW 8493   3.592   0.341   3.371
 2116SOL    HW2 8494   3.673   0.381   3.404
 2116SOL    HW3 8495   3.522   0.388   3.417
 2116SOL    MW4 8496   3.593   0.353   3.381
 2117SOL     OW 8497   3.812   0.486   3.466
 2117SOL    HW2 8498   3.806   0.465   3.560
 2117SOL    HW3 8499   3.892   0.442   3.437
 2117SOL    MW4 8500   3.822   0.477   3.475
 2118SOL     OW 8501   3.819   0.766   3.380
 2118SOL    HW2 8502   3.897   0.812   3.412
 2118SOL    HW3 8503   3.831   0.675   3.409
 2118SOL    MW4 8504   3.831   0.760   3.388
 2119SOL     OW 8505   3.578   0.870   3.475
 2119SOL    HW2 8506   3.563   0.854   3.568
 2119SOL    HW3 8507   3.668   0.840   3.460
 2119SOL    MW4 8508   3.588   0.864   3.486
 2120SOL     OW 8509   3.563   1.131   3.380
 2120SOL    HW2 8510   3.578   1.040   3.405
 2120SOL    HW3 8511   3.572   1.132   3.285
 2120SOL    MW4 8512   3.566   1.119   3.371
 2121SOL     OW 8513   3.800   1.258   3.496
 2121SOL    HW2 8514   3.787   1.245   3.590
 2121SOL    HW3 8515   3.723   1.219   3.455
 2121SOL    MW4 8516   3.788   1.251   3.503
 2122SOL     OW 8517   3.784   1.517   3.398
 2122SOL    HW2 8518   3.867   1.557   3.424
 2122SOL    HW3 8519   3.792   1.426   3.427
 2122SOL    MW4 8520   3.796   1.510   3.405
 2123SOL     OW 8521   3.574   1.674   3.496
 2123SOL    HW2 8522   3.600   1.752   3.447
 2123SOL    HW3 8523   3.644   1.610   3.479
 2123SOL    MW4 8524   3.587   1.676   3.488
 2124SOL     OW 8525   3.616   1.939   3.373
 2124SOL    HW2 8526   3.683   1.961   3.439
 2124SOL    HW3 8527   3.537   1.984   3.403
 2124SOL    MW4 8528   3.615   1.948   3.386
 2125SOL     OW 8529   3.825   2.043   3.515
 2125SOL    HW2 8530   3.827   2.047   3.611
 2125SOL    HW3 8531   3.903   1.993   3.491
 2125SOL    MW4 8532   3.835   2.037   3.524
 2126SOL     OW 8533   3.806   2.304   3.380
 2126SOL    HW2 8534   3.892   2.325   3.417
 2126SOL    HW3 8535   3.784   2.218   3.417
 2126SOL    MW4 8536   3.814   2.296   3.390
 2127SOL     OW 8537   3.568   2.438   3.477
 2127SOL    HW2 8538   3.545   2.520   3.433
 2127SOL    HW3 8539   3.641   2.404   3.426
 2127SOL    MW4 8540   3.575   2.445   3.465
 2128SOL     OW 8541   3.560   2.692   3.384
 2128SOL    HW2 8542   3.643   2.723   3.419
 2128SOL    HW3 8543   3.575   2.687   3.290
 2128SOL    MW4 8544   3.573   2.695   3.376
 2129SOL     OW 8545   3.800   2.816   3.476
 2129SOL    HW2 8546   3.805   2.817   3.571
 2129SOL    HW3 8547   3.788   2.907   3.451
 2129SOL    MW4 8548   3.799   2.828   3.485
 2130SOL     OW 8549   3.773   3.083   3.388
 2130SOL    HW2 8550   3.838   3.144   3.423
 2130SOL    HW3 8551   3.804   3.064   3.300
 2130SOL    MW4 8552   3.786   3.089   3.381
 2131SOL     OW 8553   3.562   3.250   3.474
 2131SOL    HW2 8554   3.598   3.339   3.477
 2131SOL    HW3 8555   3.637   3.195   3.451
 2131SOL    MW4 8556   3.577   3.255   3.471
 2132SOL     OW 8557   3.596   3.522   3.408
 2132SOL    HW2 8558   3.518   3.558   3.450
 2132SOL    HW3 8559   3.572   3.511   3.316
 2132SOL    MW4 8560   3.583   3.525   3.402
 2133SOL     OW 8561   3.817   3.662   3.448
 2133SOL    HW2 8562   3.807   3.656   3.543
 2133SOL    HW3 8563   3.746   3.607   3.413
 2133SOL    MW4 8564   3.806   3.654   3.456
 2134SOL     OW 8565   3.788   3.934   3.387
 2134SOL    HW2 8566   3.702   3.969   3.410
 2134SOL    HW3 8567   3.781   3.840   3.403
 2134SOL    MW4 8568   3.776   3.926   3.392
 2135SOL     OW 8569   3.546   4.018   3.481
 2135SOL    HW2 8570   3.562   3.990   3.571
 2135SOL    HW3 8571   3.544   4.114   3.486
 2135SOL    MW4 8572   3.548   4.027   3.494
 2136SOL     OW 8573   3.588   4.277   3.451
 2136SOL    HW2 8574   3.504   4.318   3.474
 2136SOL    HW3 8575   3.592   4.286   3.356
 2136SOL    MW4 8576   3.577   4.284   3.441
 2137SOL     OW 8577   3.818   4.391   3.509
 2137SOL    HW2 8578   3.730   4.355   3.494
 2137SOL    HW3 8579   3.809   4.485   3.491
 2137SOL    MW4 8580   3.805   4.399   3.504
 2138SOL     OW 8581   4.281   0.019   3.390
 2138SOL    HW2 8582   4.285  -0.070   3.426
 2138SOL    HW3 8583   4.352   0.066   3.433
 2138SOL    MW4 8584   4.291   0.013   3.401
 2139SOL     OW 8585   4.047   0.094   3.518
 2139SOL    HW2 8586   4.110   0.049   3.462
 2139SOL    HW3 8587   3.962   0.057   3.492
 2139SOL    MW4 8588   4.044   0.083   3.507
 2140SOL     OW 8589   4.046   0.355   3.405
 2140SOL    HW2 8590   4.046   0.266   3.440
 2140SOL    HW3 8591   4.059   0.344   3.311
 2140SOL    MW4 8592   4.048   0.342   3.397
 2141SOL     OW 8593   4.284   0.489   3.466
 2141SOL    HW2 8594   4.263   0.581   3.449
 2141SOL    HW3 8595   4.205   0.441   3.439
 2141SOL    MW4 8596   4.271   0.495   3.460
 2142SOL     OW 8597   4.239   0.758   3.372
 2142SOL    HW2 8598   4.315   0.811   3.397
 2142SOL    HW3 8599   4.236   0.764   3.277
 2142SOL    MW4 8600   4.249   0.766   3.363
 2143SOL     OW 8601   4.026   0.902   3.479
 2143SOL    HW2 8602   4.031   0.991   3.444
 2143SOL    HW3 8603   4.098   0.855   3.436
 2143SOL    MW4 8604   4.036   0.908   3.469
 2144SOL     OW 8605   4.029   1.183   3.370
 2144SOL    HW2 8606   4.099   1.233   3.412
 2144SOL    HW3 8607   3.948   1.223   3.402
 2144SOL    MW4 8608   4.028   1.195   3.380
 2145SOL     OW 8609   4.223   1.331   3.509
 2145SOL    HW2 8610   4.243   1.422   3.487
 2145SOL    HW3 8611   4.298   1.282   3.475
 2145SOL    MW4 8612   4.236   1.337   3.502
 2146SOL     OW 8613   4.271   1.578   3.321
 2146SOL    HW2 8614   4.182   1.590   3.354
 2146SOL    HW3 8615   4.259   1.555   3.229
 2146SOL    MW4 8616   4.258   1.576   3.313
 2147SOL     OW 8617   4.035   1.630   3.433
 2147SOL    HW2 8618   4.037   1.619   3.528
 2147SOL    HW3 8619   4.031   1.724   3.420
 2147SOL    MW4 8620   4.034   1.641   3.444
 2148SOL     OW 8621   4.037   1.890   3.390
 2148SOL    HW2 8622   4.100   1.945   3.438
 2148SOL    HW3 8623   4.059   1.903   3.298
 2148SOL    MW4 8624   4.048   1.899   3.384
 2149SOL     OW 8625   4.256   2.032   3.478
 2149SOL    HW2 8626   4.257   2.124   3.452
 2149SOL    HW3 8627   4.325   1.992   3.427
 2149SOL    MW4 8628   4.265   2.039   3.468
 2150SOL     OW 8629   4.265   2.283   3.392
 2150SOL    HW2 8630   4.189   2.335   3.421
 2150SOL    HW3 8631   4.280   2.312   3.302
 2150SOL    MW4 8632   4.257   2.294   3.384
 2151SOL     OW 8633   4.049   2.425   3.480
 2151SOL    HW2 8634   4.062   2.443   3.573
 2151SOL    HW3 8635   4.044   2.512   3.439
 2151SOL    MW4 8636   4.050   2.439   3.487
 2152SOL     OW 8637   4.017   2.680   3.373
 2152SOL    HW2 8638   4.086   2.739   3.403
 2152SOL    HW3 8639   3.936   2.723   3.400
 2152SOL    MW4 8640   4.015   2.693   3.380
 2153SOL     OW 8641   4.257   2.819   3.436
 2153SOL    HW2 8642   4.275   2.827   3.530
 2153SOL    HW3 8643   4.334   2.774   3.401
 2153SOL    MW4 8644   4.270   2.814   3.444
 2154SOL     OW 8645   4.240   3.103   3.388
 2154SOL    HW2 8646   4.244   3.008   3.395
 2154SOL    HW3 8647   4.279   3.123   3.304
 2154SOL    MW4 8648   4.245   3.093   3.378
 2155SOL     OW 8649   3.997   3.213   3.481
 2155SOL    HW2 8650   4.006   3.308   3.468
 2155SOL    HW3 8651   4.077   3.176   3.444
 2155SOL    MW4 8652   4.009   3.221   3.475
 2156SOL     OW 8653   4.018   3.476   3.399
 2156SOL    HW2 8654   4.094   3.518   3.438
 2156SOL    HW3 8655   3.947   3.539   3.410
 2156SOL    MW4 8656   4.019   3.490   3.406
 2157SOL     OW 8657   4.238   3.622   3.481
 2157SOL    HW2 8658   4.242   3.627   3.577
 2157SOL    HW3 8659   4.224   3.712   3.453
 2157SOL    MW4 8660   4.237   3.634   3.490
 2158SOL     OW 8661   4.220   3.900   3.378
 2158SOL    HW2 8662   4.305   3.941   3.393
 2158SOL    HW3 8663   4.213   3.893   3.282
 2158SOL    MW4 8664   4.230   3.904   3.367
 2159SOL     OW 8665   4.019   4.033   3.494
 2159SOL    HW2 8666   4.085   3.981   3.448
 2159SOL    HW3 8667   3.939   4.020   3.444
 2159SOL    MW4 8668   4.017   4.025   3.481
 2160SOL     OW 8669   4.051   4.281   3.371
 2160SOL    HW2 8670   4.044   4.194   3.409
 2160SOL    HW3 8671   3.971   4.326   3.398
 2160SOL    MW4 8672   4.040   4.275   3.379
 2161SOL     OW 8673   4.266   4.419   3.476
 2161SOL    HW2 8674   4.255   4.417   3.571
 2161SOL    HW3 8675   4.188   4.376   3.442
 2161SOL    MW4 8676   4.254   4.413   3.484
 2162SOL     OW 8677   0.212   4.632   3.888
 2162SOL    HW2 8678   0.200   4.618   3.982
 2162SOL    HW3 8679   0.146   4.697   3.864
 2162SOL    MW4 8680   0.202   4.639   3.897
 2163SOL     OW 8681   4.448   0.124   3.803
 2163SOL    HW2 8682   4.443   0.204   3.856
 2163SOL    HW3 8683   4.446   0.155   3.713
 2163SOL    MW4 8684   4.447   0.139   3.798
 2164SOL     OW 8685   4.450   0.384   3.917
 2164SOL    HW2 8686   4.381   0.435   3.875
 2164SOL    HW3 8687   4.530   0.406   3.868
 2164SOL    MW4 8688   4.452   0.394   3.905
 2165SOL     OW 8689   0.203   0.475   3.772
 2165SOL    HW2 8690   0.219   0.564   3.803
 2165SOL    HW3 8691   0.204   0.481   3.677
 2165SOL    MW4 8692   0.206   0.487   3.764
 2166SOL     OW 8693   0.203   0.735   3.855
 2166SOL    HW2 8694   0.197   0.748   3.950
 2166SOL    HW3 8695   0.125   0.780   3.821
 2166SOL    MW4 8696   0.192   0.743   3.863
 2167SOL     OW 8697   4.458   0.862   3.760
 2167SOL    HW2 8698   4.398   0.811   3.815
 2167SOL    HW3 8699   4.465   0.946   3.805
 2167SOL    MW4 8700   4.451   0.866   3.773
 2168SOL     OW 8701   4.464   1.140   3.872
 2168SOL    HW2 8702   4.383   1.170   3.830
 2168SOL    HW3 8703   4.534   1.183   3.823
 2168SOL    MW4 8704   4.462   1.150   3.860
 2169SOL     OW 8705   0.192   1.268   3.741
 2169SOL    HW2 8706   0.200   1.359   3.770
 2169SOL    HW3 8707   0.196   1.273   3.645
 2169SOL    MW4 8708   0.194   1.280   3.732
 2170SOL     OW 8709   0.189   1.537   3.824
 2170SOL    HW2 8710   0.197   1.545   3.919
 2170SOL    HW3 8711   0.105   1.579   3.803
 2170SOL    MW4 8712   0.179   1.544   3.833
 2171SOL     OW 8713   4.452   1.685   3.751
 2171SOL    HW2 8714   4.476   1.772   3.781
 2171SOL    HW3 8715   4.464   1.688   3.656
 2171SOL    MW4 8716   4.457   1.697   3.743
 2172SOL     OW 8717   0.000   1.940   3.860
 2172SOL    HW2 8718  -0.012   1.934   3.954
 2172SOL    HW3 8719  -0.086   1.968   3.827
 2172SOL    MW4 8720  -0.013   1.943   3.868
 2173SOL     OW 8721   0.216   2.078   3.748
 2173SOL    HW2 8722   0.221   2.169   3.776
 2173SOL    HW3 8723   0.140   2.043   3.793
 2173SOL    MW4 8724   0.207   2.086   3.757
 2174SOL     OW 8725   0.197   2.357   3.821
 2174SOL    HW2 8726   0.187   2.351   3.916
 2174SOL    HW3 8727   0.113   2.390   3.790
 2174SOL    MW4 8728   0.185   2.361   3.830
 2175SOL     OW 8729   4.446   2.470   3.768
 2175SOL    HW2 8730   4.400   2.412   3.828
 2175SOL    HW3 8731   4.466   2.547   3.820
 2175SOL    MW4 8732   4.443   2.472   3.783
 2176SOL     OW 8733   4.469   2.709   3.886
 2176SOL    HW2 8734   4.454   2.739   3.976
 2176SOL    HW3 8735   4.553   2.749   3.861
 2176SOL    MW4 8736   4.478   2.718   3.895
 2177SOL     OW 8737   0.191   2.847   3.791
 2177SOL    HW2 8738   0.268   2.801   3.825
 2177SOL    HW3 8739   0.192   2.829   3.697
 2177SOL    MW4 8740   0.202   2.839   3.783
 2178SOL     OW 8741   0.203   3.122   3.850
 2178SOL    HW2 8742   0.193   3.123   3.946
 2178SOL    HW3 8743   0.200   3.029   3.827
 2178SOL    MW4 8744   0.201   3.110   3.860
 2179SOL     OW 8745   0.001   3.246   3.726
 2179SOL    HW2 8746   0.087   3.223   3.763
 2179SOL    HW3 8747   0.008   3.222   3.634
 2179SOL    MW4 8748   0.013   3.239   3.719
 2180SOL     OW 8749   4.455   3.498   3.836
 2180SOL    HW2 8750   4.535   3.549   3.822
 2180SOL    HW3 8751   4.471   3.416   3.790
 2180SOL    MW4 8752   4.468   3.494   3.828
 2181SOL     OW 8753   0.191   3.640   3.779
 2181SOL    HW2 8754   0.263   3.586   3.812
 2181SOL    HW3 8755   0.205   3.725   3.820
 2181SOL    MW4 8756   0.203   3.644   3.789
 2182SOL     OW 8757   0.214   3.906   3.843
 2182SOL    HW2 8758   0.217   3.879   3.934
 2182SOL    HW3 8759   0.302   3.941   3.826
 2182SOL    MW4 8760   0.226   3.907   3.852
 2183SOL     OW 8761   0.014   3.994   3.684
 2183SOL    HW2 8762  -0.052   3.934   3.721
 2183SOL    HW3 8763   0.097   3.963   3.719
 2183SOL    MW4 8764   0.016   3.982   3.694
 2184SOL     OW 8765   0.009   4.251   3.861
 2184SOL    HW2 8766   0.090   4.290   3.829
 2184SOL    HW3 8767   0.003   4.167   3.815
 2184SOL    MW4 8768   0.019   4.245   3.851
 2185SOL     OW 8769   0.235   4.383   3.776
 2185SOL    HW2 8770   0.322   4.355   3.805
 2185SOL    HW3 8771   0.222   4.468   3.816
 2185SOL    MW4 8772   0.245   4.390   3.785
 2186SOL     OW 8773   0.670   4.639   3.815
 2186SOL    HW2 8774   0.663   4.545   3.802
 2186SOL    HW3 8775   0.581   4.672   3.801
 2186SOL    MW4 8776   0.657   4.631   3.811
 2187SOL     OW 8777   0.415   0.086   3.757
 2187SOL    HW2 8778   0.427   0.171   3.801
 2187SOL    HW3 8779   0.347   0.042   3.807
 2187SOL    MW4 8780   0.408   0.092   3.769
 2188SOL     OW 8781   0.444   0.338   3.850
 2188SOL    HW2 8782   0.520   0.390   3.824
 2188SOL    HW3 8783   0.368   0.391   3.824
 2188SOL    MW4 8784   0.444   0.352   3.843
 2189SOL     OW 8785   0.668   0.492   3.775
 2189SOL    HW2 8786   0.750   0.452   3.805
 2189SOL    HW3 8787   0.675   0.584   3.801
 2189SOL    MW4 8788   0.680   0.499   3.783
 2190SOL     OW 8789   0.645   0.749   3.874
 2190SOL    HW2 8790   0.721   0.803   3.856
 2190SOL    HW3 8791   0.570   0.802   3.845
 2190SOL    MW4 8792   0.645   0.763   3.868
 2191SOL     OW 8793   0.427   0.880   3.756
 2191SOL    HW2 8794   0.419   0.967   3.795
 2191SOL    HW3 8795   0.351   0.833   3.789
 2191SOL    MW4 8796   0.416   0.885   3.766
 2192SOL     OW 8797   0.384   1.123   3.882
 2192SOL    HW2 8798   0.464   1.162   3.847
 2192SOL    HW3 8799   0.313   1.170   3.839
 2192SOL    MW4 8800   0.385   1.134   3.872
 2193SOL     OW 8801   0.598   1.236   3.757
 2193SOL    HW2 8802   0.687   1.213   3.785
 2193SOL    HW3 8803   0.605   1.246   3.662
 2193SOL    MW4 8804   0.610   1.234   3.748
 2194SOL     OW 8805   0.647   1.505   3.879
 2194SOL    HW2 8806   0.733   1.539   3.856
 2194SOL    HW3 8807   0.641   1.421   3.833
 2194SOL    MW4 8808   0.658   1.498   3.870
 2195SOL     OW 8809   0.432   1.687   3.798
 2195SOL    HW2 8810   0.495   1.630   3.844
 2195SOL    HW3 8811   0.350   1.638   3.800
 2195SOL    MW4 8812   0.430   1.673   3.804
 2196SOL     OW 8813   0.435   1.952   3.878
 2196SOL    HW2 8814   0.434   1.866   3.836
 2196SOL    HW3 8815   0.360   1.998   3.840
 2196SOL    MW4 8816   0.425   1.946   3.868
 2197SOL     OW 8817   0.686   2.026   3.779
 2197SOL    HW2 8818   0.685   2.119   3.799
 2197SOL    HW3 8819   0.598   1.995   3.801
 2197SOL    MW4 8820   0.674   2.034   3.785
 2198SOL     OW 8821   0.671   2.304   3.843
 2198SOL    HW2 8822   0.747   2.357   3.820
 2198SOL    HW3 8823   0.597   2.352   3.806
 2198SOL    MW4 8824   0.671   2.317   3.835
 2199SOL     OW 8825   0.458   2.463   3.776
 2199SOL    HW2 8826   0.376   2.421   3.803
 2199SOL    HW3 8827   0.450   2.473   3.681
 2199SOL    MW4 8828   0.446   2.459   3.767
 2200SOL     OW 8829   0.411   2.725   3.867
 2200SOL    HW2 8830   0.485   2.776   3.834
 2200SOL    HW3 8831   0.432   2.635   3.841
 2200SOL    MW4 8832   0.424   2.720   3.859
 2201SOL     OW 8833   0.630   2.863   3.789
 2201SOL    HW2 8834   0.712   2.819   3.811
 2201SOL    HW3 8835   0.623   2.858   3.694
 2201SOL    MW4 8836   0.640   2.857   3.780
 2202SOL     OW 8837   0.682   3.136   3.836
 2202SOL    HW2 8838   0.680   3.124   3.931
 2202SOL    HW3 8839   0.665   3.048   3.801
 2202SOL    MW4 8840   0.680   3.123   3.844
 2203SOL     OW 8841   0.443   3.256   3.738
 2203SOL    HW2 8842   0.514   3.208   3.779
 2203SOL    HW3 8843   0.364   3.205   3.758
 2203SOL    MW4 8844   0.442   3.243   3.746
 2204SOL     OW 8845   0.465   3.507   3.841
 2204SOL    HW2 8846   0.552   3.520   3.803
 2204SOL    HW3 8847   0.435   3.424   3.804
 2204SOL    MW4 8848   0.472   3.497   3.831
 2205SOL     OW 8849   0.703   3.606   3.721
 2205SOL    HW2 8850   0.675   3.693   3.751
 2205SOL    HW3 8851   0.702   3.612   3.626
 2205SOL    MW4 8852   0.699   3.618   3.712
 2206SOL     OW 8853   0.633   3.851   3.833
 2206SOL    HW2 8854   0.633   3.848   3.929
 2206SOL    HW3 8855   0.710   3.904   3.811
 2206SOL    MW4 8856   0.643   3.857   3.843
 2207SOL     OW 8857   0.441   4.026   3.746
 2207SOL    HW2 8858   0.500   3.960   3.780
 2207SOL    HW3 8859   0.446   4.016   3.651
 2207SOL    MW4 8860   0.449   4.016   3.738
 2208SOL     OW 8861   0.455   4.251   3.921
 2208SOL    HW2 8862   0.525   4.300   3.879
 2208SOL    HW3 8863   0.444   4.173   3.868
 2208SOL    MW4 8864   0.462   4.247   3.909
 2209SOL     OW 8865   0.643   4.377   3.771
 2209SOL    HW2 8866   0.727   4.338   3.796
 2209SOL    HW3 8867   0.644   4.379   3.676
 2209SOL    MW4 8868   0.654   4.372   3.762
 2210SOL     OW 8869   1.110   4.623   3.849
 2210SOL    HW2 8870   1.195   4.663   3.831
 2210SOL    HW3 8871   1.112   4.540   3.800
 2210SOL    MW4 8872   1.121   4.617   3.840
 2211SOL     OW 8873   0.904   0.114   3.771
 2211SOL    HW2 8874   0.974   0.052   3.792
 2211SOL    HW3 8875   0.823   0.067   3.789
 2211SOL    MW4 8876   0.902   0.100   3.776
 2212SOL     OW 8877   0.885   0.359   3.869
 2212SOL    HW2 8878   0.870   0.334   3.961
 2212SOL    HW3 8879   0.897   0.276   3.824
 2212SOL    MW4 8880   0.884   0.345   3.875
 2213SOL     OW 8881   1.099   0.525   3.774
 2213SOL    HW2 8882   1.173   0.470   3.799
 2213SOL    HW3 8883   1.022   0.470   3.790
 2213SOL    MW4 8884   1.099   0.511   3.779
 2214SOL     OW 8885   1.112   0.778   3.868
 2214SOL    HW2 8886   1.101   0.771   3.963
 2214SOL    HW3 8887   1.111   0.688   3.837
 2214SOL    MW4 8888   1.111   0.765   3.876
 2215SOL     OW 8889   0.869   0.899   3.789
 2215SOL    HW2 8890   0.951   0.862   3.823
 2215SOL    HW3 8891   0.880   0.898   3.694
 2215SOL    MW4 8892   0.881   0.894   3.781
 2216SOL     OW 8893   0.859   1.170   3.832
 2216SOL    HW2 8894   0.851   1.168   3.928
 2216SOL    HW3 8895   0.867   1.078   3.807
 2216SOL    MW4 8896   0.859   1.158   3.842
 2217SOL     OW 8897   1.105   1.244   3.733
 2217SOL    HW2 8898   1.105   1.336   3.763
 2217SOL    HW3 8899   1.020   1.210   3.764
 2217SOL    MW4 8900   1.094   1.252   3.741
 2218SOL     OW 8901   1.103   1.483   3.840
 2218SOL    HW2 8902   1.112   1.453   3.931
 2218SOL    HW3 8903   1.177   1.542   3.826
 2218SOL    MW4 8904   1.114   1.487   3.850
 2219SOL     OW 8905   0.885   1.636   3.799
 2219SOL    HW2 8906   0.967   1.587   3.805
 2219SOL    HW3 8907   0.874   1.654   3.706
 2219SOL    MW4 8908   0.894   1.632   3.787
 2220SOL     OW 8909   0.893   1.900   3.891
 2220SOL    HW2 8910   0.888   1.809   3.861
 2220SOL    HW3 8911   0.811   1.940   3.860
 2220SOL    MW4 8912   0.881   1.893   3.883
 2221SOL     OW 8913   1.130   2.026   3.789
 2221SOL    HW2 8914   1.050   1.982   3.816
 2221SOL    HW3 8915   1.123   2.034   3.694
 2221SOL    MW4 8916   1.119   2.021   3.780
 2222SOL     OW 8917   1.095   2.301   3.839
 2222SOL    HW2 8918   1.115   2.306   3.932
 2222SOL    HW3 8919   1.100   2.208   3.817
 2222SOL    MW4 8920   1.098   2.290   3.848
 2223SOL     OW 8921   0.887   2.459   3.750
 2223SOL    HW2 8922   0.898   2.549   3.781
 2223SOL    HW3 8923   0.970   2.417   3.773
 2223SOL    MW4 8924   0.900   2.466   3.757
 2224SOL     OW 8925   0.874   2.755   3.807
 2224SOL    HW2 8926   0.867   2.742   3.902
 2224SOL    HW3 8927   0.967   2.773   3.792
 2224SOL    MW4 8928   0.885   2.756   3.818
 2225SOL     OW 8929   1.138   2.806   3.758
 2225SOL    HW2 8930   1.209   2.750   3.789
 2225SOL    HW3 8931   1.152   2.890   3.801
 2225SOL    MW4 8932   1.149   2.810   3.768
 2226SOL     OW 8933   1.127   3.084   3.838
 2226SOL    HW2 8934   1.204   3.130   3.807
 2226SOL    HW3 8935   1.055   3.116   3.783
 2226SOL    MW4 8936   1.127   3.094   3.827
 2227SOL     OW 8937   0.909   3.235   3.733
 2227SOL    HW2 8938   0.826   3.205   3.769
 2227SOL    HW3 8939   0.897   3.232   3.638
 2227SOL    MW4 8940   0.897   3.231   3.725
 2228SOL     OW 8941   0.923   3.487   3.844
 2228SOL    HW2 8942   0.925   3.400   3.804
 2228SOL    HW3 8943   0.843   3.527   3.812
 2228SOL    MW4 8944   0.913   3.481   3.834
 2229SOL     OW 8945   1.159   3.610   3.773
 2229SOL    HW2 8946   1.143   3.704   3.785
 2229SOL    HW3 8947   1.077   3.568   3.803
 2229SOL    MW4 8948   1.146   3.617   3.779
 2230SOL     OW 8949   1.110   3.886   3.853
 2230SOL    HW2 8950   1.135   3.873   3.944
 2230SOL    HW3 8951   1.192   3.911   3.809
 2230SOL    MW4 8952   1.124   3.888   3.859
 2231SOL     OW 8953   0.868   3.990   3.758
 2231SOL    HW2 8954   0.945   3.947   3.796
 2231SOL    HW3 8955   0.883   3.987   3.664
 2231SOL    MW4 8956   0.880   3.984   3.751
 2232SOL     OW 8957   0.895   4.245   3.839
 2232SOL    HW2 8958   0.909   4.240   3.934
 2232SOL    HW3 8959   0.882   4.155   3.812
 2232SOL    MW4 8960   0.895   4.233   3.848
 2233SOL     OW 8961   1.139   4.376   3.751
 2233SOL    HW2 8962   1.063   4.327   3.783
 2233SOL    HW3 8963   1.132   4.370   3.655
 2233SOL    MW4 8964   1.128   4.369   3.742
 2234SOL     OW 8965   1.545   4.650   3.885
 2234SOL    HW2 8966   1.567   4.646   3.978
 2234SOL    HW3 8967   1.560   4.561   3.853
 2234SOL    MW4 8968   1.550   4.638   3.893
 2235SOL     OW 8969   1.333   0.102   3.755
 2235SOL    HW2 8970   1.302   0.186   3.788
 2235SOL    HW3 8971   1.419   0.090   3.797
 2235SOL    MW4 8972   1.340   0.111   3.765
 2236SOL     OW 8973   1.302   0.356   3.865
 2236SOL    HW2 8974   1.311   0.359   3.960
 2236SOL    HW3 8975   1.382   0.398   3.832
 2236SOL    MW4 8976   1.314   0.362   3.873
 2237SOL     OW 8977   1.514   0.485   3.782
 2237SOL    HW2 8978   1.586   0.430   3.813
 2237SOL    HW3 8979   1.542   0.574   3.800
 2237SOL    MW4 8980   1.527   0.489   3.789
 2238SOL     OW 8981   1.586   0.747   3.845
 2238SOL    HW2 8982   1.661   0.786   3.801
 2238SOL    HW3 8983   1.515   0.810   3.834
 2238SOL    MW4 8984   1.586   0.760   3.837
 2239SOL     OW 8985   1.353   0.891   3.763
 2239SOL    HW2 8986   1.344   0.977   3.805
 2239SOL    HW3 8987   1.275   0.843   3.792
 2239SOL    MW4 8988   1.341   0.896   3.772
 2240SOL     OW 8989   1.340   1.150   3.861
 2240SOL    HW2 8990   1.416   1.195   3.824
 2240SOL    HW3 8991   1.265   1.188   3.814
 2240SOL    MW4 8992   1.340   1.161   3.850
 2241SOL     OW 8993   1.576   1.244   3.748
 2241SOL    HW2 8994   1.656   1.202   3.779
 2241SOL    HW3 8995   1.579   1.332   3.785
 2241SOL    MW4 8996   1.587   1.250   3.757
 2242SOL     OW 8997   1.549   1.496   3.859
 2242SOL    HW2 8998   1.541   1.492   3.954
 2242SOL    HW3 8999   1.622   1.557   3.844
 2242SOL    MW4 9000   1.558   1.504   3.870
 2243SOL     OW 9001   1.326   1.622   3.765
 2243SOL    HW2 9002   1.335   1.707   3.808
 2243SOL    HW3 9003   1.406   1.574   3.788
 2243SOL    MW4 9004   1.338   1.627   3.774
 2244SOL     OW 9005   1.368   1.887   3.878
 2244SOL    HW2 9006   1.371   1.890   3.974
 2244SOL    HW3 9007   1.294   1.943   3.854
 2244SOL    MW4 9008   1.358   1.895   3.888
 2245SOL     OW 9009   1.566   2.047   3.782
 2245SOL    HW2 9010   1.495   1.991   3.811
 2245SOL    HW3 9011   1.557   2.051   3.686
 2245SOL    MW4 9012   1.556   2.040   3.773
 2246SOL     OW 9013   1.552   2.298   3.915
 2246SOL    HW2 9014   1.614   2.355   3.870
 2246SOL    HW3 9015   1.566   2.211   3.878
 2246SOL    MW4 9016   1.562   2.294   3.904
 2247SOL     OW 9017   1.351   2.399   3.763
 2247SOL    HW2 9018   1.408   2.346   3.819
 2247SOL    HW3 9019   1.263   2.366   3.781
 2247SOL    MW4 9020   1.347   2.388   3.773
 2248SOL     OW 9021   1.353   2.655   3.853
 2248SOL    HW2 9022   1.341   2.652   3.948
 2248SOL    HW3 9023   1.365   2.563   3.828
 2248SOL    MW4 9024   1.353   2.642   3.862
 2249SOL     OW 9025   1.540   2.837   3.781
 2249SOL    HW2 9026   1.467   2.787   3.817
 2249SOL    HW3 9027   1.513   2.858   3.691
 2249SOL    MW4 9028   1.527   2.834   3.774
 2250SOL     OW 9029   1.599   3.093   3.873
 2250SOL    HW2 9030   1.621   3.080   3.965
 2250SOL    HW3 9031   1.580   3.005   3.840
 2250SOL    MW4 9032   1.599   3.079   3.881
 2251SOL     OW 9033   1.351   3.222   3.774
 2251SOL    HW2 9034   1.350   3.317   3.786
 2251SOL    HW3 9035   1.430   3.193   3.819
 2251SOL    MW4 9036   1.361   3.231   3.781
 2252SOL     OW 9037   1.398   3.476   3.860
 2252SOL    HW2 9038   1.482   3.507   3.827
 2252SOL    HW3 9039   1.335   3.542   3.831
 2252SOL    MW4 9040   1.401   3.489   3.852
 2253SOL     OW 9041   1.619   3.572   3.727
 2253SOL    HW2 9042   1.687   3.545   3.789
 2253SOL    HW3 9043   1.605   3.664   3.745
 2253SOL    MW4 9044   1.626   3.580   3.737
 2254SOL     OW 9045   1.596   3.835   3.829
 2254SOL    HW2 9046   1.601   3.840   3.924
 2254SOL    HW3 9047   1.512   3.874   3.807
 2254SOL    MW4 9048   1.586   3.841   3.838
 2255SOL     OW 9049   1.366   3.963   3.741
 2255SOL    HW2 9050   1.369   4.055   3.769
 2255SOL    HW3 9051   1.359   3.968   3.645
 2255SOL    MW4 9052   1.366   3.976   3.732
 2256SOL     OW 9053   1.376   4.228   3.845
 2256SOL    HW2 9054   1.450   4.285   3.824
 2256SOL    HW3 9055   1.299   4.283   3.829
 2256SOL    MW4 9056   1.376   4.243   3.840
 2257SOL     OW 9057   1.579   4.404   3.744
 2257SOL    HW2 9058   1.643   4.347   3.788
 2257SOL    HW3 9059   1.582   4.377   3.652
 2257SOL    MW4 9060   1.588   4.393   3.738
 2258SOL     OW 9061   1.985   4.612   3.891
 2258SOL    HW2 9062   2.052   4.673   3.861
 2258SOL    HW3 9063   1.993   4.537   3.832
 2258SOL    MW4 9064   1.995   4.610   3.879
 2259SOL     OW 9065   1.788   0.071   3.741
 2259SOL    HW2 9066   1.861   0.018   3.774
 2259SOL    HW3 9067   1.712   0.040   3.789
 2259SOL    MW4 9068   1.788   0.060   3.752
 2260SOL     OW 9069   1.727   0.342   3.854
 2260SOL    HW2 9070   1.760   0.340   3.944
 2260SOL    HW3 9071   1.728   0.251   3.826
 2260SOL    MW4 9072   1.732   0.330   3.862
 2261SOL     OW 9073   1.984   0.458   3.789
 2261SOL    HW2 9074   1.908   0.406   3.817
 2261SOL    HW3 9075   1.966   0.480   3.698
 2261SOL    MW4 9076   1.972   0.454   3.781
 2262SOL     OW 9077   2.015   0.733   3.814
 2262SOL    HW2 9078   1.989   0.728   3.906
 2262SOL    HW3 9079   2.013   0.642   3.784
 2262SOL    MW4 9080   2.012   0.721   3.822
 2263SOL     OW 9081   1.817   0.899   3.740
 2263SOL    HW2 9082   1.897   0.848   3.754
 2263SOL    HW3 9083   1.811   0.910   3.645
 2263SOL    MW4 9084   1.827   0.894   3.730
 2264SOL     OW 9085   1.817   1.136   3.871
 2264SOL    HW2 9086   1.820   1.125   3.966
 2264SOL    HW3 9087   1.808   1.048   3.837
 2264SOL    MW4 9088   1.816   1.123   3.879
 2265SOL     OW 9089   2.037   1.258   3.748
 2265SOL    HW2 9090   2.118   1.226   3.788
 2265SOL    HW3 9091   1.967   1.208   3.791
 2265SOL    MW4 9092   2.038   1.247   3.759
 2266SOL     OW 9093   2.043   1.523   3.830
 2266SOL    HW2 9094   1.952   1.554   3.831
 2266SOL    HW3 9095   2.038   1.434   3.796
 2266SOL    MW4 9096   2.030   1.516   3.826
 2267SOL     OW 9097   1.784   1.632   3.791
 2267SOL    HW2 9098   1.789   1.726   3.812
 2267SOL    HW3 9099   1.776   1.630   3.696
 2267SOL    MW4 9100   1.784   1.644   3.781
 2268SOL     OW 9101   1.799   1.908   3.827
 2268SOL    HW2 9102   1.792   1.921   3.921
 2268SOL    HW3 9103   1.726   1.959   3.790
 2268SOL    MW4 9104   1.788   1.916   3.835
 2269SOL     OW 9105   2.000   2.079   3.762
 2269SOL    HW2 9106   1.931   2.018   3.789
 2269SOL    HW3 9107   2.005   2.068   3.667
 2269SOL    MW4 9108   1.992   2.069   3.753
 2270SOL     OW 9109   2.008   2.359   3.850
 2270SOL    HW2 9110   1.922   2.400   3.841
 2270SOL    HW3 9111   1.990   2.265   3.852
 2270SOL    MW4 9112   1.994   2.352   3.849
 2271SOL     OW 9113   1.729   2.454   3.779
 2271SOL    HW2 9114   1.737   2.541   3.818
 2271SOL    HW3 9115   1.736   2.470   3.684
 2271SOL    MW4 9116   1.731   2.467   3.771
 2272SOL     OW 9117   1.779   2.704   3.840
 2272SOL    HW2 9118   1.792   2.727   3.932
 2272SOL    HW3 9119   1.699   2.751   3.814
 2272SOL    MW4 9120   1.770   2.713   3.849
 2273SOL     OW 9121   1.992   2.850   3.776
 2273SOL    HW2 9122   2.071   2.821   3.821
 2273SOL    HW3 9123   1.927   2.783   3.796
 2273SOL    MW4 9124   1.994   2.838   3.785
 2274SOL     OW 9125   2.043   3.120   3.824
 2274SOL    HW2 9126   2.033   3.026   3.806
 2274SOL    HW3 9127   2.130   3.142   3.789
 2274SOL    MW4 9128   2.054   3.110   3.817
 2275SOL     OW 9129   1.798   3.232   3.727
 2275SOL    HW2 9130   1.880   3.190   3.753
 2275SOL    HW3 9131   1.731   3.187   3.779
 2275SOL    MW4 9132   1.800   3.220   3.738
 2276SOL     OW 9133   1.804   3.463   3.882
 2276SOL    HW2 9134   1.875   3.515   3.844
 2276SOL    HW3 9135   1.793   3.390   3.822
 2276SOL    MW4 9136   1.812   3.460   3.869
 2277SOL     OW 9137   2.039   3.609   3.771
 2277SOL    HW2 9138   2.116   3.560   3.800
 2277SOL    HW3 9139   2.048   3.612   3.675
 2277SOL    MW4 9140   2.050   3.603   3.762
 2278SOL     OW 9141   2.015   3.887   3.828
 2278SOL    HW2 9142   2.105   3.915   3.809
 2278SOL    HW3 9143   2.017   3.792   3.820
 2278SOL    MW4 9144   2.027   3.878   3.824
 2279SOL     OW 9145   1.792   3.995   3.734
 2279SOL    HW2 9146   1.868   3.965   3.785
 2279SOL    HW3 9147   1.717   3.958   3.781
 2279SOL    MW4 9148   1.792   3.986   3.747
 2280SOL     OW 9149   1.784   4.253   3.852
 2280SOL    HW2 9150   1.862   4.291   3.813
 2280SOL    HW3 9151   1.780   4.164   3.818
 2280SOL    MW4 9152   1.793   4.247   3.843
 2281SOL     OW 9153   2.007   4.363   3.754
 2281SOL    HW2 9154   2.086   4.326   3.793
 2281SOL    HW3 9155   2.019   4.352   3.659
 2281SOL    MW4 9156   2.019   4.356   3.746
 2282SOL     OW 9157   2.431   4.661   3.908
 2282SOL    HW2 9158   2.440   4.646   4.003
 2282SOL    HW3 9159   2.517   4.692   3.881
 2282SOL    MW4 9160   2.444   4.663   3.917
 2283SOL     OW 9161   2.197   0.074   3.799
 2283SOL    HW2 9162   2.277   0.037   3.836
 2283SOL    HW3 9163   2.208   0.065   3.704
 2283SOL    MW4 9164   2.209   0.068   3.792
 2284SOL     OW 9165   2.226   0.340   3.893
 2284SOL    HW2 9166   2.216   0.254   3.854
 2284SOL    HW3 9167   2.145   0.386   3.870
 2284SOL    MW4 9168   2.214   0.335   3.885
 2285SOL     OW 9169   2.464   0.498   3.789
 2285SOL    HW2 9170   2.380   0.466   3.822
 2285SOL    HW3 9171   2.458   0.488   3.694
 2285SOL    MW4 9172   2.452   0.492   3.781
 2286SOL     OW 9173   2.438   0.745   3.906
 2286SOL    HW2 9174   2.351   0.775   3.878
 2286SOL    HW3 9175   2.444   0.655   3.873
 2286SOL    MW4 9176   2.427   0.737   3.898
 2287SOL     OW 9177   2.237   0.877   3.776
 2287SOL    HW2 9178   2.169   0.812   3.792
 2287SOL    HW3 9179   2.224   0.904   3.685
 2287SOL    MW4 9180   2.226   0.872   3.766
 2288SOL     OW 9181   2.234   1.133   3.905
 2288SOL    HW2 9182   2.218   1.125   3.999
 2288SOL    HW3 9183   2.236   1.043   3.873
 2288SOL    MW4 9184   2.232   1.120   3.913
 2289SOL     OW 9185   2.406   1.268   3.744
 2289SOL    HW2 9186   2.424   1.348   3.793
 2289SOL    HW3 9187   2.333   1.227   3.790
 2289SOL    MW4 9188   2.399   1.274   3.756
 2290SOL     OW 9189   2.440   1.512   3.863
 2290SOL    HW2 9190   2.523   1.551   3.834
 2290SOL    HW3 9191   2.373   1.572   3.832
 2290SOL    MW4 9192   2.442   1.525   3.855
 2291SOL     OW 9193   2.252   1.683   3.756
 2291SOL    HW2 9194   2.237   1.776   3.772
 2291SOL    HW3 9195   2.169   1.641   3.776
 2291SOL    MW4 9196   2.239   1.690   3.761
 2292SOL     OW 9197   2.230   1.942   3.848
 2292SOL    HW2 9198   2.207   1.922   3.939
 2292SOL    HW3 9199   2.167   2.008   3.822
 2292SOL    MW4 9200   2.219   1.948   3.857
 2293SOL     OW 9201   2.465   2.065   3.764
 2293SOL    HW2 9202   2.450   2.149   3.805
 2293SOL    HW3 9203   2.391   2.010   3.793
 2293SOL    MW4 9204   2.453   2.069   3.773
 2294SOL     OW 9205   2.437   2.295   3.896
 2294SOL    HW2 9206   2.524   2.327   3.873
 2294SOL    HW3 9207   2.378   2.344   3.839
 2294SOL    MW4 9208   2.440   2.306   3.885
 2295SOL     OW 9209   2.248   2.430   3.751
 2295SOL    HW2 9210   2.166   2.408   3.794
 2295SOL    HW3 9211   2.233   2.412   3.659
 2295SOL    MW4 9212   2.235   2.425   3.745
 2296SOL     OW 9213   2.235   2.715   3.866
 2296SOL    HW2 9214   2.242   2.734   3.959
 2296SOL    HW3 9215   2.230   2.620   3.861
 2296SOL    MW4 9216   2.235   2.705   3.877
 2297SOL     OW 9217   2.473   2.848   3.771
 2297SOL    HW2 9218   2.387   2.810   3.792
 2297SOL    HW3 9219   2.482   2.837   3.676
 2297SOL    MW4 9220   2.463   2.842   3.761
 2298SOL     OW 9221   2.492   3.123   3.859
 2298SOL    HW2 9222   2.514   3.131   3.951
 2298SOL    HW3 9223   2.486   3.029   3.844
 2298SOL    MW4 9224   2.494   3.112   3.869
 2299SOL     OW 9225   2.277   3.270   3.728
 2299SOL    HW2 9226   2.255   3.352   3.772
 2299SOL    HW3 9227   2.351   3.235   3.777
 2299SOL    MW4 9228   2.284   3.276   3.740
 2300SOL     OW 9229   2.274   3.508   3.890
 2300SOL    HW2 9230   2.267   3.513   3.985
 2300SOL    HW3 9231   2.353   3.557   3.868
 2300SOL    MW4 9232   2.283   3.515   3.900
 2301SOL     OW 9233   2.482   3.612   3.763
 2301SOL    HW2 9234   2.555   3.562   3.797
 2301SOL    HW3 9235   2.491   3.608   3.668
 2301SOL    MW4 9236   2.493   3.605   3.755
 2302SOL     OW 9237   2.494   3.867   3.855
 2302SOL    HW2 9238   2.558   3.920   3.807
 2302SOL    HW3 9239   2.505   3.779   3.820
 2302SOL    MW4 9240   2.504   3.863   3.844
 2303SOL     OW 9241   2.254   4.000   3.763
 2303SOL    HW2 9242   2.330   3.953   3.796
 2303SOL    HW3 9243   2.266   4.002   3.668
 2303SOL    MW4 9244   2.266   3.994   3.755
 2304SOL     OW 9245   2.220   4.255   3.897
 2304SOL    HW2 9246   2.223   4.240   3.991
 2304SOL    HW3 9247   2.222   4.167   3.859
 2304SOL    MW4 9248   2.220   4.241   3.904
 2305SOL     OW 9249   2.410   4.421   3.763
 2305SOL    HW2 9250   2.344   4.367   3.807
 2305SOL    HW3 9251   2.415   4.500   3.816
 2305SOL    MW4 9252   2.402   4.424   3.776
 2306SOL     OW 9253   2.878   0.002   3.897
 2306SOL    HW2 9254   2.873   0.009   3.992
 2306SOL    HW3 9255   2.959   0.048   3.873
 2306SOL    MW4 9256   2.888   0.009   3.906
 2307SOL     OW 9257   2.664   0.131   3.811
 2307SOL    HW2 9258   2.740   0.084   3.845
 2307SOL    HW3 9259   2.672   0.123   3.716
 2307SOL    MW4 9260   2.675   0.124   3.803
 2308SOL     OW 9261   2.666   0.376   3.954
 2308SOL    HW2 9262   2.663   0.292   3.908
 2308SOL    HW3 9263   2.596   0.428   3.914
 2308SOL    MW4 9264   2.656   0.372   3.942
 2309SOL     OW 9265   2.909   0.469   3.800
 2309SOL    HW2 9266   2.978   0.431   3.855
 2309SOL    HW3 9267   2.827   0.439   3.840
 2309SOL    MW4 9268   2.907   0.460   3.813
 2310SOL     OW 9269   2.917   0.747   3.862
 2310SOL    HW2 9270   2.987   0.798   3.822
 2310SOL    HW3 9271   2.944   0.656   3.850
 2310SOL    MW4 9272   2.930   0.742   3.855
 2311SOL     OW 9273   2.662   0.869   3.789
 2311SOL    HW2 9274   2.746   0.824   3.800
 2311SOL    HW3 9275   2.600   0.816   3.839
 2311SOL    MW4 9276   2.665   0.856   3.797
 2312SOL     OW 9277   2.658   1.159   3.809
 2312SOL    HW2 9278   2.647   1.065   3.795
 2312SOL    HW3 9279   2.584   1.199   3.762
 2312SOL    MW4 9280   2.647   1.152   3.801
 2313SOL     OW 9281   2.910   1.278   3.744
 2313SOL    HW2 9282   2.914   1.372   3.763
 2313SOL    HW3 9283   2.818   1.255   3.757
 2313SOL    MW4 9284   2.898   1.287   3.748
 2314SOL     OW 9285   2.899   1.536   3.854
 2314SOL    HW2 9286   2.907   1.527   3.949
 2314SOL    HW3 9287   2.983   1.571   3.826
 2314SOL    MW4 9288   2.911   1.540   3.863
 2315SOL     OW 9289   2.666   1.645   3.785
 2315SOL    HW2 9290   2.742   1.598   3.819
 2315SOL    HW3 9291   2.680   1.647   3.690
 2315SOL    MW4 9292   2.678   1.639   3.777
 2316SOL     OW 9293   2.715   1.940   3.809
 2316SOL    HW2 9294   2.672   1.855   3.809
 2316SOL    HW3 9295   2.647   2.002   3.782
 2316SOL    MW4 9296   2.701   1.937   3.806
 2317SOL     OW 9297   2.948   2.075   3.710
 2317SOL    HW2 9298   2.942   2.155   3.762
 2317SOL    HW3 9299   2.885   2.015   3.750
 2317SOL    MW4 9300   2.939   2.078   3.722
 2318SOL     OW 9301   2.932   2.310   3.873
 2318SOL    HW2 9302   2.935   2.339   3.964
 2318SOL    HW3 9303   3.003   2.358   3.830
 2318SOL    MW4 9304   2.942   2.320   3.879
 2319SOL     OW 9305   2.701   2.395   3.754
 2319SOL    HW2 9306   2.689   2.486   3.780
 2319SOL    HW3 9307   2.779   2.367   3.802
 2319SOL    MW4 9308   2.710   2.403   3.764
 2320SOL     OW 9309   2.692   2.663   3.836
 2320SOL    HW2 9310   2.713   2.677   3.929
 2320SOL    HW3 9311   2.619   2.722   3.819
 2320SOL    MW4 9312   2.685   2.672   3.846
 2321SOL     OW 9313   2.888   2.824   3.758
 2321SOL    HW2 9314   2.878   2.916   3.782
 2321SOL    HW3 9315   2.810   2.781   3.794
 2321SOL    MW4 9316   2.876   2.830   3.766
 2322SOL     OW 9317   2.886   3.085   3.863
 2322SOL    HW2 9318   2.974   3.121   3.851
 2322SOL    HW3 9319   2.828   3.155   3.835
 2322SOL    MW4 9320   2.890   3.099   3.858
 2323SOL     OW 9321   2.697   3.252   3.729
 2323SOL    HW2 9322   2.686   3.340   3.764
 2323SOL    HW3 9323   2.622   3.203   3.762
 2323SOL    MW4 9324   2.686   3.257   3.738
 2324SOL     OW 9325   2.697   3.480   3.879
 2324SOL    HW2 9326   2.686   3.502   3.971
 2324SOL    HW3 9327   2.757   3.547   3.845
 2324SOL    MW4 9328   2.704   3.491   3.886
 2325SOL     OW 9329   2.889   3.633   3.754
 2325SOL    HW2 9330   2.945   3.569   3.797
 2325SOL    HW3 9331   2.892   3.610   3.661
 2325SOL    MW4 9332   2.896   3.622   3.747
 2326SOL     OW 9333   2.896   3.906   3.830
 2326SOL    HW2 9334   2.883   3.900   3.924
 2326SOL    HW3 9335   2.897   3.815   3.800
 2326SOL    MW4 9336   2.895   3.893   3.838
 2327SOL     OW 9337   2.667   4.037   3.747
 2327SOL    HW2 9338   2.669   4.123   3.789
 2327SOL    HW3 9339   2.749   3.995   3.776
 2327SOL    MW4 9340   2.678   4.043   3.757
 2328SOL     OW 9341   2.680   4.283   3.873
 2328SOL    HW2 9342   2.753   4.334   3.838
 2328SOL    HW3 9343   2.603   4.337   3.858
 2328SOL    MW4 9344   2.679   4.297   3.867
 2329SOL     OW 9345   2.907   4.426   3.797
 2329SOL    HW2 9346   2.979   4.386   3.847
 2329SOL    HW3 9347   2.914   4.520   3.817
 2329SOL    MW4 9348   2.917   4.433   3.806
 2330SOL     OW 9349   3.353   4.619   3.939
 2330SOL    HW2 9350   3.344   4.657   4.026
 2330SOL    HW3 9351   3.424   4.668   3.898
 2330SOL    MW4 9352   3.361   4.631   3.945
 2331SOL     OW 9353   3.130   0.096   3.847
 2331SOL    HW2 9354   3.203   0.046   3.883
 2331SOL    HW3 9355   3.151   0.104   3.754
 2331SOL    MW4 9356   3.143   0.090   3.839
 2332SOL     OW 9357   3.123   0.373   3.935
 2332SOL    HW2 9358   3.119   0.397   4.028
 2332SOL    HW3 9359   3.125   0.277   3.936
 2332SOL    MW4 9360   3.123   0.363   3.948
 2333SOL     OW 9361   3.348   0.468   3.799
 2333SOL    HW2 9362   3.431   0.427   3.825
 2333SOL    HW3 9363   3.282   0.422   3.851
 2333SOL    MW4 9364   3.351   0.457   3.810
 2334SOL     OW 9365   3.288   0.721   3.863
 2334SOL    HW2 9366   3.273   0.722   3.958
 2334SOL    HW3 9367   3.316   0.632   3.844
 2334SOL    MW4 9368   3.290   0.710   3.873
 2335SOL     OW 9369   3.110   0.898   3.728
 2335SOL    HW2 9370   3.165   0.825   3.756
 2335SOL    HW3 9371   3.094   0.881   3.635
 2335SOL    MW4 9372   3.115   0.886   3.719
 2336SOL     OW 9373   3.127   1.146   3.856
 2336SOL    HW2 9374   3.125   1.069   3.798
 2336SOL    HW3 9375   3.047   1.194   3.834
 2336SOL    MW4 9376   3.116   1.142   3.845
 2337SOL     OW 9377   3.366   1.254   3.762
 2337SOL    HW2 9378   3.286   1.229   3.808
 2337SOL    HW3 9379   3.344   1.245   3.669
 2337SOL    MW4 9380   3.353   1.250   3.756
 2338SOL     OW 9381   3.352   1.512   3.854
 2338SOL    HW2 9382   3.289   1.558   3.798
 2338SOL    HW3 9383   3.353   1.422   3.820
 2338SOL    MW4 9384   3.344   1.506   3.842
 2339SOL     OW 9385   3.139   1.652   3.736
 2339SOL    HW2 9386   3.160   1.738   3.771
 2339SOL    HW3 9387   3.133   1.665   3.642
 2339SOL    MW4 9388   3.141   1.665   3.728
 2340SOL     OW 9389   3.154   1.912   3.844
 2340SOL    HW2 9390   3.145   1.925   3.938
 2340SOL    HW3 9391   3.088   1.969   3.805
 2340SOL    MW4 9392   3.145   1.921   3.851
 2341SOL     OW 9393   3.370   2.027   3.715
 2341SOL    HW2 9394   3.298   1.973   3.748
 2341SOL    HW3 9395   3.362   2.022   3.620
 2341SOL    MW4 9396   3.359   2.019   3.707
 2342SOL     OW 9397   3.387   2.265   3.861
 2342SOL    HW2 9398   3.312   2.313   3.825
 2342SOL    HW3 9399   3.385   2.181   3.816
 2342SOL    MW4 9400   3.377   2.260   3.850
 2343SOL     OW 9401   3.153   2.409   3.740
 2343SOL    HW2 9402   3.160   2.502   3.761
 2343SOL    HW3 9403   3.146   2.406   3.644
 2343SOL    MW4 9404   3.153   2.421   3.730
 2344SOL     OW 9405   3.116   2.656   3.849
 2344SOL    HW2 9406   3.126   2.686   3.939
 2344SOL    HW3 9407   3.043   2.708   3.814
 2344SOL    MW4 9408   3.108   2.667   3.856
 2345SOL     OW 9409   3.358   2.792   3.753
 2345SOL    HW2 9410   3.284   2.757   3.803
 2345SOL    HW3 9411   3.324   2.804   3.665
 2345SOL    MW4 9412   3.344   2.789   3.748
 2346SOL     OW 9413   3.366   3.046   3.887
 2346SOL    HW2 9414   3.431   3.104   3.847
 2346SOL    HW3 9415   3.388   2.959   3.855
 2346SOL    MW4 9416   3.377   3.042   3.877
 2347SOL     OW 9417   3.149   3.218   3.841
 2347SOL    HW2 9418   3.209   3.152   3.875
 2347SOL    HW3 9419   3.163   3.218   3.747
 2347SOL    MW4 9420   3.159   3.209   3.833
 2348SOL     OW 9421   3.081   3.488   3.883
 2348SOL    HW2 9422   3.165   3.527   3.858
 2348SOL    HW3 9423   3.096   3.394   3.882
 2348SOL    MW4 9424   3.094   3.481   3.879
 2349SOL     OW 9425   3.327   3.602   3.815
 2349SOL    HW2 9426   3.350   3.687   3.851
 2349SOL    HW3 9427   3.333   3.614   3.720
 2349SOL    MW4 9428   3.331   3.615   3.807
 2350SOL     OW 9429   3.363   3.876   3.922
 2350SOL    HW2 9430   3.439   3.924   3.887
 2350SOL    HW3 9431   3.288   3.916   3.878
 2350SOL    MW4 9432   3.363   3.888   3.912
 2351SOL     OW 9433   3.164   3.965   3.772
 2351SOL    HW2 9434   3.167   4.054   3.809
 2351SOL    HW3 9435   3.073   3.937   3.785
 2351SOL    MW4 9436   3.153   3.973   3.779
 2352SOL     OW 9437   3.120   4.250   3.868
 2352SOL    HW2 9438   3.124   4.254   3.963
 2352SOL    HW3 9439   3.198   4.297   3.839
 2352SOL    MW4 9440   3.131   4.257   3.877
 2353SOL     OW 9441   3.366   4.376   3.785
 2353SOL    HW2 9442   3.436   4.318   3.817
 2353SOL    HW3 9443   3.377   4.457   3.836
 2353SOL    MW4 9444   3.377   4.379   3.796
 2354SOL     OW 9445   3.781   4.658   3.893
 2354SOL    HW2 9446   3.858   4.686   3.844
 2354SOL    HW3 9447   3.772   4.565   3.873
 2354SOL    MW4 9448   3.790   4.649   3.884
 2355SOL     OW 9449   3.534   0.107   3.816
 2355SOL    HW2 9450   3.619   0.074   3.847
 2355SOL    HW3 9451   3.548   0.125   3.723
 2355SOL    MW4 9452   3.547   0.105   3.808
 2356SOL     OW 9453   3.577   0.363   3.886
 2356SOL    HW2 9454   3.662   0.380   3.845
 2356SOL    HW3 9455   3.558   0.272   3.862
 2356SOL    MW4 9456   3.586   0.353   3.877
 2357SOL     OW 9457   3.806   0.454   3.743
 2357SOL    HW2 9458   3.891   0.430   3.781
 2357SOL    HW3 9459   3.790   0.544   3.773
 2357SOL    MW4 9460   3.815   0.463   3.752
 2358SOL     OW 9461   3.783   0.706   3.866
 2358SOL    HW2 9462   3.853   0.765   3.838
 2358SOL    HW3 9463   3.703   0.748   3.834
 2358SOL    MW4 9464   3.781   0.720   3.858
 2359SOL     OW 9465   3.534   0.789   3.748
 2359SOL    HW2 9466   3.548   0.883   3.762
 2359SOL    HW3 9467   3.441   0.776   3.770
 2359SOL    MW4 9468   3.523   0.800   3.753
 2360SOL     OW 9469   3.566   1.073   3.774
 2360SOL    HW2 9470   3.651   1.114   3.790
 2360SOL    HW3 9471   3.505   1.147   3.771
 2360SOL    MW4 9472   3.569   1.089   3.776
 2361SOL     OW 9473   3.803   1.211   3.787
 2361SOL    HW2 9474   3.885   1.174   3.819
 2361SOL    HW3 9475   3.812   1.305   3.802
 2361SOL    MW4 9476   3.815   1.219   3.793
 2362SOL     OW 9477   3.794   1.499   3.832
 2362SOL    HW2 9478   3.808   1.506   3.927
 2362SOL    HW3 9479   3.714   1.549   3.816
 2362SOL    MW4 9480   3.785   1.507   3.843
 2363SOL     OW 9481   3.586   1.662   3.786
 2363SOL    HW2 9482   3.511   1.623   3.831
 2363SOL    HW3 9483   3.558   1.667   3.694
 2363SOL    MW4 9484   3.572   1.658   3.779
 2364SOL     OW 9485   3.578   1.924   3.877
 2364SOL    HW2 9486   3.577   1.830   3.860
 2364SOL    HW3 9487   3.504   1.959   3.827
 2364SOL    MW4 9488   3.568   1.916   3.868
 2365SOL     OW 9489   3.808   2.051   3.773
 2365SOL    HW2 9490   3.878   1.992   3.800
 2365SOL    HW3 9491   3.728   2.009   3.806
 2365SOL    MW4 9492   3.807   2.037   3.781
 2366SOL     OW 9493   3.836   2.338   3.875
 2366SOL    HW2 9494   3.757   2.374   3.835
 2366SOL    HW3 9495   3.835   2.245   3.851
 2366SOL    MW4 9496   3.826   2.330   3.866
 2367SOL     OW 9497   3.586   2.423   3.749
 2367SOL    HW2 9498   3.519   2.365   3.786
 2367SOL    HW3 9499   3.576   2.415   3.654
 2367SOL    MW4 9500   3.576   2.414   3.741
 2368SOL     OW 9501   3.593   2.664   3.868
 2368SOL    HW2 9502   3.599   2.581   3.822
 2368SOL    HW3 9503   3.507   2.698   3.846
 2368SOL    MW4 9504   3.583   2.658   3.859
 2369SOL     OW 9505   3.798   2.861   3.759
 2369SOL    HW2 9506   3.870   2.798   3.771
 2369SOL    HW3 9507   3.724   2.821   3.803
 2369SOL    MW4 9508   3.798   2.847   3.766
 2370SOL     OW 9509   3.778   3.105   3.896
 2370SOL    HW2 9510   3.699   3.129   3.848
 2370SOL    HW3 9511   3.805   3.022   3.858
 2370SOL    MW4 9512   3.771   3.098   3.884
 2371SOL     OW 9513   3.552   3.233   3.747
 2371SOL    HW2 9514   3.565   3.325   3.768
 2371SOL    HW3 9515   3.534   3.232   3.652
 2371SOL    MW4 9516   3.551   3.245   3.737
 2372SOL     OW 9517   3.575   3.497   3.826
 2372SOL    HW2 9518   3.598   3.502   3.919
 2372SOL    HW3 9519   3.484   3.529   3.822
 2372SOL    MW4 9520   3.566   3.502   3.838
 2373SOL     OW 9521   3.807   3.623   3.721
 2373SOL    HW2 9522   3.800   3.712   3.755
 2373SOL    HW3 9523   3.726   3.581   3.750
 2373SOL    MW4 9524   3.795   3.629   3.730
 2374SOL     OW 9525   3.819   3.858   3.853
 2374SOL    HW2 9526   3.835   3.868   3.947
 2374SOL    HW3 9527   3.885   3.913   3.811
 2374SOL    MW4 9528   3.830   3.866   3.860
 2375SOL     OW 9529   3.571   3.987   3.776
 2375SOL    HW2 9530   3.570   4.079   3.804
 2375SOL    HW3 9531   3.650   3.951   3.814
 2375SOL    MW4 9532   3.581   3.995   3.785
 2376SOL     OW 9533   3.577   4.233   3.877
 2376SOL    HW2 9534   3.585   4.222   3.972
 2376SOL    HW3 9535   3.654   4.283   3.852
 2376SOL    MW4 9536   3.588   4.238   3.886
 2377SOL     OW 9537   3.794   4.379   3.799
 2377SOL    HW2 9538   3.882   4.363   3.833
 2377SOL    HW3 9539   3.806   4.386   3.705
 2377SOL    MW4 9540   3.808   4.378   3.791
 2378SOL     OW 9541   4.273   4.618   3.925
 2378SOL    HW2 9542   4.264   4.631   4.019
 2378SOL    HW3 9543   4.333   4.687   3.897
 2378SOL    MW4 9544   4.280   4.629   3.934
 2379SOL     OW 9545   4.047   0.081   3.796
 2379SOL    HW2 9546   4.129   0.041   3.825
 2379SOL    HW3 9547   4.052   0.079   3.700
 2379SOL    MW4 9548   4.058   0.075   3.787
 2380SOL     OW 9549   4.039   0.351   3.876
 2380SOL    HW2 9550   4.040   0.358   3.971
 2380SOL    HW3 9551   4.040   0.257   3.859
 2380SOL    MW4 9552   4.040   0.339   3.886
 2381SOL     OW 9553   4.243   0.483   3.751
 2381SOL    HW2 9554   4.169   0.430   3.782
 2381SOL    HW3 9555   4.240   0.474   3.656
 2381SOL    MW4 9556   4.232   0.474   3.743
 2382SOL     OW 9557   4.224   0.722   3.891
 2382SOL    HW2 9558   4.148   0.773   3.861
 2382SOL    HW3 9559   4.217   0.639   3.843
 2382SOL    MW4 9560   4.213   0.718   3.881
 2383SOL     OW 9561   4.018   0.863   3.780
 2383SOL    HW2 9562   4.027   0.948   3.824
 2383SOL    HW3 9563   4.019   0.883   3.687
 2383SOL    MW4 9564   4.019   0.877   3.774
 2384SOL     OW 9565   4.033   1.105   3.896
 2384SOL    HW2 9566   4.019   1.112   3.990
 2384SOL    HW3 9567   4.096   1.175   3.877
 2384SOL    MW4 9568   4.040   1.115   3.906
 2385SOL     OW 9569   4.231   1.277   3.785
 2385SOL    HW2 9570   4.243   1.363   3.825
 2385SOL    HW3 9571   4.235   1.293   3.691
 2385SOL    MW4 9572   4.233   1.290   3.778
 2386SOL     OW 9573   4.233   1.539   3.884
 2386SOL    HW2 9574   4.155   1.568   3.838
 2386SOL    HW3 9575   4.306   1.580   3.837
 2386SOL    MW4 9576   4.232   1.548   3.872
 2387SOL     OW 9577   4.009   1.635   3.708
 2387SOL    HW2 9578   4.023   1.728   3.727
 2387SOL    HW3 9579   3.931   1.612   3.757
 2387SOL    MW4 9580   4.001   1.645   3.717
 2388SOL     OW 9581   4.026   1.897   3.833
 2388SOL    HW2 9582   4.031   1.901   3.928
 2388SOL    HW3 9583   4.095   1.956   3.802
 2388SOL    MW4 9584   4.035   1.905   3.841
 2389SOL     OW 9585   4.246   2.030   3.763
 2389SOL    HW2 9586   4.255   2.118   3.802
 2389SOL    HW3 9587   4.251   2.045   3.669
 2389SOL    MW4 9588   4.248   2.044   3.756
 2390SOL     OW 9589   4.265   2.286   3.853
 2390SOL    HW2 9590   4.248   2.289   3.948
 2390SOL    HW3 9591   4.202   2.347   3.815
 2390SOL    MW4 9592   4.255   2.294   3.861
 2391SOL     OW 9593   4.066   2.442   3.763
 2391SOL    HW2 9594   4.054   2.537   3.768
 2391SOL    HW3 9595   3.993   2.406   3.814
 2391SOL    MW4 9596   4.055   2.450   3.770
 2392SOL     OW 9597   4.033   2.713   3.836
 2392SOL    HW2 9598   4.043   2.725   3.930
 2392SOL    HW3 9599   4.098   2.772   3.798
 2392SOL    MW4 9600   4.043   2.723   3.843
 2393SOL     OW 9601   4.275   2.843   3.717
 2393SOL    HW2 9602   4.261   2.929   3.757
 2393SOL    HW3 9603   4.341   2.802   3.773
 2393SOL    MW4 9604   4.282   2.849   3.730
 2394SOL     OW 9605   4.274   3.095   3.818
 2394SOL    HW2 9606   4.200   3.156   3.818
 2394SOL    HW3 9607   4.348   3.147   3.787
 2394SOL    MW4 9608   4.274   3.110   3.814
 2395SOL     OW 9609   3.985   3.237   3.772
 2395SOL    HW2 9610   3.920   3.186   3.819
 2395SOL    HW3 9611   3.958   3.233   3.681
 2395SOL    MW4 9612   3.973   3.230   3.766
 2396SOL     OW 9613   3.997   3.497   3.880
 2396SOL    HW2 9614   3.994   3.404   3.859
 2396SOL    HW3 9615   3.929   3.536   3.825
 2396SOL    MW4 9616   3.988   3.490   3.870
 2397SOL     OW 9617   4.220   3.628   3.756
 2397SOL    HW2 9618   4.149   3.588   3.808
 2397SOL    HW3 9619   4.300   3.587   3.790
 2397SOL    MW4 9620   4.221   3.617   3.768
 2398SOL     OW 9621   4.276   3.889   3.831
 2398SOL    HW2 9622   4.192   3.935   3.832
 2398SOL    HW3 9623   4.253   3.800   3.802
 2398SOL    MW4 9624   4.262   3.883   3.827
 2399SOL     OW 9625   4.037   4.023   3.778
 2399SOL    HW2 9626   4.039   4.112   3.813
 2399SOL    HW3 9627   4.035   4.035   3.683
 2399SOL    MW4 9628   4.037   4.036   3.770
 2400SOL     OW 9629   4.038   4.297   3.888
 2400SOL    HW2 9630   4.044   4.288   3.983
 2400SOL    HW3 9631   4.124   4.330   3.861
 2400SOL    MW4 9632   4.050   4.300   3.897
 2401SOL     OW 9633   4.273   4.378   3.781
 2401SOL    HW2 9634   4.275   4.453   3.840
 2401SOL    HW3 9635   4.348   4.324   3.808
 2401SOL    MW4 9636   4.283   4.381   3.792
 2402SOL     OW 9637   0.209   4.578   4.160
 2402SOL    HW2 9638   0.287   4.629   4.182
 2402SOL    HW3 9639   0.212   4.503   4.219
 2402SOL    MW4 9640   0.220   4.575   4.170
 2403SOL     OW 9641   4.490   0.078   4.245
 2403SOL    HW2 9642   4.494   0.056   4.338
 2403SOL    HW3 9643   4.574   0.047   4.210
 2403SOL    MW4 9644   4.502   0.071   4.252
 2404SOL     OW 9645   4.470   0.342   4.195
 2404SOL    HW2 9646   4.488   0.249   4.209
 2404SOL    HW3 9647   4.459   0.351   4.101
 2404SOL    MW4 9648   4.471   0.331   4.185
 2405SOL     OW 9649   0.205   0.489   4.252
 2405SOL    HW2 9650   0.282   0.446   4.216
 2405SOL    HW3 9651   0.134   0.426   4.239
 2405SOL    MW4 9652   0.206   0.475   4.246
 2406SOL     OW 9653   0.169   0.744   4.131
 2406SOL    HW2 9654   0.086   0.775   4.166
 2406SOL    HW3 9655   0.169   0.650   4.147
 2406SOL    MW4 9656   0.158   0.736   4.137
 2407SOL     OW 9657   4.433   0.876   4.243
 2407SOL    HW2 9658   4.353   0.838   4.205
 2407SOL    HW3 9659   4.431   0.967   4.215
 2407SOL    MW4 9660   4.422   0.883   4.235
 2408SOL     OW 9661   4.463   1.148   4.133
 2408SOL    HW2 9662   4.533   1.199   4.173
 2408SOL    HW3 9663   4.471   1.167   4.039
 2408SOL    MW4 9664   4.473   1.157   4.126
 2409SOL     OW 9665   0.192   1.285   4.236
 2409SOL    HW2 9666   0.218   1.346   4.305
 2409SOL    HW3 9667   0.269   1.231   4.221
 2409SOL    MW4 9668   0.206   1.285   4.243
 2410SOL     OW 9669   0.246   1.743   4.710
 2410SOL    HW2 9670   0.249   1.668   4.770
 2410SOL    HW3 9671   0.331   1.742   4.666
 2410SOL    MW4 9672   0.258   1.733   4.712
 2411SOL     OW 9673   0.033   1.664   4.251
 2411SOL    HW2 9674  -0.051   1.622   4.233
 2411SOL    HW3 9675   0.018   1.757   4.232
 2411SOL    MW4 9676   0.020   1.671   4.246
 2412SOL     OW 9677   0.182   2.081   4.198
 2412SOL    HW2 9678   0.179   2.094   4.292
 2412SOL    HW3 9679   0.269   2.046   4.181
 2412SOL    MW4 9680   0.193   2.078   4.208
 2413SOL     OW 9681   0.421   1.352   4.673
 2413SOL    HW2 9682   0.383   1.390   4.594
 2413SOL    HW3 9683   0.374   1.395   4.745
 2413SOL    MW4 9684   0.410   1.363   4.673
 2414SOL     OW 9685   0.182   2.329   4.095
 2414SOL    HW2 9686   0.255   2.370   4.141
 2414SOL    HW3 9687   0.180   2.239   4.128
 2414SOL    MW4 9688   0.191   2.323   4.106
 2415SOL     OW 9689   4.471   2.498   4.204
 2415SOL    HW2 9690   4.393   2.445   4.187
 2415SOL    HW3 9691   4.544   2.441   4.178
 2415SOL    MW4 9692   4.470   2.483   4.198
 2416SOL     OW 9693   4.442   2.760   4.164
 2416SOL    HW2 9694   4.528   2.796   4.187
 2416SOL    HW3 9695   4.453   2.666   4.171
 2416SOL    MW4 9696   4.455   2.753   4.168
 2417SOL     OW 9697   0.192   2.856   4.269
 2417SOL    HW2 9698   0.273   2.813   4.242
 2417SOL    HW3 9699   0.197   2.944   4.231
 2417SOL    MW4 9700   0.203   2.862   4.261
 2418SOL     OW 9701   0.221   3.108   4.138
 2418SOL    HW2 9702   0.303   3.150   4.165
 2418SOL    HW3 9703   0.155   3.144   4.198
 2418SOL    MW4 9704   0.223   3.119   4.150
 2419SOL     OW 9705   4.465   3.209   4.234
 2419SOL    HW2 9706   4.400   3.151   4.195
 2419SOL    HW3 9707   4.460   3.289   4.182
 2419SOL    MW4 9708   4.456   3.212   4.222
 2420SOL     OW 9709   4.476   3.448   4.106
 2420SOL    HW2 9710   4.411   3.504   4.149
 2420SOL    HW3 9711   4.463   3.463   4.012
 2420SOL    MW4 9712   4.466   3.457   4.099
 2421SOL     OW 9713   0.192   3.572   4.261
 2421SOL    HW2 9714   0.265   3.516   4.232
 2421SOL    HW3 9715   0.116   3.539   4.213
 2421SOL    MW4 9716   0.192   3.560   4.251
 2422SOL     OW 9717   0.223   3.802   4.101
 2422SOL    HW2 9718   0.155   3.855   4.143
 2422SOL    HW3 9719   0.223   3.719   4.149
 2422SOL    MW4 9720   0.214   3.798   4.113
 2423SOL     OW 9721   0.056   3.989   4.218
 2423SOL    HW2 9722   0.054   3.990   4.313
 2423SOL    HW3 9723  -0.034   3.968   4.192
 2423SOL    MW4 9724   0.044   3.986   4.227
 2424SOL     OW 9725   0.002   4.253   4.145
 2424SOL    HW2 9726   0.016   4.167   4.184
 2424SOL    HW3 9727   0.010   4.238   4.050
 2424SOL    MW4 9728   0.005   4.240   4.137
 2425SOL     OW 9729   0.230   4.339   4.298
 2425SOL    HW2 9730   0.242   4.373   4.386
 2425SOL    HW3 9731   0.140   4.306   4.297
 2425SOL    MW4 9732   0.220   4.339   4.309
 2426SOL     OW 9733   0.662   4.588   4.111
 2426SOL    HW2 9734   0.579   4.629   4.136
 2426SOL    HW3 9735   0.667   4.600   4.016
 2426SOL    MW4 9736   0.651   4.595   4.102
 2427SOL     OW 9737   0.438   0.058   4.200
 2427SOL    HW2 9738   0.452   0.045   4.294
 2427SOL    HW3 9739   0.426   0.153   4.191
 2427SOL    MW4 9740   0.438   0.069   4.212
 2428SOL     OW 9741   0.392   0.321   4.138
 2428SOL    HW2 9742   0.478   0.357   4.161
 2428SOL    HW3 9743   0.395   0.313   4.043
 2428SOL    MW4 9744   0.404   0.325   4.129
 2429SOL     OW 9745   0.603   0.452   4.255
 2429SOL    HW2 9746   0.689   0.416   4.232
 2429SOL    HW3 9747   0.600   0.537   4.211
 2429SOL    MW4 9748   0.614   0.458   4.246
 2430SOL     OW 9749   0.563   0.686   4.135
 2430SOL    HW2 9750   0.509   0.760   4.163
 2430SOL    HW3 9751   0.574   0.699   4.041
 2430SOL    MW4 9752   0.557   0.698   4.126
 2431SOL     OW 9753   0.396   0.876   4.262
 2431SOL    HW2 9754   0.408   0.966   4.232
 2431SOL    HW3 9755   0.310   0.851   4.229
 2431SOL    MW4 9756   0.386   0.885   4.254
 2432SOL     OW 9757   0.433   1.132   4.163
 2432SOL    HW2 9758   0.510   1.186   4.180
 2432SOL    HW3 9759   0.427   1.129   4.068
 2432SOL    MW4 9760   0.442   1.139   4.153
 2433SOL     OW 9761   0.673   1.252   4.257
 2433SOL    HW2 9762   0.708   1.233   4.344
 2433SOL    HW3 9763   0.666   1.347   4.254
 2433SOL    MW4 9764   0.677   1.262   4.268
 2434SOL     OW 9765   0.660   1.511   4.188
 2434SOL    HW2 9766   0.745   1.549   4.209
 2434SOL    HW3 9767   0.658   1.507   4.092
 2434SOL    MW4 9768   0.671   1.515   4.178
 2435SOL     OW 9769   0.230   1.553   4.105
 2435SOL    HW2 9770   0.222   1.463   4.137
 2435SOL    HW3 9771   0.163   1.601   4.153
 2435SOL    MW4 9772   0.220   1.547   4.116
 2436SOL     OW 9773   0.460   1.953   4.163
 2436SOL    HW2 9774   0.449   1.865   4.199
 2436SOL    HW3 9775   0.467   1.940   4.069
 2436SOL    MW4 9776   0.459   1.940   4.155
 2437SOL     OW 9777   0.687   2.095   4.236
 2437SOL    HW2 9778   0.679   2.125   4.327
 2437SOL    HW3 9779   0.602   2.056   4.217
 2437SOL    MW4 9780   0.675   2.094   4.246
 2438SOL     OW 9781   0.636   2.334   4.127
 2438SOL    HW2 9782   0.646   2.244   4.159
 2438SOL    HW3 9783   0.651   2.328   4.033
 2438SOL    MW4 9784   0.639   2.321   4.119
 2439SOL     OW 9785   0.418   2.414   4.266
 2439SOL    HW2 9786   0.415   2.509   4.265
 2439SOL    HW3 9787   0.497   2.393   4.216
 2439SOL    MW4 9788   0.428   2.423   4.259
 2440SOL     OW 9789   0.388   2.713   4.135
 2440SOL    HW2 9790   0.470   2.745   4.172
 2440SOL    HW3 9791   0.395   2.730   4.041
 2440SOL    MW4 9792   0.399   2.719   4.127
 2441SOL     OW 9793   0.631   2.827   4.219
 2441SOL    HW2 9794   0.668   2.819   4.307
 2441SOL    HW3 9795   0.634   2.920   4.200
 2441SOL    MW4 9796   0.636   2.838   4.228
 2442SOL     OW 9797   0.688   3.097   4.116
 2442SOL    HW2 9798   0.763   3.138   4.160
 2442SOL    HW3 9799   0.612   3.138   4.157
 2442SOL    MW4 9800   0.688   3.108   4.127
 2443SOL     OW 9801   0.461   3.230   4.215
 2443SOL    HW2 9802   0.456   3.241   4.310
 2443SOL    HW3 9803   0.444   3.317   4.180
 2443SOL    MW4 9804   0.458   3.243   4.223
 2444SOL     OW 9805   0.423   3.486   4.105
 2444SOL    HW2 9806   0.510   3.511   4.136
 2444SOL    HW3 9807   0.428   3.491   4.010
 2444SOL    MW4 9808   0.435   3.490   4.097
 2445SOL     OW 9809   0.659   3.579   4.211
 2445SOL    HW2 9810   0.669   3.589   4.305
 2445SOL    HW3 9811   0.740   3.536   4.183
 2445SOL    MW4 9812   0.671   3.575   4.219
 2446SOL     OW 9813   0.681   3.831   4.104
 2446SOL    HW2 9814   0.603   3.868   4.143
 2446SOL    HW3 9815   0.696   3.750   4.152
 2446SOL    MW4 9816   0.673   3.825   4.115
 2447SOL     OW 9817   0.441   3.930   4.218
 2447SOL    HW2 9818   0.435   4.026   4.221
 2447SOL    HW3 9819   0.357   3.902   4.182
 2447SOL    MW4 9820   0.429   3.939   4.214
 2448SOL     OW 9821   0.451   4.214   4.208
 2448SOL    HW2 9822   0.377   4.268   4.234
 2448SOL    HW3 9823   0.447   4.213   4.112
 2448SOL    MW4 9824   0.441   4.221   4.199
 2449SOL     OW 9825   0.700   4.344   4.246
 2449SOL    HW2 9826   0.622   4.294   4.222
 2449SOL    HW3 9827   0.687   4.430   4.205
 2449SOL    MW4 9828   0.688   4.349   4.237
 2450SOL     OW 9829   1.107   4.642   4.128
 2450SOL    HW2 9830   1.112   4.548   4.147
 2450SOL    HW3 9831   1.113   4.647   4.033
 2450SOL    MW4 9832   1.108   4.630   4.118
 2451SOL     OW 9833   0.872   0.062   4.236
 2451SOL    HW2 9834   0.953   0.029   4.197
 2451SOL    HW3 9835   0.803   0.022   4.184
 2451SOL    MW4 9836   0.874   0.052   4.224
 2452SOL     OW 9837   0.846   0.340   4.164
 2452SOL    HW2 9838   0.930   0.383   4.178
 2452SOL    HW3 9839   0.859   0.250   4.194
 2452SOL    MW4 9840   0.858   0.333   4.170
 2453SOL     OW 9841   1.083   0.467   4.226
 2453SOL    HW2 9842   1.060   0.447   4.316
 2453SOL    HW3 9843   1.154   0.407   4.204
 2453SOL    MW4 9844   1.089   0.457   4.235
 2454SOL     OW 9845   1.090   0.735   4.152
 2454SOL    HW2 9846   1.176   0.752   4.191
 2454SOL    HW3 9847   1.072   0.643   4.173
 2454SOL    MW4 9848   1.099   0.725   4.160
 2455SOL     OW 9849   0.813   0.833   4.199
 2455SOL    HW2 9850   0.883   0.774   4.172
 2455SOL    HW3 9851   0.732   0.788   4.174
 2455SOL    MW4 9852   0.811   0.819   4.192
 2456SOL     OW 9853   0.855   1.114   4.108
 2456SOL    HW2 9854   0.847   1.023   4.135
 2456SOL    HW3 9855   0.783   1.159   4.152
 2456SOL    MW4 9856   0.845   1.108   4.117
 2457SOL     OW 9857   1.097   1.208   4.210
 2457SOL    HW2 9858   1.091   1.201   4.305
 2457SOL    HW3 9859   1.010   1.181   4.179
 2457SOL    MW4 9860   1.084   1.203   4.218
 2458SOL     OW 9861   1.121   1.463   4.123
 2458SOL    HW2 9862   1.032   1.496   4.137
 2458SOL    HW3 9863   1.119   1.374   4.158
 2458SOL    MW4 9864   1.109   1.456   4.130
 2459SOL     OW 9865   0.901   1.623   4.247
 2459SOL    HW2 9866   0.914   1.620   4.342
 2459SOL    HW3 9867   0.876   1.714   4.230
 2459SOL    MW4 9868   0.899   1.635   4.258
 2460SOL     OW 9869   0.853   1.877   4.161
 2460SOL    HW2 9870   0.798   1.949   4.192
 2460SOL    HW3 9871   0.847   1.881   4.065
 2460SOL    MW4 9872   0.845   1.887   4.152
 2461SOL     OW 9873   1.097   2.025   4.204
 2461SOL    HW2 9874   1.110   2.006   4.297
 2461SOL    HW3 9875   1.025   1.968   4.177
 2461SOL    MW4 9876   1.089   2.015   4.212
 2462SOL     OW 9877   1.111   2.308   4.114
 2462SOL    HW2 9878   1.192   2.331   4.159
 2462SOL    HW3 9879   1.099   2.215   4.135
 2462SOL    MW4 9880   1.120   2.299   4.123
 2463SOL     OW 9881   0.885   2.455   4.205
 2463SOL    HW2 9882   0.961   2.405   4.177
 2463SOL    HW3 9883   0.811   2.415   4.160
 2463SOL    MW4 9884   0.886   2.443   4.196
 2464SOL     OW 9885   0.834   2.687   4.073
 2464SOL    HW2 9886   0.847   2.602   4.115
 2464SOL    HW3 9887   0.748   2.715   4.103
 2464SOL    MW4 9888   0.825   2.680   4.083
 2465SOL     OW 9889   1.068   2.794   4.185
 2465SOL    HW2 9890   1.089   2.875   4.139
 2465SOL    HW3 9891   0.980   2.771   4.155
 2465SOL    MW4 9892   1.060   2.802   4.175
 2466SOL     OW 9893   1.167   3.049   4.112
 2466SOL    HW2 9894   1.239   3.091   4.159
 2466SOL    HW3 9895   1.172   3.085   4.023
 2466SOL    MW4 9896   1.177   3.059   4.106
 2467SOL     OW 9897   0.949   3.188   4.199
 2467SOL    HW2 9898   0.946   3.182   4.294
 2467SOL    HW3 9899   1.030   3.142   4.175
 2467SOL    MW4 9900   0.959   3.181   4.208
 2468SOL     OW 9901   0.905   3.452   4.117
 2468SOL    HW2 9902   0.929   3.361   4.132
 2468SOL    HW3 9903   0.915   3.464   4.022
 2468SOL    MW4 9904   0.909   3.442   4.106
 2469SOL     OW 9905   1.155   3.552   4.216
 2469SOL    HW2 9906   1.167   3.635   4.169
 2469SOL    HW3 9907   1.073   3.517   4.179
 2469SOL    MW4 9908   1.146   3.558   4.205
 2470SOL     OW 9909   1.136   3.834   4.111
 2470SOL    HW2 9910   1.209   3.862   4.167
 2470SOL    HW3 9911   1.063   3.890   4.136
 2470SOL    MW4 9912   1.136   3.845   4.122
 2471SOL     OW 9913   0.920   3.965   4.196
 2471SOL    HW2 9914   0.903   4.058   4.177
 2471SOL    HW3 9915   0.837   3.922   4.175
 2471SOL    MW4 9916   0.907   3.972   4.190
 2472SOL     OW 9917   0.935   4.239   4.126
 2472SOL    HW2 9918   1.016   4.272   4.164
 2472SOL    HW3 9919   0.866   4.276   4.180
 2472SOL    MW4 9920   0.936   4.248   4.138
 2473SOL     OW 9921   1.160   4.376   4.245
 2473SOL    HW2 9922   1.169   4.390   4.339
 2473SOL    HW3 9923   1.235   4.321   4.222
 2473SOL    MW4 9924   1.171   4.370   4.254
 2474SOL     OW 9925   1.579   4.624   4.171
 2474SOL    HW2 9926   1.637   4.689   4.209
 2474SOL    HW3 9927   1.491   4.660   4.184
 2474SOL    MW4 9928   1.575   4.637   4.178
 2475SOL     OW 9929   1.324   0.059   4.280
 2475SOL    HW2 9930   1.310   0.035   4.372
 2475SOL    HW3 9931   1.261   0.006   4.232
 2475SOL    MW4 9932   1.314   0.049   4.286
 2476SOL     OW 9933   1.303   0.335   4.139
 2476SOL    HW2 9934   1.377   0.376   4.184
 2476SOL    HW3 9935   1.295   0.248   4.180
 2476SOL    MW4 9936   1.312   0.329   4.150
 2477SOL     OW 9937   1.555   0.448   4.228
 2477SOL    HW2 9938   1.578   0.484   4.314
 2477SOL    HW3 9939   1.549   0.525   4.171
 2477SOL    MW4 9940   1.557   0.463   4.232
 2478SOL     OW 9941   1.559   0.697   4.116
 2478SOL    HW2 9942   1.630   0.752   4.149
 2478SOL    HW3 9943   1.562   0.707   4.021
 2478SOL    MW4 9944   1.569   0.706   4.108
 2479SOL     OW 9945   1.340   0.816   4.223
 2479SOL    HW2 9946   1.341   0.897   4.172
 2479SOL    HW3 9947   1.412   0.764   4.187
 2479SOL    MW4 9948   1.350   0.820   4.211
 2480SOL     OW 9949   1.338   1.073   4.126
 2480SOL    HW2 9950   1.257   1.109   4.161
 2480SOL    HW3 9951   1.351   1.119   4.044
 2480SOL    MW4 9952   1.329   1.084   4.120
 2481SOL     OW 9953   1.519   1.229   4.274
 2481SOL    HW2 9954   1.491   1.222   4.365
 2481SOL    HW3 9955   1.461   1.170   4.226
 2481SOL    MW4 9956   1.508   1.220   4.280
 2482SOL     OW 9957   1.528   1.483   4.144
 2482SOL    HW2 9958   1.463   1.540   4.186
 2482SOL    HW3 9959   1.517   1.399   4.187
 2482SOL    MW4 9960   1.518   1.480   4.155
 2483SOL     OW 9961   1.295   1.616   4.267
 2483SOL    HW2 9962   1.300   1.708   4.244
 2483SOL    HW3 9963   1.235   1.578   4.203
 2483SOL    MW4 9964   1.288   1.623   4.255
 2484SOL     OW 9965   1.334   1.884   4.156
 2484SOL    HW2 9966   1.407   1.936   4.191
 2484SOL    HW3 9967   1.258   1.942   4.164
 2484SOL    MW4 9968   1.334   1.899   4.161
 2485SOL     OW 9969   1.566   1.986   4.268
 2485SOL    HW2 9970   1.637   1.950   4.215
 2485SOL    HW3 9971   1.577   2.081   4.261
 2485SOL    MW4 9972   1.577   1.994   4.260
 2486SOL     OW 9973   1.589   2.265   4.233
 2486SOL    HW2 9974   1.658   2.328   4.248
 2486SOL    HW3 9975   1.587   2.252   4.138
 2486SOL    MW4 9976   1.598   2.271   4.223
 2487SOL     OW 9977   1.530   2.796   4.278
 2487SOL    HW2 9978   1.513   2.839   4.362
 2487SOL    HW3 9979   1.605   2.739   4.295
 2487SOL    MW4 9980   1.537   2.794   4.291
 2488SOL     OW 9981   1.325   2.659   4.133
 2488SOL    HW2 9982   1.388   2.700   4.192
 2488SOL    HW3 9983   1.240   2.695   4.160
 2488SOL    MW4 9984   1.322   2.669   4.144
 2489SOL     OW 9985   1.564   2.286   4.708
 2489SOL    HW2 9986   1.575   2.333   4.791
 2489SOL    HW3 9987   1.651   2.252   4.688
 2489SOL    MW4 9988   1.577   2.288   4.716
 2490SOL     OW 9989   1.589   3.036   4.143
 2490SOL    HW2 9990   1.648   3.086   4.200
 2490SOL    HW3 9991   1.594   2.946   4.177
 2490SOL    MW4 9992   1.597   3.031   4.155
 2491SOL     OW 9993   1.372   3.180   4.228
 2491SOL    HW2 9994   1.448   3.129   4.199
 2491SOL    HW3 9995   1.395   3.270   4.207
 2491SOL    MW4 9996   1.385   3.185   4.221
 2492SOL     OW 9997   1.394   3.432   4.158
 2492SOL    HW2 9998   1.302   3.443   4.181
 2492SOL    HW3 9999   1.399   3.456   4.065
 2492SOL    MW410000   1.382   3.436   4.148
 2493SOL     OW10001   1.614   3.591   4.269
 2493SOL    HW210002   1.621   3.614   4.361
 2493SOL    HW310003   1.539   3.531   4.265
 2493SOL    MW410004   1.605   3.586   4.280
 2494SOL     OW10005   1.588   3.826   4.109
 2494SOL    HW210006   1.509   3.862   4.150
 2494SOL    HW310007   1.606   3.745   4.157
 2494SOL    MW410008   1.580   3.820   4.121
 2495SOL     OW10009   1.375   3.965   4.205
 2495SOL    HW210010   1.404   3.975   4.295
 2495SOL    HW310011   1.384   4.052   4.166
 2495SOL    MW410012   1.380   3.977   4.212
 2496SOL     OW10013   1.365   4.227   4.124
 2496SOL    HW210014   1.439   4.270   4.167
 2496SOL    HW310015   1.379   4.244   4.031
 2496SOL    MW410016   1.377   4.235   4.117
 2497SOL     OW10017   1.592   4.352   4.232
 2497SOL    HW210018   1.597   4.445   4.210
 2497SOL    HW310019   1.674   4.315   4.200
 2497SOL    MW410020   1.604   4.359   4.225
 2498SOL     OW10021   1.994   4.603   4.169
 2498SOL    HW210022   1.923   4.658   4.202
 2498SOL    HW310023   1.979   4.599   4.075
 2498SOL    MW410024   1.982   4.610   4.161
 2499SOL     OW10025   1.798   0.107   4.277
 2499SOL    HW210026   1.764   0.144   4.359
 2499SOL    HW310027   1.804   0.182   4.218
 2499SOL    MW410028   1.794   0.122   4.280
 2500SOL     OW10029   1.797   0.340   4.120
 2500SOL    HW210030   1.872   0.383   4.160
 2500SOL    HW310031   1.721   0.382   4.160
 2500SOL    MW410032   1.797   0.351   4.130
 2501SOL     OW10033   2.012   0.478   4.258
 2501SOL    HW210034   2.010   0.465   4.353
 2501SOL    HW310035   2.090   0.430   4.229
 2501SOL    MW410036   2.022   0.470   4.266
 2502SOL     OW10037   1.994   0.719   4.120
 2502SOL    HW210038   2.065   0.767   4.162
 2502SOL    HW310039   1.986   0.638   4.171
 2502SOL    MW410040   2.002   0.715   4.132
 2503SOL     OW10041   1.773   0.858   4.211
 2503SOL    HW210042   1.780   0.949   4.179
 2503SOL    HW310043   1.852   0.815   4.177
 2503SOL    MW410044   1.784   0.865   4.202
 2504SOL     OW10045   1.758   1.128   4.158
 2504SOL    HW210046   1.823   1.186   4.198
 2504SOL    HW310047   1.677   1.147   4.205
 2504SOL    MW410048   1.756   1.138   4.169
 2505SOL     OW10049   1.992   1.273   4.269
 2505SOL    HW210050   2.066   1.218   4.243
 2505SOL    HW310051   2.002   1.353   4.216
 2505SOL    MW410052   2.003   1.276   4.258
 2506SOL     OW10053   2.016   1.518   4.102
 2506SOL    HW210054   2.095   1.558   4.138
 2506SOL    HW310055   2.032   1.514   4.008
 2506SOL    MW410056   2.028   1.522   4.095
 2507SOL     OW10057   1.772   1.626   4.191
 2507SOL    HW210058   1.842   1.579   4.146
 2507SOL    HW310059   1.694   1.573   4.176
 2507SOL    MW410060   1.771   1.613   4.183
 2508SOL     OW10061   1.779   1.900   4.101
 2508SOL    HW210062   1.762   1.809   4.125
 2508SOL    HW310063   1.838   1.932   4.170
 2508SOL    MW410064   1.785   1.893   4.114
 2509SOL     OW10065   1.787   2.440   4.295
 2509SOL    HW210066   1.771   2.512   4.355
 2509SOL    HW310067   1.871   2.461   4.254
 2509SOL    MW410068   1.796   2.452   4.298
 2510SOL     OW10069   2.324   2.170   4.108
 2510SOL    HW210070   2.387   2.148   4.177
 2510SOL    HW310071   2.376   2.216   4.042
 2510SOL    MW410072   2.339   2.173   4.109
 2511SOL     OW10073   1.810   2.917   4.355
 2511SOL    HW210074   1.807   2.889   4.264
 2511SOL    HW310075   1.900   2.900   4.383
 2511SOL    MW410076   1.822   2.911   4.347
 2512SOL     OW10077   1.822   2.790   4.093
 2512SOL    HW210078   1.878   2.727   4.138
 2512SOL    HW310079   1.881   2.863   4.073
 2512SOL    MW410080   1.837   2.791   4.097
 2513SOL     OW10081   2.031   3.143   4.325
 2513SOL    HW210082   2.035   3.071   4.388
 2513SOL    HW310083   2.026   3.100   4.240
 2513SOL    MW410084   2.031   3.128   4.322
 2514SOL     OW10085   2.245   2.820   4.129
 2514SOL    HW210086   2.338   2.839   4.140
 2514SOL    HW310087   2.219   2.779   4.211
 2514SOL    MW410088   2.254   2.817   4.141
 2515SOL     OW10089   1.740   3.215   4.292
 2515SOL    HW210090   1.786   3.279   4.237
 2515SOL    HW310091   1.810   3.160   4.327
 2515SOL    MW410092   1.755   3.216   4.289
 2516SOL     OW10093   1.822   3.443   4.151
 2516SOL    HW210094   1.753   3.501   4.184
 2516SOL    HW310095   1.815   3.449   4.056
 2516SOL    MW410096   1.812   3.451   4.143
 2517SOL     OW10097   2.018   3.612   4.297
 2517SOL    HW210098   2.050   3.679   4.237
 2517SOL    HW310099   1.976   3.548   4.240
 2517SOL    MW410100   2.017   3.613   4.282
 2518SOL     OW10101   2.041   3.824   4.100
 2518SOL    HW210102   1.959   3.851   4.142
 2518SOL    HW310103   2.034   3.857   4.011
 2518SOL    MW410104   2.029   3.832   4.094
 2519SOL     OW10105   1.817   3.955   4.186
 2519SOL    HW210106   1.809   4.043   4.150
 2519SOL    HW310107   1.736   3.911   4.161
 2519SOL    MW410108   1.805   3.960   4.178
 2520SOL     OW10109   1.819   4.215   4.118
 2520SOL    HW210110   1.897   4.254   4.158
 2520SOL    HW310111   1.824   4.242   4.026
 2520SOL    MW410112   1.830   4.224   4.111
 2521SOL     OW10113   2.007   4.347   4.275
 2521SOL    HW210114   1.962   4.344   4.359
 2521SOL    HW310115   2.007   4.440   4.252
 2521SOL    MW410116   2.001   4.359   4.283
 2522SOL     OW10117   2.431   4.634   4.181
 2522SOL    HW210118   2.506   4.673   4.226
 2522SOL    HW310119   2.435   4.541   4.205
 2522SOL    MW410120   2.442   4.627   4.190
 2523SOL     OW10121   2.196   0.083   4.291
 2523SOL    HW210122   2.280   0.048   4.261
 2523SOL    HW310123   2.130   0.033   4.243
 2523SOL    MW410124   2.198   0.072   4.280
 2524SOL     OW10125   2.232   0.342   4.176
 2524SOL    HW210126   2.204   0.258   4.214
 2524SOL    HW310127   2.225   0.329   4.082
 2524SOL    MW410128   2.227   0.329   4.169
 2525SOL     OW10129   2.446   0.490   4.264
 2525SOL    HW210130   2.401   0.532   4.338
 2525SOL    HW310131   2.377   0.442   4.218
 2525SOL    MW410132   2.431   0.490   4.267
 2526SOL     OW10133   2.485   0.768   4.191
 2526SOL    HW210134   2.477   0.674   4.205
 2526SOL    HW310135   2.475   0.780   4.097
 2526SOL    MW410136   2.483   0.757   4.181
 2527SOL     OW10137   2.218   0.866   4.215
 2527SOL    HW210138   2.205   0.849   4.308
 2527SOL    HW310139   2.311   0.851   4.201
 2527SOL    MW410140   2.228   0.862   4.225
 2528SOL     OW10141   2.207   1.143   4.183
 2528SOL    HW210142   2.286   1.188   4.212
 2528SOL    HW310143   2.216   1.054   4.217
 2528SOL    MW410144   2.218   1.137   4.191
 2529SOL     OW10145   2.440   1.297   4.230
 2529SOL    HW210146   2.465   1.303   4.322
 2529SOL    HW310147   2.504   1.236   4.191
 2529SOL    MW410148   2.452   1.290   4.237
 2530SOL     OW10149   2.450   1.556   4.149
 2530SOL    HW210150   2.454   1.467   4.186
 2530SOL    HW310151   2.441   1.542   4.055
 2530SOL    MW410152   2.449   1.542   4.141
 2531SOL     OW10153   2.212   1.656   4.237
 2531SOL    HW210154   2.294   1.616   4.209
 2531SOL    HW310155   2.219   1.747   4.209
 2531SOL    MW410156   2.223   1.663   4.230
 2532SOL     OW10157   2.181   1.931   4.145
 2532SOL    HW210158   2.227   2.015   4.151
 2532SOL    HW310159   2.105   1.941   4.203
 2532SOL    MW410160   2.177   1.944   4.153
 2533SOL     OW10161   2.547   2.117   4.282
 2533SOL    HW210162   2.510   2.064   4.353
 2533SOL    HW310163   2.607   2.058   4.237
 2533SOL    MW410164   2.550   2.102   4.286
 2534SOL     OW10165   2.732   2.522   4.321
 2534SOL    HW210166   2.709   2.447   4.375
 2534SOL    HW310167   2.796   2.571   4.372
 2534SOL    MW410168   2.737   2.518   4.335
 2535SOL     OW10169   2.416   2.440   4.607
 2535SOL    HW210170   2.401   2.474   4.519
 2535SOL    HW310171   2.393   2.512   4.665
 2535SOL    MW410172   2.411   2.454   4.603
 2536SOL     OW10173   1.998   2.590   4.193
 2536SOL    HW210174   2.050   2.641   4.256
 2536SOL    HW310175   2.061   2.527   4.156
 2536SOL    MW410176   2.013   2.588   4.197
 2537SOL     OW10177   2.482   2.712   4.411
 2537SOL    HW210178   2.444   2.629   4.381
 2537SOL    HW310179   2.415   2.750   4.468
 2537SOL    MW410180   2.468   2.706   4.415
 2538SOL     OW10181   2.535   3.145   4.208
 2538SOL    HW210182   2.459   3.176   4.257
 2538SOL    HW310183   2.609   3.191   4.247
 2538SOL    MW410184   2.535   3.155   4.220
 2539SOL     OW10185   2.030   2.982   4.062
 2539SOL    HW210186   2.050   3.037   3.986
 2539SOL    HW310187   2.111   2.933   4.077
 2539SOL    MW410188   2.043   2.983   4.054
 2540SOL     OW10189   2.257   3.483   4.206
 2540SOL    HW210190   2.248   3.392   4.234
 2540SOL    HW310191   2.182   3.528   4.244
 2540SOL    MW410192   2.246   3.477   4.215
 2541SOL     OW10193   2.504   3.606   4.285
 2541SOL    HW210194   2.432   3.551   4.255
 2541SOL    HW310195   2.510   3.676   4.220
 2541SOL    MW410196   2.495   3.608   4.273
 2542SOL     OW10197   2.486   3.844   4.133
 2542SOL    HW210198   2.561   3.895   4.164
 2542SOL    HW310199   2.479   3.865   4.040
 2542SOL    MW410200   2.495   3.853   4.125
 2543SOL     OW10201   2.249   3.946   4.254
 2543SOL    HW210202   2.338   3.929   4.226
 2543SOL    HW310203   2.195   3.886   4.202
 2543SOL    MW410204   2.253   3.936   4.244
 2544SOL     OW10205   2.225   4.216   4.156
 2544SOL    HW210206   2.224   4.127   4.190
 2544SOL    HW310207   2.156   4.262   4.205
 2544SOL    MW410208   2.216   4.210   4.167
 2545SOL     OW10209   2.419   4.382   4.257
 2545SOL    HW210210   2.490   4.320   4.238
 2545SOL    HW310211   2.340   4.337   4.229
 2545SOL    MW410212   2.418   4.368   4.251
 2546SOL     OW10213   2.848   4.656   4.175
 2546SOL    HW210214   2.915   4.704   4.224
 2546SOL    HW310215   2.865   4.564   4.195
 2546SOL    MW410216   2.859   4.650   4.184
 2547SOL     OW10217   2.643   0.108   4.296
 2547SOL    HW210218   2.659   0.194   4.259
 2547SOL    HW310219   2.712   0.053   4.259
 2547SOL    MW410220   2.654   0.112   4.286
 2548SOL     OW10221   2.692   0.372   4.235
 2548SOL    HW210222   2.609   0.413   4.261
 2548SOL    HW310223   2.693   0.379   4.140
 2548SOL    MW410224   2.681   0.378   4.226
 2549SOL     OW10225   3.252   0.728   4.131
 2549SOL    HW210226   3.287   0.687   4.211
 2549SOL    HW310227   3.158   0.738   4.149
 2549SOL    MW410228   3.244   0.724   4.144
 2550SOL     OW10229   2.983   0.788   4.128
 2550SOL    HW210230   3.025   0.873   4.142
 2550SOL    HW310231   2.982   0.776   4.033
 2550SOL    MW410232   2.989   0.797   4.117
 2551SOL     OW10233   2.744   0.906   4.219
 2551SOL    HW210234   2.815   0.858   4.177
 2551SOL    HW310235   2.675   0.842   4.231
 2551SOL    MW410236   2.745   0.891   4.215
 2552SOL     OW10237   2.668   1.169   4.126
 2552SOL    HW210238   2.690   1.084   4.166
 2552SOL    HW310239   2.654   1.149   4.033
 2552SOL    MW410240   2.669   1.155   4.119
 2553SOL     OW10241   2.909   1.270   4.227
 2553SOL    HW210242   2.961   1.206   4.180
 2553SOL    HW310243   2.820   1.258   4.194
 2553SOL    MW410244   2.904   1.260   4.216
 2554SOL     OW10245   2.916   1.548   4.139
 2554SOL    HW210246   3.001   1.580   4.170
 2554SOL    HW310247   2.914   1.456   4.164
 2554SOL    MW410248   2.927   1.540   4.146
 2555SOL     OW10249   2.683   1.684   4.175
 2555SOL    HW210250   2.762   1.640   4.146
 2555SOL    HW310251   2.612   1.624   4.153
 2555SOL    MW410252   2.684   1.671   4.168
 2556SOL     OW10253   2.706   1.955   4.111
 2556SOL    HW210254   2.690   1.865   4.140
 2556SOL    HW310255   2.689   1.954   4.017
 2556SOL    MW410256   2.702   1.943   4.103
 2557SOL     OW10257   2.920   2.102   4.218
 2557SOL    HW210258   2.916   2.194   4.193
 2557SOL    HW310259   2.847   2.061   4.171
 2557SOL    MW410260   2.910   2.108   4.209
 2558SOL     OW10261   2.900   2.375   4.166
 2558SOL    HW210262   2.977   2.426   4.192
 2558SOL    HW310263   2.826   2.424   4.201
 2558SOL    MW410264   2.900   2.388   4.174
 2559SOL     OW10265   2.715   2.707   4.106
 2559SOL    HW210266   2.640   2.755   4.141
 2559SOL    HW310267   2.734   2.641   4.173
 2559SOL    MW410268   2.708   2.705   4.120
 2560SOL     OW10269   2.510   2.866   4.186
 2560SOL    HW210270   2.487   2.815   4.264
 2560SOL    HW310271   2.507   2.957   4.216
 2560SOL    MW410272   2.506   2.871   4.200
 2561SOL     OW10273   2.906   2.899   4.097
 2561SOL    HW210274   2.830   2.841   4.106
 2561SOL    HW310275   2.885   2.955   4.022
 2561SOL    MW410276   2.893   2.899   4.088
 2562SOL     OW10277   2.971   3.113   4.286
 2562SOL    HW210278   2.979   3.057   4.363
 2562SOL    HW310279   2.950   3.053   4.214
 2562SOL    MW410280   2.969   3.098   4.287
 2563SOL     OW10281   2.749   3.279   4.317
 2563SOL    HW210282   2.749   3.286   4.412
 2563SOL    HW310283   2.830   3.233   4.296
 2563SOL    MW410284   2.760   3.274   4.327
 2564SOL     OW10285   2.721   3.508   4.147
 2564SOL    HW210286   2.753   3.430   4.191
 2564SOL    HW310287   2.642   3.533   4.196
 2564SOL    MW410288   2.715   3.501   4.159
 2565SOL     OW10289   2.926   3.638   4.277
 2565SOL    HW210290   2.924   3.608   4.368
 2565SOL    HW310291   2.854   3.590   4.235
 2565SOL    MW410292   2.916   3.628   4.283
 2566SOL     OW10293   2.930   3.863   4.115
 2566SOL    HW210294   2.999   3.904   4.167
 2566SOL    HW310295   2.913   3.780   4.159
 2566SOL    MW410296   2.937   3.858   4.128
 2567SOL     OW10297   2.704   3.983   4.213
 2567SOL    HW210298   2.712   4.076   4.193
 2567SOL    HW310299   2.780   3.943   4.169
 2567SOL    MW410300   2.715   3.990   4.205
 2568SOL     OW10301   2.672   4.256   4.153
 2568SOL    HW210302   2.743   4.311   4.187
 2568SOL    HW310303   2.676   4.268   4.058
 2568SOL    MW410304   2.682   4.265   4.145
 2569SOL     OW10305   2.926   4.400   4.220
 2569SOL    HW210306   2.921   4.390   4.315
 2569SOL    HW310307   3.000   4.345   4.194
 2569SOL    MW410308   2.935   4.392   4.230
 2570SOL     OW10309   3.316   0.026   4.224
 2570SOL    HW210310   3.396   0.072   4.248
 2570SOL    HW310311   3.340  -0.067   4.228
 2570SOL    MW410312   3.330   0.020   4.228
 2571SOL     OW10313   3.067   0.146   4.300
 2571SOL    HW210314   3.058   0.152   4.395
 2571SOL    HW310315   3.155   0.111   4.287
 2571SOL    MW410316   3.078   0.142   4.311
 2572SOL     OW10317   3.101   0.412   4.209
 2572SOL    HW210318   3.065   0.329   4.239
 2572SOL    HW310319   3.076   0.475   4.277
 2572SOL    MW410320   3.093   0.410   4.222
 2573SOL     OW10321   3.320   0.345   4.353
 2573SOL    HW210322   3.380   0.338   4.279
 2573SOL    HW310323   3.235   0.367   4.313
 2573SOL    MW410324   3.316   0.347   4.338
 2574SOL     OW10325   3.373   0.638   4.362
 2574SOL    HW210326   3.311   0.667   4.429
 2574SOL    HW310327   3.377   0.542   4.373
 2574SOL    MW410328   3.365   0.629   4.372
 2575SOL     OW10329   3.216   0.764   4.560
 2575SOL    HW210330   3.126   0.732   4.568
 2575SOL    HW310331   3.210   0.859   4.569
 2575SOL    MW410332   3.204   0.772   4.562
 2576SOL     OW10333   3.092   1.049   4.111
 2576SOL    HW210334   3.178   1.022   4.145
 2576SOL    HW310335   3.106   1.063   4.018
 2576SOL    MW410336   3.105   1.048   4.103
 2577SOL     OW10337   3.341   1.039   4.212
 2577SOL    HW210338   3.351   0.979   4.285
 2577SOL    HW310339   3.305   1.119   4.251
 2577SOL    MW410340   3.338   1.042   4.227
 2578SOL     OW10341   3.244   1.312   4.303
 2578SOL    HW210342   3.286   1.379   4.250
 2578SOL    HW310343   3.297   1.305   4.381
 2578SOL    MW410344   3.256   1.320   4.306
 2579SOL     OW10345   3.136   1.682   4.217
 2579SOL    HW210346   3.096   1.685   4.305
 2579SOL    HW310347   3.129   1.771   4.185
 2579SOL    MW410348   3.130   1.694   4.225
 2580SOL     OW10349   3.132   1.937   4.123
 2580SOL    HW210350   3.208   1.987   4.154
 2580SOL    HW310351   3.057   1.988   4.151
 2580SOL    MW410352   3.132   1.950   4.131
 2581SOL     OW10353   3.328   2.085   4.236
 2581SOL    HW210354   3.417   2.056   4.219
 2581SOL    HW310355   3.323   2.173   4.200
 2581SOL    MW410356   3.339   2.093   4.229
 2582SOL     OW10357   3.364   2.359   4.159
 2582SOL    HW210358   3.439   2.400   4.202
 2582SOL    HW310359   3.387   2.358   4.066
 2582SOL    MW410360   3.377   2.364   4.152
 2583SOL     OW10361   3.132   2.498   4.252
 2583SOL    HW210362   3.145   2.586   4.217
 2583SOL    HW310363   3.210   2.450   4.223
 2583SOL    MW410364   3.144   2.503   4.244
 2584SOL     OW10365   3.149   2.743   4.107
 2584SOL    HW210366   3.221   2.796   4.140
 2584SOL    HW310367   3.071   2.798   4.117
 2584SOL    MW410368   3.148   2.757   4.113
 2585SOL     OW10369   3.362   2.857   4.223
 2585SOL    HW210370   3.445   2.809   4.212
 2585SOL    HW310371   3.385   2.948   4.207
 2585SOL    MW410372   3.376   2.862   4.219
 2586SOL     OW10373   3.415   3.105   4.176
 2586SOL    HW210374   3.345   3.163   4.203
 2586SOL    HW310375   3.402   3.093   4.082
 2586SOL    MW410376   3.404   3.111   4.167
 2587SOL     OW10377   3.203   3.266   4.251
 2587SOL    HW210378   3.188   3.358   4.229
 2587SOL    HW310379   3.115   3.231   4.268
 2587SOL    MW410380   3.189   3.274   4.250
 2588SOL     OW10381   3.141   3.525   4.153
 2588SOL    HW210382   3.070   3.577   4.190
 2588SOL    HW310383   3.113   3.506   4.063
 2588SOL    MW410384   3.128   3.529   4.146
 2589SOL     OW10385   3.402   3.606   4.248
 2589SOL    HW210386   3.394   3.598   4.343
 2589SOL    HW310387   3.315   3.580   4.215
 2589SOL    MW410388   3.389   3.601   4.256
 2590SOL     OW10389   3.420   3.871   4.187
 2590SOL    HW210390   3.423   3.779   4.213
 2590SOL    HW310391   3.409   3.869   4.092
 2590SOL    MW410392   3.419   3.858   4.178
 2591SOL     OW10393   3.167   3.993   4.250
 2591SOL    HW210394   3.167   4.000   4.346
 2591SOL    HW310395   3.251   3.953   4.229
 2591SOL    MW410396   3.178   3.989   4.260
 2592SOL     OW10397   3.164   4.267   4.155
 2592SOL    HW210398   3.236   4.313   4.197
 2592SOL    HW310399   3.180   4.174   4.174
 2592SOL    MW410400   3.175   4.261   4.163
 2593SOL     OW10401   3.379   4.414   4.261
 2593SOL    HW210402   3.379   4.405   4.356
 2593SOL    HW310403   3.464   4.380   4.234
 2593SOL    MW410404   3.390   4.408   4.270
 2594SOL     OW10405   3.844   4.644   4.186
 2594SOL    HW210406   3.926   4.679   4.221
 2594SOL    HW310407   3.848   4.662   4.092
 2594SOL    MW410408   3.855   4.651   4.178
 2595SOL     OW10409   3.587   0.085   4.277
 2595SOL    HW210410   3.591   0.171   4.235
 2595SOL    HW310411   3.674   0.047   4.264
 2595SOL    MW410412   3.599   0.091   4.270
 2596SOL     OW10413   3.539   0.339   4.154
 2596SOL    HW210414   3.595   0.404   4.196
 2596SOL    HW310415   3.554   0.351   4.060
 2596SOL    MW410416   3.548   0.349   4.147
 2597SOL     OW10417   3.781   0.396   4.303
 2597SOL    HW210418   3.777   0.350   4.388
 2597SOL    HW310419   3.751   0.485   4.323
 2597SOL    MW410420   3.776   0.401   4.317
 2598SOL     OW10421   3.749   0.775   4.132
 2598SOL    HW210422   3.683   0.844   4.120
 2598SOL    HW310423   3.766   0.744   4.043
 2598SOL    MW410424   3.742   0.780   4.118
 2599SOL     OW10425   3.640   0.634   4.344
 2599SOL    HW210426   3.545   0.639   4.333
 2599SOL    HW310427   3.675   0.681   4.268
 2599SOL    MW410428   3.632   0.641   4.332
 2600SOL     OW10429   3.589   1.001   4.088
 2600SOL    HW210430   3.495   0.998   4.104
 2600SOL    HW310431   3.596   1.014   3.993
 2600SOL    MW410432   3.578   1.002   4.077
 2601SOL     OW10433   3.628   1.278   4.206
 2601SOL    HW210434   3.604   1.205   4.149
 2601SOL    HW310435   3.658   1.237   4.287
 2601SOL    MW410436   3.629   1.263   4.209
 2602SOL     OW10437   3.768   1.498   4.109
 2602SOL    HW210438   3.722   1.422   4.143
 2602SOL    HW310439   3.825   1.527   4.180
 2602SOL    MW410440   3.770   1.492   4.123
 2603SOL     OW10441   3.559   1.956   4.147
 2603SOL    HW210442   3.564   1.946   4.052
 2603SOL    HW310443   3.565   1.866   4.181
 2603SOL    MW410444   3.560   1.943   4.139
 2604SOL     OW10445   3.335   1.527   4.133
 2604SOL    HW210446   3.339   1.518   4.038
 2604SOL    HW310447   3.266   1.591   4.148
 2604SOL    MW410448   3.326   1.534   4.123
 2605SOL     OW10449   3.808   2.045   4.234
 2605SOL    HW210450   3.806   2.042   4.329
 2605SOL    HW310451   3.720   2.020   4.207
 2605SOL    MW410452   3.796   2.042   4.243
 2606SOL     OW10453   3.800   2.317   4.148
 2606SOL    HW210454   3.791   2.226   4.174
 2606SOL    HW310455   3.794   2.316   4.052
 2606SOL    MW410456   3.798   2.305   4.139
 2607SOL     OW10457   3.595   2.467   4.257
 2607SOL    HW210458   3.622   2.472   4.349
 2607SOL    HW310459   3.662   2.412   4.216
 2607SOL    MW410460   3.607   2.460   4.264
 2608SOL     OW10461   3.605   2.706   4.154
 2608SOL    HW210462   3.593   2.623   4.200
 2608SOL    HW310463   3.617   2.681   4.062
 2608SOL    MW410464   3.605   2.692   4.148
 2609SOL     OW10465   3.821   2.847   4.284
 2609SOL    HW210466   3.834   2.830   4.378
 2609SOL    HW310467   3.746   2.793   4.260
 2609SOL    MW410468   3.813   2.837   4.293
 2610SOL     OW10469   3.830   3.099   4.181
 2610SOL    HW210470   3.815   3.010   4.212
 2610SOL    HW310471   3.831   3.091   4.085
 2610SOL    MW410472   3.828   3.086   4.172
 2611SOL     OW10473   3.633   3.261   4.292
 2611SOL    HW210474   3.695   3.226   4.228
 2611SOL    HW310475   3.552   3.212   4.276
 2611SOL    MW410476   3.630   3.250   4.281
 2612SOL     OW10477   3.636   3.490   4.120
 2612SOL    HW210478   3.629   3.419   4.183
 2612SOL    HW310479   3.569   3.553   4.147
 2612SOL    MW410480   3.627   3.489   4.132
 2613SOL     OW10481   3.823   3.624   4.271
 2613SOL    HW210482   3.905   3.588   4.236
 2613SOL    HW310483   3.755   3.574   4.226
 2613SOL    MW410484   3.825   3.613   4.260
 2614SOL     OW10485   3.820   3.886   4.141
 2614SOL    HW210486   3.755   3.939   4.189
 2614SOL    HW310487   3.812   3.799   4.180
 2614SOL    MW410488   3.810   3.882   4.153
 2615SOL     OW10489   3.618   4.048   4.266
 2615SOL    HW210490   3.640   4.026   4.356
 2615SOL    HW310491   3.540   3.996   4.246
 2615SOL    MW410492   3.611   4.039   4.275
 2616SOL     OW10493   3.603   4.290   4.159
 2616SOL    HW210494   3.680   4.331   4.198
 2616SOL    HW310495   3.598   4.204   4.200
 2616SOL    MW410496   3.613   4.284   4.169
 2617SOL     OW10497   3.835   4.390   4.275
 2617SOL    HW210498   3.898   4.343   4.221
 2617SOL    HW310499   3.843   4.481   4.247
 2617SOL    MW410500   3.844   4.396   4.264
 2618SOL     OW10501   4.227   4.642   4.196
 2618SOL    HW210502   4.238   4.551   4.223
 2618SOL    HW310503   4.308   4.685   4.224
 2618SOL    MW410504   4.239   4.636   4.203
 2619SOL     OW10505   4.096   0.152   4.368
 2619SOL    HW210506   4.084   0.214   4.296
 2619SOL    HW310507   4.141   0.077   4.328
 2619SOL    MW410508   4.101   0.150   4.353
 2620SOL     OW10509   4.043   0.387   4.157
 2620SOL    HW210510   4.098   0.434   4.219
 2620SOL    HW310511   3.955   0.391   4.194
 2620SOL    MW410512   4.039   0.393   4.170
 2621SOL     OW10513   4.285   0.527   4.312
 2621SOL    HW210514   4.270   0.596   4.248
 2621SOL    HW310515   4.353   0.472   4.271
 2621SOL    MW410516   4.292   0.529   4.298
 2622SOL     OW10517   4.202   0.759   4.169
 2622SOL    HW210518   4.118   0.790   4.202
 2622SOL    HW310519   4.191   0.752   4.075
 2622SOL    MW410520   4.190   0.762   4.161
 2623SOL     OW10521   3.969   0.867   4.274
 2623SOL    HW210522   3.965   0.959   4.250
 2623SOL    HW310523   3.896   0.826   4.227
 2623SOL    MW410524   3.959   0.873   4.265
 2624SOL     OW10525   4.016   1.124   4.162
 2624SOL    HW210526   4.102   1.159   4.185
 2624SOL    HW310527   3.954   1.178   4.213
 2624SOL    MW410528   4.019   1.136   4.172
 2625SOL     OW10529   4.238   1.282   4.222
 2625SOL    HW210530   4.220   1.266   4.314
 2625SOL    HW310531   4.316   1.230   4.203
 2625SOL    MW410532   4.246   1.273   4.231
 2626SOL     OW10533   4.296   1.551   4.154
 2626SOL    HW210534   4.276   1.463   4.186
 2626SOL    HW310535   4.255   1.555   4.067
 2626SOL    MW410536   4.288   1.540   4.146
 2627SOL     OW10537   4.138   1.767   4.293
 2627SOL    HW210538   4.182   1.785   4.375
 2627SOL    HW310539   4.204   1.722   4.240
 2627SOL    MW410540   4.152   1.763   4.296
 2628SOL     OW10541   4.035   1.933   4.104
 2628SOL    HW210542   4.054   1.864   4.169
 2628SOL    HW310543   3.957   1.976   4.137
 2628SOL    MW410544   4.027   1.929   4.117
 2629SOL     OW10545   4.455   1.933   4.152
 2629SOL    HW210546   4.531   1.990   4.167
 2629SOL    HW310547   4.380   1.983   4.184
 2629SOL    MW410548   4.455   1.947   4.158
 2630SOL     OW10549   4.256   2.340   4.142
 2630SOL    HW210550   4.177   2.377   4.182
 2630SOL    HW310551   4.265   2.254   4.183
 2630SOL    MW410552   4.247   2.334   4.153
 2631SOL     OW10553   4.033   2.495   4.232
 2631SOL    HW210554   4.055   2.496   4.325
 2631SOL    HW310555   3.967   2.425   4.223
 2631SOL    MW410556   4.027   2.486   4.243
 2632SOL     OW10557   3.984   2.734   4.111
 2632SOL    HW210558   3.988   2.644   4.146
 2632SOL    HW310559   3.931   2.781   4.176
 2632SOL    MW410560   3.977   2.728   4.124
 2633SOL     OW10561   4.197   2.854   4.246
 2633SOL    HW210562   4.132   2.801   4.200
 2633SOL    HW310563   4.282   2.820   4.216
 2633SOL    MW410564   4.200   2.842   4.236
 2634SOL     OW10565   4.241   3.099   4.118
 2634SOL    HW210566   4.215   3.013   4.151
 2634SOL    HW310567   4.258   3.085   4.024
 2634SOL    MW410568   4.240   3.086   4.110
 2635SOL     OW10569   4.057   3.249   4.285
 2635SOL    HW210570   4.120   3.194   4.238
 2635SOL    HW310571   3.973   3.205   4.273
 2635SOL    MW410572   4.054   3.236   4.277
 2636SOL     OW10573   4.032   3.497   4.180
 2636SOL    HW210574   4.038   3.410   4.219
 2636SOL    HW310575   4.020   3.482   4.087
 2636SOL    MW410576   4.031   3.484   4.173
 2637SOL     OW10577   4.289   3.615   4.215
 2637SOL    HW210578   4.282   3.706   4.188
 2637SOL    HW310579   4.201   3.579   4.205
 2637SOL    MW410580   4.276   3.622   4.210
 2638SOL     OW10581   4.318   3.879   4.127
 2638SOL    HW210582   4.229   3.911   4.140
 2638SOL    HW310583   4.332   3.885   4.032
 2638SOL    MW410584   4.308   3.884   4.116
 2639SOL     OW10585   4.071   3.976   4.194
 2639SOL    HW210586   4.078   3.958   4.287
 2639SOL    HW310587   3.987   3.936   4.168
 2639SOL    MW410588   4.061   3.969   4.203
 2640SOL     OW10589   4.043   4.255   4.157
 2640SOL    HW210590   4.111   4.299   4.206
 2640SOL    HW310591   4.055   4.162   4.177
 2640SOL    MW410592   4.053   4.249   4.166
 2641SOL     OW10593   4.075   4.211   4.582
 2641SOL    HW210594   4.095   4.212   4.676
 2641SOL    HW310595   3.989   4.253   4.575
 2641SOL    MW410596   4.066   4.216   4.594
 2642SOL     OW10597   4.172   4.225   4.842
 2642SOL    HW210598   4.130   4.292   4.897
 2642SOL    HW310599   4.265   4.234   4.861
 2642SOL    MW410600   4.179   4.235   4.852
 2643SOL     OW10601   4.317   4.354   4.532
 2643SOL    HW210602   4.292   4.440   4.566
 2643SOL    HW310603   4.245   4.297   4.557
 2643SOL    MW410604   4.304   4.358   4.540
 2644SOL     OW10605   4.237   4.627   4.609
 2644SOL    HW210606   4.258   4.691   4.678
 2644SOL    HW310607   4.148   4.649   4.582
 2644SOL    MW410608   4.228   4.639   4.615
 2645SOL     OW10609   4.271   1.827   4.542
 2645SOL    HW210610   4.364   1.843   4.554
 2645SOL    HW310611   4.251   1.757   4.605
 2645SOL    MW410612   4.280   1.820   4.552
 2646SOL     OW10613   0.462   0.005   4.473
 2646SOL    HW210614   0.384  -0.006   4.527
 2646SOL    HW310615   0.513  -0.075   4.487
 2646SOL    MW410616   0.459  -0.007   4.482
 2647SOL     OW10617   0.137   0.715   4.596
 2647SOL    HW210618   0.180   0.642   4.551
 2647SOL    HW310619   0.135   0.689   4.688
 2647SOL    MW410620   0.142   0.702   4.602
 2648SOL     OW10621   4.189   0.753   4.648
 2648SOL    HW210622   4.208   0.660   4.644
 2648SOL    HW310623   4.263   0.795   4.604
 2648SOL    MW410624   4.201   0.746   4.641
 2649SOL     OW10625   0.691   1.368   4.720
 2649SOL    HW210626   0.692   1.331   4.808
 2649SOL    HW310627   0.600   1.363   4.692
 2649SOL    MW410628   0.679   1.363   4.728
 2650SOL     OW10629   1.172   1.888   4.444
 2650SOL    HW210630   1.263   1.868   4.467
 2650SOL    HW310631   1.145   1.953   4.510
 2650SOL    MW410632   1.180   1.894   4.456
 2651SOL     OW10633   4.185   1.208   4.484
 2651SOL    HW210634   4.145   1.123   4.504
 2651SOL    HW310635   4.275   1.200   4.516
 2651SOL    MW410636   4.191   1.195   4.491
 2652SOL     OW10637   0.095   1.584   4.521
 2652SOL    HW210638   0.055   1.631   4.447
 2652SOL    HW310639   0.140   1.652   4.571
 2652SOL    MW410640   0.096   1.599   4.518
 2653SOL     OW10641   0.445   1.686   4.220
 2653SOL    HW210642   0.374   1.628   4.193
 2653SOL    HW310643   0.523   1.632   4.218
 2653SOL    MW410644   0.446   1.671   4.217
 2654SOL     OW10645   0.058   1.877   4.561
 2654SOL    HW210646   0.094   1.959   4.525
 2654SOL    HW310647   0.120   1.852   4.630
 2654SOL    MW410648   0.071   1.885   4.566
 2655SOL     OW10649   4.257   2.268   4.560
 2655SOL    HW210650   4.346   2.302   4.549
 2655SOL    HW310651   4.200   2.342   4.540
 2655SOL    MW410652   4.261   2.282   4.556
 2656SOL     OW10653   0.698   3.075   4.599
 2656SOL    HW210654   0.705   2.996   4.546
 2656SOL    HW310655   0.755   3.059   4.674
 2656SOL    MW410656   0.706   3.063   4.602
 2657SOL     OW10657   0.442   3.196   4.547
 2657SOL    HW210658   0.525   3.155   4.573
 2657SOL    HW310659   0.457   3.290   4.559
 2657SOL    MW410660   0.455   3.203   4.552
 2658SOL     OW10661   0.012   2.385   4.464
 2658SOL    HW210662   0.010   2.431   4.380
 2658SOL    HW310663   0.051   2.448   4.525
 2658SOL    MW410664   0.017   2.399   4.461
 2659SOL     OW10665   4.091   3.508   4.623
 2659SOL    HW210666   4.091   3.412   4.624
 2659SOL    HW310667   4.125   3.533   4.709
 2659SOL    MW410668   4.095   3.499   4.634
 2660SOL     OW10669   0.472   3.468   4.473
 2660SOL    HW210670   0.549   3.518   4.501
 2660SOL    HW310671   0.400   3.508   4.521
 2660SOL    MW410672   0.473   3.480   4.483
 2661SOL     OW10673   4.296   3.874   4.618
 2661SOL    HW210674   4.227   3.916   4.568
 2661SOL    HW310675   4.297   3.784   4.586
 2661SOL    MW410676   4.287   3.868   4.607
 2662SOL     OW10677   4.485   0.057   4.516
 2662SOL    HW210678   4.402   0.024   4.549
 2662SOL    HW310679   4.490   0.147   4.549
 2662SOL    MW410680   4.475   0.064   4.525
 2663SOL     OW10681   3.805   0.313   4.573
 2663SOL    HW210682   3.763   0.236   4.613
 2663SOL    HW310683   3.775   0.386   4.627
 2663SOL    MW410684   3.795   0.312   4.586
 2664SOL     OW10685   4.156   3.647   4.886
 2664SOL    HW210686   4.141   3.741   4.891
 2664SOL    HW310687   4.225   3.630   4.951
 2664SOL    MW410688   4.163   3.657   4.896
 2665SOL     OW10689   3.873   3.849   4.649
 2665SOL    HW210690   3.854   3.756   4.633
 2665SOL    HW310691   3.935   3.848   4.722
 2665SOL    MW410692   3.879   3.836   4.657
 2666SOL     OW10693   0.637   4.421   4.492
 2666SOL    HW210694   0.665   4.382   4.409
 2666SOL    HW310695   0.595   4.348   4.539
 2666SOL    MW410696   0.635   4.406   4.488
 2667SOL     OW10697   3.968   0.749   4.810
 2667SOL    HW210698   4.053   0.766   4.769
 2667SOL    HW310699   3.916   0.828   4.792
 2667SOL    MW410700   3.972   0.762   4.803
 2668SOL     OW10701   1.004   0.756   4.556
 2668SOL    HW210702   0.934   0.821   4.552
 2668SOL    HW310703   0.963   0.680   4.599
 2668SOL    MW410704   0.989   0.754   4.561
 2669SOL     OW10705   0.842   0.304   4.789
 2669SOL    HW210706   0.916   0.247   4.767
 2669SOL    HW310707   0.767   0.261   4.747
 2669SOL    MW410708   0.842   0.291   4.780
 2670SOL     OW10709   0.789   0.934   4.479
 2670SOL    HW210710   0.800   0.888   4.396
 2670SOL    HW310711   0.730   0.878   4.529
 2670SOL    MW410712   0.783   0.920   4.475
 2671SOL     OW10713   0.339   0.892   4.548
 2671SOL    HW210714   0.253   0.850   4.549
 2671SOL    HW310715   0.366   0.888   4.456
 2671SOL    MW410716   0.331   0.886   4.536
 2672SOL     OW10717   2.005   1.305   4.548
 2672SOL    HW210718   2.005   1.282   4.455
 2672SOL    HW310719   2.088   1.270   4.581
 2672SOL    MW410720   2.016   1.297   4.540
 2673SOL     OW10721   0.326   1.464   4.437
 2673SOL    HW210722   0.241   1.489   4.473
 2673SOL    HW310723   0.382   1.540   4.452
 2673SOL    MW410724   0.322   1.478   4.444
 2674SOL     OW10725   1.302   1.057   4.561
 2674SOL    HW210726   1.265   0.969   4.553
 2674SOL    HW310727   1.227   1.116   4.549
 2674SOL    MW410728   1.287   1.053   4.558
 2675SOL     OW10729   0.758   1.657   4.641
 2675SOL    HW210730   0.747   1.567   4.671
 2675SOL    HW310731   0.849   1.662   4.614
 2675SOL    MW410732   0.769   1.646   4.642
 2676SOL     OW10733   0.657   2.153   4.500
 2676SOL    HW210734   0.718   2.227   4.501
 2676SOL    HW310735   0.700   2.086   4.553
 2676SOL    MW410736   0.671   2.154   4.507
 2677SOL     OW10737   0.999   1.677   4.524
 2677SOL    HW210738   1.077   1.624   4.540
 2677SOL    HW310739   1.031   1.759   4.487
 2677SOL    MW410740   1.013   1.681   4.522
 2678SOL     OW10741   0.396   2.242   4.482
 2678SOL    HW210742   0.477   2.193   4.497
 2678SOL    HW310743   0.417   2.303   4.411
 2678SOL    MW410744   0.409   2.243   4.474
 2679SOL     OW10745   0.979   2.644   4.670
 2679SOL    HW210746   1.019   2.692   4.598
 2679SOL    HW310747   0.885   2.658   4.658
 2679SOL    MW410748   0.972   2.653   4.659
 2680SOL     OW10749   0.677   2.576   4.580
 2680SOL    HW210750   0.589   2.545   4.602
 2680SOL    HW310751   0.724   2.497   4.554
 2680SOL    MW410752   0.671   2.561   4.580
 2681SOL     OW10753   0.879   3.244   4.468
 2681SOL    HW210754   0.891   3.330   4.509
 2681SOL    HW310755   0.798   3.211   4.506
 2681SOL    MW410756   0.870   3.251   4.478
 2682SOL     OW10757   0.945   3.449   4.611
 2682SOL    HW210758   0.886   3.511   4.653
 2682SOL    HW310759   1.013   3.503   4.572
 2682SOL    MW410760   0.946   3.464   4.611
 2683SOL     OW10761   1.270   0.023   4.562
 2683SOL    HW210762   1.255  -0.070   4.577
 2683SOL    HW310763   1.363   0.036   4.583
 2683SOL    MW410764   1.280   0.012   4.567
 2684SOL     OW10765   0.168   2.586   4.588
 2684SOL    HW210766   0.261   2.566   4.595
 2684SOL    HW310767   0.165   2.681   4.574
 2684SOL    MW410768   0.180   2.596   4.587
 2685SOL     OW10769   4.438   3.461   4.631
 2685SOL    HW210770   4.392   3.521   4.573
 2685SOL    HW310771   4.414   3.374   4.599
 2685SOL    MW410772   4.429   3.458   4.619
 2686SOL     OW10773   1.368   3.409   4.545
 2686SOL    HW210774   1.332   3.322   4.560
 2686SOL    HW310775   1.462   3.399   4.558
 2686SOL    MW410776   1.376   3.396   4.548
 2687SOL     OW10777   0.052   4.224   4.639
 2687SOL    HW210778   0.048   4.140   4.593
 2687SOL    HW310779  -0.020   4.275   4.602
 2687SOL    MW410780   0.042   4.220   4.628
 2688SOL     OW10781   0.040   3.978   4.495
 2688SOL    HW210782   0.116   3.934   4.532
 2688SOL    HW310783  -0.035   3.933   4.534
 2688SOL    MW410784   0.040   3.966   4.505
 2689SOL     OW10785   0.263   4.615   4.647
 2689SOL    HW210786   0.174   4.651   4.657
 2689SOL    HW310787   0.307   4.637   4.729
 2689SOL    MW410788   0.257   4.623   4.659
 2690SOL     OW10789   0.647   0.206   4.570
 2690SOL    HW210790   0.724   0.158   4.540
 2690SOL    HW310791   0.573   0.153   4.542
 2690SOL    MW410792   0.648   0.193   4.563
 2691SOL     OW10793   1.251   4.405   4.541
 2691SOL    HW210794   1.335   4.359   4.533
 2691SOL    HW310795   1.194   4.343   4.587
 2691SOL    MW410796   1.255   4.391   4.546
 2692SOL     OW10797   0.570   0.480   4.556
 2692SOL    HW210798   0.586   0.468   4.462
 2692SOL    HW310799   0.585   0.393   4.594
 2692SOL    MW410800   0.574   0.467   4.549
 2693SOL     OW10801   1.271   0.789   4.508
 2693SOL    HW210802   1.275   0.799   4.412
 2693SOL    HW310803   1.177   0.778   4.526
 2693SOL    MW410804   1.259   0.789   4.497
 2694SOL     OW10805   1.547   0.807   4.587
 2694SOL    HW210806   1.555   0.862   4.666
 2694SOL    HW310807   1.460   0.828   4.553
 2694SOL    MW410808   1.536   0.817   4.593
 2695SOL     OW10809   0.234   1.159   4.609
 2695SOL    HW210810   0.274   1.075   4.586
 2695SOL    HW310811   0.309   1.216   4.626
 2695SOL    MW410812   0.249   1.155   4.608
 2696SOL     OW10813   0.823   1.955   4.614
 2696SOL    HW210814   0.801   1.868   4.646
 2696SOL    HW310815   0.912   1.970   4.645
 2696SOL    MW410816   0.832   1.946   4.622
 2697SOL     OW10817   0.802   1.214   4.514
 2697SOL    HW210818   0.751   1.250   4.586
 2697SOL    HW310819   0.794   1.119   4.523
 2697SOL    MW410820   0.794   1.206   4.524
 2698SOL     OW10821   1.780   1.155   4.585
 2698SOL    HW210822   1.835   1.082   4.558
 2698SOL    HW310823   1.842   1.228   4.596
 2698SOL    MW410824   1.796   1.155   4.583
 2699SOL     OW10825   1.084   1.258   4.487
 2699SOL    HW210826   0.990   1.262   4.506
 2699SOL    HW310827   1.115   1.347   4.506
 2699SOL    MW410828   1.076   1.271   4.492
 2700SOL     OW10829   1.137   2.372   4.632
 2700SOL    HW210830   1.096   2.452   4.665
 2700SOL    HW310831   1.211   2.403   4.579
 2700SOL    MW410832   1.142   2.387   4.629
 2701SOL     OW10833   1.646   2.478   4.926
 2701SOL    HW210834   1.726   2.501   4.973
 2701SOL    HW310835   1.625   2.557   4.875
 2701SOL    MW410836   1.653   2.492   4.925
 2702SOL     OW10837   1.493   2.908   4.537
 2702SOL    HW210838   1.501   2.821   4.576
 2702SOL    HW310839   1.571   2.956   4.566
 2702SOL    MW410840   1.504   2.903   4.546
 2703SOL     OW10841   1.627   3.313   4.541
 2703SOL    HW210842   1.652   3.236   4.592
 2703SOL    HW310843   1.667   3.299   4.455
 2703SOL    MW410844   1.636   3.301   4.537
 2704SOL     OW10845   0.738   2.828   4.474
 2704SOL    HW210846   0.832   2.817   4.462
 2704SOL    HW310847   0.711   2.749   4.522
 2704SOL    MW410848   0.747   2.816   4.479
 2705SOL     OW10849   0.485   4.157   4.483
 2705SOL    HW210850   0.409   4.200   4.520
 2705SOL    HW310851   0.464   4.145   4.391
 2705SOL    MW410852   0.473   4.161   4.476
 2706SOL     OW10853   1.010   2.799   4.443
 2706SOL    HW210854   1.033   2.796   4.351
 2706SOL    HW310855   1.043   2.884   4.473
 2706SOL    MW410856   1.018   2.810   4.435
 2707SOL     OW10857   0.920   2.951   4.773
 2707SOL    HW210858   0.958   2.863   4.765
 2707SOL    HW310859   0.981   3.007   4.725
 2707SOL    MW410860   0.933   2.946   4.766
 2708SOL     OW10861   1.650   3.585   4.573
 2708SOL    HW210862   1.736   3.602   4.610
 2708SOL    HW310863   1.650   3.491   4.555
 2708SOL    MW410864   1.661   3.575   4.575
 2709SOL     OW10865   0.521   3.888   4.479
 2709SOL    HW210866   0.541   3.978   4.506
 2709SOL    HW310867   0.502   3.896   4.385
 2709SOL    MW410868   0.521   3.901   4.470
 2710SOL     OW10869   0.280   3.857   4.615
 2710SOL    HW210870   0.258   3.764   4.609
 2710SOL    HW310871   0.363   3.865   4.569
 2710SOL    MW410872   0.288   3.846   4.608
 2711SOL     OW10873   0.826   4.643   4.503
 2711SOL    HW210874   0.837   4.674   4.413
 2711SOL    HW310875   0.771   4.565   4.496
 2711SOL    MW410876   0.820   4.637   4.490
 2712SOL     OW10877   0.289   4.352   4.560
 2712SOL    HW210878   0.282   4.440   4.597
 2712SOL    HW310879   0.217   4.303   4.600
 2712SOL    MW410880   0.279   4.357   4.570
 2713SOL     OW10881   2.246   3.890   4.555
 2713SOL    HW210882   2.237   3.917   4.464
 2713SOL    HW310883   2.334   3.852   4.560
 2713SOL    MW410884   2.257   3.889   4.544
 2714SOL     OW10885   1.667   4.513   4.542
 2714SOL    HW210886   1.751   4.470   4.559
 2714SOL    HW310887   1.604   4.441   4.534
 2714SOL    MW410888   1.670   4.498   4.543
 2715SOL     OW10889   1.498   4.279   4.481
 2715SOL    HW210890   1.477   4.185   4.481
 2715SOL    HW310891   1.558   4.290   4.407
 2715SOL    MW410892   1.503   4.268   4.471
 2716SOL     OW10893   0.843   0.531   4.635
 2716SOL    HW210894   0.751   0.547   4.615
 2716SOL    HW310895   0.842   0.459   4.698
 2716SOL    MW410896   0.831   0.523   4.641
 2717SOL     OW10897   1.541   0.055   4.638
 2717SOL    HW210898   1.599  -0.020   4.629
 2717SOL    HW310899   1.595   0.131   4.616
 2717SOL    MW410900   1.556   0.055   4.634
 2718SOL     OW10901   1.069   0.393   4.502
 2718SOL    HW210902   1.003   0.434   4.559
 2718SOL    HW310903   1.084   0.307   4.542
 2718SOL    MW410904   1.062   0.387   4.515
 2719SOL     OW10905   1.609   1.698   4.604
 2719SOL    HW210906   1.572   1.617   4.637
 2719SOL    HW310907   1.679   1.671   4.546
 2719SOL    MW410908   1.613   1.684   4.601
 2720SOL     OW10909   0.588   0.768   4.598
 2720SOL    HW210910   0.506   0.817   4.596
 2720SOL    HW310911   0.567   0.684   4.557
 2720SOL    MW410912   0.574   0.764   4.593
 2721SOL     OW10913   1.597   0.536   4.507
 2721SOL    HW210914   1.604   0.630   4.524
 2721SOL    HW310915   1.504   0.516   4.519
 2721SOL    MW410916   1.586   0.546   4.511
 2722SOL     OW10917   1.507   1.241   4.543
 2722SOL    HW210918   1.451   1.164   4.556
 2722SOL    HW310919   1.596   1.207   4.549
 2722SOL    MW410920   1.512   1.227   4.546
 2723SOL     OW10921   1.214   1.521   4.512
 2723SOL    HW210922   1.290   1.532   4.568
 2723SOL    HW310923   1.245   1.545   4.424
 2723SOL    MW410924   1.228   1.525   4.507
 2724SOL     OW10925   1.555   2.668   4.668
 2724SOL    HW210926   1.481   2.610   4.653
 2724SOL    HW310927   1.619   2.643   4.602
 2724SOL    MW410928   1.554   2.657   4.658
 2725SOL     OW10929   2.330   2.508   4.361
 2725SOL    HW210930   2.321   2.470   4.273
 2725SOL    HW310931   2.268   2.580   4.363
 2725SOL    MW410932   2.321   2.512   4.350
 2726SOL     OW10933   0.847   2.369   4.490
 2726SOL    HW210934   0.937   2.359   4.519
 2726SOL    HW310935   0.854   2.413   4.405
 2726SOL    MW410936   0.860   2.374   4.482
 2727SOL     OW10937   1.422   3.758   4.553
 2727SOL    HW210938   1.487   3.691   4.577
 2727SOL    HW310939   1.341   3.709   4.540
 2727SOL    MW410940   1.420   3.743   4.555
 2728SOL     OW10941   1.337   2.393   4.251
 2728SOL    HW210942   1.350   2.481   4.215
 2728SOL    HW310943   1.424   2.352   4.245
 2728SOL    MW410944   1.350   2.399   4.245
 2729SOL     OW10945   1.383   2.469   4.520
 2729SOL    HW210946   1.372   2.431   4.433
 2729SOL    HW310947   1.418   2.397   4.573
 2729SOL    MW410948   1.386   2.454   4.515
 2730SOL     OW10949   1.324   3.119   4.491
 2730SOL    HW210950   1.390   3.056   4.519
 2730SOL    HW310951   1.355   3.148   4.405
 2730SOL    MW410952   1.337   3.115   4.483
 2731SOL     OW10953   1.079   3.051   4.555
 2731SOL    HW210954   1.169   3.076   4.534
 2731SOL    HW310955   1.026   3.124   4.524
 2731SOL    MW410956   1.084   3.064   4.548
 2732SOL     OW10957   0.695   3.654   4.475
 2732SOL    HW210958   0.639   3.731   4.482
 2732SOL    HW310959   0.784   3.689   4.474
 2732SOL    MW410960   0.699   3.669   4.476
 2733SOL     OW10961   2.279   3.388   4.560
 2733SOL    HW210962   2.185   3.373   4.567
 2733SOL    HW310963   2.317   3.334   4.629
 2733SOL    MW410964   2.272   3.379   4.570
 2734SOL     OW10965   2.000   3.341   4.542
 2734SOL    HW210966   2.005   3.267   4.603
 2734SOL    HW310967   2.013   3.301   4.456
 2734SOL    MW410968   2.003   3.326   4.539
 2735SOL     OW10969   2.288   3.233   4.315
 2735SOL    HW210970   2.201   3.193   4.321
 2735SOL    HW310971   2.295   3.285   4.396
 2735SOL    MW410972   2.277   3.235   4.326
 2736SOL     OW10973   0.961   3.789   4.484
 2736SOL    HW210974   1.004   3.828   4.409
 2736SOL    HW310975   1.027   3.730   4.521
 2736SOL    MW410976   0.975   3.786   4.479
 2737SOL     OW10977   1.755   4.045   4.451
 2737SOL    HW210978   1.795   4.027   4.366
 2737SOL    HW310979   1.799   3.986   4.512
 2737SOL    MW410980   1.766   4.035   4.448
 2738SOL     OW10981   2.021   0.285   4.494
 2738SOL    HW210982   2.014   0.232   4.415
 2738SOL    HW310983   2.108   0.265   4.529
 2738SOL    MW410984   2.032   0.276   4.488
 2739SOL     OW10985   1.029   0.136   4.629
 2739SOL    HW210986   0.968   0.074   4.589
 2739SOL    HW310987   1.116   0.100   4.610
 2739SOL    MW410988   1.033   0.123   4.621
 2740SOL     OW10989   1.739   0.269   4.516
 2740SOL    HW210990   1.830   0.284   4.541
 2740SOL    HW310991   1.697   0.354   4.523
 2740SOL    MW410992   1.746   0.282   4.520
 2741SOL     OW10993   2.478   4.629   4.690
 2741SOL    HW210994   2.461   4.546   4.647
 2741SOL    HW310995   2.396   4.677   4.684
 2741SOL    MW410996   2.465   4.625   4.684
 2742SOL     OW10997   1.831   0.887   4.478
 2742SOL    HW210998   1.750   0.857   4.520
 2742SOL    HW310999   1.815   0.876   4.385
 2742SOL    MW411000   1.818   0.881   4.472
 2743SOL     OW11001   1.316   0.504   4.465
 2743SOL    HW211002   1.308   0.598   4.481
 2743SOL    HW311003   1.227   0.471   4.465
 2743SOL    MW411004   1.303   0.512   4.467
 2744SOL     OW11005   1.838   1.697   4.450
 2744SOL    HW211006   1.922   1.652   4.462
 2744SOL    HW311007   1.809   1.671   4.363
 2744SOL    MW411008   1.845   1.688   4.440
 2745SOL     OW11009   0.477   1.691   4.546
 2745SOL    HW211010   0.557   1.697   4.597
 2745SOL    HW311011   0.502   1.721   4.459
 2745SOL    MW411012   0.491   1.696   4.541
 2746SOL     OW11013   1.448   1.482   4.668
 2746SOL    HW211014   1.465   1.393   4.639
 2746SOL    HW311015   1.428   1.474   4.761
 2746SOL    MW411016   1.448   1.470   4.676
 2747SOL     OW11017   1.128   2.086   4.642
 2747SOL    HW211018   1.217   2.062   4.668
 2747SOL    HW311019   1.129   2.182   4.637
 2747SOL    MW411020   1.140   2.095   4.645
 2748SOL     OW11021   1.438   1.915   4.501
 2748SOL    HW211022   1.479   1.956   4.425
 2748SOL    HW311023   1.507   1.858   4.536
 2748SOL    MW411024   1.453   1.913   4.496
 2749SOL     OW11025   2.170   2.433   4.061
 2749SOL    HW211026   2.120   2.416   3.981
 2749SOL    HW311027   2.201   2.346   4.089
 2749SOL    MW411028   2.167   2.419   4.054
 2750SOL     OW11029   1.393   2.058   4.745
 2750SOL    HW211030   1.418   2.004   4.670
 2750SOL    HW311031   1.438   2.141   4.730
 2750SOL    MW411032   1.402   2.062   4.733
 2751SOL     OW11033   2.437   3.028   4.530
 2751SOL    HW211034   2.524   2.989   4.535
 2751SOL    HW311035   2.377   2.954   4.532
 2751SOL    MW411036   2.441   3.013   4.531
 2752SOL     OW11037   1.753   3.052   4.600
 2752SOL    HW211038   1.773   3.015   4.514
 2752SOL    HW311039   1.839   3.072   4.637
 2752SOL    MW411040   1.767   3.050   4.593
 2753SOL     OW11041   1.930   3.905   4.634
 2753SOL    HW211042   2.023   3.921   4.618
 2753SOL    HW311043   1.928   3.823   4.683
 2753SOL    MW411044   1.942   3.896   4.638
 2754SOL     OW11045   2.698   2.944   4.606
 2754SOL    HW211046   2.780   2.959   4.558
 2754SOL    HW311047   2.696   2.849   4.619
 2754SOL    MW411048   2.709   2.933   4.601
 2755SOL     OW11049   2.408   3.182   4.744
 2755SOL    HW211050   2.407   3.131   4.663
 2755SOL    HW311051   2.493   3.163   4.784
 2755SOL    MW411052   2.419   3.173   4.739
 2756SOL     OW11053   2.744   3.975   4.497
 2756SOL    HW211054   2.730   3.981   4.402
 2756SOL    HW311055   2.667   3.929   4.530
 2756SOL    MW411056   2.732   3.970   4.489
 2757SOL     OW11057   2.521   3.826   4.645
 2757SOL    HW211058   2.506   3.732   4.640
 2757SOL    HW311059   2.555   3.840   4.733
 2757SOL    MW411060   2.524   3.816   4.656
 2758SOL     OW11061   2.515   3.558   4.563
 2758SOL    HW211062   2.430   3.517   4.579
 2758SOL    HW311063   2.510   3.591   4.473
 2758SOL    MW411064   2.503   3.557   4.554
 2759SOL     OW11065   1.915   3.595   4.579
 2759SOL    HW211066   1.930   3.501   4.569
 2759SOL    HW311067   1.918   3.629   4.489
 2759SOL    MW411068   1.918   3.587   4.565
 2760SOL     OW11069   1.883   4.274   4.528
 2760SOL    HW211070   1.853   4.189   4.494
 2760SOL    HW311071   1.969   4.255   4.565
 2760SOL    MW411072   1.890   4.260   4.528
 2761SOL     OW11073   1.170   3.603   4.505
 2761SOL    HW211074   1.233   3.533   4.525
 2761SOL    HW311075   1.155   3.596   4.411
 2761SOL    MW411076   1.176   3.593   4.495
 2762SOL     OW11077   2.276   0.129   4.575
 2762SOL    HW211078   2.257   0.122   4.482
 2762SOL    HW311079   2.334   0.204   4.582
 2762SOL    MW411080   2.281   0.138   4.564
 2763SOL     OW11081   2.341   0.647   4.493
 2763SOL    HW211082   2.397   0.719   4.523
 2763SOL    HW311083   2.252   0.683   4.494
 2763SOL    MW411084   2.337   0.661   4.497
 2764SOL     OW11085   2.095   1.589   4.498
 2764SOL    HW211086   2.081   1.495   4.500
 2764SOL    HW311087   2.133   1.606   4.412
 2764SOL    MW411088   2.099   1.579   4.487
 2765SOL     OW11089   2.697   0.099   4.564
 2765SOL    HW211090   2.618   0.052   4.591
 2765SOL    HW311091   2.684   0.118   4.472
 2765SOL    MW411092   2.685   0.095   4.556
 2766SOL     OW11093   2.761   0.831   4.514
 2766SOL    HW211094   2.779   0.738   4.507
 2766SOL    HW311095   2.768   0.864   4.425
 2766SOL    MW411096   2.764   0.823   4.501
 2767SOL     OW11097   3.188   1.039   4.534
 2767SOL    HW211098   3.207   1.123   4.574
 2767SOL    HW311099   3.273   1.005   4.507
 2767SOL    MW411100   3.201   1.045   4.535
 2768SOL     OW11101   2.244   1.210   4.622
 2768SOL    HW211102   2.240   1.124   4.664
 2768SOL    HW311103   2.337   1.224   4.606
 2768SOL    MW411104   2.256   1.200   4.626
 2769SOL     OW11105   2.499   1.268   4.522
 2769SOL    HW211106   2.494   1.361   4.542
 2769SOL    HW311107   2.593   1.250   4.514
 2769SOL    MW411108   2.511   1.278   4.523
 2770SOL     OW11109   2.502   1.549   4.594
 2770SOL    HW211110   2.444   1.617   4.628
 2770SOL    HW311111   2.572   1.596   4.550
 2770SOL    MW411112   2.503   1.564   4.593
 2771SOL     OW11113   2.294   1.757   4.613
 2771SOL    HW211114   2.248   1.786   4.692
 2771SOL    HW311115   2.231   1.700   4.568
 2771SOL    MW411116   2.279   1.753   4.617
 2772SOL     OW11117   2.256   2.215   4.643
 2772SOL    HW211118   2.308   2.295   4.632
 2772SOL    HW311119   2.206   2.207   4.562
 2772SOL    MW411120   2.256   2.225   4.631
 2773SOL     OW11121   2.426   2.022   4.538
 2773SOL    HW211122   2.384   1.937   4.547
 2773SOL    HW311123   2.369   2.082   4.586
 2773SOL    MW411124   2.413   2.019   4.545
 2774SOL     OW11125   2.686   2.298   4.505
 2774SOL    HW211126   2.621   2.347   4.555
 2774SOL    HW311127   2.635   2.248   4.442
 2774SOL    MW411128   2.671   2.298   4.504
 2775SOL     OW11129   1.726   2.670   4.457
 2775SOL    HW211130   1.752   2.758   4.431
 2775SOL    HW311131   1.789   2.645   4.524
 2775SOL    MW411132   1.737   2.678   4.462
 2776SOL     OW11133   2.238   2.957   4.793
 2776SOL    HW211134   2.304   3.026   4.793
 2776SOL    HW311135   2.253   2.910   4.711
 2776SOL    MW411136   2.249   2.960   4.782
 2777SOL     OW11137   2.718   3.371   4.571
 2777SOL    HW211138   2.704   3.329   4.656
 2777SOL    HW311139   2.641   3.426   4.558
 2777SOL    MW411140   2.706   3.373   4.580
 2778SOL     OW11141   2.699   3.188   4.795
 2778SOL    HW211142   2.769   3.173   4.858
 2778SOL    HW311143   2.703   3.112   4.736
 2778SOL    MW411144   2.709   3.176   4.795
 2779SOL     OW11145   1.483   3.997   4.458
 2779SOL    HW211146   1.454   3.913   4.493
 2779SOL    HW311147   1.578   3.997   4.469
 2779SOL    MW411148   1.492   3.986   4.464
 2780SOL     OW11149   2.702   4.253   4.552
 2780SOL    HW211150   2.609   4.273   4.561
 2780SOL    HW311151   2.706   4.158   4.546
 2780SOL    MW411152   2.691   4.243   4.553
 2781SOL     OW11153   2.036   3.089   4.653
 2781SOL    HW211154   2.049   3.029   4.579
 2781SOL    HW311155   2.108   3.067   4.713
 2781SOL    MW411156   2.047   3.078   4.651
 2782SOL     OW11157   3.424   3.844   4.586
 2782SOL    HW211158   3.339   3.888   4.581
 2782SOL    HW311159   3.407   3.755   4.555
 2782SOL    MW411160   3.410   3.838   4.582
 2783SOL     OW11161   3.167   3.971   4.523
 2783SOL    HW211162   3.096   3.908   4.536
 2783SOL    HW311163   3.141   4.047   4.576
 2783SOL    MW411164   3.154   3.973   4.532
 2784SOL     OW11165   2.245   4.159   4.641
 2784SOL    HW211166   2.260   4.165   4.735
 2784SOL    HW311167   2.244   4.065   4.622
 2784SOL    MW411168   2.247   4.147   4.651
 2785SOL     OW11169   2.432   4.360   4.562
 2785SOL    HW211170   2.359   4.310   4.598
 2785SOL    HW311171   2.408   4.374   4.470
 2785SOL    MW411172   2.419   4.355   4.554
 2786SOL     OW11173   2.785   0.542   4.419
 2786SOL    HW211174   2.763   0.480   4.349
 2786SOL    HW311175   2.745   0.503   4.497
 2786SOL    MW411176   2.777   0.528   4.420
 2787SOL     OW11177   2.693   0.378   4.627
 2787SOL    HW211178   2.700   0.284   4.609
 2787SOL    HW311179   2.730   0.388   4.714
 2787SOL    MW411180   2.699   0.367   4.636
 2788SOL     OW11181   2.764   0.045   4.902
 2788SOL    HW211182   2.808   0.001   4.829
 2788SOL    HW311183   2.674   0.014   4.897
 2788SOL    MW411184   2.758   0.035   4.891
 2789SOL     OW11185   2.929   1.062   4.631
 2789SOL    HW211186   3.010   1.038   4.586
 2789SOL    HW311187   2.872   0.986   4.618
 2789SOL    MW411188   2.932   1.049   4.623
 2790SOL     OW11189   3.617   0.275   4.877
 2790SOL    HW211190   3.527   0.283   4.907
 2790SOL    HW311191   3.647   0.365   4.864
 2790SOL    MW411192   3.609   0.288   4.879
 2791SOL     OW11193   2.111   0.849   4.477
 2791SOL    HW211194   2.142   0.923   4.529
 2791SOL    HW311195   2.016   0.858   4.476
 2791SOL    MW411196   2.103   0.860   4.484
 2792SOL     OW11197   2.485   0.925   4.578
 2792SOL    HW211198   2.485   1.012   4.539
 2792SOL    HW311199   2.574   0.892   4.565
 2792SOL    MW411200   2.497   0.932   4.571
 2793SOL     OW11201   3.050   1.409   4.497
 2793SOL    HW211202   2.958   1.384   4.506
 2793SOL    HW311203   3.079   1.364   4.418
 2793SOL    MW411204   3.041   1.400   4.488
 2794SOL     OW11205   3.010   1.699   4.476
 2794SOL    HW211206   2.918   1.724   4.470
 2794SOL    HW311207   3.008   1.604   4.490
 2794SOL    MW411208   2.998   1.689   4.477
 2795SOL     OW11209   2.721   1.671   4.471
 2795SOL    HW211210   2.703   1.761   4.498
 2795SOL    HW311211   2.704   1.670   4.377
 2795SOL    MW411212   2.717   1.683   4.462
 2796SOL     OW11213   2.696   1.932   4.522
 2796SOL    HW211214   2.763   1.999   4.506
 2796SOL    HW311215   2.625   1.980   4.565
 2796SOL    MW411216   2.696   1.948   4.526
 2797SOL     OW11217   2.895   2.119   4.502
 2797SOL    HW211218   2.832   2.190   4.515
 2797SOL    HW311219   2.921   2.126   4.410
 2797SOL    MW411220   2.890   2.130   4.492
 2798SOL     OW11221   3.120   2.231   4.635
 2798SOL    HW211222   3.088   2.238   4.724
 2798SOL    HW311223   3.059   2.171   4.592
 2798SOL    MW411224   3.108   2.224   4.641
 2799SOL     OW11225   2.366   2.675   4.755
 2799SOL    HW211226   2.366   2.747   4.818
 2799SOL    HW311227   2.324   2.711   4.677
 2799SOL    MW411228   2.360   2.689   4.753
 2800SOL     OW11229   3.411   3.214   4.634
 2800SOL    HW211230   3.468   3.291   4.635
 2800SOL    HW311231   3.468   3.143   4.603
 2800SOL    MW411232   3.426   3.215   4.630
 2801SOL     OW11233   2.670   2.651   4.619
 2801SOL    HW211234   2.598   2.651   4.683
 2801SOL    HW311235   2.627   2.664   4.535
 2801SOL    MW411236   2.655   2.653   4.616
 2802SOL     OW11237   2.950   3.529   4.525
 2802SOL    HW211238   3.028   3.474   4.536
 2802SOL    HW311239   2.876   3.469   4.534
 2802SOL    MW411240   2.951   3.514   4.527
 2803SOL     OW11241   2.956   2.948   4.512
 2803SOL    HW211242   3.030   2.973   4.567
 2803SOL    HW311243   2.961   2.853   4.506
 2803SOL    MW411244   2.967   2.939   4.518
 2804SOL     OW11245   3.067   0.150   4.573
 2804SOL    HW211246   3.016   0.078   4.610
 2804SOL    HW311247   3.054   0.223   4.635
 2804SOL    MW411248   3.059   0.150   4.586
 2805SOL     OW11249   4.118   3.935   4.832
 2805SOL    HW211250   4.135   4.025   4.862
 2805SOL    HW311251   4.193   3.915   4.776
 2805SOL    MW411252   4.130   3.944   4.829
 2806SOL     OW11253   3.836   3.588   4.545
 2806SOL    HW211254   3.924   3.562   4.572
 2806SOL    HW311255   3.840   3.591   4.450
 2806SOL    MW411256   3.848   3.585   4.536
 2807SOL     OW11257   2.961   3.809   4.586
 2807SOL    HW211258   2.949   3.715   4.570
 2807SOL    HW311259   2.878   3.849   4.560
 2807SOL    MW411260   2.949   3.802   4.580
 2808SOL     OW11261   2.942   4.376   4.495
 2808SOL    HW211262   2.860   4.332   4.517
 2808SOL    HW311263   3.010   4.313   4.519
 2808SOL    MW411264   2.940   4.362   4.501
 2809SOL     OW11265   3.053   0.539   4.490
 2809SOL    HW211266   3.071   0.495   4.573
 2809SOL    HW311267   2.958   0.531   4.479
 2809SOL    MW411268   3.043   0.532   4.500
 2810SOL     OW11269   3.401   0.625   4.741
 2810SOL    HW211270   3.479   0.677   4.719
 2810SOL    HW311271   3.329   0.671   4.698
 2810SOL    MW411272   3.402   0.638   4.732
 2811SOL     OW11273   2.393   0.401   4.606
 2811SOL    HW211274   2.484   0.410   4.635
 2811SOL    HW311275   2.373   0.484   4.563
 2811SOL    MW411276   2.402   0.413   4.604
 2812SOL     OW11277   2.243   0.964   4.731
 2812SOL    HW211278   2.332   0.947   4.701
 2812SOL    HW311279   2.215   0.883   4.772
 2812SOL    MW411280   2.251   0.951   4.732
 2813SOL     OW11281   2.902   4.602   4.647
 2813SOL    HW211282   2.926   4.521   4.602
 2813SOL    HW311283   2.826   4.634   4.598
 2813SOL    MW411284   2.895   4.595   4.635
 2814SOL     OW11285   3.053   0.380   4.740
 2814SOL    HW211286   3.139   0.379   4.782
 2814SOL    HW311287   2.991   0.362   4.811
 2814SOL    MW411288   3.056   0.377   4.755
 2815SOL     OW11289   3.249   1.300   4.673
 2815SOL    HW211290   3.182   1.352   4.629
 2815SOL    HW311291   3.222   1.299   4.765
 2815SOL    MW411292   3.237   1.307   4.680
 2816SOL     OW11293   2.785   1.238   4.476
 2816SOL    HW211294   2.819   1.176   4.539
 2816SOL    HW311295   2.842   1.230   4.400
 2816SOL    MW411296   2.797   1.229   4.474
 2817SOL     OW11297   4.063   0.963   4.526
 2817SOL    HW211298   4.031   0.925   4.444
 2817SOL    HW311299   4.091   0.888   4.579
 2817SOL    MW411300   4.063   0.948   4.522
 2818SOL     OW11301   3.519   1.373   4.551
 2818SOL    HW211302   3.529   1.467   4.533
 2818SOL    HW311303   3.441   1.368   4.606
 2818SOL    MW411304   3.510   1.385   4.556
 2819SOL     OW11305   3.265   1.816   4.494
 2819SOL    HW211306   3.277   1.910   4.503
 2819SOL    HW311307   3.175   1.800   4.523
 2819SOL    MW411308   3.255   1.826   4.499
 2820SOL     OW11309   3.345   2.079   4.519
 2820SOL    HW211310   3.291   2.143   4.565
 2820SOL    HW311311   3.326   2.095   4.426
 2820SOL    MW411312   3.335   2.089   4.513
 2821SOL     OW11313   3.501   1.676   4.481
 2821SOL    HW211314   3.416   1.719   4.479
 2821SOL    HW311315   3.532   1.680   4.391
 2821SOL    MW411316   3.494   1.683   4.469
 2822SOL     OW11317   2.910   2.662   4.482
 2822SOL    HW211318   2.844   2.658   4.551
 2822SOL    HW311319   2.975   2.597   4.507
 2822SOL    MW411320   2.910   2.653   4.494
 2823SOL     OW11321   3.387   2.560   4.560
 2823SOL    HW211322   3.301   2.520   4.543
 2823SOL    HW311323   3.368   2.653   4.572
 2823SOL    MW411324   3.373   2.567   4.559
 2824SOL     OW11325   3.126   2.479   4.531
 2824SOL    HW211326   3.128   2.467   4.436
 2824SOL    HW311327   3.135   2.391   4.568
 2824SOL    MW411328   3.127   2.466   4.524
 2825SOL     OW11329   3.887   3.093   4.624
 2825SOL    HW211330   3.971   3.131   4.597
 2825SOL    HW311331   3.906   2.999   4.634
 2825SOL    MW411332   3.901   3.086   4.622
 2826SOL     OW11333   3.187   3.020   4.662
 2826SOL    HW211334   3.245   3.092   4.689
 2826SOL    HW311335   3.246   2.957   4.620
 2826SOL    MW411336   3.203   3.021   4.660
 2827SOL     OW11337   3.617   3.047   4.527
 2827SOL    HW211338   3.628   3.100   4.448
 2827SOL    HW311339   3.696   3.065   4.578
 2827SOL    MW411340   3.629   3.056   4.523
 2828SOL     OW11341   3.953   2.813   4.585
 2828SOL    HW211342   4.045   2.807   4.560
 2828SOL    HW311343   3.934   2.729   4.627
 2828SOL    MW411344   3.962   2.801   4.588
 2829SOL     OW11345   3.611   3.428   4.519
 2829SOL    HW211346   3.696   3.466   4.541
 2829SOL    HW311347   3.630   3.367   4.448
 2829SOL    MW411348   3.625   3.425   4.512
 2830SOL     OW11349   3.596   4.265   4.635
 2830SOL    HW211350   3.679   4.314   4.638
 2830SOL    HW311351   3.622   4.175   4.618
 2830SOL    MW411352   3.610   4.260   4.633
 2831SOL     OW11353   3.171   4.260   4.632
 2831SOL    HW211354   3.169   4.282   4.725
 2831SOL    HW311355   3.247   4.306   4.598
 2831SOL    MW411356   3.181   4.269   4.639
 2832SOL     OW11357   3.339   0.218   4.592
 2832SOL    HW211358   3.247   0.194   4.594
 2832SOL    HW311359   3.349   0.268   4.510
 2832SOL    MW411360   3.328   0.222   4.581
 2833SOL     OW11361   3.388   4.408   4.542
 2833SOL    HW211362   3.464   4.356   4.567
 2833SOL    HW311363   3.419   4.499   4.546
 2833SOL    MW411364   3.402   4.413   4.546
 2834SOL     OW11365   3.659   4.012   4.558
 2834SOL    HW211366   3.735   3.965   4.591
 2834SOL    HW311367   3.587   3.951   4.568
 2834SOL    MW411368   3.660   3.998   4.564
 2835SOL     OW11369   3.711   0.079   4.717
 2835SOL    HW211370   3.663   0.143   4.769
 2835SOL    HW311371   3.644   0.033   4.667
 2835SOL    MW411372   3.696   0.082   4.717
 2836SOL     OW11373   3.441   0.950   4.470
 2836SOL    HW211374   3.489   0.886   4.522
 2836SOL    HW311375   3.508   1.013   4.442
 2836SOL    MW411376   3.456   0.950   4.473
 2837SOL     OW11377   2.813   0.335   4.899
 2837SOL    HW211378   2.810   0.378   4.985
 2837SOL    HW311379   2.789   0.244   4.917
 2837SOL    MW411380   2.810   0.329   4.913
 2838SOL     OW11381   4.229   1.587   4.698
 2838SOL    HW211382   4.163   1.532   4.655
 2838SOL    HW311383   4.291   1.524   4.736
 2838SOL    MW411384   4.228   1.571   4.697
 2839SOL     OW11385   3.797   0.965   4.645
 2839SOL    HW211386   3.745   1.030   4.598
 2839SOL    HW311387   3.885   0.973   4.607
 2839SOL    MW411388   3.802   0.975   4.634
 2840SOL     OW11389   4.412   0.880   4.541
 2840SOL    HW211390   4.431   0.904   4.450
 2840SOL    HW311391   4.471   0.807   4.559
 2840SOL    MW411392   4.422   0.874   4.531
 2841SOL     OW11393   4.292   0.507   4.591
 2841SOL    HW211394   4.286   0.517   4.496
 2841SOL    HW311395   4.228   0.439   4.612
 2841SOL    MW411396   4.283   0.499   4.581
 2842SOL     OW11397   3.557   1.673   4.223
 2842SOL    HW211398   3.617   1.612   4.180
 2842SOL    HW311399   3.470   1.639   4.205
 2842SOL    MW411400   3.554   1.661   4.215
 2843SOL     OW11401   3.916   1.602   4.315
 2843SOL    HW211402   4.000   1.647   4.312
 2843SOL    HW311403   3.870   1.643   4.389
 2843SOL    MW411404   3.921   1.613   4.325
 2844SOL     OW11405   3.607   2.190   4.552
 2844SOL    HW211406   3.526   2.140   4.564
 2844SOL    HW311407   3.675   2.123   4.546
 2844SOL    MW411408   3.605   2.174   4.553
 2845SOL     OW11409   3.769   1.734   4.566
 2845SOL    HW211410   3.679   1.712   4.540
 2845SOL    HW311411   3.770   1.723   4.661
 2845SOL    MW411412   3.757   1.729   4.575
 2846SOL     OW11413   0.254   1.486   4.844
 2846SOL    HW211414   0.266   1.463   4.936
 2846SOL    HW311415   0.165   1.458   4.823
 2846SOL    MW411416   0.244   1.479   4.853
 2847SOL     OW11417   3.816   2.008   4.515
 2847SOL    HW211418   3.912   2.008   4.522
 2847SOL    HW311419   3.792   1.916   4.519
 2847SOL    MW411420   3.826   1.996   4.517
 2848SOL     OW11421   3.857   2.552   4.666
 2848SOL    HW211422   3.821   2.596   4.743
 2848SOL    HW311423   3.779   2.520   4.619
 2848SOL    MW411424   3.842   2.554   4.670
 2849SOL     OW11425   4.106   2.504   4.494
 2849SOL    HW211426   4.055   2.514   4.574
 2849SOL    HW311427   4.162   2.582   4.492
 2849SOL    MW411428   4.107   2.516   4.504
 2850SOL     OW11429   4.427   3.181   4.520
 2850SOL    HW211430   4.443   3.195   4.427
 2850SOL    HW311431   4.465   3.094   4.538
 2850SOL    MW411432   4.434   3.171   4.510
 2851SOL     OW11433   3.197   3.361   4.508
 2851SOL    HW211434   3.245   3.306   4.571
 2851SOL    HW311435   3.193   3.308   4.428
 2851SOL    MW411436   3.203   3.347   4.506
 2852SOL     OW11437   4.115   3.226   4.540
 2852SOL    HW211438   4.208   3.202   4.547
 2852SOL    HW311439   4.103   3.248   4.448
 2852SOL    MW411440   4.126   3.226   4.529
 2853SOL     OW11441   3.383   3.572   4.515
 2853SOL    HW211442   3.319   3.501   4.521
 2853SOL    HW311443   3.468   3.528   4.516
 2853SOL    MW411444   3.386   3.557   4.516
 2854SOL     OW11445   4.290   3.638   4.487
 2854SOL    HW211446   4.289   3.634   4.392
 2854SOL    HW311447   4.220   3.579   4.515
 2854SOL    MW411448   4.281   3.630   4.478
 2855SOL     OW11449   0.039   2.833   4.531
 2855SOL    HW211450   0.076   2.820   4.444
 2855SOL    HW311451   0.105   2.883   4.578
 2855SOL    MW411452   0.052   2.838   4.526
 2856SOL     OW11453   4.082   3.949   4.467
 2856SOL    HW211454   4.072   4.041   4.493
 2856SOL    HW311455   4.014   3.903   4.516
 2856SOL    MW411456   4.072   3.955   4.477
 2857SOL     OW11457   3.841   4.392   4.564
 2857SOL    HW211458   3.826   4.382   4.470
 2857SOL    HW311459   3.888   4.475   4.573
 2857SOL    MW411460   3.845   4.401   4.553
 2858SOL     OW11461   3.511   4.660   4.550
 2858SOL    HW211462   3.536   4.689   4.462
 2858SOL    HW311463   3.446   4.725   4.578
 2858SOL    MW411464   3.506   4.673   4.542
 2859SOL     OW11465   3.616   0.763   4.595
 2859SOL    HW211466   3.688   0.823   4.614
 2859SOL    HW311467   3.644   0.718   4.515
 2859SOL    MW411468   3.630   0.765   4.587
 2860SOL     OW11469   3.755   0.512   4.757
 2860SOL    HW211470   3.829   0.566   4.783
 2860SOL    HW311471   3.710   0.563   4.689
 2860SOL    MW411472   3.759   0.526   4.751
 2861SOL     OW11473   0.022   0.322   4.626
 2861SOL    HW211474   0.106   0.364   4.606
 2861SOL    HW311475  -0.043   0.393   4.617
 2861SOL    MW411476   0.024   0.337   4.622
 2862SOL     OW11477   0.259   0.468   4.527
 2862SOL    HW211478   0.354   0.473   4.540
 2862SOL    HW311479   0.248   0.475   4.432
 2862SOL    MW411480   0.270   0.470   4.516
 2863SOL     OW11481   4.078   0.304   4.623
 2863SOL    HW211482   3.989   0.339   4.628
 2863SOL    HW311483   4.082   0.260   4.538
 2863SOL    MW411484   4.066   0.303   4.613
 2864SOL     OW11485   3.695   1.159   4.466
 2864SOL    HW211486   3.637   1.217   4.514
 2864SOL    HW311487   3.778   1.206   4.460
 2864SOL    MW411488   3.698   1.173   4.472
 2865SOL     OW11489   4.438   1.168   4.593
 2865SOL    HW211490   4.534   1.173   4.587
 2865SOL    HW311491   4.419   1.077   4.613
 2865SOL    MW411492   4.448   1.157   4.595
 2866SOL     OW11493   4.476   1.454   4.760
 2866SOL    HW211494   4.441   1.369   4.732
 2866SOL    HW311495   4.489   1.503   4.680
 2866SOL    MW411496   4.473   1.449   4.746
 2867SOL     OW11497   3.938   1.298   4.391
 2867SOL    HW211498   4.023   1.268   4.424
 2867SOL    HW311499   3.948   1.392   4.382
 2867SOL    MW411500   3.951   1.306   4.394
 2868SOL     OW11501   3.388   2.868   4.506
 2868SOL    HW211502   3.365   2.872   4.413
 2868SOL    HW311503   3.460   2.931   4.516
 2868SOL    MW411504   3.395   2.877   4.495
 2869SOL     OW11505   4.219   2.072   4.251
 2869SOL    HW211506   4.169   2.017   4.192
 2869SOL    HW311507   4.172   2.068   4.334
 2869SOL    MW411508   4.206   2.064   4.254
 2870SOL     OW11509   0.134   2.123   4.466
 2870SOL    HW211510   0.223   2.155   4.486
 2870SOL    HW311511   0.080   2.202   4.464
 2870SOL    MW411512   0.139   2.138   4.469
 2871SOL     OW11513   4.101   2.040   4.510
 2871SOL    HW211514   4.155   1.969   4.545
 2871SOL    HW311515   4.147   2.120   4.536
 2871SOL    MW411516   4.114   2.041   4.518
 2872SOL     OW11517   3.639   2.468   4.526
 2872SOL    HW211518   3.550   2.501   4.537
 2872SOL    HW311519   3.632   2.374   4.544
 2872SOL    MW411520   3.627   2.460   4.530
 2873SOL     OW11521   0.413   2.483   4.633
 2873SOL    HW211522   0.439   2.438   4.714
 2873SOL    HW311523   0.407   2.414   4.568
 2873SOL    MW411524   0.416   2.468   4.635
 2874SOL     OW11525   4.237   2.758   4.519
 2874SOL    HW211526   4.330   2.776   4.531
 2874SOL    HW311527   4.219   2.788   4.429
 2874SOL    MW411528   4.247   2.765   4.509
 2875SOL     OW11529   0.267   2.928   4.649
 2875SOL    HW211530   0.311   2.901   4.730
 2875SOL    HW311531   0.315   3.006   4.620
 2875SOL    MW411532   0.279   2.935   4.656
 2876SOL     OW11533   0.186   3.586   4.554
 2876SOL    HW211534   0.182   3.578   4.458
 2876SOL    HW311535   0.112   3.535   4.586
 2876SOL    MW411536   0.176   3.579   4.545
 2877SOL     OW11537   4.299   0.177   4.773
 2877SOL    HW211538   4.369   0.239   4.754
 2877SOL    HW311539   4.220   0.232   4.780
 2877SOL    MW411540   4.298   0.193   4.772
 2878SOL     OW11541   3.953   4.656   4.568
 2878SOL    HW211542   3.955   4.732   4.510
 2878SOL    HW311543   3.887   4.677   4.633
 2878SOL    MW411544   3.945   4.669   4.569
 2879SOL     OW11545   4.437   4.213   4.910
 2879SOL    HW211546   4.485   4.213   4.828
 2879SOL    HW311547   4.504   4.228   4.977
 2879SOL    MW411548   4.452   4.215   4.908
 2880SOL     OW11549   3.334   0.371   4.838
 2880SOL    HW211550   3.350   0.330   4.753
 2880SOL    HW311551   3.364   0.461   4.828
 2880SOL    MW411552   3.340   0.377   4.826
 2881SOL     OW11553   4.263   4.381   4.263
 2881SOL    HW211554   4.337   4.338   4.219
 2881SOL    HW311555   4.288   4.382   4.355
 2881SOL    MW411556   4.276   4.375   4.269
 2882NA      NA11557   2.743   4.185   0.681
 2883NA      NA11558   0.625   2.278   0.374
   4.49070   4.66690  10.00000
