Gromacs Runs On Most of All Computer Systems in water t= 960.00000 step= 960000
11558
    1RG35     P    1   2.205   2.847   4.443
    1RG35   O1P    2   2.145   2.803   4.321
    1RG35   O2P    3   2.187   2.990   4.472
    1RG35   O5'    4   2.119   2.782   4.557
    1RG35   C5'    5   1.984   2.819   4.571
    1RG35  H5'1    6   1.947   2.841   4.471
    1RG35  H5'2    7   1.987   2.903   4.641
    1RG35   C4'    8   1.900   2.708   4.627
    1RG35   H4'    9   1.796   2.740   4.620
    1RG35   O4'   10   1.907   2.593   4.546
    1RG35   C1'   11   1.921   2.481   4.634
    1RG35   H1'   12   1.819   2.445   4.648
    1RG35    N9   13   1.990   2.383   4.550
    1RG35    C8   14   2.088   2.404   4.459
    1RG35    H8   15   2.131   2.502   4.446
    1RG35    N7   16   2.114   2.301   4.385
    1RG35    C5   17   2.017   2.207   4.427
    1RG35    C6   18   1.986   2.076   4.377
    1RG35    O6   19   2.028   2.025   4.276
    1RG35    N1   20   1.891   2.015   4.450
    1RG35    H1   21   1.862   1.923   4.419
    1RG35    C2   22   1.831   2.071   4.561
    1RG35    N2   23   1.735   2.007   4.618
    1RG35   H21   24   1.709   1.920   4.574
    1RG35   H22   25   1.688   2.042   4.701
    1RG35    N3   26   1.854   2.189   4.610
    1RG35    C4   27   1.948   2.254   4.540
    1RG35   C3'   28   1.927   2.675   4.773
    1RG35   H3'   29   2.014   2.727   4.811
    1RG35   C2'   30   1.983   2.532   4.761
    1RG35  H2'1   31   2.092   2.533   4.750
    1RG35   O2'   32   1.937   2.455   4.869
    1RG35  HO'2   33   1.982   2.370   4.877
    1RG35   O3'   34   1.808   2.674   4.855
    1RG35   H3T   35   1.827   2.596   4.908
    1RG35   O3P   36   2.336   2.798   4.469
    2SOL     OW   37   0.383   0.057   0.449
    2SOL    HW2   38   0.363  -0.027   0.408
    2SOL    HW3   39   0.474   0.074   0.423
    2SOL    MW4   40   0.393   0.048   0.440
    3SOL     OW   41   3.083   0.845   0.243
    3SOL    HW2   42   3.055   0.756   0.264
    3SOL    HW3   43   3.070   0.853   0.149
    3SOL    MW4   44   3.077   0.835   0.234
    4SOL     OW   45   3.733   0.181   0.294
    4SOL    HW2   46   3.707   0.220   0.210
    4SOL    HW3   47   3.726   0.252   0.357
    4SOL    MW4   48   3.729   0.196   0.291
    5SOL     OW   49   0.701   1.679   0.326
    5SOL    HW2   50   0.695   1.588   0.298
    5SOL    HW3   51   0.610   1.708   0.333
    5SOL    MW4   52   0.688   1.671   0.323
    6SOL     OW   53   1.447   0.790   0.382
    6SOL    HW2   54   1.395   0.833   0.451
    6SOL    HW3   55   1.456   0.857   0.314
    6SOL    MW4   56   1.441   0.805   0.383
    7SOL     OW   57   0.185   0.468   0.443
    7SOL    HW2   58   0.200   0.468   0.537
    7SOL    HW3   59   0.168   0.377   0.421
    7SOL    MW4   60   0.185   0.456   0.453
    8SOL     OW   61   0.545   0.815   0.506
    8SOL    HW2   62   0.502   0.840   0.588
    8SOL    HW3   63   0.498   0.736   0.478
    8SOL    MW4   64   0.534   0.808   0.513
    9SOL     OW   65   0.807   0.746   0.490
    9SOL    HW2   66   0.851   0.799   0.557
    9SOL    HW3   67   0.714   0.755   0.510
    9SOL    MW4   68   0.801   0.754   0.501
   10SOL     OW   69   0.445   1.047   0.397
   10SOL    HW2   70   0.414   1.026   0.308
   10SOL    HW3   71   0.477   0.964   0.431
   10SOL    MW4   72   0.445   1.034   0.390
   11SOL     OW   73   4.236   1.513   0.358
   11SOL    HW2   74   4.205   1.526   0.269
   11SOL    HW3   75   4.173   1.561   0.412
   11SOL    MW4   76   4.224   1.521   0.354
   12SOL     OW   77   4.115   2.399   0.578
   12SOL    HW2   78   4.028   2.357   0.573
   12SOL    HW3   79   4.096   2.493   0.574
   12SOL    MW4   80   4.101   2.406   0.577
   13SOL     OW   81   4.475   1.665   0.396
   13SOL    HW2   82   4.478   1.659   0.491
   13SOL    HW3   83   4.400   1.611   0.371
   13SOL    MW4   84   4.466   1.657   0.405
   14SOL     OW   85   0.664   2.297   0.191
   14SOL    HW2   86   0.754   2.327   0.204
   14SOL    HW3   87   0.616   2.377   0.171
   14SOL    MW4   88   0.670   2.312   0.190
   15SOL     OW   89   0.185   2.755   0.494
   15SOL    HW2   90   0.184   2.846   0.463
   15SOL    HW3   91   0.269   2.721   0.464
   15SOL    MW4   92   0.196   2.763   0.486
   16SOL     OW   93   4.148   3.354   0.305
   16SOL    HW2   94   4.117   3.306   0.228
   16SOL    HW3   95   4.184   3.287   0.363
   16SOL    MW4   96   4.148   3.339   0.302
   17SOL     OW   97   0.210   3.014   0.404
   17SOL    HW2   98   0.296   3.055   0.393
   17SOL    HW3   99   0.153   3.086   0.429
   17SOL    MW4  100   0.214   3.029   0.406
   18SOL     OW  101   0.669   3.312   0.332
   18SOL    HW2  102   0.691   3.300   0.424
   18SOL    HW3  103   0.634   3.401   0.326
   18SOL    MW4  104   0.667   3.322   0.343
   19SOL     OW  105   0.677   3.822   0.322
   19SOL    HW2  106   0.617   3.893   0.344
   19SOL    HW3  107   0.764   3.862   0.324
   19SOL    MW4  108   0.680   3.836   0.325
   20SOL     OW  109   4.185   3.798   0.360
   20SOL    HW2  110   4.230   3.882   0.370
   20SOL    HW3  111   4.254   3.732   0.370
   20SOL    MW4  112   4.200   3.800   0.363
   21SOL     OW  113   0.229   3.707   0.153
   21SOL    HW2  114   0.208   3.765   0.226
   21SOL    HW3  115   0.246   3.766   0.079
   21SOL    MW4  116   0.228   3.722   0.153
   22SOL     OW  117   4.403   4.532   0.472
   22SOL    HW2  118   4.346   4.539   0.396
   22SOL    HW3  119   4.349   4.487   0.538
   22SOL    MW4  120   4.388   4.527   0.471
   23SOL     OW  121   4.077   4.285   0.326
   23SOL    HW2  122   4.045   4.346   0.392
   23SOL    HW3  123   3.998   4.255   0.281
   23SOL    MW4  124   4.063   4.289   0.329
   24SOL     OW  125   4.195   0.251   0.416
   24SOL    HW2  126   4.269   0.216   0.366
   24SOL    HW3  127   4.219   0.237   0.507
   24SOL    MW4  128   4.208   0.245   0.421
   25SOL     OW  129   0.462   3.138   0.449
   25SOL    HW2  130   0.468   3.165   0.540
   25SOL    HW3  131   0.512   3.204   0.401
   25SOL    MW4  132   0.469   3.150   0.454
   26SOL     OW  133   0.319   4.480   0.282
   26SOL    HW2  134   0.271   4.430   0.348
   26SOL    HW3  135   0.271   4.464   0.201
   26SOL    MW4  136   0.306   4.471   0.280
   27SOL     OW  137   0.143   0.200   0.422
   27SOL    HW2  138   0.091   0.166   0.495
   27SOL    HW3  139   0.230   0.161   0.435
   27SOL    MW4  140   0.148   0.190   0.434
   28SOL     OW  141   0.017   1.120   0.383
   28SOL    HW2  142  -0.067   1.166   0.386
   28SOL    HW3  143   0.001   1.039   0.432
   28SOL    MW4  144   0.004   1.115   0.390
   29SOL     OW  145   0.990   4.349   0.416
   29SOL    HW2  146   1.015   4.268   0.371
   29SOL    HW3  147   1.021   4.338   0.505
   29SOL    MW4  148   0.997   4.337   0.422
   30SOL     OW  149   1.165   1.041   0.392
   30SOL    HW2  150   1.180   0.993   0.474
   30SOL    HW3  151   1.178   1.133   0.416
   30SOL    MW4  152   1.169   1.047   0.406
   31SOL     OW  153   0.660   0.390   0.512
   31SOL    HW2  154   0.737   0.424   0.467
   31SOL    HW3  155   0.670   0.295   0.510
   31SOL    MW4  156   0.671   0.382   0.506
   32SOL     OW  157   0.264   1.253   0.428
   32SOL    HW2  158   0.329   1.183   0.428
   32SOL    HW3  159   0.181   1.207   0.413
   32SOL    MW4  160   0.261   1.238   0.426
   33SOL     OW  161   0.285   2.037   0.376
   33SOL    HW2  162   0.232   2.102   0.421
   33SOL    HW3  163   0.223   1.989   0.321
   33SOL    MW4  164   0.270   2.039   0.375
   34SOL     OW  165   0.792   2.001   0.339
   34SOL    HW2  166   0.823   2.083   0.301
   34SOL    HW3  167   0.726   2.027   0.403
   34SOL    MW4  168   0.788   2.015   0.342
   35SOL     OW  169   0.584   2.601   0.182
   35SOL    HW2  170   0.657   2.656   0.210
   35SOL    HW3  171   0.560   2.633   0.095
   35SOL    MW4  172   0.590   2.612   0.175
   36SOL     OW  173   0.890   3.207   0.219
   36SOL    HW2  174   0.886   3.147   0.145
   36SOL    HW3  175   0.799   3.231   0.236
   36SOL    MW4  176   0.878   3.202   0.212
   37SOL     OW  177   3.881   2.632   0.232
   37SOL    HW2  178   3.857   2.683   0.309
   37SOL    HW3  179   3.953   2.680   0.192
   37SOL    MW4  180   3.887   2.645   0.237
   38SOL     OW  181   1.179   2.192   0.446
   38SOL    HW2  182   1.151   2.188   0.537
   38SOL    HW3  183   1.247   2.259   0.445
   38SOL    MW4  184   1.185   2.200   0.458
   39SOL     OW  185   0.387   2.402   0.510
   39SOL    HW2  186   0.401   2.493   0.486
   39SOL    HW3  187   0.461   2.355   0.472
   39SOL    MW4  188   0.398   2.408   0.502
   40SOL     OW  189   4.298   3.125   0.450
   40SOL    HW2  190   4.298   3.030   0.436
   40SOL    HW3  191   4.236   3.138   0.522
   40SOL    MW4  192   4.290   3.114   0.458
   41SOL     OW  193   0.429   2.656   0.418
   41SOL    HW2  194   0.457   2.646   0.327
   41SOL    HW3  195   0.481   2.730   0.450
   41SOL    MW4  196   0.440   2.665   0.410
   42SOL     OW  197   0.846   0.233   0.238
   42SOL    HW2  198   0.867   0.325   0.258
   42SOL    HW3  199   0.799   0.237   0.155
   42SOL    MW4  200   0.843   0.246   0.230
   43SOL     OW  201   0.257   3.625   0.464
   43SOL    HW2  202   0.228   3.714   0.445
   43SOL    HW3  203   0.352   3.627   0.447
   43SOL    MW4  204   0.266   3.637   0.460
   44SOL     OW  205   0.521   3.564   0.322
   44SOL    HW2  206   0.459   3.589   0.253
   44SOL    HW3  207   0.586   3.634   0.323
   44SOL    MW4  208   0.521   3.577   0.313
   45SOL     OW  209   1.144   3.732   0.370
   45SOL    HW2  210   1.050   3.749   0.379
   45SOL    HW3  211   1.161   3.661   0.431
   45SOL    MW4  212   1.134   3.725   0.379
   46SOL     OW  213   0.138   4.360   0.460
   46SOL    HW2  214   0.056   4.407   0.449
   46SOL    HW3  215   0.113   4.267   0.455
   46SOL    MW4  216   0.124   4.354   0.458
   47SOL     OW  217   0.926   3.937   0.354
   47SOL    HW2  218   0.967   4.009   0.306
   47SOL    HW3  219   0.914   3.971   0.443
   47SOL    MW4  220   0.930   3.951   0.360
   48SOL     OW  221   0.529   4.301   0.364
   48SOL    HW2  222   0.608   4.352   0.383
   48SOL    HW3  223   0.472   4.361   0.317
   48SOL    MW4  224   0.532   4.316   0.360
   49SOL     OW  225   0.692   0.124   0.448
   49SOL    HW2  226   0.702   0.029   0.456
   49SOL    HW3  227   0.749   0.148   0.375
   49SOL    MW4  228   0.701   0.115   0.439
   50SOL     OW  229   0.880   0.497   0.364
   50SOL    HW2  230   0.873   0.592   0.373
   50SOL    HW3  231   0.967   0.476   0.397
   50SOL    MW4  232   0.890   0.507   0.369
   51SOL     OW  233   0.456   0.556   0.426
   51SOL    HW2  234   0.371   0.513   0.432
   51SOL    HW3  235   0.518   0.493   0.462
   51SOL    MW4  236   0.453   0.542   0.432
   52SOL     OW  237   1.742   0.726   0.529
   52SOL    HW2  238   1.735   0.771   0.613
   52SOL    HW3  239   1.652   0.714   0.500
   52SOL    MW4  240   1.729   0.730   0.536
   53SOL     OW  241   2.089   0.888   0.580
   53SOL    HW2  242   2.114   0.824   0.514
   53SOL    HW3  243   2.009   0.928   0.546
   53SOL    MW4  244   2.082   0.885   0.567
   54SOL     OW  245   1.977   0.011   0.508
   54SOL    HW2  246   1.950  -0.076   0.478
   54SOL    HW3  247   1.900   0.066   0.493
   54SOL    MW4  248   1.963   0.007   0.502
   55SOL     OW  249   0.914   1.379   0.488
   55SOL    HW2  250   0.894   1.432   0.565
   55SOL    HW3  251   0.850   1.308   0.491
   55SOL    MW4  252   0.903   1.376   0.499
   56SOL     OW  253   0.698   1.161   0.492
   56SOL    HW2  254   0.617   1.133   0.448
   56SOL    HW3  255   0.768   1.115   0.445
   56SOL    MW4  256   0.697   1.151   0.480
   57SOL     OW  257   2.113   1.443   0.319
   57SOL    HW2  258   2.190   1.464   0.372
   57SOL    HW3  259   2.039   1.474   0.370
   57SOL    MW4  260   2.114   1.450   0.333
   58SOL     OW  261   0.896   1.009   0.386
   58SOL    HW2  262   0.888   0.919   0.417
   58SOL    HW3  263   0.988   1.016   0.358
   58SOL    MW4  264   0.907   0.998   0.386
   59SOL     OW  265   1.432   1.313   0.125
   59SOL    HW2  266   1.453   1.344   0.037
   59SOL    HW3  267   1.515   1.318   0.173
   59SOL    MW4  268   1.445   1.318   0.120
   60SOL     OW  269   0.136   2.230   0.516
   60SOL    HW2  270   0.188   2.310   0.524
   60SOL    HW3  271   0.045   2.260   0.516
   60SOL    MW4  272   0.131   2.244   0.517
   61SOL     OW  273   0.042   1.908   0.262
   61SOL    HW2  274   0.044   1.874   0.173
   61SOL    HW3  275   0.024   1.832   0.317
   61SOL    MW4  276   0.040   1.894   0.258
   62SOL     OW  277   0.947   1.786   0.587
   62SOL    HW2  278   1.042   1.789   0.589
   62SOL    HW3  279   0.920   1.854   0.649
   62SOL    MW4  280   0.956   1.796   0.596
   63SOL     OW  281   1.013   1.583   0.304
   63SOL    HW2  282   1.100   1.542   0.303
   63SOL    HW3  283   0.960   1.526   0.359
   63SOL    MW4  284   1.018   1.570   0.311
   64SOL     OW  285   1.108   1.905   0.371
   64SOL    HW2  286   1.198   1.872   0.381
   64SOL    HW3  287   1.106   1.985   0.424
   64SOL    MW4  288   1.120   1.911   0.379
   65SOL     OW  289   0.764   2.781   0.310
   65SOL    HW2  290   0.705   2.810   0.380
   65SOL    HW3  291   0.834   2.846   0.310
   65SOL    MW4  292   0.765   2.794   0.319
   66SOL     OW  293   0.585   2.883   0.492
   66SOL    HW2  294   0.554   2.972   0.477
   66SOL    HW3  295   0.622   2.886   0.581
   66SOL    MW4  296   0.586   2.895   0.502
   67SOL     OW  297   1.008   3.296   0.445
   67SOL    HW2  298   0.934   3.294   0.506
   67SOL    HW3  299   0.970   3.272   0.360
   67SOL    MW4  300   0.993   3.292   0.441
   68SOL     OW  301   1.984   2.927   0.445
   68SOL    HW2  302   2.076   2.931   0.419
   68SOL    HW3  303   1.987   2.904   0.538
   68SOL    MW4  304   1.997   2.925   0.454
   69SOL     OW  305   1.260   3.960   0.246
   69SOL    HW2  306   1.337   3.935   0.195
   69SOL    HW3  307   1.222   3.878   0.275
   69SOL    MW4  308   1.265   3.946   0.243
   70SOL     OW  309   0.475   4.011   0.408
   70SOL    HW2  310   0.471   4.005   0.504
   70SOL    HW3  311   0.504   4.101   0.391
   70SOL    MW4  312   0.478   4.022   0.419
   71SOL     OW  313   1.055   4.147   0.215
   71SOL    HW2  314   1.136   4.097   0.231
   71SOL    HW3  315   1.064   4.180   0.125
   71SOL    MW4  316   1.067   4.145   0.205
   72SOL     OW  317   1.134   0.390   0.471
   72SOL    HW2  318   1.128   0.295   0.463
   72SOL    HW3  319   1.228   0.408   0.468
   72SOL    MW4  320   1.146   0.380   0.469
   73SOL     OW  321   0.753   4.511   0.443
   73SOL    HW2  322   0.838   4.471   0.423
   73SOL    HW3  323   0.731   4.478   0.530
   73SOL    MW4  324   0.761   4.502   0.452
   74SOL     OW  325   1.392   0.500   0.475
   74SOL    HW2  326   1.433   0.528   0.557
   74SOL    HW3  327   1.398   0.577   0.418
   74SOL    MW4  328   1.399   0.514   0.478
   75SOL     OW  329   2.005   4.662   0.769
   75SOL    HW2  330   2.014   4.567   0.782
   75SOL    HW3  331   2.005   4.674   0.674
   75SOL    MW4  332   2.006   4.651   0.759
   76SOL     OW  333   1.066   0.122   0.422
   76SOL    HW2  334   0.999   0.118   0.491
   76SOL    HW3  335   1.019   0.103   0.341
   76SOL    MW4  336   1.051   0.119   0.421
   77SOL     OW  337   2.171   0.141   0.332
   77SOL    HW2  338   2.148   0.089   0.255
   77SOL    HW3  339   2.105   0.118   0.397
   77SOL    MW4  340   2.159   0.131   0.330
   78SOL     OW  341   2.382   1.044   0.456
   78SOL    HW2  342   2.301   1.087   0.429
   78SOL    HW3  343   2.362   1.008   0.542
   78SOL    MW4  344   2.369   1.045   0.464
   79SOL     OW  345   1.630   1.137   0.412
   79SOL    HW2  346   1.559   1.103   0.358
   79SOL    HW3  347   1.652   1.222   0.374
   79SOL    MW4  348   1.624   1.144   0.400
   80SOL     OW  349   1.850   0.978   0.479
   80SOL    HW2  350   1.804   0.894   0.479
   80SOL    HW3  351   1.784   1.042   0.453
   80SOL    MW4  352   1.835   0.975   0.475
   81SOL     OW  353   1.416   1.048   0.260
   81SOL    HW2  354   1.324   1.035   0.286
   81SOL    HW3  355   1.413   1.116   0.193
   81SOL    MW4  356   1.403   1.055   0.255
   82SOL     OW  357   1.919   1.590   0.491
   82SOL    HW2  358   1.850   1.529   0.518
   82SOL    HW3  359   1.980   1.591   0.565
   82SOL    MW4  360   1.918   1.582   0.505
   83SOL     OW  361   0.921   2.294   0.337
   83SOL    HW2  362   1.008   2.260   0.356
   83SOL    HW3  363   0.926   2.387   0.360
   83SOL    MW4  364   0.933   2.302   0.343
   84SOL     OW  365   1.189   2.582   0.300
   84SOL    HW2  366   1.178   2.565   0.206
   84SOL    HW3  367   1.099   2.592   0.332
   84SOL    MW4  368   1.175   2.581   0.292
   85SOL     OW  369   2.249   2.144   0.433
   85SOL    HW2  370   2.340   2.118   0.441
   85SOL    HW3  371   2.249   2.238   0.453
   85SOL    MW4  372   2.261   2.153   0.437
   86SOL     OW  373   1.354   2.405   0.471
   86SOL    HW2  374   1.442   2.386   0.437
   86SOL    HW3  375   1.318   2.468   0.409
   86SOL    MW4  376   1.361   2.411   0.459
   87SOL     OW  377   1.176   1.308   0.463
   87SOL    HW2  378   1.082   1.327   0.456
   87SOL    HW3  379   1.217   1.375   0.408
   87SOL    MW4  380   1.169   1.320   0.455
   88SOL     OW  381   1.191   3.485   0.515
   88SOL    HW2  382   1.273   3.460   0.472
   88SOL    HW3  383   1.126   3.424   0.481
   88SOL    MW4  384   1.194   3.473   0.505
   89SOL     OW  385   1.844   2.302   0.495
   89SOL    HW2  386   1.905   2.230   0.478
   89SOL    HW3  387   1.890   2.380   0.464
   89SOL    MW4  388   1.858   2.303   0.489
   90SOL     OW  389   2.146   0.419   0.335
   90SOL    HW2  390   2.069   0.435   0.389
   90SOL    HW3  391   2.154   0.324   0.331
   90SOL    MW4  392   2.137   0.409   0.341
   91SOL     OW  393   1.497   3.862   0.140
   91SOL    HW2  394   1.517   3.873   0.047
   91SOL    HW3  395   1.466   3.772   0.148
   91SOL    MW4  396   1.495   3.852   0.129
   92SOL     OW  397   1.672   2.544   0.185
   92SOL    HW2  398   1.624   2.595   0.121
   92SOL    HW3  399   1.731   2.608   0.227
   92SOL    MW4  400   1.674   2.559   0.182
   93SOL     OW  401   1.700   3.889   0.312
   93SOL    HW2  402   1.635   3.884   0.242
   93SOL    HW3  403   1.670   3.960   0.368
   93SOL    MW4  404   1.687   3.898   0.310
   94SOL     OW  405   1.508   2.957   0.505
   94SOL    HW2  406   1.423   2.925   0.477
   94SOL    HW3  407   1.540   2.890   0.566
   94SOL    MW4  408   1.501   2.944   0.509
   95SOL     OW  409   2.162   4.023   0.505
   95SOL    HW2  410   2.092   3.963   0.478
   95SOL    HW3  411   2.242   3.982   0.473
   95SOL    MW4  412   2.163   4.010   0.497
   96SOL     OW  413   1.344   3.621   0.208
   96SOL    HW2  414   1.381   3.545   0.253
   96SOL    HW3  415   1.262   3.638   0.254
   96SOL    MW4  416   1.338   3.613   0.220
   97SOL     OW  417   1.901   4.431   0.426
   97SOL    HW2  418   1.978   4.378   0.447
   97SOL    HW3  419   1.849   4.375   0.367
   97SOL    MW4  420   1.904   4.416   0.421
   98SOL     OW  421   2.257   0.106   0.730
   98SOL    HW2  422   2.173   0.063   0.747
   98SOL    HW3  423   2.320   0.059   0.786
   98SOL    MW4  424   2.254   0.094   0.740
   99SOL     OW  425   2.615   4.304   0.247
   99SOL    HW2  426   2.655   4.340   0.326
   99SOL    HW3  427   2.683   4.312   0.180
   99SOL    MW4  428   2.629   4.310   0.249
  100SOL     OW  429   1.281   4.426   0.457
  100SOL    HW2  430   1.216   4.414   0.388
  100SOL    HW3  431   1.234   4.406   0.538
  100SOL    MW4  432   1.266   4.422   0.459
  101SOL     OW  433   2.416   0.490   0.430
  101SOL    HW2  434   2.336   0.443   0.406
  101SOL    HW3  435   2.398   0.581   0.409
  101SOL    MW4  436   2.403   0.496   0.425
  102SOL     OW  437   1.804   1.868   0.403
  102SOL    HW2  438   1.872   1.935   0.417
  102SOL    HW3  439   1.844   1.787   0.433
  102SOL    MW4  440   1.818   1.866   0.409
  103SOL     OW  441   2.132   1.178   0.415
  103SOL    HW2  442   2.091   1.114   0.357
  103SOL    HW3  443   2.125   1.261   0.367
  103SOL    MW4  444   2.125   1.180   0.401
  104SOL     OW  445   2.509   1.302   0.466
  104SOL    HW2  446   2.605   1.295   0.464
  104SOL    HW3  447   2.479   1.211   0.468
  104SOL    MW4  448   2.518   1.289   0.466
  105SOL     OW  449   2.585   1.733   0.451
  105SOL    HW2  450   2.642   1.701   0.381
  105SOL    HW3  451   2.627   1.702   0.532
  105SOL    MW4  452   2.598   1.724   0.453
  106SOL     OW  453   1.626   1.645   0.346
  106SOL    HW2  454   1.683   1.720   0.334
  106SOL    HW3  455   1.539   1.683   0.361
  106SOL    MW4  456   1.622   1.660   0.347
  107SOL     OW  457   1.394   1.793   0.381
  107SOL    HW2  458   1.444   1.873   0.395
  107SOL    HW3  459   1.366   1.766   0.469
  107SOL    MW4  460   1.397   1.800   0.394
  108SOL     OW  461   2.306   2.411   0.494
  108SOL    HW2  462   2.233   2.454   0.450
  108SOL    HW3  463   2.283   2.412   0.587
  108SOL    MW4  464   2.293   2.417   0.500
  109SOL     OW  465   1.867   3.177   0.453
  109SOL    HW2  466   1.905   3.090   0.446
  109SOL    HW3  467   1.936   3.237   0.426
  109SOL    MW4  468   1.881   3.173   0.449
  110SOL     OW  469   1.158   3.102   0.623
  110SOL    HW2  470   1.093   3.117   0.691
  110SOL    HW3  471   1.129   3.155   0.549
  110SOL    MW4  472   1.146   3.111   0.622
  111SOL     OW  473   1.572   3.221   0.437
  111SOL    HW2  474   1.666   3.227   0.457
  111SOL    HW3  475   1.552   3.128   0.445
  111SOL    MW4  476   1.582   3.209   0.441
  112SOL     OW  477   1.286   1.505   0.314
  112SOL    HW2  478   1.329   1.445   0.254
  112SOL    HW3  479   1.332   1.588   0.302
  112SOL    MW4  480   1.298   1.508   0.305
  113SOL     OW  481   3.766   1.577   0.449
  113SOL    HW2  482   3.729   1.586   0.537
  113SOL    HW3  483   3.694   1.602   0.390
  113SOL    MW4  484   3.752   1.581   0.453
  114SOL     OW  485   1.612   2.331   0.357
  114SOL    HW2  486   1.692   2.305   0.402
  114SOL    HW3  487   1.640   2.393   0.290
  114SOL    MW4  488   1.626   2.336   0.354
  115SOL     OW  489   1.552   2.027   0.390
  115SOL    HW2  490   1.566   2.114   0.353
  115SOL    HW3  491   1.640   1.991   0.403
  115SOL    MW4  492   1.565   2.034   0.386
  116SOL     OW  493   1.446   3.447   0.388
  116SOL    HW2  494   1.479   3.359   0.407
  116SOL    HW3  495   1.520   3.505   0.407
  116SOL    MW4  496   1.460   3.443   0.393
  117SOL     OW  497   2.311   3.229   0.464
  117SOL    HW2  498   2.302   3.227   0.559
  117SOL    HW3  499   2.405   3.229   0.448
  117SOL    MW4  500   2.322   3.228   0.474
  118SOL     OW  501   1.554   4.310   0.429
  118SOL    HW2  502   1.578   4.331   0.520
  118SOL    HW3  503   1.461   4.330   0.424
  118SOL    MW4  504   1.545   4.315   0.441
  119SOL     OW  505   1.670   3.624   0.476
  119SOL    HW2  506   1.673   3.709   0.431
  119SOL    HW3  507   1.757   3.587   0.462
  119SOL    MW4  508   1.682   3.630   0.468
  120SOL     OW  509   1.359   0.058   0.440
  120SOL    HW2  510   1.381  -0.027   0.400
  120SOL    HW3  511   1.266   0.069   0.423
  120SOL    MW4  512   1.350   0.048   0.433
  121SOL     OW  513   1.558   0.273   0.423
  121SOL    HW2  514   1.512   0.356   0.420
  121SOL    HW3  515   1.489   0.207   0.428
  121SOL    MW4  516   1.543   0.275   0.423
  122SOL     OW  517   2.642   0.015   0.476
  122SOL    HW2  518   2.547   0.017   0.487
  122SOL    HW3  519   2.665   0.106   0.458
  122SOL    MW4  520   2.632   0.028   0.475
  123SOL     OW  521   2.377   0.007   0.492
  123SOL    HW2  522   2.327   0.054   0.424
  123SOL    HW3  523   2.338   0.035   0.574
  123SOL    MW4  524   2.366   0.017   0.494
  124SOL     OW  525   2.334   1.529   0.477
  124SOL    HW2  526   2.403   1.466   0.454
  124SOL    HW3  527   2.361   1.610   0.434
  124SOL    MW4  528   2.347   1.531   0.468
  125SOL     OW  529   2.807   0.569   0.499
  125SOL    HW2  530   2.880   0.568   0.437
  125SOL    HW3  531   2.768   0.656   0.488
  125SOL    MW4  532   2.811   0.581   0.489
  126SOL     OW  533   2.029   0.971   0.264
  126SOL    HW2  534   2.082   0.893   0.283
  126SOL    HW3  535   1.947   0.955   0.310
  126SOL    MW4  536   2.025   0.959   0.273
  127SOL     OW  537   2.801   1.274   0.486
  127SOL    HW2  538   2.801   1.191   0.440
  127SOL    HW3  539   2.856   1.259   0.563
  127SOL    MW4  540   2.809   1.261   0.490
  128SOL     OW  541   2.831   1.563   0.406
  128SOL    HW2  542   2.846   1.469   0.409
  128SOL    HW3  543   2.785   1.582   0.488
  128SOL    MW4  544   2.827   1.553   0.418
  129SOL     OW  545   3.276   2.073   0.473
  129SOL    HW2  546   3.230   1.998   0.510
  129SOL    HW3  547   3.359   2.037   0.441
  129SOL    MW4  548   3.281   2.058   0.474
  130SOL     OW  549   3.042   4.535   0.418
  130SOL    HW2  550   3.056   4.625   0.448
  130SOL    HW3  551   3.074   4.480   0.490
  130SOL    MW4  552   3.048   4.540   0.431
  131SOL     OW  553   1.983   2.065   0.475
  131SOL    HW2  554   1.975   2.042   0.567
  131SOL    HW3  555   2.077   2.062   0.457
  131SOL    MW4  556   1.995   2.062   0.485
  132SOL     OW  557   1.673   1.483   0.602
  132SOL    HW2  558   1.689   1.527   0.686
  132SOL    HW3  559   1.658   1.555   0.541
  132SOL    MW4  560   1.673   1.499   0.605
  133SOL     OW  561   2.513   2.023   0.468
  133SOL    HW2  562   2.531   1.930   0.452
  133SOL    HW3  563   2.580   2.069   0.418
  133SOL    MW4  564   2.524   2.017   0.460
  134SOL     OW  565   2.715   2.189   0.333
  134SOL    HW2  566   2.734   2.191   0.239
  134SOL    HW3  567   2.801   2.178   0.375
  134SOL    MW4  568   2.729   2.188   0.326
  135SOL     OW  569   2.740   2.656   0.416
  135SOL    HW2  570   2.822   2.608   0.427
  135SOL    HW3  571   2.673   2.587   0.416
  135SOL    MW4  572   2.742   2.641   0.418
  136SOL     OW  573   1.260   2.863   0.412
  136SOL    HW2  574   1.243   2.844   0.504
  136SOL    HW3  575   1.246   2.779   0.367
  136SOL    MW4  576   1.256   2.850   0.418
  137SOL     OW  577   0.994   2.953   0.343
  137SOL    HW2  578   0.975   3.039   0.306
  137SOL    HW3  579   1.089   2.952   0.353
  137SOL    MW4  580   1.004   2.964   0.339
  138SOL     OW  581   1.940   3.547   0.452
  138SOL    HW2  582   1.994   3.491   0.396
  138SOL    HW3  583   1.969   3.526   0.541
  138SOL    MW4  584   1.951   3.536   0.457
  139SOL     OW  585   2.394   3.913   0.385
  139SOL    HW2  586   2.424   3.830   0.421
  139SOL    HW3  587   2.463   3.939   0.323
  139SOL    MW4  588   2.407   3.906   0.381
  140SOL     OW  589   1.935   3.853   0.461
  140SOL    HW2  590   1.954   3.759   0.456
  140SOL    HW3  591   1.882   3.871   0.384
  140SOL    MW4  592   1.931   3.843   0.450
  141SOL     OW  593   2.094   3.346   0.334
  141SOL    HW2  594   2.130   3.307   0.254
  141SOL    HW3  595   2.160   3.328   0.401
  141SOL    MW4  596   2.107   3.338   0.332
  142SOL     OW  597   2.400   4.409   0.393
  142SOL    HW2  598   2.460   4.406   0.317
  142SOL    HW3  599   2.402   4.500   0.421
  142SOL    MW4  600   2.409   4.421   0.387
  143SOL     OW  601   2.143   4.313   0.479
  143SOL    HW2  602   2.165   4.221   0.496
  143SOL    HW3  603   2.222   4.349   0.438
  143SOL    MW4  604   2.156   4.305   0.476
  144SOL     OW  605   3.116   0.132   0.504
  144SOL    HW2  606   3.041   0.186   0.476
  144SOL    HW3  607   3.110   0.132   0.600
  144SOL    MW4  608   3.105   0.139   0.513
  145SOL     OW  609   2.562   3.697   0.480
  145SOL    HW2  610   2.534   3.673   0.568
  145SOL    HW3  611   2.558   3.615   0.430
  145SOL    MW4  612   2.558   3.683   0.485
  146SOL     OW  613   2.525   4.180   0.517
  146SOL    HW2  614   2.483   4.257   0.479
  146SOL    HW3  615   2.467   4.107   0.494
  146SOL    MW4  616   2.512   4.181   0.509
  147SOL     OW  617   2.667   0.325   0.446
  147SOL    HW2  618   2.578   0.359   0.433
  147SOL    HW3  619   2.720   0.402   0.465
  147SOL    MW4  620   2.662   0.339   0.447
  148SOL     OW  621   1.892   0.487   0.462
  148SOL    HW2  622   1.843   0.405   0.468
  148SOL    HW3  623   1.826   0.555   0.475
  148SOL    MW4  624   1.877   0.485   0.465
  149SOL     OW  625   3.145   0.344   0.209
  149SOL    HW2  626   3.218   0.304   0.258
  149SOL    HW3  627   3.070   0.289   0.231
  149SOL    MW4  628   3.145   0.331   0.219
  150SOL     OW  629   1.927   1.345   0.132
  150SOL    HW2  630   2.006   1.389   0.163
  150SOL    HW3  631   1.959   1.276   0.074
  150SOL    MW4  632   1.941   1.341   0.129
  151SOL     OW  633   2.704   0.832   0.470
  151SOL    HW2  634   2.768   0.886   0.423
  151SOL    HW3  635   2.684   0.884   0.548
  151SOL    MW4  636   2.710   0.846   0.474
  152SOL     OW  637   3.085   1.620   0.496
  152SOL    HW2  638   3.002   1.608   0.450
  152SOL    HW3  639   3.084   1.711   0.525
  152SOL    MW4  640   3.074   1.630   0.494
  153SOL     OW  641   3.614   1.054   0.493
  153SOL    HW2  642   3.684   1.008   0.446
  153SOL    HW3  643   3.592   0.997   0.566
  153SOL    MW4  644   3.620   1.041   0.496
  154SOL     OW  645   4.022   1.938   0.385
  154SOL    HW2  646   4.100   1.991   0.368
  154SOL    HW3  647   3.987   1.973   0.467
  154SOL    MW4  648   4.028   1.949   0.394
  155SOL     OW  649   2.884   0.198   0.328
  155SOL    HW2  650   2.800   0.239   0.348
  155SOL    HW3  651   2.863   0.132   0.262
  155SOL    MW4  652   2.870   0.195   0.322
  156SOL     OW  653   3.132   1.869   0.614
  156SOL    HW2  654   3.055   1.911   0.652
  156SOL    HW3  655   3.188   1.850   0.689
  156SOL    MW4  656   3.129   1.872   0.629
  157SOL     OW  657   2.583   2.410   0.481
  157SOL    HW2  658   2.608   2.345   0.415
  157SOL    HW3  659   2.489   2.396   0.493
  157SOL    MW4  660   2.574   2.400   0.473
  158SOL     OW  661   2.965   2.206   0.468
  158SOL    HW2  662   3.047   2.164   0.442
  158SOL    HW3  663   2.937   2.159   0.546
  158SOL    MW4  664   2.972   2.194   0.475
  159SOL     OW  665   1.995   2.542   0.448
  159SOL    HW2  666   2.009   2.593   0.527
  159SOL    HW3  667   1.930   2.591   0.398
  159SOL    MW4  668   1.988   2.555   0.452
  160SOL     OW  669   2.563   2.878   0.485
  160SOL    HW2  670   2.622   2.808   0.455
  160SOL    HW3  671   2.537   2.850   0.573
  160SOL    MW4  672   2.567   2.865   0.492
  161SOL     OW  673   3.283   3.221   0.508
  161SOL    HW2  674   3.294   3.127   0.496
  161SOL    HW3  675   3.242   3.230   0.594
  161SOL    MW4  676   3.279   3.210   0.518
  162SOL     OW  677   3.502   3.375   0.567
  162SOL    HW2  678   3.573   3.327   0.525
  162SOL    HW3  679   3.426   3.317   0.559
  162SOL    MW4  680   3.501   3.361   0.560
  163SOL     OW  681   2.280   2.955   0.396
  163SOL    HW2  682   2.366   2.916   0.411
  163SOL    HW3  683   2.292   3.048   0.417
  163SOL    MW4  684   2.293   2.962   0.401
  164SOL     OW  685   1.466   4.053   0.431
  164SOL    HW2  686   1.497   4.142   0.418
  164SOL    HW3  687   1.404   4.039   0.360
  164SOL    MW4  688   1.462   4.063   0.420
  165SOL     OW  689   3.377   3.994   0.440
  165SOL    HW2  690   3.285   3.979   0.417
  165SOL    HW3  691   3.398   3.927   0.504
  165SOL    MW4  692   3.368   3.983   0.445
  166SOL     OW  693   3.196   3.531   0.368
  166SOL    HW2  694   3.252   3.563   0.438
  166SOL    HW3  695   3.195   3.436   0.379
  166SOL    MW4  696   3.203   3.523   0.378
  167SOL     OW  697   2.561   3.464   0.352
  167SOL    HW2  698   2.574   3.382   0.400
  167SOL    HW3  699   2.610   3.452   0.271
  167SOL    MW4  700   2.569   3.451   0.347
  168SOL     OW  701   3.760   4.260   0.710
  168SOL    HW2  702   3.727   4.176   0.677
  168SOL    HW3  703   3.737   4.323   0.643
  168SOL    MW4  704   3.753   4.257   0.697
  169SOL     OW  705   2.959   4.130   0.299
  169SOL    HW2  706   3.018   4.201   0.275
  169SOL    HW3  707   2.935   4.089   0.216
  169SOL    MW4  708   2.963   4.134   0.285
  170SOL     OW  709   3.339   0.240   0.362
  170SOL    HW2  710   3.280   0.197   0.424
  170SOL    HW3  711   3.388   0.168   0.322
  170SOL    MW4  712   3.338   0.225   0.365
  171SOL     OW  713   3.096   4.343   0.202
  171SOL    HW2  714   3.082   4.412   0.267
  171SOL    HW3  715   3.187   4.317   0.214
  171SOL    MW4  716   3.106   4.349   0.212
  172SOL     OW  717   2.859   4.007   0.045
  172SOL    HW2  718   2.881   3.916   0.025
  172SOL    HW3  719   2.779   4.002   0.097
  172SOL    MW4  720   2.852   3.994   0.049
  173SOL     OW  721   2.820   4.298   0.044
  173SOL    HW2  722   2.841   4.209   0.016
  173SOL    HW3  723   2.905   4.339   0.060
  173SOL    MW4  724   2.834   4.291   0.042
  174SOL     OW  725   2.898   1.023   0.400
  174SOL    HW2  726   2.949   0.978   0.332
  174SOL    HW3  727   2.926   0.982   0.482
  174SOL    MW4  728   2.908   1.011   0.402
  175SOL     OW  729   3.313   1.443   0.370
  175SOL    HW2  730   3.323   1.355   0.406
  175SOL    HW3  731   3.242   1.482   0.421
  175SOL    MW4  732   3.305   1.436   0.381
  176SOL     OW  733   3.185   0.693   0.552
  176SOL    HW2  734   3.105   0.738   0.578
  176SOL    HW3  735   3.237   0.760   0.506
  176SOL    MW4  736   3.182   0.708   0.550
  177SOL     OW  737   3.572   0.699   0.346
  177SOL    HW2  738   3.519   0.777   0.367
  177SOL    HW3  739   3.625   0.725   0.272
  177SOL    MW4  740   3.572   0.713   0.339
  178SOL     OW  741   3.647   1.867   0.636
  178SOL    HW2  742   3.597   1.903   0.562
  178SOL    HW3  743   3.613   1.913   0.713
  178SOL    MW4  744   3.636   1.878   0.636
  179SOL     OW  745   3.507   1.934   0.408
  179SOL    HW2  746   3.482   1.844   0.389
  179SOL    HW3  747   3.584   1.950   0.354
  179SOL    MW4  748   3.514   1.924   0.398
  180SOL     OW  749   3.364   1.162   0.461
  180SOL    HW2  750   3.452   1.124   0.464
  180SOL    HW3  751   3.340   1.174   0.554
  180SOL    MW4  752   3.372   1.159   0.474
  181SOL     OW  753   3.748   1.986   0.284
  181SOL    HW2  754   3.749   2.065   0.230
  181SOL    HW3  755   3.840   1.969   0.304
  181SOL    MW4  756   3.760   1.994   0.279
  182SOL     OW  757   3.323   2.308   0.620
  182SOL    HW2  758   3.301   2.223   0.580
  182SOL    HW3  759   3.382   2.285   0.692
  182SOL    MW4  760   3.328   2.293   0.624
  183SOL     OW  761   3.621   2.732   0.649
  183SOL    HW2  762   3.650   2.700   0.734
  183SOL    HW3  763   3.561   2.664   0.617
  183SOL    MW4  764   3.617   2.719   0.656
  184SOL     OW  765   1.796   2.737   0.339
  184SOL    HW2  766   1.857   2.804   0.369
  184SOL    HW3  767   1.711   2.763   0.377
  184SOL    MW4  768   1.793   2.749   0.348
  185SOL     OW  769   3.246   2.672   0.399
  185SOL    HW2  770   3.320   2.617   0.424
  185SOL    HW3  771   3.215   2.635   0.317
  185SOL    MW4  772   3.252   2.660   0.392
  186SOL     OW  773   2.919   2.831   0.765
  186SOL    HW2  774   2.938   2.819   0.672
  186SOL    HW3  775   2.988   2.784   0.810
  186SOL    MW4  776   2.930   2.823   0.759
  187SOL     OW  777   2.443   0.785   0.369
  187SOL    HW2  778   2.530   0.783   0.408
  187SOL    HW3  779   2.418   0.878   0.371
  187SOL    MW4  780   2.451   0.797   0.374
  188SOL     OW  781   2.840   4.129   0.536
  188SOL    HW2  782   2.807   4.039   0.525
  188SOL    HW3  783   2.897   4.143   0.460
  188SOL    MW4  784   2.843   4.119   0.525
  189SOL     OW  785   3.107   3.965   0.461
  189SOL    HW2  786   3.067   4.029   0.403
  189SOL    HW3  787   3.097   4.002   0.549
  189SOL    MW4  788   3.101   3.978   0.465
  190SOL     OW  789   3.897   3.439   0.392
  190SOL    HW2  790   3.879   3.526   0.356
  190SOL    HW3  791   3.980   3.413   0.351
  190SOL    MW4  792   3.906   3.447   0.382
  191SOL     OW  793   3.910   3.412   0.667
  191SOL    HW2  794   3.978   3.467   0.706
  191SOL    HW3  795   3.909   3.437   0.575
  191SOL    MW4  796   3.919   3.422   0.660
  192SOL     OW  797   2.767   3.869   0.463
  192SOL    HW2  798   2.848   3.818   0.455
  192SOL    HW3  799   2.701   3.804   0.486
  192SOL    MW4  800   2.769   3.854   0.465
  193SOL     OW  801   2.592   3.165   0.425
  193SOL    HW2  802   2.626   3.194   0.510
  193SOL    HW3  803   2.606   3.071   0.425
  193SOL    MW4  804   2.599   3.157   0.437
  194SOL     OW  805   4.382   0.136   0.242
  194SOL    HW2  806   4.361   0.042   0.236
  194SOL    HW3  807   4.466   0.139   0.287
  194SOL    MW4  808   4.390   0.124   0.247
  195SOL     OW  809   3.980   0.065   0.358
  195SOL    HW2  810   3.900   0.108   0.326
  195SOL    HW3  811   4.044   0.136   0.367
  195SOL    MW4  812   3.978   0.080   0.355
  196SOL     OW  813   3.038   0.566   0.350
  196SOL    HW2  814   3.089   0.591   0.427
  196SOL    HW3  815   3.093   0.503   0.304
  196SOL    MW4  816   3.052   0.561   0.354
  197SOL     OW  817   3.488   0.449   0.494
  197SOL    HW2  818   3.439   0.392   0.434
  197SOL    HW3  819   3.504   0.529   0.444
  197SOL    MW4  820   3.483   0.452   0.479
  198SOL     OW  821   4.244   0.521   0.456
  198SOL    HW2  822   4.311   0.544   0.393
  198SOL    HW3  823   4.226   0.428   0.440
  198SOL    MW4  824   4.250   0.511   0.446
  199SOL     OW  825   4.422   0.860   0.520
  199SOL    HW2  826   4.446   0.796   0.453
  199SOL    HW3  827   4.327   0.860   0.521
  199SOL    MW4  828   4.413   0.851   0.512
  200SOL     OW  829   3.990   0.673   0.476
  200SOL    HW2  830   4.072   0.632   0.450
  200SOL    HW3  831   3.956   0.617   0.546
  200SOL    MW4  832   3.996   0.660   0.482
  201SOL     OW  833   3.990   1.129   0.398
  201SOL    HW2  834   4.076   1.171   0.396
  201SOL    HW3  835   3.930   1.200   0.421
  201SOL    MW4  836   3.993   1.144   0.401
  202SOL     OW  837   3.796   1.291   0.502
  202SOL    HW2  838   3.711   1.248   0.491
  202SOL    HW3  839   3.775   1.385   0.501
  202SOL    MW4  840   3.782   1.298   0.500
  203SOL     OW  841   3.502   1.640   0.324
  203SOL    HW2  842   3.427   1.582   0.338
  203SOL    HW3  843   3.494   1.670   0.234
  203SOL    MW4  844   3.491   1.637   0.314
  204SOL     OW  845   3.332   0.871   0.401
  204SOL    HW2  846   3.263   0.859   0.336
  204SOL    HW3  847   3.337   0.966   0.413
  204SOL    MW4  848   3.324   0.882   0.394
  205SOL     OW  849   3.716   2.260   0.168
  205SOL    HW2  850   3.722   2.311   0.249
  205SOL    HW3  851   3.714   2.325   0.098
  205SOL    MW4  852   3.716   2.275   0.169
  206SOL     OW  853   3.877   3.033   0.569
  206SOL    HW2  854   3.808   3.091   0.537
  206SOL    HW3  855   3.949   3.093   0.593
  206SOL    MW4  856   3.878   3.049   0.568
  207SOL     OW  857   2.944   2.487   0.484
  207SOL    HW2  858   3.016   2.495   0.546
  207SOL    HW3  859   2.929   2.393   0.478
  207SOL    MW4  860   2.951   2.476   0.492
  208SOL     OW  861   2.993   3.706   0.434
  208SOL    HW2  862   3.054   3.781   0.431
  208SOL    HW3  863   3.048   3.630   0.413
  208SOL    MW4  864   3.009   3.706   0.431
  209SOL     OW  865   3.235   2.939   0.533
  209SOL    HW2  866   3.253   2.867   0.473
  209SOL    HW3  867   3.145   2.966   0.513
  209SOL    MW4  868   3.225   2.933   0.523
  210SOL     OW  869   3.815   2.785   0.461
  210SOL    HW2  870   3.742   2.755   0.514
  210SOL    HW3  871   3.830   2.875   0.490
  210SOL    MW4  872   3.808   2.793   0.472
  211SOL     OW  873   3.715   2.442   0.361
  211SOL    HW2  874   3.777   2.499   0.317
  211SOL    HW3  875   3.758   2.417   0.443
  211SOL    MW4  876   3.729   2.446   0.366
  212SOL     OW  877   3.806   4.170   0.198
  212SOL    HW2  878   3.829   4.134   0.112
  212SOL    HW3  879   3.752   4.103   0.239
  212SOL    MW4  880   3.802   4.156   0.192
  213SOL     OW  881   3.451   2.516   0.495
  213SOL    HW2  882   3.408   2.439   0.531
  213SOL    HW3  883   3.515   2.481   0.433
  213SOL    MW4  884   3.454   2.501   0.492
  214SOL     OW  885   3.466   3.843   0.668
  214SOL    HW2  886   3.418   3.878   0.743
  214SOL    HW3  887   3.430   3.755   0.654
  214SOL    MW4  888   3.455   3.836   0.676
  215SOL     OW  889   4.242   4.077   0.435
  215SOL    HW2  890   4.206   4.056   0.521
  215SOL    HW3  891   4.184   4.145   0.401
  215SOL    MW4  892   4.229   4.083   0.442
  216SOL     OW  893   3.657   3.972   0.333
  216SOL    HW2  894   3.678   3.979   0.426
  216SOL    HW3  895   3.563   3.986   0.328
  216SOL    MW4  896   3.648   3.975   0.344
  217SOL     OW  897   3.566   4.395   0.314
  217SOL    HW2  898   3.617   4.328   0.269
  217SOL    HW3  899   3.620   4.421   0.388
  217SOL    MW4  900   3.580   4.389   0.318
  218SOL     OW  901   0.003   0.068   0.628
  218SOL    HW2  902  -0.042  -0.008   0.591
  218SOL    HW3  903  -0.067   0.130   0.648
  218SOL    MW4  904  -0.012   0.066   0.625
  219SOL     OW  905   4.143   0.904   0.524
  219SOL    HW2  906   4.098   0.823   0.501
  219SOL    HW3  907   4.101   0.971   0.470
  219SOL    MW4  908   4.132   0.902   0.514
  220SOL     OW  909   0.559   2.182   0.421
  220SOL    HW2  910   0.589   2.206   0.334
  220SOL    HW3  911   0.482   2.127   0.406
  220SOL    MW4  912   0.553   2.178   0.408
  221SOL     OW  913   4.467   0.642   0.323
  221SOL    HW2  914   4.532   0.588   0.368
  221SOL    HW3  915   4.496   0.644   0.232
  221SOL    MW4  916   4.480   0.635   0.317
  222SOL     OW  917   4.244   1.231   0.424
  222SOL    HW2  918   4.267   1.223   0.517
  222SOL    HW3  919   4.243   1.326   0.408
  222SOL    MW4  920   4.247   1.243   0.434
  223SOL     OW  921   3.496   0.011   0.260
  223SOL    HW2  922   3.500  -0.084   0.273
  223SOL    HW3  923   3.587   0.039   0.257
  223SOL    MW4  924   3.508   0.002   0.262
  224SOL     OW  925   3.815   0.902   0.379
  224SOL    HW2  926   3.888   0.961   0.364
  224SOL    HW3  927   3.854   0.824   0.418
  224SOL    MW4  928   3.830   0.900   0.382
  225SOL     OW  929   0.254   1.549   0.418
  225SOL    HW2  930   0.164   1.574   0.397
  225SOL    HW3  931   0.254   1.454   0.415
  225SOL    MW4  932   0.242   1.540   0.415
  226SOL     OW  933   4.359   2.330   0.483
  226SOL    HW2  934   4.272   2.345   0.519
  226SOL    HW3  935   4.388   2.416   0.454
  226SOL    MW4  936   4.351   2.343   0.484
  227SOL     OW  937   0.428   1.770   0.387
  227SOL    HW2  938   0.354   1.709   0.385
  227SOL    HW3  939   0.387   1.856   0.395
  227SOL    MW4  940   0.413   1.773   0.388
  228SOL     OW  941   0.930   2.563   0.406
  228SOL    HW2  942   0.912   2.541   0.497
  228SOL    HW3  943   0.879   2.642   0.390
  228SOL    MW4  944   0.921   2.570   0.416
  229SOL     OW  945   4.294   2.067   0.372
  229SOL    HW2  946   4.368   2.032   0.322
  229SOL    HW3  947   4.318   2.158   0.391
  229SOL    MW4  948   4.307   2.074   0.368
  230SOL     OW  949   4.432   2.604   0.495
  230SOL    HW2  950   4.516   2.651   0.487
  230SOL    HW3  951   4.433   2.569   0.584
  230SOL    MW4  952   4.443   2.606   0.506
  231SOL     OW  953   4.319   3.547   0.407
  231SOL    HW2  954   4.400   3.503   0.381
  231SOL    HW3  955   4.252   3.510   0.350
  231SOL    MW4  956   4.321   3.537   0.396
  232SOL     OW  957   4.253   2.811   0.459
  232SOL    HW2  958   4.169   2.771   0.482
  232SOL    HW3  959   4.316   2.740   0.468
  232SOL    MW4  960   4.250   2.796   0.463
  233SOL     OW  961   0.211   3.875   0.388
  233SOL    HW2  962   0.139   3.936   0.400
  233SOL    HW3  963   0.289   3.931   0.382
  233SOL    MW4  964   0.212   3.890   0.389
  234SOL     OW  965   0.087   3.475   0.318
  234SOL    HW2  966   0.097   3.509   0.228
  234SOL    HW3  967   0.145   3.530   0.370
  234SOL    MW4  968   0.096   3.487   0.313
  235SOL     OW  969   0.066   3.236   0.463
  235SOL    HW2  970  -0.022   3.206   0.439
  235SOL    HW3  971   0.090   3.297   0.393
  235SOL    MW4  972   0.057   3.240   0.450
  236SOL     OW  973   3.911   3.723   0.362
  236SOL    HW2  974   3.862   3.776   0.300
  236SOL    HW3  975   4.002   3.749   0.350
  236SOL    MW4  976   3.916   3.733   0.352
  237SOL     OW  977   3.701   3.227   0.461
  237SOL    HW2  978   3.766   3.293   0.436
  237SOL    HW3  979   3.645   3.218   0.384
  237SOL    MW4  980   3.702   3.235   0.448
  238SOL     OW  981   0.031   4.075   0.452
  238SOL    HW2  982   0.013   4.050   0.543
  238SOL    HW3  983  -0.056   4.084   0.413
  238SOL    MW4  984   0.017   4.073   0.459
  239SOL     OW  985   4.212   4.577   0.264
  239SOL    HW2  986   4.186   4.486   0.247
  239SOL    HW3  987   4.131   4.627   0.259
  239SOL    MW4  988   4.198   4.571   0.261
  240SOL     OW  989   3.991   4.489   0.497
  240SOL    HW2  990   4.065   4.492   0.558
  240SOL    HW3  991   3.992   4.574   0.453
  240SOL    MW4  992   4.001   4.501   0.499
  241SOL     OW  993   3.714   4.475   0.540
  241SOL    HW2  994   3.691   4.556   0.585
  241SOL    HW3  995   3.808   4.483   0.523
  241SOL    MW4  996   3.723   4.487   0.544
  242SOL     OW  997   0.162   4.651   0.844
  242SOL    HW2  998   0.171   4.557   0.828
  242SOL    HW3  999   0.111   4.683   0.769
  242SOL    MW4 1000   0.156   4.643   0.832
  243SOL     OW 1001   4.258   0.226   0.686
  243SOL    HW2 1002   4.231   0.151   0.738
  243SOL    HW3 1003   4.308   0.281   0.746
  243SOL    MW4 1004   4.261   0.224   0.700
  244SOL     OW 1005   4.391   0.406   0.843
  244SOL    HW2 1006   4.406   0.392   0.937
  244SOL    HW3 1007   4.479   0.418   0.807
  244SOL    MW4 1008   4.405   0.406   0.851
  245SOL     OW 1009   0.147   0.450   0.714
  245SOL    HW2 1010   0.213   0.401   0.764
  245SOL    HW3 1011   0.166   0.542   0.735
  245SOL    MW4 1012   0.159   0.456   0.723
  246SOL     OW 1013   0.218   0.721   0.841
  246SOL    HW2 1014   0.212   0.709   0.936
  246SOL    HW3 1015   0.131   0.751   0.816
  246SOL    MW4 1016   0.206   0.724   0.851
  247SOL     OW 1017   0.012   0.898   0.785
  247SOL    HW2 1018  -0.073   0.877   0.826
  247SOL    HW3 1019  -0.004   0.888   0.691
  247SOL    MW4 1020  -0.002   0.894   0.778
  248SOL     OW 1021   0.011   1.160   0.840
  248SOL    HW2 1022   0.017   1.165   0.935
  248SOL    HW3 1023   0.017   1.067   0.820
  248SOL    MW4 1024   0.012   1.149   0.850
  249SOL     OW 1025   0.245   1.282   0.726
  249SOL    HW2 1026   0.153   1.271   0.752
  249SOL    HW3 1027   0.245   1.264   0.632
  249SOL    MW4 1028   0.233   1.278   0.717
  250SOL     OW 1029   0.220   1.557   0.804
  250SOL    HW2 1030   0.291   1.613   0.771
  250SOL    HW3 1031   0.246   1.468   0.779
  250SOL    MW4 1032   0.233   1.553   0.797
  251SOL     OW 1033   4.486   1.646   0.661
  251SOL    HW2 1034   4.415   1.612   0.715
  251SOL    HW3 1035   4.565   1.607   0.700
  251SOL    MW4 1036   4.487   1.636   0.673
  252SOL     OW 1037   4.459   1.880   0.798
  252SOL    HW2 1038   4.529   1.944   0.786
  252SOL    HW3 1039   4.487   1.804   0.747
  252SOL    MW4 1040   4.472   1.879   0.790
  253SOL     OW 1041   0.166   2.079   0.755
  253SOL    HW2 1042   0.175   2.162   0.802
  253SOL    HW3 1043   0.153   2.104   0.664
  253SOL    MW4 1044   0.166   2.093   0.749
  254SOL     OW 1045   0.167   2.347   0.890
  254SOL    HW2 1046   0.186   2.309   0.976
  254SOL    HW3 1047   0.250   2.385   0.862
  254SOL    MW4 1048   0.181   2.347   0.898
  255SOL     OW 1049   4.442   2.474   0.751
  255SOL    HW2 1050   4.368   2.414   0.737
  255SOL    HW3 1051   4.504   2.424   0.804
  255SOL    MW4 1052   4.440   2.460   0.756
  256SOL     OW 1053   4.468   2.727   0.871
  256SOL    HW2 1054   4.464   2.724   0.967
  256SOL    HW3 1055   4.445   2.638   0.844
  256SOL    MW4 1056   4.465   2.714   0.880
  257SOL     OW 1057   0.225   2.823   0.767
  257SOL    HW2 1058   0.140   2.798   0.802
  257SOL    HW3 1059   0.216   2.811   0.672
  257SOL    MW4 1060   0.213   2.818   0.759
  258SOL     OW 1061   0.252   3.089   0.816
  258SOL    HW2 1062   0.279   3.092   0.908
  258SOL    HW3 1063   0.227   2.997   0.802
  258SOL    MW4 1064   0.252   3.077   0.827
  259SOL     OW 1065   0.032   3.220   0.725
  259SOL    HW2 1066   0.107   3.177   0.766
  259SOL    HW3 1067   0.051   3.217   0.631
  259SOL    MW4 1068   0.044   3.214   0.718
  260SOL     OW 1069   0.025   3.467   0.824
  260SOL    HW2 1070  -0.040   3.509   0.768
  260SOL    HW3 1071   0.035   3.379   0.789
  260SOL    MW4 1072   0.018   3.461   0.812
  261SOL     OW 1073   0.263   3.634   0.739
  261SOL    HW2 1074   0.183   3.591   0.769
  261SOL    HW3 1075   0.255   3.635   0.643
  261SOL    MW4 1076   0.251   3.628   0.730
  262SOL     OW 1077   0.240   3.908   0.801
  262SOL    HW2 1078   0.246   3.908   0.897
  262SOL    HW3 1079   0.247   3.815   0.777
  262SOL    MW4 1080   0.242   3.895   0.811
  263SOL     OW 1081   0.015   4.036   0.717
  263SOL    HW2 1082  -0.049   3.969   0.743
  263SOL    HW3 1083   0.100   3.996   0.732
  263SOL    MW4 1084   0.018   4.022   0.722
  264SOL     OW 1085   4.412   4.288   0.819
  264SOL    HW2 1086   4.425   4.289   0.914
  264SOL    HW3 1087   4.434   4.199   0.792
  264SOL    MW4 1088   4.416   4.277   0.828
  265SOL     OW 1089   0.217   4.381   0.755
  265SOL    HW2 1090   0.173   4.327   0.821
  265SOL    HW3 1091   0.167   4.367   0.675
  265SOL    MW4 1092   0.205   4.372   0.753
  266SOL     OW 1093   0.652   0.009   0.793
  266SOL    HW2 1094   0.651   0.037   0.885
  266SOL    HW3 1095   0.564   0.026   0.762
  266SOL    MW4 1096   0.641   0.015   0.801
  267SOL     OW 1097   0.385   0.078   0.722
  267SOL    HW2 1098   0.314   0.042   0.776
  267SOL    HW3 1099   0.348   0.082   0.633
  267SOL    MW4 1100   0.370   0.073   0.717
  268SOL     OW 1101   0.392   0.344   0.828
  268SOL    HW2 1102   0.474   0.391   0.814
  268SOL    HW3 1103   0.401   0.263   0.778
  268SOL    MW4 1104   0.404   0.339   0.820
  269SOL     OW 1105   0.625   0.465   0.782
  269SOL    HW2 1106   0.709   0.435   0.817
  269SOL    HW3 1107   0.630   0.446   0.688
  269SOL    MW4 1108   0.637   0.459   0.774
  270SOL     OW 1109   0.682   0.747   0.831
  270SOL    HW2 1110   0.617   0.804   0.791
  270SOL    HW3 1111   0.651   0.659   0.814
  270SOL    MW4 1112   0.670   0.743   0.824
  271SOL     OW 1113   0.437   0.884   0.748
  271SOL    HW2 1114   0.438   0.966   0.797
  271SOL    HW3 1115   0.360   0.837   0.781
  271SOL    MW4 1116   0.427   0.889   0.759
  272SOL     OW 1117   0.443   1.138   0.848
  272SOL    HW2 1118   0.524   1.185   0.828
  272SOL    HW3 1119   0.375   1.188   0.803
  272SOL    MW4 1120   0.445   1.151   0.839
  273SOL     OW 1121   0.683   1.253   0.750
  273SOL    HW2 1122   0.665   1.347   0.749
  273SOL    HW3 1123   0.682   1.228   0.657
  273SOL    MW4 1124   0.680   1.262   0.737
  274SOL     OW 1125   0.631   1.534   0.793
  274SOL    HW2 1126   0.628   1.550   0.887
  274SOL    HW3 1127   0.561   1.588   0.756
  274SOL    MW4 1128   0.622   1.543   0.800
  275SOL     OW 1129   0.423   1.713   0.677
  275SOL    HW2 1130   0.445   1.801   0.708
  275SOL    HW3 1131   0.439   1.716   0.583
  275SOL    MW4 1132   0.428   1.725   0.669
  276SOL     OW 1133   0.644   2.120   0.707
  276SOL    HW2 1134   0.567   2.075   0.741
  276SOL    HW3 1135   0.619   2.146   0.618
  276SOL    MW4 1136   0.631   2.117   0.700
  277SOL     OW 1137   0.434   1.958   0.796
  277SOL    HW2 1138   0.453   1.927   0.885
  277SOL    HW3 1139   0.350   2.003   0.805
  277SOL    MW4 1140   0.425   1.960   0.809
  278SOL     OW 1141   0.666   2.373   0.807
  278SOL    HW2 1142   0.654   2.361   0.901
  278SOL    HW3 1143   0.657   2.285   0.770
  278SOL    MW4 1144   0.663   2.360   0.815
  279SOL     OW 1145   0.402   2.435   0.768
  279SOL    HW2 1146   0.493   2.409   0.786
  279SOL    HW3 1147   0.392   2.422   0.674
  279SOL    MW4 1148   0.413   2.430   0.758
  280SOL     OW 1149   0.459   2.703   0.852
  280SOL    HW2 1150   0.437   2.611   0.839
  280SOL    HW3 1151   0.383   2.751   0.818
  280SOL    MW4 1152   0.446   2.697   0.846
  281SOL     OW 1153   0.686   2.852   0.775
  281SOL    HW2 1154   0.770   2.809   0.789
  281SOL    HW3 1155   0.622   2.794   0.815
  281SOL    MW4 1156   0.689   2.839   0.782
  282SOL     OW 1157   0.654   3.102   0.868
  282SOL    HW2 1158   0.574   3.132   0.826
  282SOL    HW3 1159   0.666   3.012   0.838
  282SOL    MW4 1160   0.645   3.094   0.858
  283SOL     OW 1161   0.470   3.205   0.710
  283SOL    HW2 1162   0.472   3.301   0.718
  283SOL    HW3 1163   0.381   3.181   0.733
  283SOL    MW4 1164   0.459   3.215   0.714
  284SOL     OW 1165   0.482   3.492   0.802
  284SOL    HW2 1166   0.494   3.502   0.897
  284SOL    HW3 1167   0.400   3.536   0.783
  284SOL    MW4 1168   0.473   3.499   0.812
  285SOL     OW 1169   0.737   3.557   0.677
  285SOL    HW2 1170   0.675   3.582   0.746
  285SOL    HW3 1171   0.759   3.639   0.634
  285SOL    MW4 1172   0.731   3.571   0.680
  286SOL     OW 1173   0.688   3.840   0.786
  286SOL    HW2 1174   0.758   3.877   0.732
  286SOL    HW3 1175   0.616   3.902   0.778
  286SOL    MW4 1176   0.688   3.853   0.778
  287SOL     OW 1177   0.472   4.033   0.676
  287SOL    HW2 1178   0.482   4.123   0.707
  287SOL    HW3 1179   0.394   4.000   0.721
  287SOL    MW4 1180   0.463   4.040   0.686
  288SOL     OW 1181   0.469   4.279   0.798
  288SOL    HW2 1182   0.486   4.284   0.892
  288SOL    HW3 1183   0.392   4.333   0.784
  288SOL    MW4 1184   0.461   4.287   0.809
  289SOL     OW 1185   0.676   4.416   0.677
  289SOL    HW2 1186   0.600   4.362   0.700
  289SOL    HW3 1187   0.658   4.501   0.717
  289SOL    MW4 1188   0.664   4.420   0.686
  290SOL     OW 1189   1.133   4.600   0.834
  290SOL    HW2 1190   1.207   4.652   0.804
  290SOL    HW3 1191   1.056   4.654   0.814
  290SOL    MW4 1192   1.133   4.614   0.827
  291SOL     OW 1193   0.911   0.090   0.713
  291SOL    HW2 1194   0.918   0.176   0.754
  291SOL    HW3 1195   0.818   0.069   0.718
  291SOL    MW4 1196   0.899   0.099   0.719
  292SOL     OW 1197   0.872   0.338   0.808
  292SOL    HW2 1198   0.879   0.348   0.903
  292SOL    HW3 1199   0.926   0.408   0.772
  292SOL    MW4 1200   0.880   0.348   0.816
  293SOL     OW 1201   1.077   0.495   0.738
  293SOL    HW2 1202   1.148   0.457   0.790
  293SOL    HW3 1203   1.095   0.465   0.648
  293SOL    MW4 1204   1.089   0.486   0.733
  294SOL     OW 1205   1.152   0.751   0.793
  294SOL    HW2 1206   1.156   0.767   0.888
  294SOL    HW3 1207   1.129   0.659   0.786
  294SOL    MW4 1208   1.150   0.741   0.805
  295SOL     OW 1209   0.913   0.869   0.717
  295SOL    HW2 1210   0.987   0.825   0.757
  295SOL    HW3 1211   0.836   0.838   0.765
  295SOL    MW4 1212   0.912   0.859   0.729
  296SOL     OW 1213   0.932   1.141   0.809
  296SOL    HW2 1214   0.932   1.060   0.758
  296SOL    HW3 1215   0.847   1.182   0.790
  296SOL    MW4 1216   0.921   1.136   0.800
  297SOL     OW 1217   1.196   1.285   0.734
  297SOL    HW2 1218   1.106   1.257   0.746
  297SOL    HW3 1219   1.206   1.293   0.639
  297SOL    MW4 1220   1.185   1.283   0.723
  298SOL     OW 1221   1.142   1.537   0.807
  298SOL    HW2 1222   1.051   1.545   0.777
  298SOL    HW3 1223   1.172   1.454   0.771
  298SOL    MW4 1224   1.134   1.527   0.798
  299SOL     OW 1225   0.895   1.548   0.702
  299SOL    HW2 1226   0.896   1.636   0.664
  299SOL    HW3 1227   0.816   1.546   0.756
  299SOL    MW4 1228   0.885   1.560   0.704
  300SOL     OW 1229   0.875   1.982   0.798
  300SOL    HW2 1230   0.867   1.972   0.893
  300SOL    HW3 1231   0.791   2.019   0.771
  300SOL    MW4 1232   0.863   1.986   0.807
  301SOL     OW 1233   1.083   2.135   0.715
  301SOL    HW2 1234   1.084   2.212   0.772
  301SOL    HW3 1235   1.005   2.087   0.740
  301SOL    MW4 1236   1.073   2.139   0.726
  302SOL     OW 1237   1.094   2.389   0.824
  302SOL    HW2 1238   1.099   2.363   0.916
  302SOL    HW3 1239   1.186   2.395   0.796
  302SOL    MW4 1240   1.107   2.386   0.832
  303SOL     OW 1241   0.889   2.488   0.680
  303SOL    HW2 1242   0.961   2.440   0.721
  303SOL    HW3 1243   0.810   2.457   0.724
  303SOL    MW4 1244   0.888   2.478   0.691
  304SOL     OW 1245   0.933   2.729   0.828
  304SOL    HW2 1246   0.919   2.704   0.919
  304SOL    HW3 1247   0.910   2.651   0.778
  304SOL    MW4 1248   0.928   2.716   0.833
  305SOL     OW 1249   1.151   2.808   0.691
  305SOL    HW2 1250   1.120   2.897   0.675
  305SOL    HW3 1251   1.078   2.765   0.737
  305SOL    MW4 1252   1.137   2.814   0.695
  306SOL     OW 1253   0.952   3.173   0.813
  306SOL    HW2 1254   0.861   3.145   0.825
  306SOL    HW3 1255   0.949   3.268   0.814
  306SOL    MW4 1256   0.940   3.182   0.815
  307SOL     OW 1257   0.760   3.291   0.602
  307SOL    HW2 1258   0.755   3.384   0.622
  307SOL    HW3 1259   0.725   3.248   0.680
  307SOL    MW4 1260   0.755   3.298   0.615
  308SOL     OW 1261   0.938   3.443   0.844
  308SOL    HW2 1262   1.008   3.503   0.820
  308SOL    HW3 1263   0.862   3.475   0.795
  308SOL    MW4 1264   0.937   3.455   0.834
  309SOL     OW 1265   1.170   3.560   0.763
  309SOL    HW2 1266   1.260   3.537   0.784
  309SOL    HW3 1267   1.161   3.542   0.670
  309SOL    MW4 1268   1.180   3.555   0.754
  310SOL     OW 1269   1.137   3.834   0.754
  310SOL    HW2 1270   1.132   3.864   0.845
  310SOL    HW3 1271   1.141   3.739   0.759
  310SOL    MW4 1272   1.137   3.826   0.766
  311SOL     OW 1273   0.906   3.977   0.639
  311SOL    HW2 1274   0.900   4.066   0.672
  311SOL    HW3 1275   0.989   3.944   0.672
  311SOL    MW4 1276   0.916   3.984   0.648
  312SOL     OW 1277   0.895   4.217   0.779
  312SOL    HW2 1278   0.976   4.267   0.765
  312SOL    HW3 1279   0.826   4.271   0.739
  312SOL    MW4 1280   0.897   4.231   0.772
  313SOL     OW 1281   1.118   4.382   0.682
  313SOL    HW2 1282   1.192   4.344   0.729
  313SOL    HW3 1283   1.102   4.466   0.726
  313SOL    MW4 1284   1.125   4.388   0.694
  314SOL     OW 1285   1.589   4.640   0.818
  314SOL    HW2 1286   1.569   4.635   0.911
  314SOL    HW3 1287   1.507   4.667   0.777
  314SOL    MW4 1288   1.576   4.643   0.825
  315SOL     OW 1289   1.352   0.070   0.734
  315SOL    HW2 1290   1.343   0.163   0.756
  315SOL    HW3 1291   1.361   0.069   0.639
  315SOL    MW4 1292   1.352   0.082   0.724
  316SOL     OW 1293   1.307   0.337   0.811
  316SOL    HW2 1294   1.324   0.328   0.905
  316SOL    HW3 1295   1.368   0.405   0.782
  316SOL    MW4 1296   1.317   0.345   0.820
  317SOL     OW 1297   1.491   0.544   0.741
  317SOL    HW2 1298   1.486   0.634   0.773
  317SOL    HW3 1299   1.566   0.506   0.788
  317SOL    MW4 1300   1.500   0.551   0.752
  318SOL     OW 1301   1.511   0.796   0.835
  318SOL    HW2 1302   1.598   0.835   0.838
  318SOL    HW3 1303   1.456   0.862   0.792
  318SOL    MW4 1304   1.515   0.810   0.830
  319SOL     OW 1305   1.314   0.904   0.624
  319SOL    HW2 1306   1.336   0.982   0.676
  319SOL    HW3 1307   1.255   0.853   0.680
  319SOL    MW4 1308   1.309   0.908   0.638
  320SOL     OW 1309   1.392   1.102   0.808
  320SOL    HW2 1310   1.462   1.141   0.755
  320SOL    HW3 1311   1.320   1.165   0.803
  320SOL    MW4 1312   1.392   1.115   0.800
  321SOL     OW 1313   1.604   1.238   0.664
  321SOL    HW2 1314   1.615   1.332   0.650
  321SOL    HW3 1315   1.614   1.199   0.578
  321SOL    MW4 1316   1.607   1.245   0.651
  322SOL     OW 1317   1.728   1.611   0.858
  322SOL    HW2 1318   1.677   1.585   0.935
  322SOL    HW3 1319   1.819   1.609   0.889
  322SOL    MW4 1320   1.733   1.607   0.872
  323SOL     OW 1321   1.265   1.751   0.641
  323SOL    HW2 1322   1.291   1.818   0.704
  323SOL    HW3 1323   1.226   1.681   0.694
  323SOL    MW4 1324   1.264   1.750   0.656
  324SOL     OW 1325   1.328   2.021   0.772
  324SOL    HW2 1326   1.317   1.978   0.857
  324SOL    HW3 1327   1.242   2.058   0.753
  324SOL    MW4 1328   1.315   2.020   0.781
  325SOL     OW 1329   1.582   2.021   0.672
  325SOL    HW2 1330   1.573   2.039   0.579
  325SOL    HW3 1331   1.492   2.013   0.704
  325SOL    MW4 1332   1.569   2.022   0.664
  326SOL     OW 1333   1.575   2.258   0.846
  326SOL    HW2 1334   1.499   2.312   0.829
  326SOL    HW3 1335   1.565   2.183   0.787
  326SOL    MW4 1336   1.564   2.255   0.836
  327SOL     OW 1337   1.368   2.429   0.777
  327SOL    HW2 1338   1.387   2.516   0.812
  327SOL    HW3 1339   1.360   2.442   0.683
  327SOL    MW4 1340   1.369   2.442   0.769
  328SOL     OW 1341   1.423   2.684   0.849
  328SOL    HW2 1342   1.403   2.685   0.943
  328SOL    HW3 1343   1.348   2.728   0.809
  328SOL    MW4 1344   1.410   2.690   0.856
  329SOL     OW 1345   1.612   2.800   0.701
  329SOL    HW2 1346   1.626   2.886   0.739
  329SOL    HW3 1347   1.537   2.764   0.748
  329SOL    MW4 1348   1.604   2.807   0.712
  330SOL     OW 1349   1.610   3.064   0.801
  330SOL    HW2 1350   1.581   3.057   0.892
  330SOL    HW3 1351   1.546   3.122   0.759
  330SOL    MW4 1352   1.598   3.071   0.808
  331SOL     OW 1353   1.416   3.227   0.668
  331SOL    HW2 1354   1.339   3.170   0.656
  331SOL    HW3 1355   1.459   3.226   0.583
  331SOL    MW4 1356   1.411   3.219   0.656
  332SOL     OW 1357   1.416   3.475   0.846
  332SOL    HW2 1358   1.486   3.527   0.805
  332SOL    HW3 1359   1.429   3.387   0.812
  332SOL    MW4 1360   1.427   3.470   0.836
  333SOL     OW 1361   1.638   3.607   0.739
  333SOL    HW2 1362   1.704   3.546   0.771
  333SOL    HW3 1363   1.657   3.617   0.646
  333SOL    MW4 1364   1.649   3.601   0.731
  334SOL     OW 1365   1.603   3.879   0.823
  334SOL    HW2 1366   1.524   3.915   0.783
  334SOL    HW3 1367   1.612   3.793   0.784
  334SOL    MW4 1368   1.594   3.873   0.813
  335SOL     OW 1369   1.371   4.004   0.682
  335SOL    HW2 1370   1.287   3.959   0.694
  335SOL    HW3 1371   1.386   4.003   0.588
  335SOL    MW4 1372   1.362   3.998   0.671
  336SOL     OW 1373   1.357   4.272   0.803
  336SOL    HW2 1374   1.440   4.304   0.768
  336SOL    HW3 1375   1.359   4.178   0.786
  336SOL    MW4 1376   1.369   4.264   0.796
  337SOL     OW 1377   1.594   4.378   0.709
  337SOL    HW2 1378   1.679   4.336   0.721
  337SOL    HW3 1379   1.604   4.464   0.752
  337SOL    MW4 1380   1.606   4.384   0.716
  338SOL     OW 1381   1.795   0.173   0.790
  338SOL    HW2 1382   1.869   0.113   0.792
  338SOL    HW3 1383   1.718   0.116   0.790
  338SOL    MW4 1384   1.794   0.158   0.790
  339SOL     OW 1385   1.809   0.228   0.515
  339SOL    HW2 1386   1.716   0.238   0.496
  339SOL    HW3 1387   1.813   0.218   0.611
  339SOL    MW4 1388   1.797   0.228   0.525
  340SOL     OW 1389   1.715   0.428   0.845
  340SOL    HW2 1390   1.730   0.334   0.835
  340SOL    HW3 1391   1.797   0.469   0.818
  340SOL    MW4 1392   1.728   0.421   0.840
  341SOL     OW 1393   1.964   0.513   0.751
  341SOL    HW2 1394   1.947   0.494   0.659
  341SOL    HW3 1395   2.015   0.438   0.782
  341SOL    MW4 1396   1.969   0.501   0.743
  342SOL     OW 1397   1.998   0.773   0.839
  342SOL    HW2 1398   2.039   0.825   0.770
  342SOL    HW3 1399   1.993   0.684   0.803
  342SOL    MW4 1400   2.003   0.768   0.825
  343SOL     OW 1401   1.755   0.885   0.788
  343SOL    HW2 1402   1.773   0.979   0.789
  343SOL    HW3 1403   1.838   0.844   0.813
  343SOL    MW4 1404   1.768   0.892   0.792
  344SOL     OW 1405   1.806   1.160   0.833
  344SOL    HW2 1406   1.891   1.166   0.789
  344SOL    HW3 1407   1.745   1.204   0.774
  344SOL    MW4 1408   1.809   1.167   0.820
  345SOL     OW 1409   2.060   1.251   0.677
  345SOL    HW2 1410   2.145   1.228   0.714
  345SOL    HW3 1411   2.062   1.216   0.588
  345SOL    MW4 1412   2.071   1.243   0.670
  346SOL     OW 1413   2.005   1.517   0.754
  346SOL    HW2 1414   2.098   1.539   0.766
  346SOL    HW3 1415   2.003   1.421   0.750
  346SOL    MW4 1416   2.017   1.507   0.755
  347SOL     OW 1417   1.673   1.369   0.271
  347SOL    HW2 1418   1.755   1.359   0.223
  347SOL    HW3 1419   1.665   1.463   0.285
  347SOL    MW4 1420   1.683   1.380   0.267
  348SOL     OW 1421   1.759   1.905   0.852
  348SOL    HW2 1422   1.730   1.814   0.856
  348SOL    HW3 1423   1.698   1.947   0.791
  348SOL    MW4 1424   1.747   1.899   0.844
  349SOL     OW 1425   1.997   2.018   0.754
  349SOL    HW2 1426   2.003   2.106   0.792
  349SOL    HW3 1427   1.934   1.972   0.809
  349SOL    MW4 1428   1.990   2.024   0.766
  350SOL     OW 1429   2.017   2.296   0.859
  350SOL    HW2 1430   1.989   2.306   0.950
  350SOL    HW3 1431   1.947   2.336   0.808
  350SOL    MW4 1432   2.004   2.303   0.864
  351SOL     OW 1433   1.794   2.393   0.744
  351SOL    HW2 1434   1.722   2.337   0.774
  351SOL    HW3 1435   1.807   2.368   0.653
  351SOL    MW4 1436   1.786   2.382   0.736
  352SOL     OW 1437   1.800   2.658   0.835
  352SOL    HW2 1438   1.787   2.567   0.810
  352SOL    HW3 1439   1.745   2.708   0.776
  352SOL    MW4 1440   1.791   2.653   0.824
  353SOL     OW 1441   2.005   2.819   0.708
  353SOL    HW2 1442   2.083   2.765   0.722
  353SOL    HW3 1443   1.937   2.776   0.760
  353SOL    MW4 1444   2.006   2.806   0.717
  354SOL     OW 1445   2.056   3.051   0.869
  354SOL    HW2 1446   1.995   3.109   0.823
  354SOL    HW3 1447   2.047   2.967   0.824
  354SOL    MW4 1448   2.047   3.048   0.857
  355SOL     OW 1449   1.838   3.194   0.731
  355SOL    HW2 1450   1.760   3.146   0.759
  355SOL    HW3 1451   1.852   3.167   0.641
  355SOL    MW4 1452   1.829   3.184   0.723
  356SOL     OW 1453   1.817   3.431   0.858
  356SOL    HW2 1454   1.818   3.419   0.953
  356SOL    HW3 1455   1.813   3.342   0.823
  356SOL    MW4 1456   1.816   3.418   0.866
  357SOL     OW 1457   2.012   3.539   0.729
  357SOL    HW2 1458   2.002   3.628   0.762
  357SOL    HW3 1459   1.945   3.488   0.775
  357SOL    MW4 1460   2.002   3.544   0.739
  358SOL     OW 1461   2.006   3.796   0.842
  358SOL    HW2 1462   2.018   3.820   0.934
  358SOL    HW3 1463   1.934   3.851   0.812
  358SOL    MW4 1464   1.998   3.806   0.850
  359SOL     OW 1465   1.844   3.967   0.712
  359SOL    HW2 1466   1.758   3.931   0.728
  359SOL    HW3 1467   1.863   3.946   0.621
  359SOL    MW4 1468   1.835   3.960   0.702
  360SOL     OW 1469   1.838   4.247   0.791
  360SOL    HW2 1470   1.840   4.253   0.887
  360SOL    HW3 1471   1.835   4.153   0.773
  360SOL    MW4 1472   1.838   4.236   0.801
  361SOL     OW 1473   2.082   4.382   0.736
  361SOL    HW2 1474   2.004   4.329   0.751
  361SOL    HW3 1475   2.106   4.364   0.645
  361SOL    MW4 1476   2.075   4.373   0.726
  362SOL     OW 1477   2.682   0.112   0.766
  362SOL    HW2 1478   2.648   0.104   0.677
  362SOL    HW3 1479   2.643   0.193   0.800
  362SOL    MW4 1480   2.673   0.121   0.759
  363SOL     OW 1481   2.449   4.636   0.870
  363SOL    HW2 1482   2.531   4.679   0.844
  363SOL    HW3 1483   2.444   4.650   0.965
  363SOL    MW4 1484   2.459   4.644   0.879
  364SOL     OW 1485   2.169   0.344   0.831
  364SOL    HW2 1486   2.238   0.399   0.792
  364SOL    HW3 1487   2.196   0.254   0.811
  364SOL    MW4 1488   2.182   0.340   0.823
  365SOL     OW 1489   2.373   0.493   0.724
  365SOL    HW2 1490   2.380   0.499   0.628
  365SOL    HW3 1491   2.447   0.438   0.750
  365SOL    MW4 1492   2.384   0.487   0.715
  366SOL     OW 1493   2.173   0.736   0.374
  366SOL    HW2 1494   2.145   0.648   0.350
  366SOL    HW3 1495   2.268   0.735   0.364
  366SOL    MW4 1496   2.182   0.724   0.370
  367SOL     OW 1497   2.351   0.902   0.724
  367SOL    HW2 1498   2.395   0.828   0.765
  367SOL    HW3 1499   2.276   0.864   0.678
  367SOL    MW4 1500   2.347   0.887   0.723
  368SOL     OW 1501   2.278   1.166   0.806
  368SOL    HW2 1502   2.258   1.202   0.893
  368SOL    HW3 1503   2.277   1.071   0.819
  368SOL    MW4 1504   2.275   1.158   0.820
  369SOL     OW 1505   2.541   1.232   0.748
  369SOL    HW2 1506   2.450   1.205   0.762
  369SOL    HW3 1507   2.541   1.271   0.661
  369SOL    MW4 1508   2.529   1.233   0.738
  370SOL     OW 1509   2.546   1.495   0.861
  370SOL    HW2 1510   2.615   1.547   0.821
  370SOL    HW3 1511   2.546   1.413   0.812
  370SOL    MW4 1512   2.555   1.491   0.850
  371SOL     OW 1513   2.303   1.602   0.756
  371SOL    HW2 1514   2.383   1.572   0.799
  371SOL    HW3 1515   2.315   1.579   0.664
  371SOL    MW4 1516   2.315   1.595   0.750
  372SOL     OW 1517   2.228   1.880   0.837
  372SOL    HW2 1518   2.236   1.797   0.790
  372SOL    HW3 1519   2.161   1.929   0.789
  372SOL    MW4 1520   2.220   1.876   0.825
  373SOL     OW 1521   2.455   2.023   0.752
  373SOL    HW2 1522   2.382   1.975   0.790
  373SOL    HW3 1523   2.445   2.012   0.657
  373SOL    MW4 1524   2.444   2.016   0.744
  374SOL     OW 1525   2.481   2.282   0.859
  374SOL    HW2 1526   2.564   2.320   0.829
  374SOL    HW3 1527   2.474   2.199   0.813
  374SOL    MW4 1528   2.491   2.276   0.849
  375SOL     OW 1529   2.254   2.423   0.779
  375SOL    HW2 1530   2.327   2.380   0.824
  375SOL    HW3 1531   2.177   2.371   0.803
  375SOL    MW4 1532   2.254   2.410   0.788
  376SOL     OW 1533   2.237   2.700   0.830
  376SOL    HW2 1534   2.239   2.698   0.926
  376SOL    HW3 1535   2.236   2.608   0.804
  376SOL    MW4 1536   2.237   2.687   0.839
  377SOL     OW 1537   2.483   2.844   0.756
  377SOL    HW2 1538   2.554   2.780   0.765
  377SOL    HW3 1539   2.405   2.798   0.784
  377SOL    MW4 1540   2.482   2.830   0.761
  378SOL     OW 1541   2.486   3.090   0.841
  378SOL    HW2 1542   2.480   3.107   0.935
  378SOL    HW3 1543   2.479   2.995   0.833
  378SOL    MW4 1544   2.484   3.080   0.853
  379SOL     OW 1545   2.264   3.197   0.741
  379SOL    HW2 1546   2.194   3.148   0.783
  379SOL    HW3 1547   2.345   3.155   0.770
  379SOL    MW4 1548   2.266   3.185   0.750
  380SOL     OW 1549   2.263   3.453   0.816
  380SOL    HW2 1550   2.254   3.363   0.784
  380SOL    HW3 1551   2.186   3.498   0.782
  380SOL    MW4 1552   2.251   3.447   0.807
  381SOL     OW 1553   2.502   3.641   0.746
  381SOL    HW2 1554   2.582   3.599   0.776
  381SOL    HW3 1555   2.433   3.578   0.766
  381SOL    MW4 1556   2.503   3.628   0.753
  382SOL     OW 1557   2.480   3.915   0.836
  382SOL    HW2 1558   2.386   3.930   0.822
  382SOL    HW3 1559   2.495   3.827   0.801
  382SOL    MW4 1560   2.469   3.905   0.830
  383SOL     OW 1561   2.216   3.971   0.778
  383SOL    HW2 1562   2.149   3.905   0.800
  383SOL    HW3 1563   2.188   4.006   0.694
  383SOL    MW4 1564   2.203   3.967   0.770
  384SOL     OW 1565   2.284   4.212   0.839
  384SOL    HW2 1566   2.246   4.125   0.828
  384SOL    HW3 1567   2.217   4.271   0.805
  384SOL    MW4 1568   2.270   4.208   0.833
  385SOL     OW 1569   2.523   4.384   0.781
  385SOL    HW2 1570   2.445   4.329   0.790
  385SOL    HW3 1571   2.497   4.468   0.819
  385SOL    MW4 1572   2.509   4.388   0.787
  386SOL     OW 1573   2.904   4.645   0.860
  386SOL    HW2 1574   2.891   4.558   0.823
  386SOL    HW3 1575   2.834   4.698   0.822
  386SOL    MW4 1576   2.893   4.641   0.850
  387SOL     OW 1577   2.784   4.438   0.474
  387SOL    HW2 1578   2.867   4.475   0.443
  387SOL    HW3 1579   2.725   4.514   0.480
  387SOL    MW4 1580   2.787   4.453   0.471
  388SOL     OW 1581   2.580   0.355   0.841
  388SOL    HW2 1582   2.587   0.367   0.936
  388SOL    HW3 1583   2.661   0.392   0.806
  388SOL    MW4 1584   2.592   0.361   0.849
  389SOL     OW 1585   2.823   0.488   0.756
  389SOL    HW2 1586   2.901   0.445   0.794
  389SOL    HW3 1587   2.835   0.480   0.662
  389SOL    MW4 1588   2.835   0.481   0.749
  390SOL     OW 1589   2.792   0.754   0.808
  390SOL    HW2 1590   2.812   0.757   0.901
  390SOL    HW3 1591   2.803   0.662   0.784
  390SOL    MW4 1592   2.796   0.742   0.817
  391SOL     OW 1593   2.505   0.698   0.833
  391SOL    HW2 1594   2.600   0.705   0.824
  391SOL    HW3 1595   2.481   0.625   0.774
  391SOL    MW4 1596   2.514   0.689   0.824
  392SOL     OW 1597   2.685   1.017   0.671
  392SOL    HW2 1598   2.665   0.965   0.749
  392SOL    HW3 1599   2.638   1.099   0.684
  392SOL    MW4 1600   2.676   1.021   0.683
  393SOL     OW 1601   2.880   1.196   0.743
  393SOL    HW2 1602   2.963   1.154   0.766
  393SOL    HW3 1603   2.824   1.124   0.713
  393SOL    MW4 1604   2.884   1.181   0.742
  394SOL     OW 1605   2.912   1.446   0.829
  394SOL    HW2 1606   3.001   1.455   0.794
  394SOL    HW3 1607   2.887   1.357   0.806
  394SOL    MW4 1608   2.921   1.436   0.821
  395SOL     OW 1609   2.713   1.623   0.668
  395SOL    HW2 1610   2.738   1.707   0.707
  395SOL    HW3 1611   2.777   1.561   0.702
  395SOL    MW4 1612   2.725   1.626   0.678
  396SOL     OW 1613   2.697   1.878   0.808
  396SOL    HW2 1614   2.701   1.871   0.904
  396SOL    HW3 1615   2.616   1.925   0.791
  396SOL    MW4 1616   2.687   1.883   0.819
  397SOL     OW 1617   2.920   2.020   0.708
  397SOL    HW2 1618   2.956   2.074   0.779
  397SOL    HW3 1619   2.845   1.975   0.748
  397SOL    MW4 1620   2.915   2.021   0.723
  398SOL     OW 1621   2.948   2.285   0.840
  398SOL    HW2 1622   2.939   2.292   0.935
  398SOL    HW3 1623   2.860   2.305   0.806
  398SOL    MW4 1624   2.935   2.289   0.848
  399SOL     OW 1625   2.711   2.399   0.730
  399SOL    HW2 1626   2.680   2.408   0.640
  399SOL    HW3 1627   2.722   2.489   0.761
  399SOL    MW4 1628   2.708   2.412   0.722
  400SOL     OW 1629   2.722   2.646   0.853
  400SOL    HW2 1630   2.726   2.652   0.949
  400SOL    HW3 1631   2.792   2.704   0.822
  400SOL    MW4 1632   2.732   2.655   0.862
  401SOL     OW 1633   2.979   2.834   0.476
  401SOL    HW2 1634   3.050   2.770   0.466
  401SOL    HW3 1635   2.901   2.788   0.447
  401SOL    MW4 1636   2.978   2.819   0.470
  402SOL     OW 1637   2.922   3.103   0.800
  402SOL    HW2 1638   2.839   3.131   0.760
  402SOL    HW3 1639   2.928   3.010   0.780
  402SOL    MW4 1640   2.911   3.095   0.792
  403SOL     OW 1641   2.688   3.233   0.687
  403SOL    HW2 1642   2.689   3.324   0.716
  403SOL    HW3 1643   2.611   3.195   0.729
  403SOL    MW4 1644   2.678   3.240   0.697
  404SOL     OW 1645   2.741   3.482   0.810
  404SOL    HW2 1646   2.739   3.489   0.906
  404SOL    HW3 1647   2.808   3.544   0.783
  404SOL    MW4 1648   2.750   3.491   0.819
  405SOL     OW 1649   2.942   3.677   0.733
  405SOL    HW2 1650   2.941   3.764   0.773
  405SOL    HW3 1651   2.962   3.693   0.641
  405SOL    MW4 1652   2.945   3.691   0.726
  406SOL     OW 1653   2.921   3.947   0.819
  406SOL    HW2 1654   2.923   3.944   0.914
  406SOL    HW3 1655   2.830   3.969   0.798
  406SOL    MW4 1656   2.909   3.949   0.829
  407SOL     OW 1657   2.676   4.119   0.830
  407SOL    HW2 1658   2.670   4.168   0.912
  407SOL    HW3 1659   2.603   4.057   0.834
  407SOL    MW4 1660   2.665   4.118   0.841
  408SOL     OW 1661   2.862   4.378   0.821
  408SOL    HW2 1662   2.814   4.344   0.897
  408SOL    HW3 1663   2.953   4.359   0.840
  408SOL    MW4 1664   2.867   4.371   0.834
  409SOL     OW 1665   3.198   4.356   0.567
  409SOL    HW2 1666   3.251   4.337   0.490
  409SOL    HW3 1667   3.166   4.271   0.596
  409SOL    MW4 1668   3.200   4.342   0.560
  410SOL     OW 1669   3.413   0.057   0.849
  410SOL    HW2 1670   3.404   0.029   0.940
  410SOL    HW3 1671   3.327   0.092   0.826
  410SOL    MW4 1672   3.401   0.058   0.858
  411SOL     OW 1673   3.130   0.130   0.793
  411SOL    HW2 1674   3.103   0.219   0.813
  411SOL    HW3 1675   3.060   0.075   0.830
  411SOL    MW4 1676   3.117   0.134   0.801
  412SOL     OW 1677   3.072   0.388   0.843
  412SOL    HW2 1678   3.091   0.384   0.937
  412SOL    HW3 1679   3.141   0.442   0.806
  412SOL    MW4 1680   3.083   0.394   0.850
  413SOL     OW 1681   3.395   0.431   0.759
  413SOL    HW2 1682   3.476   0.395   0.794
  413SOL    HW3 1683   3.412   0.440   0.665
  413SOL    MW4 1684   3.408   0.427   0.751
  414SOL     OW 1685   3.348   0.697   0.775
  414SOL    HW2 1686   3.270   0.704   0.719
  414SOL    HW3 1687   3.371   0.604   0.773
  414SOL    MW4 1688   3.341   0.686   0.767
  415SOL     OW 1689   2.966   0.869   0.643
  415SOL    HW2 1690   3.008   0.910   0.719
  415SOL    HW3 1691   2.886   0.830   0.678
  415SOL    MW4 1692   2.961   0.869   0.658
  416SOL     OW 1693   3.112   1.029   0.810
  416SOL    HW2 1694   3.129   1.031   0.904
  416SOL    HW3 1695   3.173   1.094   0.774
  416SOL    MW4 1696   3.122   1.038   0.817
  417SOL     OW 1697   3.286   1.221   0.721
  417SOL    HW2 1698   3.350   1.207   0.791
  417SOL    HW3 1699   3.262   1.314   0.727
  417SOL    MW4 1700   3.291   1.231   0.731
  418SOL     OW 1701   3.408   1.613   0.838
  418SOL    HW2 1702   3.405   1.571   0.924
  418SOL    HW3 1703   3.491   1.583   0.800
  418SOL    MW4 1704   3.419   1.603   0.845
  419SOL     OW 1705   3.189   1.485   0.722
  419SOL    HW2 1706   3.257   1.536   0.767
  419SOL    HW3 1707   3.154   1.545   0.656
  419SOL    MW4 1708   3.193   1.500   0.719
  420SOL     OW 1709   3.277   1.852   0.830
  420SOL    HW2 1710   3.231   1.867   0.913
  420SOL    HW3 1711   3.317   1.766   0.841
  420SOL    MW4 1712   3.276   1.843   0.843
  421SOL     OW 1713   3.529   1.985   0.848
  421SOL    HW2 1714   3.503   2.076   0.863
  421SOL    HW3 1715   3.447   1.940   0.828
  421SOL    MW4 1716   3.515   1.991   0.848
  422SOL     OW 1717   3.457   2.257   0.842
  422SOL    HW2 1718   3.439   2.292   0.929
  422SOL    HW3 1719   3.549   2.277   0.826
  422SOL    MW4 1720   3.466   2.264   0.851
  423SOL     OW 1721   3.120   2.472   0.706
  423SOL    HW2 1722   3.189   2.413   0.676
  423SOL    HW3 1723   3.059   2.415   0.753
  423SOL    MW4 1724   3.121   2.457   0.709
  424SOL     OW 1725   3.171   2.708   0.848
  424SOL    HW2 1726   3.162   2.622   0.808
  424SOL    HW3 1727   3.259   2.737   0.824
  424SOL    MW4 1728   3.181   2.701   0.840
  425SOL     OW 1729   3.392   2.860   0.766
  425SOL    HW2 1730   3.337   2.886   0.692
  425SOL    HW3 1731   3.473   2.829   0.726
  425SOL    MW4 1732   3.395   2.859   0.751
  426SOL     OW 1733   3.360   3.110   0.877
  426SOL    HW2 1734   3.350   3.095   0.971
  426SOL    HW3 1735   3.373   3.023   0.840
  426SOL    MW4 1736   3.360   3.096   0.885
  427SOL     OW 1737   3.165   3.250   0.780
  427SOL    HW2 1738   3.227   3.184   0.811
  427SOL    HW3 1739   3.079   3.214   0.803
  427SOL    MW4 1740   3.162   3.237   0.787
  428SOL     OW 1741   3.180   3.511   0.815
  428SOL    HW2 1742   3.183   3.418   0.791
  428SOL    HW3 1743   3.094   3.541   0.786
  428SOL    MW4 1744   3.169   3.503   0.808
  429SOL     OW 1745   3.325   4.256   0.349
  429SOL    HW2 1746   3.355   4.174   0.389
  429SOL    HW3 1747   3.404   4.307   0.335
  429SOL    MW4 1748   3.339   4.252   0.352
  430SOL     OW 1749   3.333   4.027   0.851
  430SOL    HW2 1750   3.408   4.086   0.856
  430SOL    HW3 1751   3.343   3.968   0.925
  430SOL    MW4 1752   3.344   4.027   0.861
  431SOL     OW 1753   3.102   4.131   0.698
  431SOL    HW2 1754   3.174   4.094   0.750
  431SOL    HW3 1755   3.023   4.107   0.747
  431SOL    MW4 1756   3.101   4.123   0.711
  432SOL     OW 1757   3.140   4.366   0.870
  432SOL    HW2 1758   3.222   4.416   0.872
  432SOL    HW3 1759   3.155   4.299   0.802
  432SOL    MW4 1760   3.153   4.364   0.861
  433SOL     OW 1761   3.393   4.457   0.774
  433SOL    HW2 1762   3.391   4.549   0.800
  433SOL    HW3 1763   3.363   4.457   0.683
  433SOL    MW4 1764   3.389   4.469   0.765
  434SOL     OW 1765   3.909   0.044   0.842
  434SOL    HW2 1766   3.895   0.138   0.858
  434SOL    HW3 1767   3.828   0.015   0.800
  434SOL    MW4 1768   3.896   0.053   0.839
  435SOL     OW 1769   3.676   0.060   0.693
  435SOL    HW2 1770   3.585   0.063   0.722
  435SOL    HW3 1771   3.691   0.143   0.648
  435SOL    MW4 1772   3.666   0.071   0.691
  436SOL     OW 1773   3.589   0.281   0.887
  436SOL    HW2 1774   3.572   0.316   0.975
  436SOL    HW3 1775   3.538   0.200   0.885
  436SOL    MW4 1776   3.580   0.275   0.899
  437SOL     OW 1777   3.737   0.339   0.522
  437SOL    HW2 1778   3.796   0.379   0.585
  437SOL    HW3 1779   3.658   0.391   0.526
  437SOL    MW4 1780   3.735   0.351   0.531
  438SOL     OW 1781   3.802   0.756   0.807
  438SOL    HW2 1782   3.790   0.751   0.901
  438SOL    HW3 1783   3.872   0.819   0.794
  438SOL    MW4 1784   3.809   0.764   0.817
  439SOL     OW 1785   3.553   0.889   0.724
  439SOL    HW2 1786   3.631   0.836   0.741
  439SOL    HW3 1787   3.481   0.826   0.724
  439SOL    MW4 1788   3.554   0.873   0.726
  440SOL     OW 1789   3.544   1.132   0.864
  440SOL    HW2 1790   3.535   1.113   0.957
  440SOL    HW3 1791   3.534   1.047   0.821
  440SOL    MW4 1792   3.541   1.118   0.870
  441SOL     OW 1793   3.780   1.269   0.781
  441SOL    HW2 1794   3.708   1.215   0.814
  441SOL    HW3 1795   3.771   1.263   0.685
  441SOL    MW4 1796   3.769   1.261   0.773
  442SOL     OW 1797   3.827   1.520   0.874
  442SOL    HW2 1798   3.905   1.559   0.836
  442SOL    HW3 1799   3.822   1.433   0.835
  442SOL    MW4 1800   3.836   1.514   0.864
  443SOL     OW 1801   3.648   1.607   0.697
  443SOL    HW2 1802   3.665   1.700   0.683
  443SOL    HW3 1803   3.709   1.582   0.767
  443SOL    MW4 1804   3.659   1.616   0.705
  444SOL     OW 1805   3.870   2.030   0.616
  444SOL    HW2 1806   3.927   1.993   0.683
  444SOL    HW3 1807   3.791   1.976   0.618
  444SOL    MW4 1808   3.867   2.018   0.625
  445SOL     OW 1809   3.827   2.325   0.581
  445SOL    HW2 1810   3.785   2.339   0.666
  445SOL    HW3 1811   3.805   2.235   0.557
  445SOL    MW4 1812   3.818   2.315   0.589
  446SOL     OW 1813   4.042   1.667   0.487
  446SOL    HW2 1814   3.951   1.644   0.470
  446SOL    HW3 1815   4.055   1.751   0.442
  446SOL    MW4 1816   4.032   1.675   0.479
  447SOL     OW 1817   3.727   2.350   0.857
  447SOL    HW2 1818   3.738   2.444   0.867
  447SOL    HW3 1819   3.770   2.312   0.933
  447SOL    MW4 1820   3.734   2.357   0.868
  448SOL     OW 1821   3.738   2.626   0.876
  448SOL    HW2 1822   3.703   2.648   0.963
  448SOL    HW3 1823   3.820   2.675   0.870
  448SOL    MW4 1824   3.744   2.635   0.887
  449SOL     OW 1825   3.809   2.944   0.829
  449SOL    HW2 1826   3.744   3.011   0.848
  449SOL    HW3 1827   3.839   2.964   0.740
  449SOL    MW4 1828   3.805   2.955   0.819
  450SOL     OW 1829   3.639   3.169   0.879
  450SOL    HW2 1830   3.647   3.262   0.857
  450SOL    HW3 1831   3.552   3.160   0.917
  450SOL    MW4 1832   3.629   3.180   0.881
  451SOL     OW 1833   3.344   3.592   0.605
  451SOL    HW2 1834   3.402   3.517   0.591
  451SOL    HW3 1835   3.304   3.576   0.690
  451SOL    MW4 1836   3.346   3.580   0.614
  452SOL     OW 1837   3.663   3.436   0.794
  452SOL    HW2 1838   3.748   3.429   0.751
  452SOL    HW3 1839   3.600   3.417   0.725
  452SOL    MW4 1840   3.666   3.433   0.779
  453SOL     OW 1841   3.884   3.878   0.586
  453SOL    HW2 1842   3.870   3.829   0.667
  453SOL    HW3 1843   3.877   3.812   0.517
  453SOL    MW4 1844   3.881   3.863   0.588
  454SOL     OW 1845   3.836   3.718   0.813
  454SOL    HW2 1846   3.767   3.653   0.798
  454SOL    HW3 1847   3.916   3.668   0.822
  454SOL    MW4 1848   3.837   3.703   0.812
  455SOL     OW 1849   2.640   3.995   0.245
  455SOL    HW2 1850   2.617   4.086   0.263
  455SOL    HW3 1851   2.688   3.967   0.324
  455SOL    MW4 1852   2.643   4.003   0.258
  456SOL     OW 1853   3.525   4.235   0.858
  456SOL    HW2 1854   3.604   4.238   0.804
  456SOL    HW3 1855   3.477   4.315   0.836
  456SOL    MW4 1856   3.529   4.246   0.848
  457SOL     OW 1857   4.031   4.209   0.827
  457SOL    HW2 1858   3.943   4.228   0.793
  457SOL    HW3 1859   4.086   4.278   0.790
  457SOL    MW4 1860   4.027   4.221   0.817
  458SOL     OW 1861   4.180   0.010   0.819
  458SOL    HW2 1862   4.214   0.002   0.909
  458SOL    HW3 1863   4.087   0.028   0.830
  458SOL    MW4 1864   4.172   0.011   0.832
  459SOL     OW 1865   3.888   0.325   0.917
  459SOL    HW2 1866   3.906   0.396   0.855
  459SOL    HW3 1867   3.793   0.314   0.914
  459SOL    MW4 1868   3.878   0.333   0.908
  460SOL     OW 1869   3.944   0.528   0.736
  460SOL    HW2 1870   4.037   0.548   0.742
  460SOL    HW3 1871   3.900   0.608   0.765
  460SOL    MW4 1872   3.950   0.541   0.741
  461SOL     OW 1873   4.234   0.569   0.731
  461SOL    HW2 1874   4.240   0.553   0.637
  461SOL    HW3 1875   4.283   0.498   0.771
  461SOL    MW4 1876   4.241   0.558   0.724
  462SOL     OW 1877   4.264   0.817   0.886
  462SOL    HW2 1878   4.185   0.864   0.858
  462SOL    HW3 1879   4.264   0.738   0.833
  462SOL    MW4 1880   4.254   0.813   0.875
  463SOL     OW 1881   4.017   0.924   0.787
  463SOL    HW2 1882   4.010   1.016   0.812
  463SOL    HW3 1883   4.039   0.926   0.694
  463SOL    MW4 1884   4.019   0.937   0.778
  464SOL     OW 1885   4.033   1.198   0.853
  464SOL    HW2 1886   4.035   1.205   0.948
  464SOL    HW3 1887   3.943   1.218   0.828
  464SOL    MW4 1888   4.022   1.202   0.862
  465SOL     OW 1889   4.263   1.258   0.698
  465SOL    HW2 1890   4.185   1.228   0.744
  465SOL    HW3 1891   4.336   1.229   0.753
  465SOL    MW4 1892   4.263   1.250   0.711
  466SOL     OW 1893   4.276   1.525   0.809
  466SOL    HW2 1894   4.278   1.519   0.905
  466SOL    HW3 1895   4.266   1.435   0.780
  466SOL    MW4 1896   4.275   1.512   0.818
  467SOL     OW 1897   4.035   1.662   0.768
  467SOL    HW2 1898   4.117   1.618   0.790
  467SOL    HW3 1899   4.030   1.660   0.673
  467SOL    MW4 1900   4.045   1.656   0.758
  468SOL     OW 1901   4.038   1.939   0.807
  468SOL    HW2 1902   4.025   1.844   0.809
  468SOL    HW3 1903   4.115   1.952   0.753
  468SOL    MW4 1904   4.046   1.928   0.800
  469SOL     OW 1905   4.264   2.015   0.659
  469SOL    HW2 1906   4.331   1.956   0.694
  469SOL    HW3 1907   4.284   2.021   0.565
  469SOL    MW4 1908   4.275   2.008   0.651
  470SOL     OW 1909   4.226   2.272   0.796
  470SOL    HW2 1910   4.176   2.320   0.731
  470SOL    HW3 1911   4.226   2.182   0.765
  470SOL    MW4 1912   4.220   2.266   0.783
  471SOL     OW 1913   4.046   2.678   0.587
  471SOL    HW2 1914   4.028   2.711   0.676
  471SOL    HW3 1915   3.968   2.701   0.537
  471SOL    MW4 1916   4.033   2.686   0.592
  472SOL     OW 1917   4.009   2.764   0.853
  472SOL    HW2 1918   4.094   2.799   0.827
  472SOL    HW3 1919   3.952   2.841   0.859
  472SOL    MW4 1920   4.013   2.779   0.851
  473SOL     OW 1921   4.263   2.844   0.742
  473SOL    HW2 1922   4.336   2.801   0.786
  473SOL    HW3 1923   4.271   2.818   0.650
  473SOL    MW4 1924   4.273   2.835   0.736
  474SOL     OW 1925   4.284   3.107   0.803
  474SOL    HW2 1926   4.286   3.017   0.771
  474SOL    HW3 1927   4.369   3.143   0.775
  474SOL    MW4 1928   4.296   3.100   0.795
  475SOL     OW 1929   4.084   3.191   0.645
  475SOL    HW2 1930   4.027   3.262   0.674
  475SOL    HW3 1931   4.135   3.169   0.723
  475SOL    MW4 1932   4.083   3.197   0.659
  476SOL     OW 1933   4.071   3.569   0.812
  476SOL    HW2 1934   4.089   3.545   0.903
  476SOL    HW3 1935   4.155   3.563   0.768
  476SOL    MW4 1936   4.084   3.565   0.818
  477SOL     OW 1937   4.332   3.585   0.688
  477SOL    HW2 1938   4.342   3.679   0.705
  477SOL    HW3 1939   4.324   3.579   0.592
  477SOL    MW4 1940   4.332   3.597   0.677
  478SOL     OW 1941   4.319   3.851   0.796
  478SOL    HW2 1942   4.312   3.839   0.891
  478SOL    HW3 1943   4.231   3.878   0.769
  478SOL    MW4 1944   4.306   3.853   0.805
  479SOL     OW 1945   3.661   4.013   0.620
  479SOL    HW2 1946   3.738   3.959   0.602
  479SOL    HW3 1947   3.592   3.950   0.640
  479SOL    MW4 1948   3.662   3.998   0.620
  480SOL     OW 1949   4.117   3.992   0.666
  480SOL    HW2 1950   4.081   4.061   0.722
  480SOL    HW3 1951   4.040   3.952   0.626
  480SOL    MW4 1952   4.102   3.995   0.668
  481SOL     OW 1953   4.215   4.428   0.683
  481SOL    HW2 1954   4.209   4.511   0.730
  481SOL    HW3 1955   4.279   4.377   0.732
  481SOL    MW4 1956   4.223   4.432   0.695
  482SOL     OW 1957   0.228   4.637   1.122
  482SOL    HW2 1958   0.307   4.688   1.140
  482SOL    HW3 1959   0.210   4.653   1.029
  482SOL    MW4 1960   0.236   4.646   1.112
  483SOL     OW 1961   0.003   0.118   1.222
  483SOL    HW2 1962  -0.063   0.057   1.189
  483SOL    HW3 1963   0.087   0.079   1.197
  483SOL    MW4 1964   0.005   0.105   1.214
  484SOL     OW 1965   4.449   0.366   1.099
  484SOL    HW2 1966   4.391   0.429   1.141
  484SOL    HW3 1967   4.453   0.292   1.160
  484SOL    MW4 1968   4.442   0.365   1.113
  485SOL     OW 1969   0.193   0.463   1.209
  485SOL    HW2 1970   0.195   0.557   1.191
  485SOL    HW3 1971   0.111   0.433   1.170
  485SOL    MW4 1972   0.183   0.472   1.201
  486SOL     OW 1973   0.212   0.728   1.125
  486SOL    HW2 1974   0.281   0.794   1.127
  486SOL    HW3 1975   0.131   0.778   1.138
  486SOL    MW4 1976   0.210   0.744   1.127
  487SOL     OW 1977   0.002   0.920   1.211
  487SOL    HW2 1978   0.011   0.922   1.307
  487SOL    HW3 1979  -0.082   0.876   1.196
  487SOL    MW4 1980  -0.008   0.915   1.222
  488SOL     OW 1981   4.474   1.187   1.116
  488SOL    HW2 1982   4.401   1.219   1.169
  488SOL    HW3 1983   4.496   1.102   1.152
  488SOL    MW4 1984   4.467   1.180   1.127
  489SOL     OW 1985   0.220   1.309   1.198
  489SOL    HW2 1986   0.292   1.253   1.168
  489SOL    HW3 1987   0.141   1.264   1.171
  489SOL    MW4 1988   0.219   1.296   1.191
  490SOL     OW 1989   0.242   1.565   1.085
  490SOL    HW2 1990   0.246   1.480   1.130
  490SOL    HW3 1991   0.223   1.542   0.994
  490SOL    MW4 1992   0.240   1.550   1.079
  491SOL     OW 1993   0.009   1.693   1.164
  491SOL    HW2 1994   0.013   1.782   1.129
  491SOL    HW3 1995   0.099   1.660   1.156
  491SOL    MW4 1996   0.022   1.700   1.158
  492SOL     OW 1997   0.030   1.943   1.051
  492SOL    HW2 1998  -0.045   1.989   1.089
  492SOL    HW3 1999  -0.003   1.911   0.967
  492SOL    MW4 2000   0.016   1.945   1.045
  493SOL     OW 2001   0.272   2.047   1.167
  493SOL    HW2 2002   0.257   2.141   1.181
  493SOL    HW3 2003   0.186   2.013   1.144
  493SOL    MW4 2004   0.259   2.055   1.166
  494SOL     OW 2005   0.232   2.309   1.169
  494SOL    HW2 2006   0.317   2.353   1.179
  494SOL    HW3 2007   0.167   2.378   1.180
  494SOL    MW4 2008   0.235   2.324   1.172
  495SOL     OW 2009   0.013   2.474   1.168
  495SOL    HW2 2010  -0.005   2.468   1.262
  495SOL    HW3 2011  -0.053   2.417   1.128
  495SOL    MW4 2012   0.002   2.466   1.175
  496SOL     OW 2013   0.032   2.740   1.145
  496SOL    HW2 2014  -0.046   2.781   1.183
  496SOL    HW3 2015   0.015   2.646   1.153
  496SOL    MW4 2016   0.020   2.733   1.151
  497SOL     OW 2017   0.282   2.882   1.202
  497SOL    HW2 2018   0.266   2.878   1.297
  497SOL    HW3 2019   0.213   2.827   1.164
  497SOL    MW4 2020   0.271   2.874   1.210
  498SOL     OW 2021   0.257   3.129   1.078
  498SOL    HW2 2022   0.330   3.183   1.109
  498SOL    HW3 2023   0.266   3.046   1.124
  498SOL    MW4 2024   0.268   3.125   1.088
  499SOL     OW 2025   0.033   3.244   1.222
  499SOL    HW2 2026  -0.037   3.203   1.172
  499SOL    HW3 2027   0.113   3.222   1.174
  499SOL    MW4 2028   0.035   3.236   1.209
  500SOL     OW 2029   0.000   3.499   1.101
  500SOL    HW2 2030   0.021   3.415   1.142
  500SOL    HW3 2031  -0.001   3.479   1.007
  500SOL    MW4 2032   0.003   3.485   1.094
  501SOL     OW 2033   0.244   3.644   1.176
  501SOL    HW2 2034   0.237   3.638   1.271
  501SOL    HW3 2035   0.165   3.600   1.144
  501SOL    MW4 2036   0.232   3.637   1.185
  502SOL     OW 2037   0.277   3.903   1.073
  502SOL    HW2 2038   0.190   3.936   1.095
  502SOL    HW3 2039   0.275   3.811   1.099
  502SOL    MW4 2040   0.265   3.895   1.079
  503SOL     OW 2041   4.482   3.990   1.139
  503SOL    HW2 2042   4.474   3.977   1.234
  503SOL    HW3 2043   4.413   3.935   1.102
  503SOL    MW4 2044   4.472   3.981   1.147
  504SOL     OW 2045   4.482   4.265   1.082
  504SOL    HW2 2046   4.567   4.301   1.107
  504SOL    HW3 2047   4.492   4.171   1.089
  504SOL    MW4 2048   4.495   4.258   1.086
  505SOL     OW 2049   0.235   4.358   1.183
  505SOL    HW2 2050   0.242   4.354   1.279
  505SOL    HW3 2051   0.231   4.452   1.163
  505SOL    MW4 2052   0.235   4.370   1.193
  506SOL     OW 2053   0.652   0.012   1.090
  506SOL    HW2 2054   0.740   0.045   1.108
  506SOL    HW3 2055   0.650  -0.075   1.131
  506SOL    MW4 2056   0.663   0.005   1.097
  507SOL     OW 2057   0.419   0.133   1.189
  507SOL    HW2 2058   0.428   0.220   1.151
  507SOL    HW3 2059   0.493   0.084   1.154
  507SOL    MW4 2060   0.430   0.138   1.179
  508SOL     OW 2061   0.439   0.402   1.101
  508SOL    HW2 2062   0.351   0.419   1.135
  508SOL    HW3 2063   0.427   0.397   1.006
  508SOL    MW4 2064   0.426   0.403   1.093
  509SOL     OW 2065   0.655   0.540   1.226
  509SOL    HW2 2066   0.681   0.622   1.185
  509SOL    HW3 2067   0.577   0.513   1.178
  509SOL    MW4 2068   0.648   0.547   1.214
  510SOL     OW 2069   0.693   0.776   1.110
  510SOL    HW2 2070   0.610   0.824   1.114
  510SOL    HW3 2071   0.703   0.752   1.018
  510SOL    MW4 2072   0.683   0.779   1.099
  511SOL     OW 2073   0.433   0.894   1.187
  511SOL    HW2 2074   0.452   0.868   1.277
  511SOL    HW3 2075   0.432   0.990   1.190
  511SOL    MW4 2076   0.436   0.904   1.199
  512SOL     OW 2077   0.438   1.169   1.132
  512SOL    HW2 2078   0.515   1.227   1.139
  512SOL    HW3 2079   0.429   1.151   1.039
  512SOL    MW4 2080   0.447   1.175   1.121
  513SOL     OW 2081   0.677   1.291   1.215
  513SOL    HW2 2082   0.732   1.226   1.173
  513SOL    HW3 2083   0.688   1.370   1.162
  513SOL    MW4 2084   0.686   1.293   1.203
  514SOL     OW 2085   0.677   1.540   1.083
  514SOL    HW2 2086   0.755   1.578   1.124
  514SOL    HW3 2087   0.604   1.581   1.129
  514SOL    MW4 2088   0.678   1.551   1.095
  515SOL     OW 2089   0.471   1.665   1.192
  515SOL    HW2 2090   0.446   1.668   1.285
  515SOL    HW3 2091   0.395   1.626   1.148
  515SOL    MW4 2092   0.458   1.660   1.199
  516SOL     OW 2093   0.484   1.907   1.074
  516SOL    HW2 2094   0.485   1.818   1.108
  516SOL    HW3 2095   0.408   1.948   1.116
  516SOL    MW4 2096   0.474   1.901   1.084
  517SOL     OW 2097   0.689   2.066   1.185
  517SOL    HW2 2098   0.697   2.032   1.274
  517SOL    HW3 2099   0.608   2.027   1.152
  517SOL    MW4 2100   0.679   2.056   1.192
  518SOL     OW 2101   0.690   2.320   1.077
  518SOL    HW2 2102   0.621   2.359   1.131
  518SOL    HW3 2103   0.698   2.230   1.109
  518SOL    MW4 2104   0.682   2.313   1.088
  519SOL     OW 2105   0.471   2.426   1.215
  519SOL    HW2 2106   0.486   2.438   1.309
  519SOL    HW3 2107   0.467   2.514   1.179
  519SOL    MW4 2108   0.473   2.439   1.223
  520SOL     OW 2109   0.472   2.690   1.132
  520SOL    HW2 2110   0.414   2.753   1.175
  520SOL    HW3 2111   0.475   2.719   1.041
  520SOL    MW4 2112   0.465   2.702   1.125
  521SOL     OW 2113   0.706   2.861   1.199
  521SOL    HW2 2114   0.686   2.952   1.178
  521SOL    HW3 2115   0.620   2.818   1.204
  521SOL    MW4 2116   0.692   2.867   1.197
  522SOL     OW 2117   0.664   3.135   1.149
  522SOL    HW2 2118   0.744   3.181   1.175
  522SOL    HW3 2119   0.672   3.123   1.055
  522SOL    MW4 2120   0.675   3.140   1.140
  523SOL     OW 2121   0.447   3.276   1.219
  523SOL    HW2 2122   0.439   3.353   1.164
  523SOL    HW3 2123   0.531   3.238   1.194
  523SOL    MW4 2124   0.457   3.281   1.208
  524SOL     OW 2125   0.465   3.516   1.073
  524SOL    HW2 2126   0.541   3.536   1.128
  524SOL    HW3 2127   0.392   3.563   1.114
  524SOL    MW4 2128   0.465   3.525   1.085
  525SOL     OW 2129   0.697   3.639   1.176
  525SOL    HW2 2130   0.708   3.644   1.271
  525SOL    HW3 2131   0.722   3.726   1.144
  525SOL    MW4 2132   0.702   3.651   1.184
  526SOL     OW 2133   0.724   3.900   1.072
  526SOL    HW2 2134   0.643   3.939   1.104
  526SOL    HW3 2135   0.708   3.888   0.978
  526SOL    MW4 2136   0.711   3.904   1.064
  527SOL     OW 2137   0.493   4.018   1.192
  527SOL    HW2 2138   0.492   4.104   1.150
  527SOL    HW3 2139   0.420   3.971   1.153
  527SOL    MW4 2140   0.483   4.023   1.181
  528SOL     OW 2141   0.470   4.272   1.089
  528SOL    HW2 2142   0.529   4.324   1.142
  528SOL    HW3 2143   0.382   4.296   1.120
  528SOL    MW4 2144   0.466   4.282   1.100
  529SOL     OW 2145   0.678   4.426   1.197
  529SOL    HW2 2146   0.694   4.417   1.291
  529SOL    HW3 2147   0.749   4.376   1.156
  529SOL    MW4 2148   0.689   4.418   1.204
  530SOL     OW 2149   1.079   4.615   1.116
  530SOL    HW2 2150   1.059   4.527   1.148
  530SOL    HW3 2151   1.107   4.602   1.025
  530SOL    MW4 2152   1.080   4.601   1.108
  531SOL     OW 2153   0.890   0.139   1.160
  531SOL    HW2 2154   0.897   0.127   1.255
  531SOL    HW3 2155   0.958   0.082   1.124
  531SOL    MW4 2156   0.900   0.130   1.168
  532SOL     OW 2157   0.854   0.400   1.077
  532SOL    HW2 2158   0.873   0.311   1.108
  532SOL    HW3 2159   0.785   0.431   1.135
  532SOL    MW4 2160   0.848   0.392   1.089
  533SOL     OW 2161   1.124   0.497   1.156
  533SOL    HW2 2162   1.130   0.502   1.252
  533SOL    HW3 2163   1.034   0.471   1.139
  533SOL    MW4 2164   1.113   0.494   1.167
  534SOL     OW 2165   1.121   0.746   1.058
  534SOL    HW2 2166   1.058   0.802   1.105
  534SOL    HW3 2167   1.116   0.662   1.103
  534SOL    MW4 2168   1.112   0.742   1.070
  535SOL     OW 2169   0.944   0.902   1.193
  535SOL    HW2 2170   0.923   0.988   1.156
  535SOL    HW3 2171   0.874   0.844   1.162
  535SOL    MW4 2172   0.932   0.906   1.184
  536SOL     OW 2173   0.879   1.138   1.091
  536SOL    HW2 2174   0.955   1.185   1.124
  536SOL    HW3 2175   0.894   1.129   0.997
  536SOL    MW4 2176   0.891   1.143   1.083
  537SOL     OW 2177   1.114   1.263   1.167
  537SOL    HW2 2178   1.114   1.290   1.259
  537SOL    HW3 2179   1.195   1.213   1.157
  537SOL    MW4 2180   1.125   1.260   1.178
  538SOL     OW 2181   1.131   1.517   1.072
  538SOL    HW2 2182   1.134   1.423   1.090
  538SOL    HW3 2183   1.132   1.523   0.977
  538SOL    MW4 2184   1.131   1.505   1.062
  539SOL     OW 2185   0.926   1.659   1.196
  539SOL    HW2 2186   0.913   1.745   1.156
  539SOL    HW3 2187   0.995   1.618   1.144
  539SOL    MW4 2188   0.933   1.665   1.184
  540SOL     OW 2189   0.891   1.926   1.070
  540SOL    HW2 2190   0.974   1.964   1.099
  540SOL    HW3 2191   0.824   1.975   1.117
  540SOL    MW4 2192   0.893   1.937   1.080
  541SOL     OW 2193   1.109   2.033   1.179
  541SOL    HW2 2194   1.104   2.033   1.275
  541SOL    HW3 2195   1.129   2.124   1.156
  541SOL    MW4 2196   1.111   2.045   1.189
  542SOL     OW 2197   1.147   2.299   1.093
  542SOL    HW2 2198   1.225   2.342   1.127
  542SOL    HW3 2199   1.074   2.341   1.138
  542SOL    MW4 2200   1.148   2.310   1.103
  543SOL     OW 2201   0.917   2.434   1.174
  543SOL    HW2 2202   0.907   2.430   1.269
  543SOL    HW3 2203   0.835   2.400   1.140
  543SOL    MW4 2204   0.905   2.429   1.182
  544SOL     OW 2205   0.922   2.697   1.090
  544SOL    HW2 2206   0.923   2.606   1.122
  544SOL    HW3 2207   0.846   2.737   1.134
  544SOL    MW4 2208   0.912   2.690   1.100
  545SOL     OW 2209   1.134   2.855   1.191
  545SOL    HW2 2210   1.132   2.835   1.285
  545SOL    HW3 2211   1.063   2.803   1.154
  545SOL    MW4 2212   1.124   2.846   1.199
  546SOL     OW 2213   1.090   3.111   1.085
  546SOL    HW2 2214   1.108   3.021   1.114
  546SOL    HW3 2215   1.073   3.102   0.991
  546SOL    MW4 2216   1.090   3.098   1.076
  547SOL     OW 2217   0.891   3.248   1.231
  547SOL    HW2 2218   0.905   3.335   1.194
  547SOL    HW3 2219   0.954   3.192   1.187
  547SOL    MW4 2220   0.901   3.252   1.221
  548SOL     OW 2221   0.920   3.499   1.109
  548SOL    HW2 2222   0.840   3.544   1.137
  548SOL    HW3 2223   0.912   3.493   1.014
  548SOL    MW4 2224   0.908   3.504   1.100
  549SOL     OW 2225   1.155   3.639   1.185
  549SOL    HW2 2226   1.225   3.574   1.171
  549SOL    HW3 2227   1.074   3.590   1.172
  549SOL    MW4 2228   1.154   3.624   1.181
  550SOL     OW 2229   1.147   3.884   1.029
  550SOL    HW2 2230   1.084   3.938   1.077
  550SOL    HW3 2231   1.148   3.800   1.075
  550SOL    MW4 2232   1.139   3.880   1.041
  551SOL     OW 2233   0.950   4.011   1.162
  551SOL    HW2 2234   0.953   4.020   1.257
  551SOL    HW3 2235   0.862   3.978   1.143
  551SOL    MW4 2236   0.939   4.008   1.172
  552SOL     OW 2237   0.861   4.254   1.042
  552SOL    HW2 2238   0.881   4.169   1.082
  552SOL    HW3 2239   0.873   4.240   0.948
  552SOL    MW4 2240   0.865   4.241   1.035
  553SOL     OW 2241   1.091   4.318   1.184
  553SOL    HW2 2242   1.062   4.325   1.275
  553SOL    HW3 2243   1.012   4.291   1.136
  553SOL    MW4 2244   1.076   4.315   1.189
  554SOL     OW 2245   1.555   4.646   1.092
  554SOL    HW2 2246   1.626   4.700   1.128
  554SOL    HW3 2247   1.566   4.561   1.134
  554SOL    MW4 2248   1.566   4.642   1.102
  555SOL     OW 2249   1.301   0.104   1.195
  555SOL    HW2 2250   1.369   0.043   1.168
  555SOL    HW3 2251   1.219   0.062   1.166
  555SOL    MW4 2252   1.299   0.090   1.187
  556SOL     OW 2253   1.345   0.335   1.090
  556SOL    HW2 2254   1.332   0.250   1.133
  556SOL    HW3 2255   1.273   0.390   1.122
  556SOL    MW4 2256   1.334   0.331   1.100
  557SOL     OW 2257   1.561   0.475   1.230
  557SOL    HW2 2258   1.567   0.550   1.172
  557SOL    HW3 2259   1.495   0.419   1.189
  557SOL    MW4 2260   1.553   0.477   1.217
  558SOL     OW 2261   1.578   0.716   1.082
  558SOL    HW2 2262   1.646   0.779   1.106
  558SOL    HW3 2263   1.550   0.743   0.995
  558SOL    MW4 2264   1.584   0.728   1.074
  559SOL     OW 2265   1.346   0.847   1.186
  559SOL    HW2 2266   1.424   0.807   1.147
  559SOL    HW3 2267   1.273   0.803   1.142
  559SOL    MW4 2268   1.347   0.836   1.175
  560SOL     OW 2269   1.332   1.108   1.089
  560SOL    HW2 2270   1.345   1.026   1.137
  560SOL    HW3 2271   1.342   1.085   0.997
  560SOL    MW4 2272   1.335   1.094   1.083
  561SOL     OW 2273   1.541   1.289   1.154
  561SOL    HW2 2274   1.622   1.239   1.150
  561SOL    HW3 2275   1.473   1.227   1.126
  561SOL    MW4 2276   1.543   1.274   1.150
  562SOL     OW 2277   1.584   1.556   1.091
  562SOL    HW2 2278   1.654   1.567   1.156
  562SOL    HW3 2279   1.559   1.464   1.099
  562SOL    MW4 2280   1.590   1.545   1.101
  563SOL     OW 2281   1.353   1.683   1.175
  563SOL    HW2 2282   1.437   1.647   1.146
  563SOL    HW3 2283   1.288   1.621   1.140
  563SOL    MW4 2284   1.356   1.670   1.167
  564SOL     OW 2285   1.322   1.920   1.025
  564SOL    HW2 2286   1.334   1.835   1.066
  564SOL    HW3 2287   1.247   1.958   1.071
  564SOL    MW4 2288   1.314   1.914   1.036
  565SOL     OW 2289   1.494   2.011   1.232
  565SOL    HW2 2290   1.515   2.093   1.188
  565SOL    HW3 2291   1.445   1.960   1.167
  565SOL    MW4 2292   1.490   2.015   1.218
  566SOL     OW 2293   1.560   2.269   1.128
  566SOL    HW2 2294   1.486   2.320   1.162
  566SOL    HW3 2295   1.555   2.280   1.033
  566SOL    MW4 2296   1.550   2.277   1.120
  567SOL     OW 2297   1.356   2.428   1.216
  567SOL    HW2 2298   1.371   2.428   1.311
  567SOL    HW3 2299   1.353   2.520   1.192
  567SOL    MW4 2300   1.357   2.440   1.226
  568SOL     OW 2301   1.339   2.687   1.119
  568SOL    HW2 2302   1.405   2.745   1.158
  568SOL    HW3 2303   1.257   2.736   1.127
  568SOL    MW4 2304   1.337   2.701   1.125
  569SOL     OW 2305   1.556   2.834   1.209
  569SOL    HW2 2306   1.645   2.806   1.186
  569SOL    HW3 2307   1.546   2.918   1.165
  569SOL    MW4 2308   1.567   2.841   1.200
  570SOL     OW 2309   1.543   3.072   1.078
  570SOL    HW2 2310   1.621   3.112   1.117
  570SOL    HW3 2311   1.471   3.129   1.105
  570SOL    MW4 2312   1.544   3.085   1.087
  571SOL     OW 2313   1.317   3.219   1.196
  571SOL    HW2 2314   1.312   3.194   1.288
  571SOL    HW3 2315   1.242   3.178   1.154
  571SOL    MW4 2316   1.307   3.211   1.202
  572SOL     OW 2317   1.372   3.496   1.128
  572SOL    HW2 2318   1.354   3.407   1.155
  572SOL    HW3 2319   1.387   3.490   1.033
  572SOL    MW4 2320   1.371   3.484   1.119
  573SOL     OW 2321   1.610   3.598   1.201
  573SOL    HW2 2322   1.608   3.688   1.167
  573SOL    HW3 2323   1.524   3.563   1.181
  573SOL    MW4 2324   1.599   3.605   1.194
  574SOL     OW 2325   1.598   3.866   1.112
  574SOL    HW2 2326   1.525   3.920   1.142
  574SOL    HW3 2327   1.592   3.868   1.016
  574SOL    MW4 2328   1.588   3.873   1.103
  575SOL     OW 2329   1.372   4.015   1.165
  575SOL    HW2 2330   1.374   4.108   1.145
  575SOL    HW3 2331   1.294   3.983   1.121
  575SOL    MW4 2332   1.362   4.023   1.157
  576SOL     OW 2333   1.380   4.274   1.072
  576SOL    HW2 2334   1.299   4.313   1.104
  576SOL    HW3 2335   1.363   4.255   0.980
  576SOL    MW4 2336   1.367   4.276   1.064
  577SOL     OW 2337   1.605   4.390   1.187
  577SOL    HW2 2338   1.598   4.370   1.281
  577SOL    HW3 2339   1.523   4.357   1.150
  577SOL    MW4 2340   1.593   4.383   1.194
  578SOL     OW 2341   2.004   0.024   1.093
  578SOL    HW2 2342   2.026  -0.062   1.128
  578SOL    HW3 2343   1.999   0.012   0.998
  578SOL    MW4 2344   2.007   0.011   1.085
  579SOL     OW 2345   1.761   0.138   1.173
  579SOL    HW2 2346   1.772   0.233   1.169
  579SOL    HW3 2347   1.839   0.102   1.130
  579SOL    MW4 2348   1.773   0.146   1.167
  580SOL     OW 2349   1.794   0.417   1.107
  580SOL    HW2 2350   1.715   0.450   1.151
  580SOL    HW3 2351   1.769   0.409   1.015
  580SOL    MW4 2352   1.780   0.420   1.101
  581SOL     OW 2353   2.036   0.493   1.198
  581SOL    HW2 2354   2.014   0.482   1.291
  581SOL    HW3 2355   1.952   0.487   1.152
  581SOL    MW4 2356   2.022   0.490   1.204
  582SOL     OW 2357   2.001   0.755   1.108
  582SOL    HW2 2358   2.024   0.672   1.150
  582SOL    HW3 2359   2.003   0.737   1.014
  582SOL    MW4 2360   2.004   0.742   1.101
  583SOL     OW 2361   1.779   0.881   1.190
  583SOL    HW2 2362   1.782   0.866   1.285
  583SOL    HW3 2363   1.857   0.837   1.156
  583SOL    MW4 2364   1.790   0.873   1.198
  584SOL     OW 2365   1.777   1.149   1.100
  584SOL    HW2 2366   1.781   1.058   1.131
  584SOL    HW3 2367   1.776   1.141   1.004
  584SOL    MW4 2368   1.777   1.136   1.091
  585SOL     OW 2369   1.991   1.329   1.184
  585SOL    HW2 2370   2.072   1.286   1.156
  585SOL    HW3 2371   1.922   1.267   1.159
  585SOL    MW4 2372   1.992   1.315   1.177
  586SOL     OW 2373   1.996   1.575   1.037
  586SOL    HW2 2374   1.995   1.487   1.074
  586SOL    HW3 2375   2.029   1.564   0.948
  586SOL    MW4 2376   2.000   1.562   1.030
  587SOL     OW 2377   1.799   1.643   1.207
  587SOL    HW2 2378   1.783   1.732   1.175
  587SOL    HW3 2379   1.882   1.618   1.167
  587SOL    MW4 2380   1.808   1.651   1.198
  588SOL     OW 2381   1.766   1.899   1.127
  588SOL    HW2 2382   1.686   1.935   1.166
  588SOL    HW3 2383   1.763   1.928   1.035
  588SOL    MW4 2384   1.755   1.907   1.120
  589SOL     OW 2385   2.001   2.035   1.228
  589SOL    HW2 2386   2.001   2.024   1.323
  589SOL    HW3 2387   1.921   1.991   1.198
  589SOL    MW4 2388   1.991   2.028   1.236
  590SOL     OW 2389   2.022   2.299   1.129
  590SOL    HW2 2390   2.099   2.338   1.170
  590SOL    HW3 2391   2.023   2.208   1.159
  590SOL    MW4 2392   2.033   2.292   1.138
  591SOL     OW 2393   1.775   2.422   1.181
  591SOL    HW2 2394   1.858   2.379   1.162
  591SOL    HW3 2395   1.708   2.359   1.154
  591SOL    MW4 2396   1.777   2.408   1.175
  592SOL     OW 2397   1.799   2.724   1.115
  592SOL    HW2 2398   1.791   2.632   1.142
  592SOL    HW3 2399   1.811   2.720   1.020
  592SOL    MW4 2400   1.799   2.711   1.106
  593SOL     OW 2401   2.035   2.815   1.232
  593SOL    HW2 2402   2.045   2.908   1.208
  593SOL    HW3 2403   1.956   2.787   1.187
  593SOL    MW4 2404   2.026   2.824   1.223
  594SOL     OW 2405   2.033   3.080   1.138
  594SOL    HW2 2406   1.944   3.111   1.157
  594SOL    HW3 2407   2.035   3.070   1.043
  594SOL    MW4 2408   2.021   3.083   1.128
  595SOL     OW 2409   1.784   3.156   1.198
  595SOL    HW2 2410   1.786   3.154   1.294
  595SOL    HW3 2411   1.800   3.248   1.177
  595SOL    MW4 2412   1.786   3.168   1.208
  596SOL     OW 2413   1.816   3.430   1.133
  596SOL    HW2 2414   1.895   3.484   1.145
  596SOL    HW3 2415   1.744   3.488   1.158
  596SOL    MW4 2416   1.817   3.445   1.138
  597SOL     OW 2417   2.025   3.601   1.162
  597SOL    HW2 2418   2.026   3.603   1.258
  597SOL    HW3 2419   2.109   3.564   1.138
  597SOL    MW4 2420   2.036   3.597   1.171
  598SOL     OW 2421   2.046   3.876   1.098
  598SOL    HW2 2422   1.967   3.920   1.130
  598SOL    HW3 2423   2.043   3.789   1.139
  598SOL    MW4 2424   2.036   3.870   1.108
  599SOL     OW 2425   1.829   4.011   1.193
  599SOL    HW2 2426   1.830   4.000   1.288
  599SOL    HW3 2427   1.758   3.954   1.163
  599SOL    MW4 2428   1.820   4.002   1.202
  600SOL     OW 2429   1.838   4.256   1.065
  600SOL    HW2 2430   1.832   4.166   1.096
  600SOL    HW3 2431   1.753   4.295   1.087
  600SOL    MW4 2432   1.826   4.250   1.072
  601SOL     OW 2433   2.053   4.407   1.178
  601SOL    HW2 2434   2.062   4.378   1.269
  601SOL    HW3 2435   1.973   4.364   1.147
  601SOL    MW4 2436   2.044   4.397   1.186
  602SOL     OW 2437   2.467   0.007   1.137
  602SOL    HW2 2438   2.540   0.046   1.185
  602SOL    HW3 2439   2.389   0.037   1.184
  602SOL    MW4 2440   2.467   0.016   1.150
  603SOL     OW 2441   2.231   0.134   1.227
  603SOL    HW2 2442   2.256   0.220   1.192
  603SOL    HW3 2443   2.147   0.115   1.186
  603SOL    MW4 2444   2.223   0.143   1.217
  604SOL     OW 2445   2.259   0.396   1.094
  604SOL    HW2 2446   2.176   0.415   1.136
  604SOL    HW3 2447   2.238   0.389   1.001
  604SOL    MW4 2448   2.246   0.398   1.087
  605SOL     OW 2449   2.479   0.503   1.240
  605SOL    HW2 2450   2.451   0.506   1.332
  605SOL    HW3 2451   2.407   0.460   1.195
  605SOL    MW4 2452   2.466   0.498   1.246
  606SOL     OW 2453   2.434   0.758   1.111
  606SOL    HW2 2454   2.454   0.680   1.163
  606SOL    HW3 2455   2.433   0.726   1.020
  606SOL    MW4 2456   2.436   0.743   1.106
  607SOL     OW 2457   2.215   0.902   1.187
  607SOL    HW2 2458   2.287   0.842   1.166
  607SOL    HW3 2459   2.136   0.854   1.163
  607SOL    MW4 2460   2.214   0.888   1.181
  608SOL     OW 2461   2.221   1.171   1.104
  608SOL    HW2 2462   2.310   1.192   1.129
  608SOL    HW3 2463   2.208   1.081   1.135
  608SOL    MW4 2464   2.231   1.162   1.111
  609SOL     OW 2465   2.492   1.216   1.205
  609SOL    HW2 2466   2.573   1.181   1.168
  609SOL    HW3 2467   2.488   1.306   1.174
  609SOL    MW4 2468   2.502   1.223   1.196
  610SOL     OW 2469   2.481   1.480   1.138
  610SOL    HW2 2470   2.427   1.553   1.166
  610SOL    HW3 2471   2.495   1.495   1.044
  610SOL    MW4 2472   2.476   1.492   1.129
  611SOL     OW 2473   2.233   1.645   1.168
  611SOL    HW2 2474   2.254   1.736   1.144
  611SOL    HW3 2475   2.153   1.625   1.119
  611SOL    MW4 2476   2.225   1.654   1.158
  612SOL     OW 2477   2.242   1.929   1.116
  612SOL    HW2 2478   2.162   1.968   1.151
  612SOL    HW3 2479   2.235   1.940   1.021
  612SOL    MW4 2480   2.231   1.936   1.108
  613SOL     OW 2481   2.476   2.024   1.223
  613SOL    HW2 2482   2.550   1.971   1.192
  613SOL    HW3 2483   2.399   1.984   1.182
  613SOL    MW4 2484   2.475   2.012   1.213
  614SOL     OW 2485   2.475   2.306   1.145
  614SOL    HW2 2486   2.470   2.216   1.177
  614SOL    HW3 2487   2.462   2.299   1.051
  614SOL    MW4 2488   2.472   2.293   1.137
  615SOL     OW 2489   2.254   2.442   1.241
  615SOL    HW2 2490   2.252   2.461   1.335
  615SOL    HW3 2491   2.337   2.396   1.228
  615SOL    MW4 2492   2.265   2.438   1.252
  616SOL     OW 2493   2.254   2.697   1.117
  616SOL    HW2 2494   2.238   2.614   1.161
  616SOL    HW3 2495   2.185   2.755   1.150
  616SOL    MW4 2496   2.243   2.694   1.127
  617SOL     OW 2497   2.469   2.853   1.214
  617SOL    HW2 2498   2.455   2.853   1.309
  617SOL    HW3 2499   2.401   2.795   1.180
  617SOL    MW4 2500   2.458   2.845   1.222
  618SOL     OW 2501   2.460   3.111   1.132
  618SOL    HW2 2502   2.378   3.145   1.168
  618SOL    HW3 2503   2.472   3.026   1.174
  618SOL    MW4 2504   2.451   3.104   1.142
  619SOL     OW 2505   2.234   3.220   1.254
  619SOL    HW2 2506   2.221   3.306   1.215
  619SOL    HW3 2507   2.167   3.164   1.213
  619SOL    MW4 2508   2.223   3.224   1.243
  620SOL     OW 2509   2.234   3.447   1.093
  620SOL    HW2 2510   2.310   3.500   1.115
  620SOL    HW3 2511   2.238   3.437   0.998
  620SOL    MW4 2512   2.244   3.453   1.083
  621SOL     OW 2513   2.449   3.607   1.177
  621SOL    HW2 2514   2.444   3.598   1.272
  621SOL    HW3 2515   2.458   3.701   1.162
  621SOL    MW4 2516   2.450   3.618   1.188
  622SOL     OW 2517   2.490   3.900   1.111
  622SOL    HW2 2518   2.400   3.923   1.136
  622SOL    HW3 2519   2.493   3.915   1.016
  622SOL    MW4 2520   2.478   3.905   1.102
  623SOL     OW 2521   2.262   4.002   1.207
  623SOL    HW2 2522   2.250   4.095   1.188
  623SOL    HW3 2523   2.181   3.961   1.176
  623SOL    MW4 2524   2.249   4.009   1.201
  624SOL     OW 2525   2.281   4.269   1.117
  624SOL    HW2 2526   2.207   4.326   1.136
  624SOL    HW3 2527   2.267   4.241   1.026
  624SOL    MW4 2528   2.270   4.273   1.107
  625SOL     OW 2529   2.528   4.382   1.178
  625SOL    HW2 2530   2.442   4.352   1.149
  625SOL    HW3 2531   2.523   4.478   1.175
  625SOL    MW4 2532   2.516   4.391   1.174
  626SOL     OW 2533   2.928   0.009   1.130
  626SOL    HW2 2534   2.935  -0.083   1.157
  626SOL    HW3 2535   2.926   0.007   1.035
  626SOL    MW4 2536   2.928  -0.003   1.121
  627SOL     OW 2537   2.693   0.116   1.248
  627SOL    HW2 2538   2.694   0.116   1.343
  627SOL    HW3 2539   2.778   0.081   1.222
  627SOL    MW4 2540   2.704   0.112   1.257
  628SOL     OW 2541   2.666   0.350   1.115
  628SOL    HW2 2542   2.666   0.269   1.165
  628SOL    HW3 2543   2.610   0.409   1.166
  628SOL    MW4 2544   2.658   0.347   1.129
  629SOL     OW 2545   2.906   0.475   1.197
  629SOL    HW2 2546   2.892   0.565   1.168
  629SOL    HW3 2547   2.833   0.427   1.158
  629SOL    MW4 2548   2.894   0.480   1.188
  630SOL     OW 2549   2.850   0.743   1.085
  630SOL    HW2 2550   2.941   0.769   1.094
  630SOL    HW3 2551   2.800   0.814   1.124
  630SOL    MW4 2552   2.855   0.755   1.091
  631SOL     OW 2553   2.665   0.916   1.191
  631SOL    HW2 2554   2.664   0.989   1.128
  631SOL    HW3 2555   2.580   0.873   1.179
  631SOL    MW4 2556   2.653   0.920   1.181
  632SOL     OW 2557   2.683   1.135   1.020
  632SOL    HW2 2558   2.762   1.177   1.054
  632SOL    HW3 2559   2.666   1.179   0.937
  632SOL    MW4 2560   2.692   1.146   1.014
  633SOL     OW 2561   2.881   1.252   1.171
  633SOL    HW2 2562   2.873   1.249   1.266
  633SOL    HW3 2563   2.895   1.345   1.151
  633SOL    MW4 2564   2.882   1.264   1.181
  634SOL     OW 2565   2.886   1.522   1.083
  634SOL    HW2 2566   2.960   1.577   1.105
  634SOL    HW3 2567   2.904   1.491   0.994
  634SOL    MW4 2568   2.898   1.525   1.074
  635SOL     OW 2569   2.681   1.613   1.262
  635SOL    HW2 2570   2.753   1.581   1.207
  635SOL    HW3 2571   2.602   1.577   1.222
  635SOL    MW4 2572   2.680   1.604   1.249
  636SOL     OW 2573   2.688   1.863   1.085
  636SOL    HW2 2574   2.769   1.909   1.109
  636SOL    HW3 2575   2.694   1.779   1.130
  636SOL    MW4 2576   2.699   1.858   1.094
  637SOL     OW 2577   2.898   2.025   1.163
  637SOL    HW2 2578   2.912   2.022   1.257
  637SOL    HW3 2579   2.889   2.118   1.143
  637SOL    MW4 2580   2.899   2.037   1.173
  638SOL     OW 2581   2.921   2.297   1.135
  638SOL    HW2 2582   2.997   2.347   1.166
  638SOL    HW3 2583   2.846   2.351   1.159
  638SOL    MW4 2584   2.921   2.311   1.142
  639SOL     OW 2585   2.697   2.439   1.216
  639SOL    HW2 2586   2.716   2.427   1.309
  639SOL    HW3 2587   2.619   2.384   1.201
  639SOL    MW4 2588   2.689   2.430   1.226
  640SOL     OW 2589   2.696   2.696   1.130
  640SOL    HW2 2590   2.692   2.618   1.185
  640SOL    HW3 2591   2.625   2.751   1.162
  640SOL    MW4 2592   2.686   2.693   1.142
  641SOL     OW 2593   2.932   2.864   1.188
  641SOL    HW2 2594   2.913   2.872   1.282
  641SOL    HW3 2595   2.856   2.818   1.152
  641SOL    MW4 2596   2.919   2.859   1.196
  642SOL     OW 2597   2.903   3.122   1.099
  642SOL    HW2 2598   2.929   3.034   1.123
  642SOL    HW3 2599   2.901   3.122   1.003
  642SOL    MW4 2600   2.906   3.111   1.090
  643SOL     OW 2601   2.694   3.250   1.241
  643SOL    HW2 2602   2.767   3.209   1.194
  643SOL    HW3 2603   2.616   3.208   1.206
  643SOL    MW4 2604   2.693   3.239   1.230
  644SOL     OW 2605   2.707   3.491   1.081
  644SOL    HW2 2606   2.692   3.403   1.113
  644SOL    HW3 2607   2.629   3.540   1.105
  644SOL    MW4 2608   2.695   3.486   1.088
  645SOL     OW 2609   2.916   3.621   1.196
  645SOL    HW2 2610   2.982   3.567   1.153
  645SOL    HW3 2611   2.833   3.580   1.173
  645SOL    MW4 2612   2.914   3.609   1.187
  646SOL     OW 2613   2.920   3.887   1.085
  646SOL    HW2 2614   2.989   3.923   1.140
  646SOL    HW3 2615   2.918   3.794   1.108
  646SOL    MW4 2616   2.929   3.879   1.095
  647SOL     OW 2617   2.726   4.039   1.181
  647SOL    HW2 2618   2.797   3.988   1.141
  647SOL    HW3 2619   2.647   3.987   1.165
  647SOL    MW4 2620   2.725   4.025   1.173
  648SOL     OW 2621   2.744   4.285   1.062
  648SOL    HW2 2622   2.733   4.198   1.101
  648SOL    HW3 2623   2.670   4.335   1.097
  648SOL    MW4 2624   2.733   4.280   1.072
  649SOL     OW 2625   2.930   4.421   1.231
  649SOL    HW2 2626   3.005   4.381   1.188
  649SOL    HW3 2627   2.855   4.394   1.178
  649SOL    MW4 2628   2.930   4.412   1.218
  650SOL     OW 2629   3.412   4.655   1.120
  650SOL    HW2 2630   3.484   4.698   1.167
  650SOL    HW3 2631   3.333   4.688   1.164
  650SOL    MW4 2632   3.411   4.665   1.132
  651SOL     OW 2633   3.180   0.091   1.229
  651SOL    HW2 2634   3.165   0.099   1.324
  651SOL    HW3 2635   3.095   0.065   1.194
  651SOL    MW4 2636   3.167   0.089   1.237
  652SOL     OW 2637   3.149   0.355   1.116
  652SOL    HW2 2638   3.156   0.268   1.157
  652SOL    HW3 2639   3.065   0.388   1.146
  652SOL    MW4 2640   3.139   0.348   1.125
  653SOL     OW 2641   3.354   0.481   1.251
  653SOL    HW2 2642   3.356   0.562   1.201
  653SOL    HW3 2643   3.283   0.430   1.212
  653SOL    MW4 2644   3.345   0.485   1.239
  654SOL     OW 2645   3.345   0.697   1.055
  654SOL    HW2 2646   3.267   0.744   1.084
  654SOL    HW3 2647   3.346   0.709   0.960
  654SOL    MW4 2648   3.335   0.705   1.046
  655SOL     OW 2649   3.104   0.831   1.172
  655SOL    HW2 2650   3.107   0.806   1.265
  655SOL    HW3 2651   3.099   0.926   1.173
  655SOL    MW4 2652   3.104   0.840   1.184
  656SOL     OW 2653   3.109   1.107   1.106
  656SOL    HW2 2654   3.178   1.165   1.139
  656SOL    HW3 2655   3.027   1.150   1.130
  656SOL    MW4 2656   3.107   1.120   1.114
  657SOL     OW 2657   3.331   1.261   1.189
  657SOL    HW2 2658   3.334   1.258   1.285
  657SOL    HW3 2659   3.358   1.350   1.167
  657SOL    MW4 2660   3.335   1.273   1.199
  658SOL     OW 2661   3.399   1.519   1.096
  658SOL    HW2 2662   3.458   1.562   1.158
  658SOL    HW3 2663   3.312   1.550   1.120
  658SOL    MW4 2664   3.395   1.529   1.107
  659SOL     OW 2665   3.114   1.652   1.179
  659SOL    HW2 2666   3.132   1.671   1.271
  659SOL    HW3 2667   3.104   1.737   1.137
  659SOL    MW4 2668   3.115   1.666   1.185
  660SOL     OW 2669   3.140   1.902   1.059
  660SOL    HW2 2670   3.210   1.950   1.104
  660SOL    HW3 2671   3.060   1.945   1.087
  660SOL    MW4 2672   3.139   1.914   1.069
  661SOL     OW 2673   3.360   2.026   1.193
  661SOL    HW2 2674   3.442   1.980   1.173
  661SOL    HW3 2675   3.376   2.116   1.168
  661SOL    MW4 2676   3.373   2.032   1.187
  662SOL     OW 2677   3.376   2.308   1.135
  662SOL    HW2 2678   3.451   2.351   1.176
  662SOL    HW3 2679   3.299   2.349   1.176
  662SOL    MW4 2680   3.375   2.319   1.146
  663SOL     OW 2681   3.154   2.435   1.232
  663SOL    HW2 2682   3.128   2.430   1.324
  663SOL    HW3 2683   3.151   2.528   1.211
  663SOL    MW4 2684   3.150   2.447   1.241
  664SOL     OW 2685   3.162   2.707   1.137
  664SOL    HW2 2686   3.083   2.759   1.152
  664SOL    HW3 2687   3.170   2.702   1.042
  664SOL    MW4 2688   3.153   2.713   1.127
  665SOL     OW 2689   3.395   2.833   1.236
  665SOL    HW2 2690   3.411   2.921   1.201
  665SOL    HW3 2691   3.316   2.804   1.191
  665SOL    MW4 2692   3.387   2.841   1.225
  666SOL     OW 2693   3.391   3.086   1.156
  666SOL    HW2 2694   3.465   3.142   1.180
  666SOL    HW3 2695   3.314   3.133   1.189
  666SOL    MW4 2696   3.390   3.100   1.163
  667SOL     OW 2697   3.135   3.206   1.198
  667SOL    HW2 2698   3.145   3.289   1.151
  667SOL    HW3 2699   3.061   3.163   1.154
  667SOL    MW4 2700   3.126   3.211   1.186
  668SOL     OW 2701   3.167   3.498   1.075
  668SOL    HW2 2702   3.248   3.531   1.112
  668SOL    HW3 2703   3.170   3.522   0.982
  668SOL    MW4 2704   3.178   3.505   1.068
  669SOL     OW 2705   3.403   3.620   1.168
  669SOL    HW2 2706   3.397   3.602   1.261
  669SOL    HW3 2707   3.475   3.566   1.137
  669SOL    MW4 2708   3.412   3.611   1.176
  670SOL     OW 2709   3.359   3.876   1.089
  670SOL    HW2 2710   3.282   3.907   1.137
  670SOL    HW3 2711   3.364   3.782   1.110
  670SOL    MW4 2712   3.350   3.868   1.098
  671SOL     OW 2713   3.132   3.996   1.214
  671SOL    HW2 2714   3.155   3.995   1.307
  671SOL    HW3 2715   3.149   4.086   1.186
  671SOL    MW4 2716   3.137   4.008   1.222
  672SOL     OW 2717   3.147   4.270   1.128
  672SOL    HW2 2718   3.234   4.305   1.149
  672SOL    HW3 2719   3.130   4.300   1.039
  672SOL    MW4 2720   3.156   4.279   1.119
  673SOL     OW 2721   3.370   4.408   1.238
  673SOL    HW2 2722   3.443   4.361   1.196
  673SOL    HW3 2723   3.377   4.498   1.204
  673SOL    MW4 2724   3.381   4.414   1.228
  674SOL     OW 2725   3.857   4.640   1.104
  674SOL    HW2 2726   3.850   4.545   1.115
  674SOL    HW3 2727   3.894   4.651   1.016
  674SOL    MW4 2728   3.861   4.629   1.094
  675SOL     OW 2729   3.636   0.114   1.223
  675SOL    HW2 2730   3.623   0.207   1.205
  675SOL    HW3 2731   3.720   0.092   1.182
  675SOL    MW4 2732   3.645   0.123   1.216
  676SOL     OW 2733   3.577   0.370   1.135
  676SOL    HW2 2734   3.653   0.424   1.157
  676SOL    HW3 2735   3.504   0.413   1.180
  676SOL    MW4 2736   3.577   0.383   1.143
  677SOL     OW 2737   3.829   0.497   1.202
  677SOL    HW2 2738   3.905   0.446   1.176
  677SOL    HW3 2739   3.828   0.571   1.141
  677SOL    MW4 2740   3.839   0.500   1.190
  678SOL     OW 2741   3.761   0.738   1.083
  678SOL    HW2 2742   3.830   0.786   1.127
  678SOL    HW3 2743   3.683   0.754   1.135
  678SOL    MW4 2744   3.760   0.746   1.096
  679SOL     OW 2745   3.539   0.832   1.234
  679SOL    HW2 2746   3.547   0.917   1.192
  679SOL    HW3 2747   3.482   0.781   1.176
  679SOL    MW4 2748   3.532   0.836   1.221
  680SOL     OW 2749   3.539   1.091   1.131
  680SOL    HW2 2750   3.608   1.157   1.138
  680SOL    HW3 2751   3.459   1.140   1.151
  680SOL    MW4 2752   3.537   1.106   1.134
  681SOL     OW 2753   3.754   1.267   1.214
  681SOL    HW2 2754   3.756   1.248   1.308
  681SOL    HW3 2755   3.763   1.363   1.209
  681SOL    MW4 2756   3.755   1.277   1.226
  682SOL     OW 2757   3.809   1.544   1.156
  682SOL    HW2 2758   3.887   1.594   1.181
  682SOL    HW3 2759   3.822   1.522   1.064
  682SOL    MW4 2760   3.821   1.548   1.147
  683SOL     OW 2761   3.589   1.663   1.255
  683SOL    HW2 2762   3.593   1.746   1.208
  683SOL    HW3 2763   3.672   1.621   1.237
  683SOL    MW4 2764   3.600   1.668   1.246
  684SOL     OW 2765   3.579   1.883   1.112
  684SOL    HW2 2766   3.664   1.919   1.137
  684SOL    HW3 2767   3.573   1.899   1.017
  684SOL    MW4 2768   3.590   1.890   1.103
  685SOL     OW 2769   3.827   2.017   1.190
  685SOL    HW2 2770   3.852   2.030   1.282
  685SOL    HW3 2771   3.909   1.996   1.146
  685SOL    MW4 2772   3.841   2.016   1.196
  686SOL     OW 2773   3.824   2.296   1.116
  686SOL    HW2 2774   3.911   2.331   1.131
  686SOL    HW3 2775   3.828   2.206   1.147
  686SOL    MW4 2776   3.836   2.289   1.122
  687SOL     OW 2777   3.591   2.443   1.203
  687SOL    HW2 2778   3.594   2.421   1.296
  687SOL    HW3 2779   3.668   2.399   1.166
  687SOL    MW4 2780   3.602   2.434   1.210
  688SOL     OW 2781   3.632   2.711   1.115
  688SOL    HW2 2782   3.641   2.628   1.161
  688SOL    HW3 2783   3.550   2.749   1.149
  688SOL    MW4 2784   3.622   2.705   1.125
  689SOL     OW 2785   3.854   2.820   1.227
  689SOL    HW2 2786   3.839   2.818   1.321
  689SOL    HW3 2787   3.771   2.791   1.189
  689SOL    MW4 2788   3.841   2.816   1.234
  690SOL     OW 2789   3.844   3.073   1.112
  690SOL    HW2 2790   3.849   2.984   1.147
  690SOL    HW3 2791   3.805   3.062   1.025
  690SOL    MW4 2792   3.839   3.060   1.105
  691SOL     OW 2793   3.617   3.229   1.226
  691SOL    HW2 2794   3.623   3.308   1.171
  691SOL    HW3 2795   3.689   3.174   1.196
  691SOL    MW4 2796   3.627   3.232   1.215
  692SOL     OW 2797   3.614   3.459   1.065
  692SOL    HW2 2798   3.687   3.499   1.111
  692SOL    HW3 2799   3.640   3.460   0.973
  692SOL    MW4 2800   3.627   3.464   1.059
  693SOL     OW 2801   3.825   3.580   1.177
  693SOL    HW2 2802   3.837   3.580   1.272
  693SOL    HW3 2803   3.810   3.672   1.155
  693SOL    MW4 2804   3.825   3.592   1.187
  694SOL     OW 2805   3.822   3.840   1.072
  694SOL    HW2 2806   3.739   3.876   1.104
  694SOL    HW3 2807   3.804   3.817   0.980
  694SOL    MW4 2808   3.808   3.842   1.064
  695SOL     OW 2809   3.587   3.945   1.193
  695SOL    HW2 2810   3.588   3.950   1.288
  695SOL    HW3 2811   3.501   3.911   1.171
  695SOL    MW4 2812   3.576   3.942   1.202
  696SOL     OW 2813   3.553   4.237   1.128
  696SOL    HW2 2814   3.565   4.144   1.149
  696SOL    HW3 2815   3.551   4.240   1.033
  696SOL    MW4 2816   3.555   4.225   1.118
  697SOL     OW 2817   3.814   4.368   1.177
  697SOL    HW2 2818   3.808   4.373   1.272
  697SOL    HW3 2819   3.724   4.351   1.148
  697SOL    MW4 2820   3.801   4.367   1.186
  698SOL     OW 2821   4.281   4.634   1.088
  698SOL    HW2 2822   4.299   4.549   1.129
  698SOL    HW3 2823   4.207   4.670   1.137
  698SOL    MW4 2824   4.274   4.628   1.100
  699SOL     OW 2825   4.072   0.109   1.214
  699SOL    HW2 2826   4.078   0.098   1.309
  699SOL    HW3 2827   3.991   0.064   1.190
  699SOL    MW4 2828   4.063   0.101   1.223
  700SOL     OW 2829   4.093   0.372   1.103
  700SOL    HW2 2830   4.129   0.288   1.134
  700SOL    HW3 2831   4.024   0.348   1.043
  700SOL    MW4 2832   4.089   0.358   1.099
  701SOL     OW 2833   4.275   0.545   1.227
  701SOL    HW2 2834   4.267   0.538   1.322
  701SOL    HW3 2835   4.201   0.494   1.193
  701SOL    MW4 2836   4.264   0.537   1.235
  702SOL     OW 2837   4.220   0.802   1.160
  702SOL    HW2 2838   4.239   0.713   1.190
  702SOL    HW3 2839   4.228   0.797   1.064
  702SOL    MW4 2840   4.224   0.789   1.151
  703SOL     OW 2841   3.971   0.912   1.200
  703SOL    HW2 2842   3.983   0.937   1.291
  703SOL    HW3 2843   4.059   0.886   1.170
  703SOL    MW4 2844   3.984   0.912   1.208
  704SOL     OW 2845   4.032   1.190   1.119
  704SOL    HW2 2846   4.017   1.100   1.147
  704SOL    HW3 2847   3.957   1.238   1.153
  704SOL    MW4 2848   4.020   1.184   1.127
  705SOL     OW 2849   4.246   1.326   1.236
  705SOL    HW2 2850   4.250   1.291   1.325
  705SOL    HW3 2851   4.178   1.274   1.193
  705SOL    MW4 2852   4.238   1.314   1.242
  706SOL     OW 2853   4.261   1.546   1.089
  706SOL    HW2 2854   4.278   1.468   1.141
  706SOL    HW3 2855   4.333   1.605   1.112
  706SOL    MW4 2856   4.273   1.544   1.099
  707SOL     OW 2857   4.043   1.693   1.182
  707SOL    HW2 2858   4.043   1.688   1.277
  707SOL    HW3 2859   4.107   1.626   1.155
  707SOL    MW4 2860   4.052   1.683   1.191
  708SOL     OW 2861   4.063   1.938   1.072
  708SOL    HW2 2862   4.052   1.843   1.082
  708SOL    HW3 2863   4.061   1.953   0.978
  708SOL    MW4 2864   4.062   1.927   1.061
  709SOL     OW 2865   4.288   2.037   1.174
  709SOL    HW2 2866   4.286   2.129   1.147
  709SOL    HW3 2867   4.214   1.997   1.129
  709SOL    MW4 2868   4.278   2.044   1.165
  710SOL     OW 2869   4.286   2.295   1.099
  710SOL    HW2 2870   4.205   2.338   1.129
  710SOL    HW3 2871   4.281   2.301   1.004
  710SOL    MW4 2872   4.274   2.302   1.090
  711SOL     OW 2873   4.055   2.425   1.198
  711SOL    HW2 2874   4.052   2.402   1.291
  711SOL    HW3 2875   4.069   2.519   1.197
  711SOL    MW4 2876   4.057   2.434   1.210
  712SOL     OW 2877   4.085   2.701   1.125
  712SOL    HW2 2878   4.010   2.733   1.175
  712SOL    HW3 2879   4.055   2.702   1.034
  712SOL    MW4 2880   4.071   2.705   1.119
  713SOL     OW 2881   4.280   2.857   1.231
  713SOL    HW2 2882   4.309   2.927   1.174
  713SOL    HW3 2883   4.215   2.809   1.179
  713SOL    MW4 2884   4.275   2.860   1.217
  714SOL     OW 2885   4.302   3.117   1.080
  714SOL    HW2 2886   4.216   3.147   1.109
  714SOL    HW3 2887   4.297   3.122   0.984
  714SOL    MW4 2888   4.290   3.121   1.071
  715SOL     OW 2889   4.070   3.224   1.174
  715SOL    HW2 2890   4.059   3.214   1.268
  715SOL    HW3 2891   3.999   3.173   1.136
  715SOL    MW4 2892   4.059   3.216   1.181
  716SOL     OW 2893   4.081   3.482   1.085
  716SOL    HW2 2894   4.076   3.397   1.129
  716SOL    HW3 2895   3.996   3.523   1.102
  716SOL    MW4 2896   4.069   3.476   1.093
  717SOL     OW 2897   4.289   3.600   1.225
  717SOL    HW2 2898   4.215   3.555   1.184
  717SOL    HW3 2899   4.367   3.560   1.186
  717SOL    MW4 2900   4.290   3.589   1.215
  718SOL     OW 2901   4.274   3.818   1.056
  718SOL    HW2 2902   4.203   3.870   1.093
  718SOL    HW3 2903   4.284   3.744   1.117
  718SOL    MW4 2904   4.266   3.815   1.069
  719SOL     OW 2905   4.050   3.974   1.185
  719SOL    HW2 2906   4.039   4.068   1.170
  719SOL    HW3 2907   3.993   3.932   1.121
  719SOL    MW4 2908   4.041   3.981   1.175
  720SOL     OW 2909   4.058   4.250   1.115
  720SOL    HW2 2910   3.975   4.290   1.139
  720SOL    HW3 2911   4.050   4.233   1.021
  720SOL    MW4 2912   4.046   4.253   1.105
  721SOL     OW 2913   4.278   4.391   1.209
  721SOL    HW2 2914   4.202   4.344   1.176
  721SOL    HW3 2915   4.352   4.351   1.163
  721SOL    MW4 2916   4.278   4.380   1.198
  722SOL     OW 2917   0.261   4.630   1.564
  722SOL    HW2 2918   0.337   4.682   1.537
  722SOL    HW3 2919   0.187   4.672   1.521
  722SOL    MW4 2920   0.261   4.642   1.555
  723SOL     OW 2921   0.028   0.099   1.508
  723SOL    HW2 2922  -0.039   0.049   1.555
  723SOL    HW3 2923  -0.007   0.109   1.420
  723SOL    MW4 2924   0.015   0.094   1.503
  724SOL     OW 2925   4.461   0.374   1.582
  724SOL    HW2 2926   4.462   0.384   1.677
  724SOL    HW3 2927   4.483   0.282   1.568
  724SOL    MW4 2928   4.464   0.363   1.593
  725SOL     OW 2929   0.225   0.450   1.495
  725SOL    HW2 2930   0.136   0.429   1.523
  725SOL    HW3 2931   0.223   0.445   1.400
  725SOL    MW4 2932   0.213   0.447   1.486
  726SOL     OW 2933   0.224   0.731   1.550
  726SOL    HW2 2934   0.313   0.764   1.536
  726SOL    HW3 2935   0.231   0.637   1.540
  726SOL    MW4 2936   0.237   0.723   1.547
  727SOL     OW 2937   4.490   0.876   1.481
  727SOL    HW2 2938   4.505   0.966   1.508
  727SOL    HW3 2939   4.572   0.831   1.502
  727SOL    MW4 2940   4.503   0.882   1.488
  728SOL     OW 2941   0.007   1.133   1.562
  728SOL    HW2 2942   0.012   1.130   1.658
  728SOL    HW3 2943   0.076   1.193   1.536
  728SOL    MW4 2944   0.017   1.140   1.572
  729SOL     OW 2945   0.195   1.302   1.470
  729SOL    HW2 2946   0.194   1.392   1.503
  729SOL    HW3 2947   0.204   1.312   1.375
  729SOL    MW4 2948   0.196   1.315   1.462
  730SOL     OW 2949   0.185   1.576   1.585
  730SOL    HW2 2950   0.165   1.562   1.677
  730SOL    HW3 2951   0.106   1.615   1.548
  730SOL    MW4 2952   0.172   1.579   1.592
  731SOL     OW 2953   4.438   1.678   1.444
  731SOL    HW2 2954   4.441   1.757   1.498
  731SOL    HW3 2955   4.458   1.708   1.356
  731SOL    MW4 2956   4.441   1.692   1.440
  732SOL     OW 2957   4.482   1.918   1.558
  732SOL    HW2 2958   4.476   1.928   1.652
  732SOL    HW3 2959   4.408   1.968   1.523
  732SOL    MW4 2960   4.472   1.926   1.566
  733SOL     OW 2961   0.223   2.057   1.438
  733SOL    HW2 2962   0.149   1.999   1.454
  733SOL    HW3 2963   0.241   2.047   1.344
  733SOL    MW4 2964   0.215   2.048   1.427
  734SOL     OW 2965   0.215   2.319   1.545
  734SOL    HW2 2966   0.193   2.307   1.638
  734SOL    HW3 2967   0.234   2.231   1.513
  734SOL    MW4 2968   0.215   2.306   1.553
  735SOL     OW 2969   0.001   2.466   1.441
  735SOL    HW2 2970  -0.074   2.416   1.475
  735SOL    HW3 2971   0.078   2.426   1.481
  735SOL    MW4 2972   0.001   2.455   1.451
  736SOL     OW 2973   4.475   2.701   1.578
  736SOL    HW2 2974   4.391   2.737   1.552
  736SOL    HW3 2975   4.479   2.615   1.536
  736SOL    MW4 2976   4.464   2.694   1.569
  737SOL     OW 2977   0.228   2.846   1.479
  737SOL    HW2 2978   0.304   2.811   1.525
  737SOL    HW3 2979   0.153   2.804   1.522
  737SOL    MW4 2980   0.228   2.836   1.491
  738SOL     OW 2981   0.238   3.131   1.589
  738SOL    HW2 2982   0.157   3.164   1.548
  738SOL    HW3 2983   0.244   3.040   1.560
  738SOL    MW4 2984   0.228   3.124   1.580
  739SOL     OW 2985   4.473   3.210   1.492
  739SOL    HW2 2986   4.470   3.302   1.517
  739SOL    HW3 2987   4.486   3.211   1.397
  739SOL    MW4 2988   4.474   3.222   1.483
  740SOL     OW 2989   0.019   3.479   1.567
  740SOL    HW2 2990   0.029   3.485   1.662
  740SOL    HW3 2991  -0.057   3.534   1.548
  740SOL    MW4 2992   0.010   3.487   1.577
  741SOL     OW 2993   0.248   3.613   1.458
  741SOL    HW2 2994   0.244   3.704   1.490
  741SOL    HW3 2995   0.174   3.570   1.502
  741SOL    MW4 2996   0.238   3.620   1.468
  742SOL     OW 2997   0.249   3.857   1.563
  742SOL    HW2 2998   0.246   3.867   1.658
  742SOL    HW3 2999   0.327   3.907   1.536
  742SOL    MW4 3000   0.259   3.865   1.572
  743SOL     OW 3001   0.026   3.978   1.420
  743SOL    HW2 3002   0.043   4.067   1.451
  743SOL    HW3 3003   0.099   3.926   1.455
  743SOL    MW4 3004   0.038   3.983   1.429
  744SOL     OW 3005   0.027   4.239   1.557
  744SOL    HW2 3006   0.004   4.225   1.649
  744SOL    HW3 3007  -0.044   4.295   1.523
  744SOL    MW4 3008   0.015   4.245   1.565
  745SOL     OW 3009   0.238   4.369   1.448
  745SOL    HW2 3010   0.153   4.333   1.475
  745SOL    HW3 3011   0.239   4.457   1.485
  745SOL    MW4 3012   0.227   4.376   1.456
  746SOL     OW 3013   0.718   4.653   1.548
  746SOL    HW2 3014   0.785   4.710   1.511
  746SOL    HW3 3015   0.636   4.688   1.513
  746SOL    MW4 3016   0.716   4.665   1.539
  747SOL     OW 3017   0.467   0.121   1.472
  747SOL    HW2 3018   0.454   0.203   1.520
  747SOL    HW3 3019   0.443   0.141   1.382
  747SOL    MW4 3020   0.462   0.135   1.467
  748SOL     OW 3021   0.451   0.360   1.616
  748SOL    HW2 3022   0.526   0.402   1.572
  748SOL    HW3 3023   0.374   0.403   1.578
  748SOL    MW4 3024   0.451   0.371   1.605
  749SOL     OW 3025   0.679   0.484   1.510
  749SOL    HW2 3026   0.694   0.568   1.554
  749SOL    HW3 3027   0.644   0.509   1.424
  749SOL    MW4 3028   0.676   0.498   1.504
  750SOL     OW 3029   0.682   0.743   1.602
  750SOL    HW2 3030   0.676   0.768   1.694
  750SOL    HW3 3031   0.757   0.792   1.569
  750SOL    MW4 3032   0.691   0.753   1.610
  751SOL     OW 3033   0.445   0.846   1.471
  751SOL    HW2 3034   0.434   0.940   1.484
  751SOL    HW3 3035   0.520   0.822   1.524
  751SOL    MW4 3036   0.453   0.855   1.479
  752SOL     OW 3037   0.393   1.105   1.523
  752SOL    HW2 3038   0.480   1.143   1.510
  752SOL    HW3 3039   0.332   1.174   1.496
  752SOL    MW4 3040   0.396   1.119   1.518
  753SOL     OW 3041   0.633   1.265   1.493
  753SOL    HW2 3042   0.639   1.349   1.539
  753SOL    HW3 3043   0.640   1.288   1.400
  753SOL    MW4 3044   0.635   1.279   1.487
  754SOL     OW 3045   0.633   1.543   1.587
  754SOL    HW2 3046   0.702   1.596   1.547
  754SOL    HW3 3047   0.554   1.569   1.541
  754SOL    MW4 3048   0.632   1.553   1.575
  755SOL     OW 3049   0.418   1.654   1.464
  755SOL    HW2 3050   0.421   1.748   1.483
  755SOL    HW3 3051   0.341   1.623   1.511
  755SOL    MW4 3052   0.408   1.662   1.473
  756SOL     OW 3053   0.442   1.910   1.535
  756SOL    HW2 3054   0.435   1.914   1.631
  756SOL    HW3 3055   0.372   1.968   1.503
  756SOL    MW4 3056   0.432   1.918   1.544
  757SOL     OW 3057   0.693   2.021   1.458
  757SOL    HW2 3058   0.775   1.984   1.489
  757SOL    HW3 3059   0.625   1.968   1.499
  757SOL    MW4 3060   0.695   2.009   1.468
  758SOL     OW 3061   0.709   2.294   1.563
  758SOL    HW2 3062   0.620   2.325   1.546
  758SOL    HW3 3063   0.709   2.204   1.531
  758SOL    MW4 3064   0.697   2.286   1.556
  759SOL     OW 3065   0.477   2.433   1.511
  759SOL    HW2 3066   0.463   2.527   1.526
  759SOL    HW3 3067   0.398   2.391   1.546
  759SOL    MW4 3068   0.465   2.440   1.517
  760SOL     OW 3069   0.457   2.728   1.582
  760SOL    HW2 3070   0.459   2.727   1.678
  760SOL    HW3 3071   0.530   2.785   1.557
  760SOL    MW4 3072   0.467   2.735   1.591
  761SOL     OW 3073   0.682   2.845   1.481
  761SOL    HW2 3074   0.688   2.931   1.522
  761SOL    HW3 3075   0.684   2.863   1.387
  761SOL    MW4 3076   0.683   2.858   1.474
  762SOL     OW 3077   0.666   3.090   1.615
  762SOL    HW2 3078   0.742   3.140   1.584
  762SOL    HW3 3079   0.592   3.125   1.565
  762SOL    MW4 3080   0.666   3.102   1.605
  763SOL     OW 3081   0.467   3.252   1.494
  763SOL    HW2 3082   0.393   3.215   1.542
  763SOL    HW3 3083   0.441   3.247   1.402
  763SOL    MW4 3084   0.454   3.246   1.488
  764SOL     OW 3085   0.488   3.511   1.543
  764SOL    HW2 3086   0.479   3.418   1.520
  764SOL    HW3 3087   0.405   3.550   1.515
  764SOL    MW4 3088   0.476   3.504   1.536
  765SOL     OW 3089   0.733   3.642   1.467
  765SOL    HW2 3090   0.797   3.584   1.508
  765SOL    HW3 3091   0.648   3.605   1.489
  765SOL    MW4 3092   0.730   3.630   1.475
  766SOL     OW 3093   0.695   3.913   1.528
  766SOL    HW2 3094   0.777   3.958   1.507
  766SOL    HW3 3095   0.717   3.820   1.523
  766SOL    MW4 3096   0.709   3.907   1.525
  767SOL     OW 3097   0.457   4.006   1.455
  767SOL    HW2 3098   0.537   3.959   1.478
  767SOL    HW3 3099   0.461   4.016   1.360
  767SOL    MW4 3100   0.468   4.001   1.445
  768SOL     OW 3101   0.470   4.248   1.551
  768SOL    HW2 3102   0.470   4.157   1.521
  768SOL    HW3 3103   0.384   4.281   1.527
  768SOL    MW4 3104   0.459   4.240   1.544
  769SOL     OW 3105   0.711   4.385   1.475
  769SOL    HW2 3106   0.628   4.348   1.507
  769SOL    HW3 3107   0.715   4.472   1.514
  769SOL    MW4 3108   0.701   4.392   1.485
  770SOL     OW 3109   1.144   4.628   1.536
  770SOL    HW2 3110   1.141   4.628   1.631
  770SOL    HW3 3111   1.220   4.683   1.514
  770SOL    MW4 3112   1.154   4.635   1.546
  771SOL     OW 3113   0.946   0.135   1.443
  771SOL    HW2 3114   0.942   0.202   1.511
  771SOL    HW3 3115   1.018   0.078   1.470
  771SOL    MW4 3116   0.955   0.136   1.456
  772SOL     OW 3117   0.933   0.356   1.614
  772SOL    HW2 3118   0.929   0.362   1.709
  772SOL    HW3 3119   0.845   0.378   1.584
  772SOL    MW4 3120   0.921   0.359   1.623
  773SOL     OW 3121   1.112   0.517   1.450
  773SOL    HW2 3122   1.099   0.606   1.483
  773SOL    HW3 3123   1.057   0.462   1.507
  773SOL    MW4 3124   1.103   0.521   1.462
  774SOL     OW 3125   1.097   0.759   1.597
  774SOL    HW2 3126   1.109   0.744   1.691
  774SOL    HW3 3127   1.180   0.795   1.568
  774SOL    MW4 3128   1.109   0.761   1.606
  775SOL     OW 3129   0.887   0.897   1.483
  775SOL    HW2 3130   0.964   0.857   1.524
  775SOL    HW3 3131   0.904   0.890   1.389
  775SOL    MW4 3132   0.900   0.891   1.476
  776SOL     OW 3133   0.899   1.150   1.579
  776SOL    HW2 3134   0.896   1.060   1.544
  776SOL    HW3 3135   0.816   1.189   1.552
  776SOL    MW4 3136   0.888   1.143   1.571
  777SOL     OW 3137   1.095   1.317   1.444
  777SOL    HW2 3138   1.165   1.258   1.470
  777SOL    HW3 3139   1.016   1.278   1.479
  777SOL    MW4 3140   1.094   1.304   1.452
  778SOL     OW 3141   1.088   1.569   1.572
  778SOL    HW2 3142   1.158   1.620   1.532
  778SOL    HW3 3143   1.092   1.484   1.530
  778SOL    MW4 3144   1.098   1.565   1.561
  779SOL     OW 3145   0.859   1.671   1.464
  779SOL    HW2 3146   0.932   1.629   1.508
  779SOL    HW3 3147   0.878   1.662   1.371
  779SOL    MW4 3148   0.871   1.664   1.458
  780SOL     OW 3149   0.903   1.911   1.589
  780SOL    HW2 3150   0.978   1.959   1.553
  780SOL    HW3 3151   0.903   1.827   1.543
  780SOL    MW4 3152   0.913   1.906   1.579
  781SOL     OW 3153   1.098   2.044   1.460
  781SOL    HW2 3154   1.166   1.988   1.498
  781SOL    HW3 3155   1.115   2.131   1.496
  781SOL    MW4 3156   1.110   2.048   1.469
  782SOL     OW 3157   1.135   2.290   1.588
  782SOL    HW2 3158   1.216   2.330   1.558
  782SOL    HW3 3159   1.066   2.343   1.549
  782SOL    MW4 3160   1.137   2.302   1.579
  783SOL     OW 3161   0.915   2.434   1.462
  783SOL    HW2 3162   0.906   2.512   1.516
  783SOL    HW3 3163   0.841   2.378   1.488
  783SOL    MW4 3164   0.904   2.437   1.473
  784SOL     OW 3165   0.887   2.681   1.570
  784SOL    HW2 3166   0.909   2.713   1.657
  784SOL    HW3 3167   0.800   2.717   1.552
  784SOL    MW4 3168   0.879   2.690   1.579
  785SOL     OW 3169   1.100   2.816   1.469
  785SOL    HW2 3170   1.092   2.905   1.502
  785SOL    HW3 3171   1.015   2.775   1.487
  785SOL    MW4 3172   1.088   2.822   1.476
  786SOL     OW 3173   1.112   3.079   1.573
  786SOL    HW2 3174   1.115   3.080   1.669
  786SOL    HW3 3175   1.191   3.125   1.546
  786SOL    MW4 3176   1.123   3.085   1.582
  787SOL     OW 3177   0.895   3.220   1.516
  787SOL    HW2 3178   0.967   3.162   1.539
  787SOL    HW3 3179   0.908   3.238   1.423
  787SOL    MW4 3180   0.906   3.215   1.506
  788SOL     OW 3181   0.924   3.475   1.594
  788SOL    HW2 3182   0.993   3.508   1.536
  788SOL    HW3 3183   0.919   3.381   1.575
  788SOL    MW4 3184   0.932   3.467   1.584
  789SOL     OW 3185   1.124   3.610   1.464
  789SOL    HW2 3186   1.206   3.569   1.490
  789SOL    HW3 3187   1.132   3.623   1.370
  789SOL    MW4 3188   1.136   3.607   1.455
  790SOL     OW 3189   1.123   3.863   1.578
  790SOL    HW2 3190   1.197   3.909   1.539
  790SOL    HW3 3191   1.131   3.773   1.548
  790SOL    MW4 3192   1.134   3.857   1.569
  791SOL     OW 3193   0.932   4.028   1.437
  791SOL    HW2 3194   0.925   4.110   1.486
  791SOL    HW3 3195   0.993   3.975   1.488
  791SOL    MW4 3196   0.939   4.032   1.450
  792SOL     OW 3197   0.874   4.226   1.629
  792SOL    HW2 3198   0.869   4.250   1.721
  792SOL    HW3 3199   0.800   4.271   1.588
  792SOL    MW4 3200   0.864   4.235   1.636
  793SOL     OW 3201   1.063   4.368   1.457
  793SOL    HW2 3202   0.992   4.338   1.514
  793SOL    HW3 3203   1.087   4.454   1.491
  793SOL    MW4 3204   1.057   4.375   1.469
  794SOL     OW 3205   1.586   4.648   1.539
  794SOL    HW2 3206   1.578   4.651   1.634
  794SOL    HW3 3207   1.503   4.683   1.507
  794SOL    MW4 3208   1.574   4.653   1.547
  795SOL     OW 3209   1.361   0.111   1.463
  795SOL    HW2 3210   1.342   0.198   1.497
  795SOL    HW3 3211   1.341   0.116   1.369
  795SOL    MW4 3212   1.356   0.123   1.455
  796SOL     OW 3213   1.317   0.362   1.563
  796SOL    HW2 3214   1.403   0.399   1.545
  796SOL    HW3 3215   1.256   0.419   1.517
  796SOL    MW4 3216   1.320   0.374   1.554
  797SOL     OW 3217   1.550   0.478   1.499
  797SOL    HW2 3218   1.626   0.433   1.537
  797SOL    HW3 3219   1.561   0.468   1.405
  797SOL    MW4 3220   1.562   0.471   1.492
  798SOL     OW 3221   1.551   0.756   1.567
  798SOL    HW2 3222   1.584   0.753   1.657
  798SOL    HW3 3223   1.555   0.665   1.537
  798SOL    MW4 3224   1.556   0.743   1.575
  799SOL     OW 3225   1.315   0.892   1.457
  799SOL    HW2 3226   1.399   0.866   1.496
  799SOL    HW3 3227   1.329   0.884   1.363
  799SOL    MW4 3228   1.328   0.887   1.450
  800SOL     OW 3229   1.301   1.167   1.534
  800SOL    HW2 3230   1.317   1.173   1.628
  800SOL    HW3 3231   1.301   1.073   1.516
  800SOL    MW4 3232   1.303   1.156   1.544
  801SOL     OW 3233   1.527   1.249   1.426
  801SOL    HW2 3234   1.442   1.220   1.458
  801SOL    HW3 3235   1.511   1.274   1.335
  801SOL    MW4 3236   1.514   1.248   1.418
  802SOL     OW 3237   1.583   1.508   1.522
  802SOL    HW2 3238   1.565   1.500   1.615
  802SOL    HW3 3239   1.575   1.419   1.488
  802SOL    MW4 3240   1.580   1.495   1.529
  803SOL     OW 3241   1.340   1.681   1.458
  803SOL    HW2 3242   1.417   1.625   1.472
  803SOL    HW3 3243   1.329   1.683   1.363
  803SOL    MW4 3244   1.349   1.674   1.448
  804SOL     OW 3245   1.303   1.912   1.611
  804SOL    HW2 3246   1.328   1.891   1.701
  804SOL    HW3 3247   1.329   1.835   1.561
  804SOL    MW4 3248   1.309   1.899   1.617
  805SOL     OW 3249   1.507   2.061   1.505
  805SOL    HW2 3250   1.432   2.025   1.553
  805SOL    HW3 3251   1.490   2.039   1.413
  805SOL    MW4 3252   1.495   2.053   1.499
  806SOL     OW 3253   1.605   2.325   1.638
  806SOL    HW2 3254   1.676   2.364   1.586
  806SOL    HW3 3255   1.587   2.242   1.594
  806SOL    MW4 3256   1.612   2.319   1.625
  807SOL     OW 3257   1.365   2.424   1.496
  807SOL    HW2 3258   1.357   2.517   1.513
  807SOL    HW3 3259   1.448   2.398   1.536
  807SOL    MW4 3260   1.375   2.433   1.503
  808SOL     OW 3261   1.348   2.690   1.574
  808SOL    HW2 3262   1.422   2.741   1.542
  808SOL    HW3 3263   1.271   2.731   1.535
  808SOL    MW4 3264   1.348   2.702   1.565
  809SOL     OW 3265   1.545   2.854   1.478
  809SOL    HW2 3266   1.634   2.828   1.499
  809SOL    HW3 3267   1.540   2.850   1.383
  809SOL    MW4 3268   1.556   2.850   1.468
  810SOL     OW 3269   1.548   3.112   1.593
  810SOL    HW2 3270   1.625   3.157   1.559
  810SOL    HW3 3271   1.544   3.030   1.544
  810SOL    MW4 3272   1.558   3.107   1.582
  811SOL     OW 3273   1.309   3.224   1.479
  811SOL    HW2 3274   1.325   3.317   1.497
  811SOL    HW3 3275   1.391   3.181   1.505
  811SOL    MW4 3276   1.322   3.231   1.485
  812SOL     OW 3277   1.362   3.484   1.523
  812SOL    HW2 3278   1.373   3.475   1.618
  812SOL    HW3 3279   1.438   3.536   1.495
  812SOL    MW4 3280   1.374   3.490   1.532
  813SOL     OW 3281   1.602   3.610   1.470
  813SOL    HW2 3282   1.596   3.702   1.497
  813SOL    HW3 3283   1.607   3.613   1.375
  813SOL    MW4 3284   1.602   3.622   1.461
  814SOL     OW 3285   1.569   3.879   1.565
  814SOL    HW2 3286   1.569   3.908   1.656
  814SOL    HW3 3287   1.488   3.916   1.529
  814SOL    MW4 3288   1.558   3.887   1.572
  815SOL     OW 3289   1.345   3.996   1.454
  815SOL    HW2 3290   1.330   4.082   1.494
  815SOL    HW3 3291   1.349   4.014   1.360
  815SOL    MW4 3292   1.344   4.010   1.447
  816SOL     OW 3293   1.308   4.250   1.575
  816SOL    HW2 3294   1.389   4.290   1.546
  816SOL    HW3 3295   1.240   4.289   1.520
  816SOL    MW4 3296   1.310   4.260   1.564
  817SOL     OW 3297   1.544   4.378   1.478
  817SOL    HW2 3298   1.622   4.325   1.495
  817SOL    HW3 3299   1.573   4.468   1.494
  817SOL    MW4 3300   1.558   4.383   1.482
  818SOL     OW 3301   2.034   4.616   1.532
  818SOL    HW2 3302   2.034   4.609   1.628
  818SOL    HW3 3303   1.955   4.666   1.512
  818SOL    MW4 3304   2.023   4.621   1.542
  819SOL     OW 3305   1.828   0.099   1.461
  819SOL    HW2 3306   1.739   0.067   1.480
  819SOL    HW3 3307   1.831   0.104   1.366
  819SOL    MW4 3308   1.817   0.095   1.451
  820SOL     OW 3309   1.795   0.346   1.573
  820SOL    HW2 3310   1.870   0.388   1.532
  820SOL    HW3 3311   1.796   0.257   1.539
  820SOL    MW4 3312   1.805   0.340   1.563
  821SOL     OW 3313   2.009   0.487   1.474
  821SOL    HW2 3314   2.087   0.441   1.505
  821SOL    HW3 3315   2.013   0.572   1.517
  821SOL    MW4 3316   2.020   0.492   1.483
  822SOL     OW 3317   1.997   0.755   1.597
  822SOL    HW2 3318   2.075   0.785   1.551
  822SOL    HW3 3319   1.924   0.797   1.551
  822SOL    MW4 3320   1.997   0.764   1.585
  823SOL     OW 3321   1.785   0.867   1.470
  823SOL    HW2 3322   1.781   0.959   1.494
  823SOL    HW3 3323   1.707   0.828   1.511
  823SOL    MW4 3324   1.774   0.874   1.479
  824SOL     OW 3325   1.750   1.142   1.559
  824SOL    HW2 3326   1.826   1.167   1.508
  824SOL    HW3 3327   1.678   1.193   1.521
  824SOL    MW4 3328   1.750   1.152   1.547
  825SOL     OW 3329   1.993   1.249   1.456
  825SOL    HW2 3330   1.974   1.331   1.502
  825SOL    HW3 3331   1.993   1.274   1.363
  825SOL    MW4 3332   1.990   1.263   1.450
  826SOL     OW 3333   1.988   1.513   1.557
  826SOL    HW2 3334   2.066   1.561   1.530
  826SOL    HW3 3335   1.915   1.568   1.527
  826SOL    MW4 3336   1.988   1.526   1.549
  827SOL     OW 3337   1.786   1.672   1.471
  827SOL    HW2 3338   1.711   1.618   1.494
  827SOL    HW3 3339   1.794   1.663   1.376
  827SOL    MW4 3340   1.777   1.664   1.462
  828SOL     OW 3341   1.759   1.938   1.595
  828SOL    HW2 3342   1.775   1.854   1.553
  828SOL    HW3 3343   1.675   1.967   1.560
  828SOL    MW4 3344   1.750   1.931   1.585
  829SOL     OW 3345   1.991   2.060   1.506
  829SOL    HW2 3346   2.059   1.997   1.530
  829SOL    HW3 3347   1.910   2.019   1.535
  829SOL    MW4 3348   1.989   2.046   1.513
  830SOL     OW 3349   2.012   2.336   1.556
  830SOL    HW2 3350   2.011   2.344   1.651
  830SOL    HW3 3351   2.009   2.242   1.539
  830SOL    MW4 3352   2.011   2.325   1.566
  831SOL     OW 3353   1.788   2.464   1.461
  831SOL    HW2 3354   1.872   2.422   1.480
  831SOL    HW3 3355   1.774   2.448   1.368
  831SOL    MW4 3356   1.797   2.456   1.451
  832SOL     OW 3357   1.772   2.737   1.589
  832SOL    HW2 3358   1.863   2.753   1.565
  832SOL    HW3 3359   1.753   2.649   1.557
  832SOL    MW4 3360   1.781   2.728   1.581
  833SOL     OW 3361   2.031   2.827   1.512
  833SOL    HW2 3362   2.033   2.921   1.530
  833SOL    HW3 3363   2.040   2.821   1.417
  833SOL    MW4 3364   2.032   2.839   1.502
  834SOL     OW 3365   2.030   3.091   1.570
  834SOL    HW2 3366   2.029   3.071   1.664
  834SOL    HW3 3367   2.103   3.152   1.560
  834SOL    MW4 3368   2.039   3.096   1.581
  835SOL     OW 3369   1.791   3.205   1.487
  835SOL    HW2 3370   1.814   3.297   1.498
  835SOL    HW3 3371   1.862   3.158   1.529
  835SOL    MW4 3372   1.803   3.211   1.494
  836SOL     OW 3373   1.807   3.467   1.569
  836SOL    HW2 3374   1.809   3.477   1.664
  836SOL    HW3 3375   1.737   3.525   1.540
  836SOL    MW4 3376   1.798   3.476   1.577
  837SOL     OW 3377   2.010   3.600   1.446
  837SOL    HW2 3378   2.093   3.571   1.484
  837SOL    HW3 3379   1.944   3.545   1.487
  837SOL    MW4 3380   2.013   3.589   1.457
  838SOL     OW 3381   2.027   3.832   1.596
  838SOL    HW2 3382   2.092   3.890   1.554
  838SOL    HW3 3383   2.026   3.754   1.541
  838SOL    MW4 3384   2.036   3.830   1.583
  839SOL     OW 3385   1.809   3.965   1.471
  839SOL    HW2 3386   1.872   3.926   1.532
  839SOL    HW3 3387   1.724   3.936   1.503
  839SOL    MW4 3388   1.806   3.956   1.483
  840SOL     OW 3389   1.768   4.226   1.534
  840SOL    HW2 3390   1.847   4.276   1.512
  840SOL    HW3 3391   1.790   4.136   1.509
  840SOL    MW4 3392   1.782   4.220   1.528
  841SOL     OW 3393   2.002   4.348   1.439
  841SOL    HW2 3394   2.082   4.304   1.467
  841SOL    HW3 3395   2.020   4.441   1.453
  841SOL    MW4 3396   2.015   4.355   1.445
  842SOL     OW 3397   2.470   4.567   1.555
  842SOL    HW2 3398   2.485   4.568   1.649
  842SOL    HW3 3399   2.399   4.630   1.541
  842SOL    MW4 3400   2.462   4.576   1.565
  843SOL     OW 3401   2.267   0.088   1.498
  843SOL    HW2 3402   2.189   0.036   1.514
  843SOL    HW3 3403   2.257   0.120   1.408
  843SOL    MW4 3404   2.255   0.086   1.488
  844SOL     OW 3405   2.218   0.349   1.596
  844SOL    HW2 3406   2.232   0.349   1.691
  844SOL    HW3 3407   2.240   0.260   1.569
  844SOL    MW4 3408   2.223   0.337   1.605
  845SOL     OW 3409   2.433   0.520   1.512
  845SOL    HW2 3410   2.500   0.461   1.547
  845SOL    HW3 3411   2.350   0.482   1.541
  845SOL    MW4 3412   2.431   0.507   1.520
  846SOL     OW 3413   2.465   0.787   1.590
  846SOL    HW2 3414   2.386   0.813   1.544
  846SOL    HW3 3415   2.479   0.696   1.564
  846SOL    MW4 3416   2.457   0.778   1.580
  847SOL     OW 3417   2.214   0.860   1.461
  847SOL    HW2 3418   2.228   0.946   1.501
  847SOL    HW3 3419   2.213   0.877   1.367
  847SOL    MW4 3420   2.215   0.873   1.454
  848SOL     OW 3421   2.235   1.126   1.558
  848SOL    HW2 3422   2.240   1.117   1.653
  848SOL    HW3 3423   2.146   1.156   1.542
  848SOL    MW4 3424   2.224   1.128   1.568
  849SOL     OW 3425   2.478   1.258   1.486
  849SOL    HW2 3426   2.393   1.223   1.513
  849SOL    HW3 3427   2.485   1.237   1.393
  849SOL    MW4 3428   2.468   1.251   1.477
  850SOL     OW 3429   2.423   1.520   1.583
  850SOL    HW2 3430   2.511   1.554   1.571
  850SOL    HW3 3431   2.428   1.428   1.555
  850SOL    MW4 3432   2.435   1.512   1.578
  851SOL     OW 3433   2.206   1.659   1.453
  851SOL    HW2 3434   2.288   1.612   1.470
  851SOL    HW3 3435   2.189   1.644   1.360
  851SOL    MW4 3436   2.215   1.651   1.443
  852SOL     OW 3437   2.229   1.902   1.579
  852SOL    HW2 3438   2.244   1.885   1.672
  852SOL    HW3 3439   2.228   1.816   1.538
  852SOL    MW4 3440   2.231   1.889   1.586
  853SOL     OW 3441   2.475   2.045   1.530
  853SOL    HW2 3442   2.395   1.994   1.544
  853SOL    HW3 3443   2.482   2.051   1.435
  853SOL    MW4 3444   2.465   2.039   1.520
  854SOL     OW 3445   2.481   2.316   1.635
  854SOL    HW2 3446   2.478   2.304   1.730
  854SOL    HW3 3447   2.473   2.228   1.599
  854SOL    MW4 3448   2.479   2.303   1.643
  855SOL     OW 3449   2.260   2.453   1.512
  855SOL    HW2 3450   2.332   2.403   1.550
  855SOL    HW3 3451   2.182   2.400   1.533
  855SOL    MW4 3452   2.259   2.439   1.520
  856SOL     OW 3453   2.233   2.689   1.650
  856SOL    HW2 3454   2.269   2.611   1.610
  856SOL    HW3 3455   2.164   2.717   1.591
  856SOL    MW4 3456   2.229   2.683   1.637
  857SOL     OW 3457   2.406   2.834   1.475
  857SOL    HW2 3458   2.439   2.918   1.507
  857SOL    HW3 3459   2.365   2.793   1.551
  857SOL    MW4 3460   2.405   2.840   1.489
  858SOL     OW 3461   2.489   3.080   1.585
  858SOL    HW2 3462   2.566   3.130   1.556
  858SOL    HW3 3463   2.416   3.142   1.578
  858SOL    MW4 3464   2.490   3.095   1.580
  859SOL     OW 3465   2.258   3.247   1.537
  859SOL    HW2 3466   2.246   3.341   1.541
  859SOL    HW3 3467   2.256   3.226   1.444
  859SOL    MW4 3468   2.256   3.256   1.526
  860SOL     OW 3469   2.244   3.537   1.561
  860SOL    HW2 3470   2.240   3.519   1.655
  860SOL    HW3 3471   2.328   3.582   1.548
  860SOL    MW4 3472   2.254   3.541   1.571
  861SOL     OW 3473   2.489   3.627   1.477
  861SOL    HW2 3474   2.573   3.593   1.509
  861SOL    HW3 3475   2.492   3.720   1.497
  861SOL    MW4 3476   2.501   3.635   1.484
  862SOL     OW 3477   2.492   3.882   1.566
  862SOL    HW2 3478   2.501   3.882   1.661
  862SOL    HW3 3479   2.567   3.933   1.535
  862SOL    MW4 3480   2.503   3.889   1.574
  863SOL     OW 3481   2.242   3.975   1.478
  863SOL    HW2 3482   2.324   3.939   1.512
  863SOL    HW3 3483   2.262   3.998   1.387
  863SOL    MW4 3484   2.255   3.974   1.470
  864SOL     OW 3485   2.237   4.253   1.547
  864SOL    HW2 3486   2.321   4.288   1.517
  864SOL    HW3 3487   2.249   4.158   1.544
  864SOL    MW4 3488   2.250   4.245   1.542
  865SOL     OW 3489   2.493   4.323   1.454
  865SOL    HW2 3490   2.488   4.412   1.489
  865SOL    HW3 3491   2.492   4.335   1.359
  865SOL    MW4 3492   2.492   4.336   1.446
  866SOL     OW 3493   2.950   4.627   1.580
  866SOL    HW2 3494   2.962   4.642   1.674
  866SOL    HW3 3495   2.863   4.664   1.562
  866SOL    MW4 3496   2.940   4.634   1.590
  867SOL     OW 3497   2.683   0.079   1.518
  867SOL    HW2 3498   2.668   0.169   1.547
  867SOL    HW3 3499   2.603   0.033   1.541
  867SOL    MW4 3500   2.670   0.085   1.525
  868SOL     OW 3501   2.635   0.339   1.592
  868SOL    HW2 3502   2.659   0.350   1.684
  868SOL    HW3 3503   2.704   0.385   1.544
  868SOL    MW4 3504   2.647   0.347   1.598
  869SOL     OW 3505   2.850   0.466   1.467
  869SOL    HW2 3506   2.864   0.552   1.506
  869SOL    HW3 3507   2.876   0.476   1.375
  869SOL    MW4 3508   2.855   0.479   1.460
  870SOL     OW 3509   2.836   0.722   1.596
  870SOL    HW2 3510   2.876   0.743   1.680
  870SOL    HW3 3511   2.782   0.798   1.575
  870SOL    MW4 3512   2.834   0.734   1.604
  871SOL     OW 3513   2.686   0.931   1.499
  871SOL    HW2 3514   2.607   0.880   1.521
  871SOL    HW3 3515   2.677   0.951   1.406
  871SOL    MW4 3516   2.674   0.927   1.490
  872SOL     OW 3517   2.684   1.169   1.640
  872SOL    HW2 3518   2.666   1.081   1.606
  872SOL    HW3 3519   2.618   1.225   1.601
  872SOL    MW4 3520   2.673   1.165   1.630
  873SOL     OW 3521   2.884   1.229   1.446
  873SOL    HW2 3522   2.964   1.192   1.484
  873SOL    HW3 3523   2.815   1.201   1.506
  873SOL    MW4 3524   2.886   1.221   1.459
  874SOL     OW 3525   2.940   1.493   1.531
  874SOL    HW2 3526   2.863   1.546   1.548
  874SOL    HW3 3527   2.906   1.408   1.503
  874SOL    MW4 3528   2.926   1.489   1.530
  875SOL     OW 3529   2.690   1.616   1.545
  875SOL    HW2 3530   2.684   1.710   1.564
  875SOL    HW3 3531   2.689   1.611   1.449
  875SOL    MW4 3532   2.689   1.628   1.535
  876SOL     OW 3533   2.695   1.892   1.565
  876SOL    HW2 3534   2.701   1.906   1.659
  876SOL    HW3 3535   2.617   1.940   1.538
  876SOL    MW4 3536   2.686   1.900   1.574
  877SOL     OW 3537   2.904   2.019   1.438
  877SOL    HW2 3538   2.900   2.103   1.483
  877SOL    HW3 3539   2.839   1.964   1.483
  877SOL    MW4 3540   2.895   2.023   1.450
  878SOL     OW 3541   2.894   2.257   1.581
  878SOL    HW2 3542   2.886   2.274   1.675
  878SOL    HW3 3543   2.816   2.297   1.543
  878SOL    MW4 3544   2.883   2.265   1.589
  879SOL     OW 3545   2.684   2.414   1.482
  879SOL    HW2 3546   2.693   2.505   1.509
  879SOL    HW3 3547   2.615   2.379   1.539
  879SOL    MW4 3548   2.676   2.422   1.493
  880SOL     OW 3549   2.646   2.697   1.561
  880SOL    HW2 3550   2.718   2.759   1.548
  880SOL    HW3 3551   2.569   2.741   1.525
  880SOL    MW4 3552   2.645   2.711   1.555
  881SOL     OW 3553   2.884   2.845   1.485
  881SOL    HW2 3554   2.955   2.788   1.514
  881SOL    HW3 3555   2.896   2.926   1.534
  881SOL    MW4 3556   2.895   2.848   1.495
  882SOL     OW 3557   2.923   3.100   1.588
  882SOL    HW2 3558   2.925   3.116   1.682
  882SOL    HW3 3559   2.992   3.155   1.552
  882SOL    MW4 3560   2.932   3.109   1.595
  883SOL     OW 3561   2.691   3.241   1.512
  883SOL    HW2 3562   2.770   3.196   1.544
  883SOL    HW3 3563   2.701   3.244   1.417
  883SOL    MW4 3564   2.703   3.235   1.504
  884SOL     OW 3565   2.726   3.500   1.580
  884SOL    HW2 3566   2.733   3.496   1.676
  884SOL    HW3 3567   2.699   3.412   1.555
  884SOL    MW4 3568   2.723   3.488   1.590
  885SOL     OW 3569   2.954   3.624   1.457
  885SOL    HW2 3570   2.881   3.582   1.504
  885SOL    HW3 3571   2.923   3.631   1.366
  885SOL    MW4 3572   2.940   3.619   1.451
  886SOL     OW 3573   2.948   3.893   1.565
  886SOL    HW2 3574   2.872   3.934   1.525
  886SOL    HW3 3575   2.948   3.804   1.531
  886SOL    MW4 3576   2.938   3.887   1.556
  887SOL     OW 3577   2.720   4.022   1.457
  887SOL    HW2 3578   2.717   4.112   1.490
  887SOL    HW3 3579   2.732   4.032   1.363
  887SOL    MW4 3580   2.721   4.035   1.449
  888SOL     OW 3581   2.727   4.278   1.579
  888SOL    HW2 3582   2.811   4.307   1.543
  888SOL    HW3 3583   2.661   4.315   1.520
  888SOL    MW4 3584   2.729   4.287   1.566
  889SOL     OW 3585   2.967   4.364   1.518
  889SOL    HW2 3586   2.967   4.457   1.543
  889SOL    HW3 3587   2.965   4.365   1.422
  889SOL    MW4 3588   2.967   4.377   1.509
  890SOL     OW 3589   3.370   4.660   1.608
  890SOL    HW2 3590   3.457   4.682   1.573
  890SOL    HW3 3591   3.356   4.570   1.582
  890SOL    MW4 3592   3.380   4.651   1.600
  891SOL     OW 3593   3.132   0.126   1.487
  891SOL    HW2 3594   3.209   0.086   1.526
  891SOL    HW3 3595   3.059   0.069   1.510
  891SOL    MW4 3596   3.133   0.113   1.495
  892SOL     OW 3597   3.098   0.410   1.589
  892SOL    HW2 3598   3.121   0.320   1.566
  892SOL    HW3 3599   3.010   0.422   1.553
  892SOL    MW4 3600   3.089   0.399   1.581
  893SOL     OW 3601   3.360   0.474   1.533
  893SOL    HW2 3602   3.267   0.461   1.551
  893SOL    HW3 3603   3.363   0.492   1.439
  893SOL    MW4 3604   3.348   0.475   1.523
  894SOL     OW 3605   3.297   0.733   1.607
  894SOL    HW2 3606   3.304   0.750   1.701
  894SOL    HW3 3607   3.329   0.643   1.597
  894SOL    MW4 3608   3.302   0.723   1.618
  895SOL     OW 3609   3.086   0.792   1.451
  895SOL    HW2 3610   3.154   0.761   1.511
  895SOL    HW3 3611   3.004   0.781   1.499
  895SOL    MW4 3612   3.084   0.786   1.465
  896SOL     OW 3613   3.112   1.072   1.546
  896SOL    HW2 3614   3.103   1.091   1.639
  896SOL    HW3 3615   3.097   0.977   1.539
  896SOL    MW4 3616   3.109   1.062   1.557
  897SOL     OW 3617   3.324   1.235   1.480
  897SOL    HW2 3618   3.410   1.200   1.506
  897SOL    HW3 3619   3.263   1.165   1.501
  897SOL    MW4 3620   3.327   1.221   1.487
  898SOL     OW 3621   3.351   1.485   1.570
  898SOL    HW2 3622   3.370   1.461   1.661
  898SOL    HW3 3623   3.345   1.402   1.523
  898SOL    MW4 3624   3.353   1.471   1.576
  899SOL     OW 3625   3.154   1.661   1.448
  899SOL    HW2 3626   3.230   1.609   1.475
  899SOL    HW3 3627   3.079   1.604   1.465
  899SOL    MW4 3628   3.155   1.647   1.454
  900SOL     OW 3629   3.122   1.912   1.580
  900SOL    HW2 3630   3.139   1.829   1.535
  900SOL    HW3 3631   3.044   1.947   1.536
  900SOL    MW4 3632   3.114   1.906   1.568
  901SOL     OW 3633   3.346   2.052   1.479
  901SOL    HW2 3634   3.263   2.017   1.511
  901SOL    HW3 3635   3.338   2.053   1.384
  901SOL    MW4 3636   3.334   2.048   1.471
  902SOL     OW 3637   3.352   2.307   1.572
  902SOL    HW2 3638   3.433   2.340   1.534
  902SOL    HW3 3639   3.345   2.217   1.539
  902SOL    MW4 3640   3.362   2.300   1.562
  903SOL     OW 3641   3.110   2.396   1.497
  903SOL    HW2 3642   3.185   2.344   1.525
  903SOL    HW3 3643   3.034   2.351   1.533
  903SOL    MW4 3644   3.110   2.383   1.505
  904SOL     OW 3645   3.127   2.688   1.558
  904SOL    HW2 3646   3.214   2.715   1.527
  904SOL    HW3 3647   3.132   2.592   1.558
  904SOL    MW4 3648   3.139   2.679   1.554
  905SOL     OW 3649   3.378   2.814   1.508
  905SOL    HW2 3650   3.374   2.899   1.552
  905SOL    HW3 3651   3.385   2.835   1.415
  905SOL    MW4 3652   3.379   2.828   1.502
  906SOL     OW 3653   3.362   3.084   1.590
  906SOL    HW2 3654   3.372   3.092   1.685
  906SOL    HW3 3655   3.435   3.135   1.554
  906SOL    MW4 3656   3.373   3.092   1.598
  907SOL     OW 3657   3.132   3.241   1.478
  907SOL    HW2 3658   3.212   3.196   1.507
  907SOL    HW3 3659   3.128   3.224   1.384
  907SOL    MW4 3660   3.142   3.233   1.469
  908SOL     OW 3661   3.154   3.502   1.585
  908SOL    HW2 3662   3.139   3.413   1.555
  908SOL    HW3 3663   3.097   3.556   1.531
  908SOL    MW4 3664   3.145   3.497   1.574
  909SOL     OW 3665   3.375   3.596   1.450
  909SOL    HW2 3666   3.450   3.571   1.505
  909SOL    HW3 3667   3.300   3.553   1.492
  909SOL    MW4 3668   3.375   3.587   1.463
  910SOL     OW 3669   3.387   3.853   1.578
  910SOL    HW2 3670   3.312   3.900   1.540
  910SOL    HW3 3671   3.388   3.769   1.532
  910SOL    MW4 3672   3.377   3.848   1.567
  911SOL     OW 3673   3.185   3.994   1.486
  911SOL    HW2 3674   3.190   4.071   1.542
  911SOL    HW3 3675   3.099   3.956   1.504
  911SOL    MW4 3676   3.174   3.999   1.496
  912SOL     OW 3677   3.195   4.238   1.626
  912SOL    HW2 3678   3.194   4.227   1.721
  912SOL    HW3 3679   3.112   4.282   1.606
  912SOL    MW4 3680   3.184   4.242   1.636
  913SOL     OW 3681   3.376   4.405   1.510
  913SOL    HW2 3682   3.308   4.355   1.557
  913SOL    HW3 3683   3.351   4.398   1.418
  913SOL    MW4 3684   3.364   4.397   1.504
  914SOL     OW 3685   3.860   4.650   1.586
  914SOL    HW2 3686   3.864   4.651   1.682
  914SOL    HW3 3687   3.946   4.681   1.558
  914SOL    MW4 3688   3.872   4.654   1.595
  915SOL     OW 3689   3.621   0.079   1.493
  915SOL    HW2 3690   3.702   0.043   1.529
  915SOL    HW3 3691   3.634   0.079   1.398
  915SOL    MW4 3692   3.633   0.075   1.485
  916SOL     OW 3693   3.592   0.349   1.588
  916SOL    HW2 3694   3.591   0.256   1.567
  916SOL    HW3 3695   3.501   0.378   1.573
  916SOL    MW4 3696   3.580   0.341   1.583
  917SOL     OW 3697   3.790   0.509   1.482
  917SOL    HW2 3698   3.719   0.452   1.511
  917SOL    HW3 3699   3.798   0.493   1.388
  917SOL    MW4 3700   3.782   0.500   1.473
  918SOL     OW 3701   3.762   0.764   1.589
  918SOL    HW2 3702   3.682   0.813   1.569
  918SOL    HW3 3703   3.753   0.682   1.541
  918SOL    MW4 3704   3.750   0.760   1.580
  919SOL     OW 3705   3.520   0.878   1.506
  919SOL    HW2 3706   3.445   0.831   1.544
  919SOL    HW3 3707   3.510   0.865   1.412
  919SOL    MW4 3708   3.509   0.870   1.498
  920SOL     OW 3709   3.566   1.143   1.574
  920SOL    HW2 3710   3.646   1.177   1.534
  920SOL    HW3 3711   3.569   1.049   1.559
  920SOL    MW4 3712   3.577   1.135   1.567
  921SOL     OW 3713   3.802   1.239   1.483
  921SOL    HW2 3714   3.873   1.204   1.538
  921SOL    HW3 3715   3.798   1.332   1.505
  921SOL    MW4 3716   3.811   1.246   1.493
  922SOL     OW 3717   3.806   1.521   1.557
  922SOL    HW2 3718   3.807   1.518   1.652
  922SOL    HW3 3719   3.729   1.574   1.535
  922SOL    MW4 3720   3.796   1.528   1.566
  923SOL     OW 3721   3.555   1.643   1.511
  923SOL    HW2 3722   3.481   1.585   1.531
  923SOL    HW3 3723   3.550   1.656   1.416
  923SOL    MW4 3724   3.544   1.637   1.501
  924SOL     OW 3725   3.584   1.914   1.605
  924SOL    HW2 3726   3.569   1.825   1.571
  924SOL    HW3 3727   3.502   1.960   1.590
  924SOL    MW4 3728   3.571   1.908   1.598
  925SOL     OW 3729   3.816   2.010   1.487
  925SOL    HW2 3730   3.818   2.099   1.522
  925SOL    HW3 3731   3.730   1.976   1.515
  925SOL    MW4 3732   3.805   2.017   1.495
  926SOL     OW 3733   3.813   2.277   1.574
  926SOL    HW2 3734   3.799   2.281   1.669
  926SOL    HW3 3735   3.889   2.334   1.559
  926SOL    MW4 3736   3.821   2.285   1.585
  927SOL     OW 3737   3.583   2.392   1.472
  927SOL    HW2 3738   3.603   2.485   1.480
  927SOL    HW3 3739   3.664   2.347   1.496
  927SOL    MW4 3740   3.596   2.399   1.476
  928SOL     OW 3741   3.607   2.671   1.568
  928SOL    HW2 3742   3.612   2.681   1.663
  928SOL    HW3 3743   3.523   2.709   1.543
  928SOL    MW4 3744   3.597   2.677   1.577
  929SOL     OW 3745   3.815   2.822   1.475
  929SOL    HW2 3746   3.874   2.755   1.510
  929SOL    HW3 3747   3.728   2.783   1.481
  929SOL    MW4 3748   3.811   2.808   1.481
  930SOL     OW 3749   3.823   3.088   1.614
  930SOL    HW2 3750   3.891   3.136   1.567
  930SOL    HW3 3751   3.836   2.997   1.588
  930SOL    MW4 3752   3.833   3.082   1.604
  931SOL     OW 3753   3.599   3.213   1.506
  931SOL    HW2 3754   3.669   3.162   1.546
  931SOL    HW3 3755   3.616   3.208   1.412
  931SOL    MW4 3756   3.610   3.206   1.499
  932SOL     OW 3757   3.628   3.488   1.626
  932SOL    HW2 3758   3.686   3.528   1.560
  932SOL    HW3 3759   3.626   3.396   1.603
  932SOL    MW4 3760   3.635   3.481   1.614
  933SOL     OW 3761   3.819   3.602   1.458
  933SOL    HW2 3762   3.886   3.566   1.516
  933SOL    HW3 3763   3.814   3.695   1.483
  933SOL    MW4 3764   3.827   3.610   1.469
  934SOL     OW 3765   3.822   3.872   1.526
  934SOL    HW2 3766   3.901   3.916   1.496
  934SOL    HW3 3767   3.750   3.930   1.501
  934SOL    MW4 3768   3.823   3.885   1.519
  935SOL     OW 3769   3.592   4.012   1.467
  935SOL    HW2 3770   3.608   4.102   1.495
  935SOL    HW3 3771   3.537   3.975   1.536
  935SOL    MW4 3772   3.587   4.019   1.480
  936SOL     OW 3773   3.604   4.267   1.560
  936SOL    HW2 3774   3.608   4.261   1.656
  936SOL    HW3 3775   3.525   4.318   1.542
  936SOL    MW4 3776   3.594   4.273   1.570
  937SOL     OW 3777   3.842   4.380   1.453
  937SOL    HW2 3778   3.762   4.342   1.489
  937SOL    HW3 3779   3.838   4.472   1.479
  937SOL    MW4 3780   3.831   4.387   1.462
  938SOL     OW 3781   4.312   4.656   1.631
  938SOL    HW2 3782   4.296   4.652   1.725
  938SOL    HW3 3783   4.294   4.567   1.600
  938SOL    MW4 3784   4.307   4.644   1.639
  939SOL     OW 3785   4.092   0.106   1.491
  939SOL    HW2 3786   4.077   0.196   1.517
  939SOL    HW3 3787   4.170   0.079   1.539
  939SOL    MW4 3788   4.100   0.114   1.501
  940SOL     OW 3789   4.025   0.377   1.558
  940SOL    HW2 3790   4.028   0.392   1.653
  940SOL    HW3 3791   3.944   0.419   1.530
  940SOL    MW4 3792   4.015   0.385   1.567
  941SOL     OW 3793   4.256   0.526   1.497
  941SOL    HW2 3794   4.179   0.473   1.517
  941SOL    HW3 3795   4.330   0.472   1.526
  941SOL    MW4 3796   4.256   0.512   1.503
  942SOL     OW 3797   4.242   0.778   1.583
  942SOL    HW2 3798   4.248   0.685   1.562
  942SOL    HW3 3799   4.320   0.817   1.544
  942SOL    MW4 3800   4.253   0.771   1.575
  943SOL     OW 3801   4.002   0.883   1.488
  943SOL    HW2 3802   4.082   0.840   1.517
  943SOL    HW3 3803   3.931   0.825   1.516
  943SOL    MW4 3804   4.003   0.870   1.495
  944SOL     OW 3805   4.004   1.124   1.614
  944SOL    HW2 3806   4.030   1.119   1.706
  944SOL    HW3 3807   4.013   1.034   1.582
  944SOL    MW4 3808   4.009   1.112   1.622
  945SOL     OW 3809   4.238   1.234   1.495
  945SOL    HW2 3810   4.156   1.194   1.525
  945SOL    HW3 3811   4.306   1.176   1.528
  945SOL    MW4 3812   4.236   1.221   1.503
  946SOL     OW 3813   4.239   1.509   1.546
  946SOL    HW2 3814   4.257   1.421   1.513
  946SOL    HW3 3815   4.308   1.563   1.508
  946SOL    MW4 3816   4.251   1.504   1.536
  947SOL     OW 3817   4.029   1.649   1.465
  947SOL    HW2 3818   4.106   1.593   1.478
  947SOL    HW3 3819   3.956   1.598   1.499
  947SOL    MW4 3820   4.030   1.635   1.471
  948SOL     OW 3821   4.052   1.905   1.595
  948SOL    HW2 3822   4.057   1.818   1.555
  948SOL    HW3 3823   3.964   1.936   1.574
  948SOL    MW4 3824   4.041   1.897   1.587
  949SOL     OW 3825   4.248   2.037   1.474
  949SOL    HW2 3826   4.191   1.981   1.526
  949SOL    HW3 3827   4.225   2.017   1.383
  949SOL    MW4 3828   4.237   2.027   1.468
  950SOL     OW 3829   4.275   2.298   1.565
  950SOL    HW2 3830   4.256   2.311   1.657
  950SOL    HW3 3831   4.266   2.203   1.551
  950SOL    MW4 3832   4.272   2.287   1.575
  951SOL     OW 3833   4.042   2.418   1.473
  951SOL    HW2 3834   4.041   2.505   1.512
  951SOL    HW3 3835   4.128   2.383   1.495
  951SOL    MW4 3836   4.053   2.425   1.481
  952SOL     OW 3837   4.011   2.674   1.600
  952SOL    HW2 3838   4.004   2.685   1.695
  952SOL    HW3 3839   4.075   2.741   1.573
  952SOL    MW4 3840   4.019   2.685   1.609
  953SOL     OW 3841   4.230   2.832   1.512
  953SOL    HW2 3842   4.249   2.919   1.548
  953SOL    HW3 3843   4.233   2.844   1.417
  953SOL    MW4 3844   4.233   2.845   1.504
  954SOL     OW 3845   4.245   3.095   1.596
  954SOL    HW2 3846   4.266   3.115   1.687
  954SOL    HW3 3847   4.320   3.128   1.547
  954SOL    MW4 3848   4.258   3.102   1.601
  955SOL     OW 3849   4.053   3.225   1.448
  955SOL    HW2 3850   4.049   3.311   1.490
  955SOL    HW3 3851   4.123   3.180   1.495
  955SOL    MW4 3852   4.062   3.231   1.460
  956SOL     OW 3853   4.043   3.483   1.577
  956SOL    HW2 3854   4.034   3.482   1.672
  956SOL    HW3 3855   4.127   3.525   1.561
  956SOL    MW4 3856   4.053   3.489   1.587
  957SOL     OW 3857   4.281   3.629   1.510
  957SOL    HW2 3858   4.306   3.719   1.532
  957SOL    HW3 3859   4.299   3.622   1.416
  957SOL    MW4 3860   4.287   3.640   1.501
  958SOL     OW 3861   4.301   3.906   1.595
  958SOL    HW2 3862   4.217   3.928   1.554
  958SOL    HW3 3863   4.366   3.941   1.535
  958SOL    MW4 3864   4.298   3.914   1.582
  959SOL     OW 3865   4.070   3.997   1.459
  959SOL    HW2 3866   4.066   4.091   1.478
  959SOL    HW3 3867   4.060   3.992   1.364
  959SOL    MW4 3868   4.068   4.009   1.449
  960SOL     OW 3869   4.064   4.259   1.564
  960SOL    HW2 3870   4.062   4.250   1.659
  960SOL    HW3 3871   3.983   4.305   1.542
  960SOL    MW4 3872   4.053   4.264   1.573
  961SOL     OW 3873   4.298   4.400   1.498
  961SOL    HW2 3874   4.218   4.354   1.523
  961SOL    HW3 3875   4.293   4.406   1.403
  961SOL    MW4 3876   4.287   4.394   1.489
  962SOL     OW 3877   0.253   0.001   1.846
  962SOL    HW2 3878   0.330   0.057   1.847
  962SOL    HW3 3879   0.234  -0.012   1.753
  962SOL    MW4 3880   0.261   0.006   1.834
  963SOL     OW 3881   0.036   0.120   1.965
  963SOL    HW2 3882   0.031   0.209   1.932
  963SOL    HW3 3883   0.120   0.087   1.935
  963SOL    MW4 3884   0.046   0.127   1.957
  964SOL     OW 3885   0.003   0.378   1.851
  964SOL    HW2 3886  -0.076   0.425   1.878
  964SOL    HW3 3887   0.073   0.415   1.905
  964SOL    MW4 3888   0.002   0.389   1.862
  965SOL     OW 3889   0.214   0.490   1.974
  965SOL    HW2 3890   0.299   0.454   1.950
  965SOL    HW3 3891   0.213   0.577   1.934
  965SOL    MW4 3892   0.225   0.497   1.965
  966SOL     OW 3893   0.228   0.726   1.839
  966SOL    HW2 3894   0.295   0.791   1.859
  966SOL    HW3 3895   0.207   0.741   1.747
  966SOL    MW4 3896   0.234   0.737   1.829
  967SOL     OW 3897   0.006   0.883   1.945
  967SOL    HW2 3898  -0.079   0.842   1.930
  967SOL    HW3 3899   0.070   0.820   1.910
  967SOL    MW4 3900   0.004   0.869   1.938
  968SOL     OW 3901   0.007   1.130   1.841
  968SOL    HW2 3902  -0.069   1.171   1.883
  968SOL    HW3 3903   0.009   1.041   1.877
  968SOL    MW4 3904  -0.003   1.123   1.851
  969SOL     OW 3905   0.224   1.261   1.933
  969SOL    HW2 3906   0.201   1.354   1.922
  969SOL    HW3 3907   0.147   1.214   1.901
  969SOL    MW4 3908   0.211   1.267   1.927
  970SOL     OW 3909   0.198   1.529   1.861
  970SOL    HW2 3910   0.271   1.590   1.877
  970SOL    HW3 3911   0.122   1.573   1.898
  970SOL    MW4 3912   0.198   1.543   1.868
  971SOL     OW 3913   4.450   1.683   1.942
  971SOL    HW2 3914   4.438   1.688   2.036
  971SOL    HW3 3915   4.371   1.639   1.910
  971SOL    MW4 3916   4.438   1.678   1.950
  972SOL     OW 3917   4.482   1.947   1.847
  972SOL    HW2 3918   4.410   1.998   1.884
  972SOL    HW3 3919   4.461   1.856   1.868
  972SOL    MW4 3920   4.470   1.942   1.855
  973SOL     OW 3921   0.220   2.070   1.943
  973SOL    HW2 3922   0.209   2.160   1.913
  973SOL    HW3 3923   0.140   2.025   1.915
  973SOL    MW4 3924   0.208   2.076   1.935
  974SOL     OW 3925   0.220   2.318   1.817
  974SOL    HW2 3926   0.301   2.360   1.847
  974SOL    HW3 3927   0.150   2.377   1.847
  974SOL    MW4 3928   0.222   2.331   1.825
  975SOL     OW 3929   0.002   2.443   1.937
  975SOL    HW2 3930  -0.033   2.453   2.026
  975SOL    HW3 3931   0.003   2.532   1.902
  975SOL    MW4 3932  -0.003   2.456   1.944
  976SOL     OW 3933   0.003   2.721   1.866
  976SOL    HW2 3934  -0.073   2.772   1.896
  976SOL    HW3 3935  -0.015   2.706   1.773
  976SOL    MW4 3936  -0.010   2.726   1.858
  977SOL     OW 3937   0.221   2.850   1.961
  977SOL    HW2 3938   0.227   2.939   1.927
  977SOL    HW3 3939   0.144   2.813   1.919
  977SOL    MW4 3940   0.212   2.857   1.951
  978SOL     OW 3941   0.234   3.115   1.876
  978SOL    HW2 3942   0.323   3.131   1.907
  978SOL    HW3 3943   0.237   3.135   1.782
  978SOL    MW4 3944   0.246   3.119   1.868
  979SOL     OW 3945   0.038   3.267   1.989
  979SOL    HW2 3946  -0.038   3.231   1.943
  979SOL    HW3 3947   0.112   3.218   1.953
  979SOL    MW4 3948   0.038   3.256   1.978
  980SOL     OW 3949   0.020   3.509   1.851
  980SOL    HW2 3950   0.098   3.558   1.878
  980SOL    HW3 3951   0.039   3.419   1.874
  980SOL    MW4 3952   0.033   3.504   1.858
  981SOL     OW 3953   0.251   3.614   1.934
  981SOL    HW2 3954   0.257   3.596   2.028
  981SOL    HW3 3955   0.323   3.564   1.896
  981SOL    MW4 3956   0.262   3.605   1.941
  982SOL     OW 3957   0.263   3.885   1.839
  982SOL    HW2 3958   0.346   3.929   1.855
  982SOL    HW3 3959   0.263   3.811   1.900
  982SOL    MW4 3960   0.274   3.881   1.849
  983SOL     OW 3961   0.063   4.032   1.954
  983SOL    HW2 3962   0.069   4.119   1.915
  983SOL    HW3 3963   0.134   3.983   1.914
  983SOL    MW4 3964   0.073   4.037   1.943
  984SOL     OW 3965   0.021   4.277   1.823
  984SOL    HW2 3966  -0.062   4.299   1.866
  984SOL    HW3 3967   0.085   4.335   1.864
  984SOL    MW4 3968   0.018   4.287   1.834
  985SOL     OW 3969   0.206   4.418   1.953
  985SOL    HW2 3970   0.195   4.426   2.048
  985SOL    HW3 3971   0.206   4.508   1.921
  985SOL    MW4 3972   0.205   4.431   1.961
  986SOL     OW 3973   0.735   0.021   1.817
  986SOL    HW2 3974   0.735  -0.070   1.850
  986SOL    HW3 3975   0.722   0.013   1.723
  986SOL    MW4 3976   0.733   0.008   1.809
  987SOL     OW 3977   0.504   0.111   1.926
  987SOL    HW2 3978   0.502   0.206   1.915
  987SOL    HW3 3979   0.587   0.084   1.887
  987SOL    MW4 3980   0.515   0.120   1.919
  988SOL     OW 3981   0.456   0.394   1.902
  988SOL    HW2 3982   0.535   0.439   1.933
  988SOL    HW3 3983   0.459   0.406   1.807
  988SOL    MW4 3984   0.467   0.402   1.893
  989SOL     OW 3985   0.691   0.532   1.968
  989SOL    HW2 3986   0.694   0.514   2.062
  989SOL    HW3 3987   0.752   0.469   1.930
  989SOL    MW4 3988   0.699   0.521   1.976
  990SOL     OW 3989   0.662   0.797   1.878
  990SOL    HW2 3990   0.742   0.847   1.896
  990SOL    HW3 3991   0.679   0.711   1.915
  990SOL    MW4 3992   0.675   0.792   1.885
  991SOL     OW 3993   0.411   0.918   1.927
  991SOL    HW2 3994   0.427   1.002   1.883
  991SOL    HW3 3995   0.495   0.872   1.920
  991SOL    MW4 3996   0.424   0.923   1.920
  992SOL     OW 3997   0.440   1.164   1.806
  992SOL    HW2 3998   0.353   1.193   1.833
  992SOL    HW3 3999   0.431   1.142   1.714
  992SOL    MW4 4000   0.427   1.165   1.798
  993SOL     OW 4001   0.676   1.285   1.919
  993SOL    HW2 4002   0.660   1.288   2.014
  993SOL    HW3 4003   0.595   1.250   1.883
  993SOL    MW4 4004   0.663   1.281   1.927
  994SOL     OW 4005   0.663   1.562   1.882
  994SOL    HW2 4006   0.660   1.467   1.897
  994SOL    HW3 4007   0.664   1.571   1.787
  994SOL    MW4 4008   0.662   1.551   1.871
  995SOL     OW 4009   0.419   1.696   1.941
  995SOL    HW2 4010   0.430   1.711   2.034
  995SOL    HW3 4011   0.492   1.638   1.917
  995SOL    MW4 4012   0.430   1.690   1.950
  996SOL     OW 4013   0.416   1.929   1.804
  996SOL    HW2 4014   0.406   1.842   1.843
  996SOL    HW3 4015   0.349   1.982   1.847
  996SOL    MW4 4016   0.405   1.924   1.814
  997SOL     OW 4017   0.637   2.061   1.928
  997SOL    HW2 4018   0.633   2.052   2.023
  997SOL    HW3 4019   0.566   2.006   1.896
  997SOL    MW4 4020   0.627   2.052   1.936
  998SOL     OW 4021   0.704   2.337   1.853
  998SOL    HW2 4022   0.675   2.251   1.883
  998SOL    HW3 4023   0.700   2.332   1.758
  998SOL    MW4 4024   0.699   2.325   1.844
  999SOL     OW 4025   0.445   2.439   1.927
  999SOL    HW2 4026   0.442   2.432   2.022
  999SOL    HW3 4027   0.532   2.407   1.903
  999SOL    MW4 4028   0.456   2.434   1.936
 1000SOL     OW 4029   0.443   2.717   1.861
 1000SOL    HW2 4030   0.428   2.630   1.897
 1000SOL    HW3 4031   0.375   2.772   1.899
 1000SOL    MW4 4032   0.432   2.713   1.870
 1001SOL     OW 4033   0.700   2.841   1.959
 1001SOL    HW2 4034   0.702   2.851   2.054
 1001SOL    HW3 4035   0.617   2.798   1.941
 1001SOL    MW4 4036   0.690   2.837   1.969
 1002SOL     OW 4037   0.720   3.110   1.869
 1002SOL    HW2 4038   0.714   3.020   1.901
 1002SOL    HW3 4039   0.701   3.104   1.775
 1002SOL    MW4 4040   0.717   3.098   1.861
 1003SOL     OW 4041   0.479   3.216   1.962
 1003SOL    HW2 4042   0.486   3.308   1.934
 1003SOL    HW3 4043   0.559   3.175   1.927
 1003SOL    MW4 4044   0.491   3.223   1.953
 1004SOL     OW 4045   0.471   3.479   1.831
 1004SOL    HW2 4046   0.544   3.534   1.860
 1004SOL    HW3 4047   0.472   3.487   1.735
 1004SOL    MW4 4048   0.480   3.488   1.822
 1005SOL     OW 4049   0.679   3.633   1.919
 1005SOL    HW2 4050   0.766   3.596   1.905
 1005SOL    HW3 4051   0.680   3.716   1.871
 1005SOL    MW4 4052   0.691   3.639   1.911
 1006SOL     OW 4053   0.695   3.880   1.800
 1006SOL    HW2 4054   0.766   3.930   1.840
 1006SOL    HW3 4055   0.703   3.897   1.707
 1006SOL    MW4 4056   0.705   3.889   1.793
 1007SOL     OW 4057   0.485   4.017   1.918
 1007SOL    HW2 4058   0.483   4.109   1.889
 1007SOL    HW3 4059   0.551   3.976   1.862
 1007SOL    MW4 4060   0.493   4.024   1.907
 1008SOL     OW 4061   0.447   4.280   1.847
 1008SOL    HW2 4062   0.361   4.321   1.859
 1008SOL    HW3 4063   0.450   4.257   1.755
 1008SOL    MW4 4064   0.436   4.282   1.837
 1009SOL     OW 4065   0.646   4.440   1.949
 1009SOL    HW2 4066   0.730   4.397   1.933
 1009SOL    HW3 4067   0.581   4.380   1.912
 1009SOL    MW4 4068   0.649   4.427   1.942
 1010SOL     OW 4069   1.161   0.008   1.808
 1010SOL    HW2 4070   1.240   0.042   1.849
 1010SOL    HW3 4071   1.153  -0.081   1.842
 1010SOL    MW4 4072   1.171   0.001   1.818
 1011SOL     OW 4073   0.971   0.117   1.967
 1011SOL    HW2 4074   1.037   0.075   1.911
 1011SOL    HW3 4075   0.889   0.104   1.920
 1011SOL    MW4 4076   0.969   0.110   1.953
 1012SOL     OW 4077   0.908   0.379   1.882
 1012SOL    HW2 4078   0.985   0.431   1.903
 1012SOL    HW3 4079   0.923   0.294   1.924
 1012SOL    MW4 4080   0.920   0.374   1.890
 1013SOL     OW 4081   1.138   0.502   1.949
 1013SOL    HW2 4082   1.226   0.468   1.931
 1013SOL    HW3 4083   1.141   0.593   1.920
 1013SOL    MW4 4084   1.150   0.509   1.943
 1014SOL     OW 4085   1.142   0.765   1.877
 1014SOL    HW2 4086   1.219   0.818   1.899
 1014SOL    HW3 4087   1.069   0.809   1.921
 1014SOL    MW4 4088   1.143   0.778   1.885
 1015SOL     OW 4089   0.910   0.912   1.932
 1015SOL    HW2 4090   0.906   0.904   2.028
 1015SOL    HW3 4091   0.910   1.006   1.916
 1015SOL    MW4 4092   0.909   0.923   1.943
 1016SOL     OW 4093   0.926   1.181   1.855
 1016SOL    HW2 4094   0.836   1.212   1.864
 1016SOL    HW3 4095   0.936   1.164   1.761
 1016SOL    MW4 4096   0.916   1.183   1.844
 1017SOL     OW 4097   1.143   1.309   1.935
 1017SOL    HW2 4098   1.128   1.401   1.913
 1017SOL    HW3 4099   1.063   1.265   1.906
 1017SOL    MW4 4100   1.131   1.315   1.928
 1018SOL     OW 4101   1.124   1.573   1.854
 1018SOL    HW2 4102   1.055   1.621   1.900
 1018SOL    HW3 4103   1.102   1.583   1.761
 1018SOL    MW4 4104   1.112   1.580   1.848
 1019SOL     OW 4105   0.873   1.689   1.990
 1019SOL    HW2 4106   0.871   1.775   1.948
 1019SOL    HW3 4107   0.794   1.645   1.957
 1019SOL    MW4 4108   0.862   1.694   1.980
 1020SOL     OW 4109   0.872   1.929   1.860
 1020SOL    HW2 4110   0.791   1.977   1.878
 1020SOL    HW3 4111   0.885   1.940   1.766
 1020SOL    MW4 4112   0.863   1.937   1.850
 1021SOL     OW 4113   1.107   2.029   1.953
 1021SOL    HW2 4114   1.096   2.116   1.914
 1021SOL    HW3 4115   1.025   1.983   1.933
 1021SOL    MW4 4116   1.095   2.035   1.946
 1022SOL     OW 4117   1.127   2.307   1.875
 1022SOL    HW2 4118   1.205   2.343   1.916
 1022SOL    HW3 4119   1.143   2.315   1.781
 1022SOL    MW4 4120   1.139   2.313   1.868
 1023SOL     OW 4121   0.909   2.488   1.979
 1023SOL    HW2 4122   0.982   2.439   1.941
 1023SOL    HW3 4123   0.831   2.448   1.940
 1023SOL    MW4 4124   0.908   2.476   1.969
 1024SOL     OW 4125   0.928   2.728   1.843
 1024SOL    HW2 4126   0.915   2.638   1.872
 1024SOL    HW3 4127   0.863   2.779   1.893
 1024SOL    MW4 4128   0.917   2.723   1.854
 1025SOL     OW 4129   1.143   2.846   1.986
 1025SOL    HW2 4130   1.118   2.854   2.078
 1025SOL    HW3 4131   1.072   2.795   1.947
 1025SOL    MW4 4132   1.130   2.840   1.993
 1026SOL     OW 4133   1.136   3.093   1.843
 1026SOL    HW2 4134   1.070   3.153   1.878
 1026SOL    HW3 4135   1.137   3.020   1.905
 1026SOL    MW4 4136   1.127   3.092   1.856
 1027SOL     OW 4137   0.936   3.279   1.962
 1027SOL    HW2 4138   0.908   3.263   2.052
 1027SOL    HW3 4139   0.868   3.240   1.908
 1027SOL    MW4 4140   0.924   3.271   1.967
 1028SOL     OW 4141   0.940   3.538   1.856
 1028SOL    HW2 4142   0.957   3.458   1.905
 1028SOL    HW3 4143   0.937   3.510   1.765
 1028SOL    MW4 4144   0.942   3.524   1.850
 1029SOL     OW 4145   1.179   3.629   1.968
 1029SOL    HW2 4146   1.173   3.620   2.063
 1029SOL    HW3 4147   1.095   3.598   1.936
 1029SOL    MW4 4148   1.167   3.624   1.976
 1030SOL     OW 4149   1.108   3.887   1.856
 1030SOL    HW2 4150   1.132   3.806   1.900
 1030SOL    HW3 4151   1.100   3.863   1.763
 1030SOL    MW4 4152   1.110   3.873   1.849
 1031SOL     OW 4153   0.909   4.019   1.959
 1031SOL    HW2 4154   0.933   4.042   2.049
 1031SOL    HW3 4155   0.991   3.991   1.919
 1031SOL    MW4 4156   0.923   4.018   1.965
 1032SOL     OW 4157   0.863   4.283   1.894
 1032SOL    HW2 4158   0.951   4.319   1.907
 1032SOL    HW3 4159   0.872   4.190   1.913
 1032SOL    MW4 4160   0.876   4.276   1.898
 1033SOL     OW 4161   1.116   4.410   1.938
 1033SOL    HW2 4162   1.111   4.415   2.034
 1033SOL    HW3 4163   1.191   4.353   1.922
 1033SOL    MW4 4164   1.125   4.403   1.949
 1034SOL     OW 4165   1.618   4.617   1.810
 1034SOL    HW2 4166   1.686   4.669   1.855
 1034SOL    HW3 4167   1.627   4.529   1.846
 1034SOL    MW4 4168   1.628   4.612   1.821
 1035SOL     OW 4169   1.398   0.090   1.903
 1035SOL    HW2 4170   1.405   0.069   1.996
 1035SOL    HW3 4171   1.457   0.029   1.859
 1035SOL    MW4 4172   1.407   0.079   1.909
 1036SOL     OW 4173   1.359   0.367   1.846
 1036SOL    HW2 4174   1.374   0.274   1.867
 1036SOL    HW3 4175   1.319   0.365   1.759
 1036SOL    MW4 4176   1.356   0.354   1.838
 1037SOL     OW 4177   1.587   0.467   1.966
 1037SOL    HW2 4178   1.658   0.416   1.928
 1037SOL    HW3 4179   1.509   0.442   1.916
 1037SOL    MW4 4180   1.586   0.457   1.954
 1038SOL     OW 4181   1.558   0.735   1.849
 1038SOL    HW2 4182   1.633   0.782   1.887
 1038SOL    HW3 4183   1.567   0.646   1.883
 1038SOL    MW4 4184   1.569   0.729   1.858
 1039SOL     OW 4185   1.369   0.908   1.935
 1039SOL    HW2 4186   1.365   0.910   2.031
 1039SOL    HW3 4187   1.435   0.841   1.916
 1039SOL    MW4 4188   1.377   0.900   1.945
 1040SOL     OW 4189   1.346   1.172   1.822
 1040SOL    HW2 4190   1.356   1.088   1.867
 1040SOL    HW3 4191   1.280   1.219   1.873
 1040SOL    MW4 4192   1.339   1.167   1.835
 1041SOL     OW 4193   1.562   1.298   1.922
 1041SOL    HW2 4194   1.560   1.387   1.886
 1041SOL    HW3 4195   1.490   1.253   1.880
 1041SOL    MW4 4196   1.552   1.304   1.912
 1042SOL     OW 4197   1.589   1.558   1.781
 1042SOL    HW2 4198   1.662   1.580   1.840
 1042SOL    HW3 4199   1.512   1.593   1.825
 1042SOL    MW4 4200   1.589   1.566   1.795
 1043SOL     OW 4201   1.380   1.659   1.926
 1043SOL    HW2 4202   1.374   1.656   2.021
 1043SOL    HW3 4203   1.295   1.629   1.895
 1043SOL    MW4 4204   1.368   1.655   1.935
 1044SOL     OW 4205   1.355   1.921   1.873
 1044SOL    HW2 4206   1.366   1.833   1.909
 1044SOL    HW3 4207   1.266   1.947   1.900
 1044SOL    MW4 4208   1.345   1.913   1.881
 1045SOL     OW 4209   1.577   2.040   1.983
 1045SOL    HW2 4210   1.573   2.133   1.961
 1045SOL    HW3 4211   1.500   2.001   1.941
 1045SOL    MW4 4212   1.567   2.047   1.974
 1046SOL     OW 4213   1.578   2.308   1.908
 1046SOL    HW2 4214   1.655   2.354   1.939
 1046SOL    HW3 4215   1.585   2.310   1.812
 1046SOL    MW4 4216   1.589   2.314   1.899
 1047SOL     OW 4217   1.355   2.448   1.968
 1047SOL    HW2 4218   1.364   2.538   1.937
 1047SOL    HW3 4219   1.441   2.409   1.955
 1047SOL    MW4 4220   1.367   2.455   1.962
 1048SOL     OW 4221   1.376   2.690   1.848
 1048SOL    HW2 4222   1.307   2.750   1.876
 1048SOL    HW3 4223   1.369   2.687   1.753
 1048SOL    MW4 4224   1.366   2.697   1.839
 1049SOL     OW 4225   1.571   2.843   1.941
 1049SOL    HW2 4226   1.652   2.795   1.921
 1049SOL    HW3 4227   1.501   2.782   1.919
 1049SOL    MW4 4228   1.573   2.829   1.936
 1050SOL     OW 4229   1.572   3.130   1.857
 1050SOL    HW2 4230   1.586   3.037   1.875
 1050SOL    HW3 4231   1.554   3.134   1.763
 1050SOL    MW4 4232   1.571   3.118   1.847
 1051SOL     OW 4233   1.346   3.271   1.951
 1051SOL    HW2 4234   1.427   3.227   1.929
 1051SOL    HW3 4235   1.277   3.218   1.911
 1051SOL    MW4 4236   1.347   3.258   1.943
 1052SOL     OW 4237   1.374   3.501   1.811
 1052SOL    HW2 4238   1.368   3.417   1.856
 1052SOL    HW3 4239   1.294   3.547   1.837
 1052SOL    MW4 4240   1.362   3.496   1.821
 1053SOL     OW 4241   1.590   3.639   1.920
 1053SOL    HW2 4242   1.591   3.638   2.015
 1053SOL    HW3 4243   1.517   3.582   1.895
 1053SOL    MW4 4244   1.580   3.632   1.929
 1054SOL     OW 4245   1.592   3.917   1.851
 1054SOL    HW2 4246   1.658   3.960   1.906
 1054SOL    HW3 4247   1.599   3.824   1.874
 1054SOL    MW4 4248   1.602   3.910   1.862
 1055SOL     OW 4249   1.349   4.015   1.954
 1055SOL    HW2 4250   1.426   3.987   1.905
 1055SOL    HW3 4251   1.277   3.965   1.916
 1055SOL    MW4 4252   1.350   4.005   1.943
 1056SOL     OW 4253   1.336   4.283   1.849
 1056SOL    HW2 4254   1.347   4.198   1.893
 1056SOL    HW3 4255   1.334   4.262   1.756
 1056SOL    MW4 4256   1.337   4.269   1.843
 1057SOL     OW 4257   1.582   4.338   1.923
 1057SOL    HW2 4258   1.565   4.339   2.017
 1057SOL    HW3 4259   1.495   4.346   1.883
 1057SOL    MW4 4260   1.568   4.339   1.930
 1058SOL     OW 4261   2.062   4.631   1.812
 1058SOL    HW2 4262   2.121   4.693   1.854
 1058SOL    HW3 4263   2.074   4.550   1.861
 1058SOL    MW4 4264   2.071   4.628   1.824
 1059SOL     OW 4265   1.840   0.081   1.935
 1059SOL    HW2 4266   1.846   0.074   2.031
 1059SOL    HW3 4267   1.923   0.044   1.903
 1059SOL    MW4 4268   1.852   0.075   1.944
 1060SOL     OW 4269   1.815   0.342   1.861
 1060SOL    HW2 4270   1.832   0.253   1.891
 1060SOL    HW3 4271   1.819   0.336   1.766
 1060SOL    MW4 4272   1.818   0.329   1.852
 1061SOL     OW 4273   2.022   0.479   1.975
 1061SOL    HW2 4274   1.993   0.564   1.941
 1061SOL    HW3 4275   1.946   0.422   1.966
 1061SOL    MW4 4276   2.008   0.483   1.970
 1062SOL     OW 4277   1.993   0.743   1.884
 1062SOL    HW2 4278   2.068   0.790   1.923
 1062SOL    HW3 4279   2.003   0.755   1.790
 1062SOL    MW4 4280   2.004   0.751   1.877
 1063SOL     OW 4281   1.766   0.884   1.964
 1063SOL    HW2 4282   1.785   0.976   1.943
 1063SOL    HW3 4283   1.845   0.837   1.940
 1063SOL    MW4 4284   1.779   0.890   1.958
 1064SOL     OW 4285   1.780   1.143   1.850
 1064SOL    HW2 4286   1.707   1.199   1.873
 1064SOL    HW3 4287   1.785   1.149   1.754
 1064SOL    MW4 4288   1.771   1.151   1.840
 1065SOL     OW 4289   2.023   1.291   1.925
 1065SOL    HW2 4290   2.089   1.229   1.893
 1065SOL    HW3 4291   1.939   1.246   1.912
 1065SOL    MW4 4292   2.021   1.277   1.920
 1066SOL     OW 4293   2.026   1.543   1.829
 1066SOL    HW2 4294   2.046   1.452   1.848
 1066SOL    HW3 4295   2.021   1.548   1.734
 1066SOL    MW4 4296   2.028   1.532   1.819
 1067SOL     OW 4297   1.802   1.668   1.936
 1067SOL    HW2 4298   1.821   1.756   1.902
 1067SOL    HW3 4299   1.877   1.615   1.908
 1067SOL    MW4 4300   1.815   1.673   1.928
 1068SOL     OW 4301   1.817   1.950   1.857
 1068SOL    HW2 4302   1.736   1.959   1.907
 1068SOL    HW3 4303   1.790   1.955   1.765
 1068SOL    MW4 4304   1.803   1.952   1.851
 1069SOL     OW 4305   2.054   2.063   1.987
 1069SOL    HW2 4306   2.124   2.010   1.948
 1069SOL    HW3 4307   1.973   2.023   1.956
 1069SOL    MW4 4308   2.053   2.051   1.978
 1070SOL     OW 4309   2.027   2.321   1.868
 1070SOL    HW2 4310   2.103   2.375   1.890
 1070SOL    HW3 4311   2.048   2.235   1.903
 1070SOL    MW4 4312   2.040   2.317   1.875
 1071SOL     OW 4313   1.813   2.435   1.970
 1071SOL    HW2 4314   1.818   2.433   2.066
 1071SOL    HW3 4315   1.887   2.382   1.941
 1071SOL    MW4 4316   1.824   2.428   1.979
 1072SOL     OW 4317   1.801   2.700   1.875
 1072SOL    HW2 4318   1.804   2.610   1.905
 1072SOL    HW3 4319   1.795   2.694   1.780
 1072SOL    MW4 4320   1.800   2.688   1.867
 1073SOL     OW 4321   2.004   2.863   1.997
 1073SOL    HW2 4322   1.994   2.854   2.092
 1073SOL    HW3 4323   1.941   2.800   1.960
 1073SOL    MW4 4324   1.994   2.854   2.005
 1074SOL     OW 4325   2.034   3.080   1.835
 1074SOL    HW2 4326   1.966   3.142   1.860
 1074SOL    HW3 4327   2.021   3.006   1.894
 1074SOL    MW4 4328   2.023   3.079   1.846
 1075SOL     OW 4329   1.813   3.248   1.928
 1075SOL    HW2 4330   1.815   3.226   2.021
 1075SOL    HW3 4331   1.725   3.221   1.899
 1075SOL    MW4 4332   1.801   3.241   1.936
 1076SOL     OW 4333   1.814   3.500   1.837
 1076SOL    HW2 4334   1.808   3.407   1.862
 1076SOL    HW3 4335   1.734   3.539   1.873
 1076SOL    MW4 4336   1.802   3.493   1.845
 1077SOL     OW 4337   2.045   3.596   1.951
 1077SOL    HW2 4338   2.040   3.683   1.911
 1077SOL    HW3 4339   1.967   3.551   1.920
 1077SOL    MW4 4340   2.034   3.602   1.941
 1078SOL     OW 4341   2.030   3.844   1.871
 1078SOL    HW2 4342   2.114   3.889   1.879
 1078SOL    HW3 4343   2.024   3.820   1.778
 1078SOL    MW4 4344   2.040   3.846   1.860
 1079SOL     OW 4345   1.821   4.006   1.951
 1079SOL    HW2 4346   1.829   4.092   1.909
 1079SOL    HW3 4347   1.895   3.956   1.919
 1079SOL    MW4 4348   1.832   4.011   1.942
 1080SOL     OW 4349   1.820   4.252   1.813
 1080SOL    HW2 4350   1.739   4.280   1.855
 1080SOL    HW3 4351   1.798   4.250   1.720
 1080SOL    MW4 4352   1.806   4.255   1.806
 1081SOL     OW 4353   2.036   4.368   1.929
 1081SOL    HW2 4354   2.112   4.318   1.898
 1081SOL    HW3 4355   1.963   4.336   1.875
 1081SOL    MW4 4356   2.036   4.357   1.918
 1082SOL     OW 4357   2.474   4.617   1.831
 1082SOL    HW2 4358   2.554   4.657   1.864
 1082SOL    HW3 4359   2.481   4.525   1.853
 1082SOL    MW4 4360   2.485   4.610   1.838
 1083SOL     OW 4361   2.274   0.095   1.942
 1083SOL    HW2 4362   2.282   0.075   2.035
 1083SOL    HW3 4363   2.348   0.050   1.901
 1083SOL    MW4 4364   2.284   0.086   1.949
 1084SOL     OW 4365   2.274   0.361   1.869
 1084SOL    HW2 4366   2.283   0.275   1.910
 1084SOL    HW3 4367   2.197   0.399   1.912
 1084SOL    MW4 4368   2.265   0.354   1.880
 1085SOL     OW 4369   2.490   0.498   1.964
 1085SOL    HW2 4370   2.567   0.447   1.937
 1085SOL    HW3 4371   2.416   0.452   1.926
 1085SOL    MW4 4372   2.491   0.486   1.956
 1086SOL     OW 4373   2.431   0.761   1.896
 1086SOL    HW2 4374   2.449   0.675   1.933
 1086SOL    HW3 4375   2.433   0.748   1.801
 1086SOL    MW4 4376   2.434   0.748   1.888
 1087SOL     OW 4377   2.213   0.887   1.992
 1087SOL    HW2 4378   2.211   0.860   2.084
 1087SOL    HW3 4379   2.290   0.842   1.956
 1087SOL    MW4 4380   2.223   0.877   2.000
 1088SOL     OW 4381   2.219   1.119   1.837
 1088SOL    HW2 4382   2.285   1.179   1.872
 1088SOL    HW3 4383   2.217   1.046   1.899
 1088SOL    MW4 4384   2.228   1.117   1.850
 1089SOL     OW 4385   2.418   1.304   1.945
 1089SOL    HW2 4386   2.410   1.310   2.041
 1089SOL    HW3 4387   2.438   1.394   1.917
 1089SOL    MW4 4388   2.419   1.317   1.954
 1090SOL     OW 4389   2.465   1.568   1.856
 1090SOL    HW2 4390   2.386   1.612   1.887
 1090SOL    HW3 4391   2.448   1.552   1.763
 1090SOL    MW4 4392   2.452   1.571   1.848
 1091SOL     OW 4393   2.238   1.646   1.977
 1091SOL    HW2 4394   2.225   1.644   2.072
 1091SOL    HW3 4395   2.161   1.604   1.940
 1091SOL    MW4 4396   2.226   1.640   1.985
 1092SOL     OW 4397   2.253   1.889   1.862
 1092SOL    HW2 4398   2.328   1.921   1.912
 1092SOL    HW3 4399   2.231   1.805   1.902
 1092SOL    MW4 4400   2.260   1.882   1.874
 1093SOL     OW 4401   2.459   2.010   2.003
 1093SOL    HW2 4402   2.531   1.978   1.947
 1093SOL    HW3 4403   2.443   2.099   1.972
 1093SOL    MW4 4404   2.467   2.017   1.991
 1094SOL     OW 4405   2.455   2.289   1.925
 1094SOL    HW2 4406   2.534   2.342   1.938
 1094SOL    HW3 4407   2.383   2.350   1.939
 1094SOL    MW4 4408   2.456   2.304   1.928
 1095SOL     OW 4409   2.246   2.449   1.988
 1095SOL    HW2 4410   2.225   2.436   2.081
 1095SOL    HW3 4411   2.249   2.545   1.979
 1095SOL    MW4 4412   2.244   2.460   1.999
 1096SOL     OW 4413   2.238   2.716   1.926
 1096SOL    HW2 4414   2.151   2.744   1.956
 1096SOL    HW3 4415   2.225   2.696   1.833
 1096SOL    MW4 4416   2.224   2.717   1.918
 1097SOL     OW 4417   2.468   2.862   2.019
 1097SOL    HW2 4418   2.480   2.936   1.959
 1097SOL    HW3 4419   2.390   2.817   1.986
 1097SOL    MW4 4420   2.459   2.866   2.007
 1098SOL     OW 4421   2.482   3.089   1.855
 1098SOL    HW2 4422   2.406   3.144   1.873
 1098SOL    HW3 4423   2.483   3.079   1.760
 1098SOL    MW4 4424   2.472   3.095   1.845
 1099SOL     OW 4425   2.264   3.218   1.942
 1099SOL    HW2 4426   2.252   3.214   2.037
 1099SOL    HW3 4427   2.187   3.174   1.906
 1099SOL    MW4 4428   2.252   3.212   1.949
 1100SOL     OW 4429   2.269   3.468   1.841
 1100SOL    HW2 4430   2.273   3.383   1.885
 1100SOL    HW3 4431   2.198   3.515   1.883
 1100SOL    MW4 4432   2.260   3.463   1.852
 1101SOL     OW 4433   2.480   3.601   1.965
 1101SOL    HW2 4434   2.483   3.587   2.059
 1101SOL    HW3 4435   2.401   3.555   1.936
 1101SOL    MW4 4436   2.470   3.593   1.974
 1102SOL     OW 4437   2.520   3.856   1.854
 1102SOL    HW2 4438   2.432   3.891   1.864
 1102SOL    HW3 4439   2.514   3.765   1.885
 1102SOL    MW4 4440   2.507   3.849   1.859
 1103SOL     OW 4441   2.266   3.969   1.936
 1103SOL    HW2 4442   2.265   3.936   2.027
 1103SOL    HW3 4443   2.248   4.062   1.944
 1103SOL    MW4 4444   2.263   3.977   1.949
 1104SOL     OW 4445   2.263   4.232   1.828
 1104SOL    HW2 4446   2.343   4.281   1.846
 1104SOL    HW3 4447   2.252   4.237   1.733
 1104SOL    MW4 4448   2.272   4.239   1.818
 1105SOL     OW 4449   2.487   4.360   1.919
 1105SOL    HW2 4450   2.481   4.353   2.015
 1105SOL    HW3 4451   2.578   4.337   1.900
 1105SOL    MW4 4452   2.499   4.356   1.929
 1106SOL     OW 4453   2.925   4.648   1.865
 1106SOL    HW2 4454   2.993   4.705   1.902
 1106SOL    HW3 4455   2.943   4.562   1.901
 1106SOL    MW4 4456   2.936   4.644   1.874
 1107SOL     OW 4457   2.681   0.106   1.942
 1107SOL    HW2 4458   2.673   0.109   2.038
 1107SOL    HW3 4459   2.754   0.046   1.927
 1107SOL    MW4 4460   2.689   0.098   1.953
 1108SOL     OW 4461   2.696   0.362   1.857
 1108SOL    HW2 4462   2.774   0.402   1.895
 1108SOL    HW3 4463   2.701   0.270   1.883
 1108SOL    MW4 4464   2.707   0.355   1.865
 1109SOL     OW 4465   2.913   0.496   1.969
 1109SOL    HW2 4466   3.001   0.461   1.960
 1109SOL    HW3 4467   2.922   0.590   1.953
 1109SOL    MW4 4468   2.926   0.504   1.966
 1110SOL     OW 4469   2.931   0.750   1.851
 1110SOL    HW2 4470   2.998   0.800   1.897
 1110SOL    HW3 4471   2.848   0.786   1.883
 1110SOL    MW4 4472   2.929   0.761   1.861
 1111SOL     OW 4473   2.684   0.875   1.939
 1111SOL    HW2 4474   2.675   0.965   1.907
 1111SOL    HW3 4475   2.600   0.834   1.919
 1111SOL    MW4 4476   2.671   0.882   1.932
 1112SOL     OW 4477   2.652   1.150   1.905
 1112SOL    HW2 4478   2.577   1.205   1.926
 1112SOL    HW3 4479   2.660   1.154   1.810
 1112SOL    MW4 4480   2.643   1.158   1.895
 1113SOL     OW 4481   2.881   1.280   1.968
 1113SOL    HW2 4482   2.859   1.361   1.922
 1113SOL    HW3 4483   2.810   1.220   1.945
 1113SOL    MW4 4484   2.869   1.283   1.959
 1114SOL     OW 4485   2.920   1.533   1.829
 1114SOL    HW2 4486   2.998   1.581   1.859
 1114SOL    HW3 4487   2.941   1.508   1.739
 1114SOL    MW4 4488   2.933   1.536   1.821
 1115SOL     OW 4489   2.700   1.670   1.960
 1115SOL    HW2 4490   2.765   1.617   1.914
 1115SOL    HW3 4491   2.616   1.634   1.932
 1115SOL    MW4 4492   2.697   1.658   1.950
 1116SOL     OW 4493   2.668   1.931   1.850
 1116SOL    HW2 4494   2.741   1.987   1.877
 1116SOL    HW3 4495   2.683   1.848   1.896
 1116SOL    MW4 4496   2.679   1.928   1.860
 1117SOL     OW 4497   2.891   2.050   1.969
 1117SOL    HW2 4498   2.897   2.055   2.065
 1117SOL    HW3 4499   2.964   1.994   1.944
 1117SOL    MW4 4500   2.901   2.043   1.978
 1118SOL     OW 4501   2.889   2.321   1.867
 1118SOL    HW2 4502   2.963   2.378   1.886
 1118SOL    HW3 4503   2.911   2.238   1.910
 1118SOL    MW4 4504   2.902   2.317   1.875
 1119SOL     OW 4505   2.684   2.478   1.955
 1119SOL    HW2 4506   2.686   2.564   1.912
 1119SOL    HW3 4507   2.757   2.431   1.915
 1119SOL    MW4 4508   2.694   2.483   1.944
 1120SOL     OW 4509   2.669   2.722   1.835
 1120SOL    HW2 4510   2.588   2.751   1.877
 1120SOL    HW3 4511   2.644   2.710   1.743
 1120SOL    MW4 4512   2.655   2.725   1.828
 1121SOL     OW 4513   2.893   2.882   1.942
 1121SOL    HW2 4514   2.905   2.967   1.900
 1121SOL    HW3 4515   2.803   2.857   1.920
 1121SOL    MW4 4516   2.883   2.890   1.934
 1122SOL     OW 4517   2.912   3.157   1.848
 1122SOL    HW2 4518   2.983   3.196   1.899
 1122SOL    HW3 4519   2.834   3.170   1.901
 1122SOL    MW4 4520   2.911   3.164   1.861
 1123SOL     OW 4521   2.682   3.211   1.995
 1123SOL    HW2 4522   2.663   3.292   1.947
 1123SOL    HW3 4523   2.616   3.149   1.964
 1123SOL    MW4 4524   2.671   3.214   1.984
 1124SOL     OW 4525   2.698   3.472   1.860
 1124SOL    HW2 4526   2.779   3.516   1.886
 1124SOL    HW3 4527   2.630   3.513   1.913
 1124SOL    MW4 4528   2.700   3.483   1.870
 1125SOL     OW 4529   2.914   3.603   1.961
 1125SOL    HW2 4530   2.918   3.613   2.056
 1125SOL    HW3 4531   2.998   3.565   1.936
 1125SOL    MW4 4532   2.926   3.599   1.970
 1126SOL     OW 4533   2.948   3.875   1.871
 1126SOL    HW2 4534   2.940   3.783   1.896
 1126SOL    HW3 4535   2.955   3.873   1.775
 1126SOL    MW4 4536   2.948   3.862   1.862
 1127SOL     OW 4537   2.723   3.999   1.954
 1127SOL    HW2 4538   2.800   3.949   1.927
 1127SOL    HW3 4539   2.649   3.952   1.914
 1127SOL    MW4 4540   2.723   3.986   1.945
 1128SOL     OW 4541   2.740   4.274   1.873
 1128SOL    HW2 4542   2.727   4.182   1.898
 1128SOL    HW3 4543   2.738   4.272   1.777
 1128SOL    MW4 4544   2.738   4.261   1.863
 1129SOL     OW 4545   2.951   4.418   1.990
 1129SOL    HW2 4546   2.931   4.408   2.083
 1129SOL    HW3 4547   2.877   4.377   1.945
 1129SOL    MW4 4548   2.938   4.412   1.997
 1130SOL     OW 4549   3.392   0.022   1.875
 1130SOL    HW2 4550   3.401  -0.067   1.908
 1130SOL    HW3 4551   3.385   0.013   1.780
 1130SOL    MW4 4552   3.392   0.009   1.867
 1131SOL     OW 4553   3.134   0.131   1.950
 1131SOL    HW2 4554   3.130   0.135   2.046
 1131SOL    HW3 4555   3.223   0.102   1.931
 1131SOL    MW4 4556   3.145   0.128   1.960
 1132SOL     OW 4557   3.156   0.404   1.885
 1132SOL    HW2 4558   3.147   0.309   1.897
 1132SOL    HW3 4559   3.118   0.420   1.799
 1132SOL    MW4 4560   3.149   0.393   1.875
 1133SOL     OW 4561   3.383   0.527   2.004
 1133SOL    HW2 4562   3.456   0.488   1.956
 1133SOL    HW3 4563   3.305   0.492   1.961
 1133SOL    MW4 4564   3.382   0.517   1.992
 1134SOL     OW 4565   3.337   0.779   1.896
 1134SOL    HW2 4566   3.263   0.833   1.923
 1134SOL    HW3 4567   3.341   0.708   1.960
 1134SOL    MW4 4568   3.328   0.777   1.908
 1135SOL     OW 4569   3.110   0.901   1.978
 1135SOL    HW2 4570   3.111   0.929   2.070
 1135SOL    HW3 4571   3.113   0.982   1.928
 1135SOL    MW4 4572   3.111   0.915   1.984
 1136SOL     OW 4573   3.098   1.132   1.827
 1136SOL    HW2 4574   3.178   1.163   1.868
 1136SOL    HW3 4575   3.028   1.185   1.866
 1136SOL    MW4 4576   3.099   1.143   1.837
 1137SOL     OW 4577   3.336   1.211   1.939
 1137SOL    HW2 4578   3.327   1.234   2.032
 1137SOL    HW3 4579   3.344   1.296   1.894
 1137SOL    MW4 4580   3.336   1.226   1.945
 1138SOL     OW 4581   3.360   1.451   1.847
 1138SOL    HW2 4582   3.438   1.502   1.868
 1138SOL    HW3 4583   3.287   1.500   1.885
 1138SOL    MW4 4584   3.360   1.464   1.854
 1139SOL     OW 4585   3.144   1.642   1.932
 1139SOL    HW2 4586   3.137   1.634   2.028
 1139SOL    HW3 4587   3.160   1.735   1.917
 1139SOL    MW4 4588   3.145   1.653   1.943
 1140SOL     OW 4589   3.116   1.914   1.865
 1140SOL    HW2 4590   3.192   1.969   1.885
 1140SOL    HW3 4591   3.116   1.907   1.770
 1140SOL    MW4 4592   3.126   1.920   1.855
 1141SOL     OW 4593   3.367   2.037   1.939
 1141SOL    HW2 4594   3.456   2.006   1.924
 1141SOL    HW3 4595   3.366   2.127   1.905
 1141SOL    MW4 4596   3.378   2.045   1.933
 1142SOL     OW 4597   3.333   2.294   1.864
 1142SOL    HW2 4598   3.251   2.338   1.888
 1142SOL    HW3 4599   3.335   2.297   1.768
 1142SOL    MW4 4600   3.322   2.300   1.854
 1143SOL     OW 4601   3.110   2.480   1.915
 1143SOL    HW2 4602   3.108   2.470   2.010
 1143SOL    HW3 4603   3.114   2.575   1.901
 1143SOL    MW4 4604   3.111   2.491   1.926
 1144SOL     OW 4605   3.113   2.757   1.836
 1144SOL    HW2 4606   3.035   2.801   1.870
 1144SOL    HW3 4607   3.100   2.755   1.741
 1144SOL    MW4 4608   3.101   2.762   1.828
 1145SOL     OW 4609   3.367   2.845   1.959
 1145SOL    HW2 4610   3.365   2.825   2.053
 1145SOL    HW3 4611   3.287   2.804   1.925
 1145SOL    MW4 4612   3.356   2.837   1.967
 1146SOL     OW 4613   3.359   3.115   1.849
 1146SOL    HW2 4614   3.442   3.131   1.894
 1146SOL    HW3 4615   3.335   3.026   1.874
 1146SOL    MW4 4616   3.367   3.105   1.858
 1147SOL     OW 4617   3.125   3.253   1.978
 1147SOL    HW2 4618   3.108   3.339   1.942
 1147SOL    HW3 4619   3.209   3.227   1.939
 1147SOL    MW4 4620   3.134   3.261   1.968
 1148SOL     OW 4621   3.138   3.490   1.851
 1148SOL    HW2 4622   3.217   3.524   1.892
 1148SOL    HW3 4623   3.157   3.493   1.757
 1148SOL    MW4 4624   3.151   3.495   1.844
 1149SOL     OW 4625   3.366   3.628   1.959
 1149SOL    HW2 4626   3.437   3.564   1.959
 1149SOL    HW3 4627   3.407   3.711   1.935
 1149SOL    MW4 4628   3.380   3.631   1.956
 1150SOL     OW 4629   3.448   3.876   1.856
 1150SOL    HW2 4630   3.368   3.921   1.882
 1150SOL    HW3 4631   3.431   3.849   1.765
 1150SOL    MW4 4632   3.435   3.878   1.847
 1151SOL     OW 4633   3.217   3.994   1.971
 1151SOL    HW2 4634   3.224   4.005   2.066
 1151SOL    HW3 4635   3.129   3.959   1.958
 1151SOL    MW4 4636   3.207   3.991   1.982
 1152SOL     OW 4637   3.177   4.255   1.898
 1152SOL    HW2 4638   3.176   4.164   1.927
 1152SOL    HW3 4639   3.104   4.297   1.944
 1152SOL    MW4 4640   3.168   4.249   1.908
 1153SOL     OW 4641   3.411   4.418   1.952
 1153SOL    HW2 4642   3.491   4.376   1.921
 1153SOL    HW3 4643   3.340   4.361   1.921
 1153SOL    MW4 4644   3.412   4.405   1.944
 1154SOL     OW 4645   3.853   0.025   1.865
 1154SOL    HW2 4646   3.844  -0.064   1.900
 1154SOL    HW3 4647   3.778   0.073   1.900
 1154SOL    MW4 4648   3.842   0.020   1.874
 1155SOL     OW 4649   3.621   0.146   1.956
 1155SOL    HW2 4650   3.622   0.142   2.052
 1155SOL    HW3 4651   3.540   0.100   1.931
 1155SOL    MW4 4652   3.610   0.139   1.965
 1156SOL     OW 4653   3.594   0.409   1.868
 1156SOL    HW2 4654   3.602   0.320   1.902
 1156SOL    HW3 4655   3.609   0.401   1.774
 1156SOL    MW4 4656   3.597   0.396   1.860
 1157SOL     OW 4657   3.804   0.523   1.987
 1157SOL    HW2 4658   3.810   0.612   1.950
 1157SOL    HW3 4659   3.731   0.483   1.940
 1157SOL    MW4 4660   3.796   0.530   1.976
 1158SOL     OW 4661   3.833   0.776   1.865
 1158SOL    HW2 4662   3.761   0.827   1.902
 1158SOL    HW3 4663   3.803   0.752   1.777
 1158SOL    MW4 4664   3.819   0.780   1.859
 1159SOL     OW 4665   3.597   0.883   1.950
 1159SOL    HW2 4666   3.603   0.975   1.927
 1159SOL    HW3 4667   3.510   0.856   1.920
 1159SOL    MW4 4668   3.586   0.891   1.943
 1160SOL     OW 4669   3.598   1.150   1.862
 1160SOL    HW2 4670   3.515   1.184   1.896
 1160SOL    HW3 4671   3.588   1.152   1.767
 1160SOL    MW4 4672   3.586   1.155   1.854
 1161SOL     OW 4673   3.828   1.257   1.974
 1161SOL    HW2 4674   3.827   1.258   2.070
 1161SOL    HW3 4675   3.740   1.229   1.949
 1161SOL    MW4 4676   3.816   1.254   1.983
 1162SOL     OW 4677   3.838   1.512   1.844
 1162SOL    HW2 4678   3.910   1.569   1.871
 1162SOL    HW3 4679   3.856   1.428   1.887
 1162SOL    MW4 4680   3.850   1.509   1.853
 1163SOL     OW 4681   3.582   1.601   1.909
 1163SOL    HW2 4682   3.583   1.694   1.885
 1163SOL    HW3 4683   3.671   1.571   1.894
 1163SOL    MW4 4684   3.594   1.609   1.904
 1164SOL     OW 4685   3.596   1.894   1.880
 1164SOL    HW2 4686   3.678   1.925   1.918
 1164SOL    HW3 4687   3.609   1.903   1.785
 1164SOL    MW4 4688   3.609   1.899   1.872
 1165SOL     OW 4689   3.804   2.039   1.990
 1165SOL    HW2 4690   3.890   2.017   1.955
 1165SOL    HW3 4691   3.779   2.119   1.944
 1165SOL    MW4 4692   3.812   2.046   1.979
 1166SOL     OW 4693   3.778   2.297   1.853
 1166SOL    HW2 4694   3.854   2.346   1.884
 1166SOL    HW3 4695   3.703   2.340   1.894
 1166SOL    MW4 4696   3.778   2.309   1.862
 1167SOL     OW 4697   3.566   2.425   1.965
 1167SOL    HW2 4698   3.558   2.518   1.948
 1167SOL    HW3 4699   3.484   2.387   1.935
 1167SOL    MW4 4700   3.554   2.432   1.959
 1168SOL     OW 4701   3.565   2.694   1.853
 1168SOL    HW2 4702   3.645   2.723   1.897
 1168SOL    HW3 4703   3.494   2.742   1.895
 1168SOL    MW4 4704   3.567   2.704   1.864
 1169SOL     OW 4705   3.797   2.802   1.965
 1169SOL    HW2 4706   3.814   2.796   2.059
 1169SOL    HW3 4707   3.806   2.895   1.945
 1169SOL    MW4 4708   3.801   2.814   1.975
 1170SOL     OW 4709   3.816   3.071   1.896
 1170SOL    HW2 4710   3.737   3.115   1.927
 1170SOL    HW3 4711   3.810   3.074   1.800
 1170SOL    MW4 4712   3.805   3.077   1.887
 1171SOL     OW 4713   3.596   3.208   1.962
 1171SOL    HW2 4714   3.578   3.194   2.055
 1171SOL    HW3 4715   3.596   3.303   1.951
 1171SOL    MW4 4716   3.594   3.218   1.973
 1172SOL     OW 4717   3.604   3.479   1.902
 1172SOL    HW2 4718   3.682   3.527   1.930
 1172SOL    HW3 4719   3.611   3.475   1.807
 1172SOL    MW4 4720   3.615   3.484   1.893
 1173SOL     OW 4721   3.821   3.632   1.953
 1173SOL    HW2 4722   3.893   3.587   1.909
 1173SOL    HW3 4723   3.832   3.724   1.930
 1173SOL    MW4 4724   3.832   3.638   1.944
 1174SOL     OW 4725   3.875   3.875   1.823
 1174SOL    HW2 4726   3.814   3.942   1.852
 1174SOL    HW3 4727   3.858   3.866   1.729
 1174SOL    MW4 4728   3.865   3.883   1.814
 1175SOL     OW 4729   3.658   4.022   1.919
 1175SOL    HW2 4730   3.650   4.025   2.014
 1175SOL    HW3 4731   3.585   3.968   1.890
 1175SOL    MW4 4732   3.648   4.016   1.927
 1176SOL     OW 4733   3.629   4.291   1.829
 1176SOL    HW2 4734   3.709   4.339   1.852
 1176SOL    HW3 4735   3.639   4.205   1.871
 1176SOL    MW4 4736   3.641   4.286   1.837
 1177SOL     OW 4737   3.837   4.442   1.964
 1177SOL    HW2 4738   3.804   4.419   2.052
 1177SOL    HW3 4739   3.915   4.387   1.954
 1177SOL    MW4 4740   3.843   4.432   1.975
 1178SOL     OW 4741   4.270   4.665   1.896
 1178SOL    HW2 4742   4.216   4.737   1.928
 1178SOL    HW3 4743   4.359   4.689   1.919
 1178SOL    MW4 4744   4.275   4.677   1.903
 1179SOL     OW 4745   4.073   0.167   1.984
 1179SOL    HW2 4746   4.086   0.154   2.078
 1179SOL    HW3 4747   3.997   0.113   1.963
 1179SOL    MW4 4748   4.064   0.158   1.993
 1180SOL     OW 4749   4.028   0.401   1.848
 1180SOL    HW2 4750   4.027   0.313   1.886
 1180SOL    HW3 4751   3.964   0.450   1.900
 1180SOL    MW4 4752   4.019   0.396   1.860
 1181SOL     OW 4753   4.271   0.510   1.935
 1181SOL    HW2 4754   4.278   0.498   2.030
 1181SOL    HW3 4755   4.192   0.462   1.911
 1181SOL    MW4 4756   4.261   0.502   1.945
 1182SOL     OW 4757   4.230   0.786   1.856
 1182SOL    HW2 4758   4.245   0.695   1.881
 1182SOL    HW3 4759   4.249   0.788   1.762
 1182SOL    MW4 4760   4.235   0.774   1.847
 1183SOL     OW 4761   4.046   0.905   2.007
 1183SOL    HW2 4762   4.116   0.861   1.959
 1183SOL    HW3 4763   3.966   0.881   1.960
 1183SOL    MW4 4764   4.045   0.896   1.994
 1184SOL     OW 4765   4.056   1.146   1.884
 1184SOL    HW2 4766   4.062   1.058   1.919
 1184SOL    HW3 4767   3.974   1.181   1.920
 1184SOL    MW4 4768   4.046   1.139   1.893
 1185SOL     OW 4769   4.276   1.305   1.926
 1185SOL    HW2 4770   4.287   1.286   2.019
 1185SOL    HW3 4771   4.192   1.267   1.904
 1185SOL    MW4 4772   4.266   1.298   1.936
 1186SOL     OW 4773   4.250   1.555   1.809
 1186SOL    HW2 4774   4.257   1.465   1.843
 1186SOL    HW3 4775   4.239   1.545   1.715
 1186SOL    MW4 4776   4.249   1.542   1.801
 1187SOL     OW 4777   4.022   1.685   1.933
 1187SOL    HW2 4778   4.038   1.687   2.027
 1187SOL    HW3 4779   4.102   1.646   1.896
 1187SOL    MW4 4780   4.035   1.681   1.941
 1188SOL     OW 4781   4.042   1.950   1.868
 1188SOL    HW2 4782   4.037   1.858   1.896
 1188SOL    HW3 4783   4.051   1.945   1.773
 1188SOL    MW4 4784   4.043   1.937   1.859
 1189SOL     OW 4785   4.255   2.082   1.962
 1189SOL    HW2 4786   4.262   2.070   2.057
 1189SOL    HW3 4787   4.173   2.037   1.938
 1189SOL    MW4 4788   4.245   2.074   1.972
 1190SOL     OW 4789   4.248   2.339   1.852
 1190SOL    HW2 4790   4.244   2.250   1.888
 1190SOL    HW3 4791   4.334   2.371   1.878
 1190SOL    MW4 4792   4.259   2.331   1.860
 1191SOL     OW 4793   4.000   2.424   1.958
 1191SOL    HW2 4794   4.008   2.431   2.053
 1191SOL    HW3 4795   4.087   2.399   1.928
 1191SOL    MW4 4796   4.013   2.421   1.966
 1192SOL     OW 4797   4.031   2.684   1.881
 1192SOL    HW2 4798   4.020   2.599   1.924
 1192SOL    HW3 4799   3.952   2.733   1.904
 1192SOL    MW4 4800   4.019   2.679   1.889
 1193SOL     OW 4801   4.248   2.863   1.932
 1193SOL    HW2 4802   4.242   2.874   2.027
 1193SOL    HW3 4803   4.168   2.815   1.909
 1193SOL    MW4 4804   4.236   2.858   1.941
 1194SOL     OW 4805   4.306   3.140   1.871
 1194SOL    HW2 4806   4.229   3.192   1.894
 1194SOL    HW3 4807   4.279   3.049   1.889
 1194SOL    MW4 4808   4.292   3.135   1.876
 1195SOL     OW 4809   4.053   3.215   1.953
 1195SOL    HW2 4810   4.044   3.234   2.047
 1195SOL    HW3 4811   3.985   3.151   1.935
 1195SOL    MW4 4812   4.043   3.209   1.963
 1196SOL     OW 4813   4.030   3.471   1.850
 1196SOL    HW2 4814   4.107   3.520   1.877
 1196SOL    HW3 4815   4.043   3.384   1.888
 1196SOL    MW4 4816   4.042   3.466   1.859
 1197SOL     OW 4817   4.263   3.616   1.940
 1197SOL    HW2 4818   4.277   3.706   1.910
 1197SOL    HW3 4819   4.346   3.571   1.919
 1197SOL    MW4 4820   4.276   3.622   1.933
 1198SOL     OW 4821   4.315   3.889   1.863
 1198SOL    HW2 4822   4.379   3.955   1.890
 1198SOL    HW3 4823   4.314   3.894   1.768
 1198SOL    MW4 4824   4.324   3.899   1.854
 1199SOL     OW 4825   4.083   4.016   1.954
 1199SOL    HW2 4826   4.166   3.979   1.923
 1199SOL    HW3 4827   4.016   3.964   1.909
 1199SOL    MW4 4828   4.085   4.004   1.944
 1200SOL     OW 4829   4.041   4.281   1.861
 1200SOL    HW2 4830   4.116   4.340   1.866
 1200SOL    HW3 4831   4.065   4.207   1.918
 1200SOL    MW4 4832   4.054   4.279   1.869
 1201SOL     OW 4833   4.286   4.400   1.940
 1201SOL    HW2 4834   4.275   4.386   2.034
 1201SOL    HW3 4835   4.276   4.495   1.929
 1201SOL    MW4 4836   4.283   4.411   1.951
 1202SOL     OW 4837   0.231   4.666   2.350
 1202SOL    HW2 4838   0.227   4.668   2.445
 1202SOL    HW3 4839   0.304   4.724   2.327
 1202SOL    MW4 4840   0.240   4.674   2.359
 1203SOL     OW 4841   0.011   0.118   2.240
 1203SOL    HW2 4842   0.077   0.064   2.283
 1203SOL    HW3 4843   0.031   0.110   2.147
 1203SOL    MW4 4844   0.022   0.110   2.233
 1204SOL     OW 4845   0.001   0.374   2.363
 1204SOL    HW2 4846   0.077   0.417   2.325
 1204SOL    HW3 4847   0.009   0.283   2.337
 1204SOL    MW4 4848   0.012   0.368   2.354
 1205SOL     OW 4849   0.222   0.485   2.251
 1205SOL    HW2 4850   0.303   0.441   2.278
 1205SOL    HW3 4851   0.221   0.479   2.156
 1205SOL    MW4 4852   0.233   0.479   2.242
 1206SOL     OW 4853   0.228   0.764   2.322
 1206SOL    HW2 4854   0.229   0.770   2.417
 1206SOL    HW3 4855   0.229   0.669   2.304
 1206SOL    MW4 4856   0.228   0.752   2.332
 1207SOL     OW 4857   0.002   0.893   2.231
 1207SOL    HW2 4858   0.088   0.861   2.258
 1207SOL    HW3 4859   0.005   0.895   2.136
 1207SOL    MW4 4860   0.014   0.889   2.222
 1208SOL     OW 4861   0.006   1.153   2.331
 1208SOL    HW2 4862  -0.016   1.156   2.425
 1208SOL    HW3 4863   0.004   1.060   2.309
 1208SOL    MW4 4864   0.003   1.141   2.341
 1209SOL     OW 4865   0.231   1.267   2.202
 1209SOL    HW2 4866   0.148   1.237   2.238
 1209SOL    HW3 4867   0.222   1.253   2.107
 1209SOL    MW4 4868   0.219   1.261   2.194
 1210SOL     OW 4869   0.190   1.538   2.284
 1210SOL    HW2 4870   0.192   1.533   2.380
 1210SOL    HW3 4871   0.204   1.448   2.255
 1210SOL    MW4 4872   0.192   1.526   2.293
 1211SOL     OW 4873   4.455   1.708   2.220
 1211SOL    HW2 4874   4.464   1.797   2.256
 1211SOL    HW3 4875   4.546   1.678   2.209
 1211SOL    MW4 4876   4.468   1.716   2.223
 1212SOL     OW 4877   4.486   1.965   2.327
 1212SOL    HW2 4878   4.395   1.991   2.312
 1212SOL    HW3 4879   4.538   2.035   2.286
 1212SOL    MW4 4880   4.481   1.978   2.319
 1213SOL     OW 4881   0.216   2.099   2.220
 1213SOL    HW2 4882   0.277   2.043   2.269
 1213SOL    HW3 4883   0.222   2.067   2.130
 1213SOL    MW4 4884   0.225   2.087   2.214
 1214SOL     OW 4885   0.173   2.362   2.299
 1214SOL    HW2 4886   0.162   2.379   2.393
 1214SOL    HW3 4887   0.167   2.267   2.291
 1214SOL    MW4 4888   0.170   2.352   2.310
 1215SOL     OW 4889   4.426   2.446   2.208
 1215SOL    HW2 4890   4.418   2.536   2.239
 1215SOL    HW3 4891   4.514   2.418   2.236
 1215SOL    MW4 4892   4.437   2.454   2.215
 1216SOL     OW 4893   4.445   2.681   2.338
 1216SOL    HW2 4894   4.472   2.678   2.430
 1216SOL    HW3 4895   4.516   2.727   2.293
 1216SOL    MW4 4896   4.458   2.687   2.344
 1217SOL     OW 4897   0.162   2.840   2.239
 1217SOL    HW2 4898   0.242   2.797   2.269
 1217SOL    HW3 4899   0.164   2.833   2.144
 1217SOL    MW4 4900   0.172   2.834   2.231
 1218SOL     OW 4901   0.239   3.127   2.307
 1218SOL    HW2 4902   0.155   3.170   2.292
 1218SOL    HW3 4903   0.222   3.035   2.287
 1218SOL    MW4 4904   0.225   3.120   2.302
 1219SOL     OW 4905   4.473   3.209   2.261
 1219SOL    HW2 4906   4.482   3.296   2.301
 1219SOL    HW3 4907   4.473   3.226   2.167
 1219SOL    MW4 4908   4.474   3.223   2.254
 1220SOL     OW 4909   4.490   3.479   2.349
 1220SOL    HW2 4910   4.461   3.480   2.440
 1220SOL    HW3 4911   4.420   3.523   2.300
 1220SOL    MW4 4912   4.477   3.485   2.354
 1221SOL     OW 4913   0.250   3.565   2.215
 1221SOL    HW2 4914   0.316   3.528   2.273
 1221SOL    HW3 4915   0.168   3.525   2.242
 1221SOL    MW4 4916   0.248   3.555   2.226
 1222SOL     OW 4917   0.275   3.834   2.296
 1222SOL    HW2 4918   0.188   3.868   2.275
 1222SOL    HW3 4919   0.271   3.741   2.271
 1222SOL    MW4 4920   0.263   3.826   2.290
 1223SOL     OW 4921   0.039   3.958   2.229
 1223SOL    HW2 4922   0.042   4.040   2.277
 1223SOL    HW3 4923   0.033   3.984   2.137
 1223SOL    MW4 4924   0.039   3.972   2.223
 1224SOL     OW 4925   4.489   4.255   2.310
 1224SOL    HW2 4926   4.483   4.256   2.406
 1224SOL    HW3 4927   4.561   4.316   2.290
 1224SOL    MW4 4928   4.498   4.263   2.320
 1225SOL     OW 4929   0.210   4.407   2.226
 1225SOL    HW2 4930   0.280   4.349   2.255
 1225SOL    HW3 4931   0.229   4.490   2.268
 1225SOL    MW4 4932   0.222   4.410   2.235
 1226SOL     OW 4933   0.693   4.616   2.329
 1226SOL    HW2 4934   0.688   4.593   2.422
 1226SOL    HW3 4935   0.771   4.671   2.322
 1226SOL    MW4 4936   0.703   4.620   2.341
 1227SOL     OW 4937   0.464   0.107   2.222
 1227SOL    HW2 4938   0.530   0.057   2.269
 1227SOL    HW3 4939   0.493   0.106   2.131
 1227SOL    MW4 4940   0.477   0.101   2.216
 1228SOL     OW 4941   0.451   0.364   2.333
 1228SOL    HW2 4942   0.457   0.348   2.428
 1228SOL    HW3 4943   0.463   0.278   2.294
 1228SOL    MW4 4944   0.454   0.350   2.341
 1229SOL     OW 4945   0.702   0.499   2.247
 1229SOL    HW2 4946   0.689   0.593   2.262
 1229SOL    HW3 4947   0.623   0.458   2.281
 1229SOL    MW4 4948   0.690   0.506   2.254
 1230SOL     OW 4949   0.666   0.765   2.328
 1230SOL    HW2 4950   0.675   0.752   2.423
 1230SOL    HW3 4951   0.580   0.805   2.317
 1230SOL    MW4 4952   0.656   0.768   2.339
 1231SOL     OW 4953   0.437   0.916   2.216
 1231SOL    HW2 4954   0.361   0.864   2.242
 1231SOL    HW3 4955   0.428   0.926   2.122
 1231SOL    MW4 4956   0.426   0.910   2.207
 1232SOL     OW 4957   0.456   1.174   2.330
 1232SOL    HW2 4958   0.453   1.083   2.301
 1232SOL    HW3 4959   0.382   1.216   2.285
 1232SOL    MW4 4960   0.446   1.167   2.320
 1233SOL     OW 4961   0.669   1.292   2.190
 1233SOL    HW2 4962   0.670   1.375   2.238
 1233SOL    HW3 4963   0.601   1.240   2.234
 1233SOL    MW4 4964   0.660   1.296   2.202
 1234SOL     OW 4965   0.632   1.543   2.309
 1234SOL    HW2 4966   0.628   1.539   2.404
 1234SOL    HW3 4967   0.718   1.580   2.290
 1234SOL    MW4 4968   0.642   1.548   2.319
 1235SOL     OW 4969   0.416   1.685   2.216
 1235SOL    HW2 4970   0.491   1.630   2.238
 1235SOL    HW3 4971   0.340   1.634   2.244
 1235SOL    MW4 4972   0.416   1.671   2.223
 1236SOL     OW 4973   0.422   1.938   2.335
 1236SOL    HW2 4974   0.495   1.971   2.282
 1236SOL    HW3 4975   0.431   1.843   2.332
 1236SOL    MW4 4976   0.432   1.930   2.327
 1237SOL     OW 4977   0.631   2.043   2.199
 1237SOL    HW2 4978   0.707   2.004   2.242
 1237SOL    HW3 4979   0.610   2.120   2.252
 1237SOL    MW4 4980   0.638   2.048   2.211
 1238SOL     OW 4981   0.581   2.296   2.320
 1238SOL    HW2 4982   0.582   2.287   2.415
 1238SOL    HW3 4983   0.666   2.333   2.298
 1238SOL    MW4 4984   0.592   2.300   2.330
 1239SOL     OW 4985   0.405   2.476   2.202
 1239SOL    HW2 4986   0.474   2.431   2.252
 1239SOL    HW3 4987   0.323   2.437   2.233
 1239SOL    MW4 4988   0.403   2.465   2.212
 1240SOL     OW 4989   0.405   2.731   2.331
 1240SOL    HW2 4990   0.386   2.726   2.425
 1240SOL    HW3 4991   0.389   2.642   2.299
 1240SOL    MW4 4992   0.400   2.718   2.339
 1241SOL     OW 4993   0.656   2.831   2.255
 1241SOL    HW2 4994   0.723   2.765   2.273
 1241SOL    HW3 4995   0.576   2.794   2.293
 1241SOL    MW4 4996   0.654   2.817   2.262
 1242SOL     OW 4997   0.702   3.095   2.350
 1242SOL    HW2 4998   0.634   3.145   2.306
 1242SOL    HW3 4999   0.678   3.003   2.335
 1242SOL    MW4 5000   0.690   3.089   2.342
 1243SOL     OW 5001   0.495   3.234   2.233
 1243SOL    HW2 5002   0.405   3.203   2.248
 1243SOL    HW3 5003   0.509   3.221   2.139
 1243SOL    MW4 5004   0.485   3.228   2.222
 1244SOL     OW 5005   0.461   3.480   2.364
 1244SOL    HW2 5006   0.516   3.547   2.322
 1244SOL    HW3 5007   0.485   3.399   2.319
 1244SOL    MW4 5008   0.472   3.478   2.352
 1245SOL     OW 5009   0.706   3.634   2.213
 1245SOL    HW2 5010   0.721   3.720   2.252
 1245SOL    HW3 5011   0.718   3.648   2.119
 1245SOL    MW4 5012   0.709   3.647   2.206
 1246SOL     OW 5013   0.713   3.895   2.334
 1246SOL    HW2 5014   0.703   3.887   2.429
 1246SOL    HW3 5015   0.629   3.930   2.304
 1246SOL    MW4 5016   0.700   3.899   2.343
 1247SOL     OW 5017   0.478   3.988   2.206
 1247SOL    HW2 5018   0.401   3.939   2.232
 1247SOL    HW3 5019   0.472   3.993   2.110
 1247SOL    MW4 5020   0.467   3.982   2.197
 1248SOL     OW 5021   0.432   4.242   2.324
 1248SOL    HW2 5022   0.512   4.286   2.298
 1248SOL    HW3 5023   0.439   4.154   2.286
 1248SOL    MW4 5024   0.443   4.236   2.316
 1249SOL     OW 5025   0.650   4.371   2.220
 1249SOL    HW2 5026   0.665   4.448   2.274
 1249SOL    HW3 5027   0.649   4.404   2.130
 1249SOL    MW4 5028   0.652   4.386   2.215
 1250SOL     OW 5029   1.163   4.638   2.342
 1250SOL    HW2 5030   1.152   4.633   2.437
 1250SOL    HW3 5031   1.086   4.686   2.311
 1250SOL    MW4 5032   1.152   4.644   2.350
 1251SOL     OW 5033   0.937   0.102   2.251
 1251SOL    HW2 5034   0.933   0.195   2.274
 1251SOL    HW3 5035   0.941   0.102   2.155
 1251SOL    MW4 5036   0.937   0.115   2.241
 1252SOL     OW 5037   0.926   0.358   2.351
 1252SOL    HW2 5038   1.002   0.410   2.326
 1252SOL    HW3 5039   0.852   0.403   2.311
 1252SOL    MW4 5040   0.926   0.370   2.342
 1253SOL     OW 5041   1.145   0.512   2.233
 1253SOL    HW2 5042   1.224   0.470   2.267
 1253SOL    HW3 5043   1.144   0.491   2.140
 1253SOL    MW4 5044   1.156   0.504   2.225
 1254SOL     OW 5045   1.119   0.776   2.316
 1254SOL    HW2 5046   1.039   0.809   2.275
 1254SOL    HW3 5047   1.126   0.685   2.287
 1254SOL    MW4 5048   1.109   0.768   2.307
 1255SOL     OW 5049   0.885   0.886   2.216
 1255SOL    HW2 5050   0.892   0.974   2.252
 1255SOL    HW3 5051   0.803   0.852   2.251
 1255SOL    MW4 5052   0.875   0.893   2.225
 1256SOL     OW 5053   0.888   1.149   2.322
 1256SOL    HW2 5054   0.972   1.182   2.291
 1256SOL    HW3 5055   0.823   1.204   2.279
 1256SOL    MW4 5056   0.891   1.160   2.312
 1257SOL     OW 5057   1.124   1.272   2.209
 1257SOL    HW2 5058   1.204   1.230   2.240
 1257SOL    HW3 5059   1.131   1.272   2.114
 1257SOL    MW4 5060   1.136   1.267   2.201
 1258SOL     OW 5061   1.115   1.518   2.324
 1258SOL    HW2 5062   1.028   1.555   2.309
 1258SOL    HW3 5063   1.112   1.430   2.287
 1258SOL    MW4 5064   1.103   1.512   2.317
 1259SOL     OW 5065   0.886   1.652   2.260
 1259SOL    HW2 5066   0.882   1.744   2.283
 1259SOL    HW3 5067   0.891   1.652   2.164
 1259SOL    MW4 5068   0.886   1.664   2.250
 1260SOL     OW 5069   0.856   1.924   2.326
 1260SOL    HW2 5070   0.877   1.936   2.419
 1260SOL    HW3 5071   0.932   1.960   2.280
 1260SOL    MW4 5072   0.869   1.931   2.332
 1261SOL     OW 5073   1.084   2.059   2.227
 1261SOL    HW2 5074   1.165   2.026   2.266
 1261SOL    HW3 5075   1.095   2.047   2.133
 1261SOL    MW4 5076   1.096   2.053   2.220
 1262SOL     OW 5077   1.065   2.314   2.340
 1262SOL    HW2 5078   1.148   2.348   2.305
 1262SOL    HW3 5079   1.062   2.224   2.309
 1262SOL    MW4 5080   1.076   2.307   2.331
 1263SOL     OW 5081   0.820   2.401   2.230
 1263SOL    HW2 5082   0.900   2.373   2.275
 1263SOL    HW3 5083   0.846   2.410   2.138
 1263SOL    MW4 5084   0.834   2.398   2.224
 1264SOL     OW 5085   0.874   2.672   2.291
 1264SOL    HW2 5086   0.883   2.681   2.386
 1264SOL    HW3 5087   0.861   2.578   2.277
 1264SOL    MW4 5088   0.874   2.661   2.302
 1265SOL     OW 5089   1.080   2.848   2.261
 1265SOL    HW2 5090   1.155   2.790   2.275
 1265SOL    HW3 5091   1.004   2.791   2.266
 1265SOL    MW4 5092   1.080   2.833   2.263
 1266SOL     OW 5093   1.123   3.104   2.351
 1266SOL    HW2 5094   1.045   3.149   2.318
 1266SOL    HW3 5095   1.110   3.013   2.324
 1266SOL    MW4 5096   1.111   3.098   2.343
 1267SOL     OW 5097   0.896   3.251   2.228
 1267SOL    HW2 5098   0.896   3.339   2.264
 1267SOL    HW3 5099   0.825   3.206   2.273
 1267SOL    MW4 5100   0.887   3.257   2.238
 1268SOL     OW 5101   0.899   3.504   2.321
 1268SOL    HW2 5102   0.881   3.486   2.413
 1268SOL    HW3 5103   0.818   3.540   2.286
 1268SOL    MW4 5104   0.886   3.506   2.328
 1269SOL     OW 5105   1.139   3.594   2.231
 1269SOL    HW2 5106   1.213   3.546   2.269
 1269SOL    HW3 5107   1.063   3.566   2.282
 1269SOL    MW4 5108   1.139   3.584   2.243
 1270SOL     OW 5109   1.149   3.852   2.311
 1270SOL    HW2 5110   1.227   3.901   2.285
 1270SOL    HW3 5111   1.161   3.765   2.271
 1270SOL    MW4 5112   1.161   3.847   2.302
 1271SOL     OW 5113   0.943   4.019   2.242
 1271SOL    HW2 5114   1.011   3.955   2.267
 1271SOL    HW3 5115   0.861   3.977   2.268
 1271SOL    MW4 5116   0.941   4.005   2.249
 1272SOL     OW 5117   0.888   4.269   2.318
 1272SOL    HW2 5118   0.906   4.178   2.292
 1272SOL    HW3 5119   0.819   4.297   2.258
 1272SOL    MW4 5120   0.881   4.261   2.307
 1273SOL     OW 5121   1.123   4.399   2.212
 1273SOL    HW2 5122   1.042   4.369   2.254
 1273SOL    HW3 5123   1.146   4.479   2.258
 1273SOL    MW4 5124   1.115   4.405   2.224
 1274SOL     OW 5125   1.582   4.631   2.284
 1274SOL    HW2 5126   1.660   4.682   2.265
 1274SOL    HW3 5127   1.509   4.686   2.254
 1274SOL    MW4 5128   1.582   4.645   2.278
 1275SOL     OW 5129   1.350   0.106   2.183
 1275SOL    HW2 5130   1.349   0.192   2.224
 1275SOL    HW3 5131   1.300   0.050   2.243
 1275SOL    MW4 5132   1.343   0.110   2.196
 1276SOL     OW 5133   1.368   0.352   2.310
 1276SOL    HW2 5134   1.357   0.355   2.405
 1276SOL    HW3 5135   1.446   0.406   2.293
 1276SOL    MW4 5136   1.377   0.359   2.320
 1277SOL     OW 5137   1.618   0.479   2.234
 1277SOL    HW2 5138   1.694   0.423   2.245
 1277SOL    HW3 5139   1.602   0.479   2.139
 1277SOL    MW4 5140   1.626   0.471   2.223
 1278SOL     OW 5141   1.563   0.731   2.335
 1278SOL    HW2 5142   1.640   0.784   2.313
 1278SOL    HW3 5143   1.580   0.647   2.292
 1278SOL    MW4 5144   1.576   0.727   2.326
 1279SOL     OW 5145   1.358   0.862   2.209
 1279SOL    HW2 5146   1.431   0.818   2.253
 1279SOL    HW3 5147   1.280   0.827   2.250
 1279SOL    MW4 5148   1.358   0.852   2.220
 1280SOL     OW 5149   1.347   1.135   2.284
 1280SOL    HW2 5150   1.351   1.130   2.380
 1280SOL    HW3 5151   1.350   1.044   2.255
 1280SOL    MW4 5152   1.348   1.122   2.293
 1281SOL     OW 5153   1.574   1.317   2.193
 1281SOL    HW2 5154   1.491   1.273   2.209
 1281SOL    HW3 5155   1.578   1.327   2.098
 1281SOL    MW4 5156   1.564   1.313   2.183
 1282SOL     OW 5157   1.578   1.566   2.320
 1282SOL    HW2 5158   1.653   1.613   2.282
 1282SOL    HW3 5159   1.585   1.478   2.283
 1282SOL    MW4 5160   1.589   1.561   2.310
 1283SOL     OW 5161   1.352   1.669   2.203
 1283SOL    HW2 5162   1.429   1.632   2.245
 1283SOL    HW3 5163   1.279   1.617   2.236
 1283SOL    MW4 5164   1.352   1.657   2.213
 1284SOL     OW 5165   1.337   1.938   2.323
 1284SOL    HW2 5166   1.419   1.969   2.283
 1284SOL    HW3 5167   1.327   1.848   2.290
 1284SOL    MW4 5168   1.347   1.930   2.313
 1285SOL     OW 5169   1.568   2.060   2.263
 1285SOL    HW2 5170   1.646   2.017   2.297
 1285SOL    HW3 5171   1.577   2.055   2.168
 1285SOL    MW4 5172   1.580   2.054   2.255
 1286SOL     OW 5173   1.541   2.331   2.351
 1286SOL    HW2 5174   1.548   2.330   2.446
 1286SOL    HW3 5175   1.547   2.239   2.325
 1286SOL    MW4 5176   1.543   2.319   2.360
 1287SOL     OW 5177   1.309   2.421   2.266
 1287SOL    HW2 5178   1.395   2.389   2.293
 1287SOL    HW3 5179   1.308   2.410   2.171
 1287SOL    MW4 5180   1.320   2.415   2.257
 1288SOL     OW 5181   1.314   2.708   2.316
 1288SOL    HW2 5182   1.401   2.740   2.291
 1288SOL    HW3 5183   1.316   2.615   2.295
 1288SOL    MW4 5184   1.326   2.700   2.310
 1289SOL     OW 5185   1.558   2.843   2.237
 1289SOL    HW2 5186   1.578   2.930   2.272
 1289SOL    HW3 5187   1.574   2.852   2.143
 1289SOL    MW4 5188   1.563   2.856   2.229
 1290SOL     OW 5189   1.614   3.091   2.329
 1290SOL    HW2 5190   1.598   3.081   2.423
 1290SOL    HW3 5191   1.537   3.136   2.296
 1290SOL    MW4 5192   1.602   3.096   2.337
 1291SOL     OW 5193   1.374   3.217   2.244
 1291SOL    HW2 5194   1.292   3.182   2.280
 1291SOL    HW3 5195   1.365   3.205   2.149
 1291SOL    MW4 5196   1.362   3.211   2.236
 1292SOL     OW 5197   1.375   3.497   2.315
 1292SOL    HW2 5198   1.356   3.491   2.408
 1292SOL    HW3 5199   1.383   3.405   2.286
 1292SOL    MW4 5200   1.374   3.484   2.323
 1293SOL     OW 5201   1.593   3.586   2.197
 1293SOL    HW2 5202   1.597   3.677   2.227
 1293SOL    HW3 5203   1.512   3.552   2.236
 1293SOL    MW4 5204   1.583   3.594   2.206
 1294SOL     OW 5205   1.594   3.839   2.321
 1294SOL    HW2 5206   1.576   3.852   2.414
 1294SOL    HW3 5207   1.659   3.906   2.300
 1294SOL    MW4 5208   1.601   3.850   2.331
 1295SOL     OW 5209   1.375   3.966   2.226
 1295SOL    HW2 5210   1.443   3.906   2.257
 1295SOL    HW3 5211   1.373   3.954   2.131
 1295SOL    MW4 5212   1.384   3.957   2.218
 1296SOL     OW 5213   1.336   4.270   2.327
 1296SOL    HW2 5214   1.333   4.178   2.297
 1296SOL    HW3 5215   1.262   4.311   2.283
 1296SOL    MW4 5216   1.326   4.263   2.317
 1297SOL     OW 5217   1.565   4.364   2.205
 1297SOL    HW2 5218   1.484   4.333   2.245
 1297SOL    HW3 5219   1.572   4.456   2.232
 1297SOL    MW4 5220   1.555   4.372   2.214
 1298SOL     OW 5221   2.049   4.589   2.357
 1298SOL    HW2 5222   2.130   4.638   2.342
 1298SOL    HW3 5223   2.046   4.524   2.287
 1298SOL    MW4 5224   2.059   4.587   2.346
 1299SOL     OW 5225   1.836   0.084   2.225
 1299SOL    HW2 5226   1.830   0.168   2.269
 1299SOL    HW3 5227   1.914   0.043   2.262
 1299SOL    MW4 5228   1.846   0.090   2.235
 1300SOL     OW 5229   1.836   0.341   2.343
 1300SOL    HW2 5230   1.826   0.344   2.438
 1300SOL    HW3 5231   1.911   0.397   2.324
 1300SOL    MW4 5232   1.844   0.348   2.353
 1301SOL     OW 5233   2.059   0.496   2.272
 1301SOL    HW2 5234   2.028   0.582   2.299
 1301SOL    HW3 5235   2.061   0.500   2.176
 1301SOL    MW4 5236   2.055   0.508   2.263
 1302SOL     OW 5237   2.004   0.748   2.372
 1302SOL    HW2 5238   2.084   0.783   2.333
 1302SOL    HW3 5239   1.933   0.801   2.335
 1302SOL    MW4 5240   2.005   0.759   2.362
 1303SOL     OW 5241   1.791   0.883   2.247
 1303SOL    HW2 5242   1.784   0.969   2.289
 1303SOL    HW3 5243   1.795   0.903   2.153
 1303SOL    MW4 5244   1.791   0.897   2.240
 1304SOL     OW 5245   1.767   1.141   2.319
 1304SOL    HW2 5246   1.844   1.181   2.279
 1304SOL    HW3 5247   1.693   1.183   2.276
 1304SOL    MW4 5248   1.767   1.151   2.308
 1305SOL     OW 5249   1.992   1.256   2.202
 1305SOL    HW2 5250   1.985   1.339   2.249
 1305SOL    HW3 5251   2.006   1.282   2.111
 1305SOL    MW4 5252   1.993   1.271   2.196
 1306SOL     OW 5253   2.005   1.517   2.323
 1306SOL    HW2 5254   1.989   1.524   2.417
 1306SOL    HW3 5255   1.937   1.572   2.283
 1306SOL    MW4 5256   1.994   1.525   2.330
 1307SOL     OW 5257   1.809   1.668   2.208
 1307SOL    HW2 5258   1.808   1.761   2.232
 1307SOL    HW3 5259   1.797   1.667   2.113
 1307SOL    MW4 5260   1.808   1.680   2.199
 1308SOL     OW 5261   1.814   1.902   2.356
 1308SOL    HW2 5262   1.799   1.918   2.449
 1308SOL    HW3 5263   1.898   1.943   2.338
 1308SOL    MW4 5264   1.823   1.909   2.366
 1309SOL     OW 5265   2.037   2.042   2.271
 1309SOL    HW2 5266   2.112   1.992   2.303
 1309SOL    HW3 5267   2.053   2.052   2.178
 1309SOL    MW4 5268   2.049   2.037   2.263
 1310SOL     OW 5269   2.007   2.295   2.377
 1310SOL    HW2 5270   2.081   2.352   2.353
 1310SOL    HW3 5271   2.031   2.209   2.343
 1310SOL    MW4 5272   2.020   2.291   2.369
 1311SOL     OW 5273   1.790   2.438   2.255
 1311SOL    HW2 5274   1.857   2.376   2.282
 1311SOL    HW3 5275   1.707   2.394   2.276
 1311SOL    MW4 5276   1.788   2.424   2.261
 1312SOL     OW 5277   1.789   2.705   2.349
 1312SOL    HW2 5278   1.781   2.613   2.322
 1312SOL    HW3 5279   1.711   2.747   2.314
 1312SOL    MW4 5280   1.778   2.698   2.341
 1313SOL     OW 5281   2.030   2.861   2.263
 1313SOL    HW2 5282   2.111   2.827   2.300
 1313SOL    HW3 5283   1.961   2.808   2.302
 1313SOL    MW4 5284   2.032   2.850   2.273
 1314SOL     OW 5285   2.072   3.116   2.352
 1314SOL    HW2 5286   2.144   3.148   2.297
 1314SOL    HW3 5287   2.051   3.030   2.315
 1314SOL    MW4 5288   2.079   3.109   2.339
 1315SOL     OW 5289   1.854   3.173   2.199
 1315SOL    HW2 5290   1.932   3.161   2.254
 1315SOL    HW3 5291   1.786   3.120   2.241
 1315SOL    MW4 5292   1.855   3.164   2.211
 1316SOL     OW 5293   1.798   3.437   2.321
 1316SOL    HW2 5294   1.812   3.349   2.287
 1316SOL    HW3 5295   1.729   3.474   2.265
 1316SOL    MW4 5296   1.791   3.431   2.309
 1317SOL     OW 5297   2.023   3.576   2.240
 1317SOL    HW2 5298   1.945   3.529   2.270
 1317SOL    HW3 5299   2.013   3.581   2.145
 1317SOL    MW4 5300   2.012   3.570   2.231
 1318SOL     OW 5301   2.012   3.844   2.332
 1318SOL    HW2 5302   1.998   3.852   2.426
 1318SOL    HW3 5303   2.028   3.750   2.319
 1318SOL    MW4 5304   2.012   3.833   2.343
 1319SOL     OW 5305   1.807   4.002   2.212
 1319SOL    HW2 5306   1.876   3.938   2.231
 1319SOL    HW3 5307   1.803   4.005   2.117
 1319SOL    MW4 5308   1.816   3.994   2.202
 1320SOL     OW 5309   1.804   4.277   2.300
 1320SOL    HW2 5310   1.807   4.184   2.277
 1320SOL    HW3 5311   1.727   4.311   2.254
 1320SOL    MW4 5312   1.794   4.269   2.291
 1321SOL     OW 5313   2.045   4.366   2.213
 1321SOL    HW2 5314   1.954   4.345   2.235
 1321SOL    HW3 5315   2.048   4.363   2.118
 1321SOL    MW4 5316   2.033   4.363   2.203
 1322SOL     OW 5317   2.499   4.593   2.341
 1322SOL    HW2 5318   2.575   4.620   2.289
 1322SOL    HW3 5319   2.473   4.509   2.303
 1322SOL    MW4 5320   2.505   4.585   2.329
 1323SOL     OW 5321   2.261   0.059   2.271
 1323SOL    HW2 5322   2.266   0.150   2.299
 1323SOL    HW3 5323   2.344   0.020   2.299
 1323SOL    MW4 5324   2.273   0.066   2.278
 1324SOL     OW 5325   2.270   0.335   2.332
 1324SOL    HW2 5326   2.346   0.389   2.312
 1324SOL    HW3 5327   2.195   0.387   2.304
 1324SOL    MW4 5328   2.271   0.349   2.325
 1325SOL     OW 5329   2.492   0.490   2.254
 1325SOL    HW2 5330   2.560   0.428   2.283
 1325SOL    HW3 5331   2.491   0.481   2.159
 1325SOL    MW4 5332   2.501   0.480   2.245
 1326SOL     OW 5333   2.496   0.759   2.358
 1326SOL    HW2 5334   2.559   0.808   2.304
 1326SOL    HW3 5335   2.511   0.667   2.335
 1326SOL    MW4 5336   2.506   0.753   2.348
 1327SOL     OW 5337   2.231   0.835   2.259
 1327SOL    HW2 5338   2.226   0.930   2.273
 1327SOL    HW3 5339   2.316   0.810   2.296
 1327SOL    MW4 5340   2.242   0.844   2.266
 1328SOL     OW 5341   2.222   1.111   2.276
 1328SOL    HW2 5342   2.302   1.162   2.264
 1328SOL    HW3 5343   2.153   1.163   2.233
 1328SOL    MW4 5344   2.223   1.125   2.269
 1329SOL     OW 5345   2.422   1.293   2.230
 1329SOL    HW2 5346   2.510   1.256   2.243
 1329SOL    HW3 5347   2.424   1.375   2.279
 1329SOL    MW4 5348   2.434   1.299   2.238
 1330SOL     OW 5349   2.469   1.520   2.367
 1330SOL    HW2 5350   2.477   1.523   2.462
 1330SOL    HW3 5351   2.546   1.567   2.335
 1330SOL    MW4 5352   2.480   1.527   2.375
 1331SOL     OW 5353   2.231   1.646   2.273
 1331SOL    HW2 5354   2.299   1.595   2.317
 1331SOL    HW3 5355   2.149   1.603   2.298
 1331SOL    MW4 5356   2.229   1.634   2.282
 1332SOL     OW 5357   2.261   1.919   2.375
 1332SOL    HW2 5358   2.343   1.951   2.337
 1332SOL    HW3 5359   2.255   1.828   2.346
 1332SOL    MW4 5360   2.271   1.911   2.366
 1333SOL     OW 5361   2.467   2.068   2.261
 1333SOL    HW2 5362   2.542   2.025   2.302
 1333SOL    HW3 5363   2.472   2.042   2.169
 1333SOL    MW4 5364   2.477   2.059   2.255
 1334SOL     OW 5365   2.438   2.318   2.349
 1334SOL    HW2 5366   2.512   2.370   2.316
 1334SOL    HW3 5367   2.458   2.229   2.322
 1334SOL    MW4 5368   2.450   2.313   2.341
 1335SOL     OW 5369   2.208   2.445   2.260
 1335SOL    HW2 5370   2.215   2.535   2.293
 1335SOL    HW3 5371   2.286   2.401   2.292
 1335SOL    MW4 5372   2.219   2.451   2.269
 1336SOL     OW 5373   2.244   2.711   2.346
 1336SOL    HW2 5374   2.225   2.725   2.439
 1336SOL    HW3 5375   2.322   2.764   2.330
 1336SOL    MW4 5376   2.252   2.720   2.356
 1337SOL     OW 5377   2.477   2.849   2.292
 1337SOL    HW2 5378   2.551   2.796   2.322
 1337SOL    HW3 5379   2.491   2.858   2.198
 1337SOL    MW4 5380   2.489   2.843   2.283
 1338SOL     OW 5381   2.489   3.112   2.359
 1338SOL    HW2 5382   2.572   3.146   2.325
 1338SOL    HW3 5383   2.490   3.019   2.336
 1338SOL    MW4 5384   2.500   3.105   2.352
 1339SOL     OW 5385   2.281   3.218   2.212
 1339SOL    HW2 5386   2.283   3.308   2.245
 1339SOL    HW3 5387   2.352   3.174   2.259
 1339SOL    MW4 5388   2.291   3.224   2.223
 1340SOL     OW 5389   2.258   3.452   2.352
 1340SOL    HW2 5390   2.244   3.462   2.446
 1340SOL    HW3 5391   2.186   3.501   2.312
 1340SOL    MW4 5392   2.247   3.460   2.359
 1341SOL     OW 5393   2.498   3.560   2.229
 1341SOL    HW2 5394   2.508   3.654   2.247
 1341SOL    HW3 5395   2.413   3.537   2.266
 1341SOL    MW4 5396   2.489   3.570   2.236
 1342SOL     OW 5397   2.499   3.826   2.275
 1342SOL    HW2 5398   2.495   3.830   2.370
 1342SOL    HW3 5399   2.410   3.845   2.246
 1342SOL    MW4 5400   2.486   3.829   2.284
 1343SOL     OW 5401   2.250   3.935   2.226
 1343SOL    HW2 5402   2.259   4.026   2.255
 1343SOL    HW3 5403   2.163   3.909   2.256
 1343SOL    MW4 5404   2.239   3.944   2.234
 1344SOL     OW 5405   2.240   4.187   2.317
 1344SOL    HW2 5406   2.246   4.196   2.412
 1344SOL    HW3 5407   2.166   4.244   2.292
 1344SOL    MW4 5408   2.231   4.196   2.326
 1345SOL     OW 5409   2.452   4.353   2.207
 1345SOL    HW2 5410   2.525   4.300   2.240
 1345SOL    HW3 5411   2.375   4.299   2.223
 1345SOL    MW4 5412   2.451   4.339   2.213
 1346SOL     OW 5413   2.913   4.623   2.338
 1346SOL    HW2 5414   2.988   4.674   2.307
 1346SOL    HW3 5415   2.929   4.534   2.306
 1346SOL    MW4 5416   2.925   4.618   2.329
 1347SOL     OW 5417   2.697   0.073   2.212
 1347SOL    HW2 5418   2.687   0.154   2.261
 1347SOL    HW3 5419   2.778   0.034   2.243
 1347SOL    MW4 5420   2.706   0.078   2.222
 1348SOL     OW 5421   2.692   0.320   2.341
 1348SOL    HW2 5422   2.691   0.317   2.437
 1348SOL    HW3 5423   2.777   0.358   2.319
 1348SOL    MW4 5424   2.703   0.325   2.351
 1349SOL     OW 5425   2.902   0.461   2.257
 1349SOL    HW2 5426   2.909   0.556   2.269
 1349SOL    HW3 5427   2.900   0.449   2.162
 1349SOL    MW4 5428   2.903   0.472   2.246
 1350SOL     OW 5429   2.900   0.739   2.301
 1350SOL    HW2 5430   2.879   0.729   2.394
 1350SOL    HW3 5431   2.826   0.788   2.265
 1350SOL    MW4 5432   2.887   0.744   2.308
 1351SOL     OW 5433   2.675   0.872   2.207
 1351SOL    HW2 5434   2.677   0.966   2.224
 1351SOL    HW3 5435   2.679   0.864   2.112
 1351SOL    MW4 5436   2.676   0.883   2.197
 1352SOL     OW 5437   2.647   1.135   2.298
 1352SOL    HW2 5438   2.632   1.130   2.392
 1352SOL    HW3 5439   2.731   1.180   2.289
 1352SOL    MW4 5440   2.656   1.140   2.309
 1353SOL     OW 5441   2.867   1.279   2.244
 1353SOL    HW2 5442   2.947   1.242   2.282
 1353SOL    HW3 5443   2.883   1.280   2.150
 1353SOL    MW4 5444   2.880   1.275   2.237
 1354SOL     OW 5445   2.916   1.541   2.345
 1354SOL    HW2 5446   2.924   1.536   2.440
 1354SOL    HW3 5447   2.885   1.454   2.319
 1354SOL    MW4 5448   2.913   1.528   2.354
 1355SOL     OW 5449   2.670   1.669   2.233
 1355SOL    HW2 5450   2.756   1.631   2.255
 1355SOL    HW3 5451   2.671   1.676   2.137
 1355SOL    MW4 5452   2.682   1.665   2.223
 1356SOL     OW 5453   2.669   1.914   2.370
 1356SOL    HW2 5454   2.665   1.902   2.465
 1356SOL    HW3 5455   2.665   1.825   2.335
 1356SOL    MW4 5456   2.668   1.900   2.378
 1357SOL     OW 5457   2.889   2.048   2.256
 1357SOL    HW2 5458   2.958   1.997   2.297
 1357SOL    HW3 5459   2.808   2.017   2.297
 1357SOL    MW4 5460   2.887   2.037   2.267
 1358SOL     OW 5461   2.892   2.310   2.349
 1358SOL    HW2 5462   2.913   2.307   2.443
 1358SOL    HW3 5463   2.903   2.220   2.319
 1358SOL    MW4 5464   2.896   2.298   2.358
 1359SOL     OW 5465   2.663   2.438   2.239
 1359SOL    HW2 5466   2.741   2.390   2.267
 1359SOL    HW3 5467   2.673   2.448   2.145
 1359SOL    MW4 5468   2.674   2.433   2.230
 1360SOL     OW 5469   2.709   2.704   2.370
 1360SOL    HW2 5470   2.760   2.756   2.309
 1360SOL    HW3 5471   2.719   2.614   2.338
 1360SOL    MW4 5472   2.717   2.699   2.358
 1361SOL     OW 5473   2.880   2.837   2.223
 1361SOL    HW2 5474   2.882   2.926   2.259
 1361SOL    HW3 5475   2.894   2.849   2.129
 1361SOL    MW4 5476   2.882   2.851   2.215
 1362SOL     OW 5477   2.931   3.082   2.361
 1362SOL    HW2 5478   3.001   3.127   2.313
 1362SOL    HW3 5479   2.850   3.123   2.331
 1362SOL    MW4 5480   2.930   3.093   2.351
 1363SOL     OW 5481   2.713   3.223   2.253
 1363SOL    HW2 5482   2.725   3.314   2.279
 1363SOL    HW3 5483   2.701   3.226   2.158
 1363SOL    MW4 5484   2.713   3.235   2.244
 1364SOL     OW 5485   2.738   3.483   2.332
 1364SOL    HW2 5486   2.801   3.550   2.305
 1364SOL    HW3 5487   2.656   3.508   2.289
 1364SOL    MW4 5488   2.735   3.495   2.323
 1365SOL     OW 5489   2.920   3.675   2.234
 1365SOL    HW2 5490   2.997   3.622   2.255
 1365SOL    HW3 5491   2.944   3.763   2.260
 1365SOL    MW4 5492   2.933   3.679   2.240
 1366SOL     OW 5493   2.979   3.919   2.299
 1366SOL    HW2 5494   2.976   3.921   2.394
 1366SOL    HW3 5495   2.889   3.938   2.271
 1366SOL    MW4 5496   2.967   3.922   2.308
 1367SOL     OW 5497   2.720   3.988   2.225
 1367SOL    HW2 5498   2.663   3.912   2.237
 1367SOL    HW3 5499   2.719   4.005   2.131
 1367SOL    MW4 5500   2.713   3.980   2.214
 1368SOL     OW 5501   2.670   4.239   2.333
 1368SOL    HW2 5502   2.650   4.235   2.427
 1368SOL    HW3 5503   2.675   4.147   2.306
 1368SOL    MW4 5504   2.668   4.226   2.342
 1369SOL     OW 5505   2.916   4.366   2.257
 1369SOL    HW2 5506   2.993   4.321   2.293
 1369SOL    HW3 5507   2.842   4.312   2.284
 1369SOL    MW4 5508   2.917   4.353   2.265
 1370SOL     OW 5509   3.363   0.034   2.332
 1370SOL    HW2 5510   3.354   0.034   2.428
 1370SOL    HW3 5511   3.453   0.063   2.317
 1370SOL    MW4 5512   3.374   0.038   2.343
 1371SOL     OW 5513   3.128   0.124   2.223
 1371SOL    HW2 5514   3.125   0.203   2.277
 1371SOL    HW3 5515   3.210   0.082   2.248
 1371SOL    MW4 5516   3.139   0.129   2.233
 1372SOL     OW 5517   3.151   0.369   2.359
 1372SOL    HW2 5518   3.224   0.418   2.321
 1372SOL    HW3 5519   3.073   0.410   2.322
 1372SOL    MW4 5520   3.150   0.381   2.349
 1373SOL     OW 5521   3.370   0.508   2.273
 1373SOL    HW2 5522   3.452   0.465   2.298
 1373SOL    HW3 5523   3.369   0.503   2.177
 1373SOL    MW4 5524   3.381   0.502   2.263
 1374SOL     OW 5525   3.368   0.786   2.346
 1374SOL    HW2 5526   3.454   0.812   2.313
 1374SOL    HW3 5527   3.365   0.691   2.334
 1374SOL    MW4 5528   3.379   0.777   2.340
 1375SOL     OW 5529   3.127   0.914   2.255
 1375SOL    HW2 5530   3.207   0.874   2.289
 1375SOL    HW3 5531   3.058   0.850   2.273
 1375SOL    MW4 5532   3.129   0.900   2.262
 1376SOL     OW 5533   3.112   1.157   2.371
 1376SOL    HW2 5534   3.189   1.202   2.336
 1376SOL    HW3 5535   3.118   1.069   2.334
 1376SOL    MW4 5536   3.123   1.152   2.361
 1377SOL     OW 5537   3.328   1.274   2.212
 1377SOL    HW2 5538   3.403   1.217   2.228
 1377SOL    HW3 5539   3.349   1.355   2.256
 1377SOL    MW4 5540   3.340   1.277   2.220
 1378SOL     OW 5541   3.360   1.511   2.332
 1378SOL    HW2 5542   3.364   1.516   2.428
 1378SOL    HW3 5543   3.276   1.553   2.310
 1378SOL    MW4 5544   3.349   1.517   2.342
 1379SOL     OW 5545   3.144   1.649   2.216
 1379SOL    HW2 5546   3.134   1.743   2.230
 1379SOL    HW3 5547   3.066   1.610   2.255
 1379SOL    MW4 5548   3.132   1.656   2.223
 1380SOL     OW 5549   3.124   1.904   2.315
 1380SOL    HW2 5550   3.143   1.887   2.408
 1380SOL    HW3 5551   3.200   1.953   2.284
 1380SOL    MW4 5552   3.136   1.908   2.323
 1381SOL     OW 5553   3.351   2.052   2.216
 1381SOL    HW2 5554   3.432   2.021   2.257
 1381SOL    HW3 5555   3.357   2.020   2.126
 1381SOL    MW4 5556   3.363   2.044   2.209
 1382SOL     OW 5557   3.317   2.311   2.290
 1382SOL    HW2 5558   3.239   2.357   2.258
 1382SOL    HW3 5559   3.310   2.224   2.251
 1382SOL    MW4 5560   3.306   2.305   2.281
 1383SOL     OW 5561   3.078   2.456   2.193
 1383SOL    HW2 5562   3.077   2.545   2.228
 1383SOL    HW3 5563   3.024   2.406   2.255
 1383SOL    MW4 5564   3.071   2.461   2.206
 1384SOL     OW 5565   3.100   2.706   2.310
 1384SOL    HW2 5566   3.101   2.715   2.405
 1384SOL    HW3 5567   3.020   2.751   2.282
 1384SOL    MW4 5568   3.090   2.713   2.319
 1385SOL     OW 5569   3.357   2.817   2.233
 1385SOL    HW2 5570   3.362   2.904   2.273
 1385SOL    HW3 5571   3.273   2.781   2.264
 1385SOL    MW4 5572   3.346   2.823   2.243
 1386SOL     OW 5573   3.385   3.071   2.355
 1386SOL    HW2 5574   3.453   3.111   2.301
 1386SOL    HW3 5575   3.313   3.135   2.354
 1386SOL    MW4 5576   3.384   3.085   2.348
 1387SOL     OW 5577   3.168   3.217   2.267
 1387SOL    HW2 5578   3.146   3.305   2.295
 1387SOL    HW3 5579   3.171   3.223   2.171
 1387SOL    MW4 5580   3.165   3.229   2.258
 1388SOL     OW 5581   3.117   3.484   2.315
 1388SOL    HW2 5582   3.116   3.490   2.410
 1388SOL    HW3 5583   3.197   3.527   2.288
 1388SOL    MW4 5584   3.127   3.490   2.324
 1389SOL     OW 5585   3.353   3.602   2.250
 1389SOL    HW2 5586   3.439   3.564   2.270
 1389SOL    HW3 5587   3.359   3.625   2.157
 1389SOL    MW4 5588   3.366   3.600   2.240
 1390SOL     OW 5589   3.400   3.863   2.383
 1390SOL    HW2 5590   3.472   3.915   2.345
 1390SOL    HW3 5591   3.397   3.784   2.329
 1390SOL    MW4 5592   3.409   3.860   2.371
 1391SOL     OW 5593   3.212   4.042   2.247
 1391SOL    HW2 5594   3.276   3.984   2.288
 1391SOL    HW3 5595   3.127   4.005   2.270
 1391SOL    MW4 5596   3.210   4.030   2.255
 1392SOL     OW 5597   3.179   4.297   2.338
 1392SOL    HW2 5598   3.242   4.348   2.288
 1392SOL    HW3 5599   3.189   4.207   2.306
 1392SOL    MW4 5600   3.189   4.292   2.327
 1393SOL     OW 5601   3.375   4.451   2.220
 1393SOL    HW2 5602   3.379   4.542   2.247
 1393SOL    HW3 5603   3.379   4.455   2.124
 1393SOL    MW4 5604   3.376   4.463   2.211
 1394SOL     OW 5605   3.810   4.653   2.351
 1394SOL    HW2 5606   3.826   4.651   2.445
 1394SOL    HW3 5607   3.897   4.658   2.312
 1394SOL    MW4 5608   3.824   4.653   2.358
 1395SOL     OW 5609   3.599   0.120   2.240
 1395SOL    HW2 5610   3.607   0.211   2.270
 1395SOL    HW3 5611   3.679   0.078   2.271
 1395SOL    MW4 5612   3.611   0.127   2.248
 1396SOL     OW 5613   3.617   0.392   2.328
 1396SOL    HW2 5614   3.629   0.382   2.423
 1396SOL    HW3 5615   3.694   0.441   2.299
 1396SOL    MW4 5616   3.628   0.397   2.337
 1397SOL     OW 5617   3.857   0.516   2.260
 1397SOL    HW2 5618   3.847   0.604   2.297
 1397SOL    HW3 5619   3.838   0.527   2.167
 1397SOL    MW4 5620   3.853   0.529   2.253
 1398SOL     OW 5621   3.843   0.785   2.333
 1398SOL    HW2 5622   3.834   0.800   2.427
 1398SOL    HW3 5623   3.926   0.827   2.310
 1398SOL    MW4 5624   3.853   0.792   2.342
 1399SOL     OW 5625   3.607   0.882   2.213
 1399SOL    HW2 5626   3.689   0.846   2.245
 1399SOL    HW3 5627   3.606   0.862   2.119
 1399SOL    MW4 5628   3.617   0.875   2.204
 1400SOL     OW 5629   3.558   1.149   2.283
 1400SOL    HW2 5630   3.558   1.159   2.378
 1400SOL    HW3 5631   3.567   1.054   2.269
 1400SOL    MW4 5632   3.559   1.138   2.293
 1401SOL     OW 5633   3.798   1.273   2.241
 1401SOL    HW2 5634   3.793   1.365   2.266
 1401SOL    HW3 5635   3.707   1.242   2.245
 1401SOL    MW4 5636   3.785   1.281   2.245
 1402SOL     OW 5637   3.821   1.557   2.310
 1402SOL    HW2 5638   3.811   1.540   2.404
 1402SOL    HW3 5639   3.737   1.594   2.283
 1402SOL    MW4 5640   3.809   1.560   2.319
 1403SOL     OW 5641   3.571   1.662   2.199
 1403SOL    HW2 5642   3.504   1.608   2.239
 1403SOL    HW3 5643   3.568   1.640   2.105
 1403SOL    MW4 5644   3.562   1.652   2.192
 1404SOL     OW 5645   3.579   1.938   2.315
 1404SOL    HW2 5646   3.659   1.988   2.301
 1404SOL    HW3 5647   3.589   1.859   2.262
 1404SOL    MW4 5648   3.591   1.934   2.306
 1405SOL     OW 5649   3.824   2.085   2.274
 1405SOL    HW2 5650   3.887   2.020   2.307
 1405SOL    HW3 5651   3.829   2.075   2.178
 1405SOL    MW4 5652   3.833   2.075   2.266
 1406SOL     OW 5653   3.771   2.339   2.372
 1406SOL    HW2 5654   3.705   2.380   2.316
 1406SOL    HW3 5655   3.774   2.248   2.343
 1406SOL    MW4 5656   3.763   2.332   2.361
 1407SOL     OW 5657   3.560   2.441   2.232
 1407SOL    HW2 5658   3.479   2.398   2.260
 1407SOL    HW3 5659   3.561   2.430   2.137
 1407SOL    MW4 5660   3.550   2.434   2.223
 1408SOL     OW 5661   3.572   2.674   2.365
 1408SOL    HW2 5662   3.568   2.605   2.299
 1408SOL    HW3 5663   3.499   2.732   2.343
 1408SOL    MW4 5664   3.562   2.673   2.353
 1409SOL     OW 5665   3.798   2.790   2.254
 1409SOL    HW2 5666   3.801   2.884   2.272
 1409SOL    HW3 5667   3.714   2.762   2.290
 1409SOL    MW4 5668   3.787   2.798   2.261
 1410SOL     OW 5669   3.834   3.060   2.311
 1410SOL    HW2 5670   3.819   3.076   2.405
 1410SOL    HW3 5671   3.897   3.127   2.285
 1410SOL    MW4 5672   3.840   3.071   2.320
 1411SOL     OW 5673   3.608   3.195   2.231
 1411SOL    HW2 5674   3.609   3.288   2.251
 1411SOL    HW3 5675   3.694   3.163   2.256
 1411SOL    MW4 5676   3.619   3.203   2.237
 1412SOL     OW 5677   3.593   3.460   2.282
 1412SOL    HW2 5678   3.589   3.457   2.377
 1412SOL    HW3 5679   3.678   3.500   2.263
 1412SOL    MW4 5680   3.604   3.465   2.292
 1413SOL     OW 5681   3.848   3.589   2.235
 1413SOL    HW2 5682   3.846   3.678   2.270
 1413SOL    HW3 5683   3.853   3.601   2.140
 1413SOL    MW4 5684   3.848   3.602   2.227
 1414SOL     OW 5685   3.823   3.851   2.324
 1414SOL    HW2 5686   3.850   3.852   2.416
 1414SOL    HW3 5687   3.894   3.898   2.278
 1414SOL    MW4 5688   3.836   3.857   2.330
 1415SOL     OW 5689   3.594   3.991   2.214
 1415SOL    HW2 5690   3.584   4.085   2.226
 1415SOL    HW3 5691   3.668   3.967   2.270
 1415SOL    MW4 5692   3.602   4.000   2.223
 1416SOL     OW 5693   3.556   4.264   2.334
 1416SOL    HW2 5694   3.639   4.308   2.318
 1416SOL    HW3 5695   3.489   4.325   2.301
 1416SOL    MW4 5696   3.558   4.278   2.328
 1417SOL     OW 5697   3.786   4.388   2.253
 1417SOL    HW2 5698   3.871   4.356   2.282
 1417SOL    HW3 5699   3.775   4.472   2.297
 1417SOL    MW4 5700   3.796   4.395   2.262
 1418SOL     OW 5701   4.286   4.633   2.346
 1418SOL    HW2 5702   4.267   4.650   2.438
 1418SOL    HW3 5703   4.344   4.704   2.319
 1418SOL    MW4 5704   4.291   4.644   2.354
 1419SOL     OW 5705   4.062   0.082   2.261
 1419SOL    HW2 5706   4.061   0.159   2.318
 1419SOL    HW3 5707   4.139   0.033   2.288
 1419SOL    MW4 5708   4.072   0.086   2.272
 1420SOL     OW 5709   4.074   0.349   2.357
 1420SOL    HW2 5710   4.148   0.391   2.312
 1420SOL    HW3 5711   3.997   0.379   2.309
 1420SOL    MW4 5712   4.074   0.358   2.345
 1421SOL     OW 5713   4.280   0.486   2.224
 1421SOL    HW2 5714   4.268   0.567   2.275
 1421SOL    HW3 5715   4.363   0.451   2.254
 1421SOL    MW4 5716   4.289   0.492   2.235
 1422SOL     OW 5717   4.272   0.725   2.336
 1422SOL    HW2 5718   4.203   0.789   2.318
 1422SOL    HW3 5719   4.353   0.771   2.315
 1422SOL    MW4 5720   4.274   0.740   2.331
 1423SOL     OW 5721   4.081   0.917   2.278
 1423SOL    HW2 5722   4.076   1.009   2.307
 1423SOL    HW3 5723   4.059   0.921   2.185
 1423SOL    MW4 5724   4.077   0.930   2.269
 1424SOL     OW 5725   4.064   1.189   2.338
 1424SOL    HW2 5726   4.049   1.191   2.432
 1424SOL    HW3 5727   3.984   1.225   2.300
 1424SOL    MW4 5728   4.051   1.194   2.345
 1425SOL     OW 5729   4.293   1.273   2.191
 1425SOL    HW2 5730   4.210   1.258   2.235
 1425SOL    HW3 5731   4.359   1.236   2.250
 1425SOL    MW4 5732   4.291   1.266   2.204
 1426SOL     OW 5733   4.269   1.510   2.342
 1426SOL    HW2 5734   4.296   1.430   2.297
 1426SOL    HW3 5735   4.334   1.575   2.318
 1426SOL    MW4 5736   4.281   1.508   2.333
 1427SOL     OW 5737   4.075   1.642   2.205
 1427SOL    HW2 5738   4.144   1.593   2.249
 1427SOL    HW3 5739   3.994   1.604   2.237
 1427SOL    MW4 5740   4.074   1.631   2.215
 1428SOL     OW 5741   4.006   1.898   2.357
 1428SOL    HW2 5742   4.019   1.888   2.452
 1428SOL    HW3 5743   4.018   1.809   2.322
 1428SOL    MW4 5744   4.009   1.885   2.365
 1429SOL     OW 5745   4.217   2.061   2.253
 1429SOL    HW2 5746   4.200   2.155   2.247
 1429SOL    HW3 5747   4.136   2.024   2.288
 1429SOL    MW4 5748   4.204   2.068   2.257
 1430SOL     OW 5749   4.240   2.324   2.363
 1430SOL    HW2 5750   4.158   2.347   2.320
 1430SOL    HW3 5751   4.308   2.358   2.306
 1430SOL    MW4 5752   4.238   2.331   2.350
 1431SOL     OW 5753   4.004   2.402   2.242
 1431SOL    HW2 5754   4.004   2.489   2.283
 1431SOL    HW3 5755   3.915   2.369   2.256
 1431SOL    MW4 5756   3.992   2.409   2.249
 1432SOL     OW 5757   4.023   2.674   2.359
 1432SOL    HW2 5758   4.026   2.689   2.453
 1432SOL    HW3 5759   3.936   2.704   2.332
 1432SOL    MW4 5760   4.012   2.680   2.368
 1433SOL     OW 5761   4.226   2.796   2.207
 1433SOL    HW2 5762   4.146   2.765   2.251
 1433SOL    HW3 5763   4.297   2.755   2.256
 1433SOL    MW4 5764   4.225   2.786   2.219
 1434SOL     OW 5765   4.220   3.078   2.325
 1434SOL    HW2 5766   4.205   2.986   2.304
 1434SOL    HW3 5767   4.307   3.097   2.290
 1434SOL    MW4 5768   4.230   3.068   2.318
 1435SOL     OW 5769   4.023   3.242   2.222
 1435SOL    HW2 5770   4.034   3.319   2.278
 1435SOL    HW3 5771   4.091   3.181   2.251
 1435SOL    MW4 5772   4.033   3.244   2.233
 1436SOL     OW 5773   4.057   3.481   2.358
 1436SOL    HW2 5774   4.144   3.507   2.328
 1436SOL    HW3 5775   3.997   3.523   2.297
 1436SOL    MW4 5776   4.061   3.490   2.346
 1437SOL     OW 5777   4.278   3.610   2.228
 1437SOL    HW2 5778   4.274   3.699   2.264
 1437SOL    HW3 5779   4.263   3.621   2.134
 1437SOL    MW4 5780   4.275   3.623   2.221
 1438SOL     OW 5781   4.295   3.875   2.335
 1438SOL    HW2 5782   4.301   3.874   2.431
 1438SOL    HW3 5783   4.381   3.906   2.307
 1438SOL    MW4 5784   4.307   3.879   2.344
 1439SOL     OW 5785   4.055   4.011   2.246
 1439SOL    HW2 5786   4.136   3.972   2.279
 1439SOL    HW3 5787   4.068   4.016   2.151
 1439SOL    MW4 5788   4.068   4.007   2.238
 1440SOL     OW 5789   4.025   4.263   2.340
 1440SOL    HW2 5790   4.100   4.306   2.300
 1440SOL    HW3 5791   4.031   4.172   2.309
 1440SOL    MW4 5792   4.035   4.256   2.331
 1441SOL     OW 5793   4.270   4.389   2.219
 1441SOL    HW2 5794   4.264   4.477   2.256
 1441SOL    HW3 5795   4.345   4.349   2.263
 1441SOL    MW4 5796   4.279   4.396   2.230
 1442SOL     OW 5797   0.227   4.654   2.627
 1442SOL    HW2 5798   0.228   4.564   2.660
 1442SOL    HW3 5799   0.159   4.698   2.678
 1442SOL    MW4 5800   0.218   4.648   2.638
 1443SOL     OW 5801   0.009   0.116   2.751
 1443SOL    HW2 5802  -0.012   0.107   2.844
 1443SOL    HW3 5803  -0.001   0.209   2.733
 1443SOL    MW4 5804   0.005   0.127   2.761
 1444SOL     OW 5805   4.489   0.401   2.633
 1444SOL    HW2 5806   4.577   0.428   2.660
 1444SOL    HW3 5807   4.498   0.381   2.540
 1444SOL    MW4 5808   4.502   0.402   2.624
 1445SOL     OW 5809   0.265   0.455   2.670
 1445SOL    HW2 5810   0.260   0.475   2.764
 1445SOL    HW3 5811   0.351   0.414   2.659
 1445SOL    MW4 5812   0.276   0.452   2.681
 1446SOL     OW 5813   0.230   0.724   2.596
 1446SOL    HW2 5814   0.305   0.765   2.638
 1446SOL    HW3 5815   0.243   0.630   2.609
 1446SOL    MW4 5816   0.241   0.717   2.603
 1447SOL     OW 5817   0.028   0.894   2.670
 1447SOL    HW2 5818  -0.054   0.851   2.645
 1447SOL    HW3 5819   0.097   0.835   2.639
 1447SOL    MW4 5820   0.026   0.881   2.663
 1448SOL     OW 5821   4.443   1.147   2.595
 1448SOL    HW2 5822   4.515   1.194   2.638
 1448SOL    HW3 5823   4.461   1.055   2.613
 1448SOL    MW4 5824   4.455   1.141   2.603
 1449SOL     OW 5825   0.188   1.272   2.683
 1449SOL    HW2 5826   0.273   1.233   2.663
 1449SOL    HW3 5827   0.195   1.362   2.650
 1449SOL    MW4 5828   0.200   1.278   2.676
 1450SOL     OW 5829   0.207   1.515   2.565
 1450SOL    HW2 5830   0.287   1.565   2.584
 1450SOL    HW3 5831   0.137   1.569   2.601
 1450SOL    MW4 5832   0.209   1.529   2.572
 1451SOL     OW 5833   4.487   1.666   2.675
 1451SOL    HW2 5834   4.498   1.664   2.770
 1451SOL    HW3 5835   4.488   1.760   2.654
 1451SOL    MW4 5836   4.489   1.678   2.685
 1452SOL     OW 5837   0.013   1.929   2.613
 1452SOL    HW2 5838   0.098   1.968   2.632
 1452SOL    HW3 5839   0.000   1.943   2.520
 1452SOL    MW4 5840   0.022   1.936   2.603
 1453SOL     OW 5841   0.245   2.050   2.676
 1453SOL    HW2 5842   0.335   2.020   2.664
 1453SOL    HW3 5843   0.237   2.126   2.618
 1453SOL    MW4 5844   0.256   2.056   2.667
 1454SOL     OW 5845   0.184   2.305   2.579
 1454SOL    HW2 5846   0.270   2.344   2.597
 1454SOL    HW3 5847   0.123   2.357   2.631
 1454SOL    MW4 5848   0.188   2.317   2.588
 1455SOL     OW 5849   4.489   2.438   2.734
 1455SOL    HW2 5850   4.501   2.414   2.825
 1455SOL    HW3 5851   4.409   2.393   2.707
 1455SOL    MW4 5852   4.480   2.429   2.742
 1456SOL     OW 5853   4.477   2.685   2.610
 1456SOL    HW2 5854   4.410   2.727   2.664
 1456SOL    HW3 5855   4.491   2.600   2.652
 1456SOL    MW4 5856   4.470   2.679   2.623
 1457SOL     OW 5857   0.177   2.843   2.708
 1457SOL    HW2 5858   0.187   2.930   2.668
 1457SOL    HW3 5859   0.119   2.796   2.648
 1457SOL    MW4 5860   0.171   2.849   2.695
 1458SOL     OW 5861   0.238   3.090   2.598
 1458SOL    HW2 5862   0.311   3.130   2.644
 1458SOL    HW3 5863   0.255   3.107   2.505
 1458SOL    MW4 5864   0.250   3.097   2.592
 1459SOL     OW 5865   0.008   3.209   2.723
 1459SOL    HW2 5866  -0.072   3.168   2.689
 1459SOL    HW3 5867   0.079   3.164   2.676
 1459SOL    MW4 5868   0.007   3.198   2.712
 1460SOL     OW 5869   4.463   3.471   2.632
 1460SOL    HW2 5870   4.546   3.518   2.637
 1460SOL    HW3 5871   4.478   3.391   2.683
 1460SOL    MW4 5872   4.476   3.466   2.640
 1461SOL     OW 5873   0.216   3.616   2.701
 1461SOL    HW2 5874   0.211   3.628   2.795
 1461SOL    HW3 5875   0.279   3.545   2.689
 1461SOL    MW4 5876   0.223   3.608   2.712
 1462SOL     OW 5877   0.206   3.862   2.572
 1462SOL    HW2 5878   0.195   3.771   2.600
 1462SOL    HW3 5879   0.232   3.855   2.480
 1462SOL    MW4 5880   0.208   3.849   2.564
 1463SOL     OW 5881   0.024   4.002   2.722
 1463SOL    HW2 5882   0.027   4.087   2.677
 1463SOL    HW3 5883   0.090   3.949   2.677
 1463SOL    MW4 5884   0.033   4.006   2.710
 1464SOL     OW 5885   0.011   4.256   2.584
 1464SOL    HW2 5886  -0.061   4.307   2.620
 1464SOL    HW3 5887   0.088   4.285   2.633
 1464SOL    MW4 5888   0.012   4.266   2.595
 1465SOL     OW 5889   0.223   4.383   2.700
 1465SOL    HW2 5890   0.219   4.381   2.796
 1465SOL    HW3 5891   0.299   4.330   2.678
 1465SOL    MW4 5892   0.233   4.376   2.710
 1466SOL     OW 5893   0.661   4.593   2.589
 1466SOL    HW2 5894   0.737   4.641   2.624
 1466SOL    HW3 5895   0.585   4.640   2.624
 1466SOL    MW4 5896   0.661   4.605   2.598
 1467SOL     OW 5897   0.476   0.079   2.727
 1467SOL    HW2 5898   0.490   0.068   2.821
 1467SOL    HW3 5899   0.385   0.055   2.713
 1467SOL    MW4 5900   0.466   0.074   2.738
 1468SOL     OW 5901   0.502   0.346   2.610
 1468SOL    HW2 5902   0.579   0.396   2.638
 1468SOL    HW3 5903   0.512   0.261   2.653
 1468SOL    MW4 5904   0.513   0.341   2.619
 1469SOL     OW 5905   0.714   0.479   2.714
 1469SOL    HW2 5906   0.685   0.473   2.804
 1469SOL    HW3 5907   0.783   0.413   2.706
 1469SOL    MW4 5908   0.720   0.469   2.725
 1470SOL     OW 5909   0.688   0.747   2.608
 1470SOL    HW2 5910   0.765   0.797   2.637
 1470SOL    HW3 5911   0.705   0.658   2.637
 1470SOL    MW4 5912   0.700   0.742   2.616
 1471SOL     OW 5913   0.460   0.854   2.696
 1471SOL    HW2 5914   0.465   0.941   2.657
 1471SOL    HW3 5915   0.540   0.811   2.667
 1471SOL    MW4 5916   0.471   0.860   2.687
 1472SOL     OW 5917   0.431   1.146   2.611
 1472SOL    HW2 5918   0.507   1.192   2.646
 1472SOL    HW3 5919   0.436   1.158   2.517
 1472SOL    MW4 5920   0.441   1.153   2.604
 1473SOL     OW 5921   0.639   1.290   2.718
 1473SOL    HW2 5922   0.639   1.283   2.814
 1473SOL    HW3 5923   0.718   1.242   2.692
 1473SOL    MW4 5924   0.649   1.283   2.727
 1474SOL     OW 5925   0.657   1.537   2.578
 1474SOL    HW2 5926   0.577   1.581   2.607
 1474SOL    HW3 5927   0.660   1.457   2.629
 1474SOL    MW4 5928   0.647   1.533   2.589
 1475SOL     OW 5929   0.427   1.649   2.662
 1475SOL    HW2 5930   0.411   1.651   2.757
 1475SOL    HW3 5931   0.432   1.741   2.637
 1475SOL    MW4 5932   0.426   1.661   2.671
 1476SOL     OW 5933   0.481   1.934   2.599
 1476SOL    HW2 5934   0.557   1.983   2.630
 1476SOL    HW3 5935   0.483   1.944   2.504
 1476SOL    MW4 5936   0.491   1.942   2.590
 1477SOL     OW 5937   0.688   2.082   2.687
 1477SOL    HW2 5938   0.686   2.058   2.780
 1477SOL    HW3 5939   0.764   2.035   2.652
 1477SOL    MW4 5940   0.698   2.073   2.695
 1478SOL     OW 5941   0.626   2.324   2.586
 1478SOL    HW2 5942   0.692   2.392   2.599
 1478SOL    HW3 5943   0.661   2.248   2.632
 1478SOL    MW4 5944   0.639   2.323   2.593
 1479SOL     OW 5945   0.407   2.423   2.693
 1479SOL    HW2 5946   0.408   2.516   2.668
 1479SOL    HW3 5947   0.487   2.387   2.655
 1479SOL    MW4 5948   0.418   2.431   2.685
 1480SOL     OW 5949   0.393   2.696   2.613
 1480SOL    HW2 5950   0.479   2.730   2.639
 1480SOL    HW3 5951   0.332   2.739   2.672
 1480SOL    MW4 5952   0.397   2.706   2.624
 1481SOL     OW 5953   0.644   2.794   2.696
 1481SOL    HW2 5954   0.641   2.788   2.791
 1481SOL    HW3 5955   0.655   2.887   2.678
 1481SOL    MW4 5956   0.645   2.806   2.706
 1482SOL     OW 5957   0.692   3.065   2.646
 1482SOL    HW2 5958   0.774   3.104   2.677
 1482SOL    HW3 5959   0.686   3.092   2.554
 1482SOL    MW4 5960   0.702   3.074   2.638
 1483SOL     OW 5961   0.451   3.201   2.716
 1483SOL    HW2 5962   0.455   3.201   2.811
 1483SOL    HW3 5963   0.519   3.140   2.688
 1483SOL    MW4 5964   0.460   3.193   2.725
 1484SOL     OW 5965   0.431   3.460   2.639
 1484SOL    HW2 5966   0.462   3.373   2.660
 1484SOL    HW3 5967   0.442   3.467   2.544
 1484SOL    MW4 5968   0.436   3.450   2.629
 1485SOL     OW 5969   0.663   3.596   2.689
 1485SOL    HW2 5970   0.667   3.611   2.783
 1485SOL    HW3 5971   0.583   3.545   2.675
 1485SOL    MW4 5972   0.653   3.591   2.699
 1486SOL     OW 5973   0.652   3.869   2.627
 1486SOL    HW2 5974   0.575   3.919   2.652
 1486SOL    HW3 5975   0.637   3.781   2.662
 1486SOL    MW4 5976   0.640   3.864   2.635
 1487SOL     OW 5977   0.394   3.983   2.746
 1487SOL    HW2 5978   0.413   4.064   2.698
 1487SOL    HW3 5979   0.326   3.940   2.695
 1487SOL    MW4 5980   0.388   3.988   2.733
 1488SOL     OW 5981   0.439   4.217   2.611
 1488SOL    HW2 5982   0.523   4.256   2.634
 1488SOL    HW3 5983   0.428   4.237   2.518
 1488SOL    MW4 5984   0.448   4.225   2.602
 1489SOL     OW 5985   0.651   4.348   2.722
 1489SOL    HW2 5986   0.731   4.324   2.676
 1489SOL    HW3 5987   0.624   4.431   2.683
 1489SOL    MW4 5988   0.658   4.356   2.711
 1490SOL     OW 5989   1.161   4.622   2.629
 1490SOL    HW2 5990   1.245   4.662   2.651
 1490SOL    HW3 5991   1.173   4.529   2.647
 1490SOL    MW4 5992   1.174   4.615   2.634
 1491SOL     OW 5993   0.901   0.029   2.682
 1491SOL    HW2 5994   0.886   0.034   2.776
 1491SOL    HW3 5995   0.993   0.004   2.674
 1491SOL    MW4 5996   0.911   0.027   2.693
 1492SOL     OW 5997   0.924   0.325   2.633
 1492SOL    HW2 5998   0.907   0.233   2.653
 1492SOL    HW3 5999   0.928   0.328   2.537
 1492SOL    MW4 6000   0.922   0.313   2.623
 1493SOL     OW 6001   1.138   0.502   2.733
 1493SOL    HW2 6002   1.124   0.589   2.696
 1493SOL    HW3 6003   1.071   0.447   2.693
 1493SOL    MW4 6004   1.127   0.506   2.723
 1494SOL     OW 6005   1.126   0.748   2.605
 1494SOL    HW2 6006   1.206   0.790   2.637
 1494SOL    HW3 6007   1.133   0.753   2.510
 1494SOL    MW4 6008   1.138   0.754   2.597
 1495SOL     OW 6009   0.902   0.901   2.708
 1495SOL    HW2 6010   0.935   0.909   2.798
 1495SOL    HW3 6011   0.969   0.851   2.662
 1495SOL    MW4 6012   0.915   0.896   2.714
 1496SOL     OW 6013   0.863   1.165   2.614
 1496SOL    HW2 6014   0.863   1.072   2.636
 1496SOL    HW3 6015   0.855   1.166   2.518
 1496SOL    MW4 6016   0.862   1.152   2.604
 1497SOL     OW 6017   1.110   1.265   2.696
 1497SOL    HW2 6018   1.089   1.358   2.683
 1497SOL    HW3 6019   1.026   1.220   2.689
 1497SOL    MW4 6020   1.096   1.271   2.693
 1498SOL     OW 6021   1.091   1.528   2.604
 1498SOL    HW2 6022   1.014   1.581   2.624
 1498SOL    HW3 6023   1.085   1.514   2.509
 1498SOL    MW4 6024   1.080   1.533   2.594
 1499SOL     OW 6025   0.881   1.684   2.710
 1499SOL    HW2 6026   0.880   1.698   2.804
 1499SOL    HW3 6027   0.798   1.641   2.691
 1499SOL    MW4 6028   0.870   1.680   2.720
 1500SOL     OW 6029   0.924   1.921   2.586
 1500SOL    HW2 6030   0.993   1.963   2.637
 1500SOL    HW3 6031   0.904   1.841   2.635
 1500SOL    MW4 6032   0.931   1.916   2.599
 1501SOL     OW 6033   1.123   2.053   2.724
 1501SOL    HW2 6034   1.204   2.024   2.681
 1501SOL    HW3 6035   1.112   2.143   2.696
 1501SOL    MW4 6036   1.132   2.061   2.714
 1502SOL     OW 6037   1.073   2.291   2.626
 1502SOL    HW2 6038   1.150   2.339   2.655
 1502SOL    HW3 6039   1.079   2.292   2.530
 1502SOL    MW4 6040   1.084   2.297   2.617
 1503SOL     OW 6041   0.856   2.469   2.686
 1503SOL    HW2 6042   0.873   2.552   2.642
 1503SOL    HW3 6043   0.917   2.408   2.645
 1503SOL    MW4 6044   0.866   2.472   2.674
 1504SOL     OW 6045   0.879   2.709   2.574
 1504SOL    HW2 6046   0.951   2.748   2.623
 1504SOL    HW3 6047   0.800   2.747   2.612
 1504SOL    MW4 6048   0.878   2.719   2.586
 1505SOL     OW 6049   1.083   2.832   2.717
 1505SOL    HW2 6050   1.106   2.825   2.809
 1505SOL    HW3 6051   1.159   2.795   2.671
 1505SOL    MW4 6052   1.096   2.826   2.723
 1506SOL     OW 6053   1.148   3.096   2.620
 1506SOL    HW2 6054   1.122   3.007   2.644
 1506SOL    HW3 6055   1.136   3.101   2.526
 1506SOL    MW4 6056   1.143   3.085   2.611
 1507SOL     OW 6057   0.919   3.208   2.736
 1507SOL    HW2 6058   0.903   3.286   2.683
 1507SOL    HW3 6059   1.006   3.179   2.708
 1507SOL    MW4 6060   0.928   3.215   2.725
 1508SOL     OW 6061   0.887   3.462   2.606
 1508SOL    HW2 6062   0.961   3.508   2.647
 1508SOL    HW3 6063   0.810   3.512   2.635
 1508SOL    MW4 6064   0.887   3.475   2.615
 1509SOL     OW 6065   1.102   3.599   2.719
 1509SOL    HW2 6066   1.101   3.626   2.810
 1509SOL    HW3 6067   1.100   3.681   2.669
 1509SOL    MW4 6068   1.102   3.613   2.724
 1510SOL     OW 6069   1.098   3.851   2.589
 1510SOL    HW2 6070   1.178   3.889   2.627
 1510SOL    HW3 6071   1.110   3.859   2.494
 1510SOL    MW4 6072   1.110   3.857   2.581
 1511SOL     OW 6073   0.893   4.008   2.716
 1511SOL    HW2 6074   0.958   3.963   2.661
 1511SOL    HW3 6075   0.809   3.970   2.690
 1511SOL    MW4 6076   0.890   3.997   2.706
 1512SOL     OW 6077   0.888   4.266   2.630
 1512SOL    HW2 6078   0.892   4.174   2.656
 1512SOL    HW3 6079   0.884   4.265   2.535
 1512SOL    MW4 6080   0.888   4.254   2.621
 1513SOL     OW 6081   1.144   4.351   2.710
 1513SOL    HW2 6082   1.137   4.378   2.802
 1513SOL    HW3 6083   1.055   4.327   2.685
 1513SOL    MW4 6084   1.131   4.351   2.719
 1514SOL     OW 6085   1.601   4.621   2.568
 1514SOL    HW2 6086   1.590   4.535   2.610
 1514SOL    HW3 6087   1.582   4.604   2.475
 1514SOL    MW4 6088   1.598   4.607   2.561
 1515SOL     OW 6089   1.397   0.109   2.705
 1515SOL    HW2 6090   1.389   0.198   2.669
 1515SOL    HW3 6091   1.468   0.069   2.654
 1515SOL    MW4 6092   1.405   0.116   2.693
 1516SOL     OW 6093   1.368   0.374   2.613
 1516SOL    HW2 6094   1.448   0.412   2.651
 1516SOL    HW3 6095   1.297   0.415   2.662
 1516SOL    MW4 6096   1.369   0.385   2.625
 1517SOL     OW 6097   1.597   0.514   2.724
 1517SOL    HW2 6098   1.679   0.477   2.692
 1517SOL    HW3 6099   1.596   0.604   2.691
 1517SOL    MW4 6100   1.607   0.521   2.716
 1518SOL     OW 6101   1.586   0.768   2.626
 1518SOL    HW2 6102   1.506   0.809   2.658
 1518SOL    HW3 6103   1.570   0.753   2.533
 1518SOL    MW4 6104   1.574   0.772   2.618
 1519SOL     OW 6105   1.345   0.892   2.693
 1519SOL    HW2 6106   1.335   0.894   2.788
 1519SOL    HW3 6107   1.325   0.981   2.665
 1519SOL    MW4 6108   1.341   0.904   2.702
 1520SOL     OW 6109   1.325   1.136   2.559
 1520SOL    HW2 6110   1.407   1.174   2.590
 1520SOL    HW3 6111   1.258   1.176   2.614
 1520SOL    MW4 6112   1.327   1.147   2.571
 1521SOL     OW 6113   1.515   1.296   2.696
 1521SOL    HW2 6114   1.517   1.292   2.791
 1521SOL    HW3 6115   1.604   1.269   2.670
 1521SOL    MW4 6116   1.527   1.292   2.705
 1522SOL     OW 6117   1.581   1.556   2.601
 1522SOL    HW2 6118   1.550   1.468   2.623
 1522SOL    HW3 6119   1.573   1.561   2.506
 1522SOL    MW4 6120   1.576   1.545   2.591
 1523SOL     OW 6121   1.336   1.665   2.677
 1523SOL    HW2 6122   1.414   1.616   2.651
 1523SOL    HW3 6123   1.263   1.604   2.661
 1523SOL    MW4 6124   1.337   1.650   2.671
 1524SOL     OW 6125   1.365   1.943   2.614
 1524SOL    HW2 6126   1.347   1.853   2.641
 1524SOL    HW3 6127   1.353   1.943   2.519
 1524SOL    MW4 6128   1.361   1.931   2.605
 1525SOL     OW 6129   1.552   2.098   2.737
 1525SOL    HW2 6130   1.628   2.055   2.699
 1525SOL    HW3 6131   1.477   2.057   2.693
 1525SOL    MW4 6132   1.552   2.087   2.726
 1526SOL     OW 6133   1.540   2.351   2.615
 1526SOL    HW2 6134   1.601   2.420   2.641
 1526SOL    HW3 6135   1.565   2.276   2.669
 1526SOL    MW4 6136   1.552   2.350   2.626
 1527SOL     OW 6137   1.296   2.457   2.711
 1527SOL    HW2 6138   1.305   2.550   2.691
 1527SOL    HW3 6139   1.380   2.419   2.684
 1527SOL    MW4 6140   1.308   2.464   2.705
 1528SOL     OW 6141   1.310   2.712   2.589
 1528SOL    HW2 6142   1.394   2.752   2.611
 1528SOL    HW3 6143   1.302   2.723   2.495
 1528SOL    MW4 6144   1.320   2.718   2.580
 1529SOL     OW 6145   1.545   2.820   2.696
 1529SOL    HW2 6146   1.545   2.831   2.791
 1529SOL    HW3 6147   1.631   2.785   2.676
 1529SOL    MW4 6148   1.556   2.817   2.706
 1530SOL     OW 6149   1.548   3.082   2.615
 1530SOL    HW2 6150   1.637   3.112   2.632
 1530SOL    HW3 6151   1.546   2.992   2.647
 1530SOL    MW4 6152   1.559   3.074   2.621
 1531SOL     OW 6153   1.357   3.249   2.718
 1531SOL    HW2 6154   1.432   3.197   2.690
 1531SOL    HW3 6155   1.281   3.205   2.680
 1531SOL    MW4 6156   1.357   3.236   2.710
 1532SOL     OW 6157   1.327   3.490   2.597
 1532SOL    HW2 6158   1.340   3.399   2.623
 1532SOL    HW3 6159   1.246   3.517   2.641
 1532SOL    MW4 6160   1.318   3.481   2.606
 1533SOL     OW 6161   1.544   3.623   2.715
 1533SOL    HW2 6162   1.611   3.569   2.673
 1533SOL    HW3 6163   1.462   3.596   2.673
 1533SOL    MW4 6164   1.542   3.612   2.704
 1534SOL     OW 6165   1.553   3.877   2.583
 1534SOL    HW2 6166   1.471   3.910   2.621
 1534SOL    HW3 6167   1.564   3.791   2.623
 1534SOL    MW4 6168   1.543   3.870   2.593
 1535SOL     OW 6169   1.313   3.980   2.707
 1535SOL    HW2 6170   1.320   4.006   2.799
 1535SOL    HW3 6171   1.322   4.062   2.659
 1535SOL    MW4 6172   1.315   3.995   2.713
 1536SOL     OW 6173   1.355   4.227   2.595
 1536SOL    HW2 6174   1.280   4.267   2.639
 1536SOL    HW3 6175   1.344   4.249   2.503
 1536SOL    MW4 6176   1.344   4.235   2.589
 1537SOL     OW 6177   1.578   4.360   2.680
 1537SOL    HW2 6178   1.564   4.376   2.773
 1537SOL    HW3 6179   1.503   4.306   2.653
 1537SOL    MW4 6180   1.566   4.355   2.688
 1538SOL     OW 6181   2.032   4.609   2.631
 1538SOL    HW2 6182   2.119   4.646   2.648
 1538SOL    HW3 6183   2.025   4.607   2.536
 1538SOL    MW4 6184   2.042   4.614   2.621
 1539SOL     OW 6185   1.824   0.100   2.709
 1539SOL    HW2 6186   1.893   0.044   2.673
 1539SOL    HW3 6187   1.743   0.063   2.675
 1539SOL    MW4 6188   1.822   0.088   2.700
 1540SOL     OW 6189   1.810   0.369   2.634
 1540SOL    HW2 6190   1.878   0.410   2.686
 1540SOL    HW3 6191   1.815   0.276   2.656
 1540SOL    MW4 6192   1.820   0.362   2.643
 1541SOL     OW 6193   2.022   0.481   2.775
 1541SOL    HW2 6194   2.092   0.445   2.721
 1541SOL    HW3 6195   2.019   0.574   2.751
 1541SOL    MW4 6196   2.031   0.489   2.765
 1542SOL     OW 6197   1.982   0.728   2.667
 1542SOL    HW2 6198   1.927   0.805   2.674
 1542SOL    HW3 6199   1.991   0.712   2.573
 1542SOL    MW4 6200   1.976   0.736   2.655
 1543SOL     OW 6201   1.787   0.924   2.697
 1543SOL    HW2 6202   1.785   1.015   2.668
 1543SOL    HW3 6203   1.715   0.882   2.652
 1543SOL    MW4 6204   1.777   0.931   2.687
 1544SOL     OW 6205   1.754   1.199   2.599
 1544SOL    HW2 6206   1.836   1.239   2.626
 1544SOL    HW3 6207   1.765   1.181   2.506
 1544SOL    MW4 6208   1.766   1.202   2.590
 1545SOL     OW 6209   2.008   1.293   2.692
 1545SOL    HW2 6210   2.018   1.296   2.787
 1545SOL    HW3 6211   2.090   1.256   2.661
 1545SOL    MW4 6212   2.020   1.289   2.701
 1546SOL     OW 6213   1.959   1.542   2.596
 1546SOL    HW2 6214   1.890   1.578   2.651
 1546SOL    HW3 6215   1.987   1.462   2.641
 1546SOL    MW4 6216   1.954   1.536   2.609
 1547SOL     OW 6217   1.763   1.713   2.726
 1547SOL    HW2 6218   1.772   1.707   2.821
 1547SOL    HW3 6219   1.695   1.649   2.705
 1547SOL    MW4 6220   1.755   1.704   2.736
 1548SOL     OW 6221   1.779   1.967   2.625
 1548SOL    HW2 6222   1.857   2.018   2.649
 1548SOL    HW3 6223   1.787   1.886   2.674
 1548SOL    MW4 6224   1.791   1.963   2.634
 1549SOL     OW 6225   2.030   2.060   2.727
 1549SOL    HW2 6226   2.015   2.052   2.821
 1549SOL    HW3 6227   2.019   2.154   2.709
 1549SOL    MW4 6228   2.026   2.072   2.737
 1550SOL     OW 6229   1.989   2.323   2.659
 1550SOL    HW2 6230   2.062   2.381   2.681
 1550SOL    HW3 6231   1.998   2.309   2.564
 1550SOL    MW4 6232   2.000   2.329   2.649
 1551SOL     OW 6233   1.768   2.483   2.703
 1551SOL    HW2 6234   1.760   2.478   2.799
 1551SOL    HW3 6235   1.850   2.439   2.684
 1551SOL    MW4 6236   1.778   2.476   2.713
 1552SOL     OW 6237   1.789   2.742   2.614
 1552SOL    HW2 6238   1.769   2.658   2.655
 1552SOL    HW3 6239   1.804   2.721   2.522
 1552SOL    MW4 6240   1.789   2.728   2.608
 1553SOL     OW 6241   2.009   2.878   2.709
 1553SOL    HW2 6242   2.085   2.833   2.671
 1553SOL    HW3 6243   1.934   2.833   2.670
 1553SOL    MW4 6244   2.009   2.866   2.699
 1554SOL     OW 6245   2.009   3.155   2.630
 1554SOL    HW2 6246   2.024   3.064   2.656
 1554SOL    HW3 6247   2.029   3.156   2.536
 1554SOL    MW4 6248   2.014   3.143   2.621
 1555SOL     OW 6249   1.766   3.211   2.706
 1555SOL    HW2 6250   1.756   3.304   2.684
 1555SOL    HW3 6251   1.855   3.189   2.678
 1555SOL    MW4 6252   1.776   3.221   2.699
 1556SOL     OW 6253   1.745   3.462   2.602
 1556SOL    HW2 6254   1.829   3.496   2.633
 1556SOL    HW3 6255   1.758   3.449   2.508
 1556SOL    MW4 6256   1.757   3.465   2.593
 1557SOL     OW 6257   1.972   3.593   2.700
 1557SOL    HW2 6258   1.980   3.582   2.795
 1557SOL    HW3 6259   2.051   3.552   2.665
 1557SOL    MW4 6260   1.984   3.586   2.708
 1558SOL     OW 6261   2.002   3.851   2.597
 1558SOL    HW2 6262   1.921   3.895   2.623
 1558SOL    HW3 6263   1.995   3.764   2.635
 1558SOL    MW4 6264   1.990   3.846   2.605
 1559SOL     OW 6265   1.782   4.005   2.677
 1559SOL    HW2 6266   1.791   4.089   2.632
 1559SOL    HW3 6267   1.696   3.973   2.651
 1559SOL    MW4 6268   1.772   4.012   2.667
 1560SOL     OW 6269   1.803   4.255   2.578
 1560SOL    HW2 6270   1.723   4.299   2.606
 1560SOL    HW3 6271   1.799   4.255   2.483
 1560SOL    MW4 6272   1.792   4.261   2.569
 1561SOL     OW 6273   2.024   4.346   2.713
 1561SOL    HW2 6274   1.947   4.309   2.671
 1561SOL    HW3 6275   2.020   4.440   2.691
 1561SOL    MW4 6276   2.013   4.354   2.704
 1562SOL     OW 6277   2.438   4.608   2.601
 1562SOL    HW2 6278   2.512   4.654   2.640
 1562SOL    HW3 6279   2.459   4.602   2.508
 1562SOL    MW4 6280   2.450   4.613   2.594
 1563SOL     OW 6281   2.263   0.121   2.698
 1563SOL    HW2 6282   2.252   0.103   2.791
 1563SOL    HW3 6283   2.336   0.064   2.671
 1563SOL    MW4 6284   2.271   0.111   2.707
 1564SOL     OW 6285   2.228   0.375   2.604
 1564SOL    HW2 6286   2.230   0.288   2.644
 1564SOL    HW3 6287   2.243   0.358   2.511
 1564SOL    MW4 6288   2.230   0.361   2.597
 1565SOL     OW 6289   2.467   0.470   2.681
 1565SOL    HW2 6290   2.455   0.564   2.668
 1565SOL    HW3 6291   2.387   0.431   2.646
 1565SOL    MW4 6292   2.455   0.477   2.675
 1566SOL     OW 6293   2.452   0.760   2.618
 1566SOL    HW2 6294   2.379   0.818   2.638
 1566SOL    HW3 6295   2.462   0.765   2.523
 1566SOL    MW4 6296   2.444   0.768   2.608
 1567SOL     OW 6297   2.194   0.882   2.675
 1567SOL    HW2 6298   2.203   0.895   2.769
 1567SOL    HW3 6299   2.130   0.810   2.666
 1567SOL    MW4 6300   2.186   0.874   2.686
 1568SOL     OW 6301   2.211   1.146   2.573
 1568SOL    HW2 6302   2.195   1.056   2.601
 1568SOL    HW3 6303   2.214   1.141   2.477
 1568SOL    MW4 6304   2.209   1.133   2.564
 1569SOL     OW 6305   2.426   1.251   2.702
 1569SOL    HW2 6306   2.505   1.216   2.661
 1569SOL    HW3 6307   2.354   1.217   2.648
 1569SOL    MW4 6308   2.427   1.242   2.689
 1570SOL     OW 6309   2.452   1.529   2.659
 1570SOL    HW2 6310   2.379   1.585   2.685
 1570SOL    HW3 6311   2.426   1.441   2.686
 1570SOL    MW4 6312   2.439   1.525   2.666
 1571SOL     OW 6313   2.195   1.675   2.726
 1571SOL    HW2 6314   2.205   1.764   2.692
 1571SOL    HW3 6315   2.122   1.639   2.676
 1571SOL    MW4 6316   2.186   1.682   2.715
 1572SOL     OW 6317   2.257   1.929   2.656
 1572SOL    HW2 6318   2.181   1.984   2.676
 1572SOL    HW3 6319   2.257   1.923   2.560
 1572SOL    MW4 6320   2.247   1.935   2.646
 1573SOL     OW 6321   2.501   2.072   2.698
 1573SOL    HW2 6322   2.490   2.160   2.663
 1573SOL    HW3 6323   2.420   2.027   2.675
 1573SOL    MW4 6324   2.489   2.078   2.691
 1574SOL     OW 6325   2.461   2.343   2.619
 1574SOL    HW2 6326   2.546   2.378   2.646
 1574SOL    HW3 6327   2.465   2.341   2.523
 1574SOL    MW4 6328   2.473   2.347   2.610
 1575SOL     OW 6329   2.218   2.463   2.748
 1575SOL    HW2 6330   2.221   2.435   2.839
 1575SOL    HW3 6331   2.292   2.419   2.707
 1575SOL    MW4 6332   2.228   2.454   2.755
 1576SOL     OW 6333   2.237   2.731   2.613
 1576SOL    HW2 6334   2.312   2.780   2.647
 1576SOL    HW3 6335   2.240   2.646   2.657
 1576SOL    MW4 6336   2.247   2.726   2.623
 1577SOL     OW 6337   2.454   2.843   2.730
 1577SOL    HW2 6338   2.532   2.797   2.697
 1577SOL    HW3 6339   2.468   2.934   2.704
 1577SOL    MW4 6340   2.466   2.849   2.722
 1578SOL     OW 6341   2.475   3.100   2.644
 1578SOL    HW2 6342   2.417   3.169   2.677
 1578SOL    HW3 6343   2.469   3.108   2.549
 1578SOL    MW4 6344   2.466   3.110   2.636
 1579SOL     OW 6345   2.255   3.239   2.741
 1579SOL    HW2 6346   2.256   3.227   2.836
 1579SOL    HW3 6347   2.165   3.220   2.715
 1579SOL    MW4 6348   2.244   3.235   2.750
 1580SOL     OW 6349   2.226   3.488   2.630
 1580SOL    HW2 6350   2.318   3.514   2.639
 1580SOL    HW3 6351   2.223   3.400   2.668
 1580SOL    MW4 6352   2.238   3.479   2.636
 1581SOL     OW 6353   2.502   3.573   2.680
 1581SOL    HW2 6354   2.504   3.567   2.775
 1581SOL    HW3 6355   2.496   3.667   2.662
 1581SOL    MW4 6356   2.502   3.585   2.690
 1582SOL     OW 6357   2.492   3.839   2.552
 1582SOL    HW2 6358   2.563   3.895   2.585
 1582SOL    HW3 6359   2.412   3.882   2.583
 1582SOL    MW4 6360   2.491   3.852   2.561
 1583SOL     OW 6361   2.258   3.962   2.674
 1583SOL    HW2 6362   2.250   3.971   2.768
 1583SOL    HW3 6363   2.177   3.917   2.647
 1583SOL    MW4 6364   2.246   3.957   2.683
 1584SOL     OW 6365   2.239   4.218   2.587
 1584SOL    HW2 6366   2.239   4.126   2.614
 1584SOL    HW3 6367   2.166   4.257   2.635
 1584SOL    MW4 6368   2.229   4.211   2.597
 1585SOL     OW 6369   2.437   4.361   2.717
 1585SOL    HW2 6370   2.367   4.317   2.669
 1585SOL    HW3 6371   2.432   4.453   2.689
 1585SOL    MW4 6372   2.427   4.368   2.707
 1586SOL     OW 6373   2.912   4.659   2.634
 1586SOL    HW2 6374   2.977   4.720   2.669
 1586SOL    HW3 6375   2.935   4.650   2.541
 1586SOL    MW4 6376   2.924   4.666   2.626
 1587SOL     OW 6377   2.660   0.082   2.701
 1587SOL    HW2 6378   2.660   0.098   2.795
 1587SOL    HW3 6379   2.750   0.057   2.680
 1587SOL    MW4 6380   2.672   0.081   2.711
 1588SOL     OW 6381   2.701   0.325   2.605
 1588SOL    HW2 6382   2.697   0.243   2.653
 1588SOL    HW3 6383   2.619   0.370   2.626
 1588SOL    MW4 6384   2.689   0.320   2.614
 1589SOL     OW 6385   2.914   0.484   2.703
 1589SOL    HW2 6386   2.881   0.568   2.674
 1589SOL    HW3 6387   2.865   0.419   2.652
 1589SOL    MW4 6388   2.903   0.486   2.692
 1590SOL     OW 6389   2.860   0.717   2.578
 1590SOL    HW2 6390   2.943   0.761   2.596
 1590SOL    HW3 6391   2.793   0.776   2.614
 1590SOL    MW4 6392   2.862   0.731   2.585
 1591SOL     OW 6393   2.680   0.891   2.702
 1591SOL    HW2 6394   2.699   0.895   2.796
 1591SOL    HW3 6395   2.595   0.849   2.697
 1591SOL    MW4 6396   2.672   0.886   2.714
 1592SOL     OW 6397   2.634   1.137   2.578
 1592SOL    HW2 6398   2.709   1.182   2.616
 1592SOL    HW3 6399   2.638   1.049   2.614
 1592SOL    MW4 6400   2.644   1.131   2.587
 1593SOL     OW 6401   2.863   1.264   2.700
 1593SOL    HW2 6402   2.855   1.269   2.795
 1593SOL    HW3 6403   2.936   1.204   2.685
 1593SOL    MW4 6404   2.871   1.257   2.710
 1594SOL     OW 6405   2.924   1.525   2.631
 1594SOL    HW2 6406   2.852   1.566   2.679
 1594SOL    HW3 6407   2.914   1.431   2.648
 1594SOL    MW4 6408   2.914   1.518   2.640
 1595SOL     OW 6409   2.693   1.619   2.765
 1595SOL    HW2 6410   2.685   1.637   2.858
 1595SOL    HW3 6411   2.604   1.594   2.737
 1595SOL    MW4 6412   2.680   1.618   2.773
 1596SOL     OW 6413   2.694   1.881   2.654
 1596SOL    HW2 6414   2.695   1.801   2.706
 1596SOL    HW3 6415   2.631   1.939   2.698
 1596SOL    MW4 6416   2.686   1.878   2.666
 1597SOL     OW 6417   2.928   2.038   2.667
 1597SOL    HW2 6418   2.896   2.127   2.651
 1597SOL    HW3 6419   2.848   1.985   2.670
 1597SOL    MW4 6420   2.913   2.043   2.665
 1598SOL     OW 6421   2.898   2.311   2.632
 1598SOL    HW2 6422   2.967   2.365   2.671
 1598SOL    HW3 6423   2.818   2.363   2.643
 1598SOL    MW4 6424   2.897   2.325   2.638
 1599SOL     OW 6425   2.694   2.470   2.681
 1599SOL    HW2 6426   2.708   2.463   2.775
 1599SOL    HW3 6427   2.688   2.564   2.664
 1599SOL    MW4 6428   2.695   2.481   2.691
 1600SOL     OW 6429   2.686   2.725   2.645
 1600SOL    HW2 6430   2.769   2.760   2.678
 1600SOL    HW3 6431   2.695   2.730   2.550
 1600SOL    MW4 6432   2.699   2.730   2.637
 1601SOL     OW 6433   2.912   2.817   2.760
 1601SOL    HW2 6434   2.909   2.832   2.855
 1601SOL    HW3 6435   2.899   2.904   2.722
 1601SOL    MW4 6436   2.910   2.831   2.768
 1602SOL     OW 6437   2.918   3.051   2.626
 1602SOL    HW2 6438   2.855   3.120   2.649
 1602SOL    HW3 6439   2.939   3.067   2.534
 1602SOL    MW4 6440   2.912   3.062   2.617
 1603SOL     OW 6441   2.725   3.210   2.726
 1603SOL    HW2 6442   2.735   3.285   2.668
 1603SOL    HW3 6443   2.655   3.158   2.687
 1603SOL    MW4 6444   2.717   3.213   2.713
 1604SOL     OW 6445   2.738   3.451   2.596
 1604SOL    HW2 6446   2.650   3.476   2.626
 1604SOL    HW3 6447   2.738   3.473   2.503
 1604SOL    MW4 6448   2.726   3.457   2.588
 1605SOL     OW 6449   2.934   3.646   2.690
 1605SOL    HW2 6450   2.924   3.639   2.785
 1605SOL    HW3 6451   2.861   3.594   2.656
 1605SOL    MW4 6452   2.923   3.638   2.698
 1606SOL     OW 6453   2.926   3.906   2.576
 1606SOL    HW2 6454   2.992   3.946   2.632
 1606SOL    HW3 6455   2.937   3.812   2.590
 1606SOL    MW4 6456   2.936   3.899   2.585
 1607SOL     OW 6457   2.684   3.999   2.688
 1607SOL    HW2 6458   2.680   4.092   2.662
 1607SOL    HW3 6459   2.769   3.969   2.656
 1607SOL    MW4 6460   2.695   4.008   2.680
 1608SOL     OW 6461   2.676   4.275   2.601
 1608SOL    HW2 6462   2.746   4.331   2.634
 1608SOL    HW3 6463   2.598   4.306   2.647
 1608SOL    MW4 6464   2.675   4.287   2.611
 1609SOL     OW 6465   2.905   4.389   2.706
 1609SOL    HW2 6466   2.921   4.390   2.800
 1609SOL    HW3 6467   2.897   4.481   2.681
 1609SOL    MW4 6468   2.906   4.401   2.715
 1610SOL     OW 6469   3.347   0.019   2.618
 1610SOL    HW2 6470   3.344  -0.067   2.659
 1610SOL    HW3 6471   3.269   0.064   2.650
 1610SOL    MW4 6472   3.336   0.014   2.627
 1611SOL     OW 6473   3.129   0.151   2.712
 1611SOL    HW2 6474   3.130   0.159   2.807
 1611SOL    HW3 6475   3.137   0.242   2.681
 1611SOL    MW4 6476   3.130   0.164   2.720
 1612SOL     OW 6477   3.174   0.400   2.631
 1612SOL    HW2 6478   3.094   0.449   2.649
 1612SOL    HW3 6479   3.174   0.388   2.536
 1612SOL    MW4 6480   3.163   0.405   2.621
 1613SOL     OW 6481   3.423   0.524   2.688
 1613SOL    HW2 6482   3.413   0.617   2.670
 1613SOL    HW3 6483   3.333   0.490   2.690
 1613SOL    MW4 6484   3.410   0.532   2.686
 1614SOL     OW 6485   3.358   0.828   2.640
 1614SOL    HW2 6486   3.424   0.887   2.675
 1614SOL    HW3 6487   3.372   0.830   2.545
 1614SOL    MW4 6488   3.368   0.836   2.632
 1615SOL     OW 6489   3.092   0.836   2.694
 1615SOL    HW2 6490   3.103   0.842   2.789
 1615SOL    HW3 6491   3.178   0.858   2.659
 1615SOL    MW4 6492   3.105   0.840   2.702
 1616SOL     OW 6493   3.088   1.114   2.647
 1616SOL    HW2 6494   3.068   1.022   2.663
 1616SOL    HW3 6495   3.099   1.120   2.552
 1616SOL    MW4 6496   3.087   1.103   2.636
 1617SOL     OW 6497   3.328   1.250   2.725
 1617SOL    HW2 6498   3.328   1.261   2.820
 1617SOL    HW3 6499   3.244   1.209   2.705
 1617SOL    MW4 6500   3.317   1.246   2.735
 1618SOL     OW 6501   3.375   1.519   2.609
 1618SOL    HW2 6502   3.304   1.577   2.637
 1618SOL    HW3 6503   3.354   1.434   2.648
 1618SOL    MW4 6504   3.363   1.515   2.618
 1619SOL     OW 6505   3.150   1.646   2.713
 1619SOL    HW2 6506   3.143   1.730   2.668
 1619SOL    HW3 6507   3.076   1.595   2.680
 1619SOL    MW4 6508   3.139   1.650   2.703
 1620SOL     OW 6509   3.165   1.895   2.589
 1620SOL    HW2 6510   3.243   1.942   2.619
 1620SOL    HW3 6511   3.092   1.942   2.628
 1620SOL    MW4 6512   3.166   1.907   2.598
 1621SOL     OW 6513   3.383   2.045   2.680
 1621SOL    HW2 6514   3.375   2.059   2.774
 1621SOL    HW3 6515   3.367   2.131   2.641
 1621SOL    MW4 6516   3.380   2.058   2.687
 1622SOL     OW 6517   3.341   2.297   2.575
 1622SOL    HW2 6518   3.417   2.341   2.614
 1622SOL    HW3 6519   3.358   2.296   2.481
 1622SOL    MW4 6520   3.353   2.303   2.568
 1623SOL     OW 6521   3.133   2.441   2.704
 1623SOL    HW2 6522   3.126   2.524   2.657
 1623SOL    HW3 6523   3.190   2.387   2.649
 1623SOL    MW4 6524   3.140   2.445   2.691
 1624SOL     OW 6525   3.130   2.730   2.606
 1624SOL    HW2 6526   3.212   2.773   2.627
 1624SOL    HW3 6527   3.070   2.759   2.675
 1624SOL    MW4 6528   3.133   2.740   2.618
 1625SOL     OW 6529   3.381   2.804   2.731
 1625SOL    HW2 6530   3.384   2.793   2.826
 1625SOL    HW3 6531   3.450   2.747   2.698
 1625SOL    MW4 6532   3.390   2.795   2.739
 1626SOL     OW 6533   3.361   3.093   2.650
 1626SOL    HW2 6534   3.356   3.015   2.706
 1626SOL    HW3 6535   3.351   3.060   2.561
 1626SOL    MW4 6536   3.359   3.078   2.646
 1627SOL     OW 6537   3.138   3.238   2.731
 1627SOL    HW2 6538   3.224   3.195   2.731
 1627SOL    HW3 6539   3.076   3.168   2.709
 1627SOL    MW4 6540   3.141   3.223   2.728
 1628SOL     OW 6541   3.136   3.473   2.589
 1628SOL    HW2 6542   3.130   3.386   2.629
 1628SOL    HW3 6543   3.066   3.523   2.630
 1628SOL    MW4 6544   3.126   3.468   2.600
 1629SOL     OW 6545   3.358   3.605   2.697
 1629SOL    HW2 6546   3.374   3.605   2.791
 1629SOL    HW3 6547   3.280   3.552   2.685
 1629SOL    MW4 6548   3.350   3.598   2.708
 1630SOL     OW 6549   3.367   3.863   2.657
 1630SOL    HW2 6550   3.362   3.773   2.691
 1630SOL    HW3 6551   3.371   3.852   2.562
 1630SOL    MW4 6552   3.367   3.849   2.649
 1631SOL     OW 6553   3.142   4.029   2.724
 1631SOL    HW2 6554   3.165   4.112   2.682
 1631SOL    HW3 6555   3.222   3.976   2.718
 1631SOL    MW4 6556   3.156   4.033   2.718
 1632SOL     OW 6557   3.160   4.295   2.633
 1632SOL    HW2 6558   3.071   4.325   2.650
 1632SOL    HW3 6559   3.166   4.288   2.538
 1632SOL    MW4 6560   3.149   4.298   2.623
 1633SOL     OW 6561   3.402   4.423   2.730
 1633SOL    HW2 6562   3.393   4.430   2.825
 1633SOL    HW3 6563   3.332   4.365   2.703
 1633SOL    MW4 6564   3.392   4.416   2.739
 1634SOL     OW 6565   3.841   4.656   2.641
 1634SOL    HW2 6566   3.833   4.566   2.673
 1634SOL    HW3 6567   3.762   4.700   2.671
 1634SOL    MW4 6568   3.830   4.650   2.649
 1635SOL     OW 6569   3.616   0.128   2.711
 1635SOL    HW2 6570   3.633   0.215   2.675
 1635SOL    HW3 6571   3.526   0.109   2.686
 1635SOL    MW4 6572   3.606   0.137   2.703
 1636SOL     OW 6573   3.652   0.405   2.605
 1636SOL    HW2 6574   3.725   0.456   2.640
 1636SOL    HW3 6575   3.574   0.451   2.636
 1636SOL    MW4 6576   3.651   0.418   2.613
 1637SOL     OW 6577   3.865   0.557   2.719
 1637SOL    HW2 6578   3.826   0.525   2.800
 1637SOL    HW3 6579   3.950   0.514   2.714
 1637SOL    MW4 6580   3.871   0.547   2.729
 1638SOL     OW 6581   3.825   0.826   2.607
 1638SOL    HW2 6582   3.752   0.859   2.659
 1638SOL    HW3 6583   3.842   0.739   2.641
 1638SOL    MW4 6584   3.818   0.819   2.618
 1639SOL     OW 6585   3.581   0.954   2.741
 1639SOL    HW2 6586   3.591   0.963   2.835
 1639SOL    HW3 6587   3.580   1.043   2.707
 1639SOL    MW4 6588   3.582   0.967   2.749
 1640SOL     OW 6589   3.563   1.187   2.551
 1640SOL    HW2 6590   3.639   1.231   2.589
 1640SOL    HW3 6591   3.489   1.220   2.601
 1640SOL    MW4 6592   3.563   1.197   2.562
 1641SOL     OW 6593   3.771   1.307   2.697
 1641SOL    HW2 6594   3.850   1.256   2.679
 1641SOL    HW3 6595   3.791   1.394   2.662
 1641SOL    MW4 6596   3.784   1.312   2.690
 1642SOL     OW 6597   3.838   1.557   2.591
 1642SOL    HW2 6598   3.920   1.582   2.633
 1642SOL    HW3 6599   3.771   1.607   2.637
 1642SOL    MW4 6600   3.840   1.567   2.603
 1643SOL     OW 6601   3.602   1.655   2.704
 1643SOL    HW2 6602   3.602   1.745   2.669
 1643SOL    HW3 6603   3.532   1.611   2.655
 1643SOL    MW4 6604   3.593   1.661   2.693
 1644SOL     OW 6605   3.615   1.941   2.598
 1644SOL    HW2 6606   3.537   1.982   2.635
 1644SOL    HW3 6607   3.597   1.937   2.504
 1644SOL    MW4 6608   3.602   1.946   2.590
 1645SOL     OW 6609   3.839   2.061   2.706
 1645SOL    HW2 6610   3.918   2.008   2.690
 1645SOL    HW3 6611   3.773   2.023   2.649
 1645SOL    MW4 6612   3.841   2.049   2.696
 1646SOL     OW 6613   3.826   2.322   2.630
 1646SOL    HW2 6614   3.849   2.231   2.647
 1646SOL    HW3 6615   3.815   2.327   2.535
 1646SOL    MW4 6616   3.828   2.311   2.620
 1647SOL     OW 6617   3.565   2.407   2.703
 1647SOL    HW2 6618   3.563   2.420   2.798
 1647SOL    HW3 6619   3.653   2.374   2.685
 1647SOL    MW4 6620   3.576   2.405   2.713
 1648SOL     OW 6621   3.601   2.675   2.647
 1648SOL    HW2 6622   3.600   2.582   2.670
 1648SOL    HW3 6623   3.605   2.676   2.552
 1648SOL    MW4 6624   3.601   2.663   2.638
 1649SOL     OW 6625   3.798   2.873   2.687
 1649SOL    HW2 6626   3.872   2.813   2.686
 1649SOL    HW3 6627   3.721   2.816   2.690
 1649SOL    MW4 6628   3.797   2.858   2.688
 1650SOL     OW 6629   3.839   3.115   2.596
 1650SOL    HW2 6630   3.772   3.172   2.635
 1650SOL    HW3 6631   3.815   3.027   2.626
 1650SOL    MW4 6632   3.827   3.111   2.605
 1651SOL     OW 6633   3.587   3.228   2.689
 1651SOL    HW2 6634   3.570   3.311   2.646
 1651SOL    HW3 6635   3.510   3.174   2.670
 1651SOL    MW4 6636   3.575   3.232   2.681
 1652SOL     OW 6637   3.565   3.467   2.573
 1652SOL    HW2 6638   3.648   3.495   2.612
 1652SOL    HW3 6639   3.499   3.521   2.617
 1652SOL    MW4 6640   3.567   3.478   2.584
 1653SOL     OW 6641   3.787   3.595   2.705
 1653SOL    HW2 6642   3.876   3.563   2.690
 1653SOL    HW3 6643   3.787   3.683   2.668
 1653SOL    MW4 6644   3.799   3.602   2.698
 1654SOL     OW 6645   3.840   3.847   2.609
 1654SOL    HW2 6646   3.919   3.883   2.650
 1654SOL    HW3 6647   3.769   3.899   2.646
 1654SOL    MW4 6648   3.841   3.859   2.620
 1655SOL     OW 6649   3.612   3.981   2.698
 1655SOL    HW2 6650   3.604   4.073   2.673
 1655SOL    HW3 6651   3.527   3.943   2.675
 1655SOL    MW4 6652   3.600   3.988   2.691
 1656SOL     OW 6653   3.581   4.249   2.619
 1656SOL    HW2 6654   3.514   4.308   2.656
 1656SOL    HW3 6655   3.562   4.248   2.525
 1656SOL    MW4 6656   3.569   4.257   2.612
 1657SOL     OW 6657   3.809   4.392   2.708
 1657SOL    HW2 6658   3.886   4.335   2.697
 1657SOL    HW3 6659   3.736   4.340   2.674
 1657SOL    MW4 6660   3.810   4.377   2.702
 1658SOL     OW 6661   4.269   4.663   2.612
 1658SOL    HW2 6662   4.195   4.694   2.665
 1658SOL    HW3 6663   4.345   4.709   2.648
 1658SOL    MW4 6664   4.269   4.673   2.624
 1659SOL     OW 6665   4.065   0.109   2.761
 1659SOL    HW2 6666   4.044   0.124   2.853
 1659SOL    HW3 6667   3.986   0.071   2.724
 1659SOL    MW4 6668   4.052   0.106   2.768
 1660SOL     OW 6669   4.067   0.373   2.657
 1660SOL    HW2 6670   4.054   0.283   2.688
 1660SOL    HW3 6671   4.080   0.365   2.563
 1660SOL    MW4 6672   4.067   0.360   2.649
 1661SOL     OW 6673   4.276   0.515   2.726
 1661SOL    HW2 6674   4.205   0.455   2.705
 1661SOL    HW3 6675   4.353   0.477   2.685
 1661SOL    MW4 6676   4.277   0.502   2.718
 1662SOL     OW 6677   4.280   0.778   2.611
 1662SOL    HW2 6678   4.294   0.693   2.654
 1662SOL    HW3 6679   4.277   0.758   2.518
 1662SOL    MW4 6680   4.282   0.764   2.604
 1663SOL     OW 6681   4.059   0.944   2.698
 1663SOL    HW2 6682   4.129   0.898   2.651
 1663SOL    HW3 6683   3.979   0.895   2.676
 1663SOL    MW4 6684   4.058   0.931   2.688
 1664SOL     OW 6685   4.029   1.206   2.615
 1664SOL    HW2 6686   4.100   1.241   2.669
 1664SOL    HW3 6687   4.024   1.113   2.637
 1664SOL    MW4 6688   4.037   1.199   2.625
 1665SOL     OW 6689   4.252   1.300   2.762
 1665SOL    HW2 6690   4.253   1.384   2.716
 1665SOL    HW3 6691   4.319   1.248   2.718
 1665SOL    MW4 6692   4.261   1.304   2.750
 1666SOL     OW 6693   4.257   1.521   2.612
 1666SOL    HW2 6694   4.339   1.566   2.631
 1666SOL    HW3 6695   4.262   1.502   2.518
 1666SOL    MW4 6696   4.268   1.524   2.602
 1667SOL     OW 6697   4.056   1.665   2.743
 1667SOL    HW2 6698   4.072   1.676   2.837
 1667SOL    HW3 6699   4.135   1.622   2.710
 1667SOL    MW4 6700   4.069   1.661   2.751
 1668SOL     OW 6701   4.059   1.912   2.629
 1668SOL    HW2 6702   4.140   1.959   2.650
 1668SOL    HW3 6703   4.068   1.827   2.674
 1668SOL    MW4 6704   4.071   1.907   2.638
 1669SOL     OW 6705   4.288   2.057   2.736
 1669SOL    HW2 6706   4.291   2.150   2.712
 1669SOL    HW3 6707   4.368   2.020   2.698
 1669SOL    MW4 6708   4.299   2.065   2.728
 1670SOL     OW 6709   4.270   2.318   2.627
 1670SOL    HW2 6710   4.208   2.385   2.654
 1670SOL    HW3 6711   4.264   2.316   2.531
 1670SOL    MW4 6712   4.261   2.327   2.618
 1671SOL     OW 6713   4.039   2.449   2.728
 1671SOL    HW2 6714   4.037   2.431   2.822
 1671SOL    HW3 6715   3.957   2.412   2.695
 1671SOL    MW4 6716   4.028   2.442   2.736
 1672SOL     OW 6717   4.018   2.721   2.643
 1672SOL    HW2 6718   4.098   2.768   2.666
 1672SOL    HW3 6719   4.029   2.635   2.684
 1672SOL    MW4 6720   4.030   2.716   2.652
 1673SOL     OW 6721   4.261   2.823   2.723
 1673SOL    HW2 6722   4.284   2.842   2.814
 1673SOL    HW3 6723   4.266   2.908   2.679
 1673SOL    MW4 6724   4.265   2.836   2.730
 1674SOL     OW 6725   4.274   3.082   2.604
 1674SOL    HW2 6726   4.205   3.134   2.644
 1674SOL    HW3 6727   4.261   3.093   2.509
 1674SOL    MW4 6728   4.263   3.090   2.597
 1675SOL     OW 6729   4.066   3.224   2.718
 1675SOL    HW2 6730   4.064   3.319   2.713
 1675SOL    HW3 6731   3.985   3.195   2.676
 1675SOL    MW4 6732   4.055   3.232   2.712
 1676SOL     OW 6733   4.023   3.494   2.634
 1676SOL    HW2 6734   4.096   3.553   2.655
 1676SOL    HW3 6735   4.029   3.481   2.539
 1676SOL    MW4 6736   4.034   3.500   2.624
 1677SOL     OW 6737   4.249   3.607   2.723
 1677SOL    HW2 6738   4.242   3.585   2.816
 1677SOL    HW3 6739   4.325   3.557   2.692
 1677SOL    MW4 6740   4.258   3.597   2.731
 1678SOL     OW 6741   4.270   3.879   2.618
 1678SOL    HW2 6742   4.270   3.787   2.643
 1678SOL    HW3 6743   4.346   3.916   2.663
 1678SOL    MW4 6744   4.280   3.872   2.627
 1679SOL     OW 6745   4.050   4.000   2.732
 1679SOL    HW2 6746   4.041   4.023   2.824
 1679SOL    HW3 6747   4.132   3.951   2.727
 1679SOL    MW4 6748   4.060   3.996   2.743
 1680SOL     OW 6749   4.047   4.246   2.633
 1680SOL    HW2 6750   4.050   4.152   2.649
 1680SOL    HW3 6751   4.039   4.254   2.538
 1680SOL    MW4 6752   4.046   4.235   2.622
 1681SOL     OW 6753   4.291   4.382   2.693
 1681SOL    HW2 6754   4.215   4.339   2.653
 1681SOL    HW3 6755   4.289   4.471   2.659
 1681SOL    MW4 6756   4.281   4.388   2.684
 1682SOL     OW 6757   0.229   4.649   3.077
 1682SOL    HW2 6758   0.236   4.647   3.173
 1682SOL    HW3 6759   0.144   4.689   3.060
 1682SOL    MW4 6760   0.219   4.654   3.088
 1683SOL     OW 6761   4.477   0.112   3.013
 1683SOL    HW2 6762   4.391   0.074   3.033
 1683SOL    HW3 6763   4.474   0.200   3.050
 1683SOL    MW4 6764   4.465   0.118   3.020
 1684SOL     OW 6765   4.485   0.386   3.085
 1684SOL    HW2 6766   4.474   0.398   3.179
 1684SOL    HW3 6767   4.419   0.442   3.046
 1684SOL    MW4 6768   4.475   0.395   3.092
 1685SOL     OW 6769   0.232   0.486   2.942
 1685SOL    HW2 6770   0.297   0.439   2.994
 1685SOL    HW3 6771   0.149   0.470   2.987
 1685SOL    MW4 6772   0.229   0.478   2.954
 1686SOL     OW 6773   0.202   0.755   3.046
 1686SOL    HW2 6774   0.228   0.737   3.136
 1686SOL    HW3 6775   0.211   0.670   3.001
 1686SOL    MW4 6776   0.206   0.741   3.052
 1687SOL     OW 6777   4.479   0.888   2.949
 1687SOL    HW2 6778   4.557   0.850   2.992
 1687SOL    HW3 6779   4.499   0.882   2.856
 1687SOL    MW4 6780   4.493   0.882   2.943
 1688SOL     OW 6781   0.031   1.132   3.061
 1688SOL    HW2 6782  -0.050   1.182   3.055
 1688SOL    HW3 6783   0.008   1.044   3.032
 1688SOL    MW4 6784   0.018   1.127   3.056
 1689SOL     OW 6785   0.241   1.267   2.961
 1689SOL    HW2 6786   0.166   1.224   3.002
 1689SOL    HW3 6787   0.215   1.279   2.870
 1689SOL    MW4 6788   0.228   1.263   2.954
 1690SOL     OW 6789   0.240   1.525   3.064
 1690SOL    HW2 6790   0.159   1.558   3.025
 1690SOL    HW3 6791   0.249   1.437   3.029
 1690SOL    MW4 6792   0.230   1.518   3.054
 1691SOL     OW 6793   0.024   1.631   2.942
 1691SOL    HW2 6794  -0.054   1.597   2.986
 1691SOL    HW3 6795   0.044   1.713   2.986
 1691SOL    MW4 6796   0.017   1.637   2.953
 1692SOL     OW 6797   0.030   1.899   3.069
 1692SOL    HW2 6798  -0.050   1.944   3.043
 1692SOL    HW3 6799   0.097   1.933   3.010
 1692SOL    MW4 6800   0.029   1.909   3.058
 1693SOL     OW 6801   0.233   2.046   2.949
 1693SOL    HW2 6802   0.243   2.137   2.978
 1693SOL    HW3 6803   0.254   2.048   2.856
 1693SOL    MW4 6804   0.237   2.058   2.941
 1694SOL     OW 6805   0.274   2.289   3.031
 1694SOL    HW2 6806   0.253   2.314   3.121
 1694SOL    HW3 6807   0.346   2.347   3.006
 1694SOL    MW4 6808   0.280   2.300   3.039
 1695SOL     OW 6809   0.015   2.412   2.991
 1695SOL    HW2 6810   0.012   2.505   3.013
 1695SOL    HW3 6811   0.102   2.384   3.018
 1695SOL    MW4 6812   0.026   2.421   2.998
 1696SOL     OW 6813   4.485   2.660   3.087
 1696SOL    HW2 6814   4.483   2.662   3.183
 1696SOL    HW3 6815   4.563   2.710   3.064
 1696SOL    MW4 6816   4.495   2.667   3.097
 1697SOL     OW 6817   0.200   2.819   2.988
 1697SOL    HW2 6818   0.285   2.778   3.000
 1697SOL    HW3 6819   0.187   2.822   2.894
 1697SOL    MW4 6820   0.209   2.814   2.977
 1698SOL     OW 6821   0.239   3.081   3.084
 1698SOL    HW2 6822   0.155   3.125   3.070
 1698SOL    HW3 6823   0.228   2.994   3.045
 1698SOL    MW4 6824   0.227   3.075   3.077
 1699SOL     OW 6825   0.014   3.216   3.002
 1699SOL    HW2 6826  -0.070   3.188   3.039
 1699SOL    HW3 6827   0.005   3.200   2.908
 1699SOL    MW4 6828   0.002   3.210   2.995
 1700SOL     OW 6829   4.490   3.463   3.117
 1700SOL    HW2 6830   4.411   3.495   3.073
 1700SOL    HW3 6831   4.502   3.374   3.083
 1700SOL    MW4 6832   4.481   3.455   3.106
 1701SOL     OW 6833   0.214   3.587   2.983
 1701SOL    HW2 6834   0.219   3.665   3.038
 1701SOL    HW3 6835   0.139   3.538   3.017
 1701SOL    MW4 6836   0.205   3.591   2.994
 1702SOL     OW 6837   0.226   3.829   3.126
 1702SOL    HW2 6838   0.211   3.839   3.220
 1702SOL    HW3 6839   0.308   3.875   3.110
 1702SOL    MW4 6840   0.235   3.836   3.137
 1703SOL     OW 6841   0.052   4.008   3.010
 1703SOL    HW2 6842   0.113   3.944   3.045
 1703SOL    HW3 6843   0.055   3.995   2.915
 1703SOL    MW4 6844   0.061   3.998   3.002
 1704SOL     OW 6845   4.487   4.285   3.069
 1704SOL    HW2 6846   4.509   4.301   3.161
 1704SOL    HW3 6847   4.496   4.191   3.059
 1704SOL    MW4 6848   4.491   4.275   3.080
 1705SOL     OW 6849   0.241   4.383   2.991
 1705SOL    HW2 6850   0.149   4.356   3.000
 1705SOL    HW3 6851   0.242   4.474   3.020
 1705SOL    MW4 6852   0.229   4.392   2.996
 1706SOL     OW 6853   0.693   4.647   3.102
 1706SOL    HW2 6854   0.671   4.557   3.077
 1706SOL    HW3 6855   0.615   4.698   3.077
 1706SOL    MW4 6856   0.680   4.642   3.095
 1707SOL     OW 6857   0.459   0.126   3.027
 1707SOL    HW2 6858   0.460   0.214   3.064
 1707SOL    HW3 6859   0.371   0.093   3.046
 1707SOL    MW4 6860   0.447   0.134   3.034
 1708SOL     OW 6861   0.442   0.380   3.106
 1708SOL    HW2 6862   0.442   0.377   3.202
 1708SOL    HW3 6863   0.525   0.421   3.084
 1708SOL    MW4 6864   0.453   0.385   3.116
 1709SOL     OW 6865   0.666   0.509   2.999
 1709SOL    HW2 6866   0.748   0.480   3.040
 1709SOL    HW3 6867   0.658   0.600   3.026
 1709SOL    MW4 6868   0.676   0.517   3.008
 1710SOL     OW 6869   0.688   0.792   3.068
 1710SOL    HW2 6870   0.690   0.791   3.163
 1710SOL    HW3 6871   0.597   0.814   3.046
 1710SOL    MW4 6872   0.676   0.795   3.077
 1711SOL     OW 6873   0.438   0.916   2.970
 1711SOL    HW2 6874   0.363   0.866   3.003
 1711SOL    HW3 6875   0.436   0.903   2.875
 1711SOL    MW4 6876   0.427   0.908   2.962
 1712SOL     OW 6877   0.469   1.182   3.100
 1712SOL    HW2 6878   0.469   1.099   3.053
 1712SOL    HW3 6879   0.396   1.231   3.061
 1712SOL    MW4 6880   0.459   1.178   3.088
 1713SOL     OW 6881   0.695   1.302   3.001
 1713SOL    HW2 6882   0.774   1.258   3.033
 1713SOL    HW3 6883   0.624   1.264   3.053
 1713SOL    MW4 6884   0.696   1.291   3.012
 1714SOL     OW 6885   0.649   1.570   3.052
 1714SOL    HW2 6886   0.635   1.582   3.146
 1714SOL    HW3 6887   0.669   1.477   3.042
 1714SOL    MW4 6888   0.650   1.559   3.063
 1715SOL     OW 6889   0.428   1.681   2.936
 1715SOL    HW2 6890   0.506   1.639   2.972
 1715SOL    HW3 6891   0.355   1.632   2.973
 1715SOL    MW4 6892   0.428   1.669   2.945
 1716SOL     OW 6893   0.435   1.919   3.084
 1716SOL    HW2 6894   0.434   1.838   3.033
 1716SOL    HW3 6895   0.370   1.975   3.043
 1716SOL    MW4 6896   0.427   1.916   3.072
 1717SOL     OW 6897   0.663   2.047   2.956
 1717SOL    HW2 6898   0.737   2.018   3.010
 1717SOL    HW3 6899   0.587   2.001   2.992
 1717SOL    MW4 6900   0.663   2.037   2.968
 1718SOL     OW 6901   0.666   2.298   3.051
 1718SOL    HW2 6902   0.655   2.299   3.146
 1718SOL    HW3 6903   0.665   2.205   3.028
 1718SOL    MW4 6904   0.664   2.286   3.061
 1719SOL     OW 6905   0.467   2.474   2.973
 1719SOL    HW2 6906   0.544   2.420   2.995
 1719SOL    HW3 6907   0.446   2.449   2.883
 1719SOL    MW4 6908   0.475   2.463   2.964
 1720SOL     OW 6909   0.437   2.720   3.068
 1720SOL    HW2 6910   0.522   2.761   3.052
 1720SOL    HW3 6911   0.448   2.629   3.039
 1720SOL    MW4 6912   0.449   2.714   3.062
 1721SOL     OW 6913   0.683   2.800   2.980
 1721SOL    HW2 6914   0.770   2.767   3.004
 1721SOL    HW3 6915   0.690   2.895   2.990
 1721SOL    MW4 6916   0.696   2.808   2.984
 1722SOL     OW 6917   0.673   3.048   3.079
 1722SOL    HW2 6918   0.674   3.044   3.174
 1722SOL    HW3 6919   0.599   3.104   3.057
 1722SOL    MW4 6920   0.664   3.055   3.089
 1723SOL     OW 6921   0.464   3.202   2.994
 1723SOL    HW2 6922   0.472   3.288   3.035
 1723SOL    HW3 6923   0.388   3.162   3.036
 1723SOL    MW4 6924   0.455   3.208   3.005
 1724SOL     OW 6925   0.475   3.466   3.049
 1724SOL    HW2 6926   0.487   3.467   3.144
 1724SOL    HW3 6927   0.382   3.482   3.036
 1724SOL    MW4 6928   0.465   3.468   3.060
 1725SOL     OW 6929   0.680   3.621   2.974
 1725SOL    HW2 6930   0.759   3.590   3.020
 1725SOL    HW3 6931   0.611   3.563   3.005
 1725SOL    MW4 6932   0.682   3.609   2.985
 1726SOL     OW 6933   0.720   3.886   3.074
 1726SOL    HW2 6934   0.690   3.883   3.165
 1726SOL    HW3 6935   0.713   3.795   3.043
 1726SOL    MW4 6936   0.715   3.873   3.082
 1727SOL     OW 6937   0.439   3.951   3.036
 1727SOL    HW2 6938   0.525   3.910   3.043
 1727SOL    HW3 6939   0.416   3.945   2.943
 1727SOL    MW4 6940   0.447   3.945   3.025
 1728SOL     OW 6941   0.441   4.215   3.102
 1728SOL    HW2 6942   0.431   4.126   3.067
 1728SOL    HW3 6943   0.367   4.264   3.066
 1728SOL    MW4 6944   0.430   4.210   3.093
 1729SOL     OW 6945   0.643   4.388   3.021
 1729SOL    HW2 6946   0.586   4.316   3.049
 1729SOL    HW3 6947   0.658   4.372   2.928
 1729SOL    MW4 6948   0.637   4.376   3.013
 1730SOL     OW 6949   1.109   4.648   3.096
 1730SOL    HW2 6950   1.178   4.684   3.040
 1730SOL    HW3 6951   1.028   4.684   3.060
 1730SOL    MW4 6952   1.107   4.658   3.084
 1731SOL     OW 6953   0.894   0.107   2.975
 1731SOL    HW2 6954   0.891   0.190   3.022
 1731SOL    HW3 6955   0.823   0.055   3.013
 1731SOL    MW4 6956   0.885   0.111   2.986
 1732SOL     OW 6957   0.909   0.366   3.102
 1732SOL    HW2 6958   0.898   0.385   3.195
 1732SOL    HW3 6959   0.998   0.396   3.082
 1732SOL    MW4 6960   0.919   0.373   3.112
 1733SOL     OW 6961   1.141   0.488   3.010
 1733SOL    HW2 6962   1.222   0.439   3.022
 1733SOL    HW3 6963   1.121   0.480   2.916
 1733SOL    MW4 6964   1.149   0.481   2.999
 1734SOL     OW 6965   1.148   0.735   3.122
 1734SOL    HW2 6966   1.121   0.725   3.214
 1734SOL    HW3 6967   1.154   0.645   3.090
 1734SOL    MW4 6968   1.146   0.721   3.130
 1735SOL     OW 6969   0.939   0.886   2.987
 1735SOL    HW2 6970   1.011   0.848   3.037
 1735SOL    HW3 6971   0.860   0.846   3.023
 1735SOL    MW4 6972   0.938   0.876   2.998
 1736SOL     OW 6973   0.914   1.137   3.094
 1736SOL    HW2 6974   0.983   1.196   3.065
 1736SOL    HW3 6975   0.929   1.057   3.044
 1736SOL    MW4 6976   0.925   1.134   3.084
 1737SOL     OW 6977   1.125   1.307   2.993
 1737SOL    HW2 6978   1.201   1.262   3.030
 1737SOL    HW3 6979   1.140   1.307   2.898
 1737SOL    MW4 6980   1.137   1.301   2.985
 1738SOL     OW 6981   1.116   1.571   3.055
 1738SOL    HW2 6982   1.204   1.594   3.025
 1738SOL    HW3 6983   1.106   1.479   3.028
 1738SOL    MW4 6984   1.126   1.562   3.047
 1739SOL     OW 6985   0.888   1.722   2.973
 1739SOL    HW2 6986   0.962   1.673   3.008
 1739SOL    HW3 6987   0.811   1.676   3.007
 1739SOL    MW4 6988   0.888   1.710   2.982
 1740SOL     OW 6989   0.891   1.982   3.074
 1740SOL    HW2 6990   0.895   1.971   3.169
 1740SOL    HW3 6991   0.876   1.894   3.041
 1740SOL    MW4 6992   0.889   1.969   3.082
 1741SOL     OW 6993   1.124   2.080   3.008
 1741SOL    HW2 6994   1.044   2.034   3.032
 1741SOL    HW3 6995   1.126   2.075   2.912
 1741SOL    MW4 6996   1.114   2.074   2.998
 1742SOL     OW 6997   1.124   2.341   3.089
 1742SOL    HW2 6998   1.051   2.371   3.035
 1742SOL    HW3 6999   1.135   2.249   3.066
 1742SOL    MW4 7000   1.116   2.333   3.079
 1743SOL     OW 7001   0.902   2.487   2.975
 1743SOL    HW2 7002   0.843   2.418   3.007
 1743SOL    HW3 7003   0.875   2.501   2.884
 1743SOL    MW4 7004   0.890   2.479   2.967
 1744SOL     OW 7005   0.920   2.736   3.097
 1744SOL    HW2 7006   0.914   2.711   3.189
 1744SOL    HW3 7007   0.915   2.653   3.050
 1744SOL    MW4 7008   0.919   2.722   3.103
 1745SOL     OW 7009   1.156   2.840   3.005
 1745SOL    HW2 7010   1.164   2.931   3.035
 1745SOL    HW3 7011   1.070   2.813   3.035
 1745SOL    MW4 7012   1.146   2.849   3.013
 1746SOL     OW 7013   1.128   3.087   3.129
 1746SOL    HW2 7014   1.201   3.143   3.102
 1746SOL    HW3 7015   1.051   3.128   3.090
 1746SOL    MW4 7016   1.128   3.100   3.120
 1747SOL     OW 7017   0.899   3.189   3.013
 1747SOL    HW2 7018   0.823   3.135   3.031
 1747SOL    HW3 7019   0.906   3.191   2.917
 1747SOL    MW4 7020   0.890   3.182   3.002
 1748SOL     OW 7021   0.904   3.467   3.093
 1748SOL    HW2 7022   0.977   3.523   3.067
 1748SOL    HW3 7023   0.910   3.391   3.035
 1748SOL    MW4 7024   0.914   3.465   3.082
 1749SOL     OW 7025   1.093   3.640   2.996
 1749SOL    HW2 7026   1.173   3.594   3.022
 1749SOL    HW3 7027   1.102   3.728   3.033
 1749SOL    MW4 7028   1.105   3.646   3.004
 1750SOL     OW 7029   1.149   3.905   3.093
 1750SOL    HW2 7030   1.143   3.925   3.187
 1750SOL    HW3 7031   1.073   3.950   3.055
 1750SOL    MW4 7032   1.138   3.914   3.101
 1751SOL     OW 7033   0.923   4.036   2.982
 1751SOL    HW2 7034   0.850   3.984   3.016
 1751SOL    HW3 7035   0.923   4.020   2.888
 1751SOL    MW4 7036   0.913   4.027   2.974
 1752SOL     OW 7037   0.897   4.278   3.092
 1752SOL    HW2 7038   0.905   4.197   3.041
 1752SOL    HW3 7039   0.811   4.313   3.067
 1752SOL    MW4 7040   0.887   4.272   3.082
 1753SOL     OW 7041   1.125   4.412   2.970
 1753SOL    HW2 7042   1.051   4.373   3.016
 1753SOL    HW3 7043   1.133   4.500   3.006
 1753SOL    MW4 7044   1.116   4.418   2.980
 1754SOL     OW 7045   1.567   4.645   3.061
 1754SOL    HW2 7046   1.557   4.643   3.156
 1754SOL    HW3 7047   1.490   4.691   3.030
 1754SOL    MW4 7048   1.555   4.651   3.070
 1755SOL     OW 7049   1.338   0.081   2.975
 1755SOL    HW2 7050   1.341   0.163   3.024
 1755SOL    HW3 7051   1.360   0.106   2.885
 1755SOL    MW4 7052   1.341   0.095   2.970
 1756SOL     OW 7053   1.359   0.349   3.092
 1756SOL    HW2 7054   1.374   0.342   3.186
 1756SOL    HW3 7055   1.434   0.400   3.060
 1756SOL    MW4 7056   1.371   0.355   3.100
 1757SOL     OW 7057   1.529   0.544   2.983
 1757SOL    HW2 7058   1.534   0.633   3.016
 1757SOL    HW3 7059   1.550   0.552   2.889
 1757SOL    MW4 7060   1.533   0.557   2.975
 1758SOL     OW 7061   1.546   0.785   3.104
 1758SOL    HW2 7062   1.546   0.782   3.200
 1758SOL    HW3 7063   1.463   0.828   3.082
 1758SOL    MW4 7064   1.535   0.790   3.114
 1759SOL     OW 7065   1.303   0.901   2.970
 1759SOL    HW2 7066   1.294   0.989   3.005
 1759SOL    HW3 7067   1.242   0.848   3.022
 1759SOL    MW4 7068   1.294   0.905   2.981
 1760SOL     OW 7069   1.360   1.164   3.063
 1760SOL    HW2 7070   1.354   1.179   3.157
 1760SOL    HW3 7071   1.441   1.209   3.037
 1760SOL    MW4 7072   1.370   1.172   3.072
 1761SOL     OW 7073   1.583   1.294   2.985
 1761SOL    HW2 7074   1.658   1.258   3.032
 1761SOL    HW3 7075   1.573   1.382   3.019
 1761SOL    MW4 7076   1.592   1.301   2.995
 1762SOL     OW 7077   1.571   1.550   3.114
 1762SOL    HW2 7078   1.649   1.587   3.073
 1762SOL    HW3 7079   1.498   1.583   3.062
 1762SOL    MW4 7080   1.572   1.559   3.102
 1763SOL     OW 7081   1.364   1.663   2.950
 1763SOL    HW2 7082   1.341   1.750   2.981
 1763SOL    HW3 7083   1.360   1.670   2.854
 1763SOL    MW4 7084   1.360   1.675   2.941
 1764SOL     OW 7085   1.320   1.901   3.089
 1764SOL    HW2 7086   1.321   1.904   3.185
 1764SOL    HW3 7087   1.252   1.964   3.064
 1764SOL    MW4 7088   1.311   1.910   3.098
 1765SOL     OW 7089   1.546   2.052   3.013
 1765SOL    HW2 7090   1.477   1.999   3.052
 1765SOL    HW3 7091   1.535   2.040   2.919
 1765SOL    MW4 7092   1.535   2.044   3.006
 1766SOL     OW 7093   1.571   2.310   3.071
 1766SOL    HW2 7094   1.491   2.341   3.029
 1766SOL    HW3 7095   1.578   2.218   3.048
 1766SOL    MW4 7096   1.562   2.302   3.063
 1767SOL     OW 7097   1.354   2.454   2.994
 1767SOL    HW2 7098   1.271   2.424   3.029
 1767SOL    HW3 7099   1.336   2.472   2.901
 1767SOL    MW4 7100   1.341   2.452   2.986
 1768SOL     OW 7101   1.360   2.699   3.127
 1768SOL    HW2 7102   1.360   2.609   3.096
 1768SOL    HW3 7103   1.280   2.738   3.090
 1768SOL    MW4 7104   1.349   2.693   3.118
 1769SOL     OW 7105   1.549   2.838   2.977
 1769SOL    HW2 7106   1.641   2.817   2.994
 1769SOL    HW3 7107   1.501   2.792   3.046
 1769SOL    MW4 7108   1.555   2.829   2.988
 1770SOL     OW 7109   1.552   3.119   3.079
 1770SOL    HW2 7110   1.554   3.099   3.173
 1770SOL    HW3 7111   1.542   3.033   3.037
 1770SOL    MW4 7112   1.551   3.105   3.086
 1771SOL     OW 7113   1.311   3.232   2.996
 1771SOL    HW2 7114   1.396   3.210   3.034
 1771SOL    HW3 7115   1.327   3.236   2.901
 1771SOL    MW4 7116   1.324   3.229   2.988
 1772SOL     OW 7117   1.332   3.499   3.065
 1772SOL    HW2 7118   1.356   3.499   3.158
 1772SOL    HW3 7119   1.329   3.406   3.042
 1772SOL    MW4 7120   1.334   3.486   3.074
 1773SOL     OW 7121   1.581   3.586   2.987
 1773SOL    HW2 7122   1.490   3.561   3.006
 1773SOL    HW3 7123   1.582   3.600   2.892
 1773SOL    MW4 7124   1.569   3.585   2.977
 1774SOL     OW 7125   1.591   3.876   3.077
 1774SOL    HW2 7126   1.662   3.920   3.031
 1774SOL    HW3 7127   1.596   3.785   3.048
 1774SOL    MW4 7128   1.601   3.869   3.067
 1775SOL     OW 7129   1.359   4.034   2.983
 1775SOL    HW2 7130   1.433   3.975   2.995
 1775SOL    HW3 7131   1.287   3.992   3.029
 1775SOL    MW4 7132   1.359   4.021   2.991
 1776SOL     OW 7133   1.353   4.277   3.111
 1776SOL    HW2 7134   1.355   4.190   3.072
 1776SOL    HW3 7135   1.285   4.324   3.062
 1776SOL    MW4 7136   1.345   4.272   3.099
 1777SOL     OW 7137   1.534   4.397   2.956
 1777SOL    HW2 7138   1.463   4.361   3.009
 1777SOL    HW3 7139   1.552   4.483   2.993
 1777SOL    MW4 7140   1.527   4.403   2.968
 1778SOL     OW 7141   1.995   4.637   3.066
 1778SOL    HW2 7142   2.003   4.641   3.161
 1778SOL    HW3 7143   1.916   4.688   3.046
 1778SOL    MW4 7144   1.986   4.644   3.076
 1779SOL     OW 7145   1.781   0.143   3.004
 1779SOL    HW2 7146   1.701   0.093   3.024
 1779SOL    HW3 7147   1.798   0.125   2.911
 1779SOL    MW4 7148   1.773   0.134   2.994
 1780SOL     OW 7149   1.773   0.380   3.144
 1780SOL    HW2 7150   1.769   0.301   3.091
 1780SOL    HW3 7151   1.711   0.440   3.103
 1780SOL    MW4 7152   1.764   0.378   3.132
 1781SOL     OW 7153   2.029   0.499   3.059
 1781SOL    HW2 7154   1.955   0.449   3.093
 1781SOL    HW3 7155   2.015   0.503   2.965
 1781SOL    MW4 7156   2.018   0.493   3.051
 1782SOL     OW 7157   2.022   0.772   3.097
 1782SOL    HW2 7158   1.940   0.793   3.052
 1782SOL    HW3 7159   2.035   0.678   3.082
 1782SOL    MW4 7160   2.013   0.762   3.089
 1783SOL     OW 7161   1.787   0.890   2.995
 1783SOL    HW2 7162   1.712   0.855   3.044
 1783SOL    HW3 7163   1.759   0.889   2.904
 1783SOL    MW4 7164   1.774   0.885   2.990
 1784SOL     OW 7165   1.795   1.149   3.105
 1784SOL    HW2 7166   1.828   1.137   3.194
 1784SOL    HW3 7167   1.792   1.060   3.069
 1784SOL    MW4 7168   1.799   1.136   3.112
 1785SOL     OW 7169   1.991   1.301   2.985
 1785SOL    HW2 7170   2.077   1.260   3.001
 1785SOL    HW3 7171   1.930   1.251   3.039
 1785SOL    MW4 7172   1.995   1.289   2.994
 1786SOL     OW 7173   1.999   1.546   3.095
 1786SOL    HW2 7174   1.995   1.534   3.190
 1786SOL    HW3 7175   2.000   1.457   3.059
 1786SOL    MW4 7176   1.999   1.533   3.103
 1787SOL     OW 7177   1.794   1.685   2.999
 1787SOL    HW2 7178   1.793   1.772   3.040
 1787SOL    HW3 7179   1.877   1.646   3.028
 1787SOL    MW4 7180   1.805   1.691   3.008
 1788SOL     OW 7181   1.772   1.919   3.124
 1788SOL    HW2 7182   1.856   1.956   3.097
 1788SOL    HW3 7183   1.708   1.983   3.093
 1788SOL    MW4 7184   1.775   1.933   3.117
 1789SOL     OW 7185   2.002   2.036   3.015
 1789SOL    HW2 7186   2.082   1.998   3.050
 1789SOL    HW3 7187   1.988   2.116   3.065
 1789SOL    MW4 7188   2.010   2.041   3.026
 1790SOL     OW 7189   2.005   2.290   3.116
 1790SOL    HW2 7190   2.094   2.310   3.084
 1790SOL    HW3 7191   1.951   2.359   3.078
 1790SOL    MW4 7192   2.010   2.302   3.107
 1791SOL     OW 7193   1.815   2.439   2.979
 1791SOL    HW2 7194   1.811   2.526   3.019
 1791SOL    HW3 7195   1.739   2.393   3.015
 1791SOL    MW4 7196   1.804   2.445   2.989
 1792SOL     OW 7197   1.789   2.704   3.065
 1792SOL    HW2 7198   1.785   2.718   3.160
 1792SOL    HW3 7199   1.875   2.738   3.040
 1792SOL    MW4 7200   1.800   2.710   3.074
 1793SOL     OW 7201   2.050   2.804   2.956
 1793SOL    HW2 7202   2.035   2.892   2.991
 1793SOL    HW3 7203   2.039   2.813   2.862
 1793SOL    MW4 7204   2.046   2.817   2.948
 1794SOL     OW 7205   2.029   3.050   3.078
 1794SOL    HW2 7206   2.015   3.037   3.171
 1794SOL    HW3 7207   1.959   3.109   3.050
 1794SOL    MW4 7208   2.018   3.056   3.086
 1795SOL     OW 7209   1.796   3.174   2.984
 1795SOL    HW2 7210   1.709   3.158   3.019
 1795SOL    HW3 7211   1.785   3.173   2.889
 1795SOL    MW4 7212   1.783   3.172   2.976
 1796SOL     OW 7213   1.806   3.448   3.068
 1796SOL    HW2 7214   1.797   3.355   3.046
 1796SOL    HW3 7215   1.728   3.489   3.031
 1796SOL    MW4 7216   1.795   3.441   3.060
 1797SOL     OW 7217   2.023   3.571   2.963
 1797SOL    HW2 7218   2.030   3.649   3.018
 1797SOL    HW3 7219   1.944   3.527   2.993
 1797SOL    MW4 7220   2.013   3.576   2.974
 1798SOL     OW 7221   2.027   3.831   3.091
 1798SOL    HW2 7222   2.032   3.851   3.185
 1798SOL    HW3 7223   1.950   3.878   3.061
 1798SOL    MW4 7224   2.018   3.840   3.100
 1799SOL     OW 7225   1.821   3.987   2.962
 1799SOL    HW2 7226   1.813   4.077   2.995
 1799SOL    HW3 7227   1.817   3.996   2.867
 1799SOL    MW4 7228   1.819   4.000   2.954
 1800SOL     OW 7229   1.758   4.233   3.083
 1800SOL    HW2 7230   1.840   4.280   3.071
 1800SOL    HW3 7231   1.691   4.291   3.046
 1800SOL    MW4 7232   1.760   4.247   3.077
 1801SOL     OW 7233   1.990   4.372   2.991
 1801SOL    HW2 7234   1.998   4.467   3.001
 1801SOL    HW3 7235   2.001   4.356   2.897
 1801SOL    MW4 7236   1.992   4.382   2.980
 1802SOL     OW 7237   2.460   4.622   3.073
 1802SOL    HW2 7238   2.456   4.532   3.041
 1802SOL    HW3 7239   2.378   4.661   3.043
 1802SOL    MW4 7240   2.449   4.615   3.065
 1803SOL     OW 7241   2.227   0.094   2.970
 1803SOL    HW2 7242   2.228   0.186   2.994
 1803SOL    HW3 7243   2.148   0.059   3.010
 1803SOL    MW4 7244   2.217   0.101   2.978
 1804SOL     OW 7245   2.255   0.352   3.078
 1804SOL    HW2 7246   2.273   0.331   3.170
 1804SOL    HW3 7247   2.170   0.395   3.079
 1804SOL    MW4 7248   2.246   0.355   3.091
 1805SOL     OW 7249   2.479   0.499   2.967
 1805SOL    HW2 7250   2.407   0.447   3.003
 1805SOL    HW3 7251   2.469   0.493   2.872
 1805SOL    MW4 7252   2.468   0.492   2.960
 1806SOL     OW 7253   2.458   0.769   3.082
 1806SOL    HW2 7254   2.535   0.825   3.066
 1806SOL    HW3 7255   2.481   0.685   3.041
 1806SOL    MW4 7256   2.471   0.765   3.075
 1807SOL     OW 7257   2.220   0.902   2.969
 1807SOL    HW2 7258   2.298   0.856   3.000
 1807SOL    HW3 7259   2.149   0.870   3.024
 1807SOL    MW4 7260   2.221   0.892   2.980
 1808SOL     OW 7261   2.214   1.161   3.042
 1808SOL    HW2 7262   2.197   1.157   3.136
 1808SOL    HW3 7263   2.220   1.070   3.014
 1808SOL    MW4 7264   2.212   1.149   3.050
 1809SOL     OW 7265   2.453   1.278   2.985
 1809SOL    HW2 7266   2.371   1.237   3.015
 1809SOL    HW3 7267   2.450   1.269   2.890
 1809SOL    MW4 7268   2.442   1.271   2.977
 1810SOL     OW 7269   2.437   1.530   3.099
 1810SOL    HW2 7270   2.364   1.585   3.075
 1810SOL    HW3 7271   2.428   1.452   3.044
 1810SOL    MW4 7272   2.426   1.527   3.089
 1811SOL     OW 7273   2.222   1.687   2.996
 1811SOL    HW2 7274   2.149   1.629   3.020
 1811SOL    HW3 7275   2.220   1.690   2.901
 1811SOL    MW4 7276   2.212   1.680   2.987
 1812SOL     OW 7277   2.241   1.931   3.103
 1812SOL    HW2 7278   2.310   1.986   3.064
 1812SOL    HW3 7279   2.243   1.851   3.051
 1812SOL    MW4 7280   2.251   1.928   3.091
 1813SOL     OW 7281   2.460   2.085   2.976
 1813SOL    HW2 7282   2.531   2.039   3.022
 1813SOL    HW3 7283   2.485   2.080   2.884
 1813SOL    MW4 7284   2.473   2.078   2.970
 1814SOL     OW 7285   2.519   2.327   3.071
 1814SOL    HW2 7286   2.493   2.330   3.163
 1814SOL    HW3 7287   2.492   2.240   3.041
 1814SOL    MW4 7288   2.512   2.316   3.079
 1815SOL     OW 7289   2.238   2.386   3.013
 1815SOL    HW2 7290   2.225   2.480   3.026
 1815SOL    HW3 7291   2.334   2.376   3.013
 1815SOL    MW4 7292   2.249   2.397   3.015
 1816SOL     OW 7293   2.242   2.665   3.107
 1816SOL    HW2 7294   2.318   2.713   3.074
 1816SOL    HW3 7295   2.167   2.707   3.065
 1816SOL    MW4 7296   2.242   2.676   3.097
 1817SOL     OW 7297   2.456   2.801   3.006
 1817SOL    HW2 7298   2.464   2.892   3.035
 1817SOL    HW3 7299   2.453   2.805   2.911
 1817SOL    MW4 7300   2.456   2.813   2.998
 1818SOL     OW 7301   2.477   3.049   3.116
 1818SOL    HW2 7302   2.552   3.096   3.079
 1818SOL    HW3 7303   2.403   3.107   3.101
 1818SOL    MW4 7304   2.477   3.063   3.109
 1819SOL     OW 7305   2.249   3.210   3.027
 1819SOL    HW2 7306   2.232   3.298   3.062
 1819SOL    HW3 7307   2.177   3.157   3.062
 1819SOL    MW4 7308   2.237   3.215   3.036
 1820SOL     OW 7309   2.236   3.481   3.100
 1820SOL    HW2 7310   2.310   3.518   3.053
 1820SOL    HW3 7311   2.159   3.508   3.050
 1820SOL    MW4 7312   2.236   3.489   3.087
 1821SOL     OW 7313   2.460   3.589   2.977
 1821SOL    HW2 7314   2.544   3.556   3.010
 1821SOL    HW3 7315   2.461   3.682   2.997
 1821SOL    MW4 7316   2.471   3.597   2.984
 1822SOL     OW 7317   2.474   3.860   3.077
 1822SOL    HW2 7318   2.475   3.864   3.173
 1822SOL    HW3 7319   2.556   3.901   3.051
 1822SOL    MW4 7320   2.485   3.866   3.086
 1823SOL     OW 7321   2.229   3.956   2.954
 1823SOL    HW2 7322   2.306   3.929   3.004
 1823SOL    HW3 7323   2.157   3.906   2.993
 1823SOL    MW4 7324   2.230   3.946   2.965
 1824SOL     OW 7325   2.202   4.212   3.081
 1824SOL    HW2 7326   2.195   4.127   3.038
 1824SOL    HW3 7327   2.115   4.251   3.072
 1824SOL    MW4 7328   2.190   4.206   3.074
 1825SOL     OW 7329   2.453   4.360   3.003
 1825SOL    HW2 7330   2.381   4.306   3.037
 1825SOL    HW3 7331   2.443   4.356   2.908
 1825SOL    MW4 7332   2.442   4.352   2.995
 1826SOL     OW 7333   2.891   0.018   3.097
 1826SOL    HW2 7334   2.959   0.069   3.053
 1826SOL    HW3 7335   2.913  -0.073   3.075
 1826SOL    MW4 7336   2.903   0.013   3.088
 1827SOL     OW 7337   2.661   0.116   2.971
 1827SOL    HW2 7338   2.742   0.083   3.008
 1827SOL    HW3 7339   2.592   0.066   3.016
 1827SOL    MW4 7340   2.662   0.105   2.982
 1828SOL     OW 7341   2.690   0.368   3.081
 1828SOL    HW2 7342   2.689   0.277   3.054
 1828SOL    HW3 7343   2.617   0.408   3.033
 1828SOL    MW4 7344   2.680   0.362   3.071
 1829SOL     OW 7345   2.911   0.543   2.996
 1829SOL    HW2 7346   2.843   0.488   3.035
 1829SOL    HW3 7347   2.894   0.539   2.902
 1829SOL    MW4 7348   2.900   0.535   2.988
 1830SOL     OW 7349   2.902   0.789   3.128
 1830SOL    HW2 7350   2.895   0.770   3.222
 1830SOL    HW3 7351   2.908   0.702   3.087
 1830SOL    MW4 7352   2.902   0.775   3.135
 1831SOL     OW 7353   2.696   0.899   2.993
 1831SOL    HW2 7354   2.702   0.993   3.014
 1831SOL    HW3 7355   2.768   0.860   3.042
 1831SOL    MW4 7356   2.706   0.907   3.002
 1832SOL     OW 7357   2.666   1.152   3.106
 1832SOL    HW2 7358   2.731   1.212   3.070
 1832SOL    HW3 7359   2.582   1.187   3.077
 1832SOL    MW4 7360   2.664   1.164   3.097
 1833SOL     OW 7361   2.895   1.274   2.975
 1833SOL    HW2 7362   2.974   1.234   3.011
 1833SOL    HW3 7363   2.885   1.356   3.024
 1833SOL    MW4 7364   2.904   1.279   2.987
 1834SOL     OW 7365   2.885   1.512   3.098
 1834SOL    HW2 7366   2.905   1.509   3.192
 1834SOL    HW3 7367   2.960   1.558   3.060
 1834SOL    MW4 7368   2.897   1.518   3.105
 1835SOL     OW 7369   2.669   1.678   3.039
 1835SOL    HW2 7370   2.737   1.618   3.070
 1835SOL    HW3 7371   2.587   1.636   3.063
 1835SOL    MW4 7372   2.667   1.665   3.046
 1836SOL     OW 7373   2.656   1.945   3.095
 1836SOL    HW2 7374   2.745   1.979   3.085
 1836SOL    HW3 7375   2.660   1.857   3.058
 1836SOL    MW4 7376   2.668   1.938   3.089
 1837SOL     OW 7377   2.893   2.050   3.010
 1837SOL    HW2 7378   2.915   2.134   3.051
 1837SOL    HW3 7379   2.897   2.067   2.916
 1837SOL    MW4 7380   2.896   2.063   3.003
 1838SOL     OW 7381   2.982   2.328   3.079
 1838SOL    HW2 7382   3.048   2.392   3.054
 1838SOL    HW3 7383   2.901   2.362   3.042
 1838SOL    MW4 7384   2.980   2.341   3.071
 1839SOL     OW 7385   2.748   2.440   2.961
 1839SOL    HW2 7386   2.728   2.527   2.995
 1839SOL    HW3 7387   2.680   2.384   2.997
 1839SOL    MW4 7388   2.736   2.444   2.970
 1840SOL     OW 7389   2.684   2.682   3.085
 1840SOL    HW2 7390   2.683   2.699   3.179
 1840SOL    HW3 7391   2.598   2.711   3.054
 1840SOL    MW4 7392   2.673   2.688   3.093
 1841SOL     OW 7393   2.895   2.856   3.037
 1841SOL    HW2 7394   2.961   2.805   3.083
 1841SOL    HW3 7395   2.813   2.809   3.051
 1841SOL    MW4 7396   2.893   2.843   3.045
 1842SOL     OW 7397   2.967   3.093   3.142
 1842SOL    HW2 7398   2.901   3.159   3.122
 1842SOL    HW3 7399   2.933   3.012   3.102
 1842SOL    MW4 7400   2.954   3.091   3.134
 1843SOL     OW 7401   2.699   3.185   3.023
 1843SOL    HW2 7402   2.686   3.280   3.026
 1843SOL    HW3 7403   2.704   3.165   2.929
 1843SOL    MW4 7404   2.698   3.195   3.011
 1844SOL     OW 7405   2.694   3.476   3.040
 1844SOL    HW2 7406   2.698   3.477   3.136
 1844SOL    HW3 7407   2.778   3.514   3.012
 1844SOL    MW4 7408   2.706   3.481   3.049
 1845SOL     OW 7409   2.925   3.619   2.973
 1845SOL    HW2 7410   2.998   3.579   3.020
 1845SOL    HW3 7411   2.909   3.702   3.020
 1845SOL    MW4 7412   2.932   3.625   2.985
 1846SOL     OW 7413   2.938   3.865   3.085
 1846SOL    HW2 7414   2.919   3.851   3.178
 1846SOL    HW3 7415   2.861   3.912   3.052
 1846SOL    MW4 7416   2.925   3.869   3.093
 1847SOL     OW 7417   2.708   3.993   2.984
 1847SOL    HW2 7418   2.703   4.084   3.011
 1847SOL    HW3 7419   2.721   3.996   2.889
 1847SOL    MW4 7420   2.709   4.005   2.975
 1848SOL     OW 7421   2.723   4.251   3.063
 1848SOL    HW2 7422   2.727   4.221   3.154
 1848SOL    HW3 7423   2.634   4.286   3.054
 1848SOL    MW4 7424   2.712   4.252   3.074
 1849SOL     OW 7425   2.915   4.415   2.980
 1849SOL    HW2 7426   2.989   4.374   3.025
 1849SOL    HW3 7427   2.839   4.365   3.010
 1849SOL    MW4 7428   2.915   4.403   2.990
 1850SOL     OW 7429   3.324   0.002   3.061
 1850SOL    HW2 7430   3.406   0.025   3.017
 1850SOL    HW3 7431   3.317  -0.093   3.049
 1850SOL    MW4 7432   3.334  -0.008   3.054
 1851SOL     OW 7433   3.099   0.155   2.983
 1851SOL    HW2 7434   3.106   0.223   3.050
 1851SOL    HW3 7435   3.170   0.095   3.002
 1851SOL    MW4 7436   3.109   0.156   2.994
 1852SOL     OW 7437   3.101   0.410   3.140
 1852SOL    HW2 7438   3.176   0.451   3.097
 1852SOL    HW3 7439   3.025   0.455   3.103
 1852SOL    MW4 7440   3.101   0.422   3.129
 1853SOL     OW 7441   3.329   0.507   2.987
 1853SOL    HW2 7442   3.401   0.452   3.018
 1853SOL    HW3 7443   3.335   0.502   2.892
 1853SOL    MW4 7444   3.340   0.499   2.979
 1854SOL     OW 7445   3.354   0.774   3.099
 1854SOL    HW2 7446   3.335   0.789   3.192
 1854SOL    HW3 7447   3.348   0.680   3.088
 1854SOL    MW4 7448   3.351   0.764   3.110
 1855SOL     OW 7449   3.121   0.914   2.981
 1855SOL    HW2 7450   3.198   0.861   3.003
 1855SOL    HW3 7451   3.050   0.874   3.032
 1855SOL    MW4 7452   3.122   0.902   2.991
 1856SOL     OW 7453   3.134   1.177   3.119
 1856SOL    HW2 7454   3.201   1.222   3.068
 1856SOL    HW3 7455   3.127   1.090   3.079
 1856SOL    MW4 7456   3.142   1.171   3.107
 1857SOL     OW 7457   3.343   1.298   2.993
 1857SOL    HW2 7458   3.417   1.261   3.040
 1857SOL    HW3 7459   3.341   1.390   3.018
 1857SOL    MW4 7460   3.352   1.305   3.003
 1858SOL     OW 7461   3.363   1.566   3.078
 1858SOL    HW2 7462   3.384   1.568   3.171
 1858SOL    HW3 7463   3.441   1.602   3.035
 1858SOL    MW4 7464   3.376   1.571   3.084
 1859SOL     OW 7465   3.102   1.668   2.999
 1859SOL    HW2 7466   3.181   1.624   3.030
 1859SOL    HW3 7467   3.111   1.671   2.904
 1859SOL    MW4 7468   3.114   1.663   2.991
 1860SOL     OW 7469   3.118   1.922   3.097
 1860SOL    HW2 7470   3.116   1.831   3.066
 1860SOL    HW3 7471   3.037   1.961   3.063
 1860SOL    MW4 7472   3.107   1.915   3.088
 1861SOL     OW 7473   3.359   2.009   2.984
 1861SOL    HW2 7474   3.429   1.959   3.027
 1861SOL    HW3 7475   3.278   1.977   3.025
 1861SOL    MW4 7476   3.357   1.998   2.995
 1862SOL     OW 7477   3.396   2.280   3.062
 1862SOL    HW2 7478   3.409   2.266   3.156
 1862SOL    HW3 7479   3.384   2.192   3.027
 1862SOL    MW4 7480   3.396   2.266   3.070
 1863SOL     OW 7481   3.186   2.478   2.972
 1863SOL    HW2 7482   3.246   2.408   2.997
 1863SOL    HW3 7483   3.172   2.466   2.878
 1863SOL    MW4 7484   3.192   2.468   2.963
 1864SOL     OW 7485   3.136   2.707   3.105
 1864SOL    HW2 7486   3.143   2.704   3.200
 1864SOL    HW3 7487   3.153   2.617   3.077
 1864SOL    MW4 7488   3.139   2.694   3.114
 1865SOL     OW 7489   3.382   2.820   3.004
 1865SOL    HW2 7490   3.381   2.910   3.039
 1865SOL    HW3 7491   3.294   2.787   3.022
 1865SOL    MW4 7492   3.370   2.828   3.011
 1866SOL     OW 7493   3.390   3.080   3.094
 1866SOL    HW2 7494   3.404   3.104   3.185
 1866SOL    HW3 7495   3.310   3.126   3.069
 1866SOL    MW4 7496   3.381   3.089   3.103
 1867SOL     OW 7497   3.151   3.235   3.007
 1867SOL    HW2 7498   3.089   3.171   3.045
 1867SOL    HW3 7499   3.127   3.239   2.914
 1867SOL    MW4 7500   3.139   3.227   3.000
 1868SOL     OW 7501   3.139   3.497   3.109
 1868SOL    HW2 7502   3.204   3.544   3.056
 1868SOL    HW3 7503   3.144   3.407   3.077
 1868SOL    MW4 7504   3.148   3.491   3.098
 1869SOL     OW 7505   3.320   3.642   2.974
 1869SOL    HW2 7506   3.391   3.585   3.004
 1869SOL    HW3 7507   3.340   3.727   3.013
 1869SOL    MW4 7508   3.332   3.645   2.983
 1870SOL     OW 7509   3.391   3.901   3.075
 1870SOL    HW2 7510   3.383   3.888   3.169
 1870SOL    HW3 7511   3.311   3.947   3.049
 1870SOL    MW4 7512   3.380   3.905   3.084
 1871SOL     OW 7513   3.154   4.025   2.996
 1871SOL    HW2 7514   3.090   3.963   3.032
 1871SOL    HW3 7515   3.139   4.022   2.901
 1871SOL    MW4 7516   3.143   4.017   2.988
 1872SOL     OW 7517   3.128   4.279   3.083
 1872SOL    HW2 7518   3.131   4.261   3.177
 1872SOL    HW3 7519   3.138   4.193   3.042
 1872SOL    MW4 7520   3.129   4.265   3.090
 1873SOL     OW 7521   3.352   4.402   3.006
 1873SOL    HW2 7522   3.428   4.359   3.045
 1873SOL    HW3 7523   3.276   4.356   3.041
 1873SOL    MW4 7524   3.352   4.391   3.016
 1874SOL     OW 7525   3.800   0.012   3.095
 1874SOL    HW2 7526   3.788  -0.080   3.070
 1874SOL    HW3 7527   3.714   0.052   3.082
 1874SOL    MW4 7528   3.787   0.005   3.090
 1875SOL     OW 7529   3.554   0.130   2.981
 1875SOL    HW2 7530   3.560   0.219   3.014
 1875SOL    HW3 7531   3.574   0.137   2.888
 1875SOL    MW4 7532   3.557   0.142   2.973
 1876SOL     OW 7533   3.573   0.374   3.090
 1876SOL    HW2 7534   3.576   0.364   3.185
 1876SOL    HW3 7535   3.658   0.410   3.066
 1876SOL    MW4 7536   3.585   0.377   3.099
 1877SOL     OW 7537   3.792   0.482   2.964
 1877SOL    HW2 7538   3.873   0.448   3.004
 1877SOL    HW3 7539   3.788   0.573   2.993
 1877SOL    MW4 7540   3.802   0.489   2.973
 1878SOL     OW 7541   3.801   0.772   3.061
 1878SOL    HW2 7542   3.795   0.769   3.156
 1878SOL    HW3 7543   3.885   0.813   3.044
 1878SOL    MW4 7544   3.811   0.777   3.071
 1879SOL     OW 7545   3.574   0.927   3.015
 1879SOL    HW2 7546   3.652   0.874   3.028
 1879SOL    HW3 7547   3.502   0.870   3.039
 1879SOL    MW4 7548   3.575   0.913   3.020
 1880SOL     OW 7549   3.560   1.188   3.117
 1880SOL    HW2 7550   3.626   1.233   3.064
 1880SOL    HW3 7551   3.546   1.104   3.072
 1880SOL    MW4 7552   3.567   1.183   3.104
 1881SOL     OW 7553   3.814   1.283   2.981
 1881SOL    HW2 7554   3.849   1.362   3.023
 1881SOL    HW3 7555   3.787   1.313   2.894
 1881SOL    MW4 7556   3.815   1.298   2.975
 1882SOL     OW 7557   3.854   1.526   3.118
 1882SOL    HW2 7558   3.840   1.541   3.212
 1882SOL    HW3 7559   3.769   1.547   3.078
 1882SOL    MW4 7560   3.841   1.530   3.125
 1883SOL     OW 7561   3.615   1.635   2.989
 1883SOL    HW2 7562   3.618   1.723   3.027
 1883SOL    HW3 7563   3.620   1.649   2.895
 1883SOL    MW4 7564   3.616   1.649   2.982
 1884SOL     OW 7565   3.594   1.910   3.105
 1884SOL    HW2 7566   3.618   1.909   3.198
 1884SOL    HW3 7567   3.662   1.963   3.064
 1884SOL    MW4 7568   3.606   1.917   3.112
 1885SOL     OW 7569   3.816   2.060   2.985
 1885SOL    HW2 7570   3.818   2.151   3.016
 1885SOL    HW3 7571   3.831   2.066   2.891
 1885SOL    MW4 7572   3.818   2.073   2.977
 1886SOL     OW 7573   3.837   2.323   3.081
 1886SOL    HW2 7574   3.821   2.322   3.176
 1886SOL    HW3 7575   3.762   2.371   3.045
 1886SOL    MW4 7576   3.825   2.329   3.089
 1887SOL     OW 7577   3.605   2.419   2.970
 1887SOL    HW2 7578   3.605   2.507   3.006
 1887SOL    HW3 7579   3.523   2.380   3.000
 1887SOL    MW4 7580   3.594   2.425   2.979
 1888SOL     OW 7581   3.620   2.677   3.060
 1888SOL    HW2 7582   3.697   2.733   3.046
 1888SOL    HW3 7583   3.547   2.730   3.029
 1888SOL    MW4 7584   3.621   2.691   3.054
 1889SOL     OW 7585   3.813   2.858   2.970
 1889SOL    HW2 7586   3.830   2.948   3.000
 1889SOL    HW3 7587   3.797   2.867   2.876
 1889SOL    MW4 7588   3.813   2.871   2.962
 1890SOL     OW 7589   3.827   3.127   3.102
 1890SOL    HW2 7590   3.903   3.164   3.058
 1890SOL    HW3 7591   3.752   3.165   3.056
 1890SOL    MW4 7592   3.827   3.137   3.090
 1891SOL     OW 7593   3.593   3.222   2.984
 1891SOL    HW2 7594   3.521   3.164   3.008
 1891SOL    HW3 7595   3.588   3.230   2.889
 1891SOL    MW4 7596   3.583   3.216   2.974
 1892SOL     OW 7597   3.559   3.488   3.061
 1892SOL    HW2 7598   3.638   3.537   3.037
 1892SOL    HW3 7599   3.573   3.401   3.022
 1892SOL    MW4 7600   3.572   3.483   3.052
 1893SOL     OW 7601   3.807   3.597   2.982
 1893SOL    HW2 7602   3.821   3.691   2.993
 1893SOL    HW3 7603   3.799   3.584   2.888
 1893SOL    MW4 7604   3.807   3.608   2.971
 1894SOL     OW 7605   3.844   3.881   3.098
 1894SOL    HW2 7606   3.825   3.875   3.191
 1894SOL    HW3 7607   3.768   3.926   3.061
 1894SOL    MW4 7608   3.831   3.887   3.105
 1895SOL     OW 7609   3.620   4.001   2.970
 1895SOL    HW2 7610   3.544   3.953   3.004
 1895SOL    HW3 7611   3.616   3.986   2.875
 1895SOL    MW4 7612   3.609   3.993   2.962
 1896SOL     OW 7613   3.578   4.253   3.074
 1896SOL    HW2 7614   3.652   4.308   3.049
 1896SOL    HW3 7615   3.589   4.173   3.023
 1896SOL    MW4 7616   3.589   4.250   3.064
 1897SOL     OW 7617   3.787   4.428   2.986
 1897SOL    HW2 7618   3.869   4.387   3.011
 1897SOL    HW3 7619   3.785   4.421   2.890
 1897SOL    MW4 7620   3.797   4.422   2.976
 1898SOL     OW 7621   4.226   0.005   3.093
 1898SOL    HW2 7622   4.230  -0.013   3.186
 1898SOL    HW3 7623   4.231  -0.081   3.051
 1898SOL    MW4 7624   4.227  -0.009   3.099
 1899SOL     OW 7625   4.010   0.186   3.034
 1899SOL    HW2 7626   4.092   0.154   3.071
 1899SOL    HW3 7627   3.948   0.114   3.046
 1899SOL    MW4 7628   4.013   0.173   3.040
 1900SOL     OW 7629   4.016   0.443   3.102
 1900SOL    HW2 7630   4.100   0.478   3.075
 1900SOL    HW3 7631   4.017   0.351   3.073
 1900SOL    MW4 7632   4.027   0.435   3.095
 1901SOL     OW 7633   4.250   0.529   3.015
 1901SOL    HW2 7634   4.268   0.612   3.060
 1901SOL    HW3 7635   4.250   0.552   2.922
 1901SOL    MW4 7636   4.252   0.543   3.009
 1902SOL     OW 7637   4.266   0.798   3.102
 1902SOL    HW2 7638   4.193   0.845   3.061
 1902SOL    HW3 7639   4.344   0.832   3.058
 1902SOL    MW4 7640   4.266   0.809   3.091
 1903SOL     OW 7641   4.047   0.908   2.968
 1903SOL    HW2 7642   4.035   0.992   3.012
 1903SOL    HW3 7643   4.067   0.930   2.877
 1903SOL    MW4 7644   4.048   0.922   2.962
 1904SOL     OW 7645   4.026   1.164   3.106
 1904SOL    HW2 7646   4.002   1.172   3.198
 1904SOL    HW3 7647   3.950   1.195   3.058
 1904SOL    MW4 7648   4.013   1.169   3.112
 1905SOL     OW 7649   4.274   1.286   3.045
 1905SOL    HW2 7650   4.189   1.247   3.067
 1905SOL    HW3 7651   4.270   1.298   2.950
 1905SOL    MW4 7652   4.262   1.282   3.035
 1906SOL     OW 7653   4.303   1.560   3.107
 1906SOL    HW2 7654   4.213   1.593   3.096
 1906SOL    HW3 7655   4.295   1.466   3.095
 1906SOL    MW4 7656   4.290   1.552   3.104
 1907SOL     OW 7657   4.074   1.668   3.015
 1907SOL    HW2 7658   4.063   1.762   3.028
 1907SOL    HW3 7659   3.999   1.629   3.060
 1907SOL    MW4 7660   4.062   1.675   3.022
 1908SOL     OW 7661   4.040   1.935   3.089
 1908SOL    HW2 7662   4.118   1.979   3.055
 1908SOL    HW3 7663   3.967   1.985   3.053
 1908SOL    MW4 7664   4.041   1.947   3.080
 1909SOL     OW 7665   4.294   2.041   3.015
 1909SOL    HW2 7666   4.300   2.132   3.041
 1909SOL    HW3 7667   4.292   2.044   2.919
 1909SOL    MW4 7668   4.295   2.053   3.006
 1910SOL     OW 7669   4.281   2.299   3.090
 1910SOL    HW2 7670   4.214   2.355   3.051
 1910SOL    HW3 7671   4.364   2.339   3.066
 1910SOL    MW4 7672   4.283   2.312   3.082
 1911SOL     OW 7673   4.072   2.460   3.013
 1911SOL    HW2 7674   4.065   2.555   3.022
 1911SOL    HW3 7675   3.990   2.426   3.049
 1911SOL    MW4 7676   4.060   2.468   3.019
 1912SOL     OW 7677   4.059   2.739   3.062
 1912SOL    HW2 7678   4.052   2.744   3.158
 1912SOL    HW3 7679   3.979   2.780   3.030
 1912SOL    MW4 7680   4.048   2.745   3.071
 1913SOL     OW 7681   4.293   2.839   3.001
 1913SOL    HW2 7682   4.213   2.797   3.031
 1913SOL    HW3 7683   4.363   2.779   3.026
 1913SOL    MW4 7684   4.292   2.826   3.008
 1914SOL     OW 7685   4.284   3.105   3.120
 1914SOL    HW2 7686   4.204   3.145   3.087
 1914SOL    HW3 7687   4.279   3.014   3.089
 1914SOL    MW4 7688   4.273   3.098   3.111
 1915SOL     OW 7689   4.057   3.210   3.004
 1915SOL    HW2 7690   4.045   3.303   3.024
 1915SOL    HW3 7691   4.074   3.208   2.910
 1915SOL    MW4 7692   4.058   3.222   2.994
 1916SOL     OW 7693   4.050   3.470   3.117
 1916SOL    HW2 7694   4.050   3.486   3.211
 1916SOL    HW3 7695   3.965   3.505   3.087
 1916SOL    MW4 7696   4.039   3.477   3.126
 1917SOL     OW 7697   4.258   3.626   3.010
 1917SOL    HW2 7698   4.283   3.705   3.058
 1917SOL    HW3 7699   4.190   3.586   3.063
 1917SOL    MW4 7700   4.253   3.631   3.023
 1918SOL     OW 7701   4.291   3.897   3.138
 1918SOL    HW2 7702   4.213   3.942   3.104
 1918SOL    HW3 7703   4.364   3.953   3.110
 1918SOL    MW4 7704   4.291   3.911   3.130
 1919SOL     OW 7705   4.067   4.034   3.031
 1919SOL    HW2 7706   4.049   4.126   3.050
 1919SOL    HW3 7707   3.990   3.987   3.064
 1919SOL    MW4 7708   4.054   4.040   3.038
 1920SOL     OW 7709   4.024   4.307   3.076
 1920SOL    HW2 7710   4.030   4.320   3.171
 1920SOL    HW3 7711   4.104   4.346   3.042
 1920SOL    MW4 7712   4.035   4.314   3.084
 1921SOL     OW 7713   4.252   4.417   2.992
 1921SOL    HW2 7714   4.324   4.371   3.036
 1921SOL    HW3 7715   4.255   4.385   2.902
 1921SOL    MW4 7716   4.262   4.407   2.986
 1922SOL     OW 7717   0.227   0.015   3.380
 1922SOL    HW2 7718   0.307   0.057   3.410
 1922SOL    HW3 7719   0.234  -0.075   3.411
 1922SOL    MW4 7720   0.238   0.009   3.388
 1923SOL     OW 7721   4.476   0.111   3.462
 1923SOL    HW2 7722   4.468   0.202   3.433
 1923SOL    HW3 7723   4.566   0.086   3.439
 1923SOL    MW4 7724   4.487   0.119   3.455
 1924SOL     OW 7725   4.482   0.378   3.374
 1924SOL    HW2 7726   4.405   0.425   3.406
 1924SOL    HW3 7727   4.555   0.414   3.424
 1924SOL    MW4 7728   4.481   0.389   3.385
 1925SOL     OW 7729   0.232   0.511   3.482
 1925SOL    HW2 7730   0.306   0.457   3.456
 1925SOL    HW3 7731   0.242   0.592   3.432
 1925SOL    MW4 7732   0.243   0.515   3.472
 1926SOL     OW 7733   0.217   0.760   3.343
 1926SOL    HW2 7734   0.276   0.830   3.371
 1926SOL    HW3 7735   0.131   0.786   3.378
 1926SOL    MW4 7736   0.213   0.773   3.351
 1927SOL     OW 7737   4.481   0.864   3.486
 1927SOL    HW2 7738   4.482   0.882   3.580
 1927SOL    HW3 7739   4.475   0.950   3.445
 1927SOL    MW4 7740   4.480   0.877   3.493
 1928SOL     OW 7741   4.456   1.138   3.348
 1928SOL    HW2 7742   4.541   1.174   3.373
 1928SOL    HW3 7743   4.460   1.134   3.252
 1928SOL    MW4 7744   4.468   1.142   3.338
 1929SOL     OW 7745   0.184   1.295   3.443
 1929SOL    HW2 7746   0.262   1.254   3.406
 1929SOL    HW3 7747   0.190   1.387   3.417
 1929SOL    MW4 7748   0.195   1.302   3.435
 1930SOL     OW 7749   0.224   1.540   3.333
 1930SOL    HW2 7750   0.304   1.577   3.371
 1930SOL    HW3 7751   0.248   1.522   3.241
 1930SOL    MW4 7752   0.238   1.542   3.326
 1931SOL     OW 7753   0.004   1.702   3.424
 1931SOL    HW2 7754  -0.075   1.648   3.412
 1931SOL    HW3 7755   0.074   1.650   3.385
 1931SOL    MW4 7756   0.003   1.688   3.418
 1932SOL     OW 7757   4.454   1.957   3.338
 1932SOL    HW2 7758   4.465   1.864   3.360
 1932SOL    HW3 7759   4.493   1.966   3.251
 1932SOL    MW4 7760   4.460   1.946   3.330
 1933SOL     OW 7761   0.218   2.056   3.440
 1933SOL    HW2 7762   0.211   2.056   3.535
 1933SOL    HW3 7763   0.133   2.023   3.410
 1933SOL    MW4 7764   0.206   2.051   3.448
 1934SOL     OW 7765   0.215   2.310   3.313
 1934SOL    HW2 7766   0.145   2.351   3.363
 1934SOL    HW3 7767   0.221   2.221   3.347
 1934SOL    MW4 7768   0.207   2.304   3.324
 1935SOL     OW 7769   0.021   2.448   3.429
 1935SOL    HW2 7770   0.030   2.444   3.524
 1935SOL    HW3 7771  -0.066   2.411   3.411
 1935SOL    MW4 7772   0.011   2.443   3.439
 1936SOL     OW 7773   4.472   2.719   3.361
 1936SOL    HW2 7774   4.553   2.760   3.391
 1936SOL    HW3 7775   4.485   2.626   3.377
 1936SOL    MW4 7776   4.484   2.712   3.367
 1937SOL     OW 7777   0.212   2.814   3.444
 1937SOL    HW2 7778   0.280   2.764   3.400
 1937SOL    HW3 7779   0.226   2.904   3.417
 1937SOL    MW4 7780   0.223   2.819   3.435
 1938SOL     OW 7781   0.261   3.076   3.367
 1938SOL    HW2 7782   0.198   3.141   3.400
 1938SOL    HW3 7783   0.240   3.068   3.274
 1938SOL    MW4 7784   0.250   3.084   3.359
 1939SOL     OW 7785   0.042   3.225   3.482
 1939SOL    HW2 7786  -0.042   3.182   3.465
 1939SOL    HW3 7787   0.031   3.313   3.446
 1939SOL    MW4 7788   0.029   3.231   3.475
 1940SOL     OW 7789   0.037   3.493   3.376
 1940SOL    HW2 7790  -0.036   3.526   3.429
 1940SOL    HW3 7791  -0.002   3.476   3.290
 1940SOL    MW4 7792   0.022   3.495   3.372
 1941SOL     OW 7793   0.278   3.606   3.456
 1941SOL    HW2 7794   0.276   3.605   3.551
 1941SOL    HW3 7795   0.200   3.557   3.429
 1941SOL    MW4 7796   0.268   3.599   3.465
 1942SOL     OW 7797   0.210   3.881   3.415
 1942SOL    HW2 7798   0.131   3.918   3.456
 1942SOL    HW3 7799   0.218   3.794   3.454
 1942SOL    MW4 7800   0.200   3.874   3.426
 1943SOL     OW 7801   0.004   4.032   3.482
 1943SOL    HW2 7802   0.008   4.047   3.577
 1943SOL    HW3 7803   0.005   4.120   3.445
 1943SOL    MW4 7804   0.005   4.046   3.490
 1944SOL     OW 7805   0.028   4.303   3.355
 1944SOL    HW2 7806  -0.046   4.348   3.395
 1944SOL    HW3 7807   0.105   4.340   3.398
 1944SOL    MW4 7808   0.028   4.314   3.366
 1945SOL     OW 7809   0.245   4.420   3.471
 1945SOL    HW2 7810   0.247   4.414   3.566
 1945SOL    HW3 7811   0.313   4.359   3.441
 1945SOL    MW4 7812   0.254   4.411   3.479
 1946SOL     OW 7813   0.666   4.636   3.395
 1946SOL    HW2 7814   0.744   4.689   3.416
 1946SOL    HW3 7815   0.664   4.635   3.299
 1946SOL    MW4 7816   0.676   4.643   3.385
 1947SOL     OW 7817   0.461   0.104   3.504
 1947SOL    HW2 7818   0.455   0.102   3.600
 1947SOL    HW3 7819   0.526   0.036   3.484
 1947SOL    MW4 7820   0.469   0.095   3.514
 1948SOL     OW 7821   0.442   0.362   3.385
 1948SOL    HW2 7822   0.511   0.422   3.413
 1948SOL    HW3 7823   0.460   0.281   3.432
 1948SOL    MW4 7824   0.453   0.359   3.395
 1949SOL     OW 7825   0.642   0.547   3.470
 1949SOL    HW2 7826   0.654   0.543   3.565
 1949SOL    HW3 7827   0.719   0.502   3.434
 1949SOL    MW4 7828   0.654   0.540   3.478
 1950SOL     OW 7829   0.680   0.825   3.340
 1950SOL    HW2 7830   0.606   0.868   3.381
 1950SOL    HW3 7831   0.680   0.736   3.377
 1950SOL    MW4 7832   0.670   0.819   3.350
 1951SOL     OW 7833   0.414   0.929   3.427
 1951SOL    HW2 7834   0.403   0.925   3.521
 1951SOL    HW3 7835   0.417   1.022   3.407
 1951SOL    MW4 7836   0.413   0.941   3.436
 1952SOL     OW 7837   0.429   1.189   3.357
 1952SOL    HW2 7838   0.515   1.225   3.380
 1952SOL    HW3 7839   0.430   1.182   3.262
 1952SOL    MW4 7840   0.441   1.192   3.348
 1953SOL     OW 7841   0.670   1.304   3.460
 1953SOL    HW2 7842   0.755   1.265   3.440
 1953SOL    HW3 7843   0.675   1.393   3.424
 1953SOL    MW4 7844   0.682   1.311   3.453
 1954SOL     OW 7845   0.662   1.566   3.325
 1954SOL    HW2 7846   0.738   1.614   3.357
 1954SOL    HW3 7847   0.589   1.596   3.380
 1954SOL    MW4 7848   0.662   1.576   3.337
 1955SOL     OW 7849   0.437   1.633   3.482
 1955SOL    HW2 7850   0.428   1.633   3.578
 1955SOL    HW3 7851   0.429   1.726   3.458
 1955SOL    MW4 7852   0.435   1.645   3.492
 1956SOL     OW 7853   0.447   1.890   3.363
 1956SOL    HW2 7854   0.364   1.928   3.392
 1956SOL    HW3 7855   0.445   1.899   3.268
 1956SOL    MW4 7856   0.436   1.896   3.354
 1957SOL     OW 7857   0.662   2.041   3.465
 1957SOL    HW2 7858   0.646   2.057   3.558
 1957SOL    HW3 7859   0.590   1.986   3.437
 1957SOL    MW4 7860   0.651   2.036   3.473
 1958SOL     OW 7861   0.681   2.308   3.338
 1958SOL    HW2 7862   0.747   2.359   3.384
 1958SOL    HW3 7863   0.674   2.226   3.387
 1958SOL    MW4 7864   0.689   2.304   3.350
 1959SOL     OW 7865   0.436   2.424   3.435
 1959SOL    HW2 7866   0.520   2.397   3.398
 1959SOL    HW3 7867   0.371   2.380   3.379
 1959SOL    MW4 7868   0.438   2.414   3.423
 1960SOL     OW 7869   0.445   2.698   3.352
 1960SOL    HW2 7870   0.453   2.606   3.378
 1960SOL    HW3 7871   0.448   2.696   3.257
 1960SOL    MW4 7872   0.446   2.686   3.343
 1961SOL     OW 7873   0.665   2.847   3.443
 1961SOL    HW2 7874   0.739   2.793   3.416
 1961SOL    HW3 7875   0.588   2.801   3.407
 1961SOL    MW4 7876   0.665   2.834   3.434
 1962SOL     OW 7877   0.671   3.095   3.339
 1962SOL    HW2 7878   0.597   3.140   3.378
 1962SOL    HW3 7879   0.680   3.014   3.391
 1962SOL    MW4 7880   0.663   3.090   3.351
 1963SOL     OW 7881   0.463   3.241   3.465
 1963SOL    HW2 7882   0.480   3.237   3.560
 1963SOL    HW3 7883   0.382   3.191   3.453
 1963SOL    MW4 7884   0.455   3.234   3.476
 1964SOL     OW 7885   0.507   3.488   3.334
 1964SOL    HW2 7886   0.513   3.403   3.377
 1964SOL    HW3 7887   0.430   3.529   3.373
 1964SOL    MW4 7888   0.497   3.482   3.345
 1965SOL     OW 7889   0.730   3.653   3.434
 1965SOL    HW2 7890   0.808   3.599   3.425
 1965SOL    HW3 7891   0.658   3.597   3.406
 1965SOL    MW4 7892   0.730   3.638   3.429
 1966SOL     OW 7893   0.678   3.899   3.348
 1966SOL    HW2 7894   0.600   3.925   3.397
 1966SOL    HW3 7895   0.698   3.811   3.379
 1966SOL    MW4 7896   0.670   3.891   3.359
 1967SOL     OW 7897   0.443   3.996   3.482
 1967SOL    HW2 7898   0.437   4.085   3.447
 1967SOL    HW3 7899   0.359   3.957   3.459
 1967SOL    MW4 7900   0.431   4.003   3.474
 1968SOL     OW 7901   0.452   4.265   3.390
 1968SOL    HW2 7902   0.536   4.293   3.426
 1968SOL    HW3 7903   0.466   4.262   3.296
 1968SOL    MW4 7904   0.465   4.268   3.383
 1969SOL     OW 7905   0.689   4.377   3.465
 1969SOL    HW2 7906   0.764   4.343   3.417
 1969SOL    HW3 7907   0.682   4.468   3.437
 1969SOL    MW4 7908   0.698   4.385   3.455
 1970SOL     OW 7909   1.111   0.018   3.373
 1970SOL    HW2 7910   1.187   0.072   3.397
 1970SOL    HW3 7911   1.113   0.014   3.278
 1970SOL    MW4 7912   1.121   0.025   3.364
 1971SOL     OW 7913   0.875   0.132   3.462
 1971SOL    HW2 7914   0.869   0.136   3.557
 1971SOL    HW3 7915   0.964   0.100   3.445
 1971SOL    MW4 7916   0.886   0.129   3.472
 1972SOL     OW 7917   0.875   0.402   3.402
 1972SOL    HW2 7918   0.966   0.428   3.414
 1972SOL    HW3 7919   0.873   0.311   3.434
 1972SOL    MW4 7920   0.887   0.393   3.408
 1973SOL     OW 7921   1.135   0.459   3.444
 1973SOL    HW2 7922   1.123   0.458   3.539
 1973SOL    HW3 7923   1.133   0.552   3.421
 1973SOL    MW4 7924   1.133   0.471   3.453
 1974SOL     OW 7925   1.086   0.724   3.393
 1974SOL    HW2 7926   1.169   0.763   3.421
 1974SOL    HW3 7927   1.021   0.790   3.416
 1974SOL    MW4 7928   1.089   0.738   3.400
 1975SOL     OW 7929   0.900   0.930   3.450
 1975SOL    HW2 7930   0.912   1.023   3.430
 1975SOL    HW3 7931   0.807   0.913   3.431
 1975SOL    MW4 7932   0.889   0.940   3.445
 1976SOL     OW 7933   0.904   1.187   3.380
 1976SOL    HW2 7934   0.982   1.238   3.401
 1976SOL    HW3 7935   0.915   1.163   3.288
 1976SOL    MW4 7936   0.916   1.190   3.370
 1977SOL     OW 7937   1.159   1.317   3.442
 1977SOL    HW2 7938   1.146   1.323   3.537
 1977SOL    HW3 7939   1.150   1.408   3.411
 1977SOL    MW4 7940   1.156   1.330   3.451
 1978SOL     OW 7941   1.139   1.575   3.349
 1978SOL    HW2 7942   1.218   1.620   3.380
 1978SOL    HW3 7943   1.139   1.590   3.254
 1978SOL    MW4 7944   1.149   1.583   3.340
 1979SOL     OW 7945   0.879   1.684   3.435
 1979SOL    HW2 7946   0.875   1.767   3.387
 1979SOL    HW3 7947   0.961   1.643   3.405
 1979SOL    MW4 7948   0.889   1.689   3.424
 1980SOL     OW 7949   0.889   1.927   3.333
 1980SOL    HW2 7950   0.963   1.979   3.367
 1980SOL    HW3 7951   0.812   1.965   3.376
 1980SOL    MW4 7952   0.889   1.939   3.343
 1981SOL     OW 7953   1.095   2.069   3.451
 1981SOL    HW2 7954   1.165   2.024   3.403
 1981SOL    HW3 7955   1.096   2.158   3.416
 1981SOL    MW4 7956   1.105   2.075   3.440
 1982SOL     OW 7957   1.116   2.338   3.379
 1982SOL    HW2 7958   1.192   2.382   3.418
 1982SOL    HW3 7959   1.126   2.353   3.285
 1982SOL    MW4 7960   1.128   2.346   3.372
 1983SOL     OW 7961   0.878   2.437   3.485
 1983SOL    HW2 7962   0.878   2.454   3.579
 1983SOL    HW3 7963   0.964   2.399   3.467
 1983SOL    MW4 7964   0.889   2.435   3.495
 1984SOL     OW 7965   0.882   2.696   3.380
 1984SOL    HW2 7966   0.951   2.738   3.432
 1984SOL    HW3 7967   0.872   2.610   3.419
 1984SOL    MW4 7968   0.890   2.690   3.392
 1985SOL     OW 7969   1.086   2.834   3.504
 1985SOL    HW2 7970   1.101   2.845   3.598
 1985SOL    HW3 7971   1.167   2.796   3.471
 1985SOL    MW4 7972   1.098   2.831   3.512
 1986SOL     OW 7973   1.127   3.094   3.403
 1986SOL    HW2 7974   1.110   3.005   3.434
 1986SOL    HW3 7975   1.111   3.091   3.309
 1986SOL    MW4 7976   1.123   3.082   3.395
 1987SOL     OW 7977   0.902   3.244   3.459
 1987SOL    HW2 7978   0.976   3.189   3.434
 1987SOL    HW3 7979   0.825   3.197   3.427
 1987SOL    MW4 7980   0.901   3.231   3.451
 1988SOL     OW 7981   0.944   3.488   3.368
 1988SOL    HW2 7982   0.936   3.399   3.403
 1988SOL    HW3 7983   0.923   3.480   3.276
 1988SOL    MW4 7984   0.940   3.475   3.361
 1989SOL     OW 7985   1.177   3.609   3.448
 1989SOL    HW2 7986   1.175   3.597   3.543
 1989SOL    HW3 7987   1.104   3.556   3.417
 1989SOL    MW4 7988   1.167   3.600   3.457
 1990SOL     OW 7989   1.148   3.892   3.380
 1990SOL    HW2 7990   1.202   3.945   3.438
 1990SOL    HW3 7991   1.150   3.805   3.419
 1990SOL    MW4 7992   1.155   3.888   3.393
 1991SOL     OW 7993   0.904   4.030   3.454
 1991SOL    HW2 7994   0.984   3.981   3.433
 1991SOL    HW3 7995   0.836   3.987   3.403
 1991SOL    MW4 7996   0.906   4.018   3.445
 1992SOL     OW 7997   0.932   4.283   3.369
 1992SOL    HW2 7998   0.921   4.192   3.398
 1992SOL    HW3 7999   0.925   4.278   3.274
 1992SOL    MW4 8000   0.930   4.270   3.360
 1993SOL     OW 8001   1.151   4.433   3.462
 1993SOL    HW2 8002   1.084   4.385   3.413
 1993SOL    HW3 8003   1.140   4.524   3.435
 1993SOL    MW4 8004   1.141   4.439   3.452
 1994SOL     OW 8005   1.538   4.646   3.349
 1994SOL    HW2 8006   1.546   4.560   3.390
 1994SOL    HW3 8007   1.459   4.684   3.387
 1994SOL    MW4 8008   1.529   4.640   3.359
 1995SOL     OW 8009   1.332   0.154   3.470
 1995SOL    HW2 8010   1.324   0.160   3.565
 1995SOL    HW3 8011   1.357   0.243   3.442
 1995SOL    MW4 8012   1.334   0.167   3.479
 1996SOL     OW 8013   1.396   0.396   3.366
 1996SOL    HW2 8014   1.449   0.436   3.436
 1996SOL    HW3 8015   1.308   0.432   3.380
 1996SOL    MW4 8016   1.391   0.406   3.377
 1997SOL     OW 8017   1.583   0.540   3.528
 1997SOL    HW2 8018   1.559   0.534   3.620
 1997SOL    HW3 8019   1.659   0.482   3.519
 1997SOL    MW4 8020   1.590   0.531   3.539
 1998SOL     OW 8021   1.568   0.776   3.380
 1998SOL    HW2 8022   1.488   0.822   3.406
 1998SOL    HW3 8023   1.563   0.692   3.425
 1998SOL    MW4 8024   1.557   0.771   3.390
 1999SOL     OW 8025   1.323   0.885   3.458
 1999SOL    HW2 8026   1.325   0.879   3.553
 1999SOL    HW3 8027   1.313   0.979   3.441
 1999SOL    MW4 8028   1.322   0.897   3.468
 2000SOL     OW 8029   1.359   1.162   3.338
 2000SOL    HW2 8030   1.445   1.196   3.363
 2000SOL    HW3 8031   1.297   1.219   3.384
 2000SOL    MW4 8032   1.362   1.174   3.347
 2001SOL     OW 8033   1.619   1.262   3.449
 2001SOL    HW2 8034   1.594   1.233   3.537
 2001SOL    HW3 8035   1.699   1.214   3.430
 2001SOL    MW4 8036   1.626   1.252   3.458
 2002SOL     OW 8037   1.584   1.537   3.414
 2002SOL    HW2 8038   1.599   1.444   3.433
 2002SOL    HW3 8039   1.593   1.543   3.318
 2002SOL    MW4 8040   1.587   1.525   3.404
 2003SOL     OW 8041   1.368   1.683   3.458
 2003SOL    HW2 8042   1.366   1.697   3.552
 2003SOL    HW3 8043   1.448   1.633   3.443
 2003SOL    MW4 8044   1.378   1.678   3.468
 2004SOL     OW 8045   1.335   1.962   3.352
 2004SOL    HW2 8046   1.407   2.019   3.378
 2004SOL    HW3 8047   1.347   1.882   3.402
 2004SOL    MW4 8048   1.346   1.959   3.362
 2005SOL     OW 8049   1.548   2.070   3.481
 2005SOL    HW2 8050   1.638   2.041   3.467
 2005SOL    HW3 8051   1.544   2.157   3.441
 2005SOL    MW4 8052   1.559   2.078   3.474
 2006SOL     OW 8053   1.555   2.326   3.368
 2006SOL    HW2 8054   1.480   2.365   3.413
 2006SOL    HW3 8055   1.533   2.334   3.275
 2006SOL    MW4 8056   1.542   2.332   3.361
 2007SOL     OW 8057   1.330   2.454   3.474
 2007SOL    HW2 8058   1.333   2.466   3.569
 2007SOL    HW3 8059   1.347   2.542   3.439
 2007SOL    MW4 8060   1.333   2.467   3.482
 2008SOL     OW 8061   1.324   2.738   3.412
 2008SOL    HW2 8062   1.405   2.781   3.439
 2008SOL    HW3 8063   1.333   2.728   3.317
 2008SOL    MW4 8064   1.336   2.743   3.403
 2009SOL     OW 8065   1.565   2.848   3.474
 2009SOL    HW2 8066   1.635   2.797   3.433
 2009SOL    HW3 8067   1.584   2.939   3.450
 2009SOL    MW4 8068   1.577   2.854   3.466
 2010SOL     OW 8069   1.571   3.099   3.349
 2010SOL    HW2 8070   1.651   3.142   3.379
 2010SOL    HW3 8071   1.500   3.151   3.386
 2010SOL    MW4 8072   1.572   3.111   3.358
 2011SOL     OW 8073   1.361   3.227   3.451
 2011SOL    HW2 8074   1.382   3.217   3.544
 2011SOL    HW3 8075   1.287   3.167   3.436
 2011SOL    MW4 8076   1.354   3.218   3.461
 2012SOL     OW 8077   1.384   3.480   3.338
 2012SOL    HW2 8078   1.378   3.391   3.373
 2012SOL    HW3 8079   1.316   3.529   3.384
 2012SOL    MW4 8080   1.374   3.475   3.349
 2013SOL     OW 8081   1.616   3.602   3.436
 2013SOL    HW2 8082   1.613   3.598   3.531
 2013SOL    HW3 8083   1.539   3.554   3.407
 2013SOL    MW4 8084   1.606   3.595   3.444
 2014SOL     OW 8085   1.548   3.879   3.379
 2014SOL    HW2 8086   1.582   3.795   3.409
 2014SOL    HW3 8087   1.550   3.873   3.284
 2014SOL    MW4 8088   1.553   3.868   3.370
 2015SOL     OW 8089   1.356   4.024   3.502
 2015SOL    HW2 8090   1.363   4.106   3.454
 2015SOL    HW3 8091   1.424   3.969   3.465
 2015SOL    MW4 8092   1.366   4.028   3.491
 2016SOL     OW 8093   1.357   4.273   3.389
 2016SOL    HW2 8094   1.281   4.326   3.415
 2016SOL    HW3 8095   1.343   4.256   3.296
 2016SOL    MW4 8096   1.345   4.278   3.380
 2017SOL     OW 8097   1.587   4.398   3.465
 2017SOL    HW2 8098   1.666   4.352   3.436
 2017SOL    HW3 8099   1.515   4.343   3.435
 2017SOL    MW4 8100   1.588   4.384   3.457
 2018SOL     OW 8101   2.000   0.004   3.345
 2018SOL    HW2 8102   2.067   0.016   3.412
 2018SOL    HW3 8103   1.921   0.041   3.383
 2018SOL    MW4 8104   1.998   0.010   3.359
 2019SOL     OW 8105   1.777   0.094   3.467
 2019SOL    HW2 8106   1.762   0.100   3.561
 2019SOL    HW3 8107   1.700   0.049   3.433
 2019SOL    MW4 8108   1.765   0.088   3.475
 2020SOL     OW 8109   1.771   0.363   3.419
 2020SOL    HW2 8110   1.789   0.270   3.433
 2020SOL    HW3 8111   1.756   0.370   3.324
 2020SOL    MW4 8112   1.771   0.352   3.408
 2021SOL     OW 8113   2.014   0.450   3.454
 2021SOL    HW2 8114   2.010   0.541   3.424
 2021SOL    HW3 8115   1.928   0.414   3.435
 2021SOL    MW4 8116   2.002   0.457   3.448
 2022SOL     OW 8117   2.000   0.742   3.367
 2022SOL    HW2 8118   2.080   0.788   3.392
 2022SOL    HW3 8119   1.989   0.763   3.274
 2022SOL    MW4 8120   2.009   0.751   3.358
 2023SOL     OW 8121   1.794   0.873   3.500
 2023SOL    HW2 8122   1.856   0.808   3.466
 2023SOL    HW3 8123   1.708   0.843   3.471
 2023SOL    MW4 8124   1.791   0.861   3.492
 2024SOL     OW 8125   1.845   1.125   3.381
 2024SOL    HW2 8126   1.902   1.192   3.418
 2024SOL    HW3 8127   1.865   1.046   3.430
 2024SOL    MW4 8128   1.855   1.124   3.393
 2025SOL     OW 8129   2.014   1.296   3.479
 2025SOL    HW2 8130   2.009   1.311   3.573
 2025SOL    HW3 8131   2.004   1.383   3.440
 2025SOL    MW4 8132   2.012   1.309   3.486
 2026SOL     OW 8133   2.021   1.539   3.388
 2026SOL    HW2 8134   2.100   1.578   3.426
 2026SOL    HW3 8135   1.949   1.579   3.437
 2026SOL    MW4 8136   2.022   1.549   3.399
 2027SOL     OW 8137   1.798   1.658   3.507
 2027SOL    HW2 8138   1.799   1.746   3.470
 2027SOL    HW3 8139   1.714   1.621   3.478
 2027SOL    MW4 8140   1.787   1.664   3.498
 2028SOL     OW 8141   1.768   1.919   3.401
 2028SOL    HW2 8142   1.846   1.958   3.440
 2028SOL    HW3 8143   1.784   1.920   3.307
 2028SOL    MW4 8144   1.780   1.924   3.394
 2029SOL     OW 8145   2.003   2.052   3.492
 2029SOL    HW2 8146   2.082   2.012   3.455
 2029SOL    HW3 8147   2.009   2.144   3.467
 2029SOL    MW4 8148   2.015   2.059   3.484
 2030SOL     OW 8149   2.008   2.299   3.385
 2030SOL    HW2 8150   2.092   2.331   3.417
 2030SOL    HW3 8151   2.014   2.305   3.290
 2030SOL    MW4 8152   2.020   2.304   3.377
 2031SOL     OW 8153   1.795   2.457   3.425
 2031SOL    HW2 8154   1.860   2.386   3.430
 2031SOL    HW3 8155   1.715   2.413   3.396
 2031SOL    MW4 8156   1.793   2.442   3.422
 2032SOL     OW 8157   1.770   2.721   3.346
 2032SOL    HW2 8158   1.844   2.769   3.382
 2032SOL    HW3 8159   1.784   2.630   3.374
 2032SOL    MW4 8160   1.781   2.715   3.355
 2033SOL     OW 8161   2.030   2.843   3.453
 2033SOL    HW2 8162   2.019   2.851   3.548
 2033SOL    HW3 8163   2.030   2.933   3.421
 2033SOL    MW4 8164   2.028   2.856   3.461
 2034SOL     OW 8165   2.011   3.087   3.347
 2034SOL    HW2 8166   2.088   3.122   3.392
 2034SOL    HW3 8167   1.936   3.128   3.391
 2034SOL    MW4 8168   2.011   3.097   3.359
 2035SOL     OW 8169   1.796   3.223   3.452
 2035SOL    HW2 8170   1.801   3.234   3.547
 2035SOL    HW3 8171   1.821   3.308   3.416
 2035SOL    MW4 8172   1.800   3.236   3.460
 2036SOL     OW 8173   1.862   3.498   3.343
 2036SOL    HW2 8174   1.787   3.550   3.371
 2036SOL    HW3 8175   1.853   3.491   3.248
 2036SOL    MW4 8176   1.851   3.504   3.334
 2037SOL     OW 8177   2.060   3.643   3.463
 2037SOL    HW2 8178   2.141   3.593   3.450
 2037SOL    HW3 8179   1.995   3.595   3.412
 2037SOL    MW4 8180   2.062   3.630   3.454
 2038SOL     OW 8181   2.030   3.914   3.364
 2038SOL    HW2 8182   1.946   3.947   3.396
 2038SOL    HW3 8183   2.037   3.826   3.403
 2038SOL    MW4 8184   2.020   3.907   3.374
 2039SOL     OW 8185   1.778   4.026   3.467
 2039SOL    HW2 8186   1.786   4.020   3.562
 2039SOL    HW3 8187   1.691   3.990   3.448
 2039SOL    MW4 8188   1.768   4.021   3.477
 2040SOL     OW 8189   1.803   4.272   3.345
 2040SOL    HW2 8190   1.800   4.186   3.388
 2040SOL    HW3 8191   1.781   4.253   3.254
 2040SOL    MW4 8192   1.800   4.258   3.339
 2041SOL     OW 8193   2.040   4.393   3.440
 2041SOL    HW2 8194   1.959   4.353   3.409
 2041SOL    HW3 8195   2.036   4.483   3.408
 2041SOL    MW4 8196   2.029   4.399   3.431
 2042SOL     OW 8197   2.442   4.615   3.348
 2042SOL    HW2 8198   2.460   4.523   3.367
 2042SOL    HW3 8199   2.459   4.623   3.254
 2042SOL    MW4 8200   2.447   4.604   3.338
 2043SOL     OW 8201   2.236   0.058   3.496
 2043SOL    HW2 8202   2.235   0.148   3.463
 2043SOL    HW3 8203   2.290   0.010   3.434
 2043SOL    MW4 8204   2.243   0.063   3.483
 2044SOL     OW 8205   2.253   0.317   3.392
 2044SOL    HW2 8206   2.324   0.379   3.408
 2044SOL    HW3 8207   2.173   0.369   3.400
 2044SOL    MW4 8208   2.251   0.332   3.395
 2045SOL     OW 8209   2.431   0.530   3.494
 2045SOL    HW2 8210   2.500   0.497   3.437
 2045SOL    HW3 8211   2.428   0.624   3.476
 2045SOL    MW4 8212   2.440   0.538   3.484
 2046SOL     OW 8213   2.437   0.793   3.381
 2046SOL    HW2 8214   2.507   0.843   3.423
 2046SOL    HW3 8215   2.447   0.810   3.288
 2046SOL    MW4 8216   2.447   0.802   3.374
 2047SOL     OW 8217   2.193   0.920   3.463
 2047SOL    HW2 8218   2.186   1.007   3.423
 2047SOL    HW3 8219   2.280   0.889   3.437
 2047SOL    MW4 8220   2.203   0.928   3.454
 2048SOL     OW 8221   2.202   1.156   3.314
 2048SOL    HW2 8222   2.287   1.187   3.345
 2048SOL    HW3 8223   2.139   1.203   3.367
 2048SOL    MW4 8224   2.205   1.166   3.325
 2049SOL     OW 8225   2.420   1.286   3.479
 2049SOL    HW2 8226   2.414   1.296   3.574
 2049SOL    HW3 8227   2.494   1.228   3.466
 2049SOL    MW4 8228   2.429   1.280   3.490
 2050SOL     OW 8229   2.503   1.546   3.388
 2050SOL    HW2 8230   2.483   1.455   3.413
 2050SOL    HW3 8231   2.492   1.547   3.293
 2050SOL    MW4 8232   2.499   1.534   3.379
 2051SOL     OW 8233   2.246   1.647   3.498
 2051SOL    HW2 8234   2.230   1.646   3.592
 2051SOL    HW3 8235   2.327   1.597   3.487
 2051SOL    MW4 8236   2.255   1.640   3.509
 2052SOL     OW 8237   2.253   1.913   3.386
 2052SOL    HW2 8238   2.250   1.829   3.430
 2052SOL    HW3 8239   2.258   1.891   3.293
 2052SOL    MW4 8240   2.253   1.899   3.379
 2053SOL     OW 8241   2.449   2.078   3.491
 2053SOL    HW2 8242   2.452   2.073   3.587
 2053SOL    HW3 8243   2.377   2.020   3.466
 2053SOL    MW4 8244   2.440   2.069   3.500
 2054SOL     OW 8245   2.469   2.344   3.345
 2054SOL    HW2 8246   2.548   2.382   3.383
 2054SOL    HW3 8247   2.465   2.256   3.382
 2054SOL    MW4 8248   2.479   2.337   3.355
 2055SOL     OW 8249   2.257   2.416   3.483
 2055SOL    HW2 8250   2.259   2.509   3.458
 2055SOL    HW3 8251   2.335   2.379   3.442
 2055SOL    MW4 8252   2.267   2.424   3.474
 2056SOL     OW 8253   2.242   2.685   3.399
 2056SOL    HW2 8254   2.160   2.729   3.421
 2056SOL    HW3 8255   2.234   2.667   3.305
 2056SOL    MW4 8256   2.230   2.688   3.389
 2057SOL     OW 8257   2.471   2.801   3.519
 2057SOL    HW2 8258   2.455   2.886   3.479
 2057SOL    HW3 8259   2.395   2.747   3.493
 2057SOL    MW4 8260   2.459   2.805   3.510
 2058SOL     OW 8261   2.444   3.059   3.404
 2058SOL    HW2 8262   2.532   3.094   3.420
 2058SOL    HW3 8263   2.446   3.033   3.311
 2058SOL    MW4 8264   2.456   3.060   3.394
 2059SOL     OW 8265   2.232   3.223   3.471
 2059SOL    HW2 8266   2.234   3.225   3.567
 2059SOL    HW3 8267   2.298   3.157   3.447
 2059SOL    MW4 8268   2.241   3.214   3.480
 2060SOL     OW 8269   2.273   3.480   3.384
 2060SOL    HW2 8270   2.259   3.390   3.413
 2060SOL    HW3 8271   2.258   3.478   3.289
 2060SOL    MW4 8272   2.269   3.468   3.375
 2061SOL     OW 8273   2.500   3.621   3.478
 2061SOL    HW2 8274   2.488   3.705   3.434
 2061SOL    HW3 8275   2.427   3.567   3.447
 2061SOL    MW4 8276   2.489   3.625   3.468
 2062SOL     OW 8277   2.456   3.883   3.367
 2062SOL    HW2 8278   2.530   3.907   3.422
 2062SOL    HW3 8279   2.380   3.917   3.413
 2062SOL    MW4 8280   2.456   3.891   3.380
 2063SOL     OW 8281   2.260   4.008   3.495
 2063SOL    HW2 8282   2.261   4.102   3.474
 2063SOL    HW3 8283   2.185   3.973   3.449
 2063SOL    MW4 8284   2.250   4.016   3.486
 2064SOL     OW 8285   2.248   4.243   3.349
 2064SOL    HW2 8286   2.179   4.303   3.377
 2064SOL    HW3 8287   2.233   4.231   3.255
 2064SOL    MW4 8288   2.237   4.249   3.340
 2065SOL     OW 8289   2.516   4.340   3.441
 2065SOL    HW2 8290   2.515   4.357   3.535
 2065SOL    HW3 8291   2.432   4.297   3.424
 2065SOL    MW4 8292   2.505   4.336   3.451
 2066SOL     OW 8293   2.918   0.034   3.375
 2066SOL    HW2 8294   2.840   0.064   3.422
 2066SOL    HW3 8295   2.893   0.034   3.283
 2066SOL    MW4 8296   2.904   0.038   3.369
 2067SOL     OW 8297   2.666   0.117   3.460
 2067SOL    HW2 8298   2.649   0.211   3.453
 2067SOL    HW3 8299   2.583   0.076   3.432
 2067SOL    MW4 8300   2.653   0.124   3.455
 2068SOL     OW 8301   2.646   0.395   3.360
 2068SOL    HW2 8302   2.729   0.435   3.387
 2068SOL    HW3 8303   2.646   0.400   3.265
 2068SOL    MW4 8304   2.657   0.401   3.351
 2069SOL     OW 8305   2.873   0.488   3.470
 2069SOL    HW2 8306   2.878   0.495   3.566
 2069SOL    HW3 8307   2.871   0.579   3.440
 2069SOL    MW4 8308   2.873   0.501   3.479
 2070SOL     OW 8309   2.868   0.741   3.395
 2070SOL    HW2 8310   2.950   0.784   3.421
 2070SOL    HW3 8311   2.800   0.791   3.438
 2070SOL    MW4 8312   2.870   0.754   3.404
 2071SOL     OW 8313   2.660   0.881   3.510
 2071SOL    HW2 8314   2.664   0.875   3.606
 2071SOL    HW3 8315   2.675   0.974   3.491
 2071SOL    MW4 8316   2.663   0.893   3.520
 2072SOL     OW 8317   2.664   1.150   3.407
 2072SOL    HW2 8318   2.744   1.191   3.439
 2072SOL    HW3 8319   2.684   1.128   3.316
 2072SOL    MW4 8320   2.677   1.152   3.399
 2073SOL     OW 8321   2.880   1.301   3.489
 2073SOL    HW2 8322   2.882   1.283   3.583
 2073SOL    HW3 8323   2.962   1.264   3.456
 2073SOL    MW4 8324   2.891   1.294   3.497
 2074SOL     OW 8325   2.924   1.539   3.360
 2074SOL    HW2 8326   2.848   1.591   3.388
 2074SOL    HW3 8327   2.905   1.450   3.390
 2074SOL    MW4 8328   2.912   1.534   3.368
 2075SOL     OW 8329   2.720   1.698   3.446
 2075SOL    HW2 8330   2.699   1.790   3.427
 2075SOL    HW3 8331   2.640   1.650   3.423
 2075SOL    MW4 8332   2.707   1.704   3.441
 2076SOL     OW 8333   2.674   1.972   3.385
 2076SOL    HW2 8334   2.623   2.046   3.416
 2076SOL    HW3 8335   2.644   1.958   3.295
 2076SOL    MW4 8336   2.663   1.980   3.377
 2077SOL     OW 8337   2.924   2.083   3.449
 2077SOL    HW2 8338   2.924   2.066   3.543
 2077SOL    HW3 8339   2.840   2.051   3.419
 2077SOL    MW4 8340   2.913   2.077   3.457
 2078SOL     OW 8341   2.950   2.337   3.364
 2078SOL    HW2 8342   2.942   2.242   3.377
 2078SOL    HW3 8343   2.990   2.345   3.277
 2078SOL    MW4 8344   2.954   2.325   3.354
 2079SOL     OW 8345   2.710   2.436   3.433
 2079SOL    HW2 8346   2.717   2.423   3.527
 2079SOL    HW3 8347   2.794   2.404   3.398
 2079SOL    MW4 8348   2.722   2.430   3.441
 2080SOL     OW 8349   2.683   2.707   3.379
 2080SOL    HW2 8350   2.690   2.616   3.406
 2080SOL    HW3 8351   2.614   2.743   3.435
 2080SOL    MW4 8352   2.674   2.700   3.390
 2081SOL     OW 8353   2.920   2.802   3.482
 2081SOL    HW2 8354   2.913   2.780   3.575
 2081SOL    HW3 8355   2.835   2.777   3.446
 2081SOL    MW4 8356   2.908   2.795   3.490
 2082SOL     OW 8357   2.927   3.084   3.425
 2082SOL    HW2 8358   2.924   3.002   3.474
 2082SOL    HW3 8359   2.946   3.057   3.335
 2082SOL    MW4 8360   2.929   3.069   3.420
 2083SOL     OW 8361   2.672   3.191   3.460
 2083SOL    HW2 8362   2.673   3.205   3.555
 2083SOL    HW3 8363   2.753   3.143   3.442
 2083SOL    MW4 8364   2.683   3.186   3.471
 2084SOL     OW 8365   2.702   3.459   3.346
 2084SOL    HW2 8366   2.676   3.375   3.382
 2084SOL    HW3 8367   2.648   3.523   3.393
 2084SOL    MW4 8368   2.691   3.457   3.357
 2085SOL     OW 8369   2.938   3.574   3.461
 2085SOL    HW2 8370   2.927   3.662   3.424
 2085SOL    HW3 8371   2.871   3.521   3.416
 2085SOL    MW4 8372   2.928   3.579   3.450
 2086SOL     OW 8373   2.901   3.834   3.354
 2086SOL    HW2 8374   2.967   3.889   3.396
 2086SOL    HW3 8375   2.817   3.866   3.388
 2086SOL    MW4 8376   2.898   3.845   3.364
 2087SOL     OW 8377   2.699   3.976   3.459
 2087SOL    HW2 8378   2.717   3.968   3.553
 2087SOL    HW3 8379   2.741   4.058   3.434
 2087SOL    MW4 8380   2.707   3.986   3.468
 2088SOL     OW 8381   2.745   4.228   3.340
 2088SOL    HW2 8382   2.811   4.294   3.363
 2088SOL    HW3 8383   2.662   4.266   3.369
 2088SOL    MW4 8384   2.743   4.242   3.347
 2089SOL     OW 8385   2.943   4.414   3.432
 2089SOL    HW2 8386   2.910   4.411   3.522
 2089SOL    HW3 8387   2.930   4.505   3.405
 2089SOL    MW4 8388   2.937   4.426   3.440
 2090SOL     OW 8389   3.388   0.004   3.341
 2090SOL    HW2 8390   3.324   0.059   3.386
 2090SOL    HW3 8391   3.367   0.015   3.248
 2090SOL    MW4 8392   3.376   0.012   3.335
 2091SOL     OW 8393   3.170   0.136   3.457
 2091SOL    HW2 8394   3.164   0.232   3.452
 2091SOL    HW3 8395   3.092   0.105   3.412
 2091SOL    MW4 8396   3.159   0.145   3.450
 2092SOL     OW 8397   3.125   0.399   3.410
 2092SOL    HW2 8398   3.038   0.429   3.436
 2092SOL    HW3 8399   3.125   0.406   3.315
 2092SOL    MW4 8400   3.114   0.404   3.401
 2093SOL     OW 8401   3.364   0.521   3.456
 2093SOL    HW2 8402   3.370   0.530   3.551
 2093SOL    HW3 8403   3.277   0.486   3.440
 2093SOL    MW4 8404   3.353   0.518   3.466
 2094SOL     OW 8405   3.335   0.793   3.374
 2094SOL    HW2 8406   3.419   0.839   3.375
 2094SOL    HW3 8407   3.358   0.700   3.386
 2094SOL    MW4 8408   3.349   0.787   3.376
 2095SOL     OW 8409   3.087   0.895   3.448
 2095SOL    HW2 8410   3.079   0.990   3.441
 2095SOL    HW3 8411   3.176   0.877   3.419
 2095SOL    MW4 8412   3.098   0.905   3.443
 2096SOL     OW 8413   3.108   1.159   3.394
 2096SOL    HW2 8414   3.175   1.213   3.437
 2096SOL    HW3 8415   3.123   1.173   3.300
 2096SOL    MW4 8416   3.119   1.168   3.387
 2097SOL     OW 8417   3.314   1.345   3.494
 2097SOL    HW2 8418   3.382   1.295   3.450
 2097SOL    HW3 8419   3.324   1.434   3.460
 2097SOL    MW4 8420   3.324   1.350   3.484
 2098SOL     OW 8421   3.363   1.597   3.359
 2098SOL    HW2 8422   3.441   1.629   3.403
 2098SOL    HW3 8423   3.290   1.633   3.409
 2098SOL    MW4 8424   3.363   1.606   3.371
 2099SOL     OW 8425   3.150   1.663   3.487
 2099SOL    HW2 8426   3.126   1.749   3.453
 2099SOL    HW3 8427   3.087   1.603   3.447
 2099SOL    MW4 8428   3.139   1.666   3.477
 2100SOL     OW 8429   3.132   1.908   3.371
 2100SOL    HW2 8430   3.061   1.968   3.394
 2100SOL    HW3 8431   3.130   1.905   3.275
 2100SOL    MW4 8432   3.122   1.916   3.361
 2101SOL     OW 8433   3.373   2.038   3.449
 2101SOL    HW2 8434   3.361   2.127   3.416
 2101SOL    HW3 8435   3.290   1.995   3.431
 2101SOL    MW4 8436   3.360   2.044   3.443
 2102SOL     OW 8437   3.388   2.289   3.344
 2102SOL    HW2 8438   3.468   2.334   3.372
 2102SOL    HW3 8439   3.317   2.341   3.381
 2102SOL    MW4 8440   3.389   2.302   3.353
 2103SOL     OW 8441   3.182   2.444   3.494
 2103SOL    HW2 8442   3.182   2.535   3.463
 2103SOL    HW3 8443   3.110   2.403   3.447
 2103SOL    MW4 8444   3.172   2.451   3.484
 2104SOL     OW 8445   3.142   2.701   3.386
 2104SOL    HW2 8446   3.210   2.766   3.404
 2104SOL    HW3 8447   3.060   2.745   3.408
 2104SOL    MW4 8448   3.140   2.715   3.391
 2105SOL     OW 8449   3.368   2.850   3.450
 2105SOL    HW2 8450   3.432   2.788   3.416
 2105SOL    HW3 8451   3.398   2.935   3.419
 2105SOL    MW4 8452   3.380   2.853   3.442
 2106SOL     OW 8453   3.421   3.100   3.361
 2106SOL    HW2 8454   3.492   3.135   3.414
 2106SOL    HW3 8455   3.341   3.129   3.404
 2106SOL    MW4 8456   3.420   3.108   3.373
 2107SOL     OW 8457   3.195   3.198   3.478
 2107SOL    HW2 8458   3.209   3.289   3.454
 2107SOL    HW3 8459   3.110   3.176   3.441
 2107SOL    MW4 8460   3.186   3.207   3.470
 2108SOL     OW 8461   3.167   3.451   3.374
 2108SOL    HW2 8462   3.091   3.498   3.409
 2108SOL    HW3 8463   3.162   3.464   3.279
 2108SOL    MW4 8464   3.157   3.459   3.366
 2109SOL     OW 8465   3.357   3.618   3.467
 2109SOL    HW2 8466   3.337   3.706   3.435
 2109SOL    HW3 8467   3.288   3.563   3.431
 2109SOL    MW4 8468   3.346   3.622   3.458
 2110SOL     OW 8469   3.348   3.860   3.341
 2110SOL    HW2 8470   3.416   3.921   3.369
 2110SOL    HW3 8471   3.269   3.890   3.386
 2110SOL    MW4 8472   3.346   3.872   3.350
 2111SOL     OW 8473   3.129   3.986   3.441
 2111SOL    HW2 8474   3.097   4.017   3.526
 2111SOL    HW3 8475   3.141   4.065   3.390
 2111SOL    MW4 8476   3.126   4.001   3.446
 2112SOL     OW 8477   3.141   4.235   3.347
 2112SOL    HW2 8478   3.218   4.290   3.364
 2112SOL    HW3 8479   3.067   4.288   3.376
 2112SOL    MW4 8480   3.142   4.249   3.353
 2113SOL     OW 8481   3.362   4.374   3.430
 2113SOL    HW2 8482   3.334   4.371   3.521
 2113SOL    HW3 8483   3.365   4.467   3.408
 2113SOL    MW4 8484   3.359   4.386   3.439
 2114SOL     OW 8485   3.811   4.649   3.360
 2114SOL    HW2 8486   3.732   4.693   3.391
 2114SOL    HW3 8487   3.798   4.640   3.266
 2114SOL    MW4 8488   3.799   4.653   3.352
 2115SOL     OW 8489   3.590   0.128   3.468
 2115SOL    HW2 8490   3.582   0.220   3.443
 2115SOL    HW3 8491   3.517   0.085   3.424
 2115SOL    MW4 8492   3.579   0.134   3.459
 2116SOL     OW 8493   3.576   0.376   3.366
 2116SOL    HW2 8494   3.641   0.433   3.409
 2116SOL    HW3 8495   3.492   0.417   3.387
 2116SOL    MW4 8496   3.574   0.389   3.375
 2117SOL     OW 8497   3.790   0.532   3.462
 2117SOL    HW2 8498   3.792   0.542   3.557
 2117SOL    HW3 8499   3.876   0.497   3.439
 2117SOL    MW4 8500   3.802   0.529   3.471
 2118SOL     OW 8501   3.771   0.782   3.352
 2118SOL    HW2 8502   3.847   0.820   3.395
 2118SOL    HW3 8503   3.763   0.694   3.389
 2118SOL    MW4 8504   3.780   0.775   3.362
 2119SOL     OW 8505   3.563   0.951   3.424
 2119SOL    HW2 8506   3.571   0.942   3.519
 2119SOL    HW3 8507   3.636   0.900   3.389
 2119SOL    MW4 8508   3.574   0.943   3.432
 2120SOL     OW 8509   3.540   1.221   3.379
 2120SOL    HW2 8510   3.552   1.128   3.399
 2120SOL    HW3 8511   3.557   1.227   3.284
 2120SOL    MW4 8512   3.544   1.209   3.369
 2121SOL     OW 8513   3.792   1.314   3.499
 2121SOL    HW2 8514   3.802   1.286   3.590
 2121SOL    HW3 8515   3.703   1.289   3.476
 2121SOL    MW4 8516   3.782   1.307   3.508
 2122SOL     OW 8517   3.814   1.571   3.385
 2122SOL    HW2 8518   3.885   1.614   3.434
 2122SOL    HW3 8519   3.813   1.482   3.419
 2122SOL    MW4 8520   3.824   1.565   3.396
 2123SOL     OW 8521   3.593   1.675   3.502
 2123SOL    HW2 8522   3.597   1.768   3.478
 2123SOL    HW3 8523   3.664   1.635   3.451
 2123SOL    MW4 8524   3.603   1.682   3.492
 2124SOL     OW 8525   3.609   1.915   3.375
 2124SOL    HW2 8526   3.682   1.961   3.416
 2124SOL    HW3 8527   3.531   1.963   3.404
 2124SOL    MW4 8528   3.609   1.927   3.385
 2125SOL     OW 8529   3.798   2.082   3.477
 2125SOL    HW2 8530   3.804   2.068   3.571
 2125SOL    HW3 8531   3.878   2.043   3.441
 2125SOL    MW4 8532   3.809   2.075   3.484
 2126SOL     OW 8533   3.799   2.313   3.353
 2126SOL    HW2 8534   3.869   2.355   3.403
 2126SOL    HW3 8535   3.795   2.225   3.388
 2126SOL    MW4 8536   3.808   2.307   3.364
 2127SOL     OW 8537   3.572   2.464   3.458
 2127SOL    HW2 8538   3.567   2.544   3.406
 2127SOL    HW3 8539   3.650   2.419   3.426
 2127SOL    MW4 8540   3.582   2.468   3.447
 2128SOL     OW 8541   3.585   2.705   3.334
 2128SOL    HW2 8542   3.669   2.747   3.350
 2128SOL    HW3 8543   3.582   2.693   3.239
 2128SOL    MW4 8544   3.596   2.709   3.323
 2129SOL     OW 8545   3.797   2.829   3.449
 2129SOL    HW2 8546   3.816   2.834   3.543
 2129SOL    HW3 8547   3.810   2.918   3.417
 2129SOL    MW4 8548   3.801   2.842   3.457
 2130SOL     OW 8549   3.832   3.099   3.364
 2130SOL    HW2 8550   3.893   3.165   3.396
 2130SOL    HW3 8551   3.829   3.113   3.270
 2130SOL    MW4 8552   3.840   3.110   3.356
 2131SOL     OW 8553   3.623   3.241   3.511
 2131SOL    HW2 8554   3.614   3.320   3.458
 2131SOL    HW3 8555   3.700   3.196   3.474
 2131SOL    MW4 8556   3.632   3.245   3.499
 2132SOL     OW 8557   3.579   3.489   3.366
 2132SOL    HW2 8558   3.506   3.540   3.401
 2132SOL    HW3 8559   3.564   3.489   3.271
 2132SOL    MW4 8560   3.567   3.496   3.358
 2133SOL     OW 8561   3.806   3.616   3.470
 2133SOL    HW2 8562   3.812   3.590   3.562
 2133SOL    HW3 8563   3.723   3.579   3.440
 2133SOL    MW4 8564   3.796   3.607   3.478
 2134SOL     OW 8565   3.806   3.869   3.366
 2134SOL    HW2 8566   3.731   3.913   3.406
 2134SOL    HW3 8567   3.812   3.785   3.413
 2134SOL    MW4 8568   3.797   3.864   3.378
 2135SOL     OW 8569   3.571   3.985   3.456
 2135SOL    HW2 8570   3.558   4.002   3.549
 2135SOL    HW3 8571   3.592   4.070   3.418
 2135SOL    MW4 8572   3.572   3.998   3.463
 2136SOL     OW 8573   3.588   4.228   3.347
 2136SOL    HW2 8574   3.520   4.291   3.373
 2136SOL    HW3 8575   3.587   4.231   3.252
 2136SOL    MW4 8576   3.579   4.237   3.338
 2137SOL     OW 8577   3.807   4.369   3.431
 2137SOL    HW2 8578   3.725   4.332   3.400
 2137SOL    HW3 8579   3.802   4.462   3.409
 2137SOL    MW4 8580   3.796   4.376   3.424
 2138SOL     OW 8581   4.255   4.639   3.360
 2138SOL    HW2 8582   4.256   4.552   3.398
 2138SOL    HW3 8583   4.335   4.681   3.392
 2138SOL    MW4 8584   4.265   4.633   3.369
 2139SOL     OW 8585   4.023   0.101   3.473
 2139SOL    HW2 8586   4.094   0.063   3.423
 2139SOL    HW3 8587   3.943   0.065   3.433
 2139SOL    MW4 8588   4.022   0.091   3.461
 2140SOL     OW 8589   4.034   0.401   3.403
 2140SOL    HW2 8590   4.020   0.315   3.444
 2140SOL    HW3 8591   4.012   0.387   3.311
 2140SOL    MW4 8592   4.029   0.388   3.397
 2141SOL     OW 8593   4.279   0.530   3.460
 2141SOL    HW2 8594   4.280   0.625   3.451
 2141SOL    HW3 8595   4.191   0.504   3.433
 2141SOL    MW4 8596   4.267   0.539   3.455
 2142SOL     OW 8597   4.236   0.790   3.377
 2142SOL    HW2 8598   4.317   0.824   3.416
 2142SOL    HW3 8599   4.247   0.806   3.283
 2142SOL    MW4 8600   4.248   0.797   3.370
 2143SOL     OW 8601   3.993   0.893   3.453
 2143SOL    HW2 8602   3.991   0.986   3.432
 2143SOL    HW3 8603   4.083   0.866   3.435
 2143SOL    MW4 8604   4.005   0.902   3.448
 2144SOL     OW 8605   3.994   1.156   3.385
 2144SOL    HW2 8606   4.081   1.191   3.402
 2144SOL    HW3 8607   3.934   1.221   3.421
 2144SOL    MW4 8608   3.998   1.169   3.392
 2145SOL     OW 8609   4.235   1.259   3.425
 2145SOL    HW2 8610   4.250   1.354   3.423
 2145SOL    HW3 8611   4.313   1.222   3.382
 2145SOL    MW4 8612   4.247   1.267   3.419
 2146SOL     OW 8613   4.260   1.547   3.385
 2146SOL    HW2 8614   4.188   1.599   3.419
 2146SOL    HW3 8615   4.253   1.556   3.290
 2146SOL    MW4 8616   4.250   1.555   3.377
 2147SOL     OW 8617   4.040   1.696   3.496
 2147SOL    HW2 8618   4.039   1.698   3.591
 2147SOL    HW3 8619   4.039   1.788   3.469
 2147SOL    MW4 8620   4.039   1.708   3.505
 2148SOL     OW 8621   4.033   1.939   3.368
 2148SOL    HW2 8622   4.110   1.989   3.396
 2148SOL    HW3 8623   4.043   1.928   3.274
 2148SOL    MW4 8624   4.044   1.945   3.360
 2149SOL     OW 8625   4.241   2.092   3.450
 2149SOL    HW2 8626   4.257   2.179   3.414
 2149SOL    HW3 8627   4.306   2.036   3.407
 2149SOL    MW4 8628   4.252   2.096   3.440
 2150SOL     OW 8629   4.269   2.351   3.365
 2150SOL    HW2 8630   4.204   2.418   3.385
 2150SOL    HW3 8631   4.261   2.337   3.271
 2150SOL    MW4 8632   4.259   2.358   3.355
 2151SOL     OW 8633   4.021   2.491   3.416
 2151SOL    HW2 8634   4.014   2.485   3.511
 2151SOL    HW3 8635   4.033   2.585   3.400
 2151SOL    MW4 8636   4.022   2.503   3.427
 2152SOL     OW 8637   4.050   2.748   3.331
 2152SOL    HW2 8638   4.123   2.793   3.373
 2152SOL    HW3 8639   3.972   2.789   3.368
 2152SOL    MW4 8640   4.049   2.759   3.341
 2153SOL     OW 8641   4.254   2.875   3.445
 2153SOL    HW2 8642   4.254   2.852   3.538
 2153SOL    HW3 8643   4.332   2.832   3.411
 2153SOL    MW4 8644   4.264   2.866   3.453
 2154SOL     OW 8645   4.272   3.149   3.408
 2154SOL    HW2 8646   4.262   3.059   3.438
 2154SOL    HW3 8647   4.264   3.144   3.313
 2154SOL    MW4 8648   4.269   3.137   3.400
 2155SOL     OW 8649   4.021   3.264   3.480
 2155SOL    HW2 8650   4.027   3.354   3.449
 2155SOL    HW3 8651   4.099   3.221   3.443
 2155SOL    MW4 8652   4.032   3.270   3.471
 2156SOL     OW 8653   4.068   3.509   3.392
 2156SOL    HW2 8654   4.144   3.532   3.445
 2156SOL    HW3 8655   3.994   3.552   3.434
 2156SOL    MW4 8656   4.068   3.517   3.404
 2157SOL     OW 8657   4.289   3.599   3.524
 2157SOL    HW2 8658   4.288   3.605   3.619
 2157SOL    HW3 8659   4.272   3.688   3.494
 2157SOL    MW4 8660   4.287   3.612   3.532
 2158SOL     OW 8661   4.274   3.859   3.423
 2158SOL    HW2 8662   4.351   3.909   3.450
 2158SOL    HW3 8663   4.277   3.859   3.328
 2158SOL    MW4 8664   4.284   3.866   3.414
 2159SOL     OW 8665   4.050   3.997   3.465
 2159SOL    HW2 8666   4.127   3.941   3.454
 2159SOL    HW3 8667   3.984   3.958   3.408
 2159SOL    MW4 8668   4.052   3.984   3.456
 2160SOL     OW 8669   4.048   4.247   3.371
 2160SOL    HW2 8670   4.058   4.159   3.408
 2160SOL    HW3 8671   3.959   4.272   3.393
 2160SOL    MW4 8672   4.038   4.238   3.379
 2161SOL     OW 8673   4.272   4.391   3.461
 2161SOL    HW2 8674   4.254   4.393   3.555
 2161SOL    HW3 8675   4.195   4.348   3.423
 2161SOL    MW4 8676   4.259   4.386   3.468
 2162SOL     OW 8677   0.202   4.642   3.839
 2162SOL    HW2 8678   0.191   4.663   3.932
 2162SOL    HW3 8679   0.134   4.694   3.795
 2162SOL    MW4 8680   0.191   4.652   3.845
 2163SOL     OW 8681   4.476   0.110   3.735
 2163SOL    HW2 8682   4.460   0.196   3.773
 2163SOL    HW3 8683   4.455   0.120   3.642
 2163SOL    MW4 8684   4.471   0.123   3.728
 2164SOL     OW 8685   4.460   0.377   3.817
 2164SOL    HW2 8686   4.385   0.429   3.789
 2164SOL    HW3 8687   4.536   0.429   3.793
 2164SOL    MW4 8688   4.460   0.391   3.810
 2165SOL     OW 8689   0.233   0.502   3.778
 2165SOL    HW2 8690   0.255   0.595   3.787
 2165SOL    HW3 8691   0.241   0.486   3.684
 2165SOL    MW4 8692   0.237   0.512   3.767
 2166SOL     OW 8693   0.231   0.818   3.828
 2166SOL    HW2 8694   0.238   0.815   3.923
 2166SOL    HW3 8695   0.138   0.835   3.811
 2166SOL    MW4 8696   0.219   0.820   3.838
 2167SOL     OW 8697   4.474   0.882   3.761
 2167SOL    HW2 8698   4.394   0.852   3.803
 2167SOL    HW3 8699   4.486   0.972   3.792
 2167SOL    MW4 8700   4.465   0.890   3.771
 2168SOL     OW 8701   0.033   1.146   3.842
 2168SOL    HW2 8702  -0.052   1.188   3.823
 2168SOL    HW3 8703   0.093   1.184   3.778
 2168SOL    MW4 8704   0.029   1.157   3.831
 2169SOL     OW 8705   0.234   1.276   3.717
 2169SOL    HW2 8706   0.233   1.365   3.753
 2169SOL    HW3 8707   0.224   1.289   3.622
 2169SOL    MW4 8708   0.233   1.290   3.709
 2170SOL     OW 8709   0.190   1.527   3.820
 2170SOL    HW2 8710   0.182   1.538   3.915
 2170SOL    HW3 8711   0.119   1.580   3.784
 2170SOL    MW4 8712   0.179   1.536   3.828
 2171SOL     OW 8713   4.483   1.683   3.708
 2171SOL    HW2 8714   4.482   1.771   3.745
 2171SOL    HW3 8715   4.485   1.698   3.613
 2171SOL    MW4 8716   4.483   1.697   3.700
 2172SOL     OW 8717   4.476   1.929   3.824
 2172SOL    HW2 8718   4.481   1.943   3.919
 2172SOL    HW3 8719   4.404   1.986   3.795
 2172SOL    MW4 8720   4.467   1.939   3.833
 2173SOL     OW 8721   0.198   2.064   3.704
 2173SOL    HW2 8722   0.212   2.145   3.754
 2173SOL    HW3 8723   0.130   2.017   3.754
 2173SOL    MW4 8724   0.191   2.068   3.717
 2174SOL     OW 8725   0.222   2.309   3.825
 2174SOL    HW2 8726   0.214   2.325   3.919
 2174SOL    HW3 8727   0.148   2.356   3.786
 2174SOL    MW4 8728   0.211   2.317   3.833
 2175SOL     OW 8729   0.019   2.448   3.698
 2175SOL    HW2 8730  -0.069   2.415   3.719
 2175SOL    HW3 8731   0.015   2.541   3.720
 2175SOL    MW4 8732   0.007   2.456   3.704
 2176SOL     OW 8733   0.007   2.711   3.811
 2176SOL    HW2 8734  -0.016   2.731   3.902
 2176SOL    HW3 8735   0.088   2.759   3.795
 2176SOL    MW4 8736   0.014   2.720   3.821
 2177SOL     OW 8737   0.250   2.851   3.715
 2177SOL    HW2 8738   0.316   2.793   3.754
 2177SOL    HW3 8739   0.243   2.820   3.624
 2177SOL    MW4 8740   0.258   2.839   3.708
 2178SOL     OW 8741   0.221   3.118   3.816
 2178SOL    HW2 8742   0.212   3.119   3.911
 2178SOL    HW3 8743   0.240   3.027   3.794
 2178SOL    MW4 8744   0.222   3.106   3.825
 2179SOL     OW 8745   0.015   3.273   3.763
 2179SOL    HW2 8746   0.082   3.205   3.776
 2179SOL    HW3 8747   0.002   3.276   3.668
 2179SOL    MW4 8748   0.022   3.264   3.752
 2180SOL     OW 8749   0.020   3.522   3.859
 2180SOL    HW2 8750   0.094   3.570   3.822
 2180SOL    HW3 8751   0.031   3.433   3.827
 2180SOL    MW4 8752   0.031   3.517   3.850
 2181SOL     OW 8753   0.247   3.628   3.729
 2181SOL    HW2 8754   0.322   3.586   3.770
 2181SOL    HW3 8755   0.248   3.718   3.761
 2181SOL    MW4 8756   0.257   3.635   3.738
 2182SOL     OW 8757   0.230   3.898   3.837
 2182SOL    HW2 8758   0.232   3.887   3.932
 2182SOL    HW3 8759   0.317   3.931   3.815
 2182SOL    MW4 8760   0.242   3.901   3.847
 2183SOL     OW 8761   0.007   4.055   3.755
 2183SOL    HW2 8762  -0.063   4.013   3.805
 2183SOL    HW3 8763   0.084   4.001   3.771
 2183SOL    MW4 8764   0.008   4.043   3.764
 2184SOL     OW 8765   4.473   4.308   3.830
 2184SOL    HW2 8766   4.552   4.335   3.783
 2184SOL    HW3 8767   4.471   4.213   3.822
 2184SOL    MW4 8768   4.483   4.299   3.823
 2185SOL     OW 8769   0.239   4.376   3.732
 2185SOL    HW2 8770   0.301   4.333   3.790
 2185SOL    HW3 8771   0.229   4.464   3.768
 2185SOL    MW4 8772   0.246   4.382   3.744
 2186SOL     OW 8773   0.669   4.644   3.880
 2186SOL    HW2 8774   0.660   4.559   3.837
 2186SOL    HW3 8775   0.590   4.691   3.857
 2186SOL    MW4 8776   0.658   4.639   3.871
 2187SOL     OW 8777   0.431   0.094   3.786
 2187SOL    HW2 8778   0.432   0.181   3.825
 2187SOL    HW3 8779   0.343   0.060   3.804
 2187SOL    MW4 8780   0.420   0.101   3.794
 2188SOL     OW 8781   0.447   0.367   3.876
 2188SOL    HW2 8782   0.524   0.423   3.864
 2188SOL    HW3 8783   0.375   0.418   3.839
 2188SOL    MW4 8784   0.448   0.381   3.869
 2189SOL     OW 8785   0.657   0.526   3.735
 2189SOL    HW2 8786   0.729   0.474   3.769
 2189SOL    HW3 8787   0.668   0.612   3.775
 2189SOL    MW4 8788   0.668   0.530   3.744
 2190SOL     OW 8789   0.647   0.783   3.829
 2190SOL    HW2 8790   0.729   0.829   3.813
 2190SOL    HW3 8791   0.582   0.832   3.779
 2190SOL    MW4 8792   0.649   0.795   3.820
 2191SOL     OW 8793   0.447   0.934   3.706
 2191SOL    HW2 8794   0.465   1.013   3.757
 2191SOL    HW3 8795   0.368   0.897   3.746
 2191SOL    MW4 8796   0.439   0.939   3.718
 2192SOL     OW 8797   0.440   1.147   3.854
 2192SOL    HW2 8798   0.489   1.212   3.803
 2192SOL    HW3 8799   0.349   1.160   3.829
 2192SOL    MW4 8800   0.434   1.157   3.844
 2193SOL     OW 8801   0.661   1.296   3.741
 2193SOL    HW2 8802   0.744   1.256   3.768
 2193SOL    HW3 8803   0.657   1.282   3.647
 2193SOL    MW4 8804   0.671   1.289   3.732
 2194SOL     OW 8805   0.662   1.558   3.838
 2194SOL    HW2 8806   0.731   1.605   3.793
 2194SOL    HW3 8807   0.667   1.469   3.803
 2194SOL    MW4 8808   0.672   1.552   3.828
 2195SOL     OW 8809   0.425   1.669   3.756
 2195SOL    HW2 8810   0.502   1.642   3.806
 2195SOL    HW3 8811   0.353   1.617   3.792
 2195SOL    MW4 8812   0.425   1.658   3.767
 2196SOL     OW 8813   0.400   1.930   3.846
 2196SOL    HW2 8814   0.409   1.843   3.807
 2196SOL    HW3 8815   0.321   1.967   3.806
 2196SOL    MW4 8816   0.390   1.924   3.836
 2197SOL     OW 8817   0.600   2.088   3.742
 2197SOL    HW2 8818   0.615   2.162   3.801
 2197SOL    HW3 8819   0.525   2.043   3.781
 2197SOL    MW4 8820   0.592   2.092   3.755
 2198SOL     OW 8821   0.644   2.329   3.871
 2198SOL    HW2 8822   0.721   2.376   3.840
 2198SOL    HW3 8823   0.570   2.374   3.831
 2198SOL    MW4 8824   0.644   2.341   3.861
 2199SOL     OW 8825   0.434   2.439   3.729
 2199SOL    HW2 8826   0.348   2.402   3.753
 2199SOL    HW3 8827   0.438   2.431   3.634
 2199SOL    MW4 8828   0.423   2.433   3.720
 2200SOL     OW 8829   0.469   2.695   3.859
 2200SOL    HW2 8830   0.531   2.746   3.806
 2200SOL    HW3 8831   0.477   2.606   3.825
 2200SOL    MW4 8832   0.478   2.690   3.847
 2201SOL     OW 8833   0.649   2.840   3.724
 2201SOL    HW2 8834   0.722   2.790   3.760
 2201SOL    HW3 8835   0.668   2.846   3.630
 2201SOL    MW4 8836   0.661   2.835   3.717
 2202SOL     OW 8837   0.692   3.102   3.830
 2202SOL    HW2 8838   0.702   3.084   3.923
 2202SOL    HW3 8839   0.679   3.016   3.790
 2202SOL    MW4 8840   0.692   3.088   3.837
 2203SOL     OW 8841   0.475   3.263   3.738
 2203SOL    HW2 8842   0.541   3.201   3.770
 2203SOL    HW3 8843   0.391   3.225   3.767
 2203SOL    MW4 8844   0.472   3.249   3.746
 2204SOL     OW 8845   0.476   3.533   3.839
 2204SOL    HW2 8846   0.553   3.575   3.801
 2204SOL    HW3 8847   0.480   3.443   3.807
 2204SOL    MW4 8848   0.487   3.527   3.830
 2205SOL     OW 8849   0.707   3.609   3.712
 2205SOL    HW2 8850   0.706   3.691   3.763
 2205SOL    HW3 8851   0.717   3.638   3.621
 2205SOL    MW4 8852   0.708   3.624   3.707
 2206SOL     OW 8853   0.692   3.848   3.843
 2206SOL    HW2 8854   0.701   3.836   3.937
 2206SOL    HW3 8855   0.772   3.892   3.816
 2206SOL    MW4 8856   0.704   3.852   3.852
 2207SOL     OW 8857   0.469   4.001   3.765
 2207SOL    HW2 8858   0.542   3.941   3.781
 2207SOL    HW3 8859   0.458   4.001   3.670
 2207SOL    MW4 8860   0.477   3.993   3.755
 2208SOL     OW 8861   0.436   4.262   3.874
 2208SOL    HW2 8862   0.506   4.306   3.825
 2208SOL    HW3 8863   0.443   4.170   3.849
 2208SOL    MW4 8864   0.446   4.256   3.864
 2209SOL     OW 8865   0.654   4.402   3.734
 2209SOL    HW2 8866   0.728   4.353   3.770
 2209SOL    HW3 8867   0.670   4.405   3.640
 2209SOL    MW4 8868   0.666   4.396   3.727
 2210SOL     OW 8869   1.084   4.660   3.844
 2210SOL    HW2 8870   1.160   4.710   3.813
 2210SOL    HW3 8871   1.100   4.571   3.814
 2210SOL    MW4 8872   1.097   4.655   3.836
 2211SOL     OW 8873   0.863   0.124   3.751
 2211SOL    HW2 8874   0.946   0.083   3.776
 2211SOL    HW3 8875   0.796   0.069   3.792
 2211SOL    MW4 8876   0.865   0.111   3.760
 2212SOL     OW 8877   0.866   0.388   3.834
 2212SOL    HW2 8878   0.838   0.401   3.925
 2212SOL    HW3 8879   0.846   0.297   3.816
 2212SOL    MW4 8880   0.860   0.378   3.844
 2213SOL     OW 8881   1.110   0.449   3.724
 2213SOL    HW2 8882   1.176   0.417   3.786
 2213SOL    HW3 8883   1.026   0.437   3.770
 2213SOL    MW4 8884   1.108   0.443   3.739
 2214SOL     OW 8885   1.096   0.732   3.818
 2214SOL    HW2 8886   1.098   0.747   3.912
 2214SOL    HW3 8887   1.111   0.638   3.808
 2214SOL    MW4 8888   1.098   0.721   3.829
 2215SOL     OW 8889   0.882   0.905   3.747
 2215SOL    HW2 8890   0.957   0.848   3.764
 2215SOL    HW3 8891   0.876   0.910   3.651
 2215SOL    MW4 8892   0.891   0.898   3.736
 2216SOL     OW 8893   0.922   1.170   3.807
 2216SOL    HW2 8894   0.927   1.171   3.903
 2216SOL    HW3 8895   0.933   1.077   3.784
 2216SOL    MW4 8896   0.924   1.158   3.817
 2217SOL     OW 8897   1.140   1.319   3.716
 2217SOL    HW2 8898   1.131   1.407   3.753
 2217SOL    HW3 8899   1.062   1.272   3.747
 2217SOL    MW4 8900   1.129   1.324   3.725
 2218SOL     OW 8901   1.114   1.590   3.795
 2218SOL    HW2 8902   1.090   1.604   3.887
 2218SOL    HW3 8903   1.206   1.617   3.791
 2218SOL    MW4 8904   1.123   1.596   3.807
 2219SOL     OW 8905   0.874   1.701   3.712
 2219SOL    HW2 8906   0.963   1.668   3.724
 2219SOL    HW3 8907   0.854   1.683   3.621
 2219SOL    MW4 8908   0.884   1.694   3.702
 2220SOL     OW 8909   0.835   1.958   3.824
 2220SOL    HW2 8910   0.842   1.866   3.797
 2220SOL    HW3 8911   0.746   1.983   3.799
 2220SOL    MW4 8912   0.824   1.949   3.817
 2221SOL     OW 8913   1.096   2.047   3.750
 2221SOL    HW2 8914   1.007   2.013   3.760
 2221SOL    HW3 8915   1.109   2.051   3.655
 2221SOL    MW4 8916   1.086   2.043   3.739
 2222SOL     OW 8917   1.077   2.313   3.826
 2222SOL    HW2 8918   1.068   2.296   3.920
 2222SOL    HW3 8919   1.096   2.227   3.788
 2222SOL    MW4 8920   1.078   2.299   3.833
 2223SOL     OW 8921   0.847   2.463   3.775
 2223SOL    HW2 8922   0.869   2.545   3.818
 2223SOL    HW3 8923   0.923   2.406   3.789
 2223SOL    MW4 8924   0.860   2.466   3.782
 2224SOL     OW 8925   0.863   2.737   3.909
 2224SOL    HW2 8926   0.857   2.750   4.004
 2224SOL    HW3 8927   0.943   2.781   3.883
 2224SOL    MW4 8928   0.873   2.744   3.918
 2225SOL     OW 8929   1.094   2.867   3.781
 2225SOL    HW2 8930   1.170   2.815   3.754
 2225SOL    HW3 8931   1.127   2.956   3.788
 2225SOL    MW4 8932   1.108   2.872   3.779
 2226SOL     OW 8933   1.154   3.119   3.826
 2226SOL    HW2 8934   1.230   3.168   3.795
 2226SOL    HW3 8935   1.079   3.165   3.789
 2226SOL    MW4 8936   1.154   3.131   3.817
 2227SOL     OW 8937   0.920   3.238   3.747
 2227SOL    HW2 8938   0.842   3.193   3.778
 2227SOL    HW3 8939   0.909   3.241   3.652
 2227SOL    MW4 8940   0.908   3.232   3.739
 2228SOL     OW 8941   0.933   3.509   3.880
 2228SOL    HW2 8942   0.948   3.416   3.861
 2228SOL    HW3 8943   0.856   3.532   3.829
 2228SOL    MW4 8944   0.925   3.499   3.871
 2229SOL     OW 8945   1.149   3.621   3.728
 2229SOL    HW2 8946   1.152   3.712   3.760
 2229SOL    HW3 8947   1.074   3.583   3.773
 2229SOL    MW4 8948   1.140   3.628   3.738
 2230SOL     OW 8949   1.117   3.885   3.827
 2230SOL    HW2 8950   1.120   3.874   3.922
 2230SOL    HW3 8951   1.180   3.954   3.808
 2230SOL    MW4 8952   1.126   3.892   3.837
 2231SOL     OW 8953   0.898   4.006   3.755
 2231SOL    HW2 8954   0.973   3.951   3.778
 2231SOL    HW3 8955   0.904   4.016   3.660
 2231SOL    MW4 8956   0.908   4.000   3.745
 2232SOL     OW 8957   0.897   4.266   3.852
 2232SOL    HW2 8958   0.901   4.263   3.947
 2232SOL    HW3 8959   0.891   4.174   3.824
 2232SOL    MW4 8960   0.897   4.254   3.861
 2233SOL     OW 8961   1.114   4.377   3.740
 2233SOL    HW2 8962   1.033   4.330   3.762
 2233SOL    HW3 8963   1.111   4.384   3.644
 2233SOL    MW4 8964   1.103   4.372   3.730
 2234SOL     OW 8965   1.539   4.651   3.859
 2234SOL    HW2 8966   1.548   4.637   3.953
 2234SOL    HW3 8967   1.548   4.563   3.821
 2234SOL    MW4 8968   1.541   4.637   3.866
 2235SOL     OW 8969   1.320   0.131   3.752
 2235SOL    HW2 8970   1.314   0.217   3.793
 2235SOL    HW3 8971   1.395   0.089   3.795
 2235SOL    MW4 8972   1.329   0.137   3.763
 2236SOL     OW 8973   1.318   0.370   3.905
 2236SOL    HW2 8974   1.320   0.365   4.001
 2236SOL    HW3 8975   1.371   0.446   3.883
 2236SOL    MW4 8976   1.325   0.379   3.915
 2237SOL     OW 8977   1.534   0.508   3.801
 2237SOL    HW2 8978   1.618   0.464   3.813
 2237SOL    HW3 8979   1.548   0.596   3.835
 2237SOL    MW4 8980   1.547   0.514   3.807
 2238SOL     OW 8981   1.568   0.781   3.848
 2238SOL    HW2 8982   1.638   0.839   3.818
 2238SOL    HW3 8983   1.488   0.820   3.814
 2238SOL    MW4 8984   1.567   0.794   3.840
 2239SOL     OW 8985   1.334   0.866   3.731
 2239SOL    HW2 8986   1.317   0.957   3.755
 2239SOL    HW3 8987   1.256   0.818   3.761
 2239SOL    MW4 8988   1.321   0.871   3.738
 2240SOL     OW 8989   1.344   1.140   3.786
 2240SOL    HW2 8990   1.425   1.191   3.780
 2240SOL    HW3 8991   1.274   1.202   3.766
 2240SOL    MW4 8992   1.346   1.155   3.783
 2241SOL     OW 8993   1.586   1.291   3.748
 2241SOL    HW2 8994   1.675   1.268   3.776
 2241SOL    HW3 8995   1.577   1.383   3.772
 2241SOL    MW4 8996   1.597   1.300   3.755
 2242SOL     OW 8997   1.574   1.557   3.855
 2242SOL    HW2 8998   1.568   1.562   3.950
 2242SOL    HW3 8999   1.656   1.601   3.833
 2242SOL    MW4 9000   1.584   1.564   3.865
 2243SOL     OW 9001   1.362   1.688   3.725
 2243SOL    HW2 9002   1.354   1.773   3.769
 2243SOL    HW3 9003   1.441   1.649   3.763
 2243SOL    MW4 9004   1.372   1.694   3.736
 2244SOL     OW 9005   1.346   1.941   3.837
 2244SOL    HW2 9006   1.338   1.925   3.931
 2244SOL    HW3 9007   1.261   1.976   3.812
 2244SOL    MW4 9008   1.334   1.944   3.846
 2245SOL     OW 9009   1.558   2.080   3.763
 2245SOL    HW2 9010   1.484   2.028   3.796
 2245SOL    HW3 9011   1.555   2.067   3.668
 2245SOL    MW4 9012   1.548   2.071   3.755
 2246SOL     OW 9013   1.596   2.348   3.818
 2246SOL    HW2 9014   1.676   2.374   3.773
 2246SOL    HW3 9015   1.587   2.255   3.799
 2246SOL    MW4 9016   1.605   2.339   3.809
 2247SOL     OW 9017   1.337   2.441   3.748
 2247SOL    HW2 9018   1.421   2.424   3.790
 2247SOL    HW3 9019   1.274   2.392   3.801
 2247SOL    MW4 9020   1.340   2.432   3.761
 2248SOL     OW 9021   1.311   2.698   3.820
 2248SOL    HW2 9022   1.319   2.697   3.916
 2248SOL    HW3 9023   1.313   2.606   3.795
 2248SOL    MW4 9024   1.313   2.686   3.830
 2249SOL     OW 9025   1.535   2.850   3.744
 2249SOL    HW2 9026   1.453   2.806   3.769
 2249SOL    HW3 9027   1.534   2.849   3.648
 2249SOL    MW4 9028   1.524   2.844   3.734
 2250SOL     OW 9029   1.593   3.095   3.884
 2250SOL    HW2 9030   1.586   3.078   3.977
 2250SOL    HW3 9031   1.584   3.009   3.842
 2250SOL    MW4 9032   1.591   3.082   3.891
 2251SOL     OW 9033   1.397   3.231   3.748
 2251SOL    HW2 9034   1.393   3.324   3.771
 2251SOL    HW3 9035   1.464   3.195   3.807
 2251SOL    MW4 9036   1.406   3.239   3.759
 2252SOL     OW 9037   1.366   3.484   3.839
 2252SOL    HW2 9038   1.436   3.527   3.791
 2252SOL    HW3 9039   1.285   3.521   3.802
 2252SOL    MW4 9040   1.364   3.495   3.828
 2253SOL     OW 9041   1.583   3.618   3.734
 2253SOL    HW2 9042   1.660   3.583   3.778
 2253SOL    HW3 9043   1.581   3.711   3.758
 2253SOL    MW4 9044   1.593   3.626   3.743
 2254SOL     OW 9045   1.569   3.877   3.831
 2254SOL    HW2 9046   1.556   3.867   3.925
 2254SOL    HW3 9047   1.500   3.936   3.803
 2254SOL    MW4 9048   1.558   3.883   3.840
 2255SOL     OW 9049   1.344   4.032   3.767
 2255SOL    HW2 9050   1.340   4.119   3.806
 2255SOL    HW3 9051   1.348   4.047   3.673
 2255SOL    MW4 9052   1.344   4.045   3.760
 2256SOL     OW 9053   1.345   4.287   3.878
 2256SOL    HW2 9054   1.410   4.348   3.841
 2256SOL    HW3 9055   1.262   4.316   3.841
 2256SOL    MW4 9056   1.343   4.299   3.868
 2257SOL     OW 9057   1.551   4.402   3.749
 2257SOL    HW2 9058   1.616   4.358   3.803
 2257SOL    HW3 9059   1.573   4.378   3.659
 2257SOL    MW4 9060   1.562   4.393   3.744
 2258SOL     OW 9061   1.974   4.666   3.838
 2258SOL    HW2 9062   2.054   4.715   3.819
 2258SOL    HW3 9063   1.995   4.576   3.812
 2258SOL    MW4 9064   1.987   4.660   3.832
 2259SOL     OW 9065   1.744   0.127   3.736
 2259SOL    HW2 9066   1.814   0.083   3.784
 2259SOL    HW3 9067   1.664   0.085   3.766
 2259SOL    MW4 9068   1.743   0.116   3.746
 2260SOL     OW 9069   1.786   0.372   3.860
 2260SOL    HW2 9070   1.774   0.360   3.954
 2260SOL    HW3 9071   1.779   0.284   3.823
 2260SOL    MW4 9072   1.784   0.359   3.867
 2261SOL     OW 9073   2.010   0.490   3.753
 2261SOL    HW2 9074   1.934   0.452   3.796
 2261SOL    HW3 9075   1.994   0.477   3.660
 2261SOL    MW4 9076   1.998   0.484   3.746
 2262SOL     OW 9077   2.033   0.758   3.852
 2262SOL    HW2 9078   2.039   0.744   3.946
 2262SOL    HW3 9079   2.036   0.671   3.814
 2262SOL    MW4 9080   2.034   0.745   3.859
 2263SOL     OW 9081   1.803   0.922   3.772
 2263SOL    HW2 9082   1.878   0.868   3.797
 2263SOL    HW3 9083   1.800   0.915   3.677
 2263SOL    MW4 9084   1.812   0.914   3.763
 2264SOL     OW 9085   1.815   1.187   3.850
 2264SOL    HW2 9086   1.823   1.198   3.945
 2264SOL    HW3 9087   1.808   1.093   3.837
 2264SOL    MW4 9088   1.815   1.176   3.861
 2265SOL     OW 9089   2.022   1.331   3.752
 2265SOL    HW2 9090   2.088   1.265   3.770
 2265SOL    HW3 9091   1.939   1.290   3.776
 2265SOL    MW4 9092   2.020   1.317   3.757
 2266SOL     OW 9093   2.006   1.542   3.943
 2266SOL    HW2 9094   1.932   1.600   3.921
 2266SOL    HW3 9095   2.004   1.474   3.875
 2266SOL    MW4 9096   1.996   1.541   3.931
 2267SOL     OW 9097   1.810   1.682   3.780
 2267SOL    HW2 9098   1.791   1.773   3.801
 2267SOL    HW3 9099   1.805   1.678   3.685
 2267SOL    MW4 9100   1.807   1.694   3.770
 2268SOL     OW 9101   1.783   1.936   3.845
 2268SOL    HW2 9102   1.776   1.956   3.939
 2268SOL    HW3 9103   1.716   1.991   3.804
 2268SOL    MW4 9104   1.773   1.946   3.852
 2269SOL     OW 9105   2.031   2.084   3.774
 2269SOL    HW2 9106   1.940   2.055   3.780
 2269SOL    HW3 9107   2.053   2.072   3.681
 2269SOL    MW4 9108   2.022   2.079   3.762
 2270SOL     OW 9109   2.062   2.340   3.857
 2270SOL    HW2 9110   1.998   2.393   3.810
 2270SOL    HW3 9111   2.040   2.249   3.834
 2270SOL    MW4 9112   2.051   2.335   3.848
 2271SOL     OW 9113   1.832   2.467   3.717
 2271SOL    HW2 9114   1.820   2.555   3.752
 2271SOL    HW3 9115   1.811   2.475   3.624
 2271SOL    MW4 9116   1.828   2.480   3.709
 2272SOL     OW 9117   1.769   2.722   3.793
 2272SOL    HW2 9118   1.793   2.744   3.883
 2272SOL    HW3 9119   1.685   2.765   3.778
 2272SOL    MW4 9120   1.761   2.730   3.803
 2273SOL     OW 9121   2.001   2.858   3.737
 2273SOL    HW2 9122   2.055   2.815   3.803
 2273SOL    HW3 9123   1.911   2.832   3.759
 2273SOL    MW4 9124   1.996   2.849   3.748
 2274SOL     OW 9125   1.996   3.124   3.859
 2274SOL    HW2 9126   1.987   3.029   3.853
 2274SOL    HW3 9127   2.074   3.145   3.809
 2274SOL    MW4 9128   2.005   3.114   3.852
 2275SOL     OW 9129   1.783   3.256   3.739
 2275SOL    HW2 9130   1.863   3.205   3.756
 2275SOL    HW3 9131   1.715   3.210   3.789
 2275SOL    MW4 9132   1.785   3.243   3.748
 2276SOL     OW 9133   1.782   3.509   3.853
 2276SOL    HW2 9134   1.861   3.551   3.819
 2276SOL    HW3 9135   1.780   3.423   3.813
 2276SOL    MW4 9136   1.792   3.503   3.843
 2277SOL     OW 9137   2.047   3.584   3.740
 2277SOL    HW2 9138   2.132   3.554   3.773
 2277SOL    HW3 9139   2.061   3.597   3.646
 2277SOL    MW4 9140   2.060   3.582   3.732
 2278SOL     OW 9141   2.007   3.846   3.826
 2278SOL    HW2 9142   2.090   3.893   3.833
 2278SOL    HW3 9143   2.029   3.764   3.781
 2278SOL    MW4 9144   2.021   3.841   3.821
 2279SOL     OW 9145   1.813   4.014   3.735
 2279SOL    HW2 9146   1.895   3.966   3.742
 2279SOL    HW3 9147   1.753   3.967   3.792
 2279SOL    MW4 9148   1.816   4.002   3.743
 2280SOL     OW 9149   1.803   4.295   3.824
 2280SOL    HW2 9150   1.883   4.341   3.798
 2280SOL    HW3 9151   1.812   4.208   3.785
 2280SOL    MW4 9152   1.815   4.289   3.815
 2281SOL     OW 9153   2.033   4.421   3.727
 2281SOL    HW2 9154   2.114   4.381   3.759
 2281SOL    HW3 9155   2.032   4.402   3.633
 2281SOL    MW4 9156   2.043   4.413   3.719
 2282SOL     OW 9157   2.449   4.608   3.827
 2282SOL    HW2 9158   2.452   4.608   3.923
 2282SOL    HW3 9159   2.513   4.674   3.802
 2282SOL    MW4 9160   2.458   4.617   3.837
 2283SOL     OW 9161   2.229   0.087   3.764
 2283SOL    HW2 9162   2.302   0.031   3.790
 2283SOL    HW3 9163   2.226   0.081   3.669
 2283SOL    MW4 9164   2.238   0.079   3.755
 2284SOL     OW 9165   2.226   0.341   3.882
 2284SOL    HW2 9166   2.230   0.258   3.835
 2284SOL    HW3 9167   2.154   0.389   3.840
 2284SOL    MW4 9168   2.217   0.336   3.870
 2285SOL     OW 9169   2.442   0.473   3.765
 2285SOL    HW2 9170   2.373   0.419   3.805
 2285SOL    HW3 9171   2.413   0.487   3.675
 2285SOL    MW4 9172   2.429   0.468   3.759
 2286SOL     OW 9173   2.455   0.739   3.873
 2286SOL    HW2 9174   2.386   0.789   3.829
 2286SOL    HW3 9175   2.445   0.650   3.837
 2286SOL    MW4 9176   2.444   0.734   3.862
 2287SOL     OW 9177   2.252   0.892   3.736
 2287SOL    HW2 9178   2.186   0.838   3.780
 2287SOL    HW3 9179   2.226   0.888   3.643
 2287SOL    MW4 9180   2.240   0.884   3.729
 2288SOL     OW 9181   2.208   1.153   3.840
 2288SOL    HW2 9182   2.182   1.144   3.932
 2288SOL    HW3 9183   2.228   1.064   3.812
 2288SOL    MW4 9184   2.207   1.140   3.849
 2289SOL     OW 9185   2.435   1.286   3.744
 2289SOL    HW2 9186   2.448   1.377   3.772
 2289SOL    HW3 9187   2.366   1.253   3.801
 2289SOL    MW4 9188   2.427   1.294   3.755
 2290SOL     OW 9189   2.445   1.537   3.845
 2290SOL    HW2 9190   2.516   1.591   3.811
 2290SOL    HW3 9191   2.366   1.588   3.828
 2290SOL    MW4 9192   2.444   1.551   3.838
 2291SOL     OW 9193   2.209   1.657   3.779
 2291SOL    HW2 9194   2.207   1.747   3.812
 2291SOL    HW3 9195   2.144   1.610   3.831
 2291SOL    MW4 9196   2.200   1.663   3.790
 2292SOL     OW 9197   2.221   1.913   3.878
 2292SOL    HW2 9198   2.246   1.932   3.968
 2292SOL    HW3 9199   2.147   1.970   3.860
 2292SOL    MW4 9200   2.214   1.923   3.887
 2293SOL     OW 9201   2.462   2.056   3.764
 2293SOL    HW2 9202   2.469   2.149   3.784
 2293SOL    HW3 9203   2.380   2.028   3.805
 2293SOL    MW4 9204   2.452   2.064   3.772
 2294SOL     OW 9205   2.471   2.334   3.813
 2294SOL    HW2 9206   2.559   2.363   3.788
 2294SOL    HW3 9207   2.413   2.405   3.783
 2294SOL    MW4 9208   2.475   2.347   3.805
 2295SOL     OW 9209   2.264   2.519   3.740
 2295SOL    HW2 9210   2.208   2.457   3.787
 2295SOL    HW3 9211   2.261   2.490   3.649
 2295SOL    MW4 9212   2.256   2.507   3.734
 2296SOL     OW 9213   2.227   2.750   3.884
 2296SOL    HW2 9214   2.253   2.727   3.973
 2296SOL    HW3 9215   2.240   2.670   3.834
 2296SOL    MW4 9216   2.232   2.737   3.889
 2297SOL     OW 9217   2.488   2.844   3.790
 2297SOL    HW2 9218   2.398   2.816   3.809
 2297SOL    HW3 9219   2.492   2.847   3.694
 2297SOL    MW4 9220   2.477   2.841   3.780
 2298SOL     OW 9221   2.470   3.111   3.875
 2298SOL    HW2 9222   2.487   3.131   3.967
 2298SOL    HW3 9223   2.480   3.016   3.869
 2298SOL    MW4 9224   2.474   3.101   3.886
 2299SOL     OW 9225   2.248   3.231   3.759
 2299SOL    HW2 9226   2.271   3.319   3.790
 2299SOL    HW3 9227   2.313   3.174   3.799
 2299SOL    MW4 9228   2.260   3.235   3.768
 2300SOL     OW 9229   2.290   3.489   3.840
 2300SOL    HW2 9230   2.270   3.489   3.934
 2300SOL    HW3 9231   2.373   3.536   3.833
 2300SOL    MW4 9232   2.298   3.495   3.852
 2301SOL     OW 9233   2.528   3.627   3.755
 2301SOL    HW2 9234   2.608   3.584   3.784
 2301SOL    HW3 9235   2.536   3.631   3.659
 2301SOL    MW4 9236   2.539   3.622   3.746
 2302SOL     OW 9237   2.493   3.889   3.818
 2302SOL    HW2 9238   2.572   3.927   3.779
 2302SOL    HW3 9239   2.489   3.800   3.782
 2302SOL    MW4 9240   2.503   3.882   3.808
 2303SOL     OW 9241   2.245   4.005   3.783
 2303SOL    HW2 9242   2.327   3.965   3.813
 2303SOL    HW3 9243   2.248   3.997   3.688
 2303SOL    MW4 9244   2.257   3.999   3.774
 2304SOL     OW 9245   2.221   4.272   3.836
 2304SOL    HW2 9246   2.237   4.290   3.929
 2304SOL    HW3 9247   2.207   4.177   3.832
 2304SOL    MW4 9248   2.222   4.262   3.848
 2305SOL     OW 9249   2.442   4.362   3.717
 2305SOL    HW2 9250   2.360   4.323   3.749
 2305SOL    HW3 9251   2.442   4.451   3.753
 2305SOL    MW4 9252   2.431   4.369   3.726
 2306SOL     OW 9253   2.858   4.655   3.801
 2306SOL    HW2 9254   2.863   4.654   3.896
 2306SOL    HW3 9255   2.939   4.697   3.772
 2306SOL    MW4 9256   2.869   4.661   3.809
 2307SOL     OW 9257   2.636   0.115   3.727
 2307SOL    HW2 9258   2.707   0.059   3.758
 2307SOL    HW3 9259   2.640   0.109   3.632
 2307SOL    MW4 9260   2.646   0.107   3.719
 2308SOL     OW 9261   2.674   0.365   3.823
 2308SOL    HW2 9262   2.663   0.278   3.784
 2308SOL    HW3 9263   2.598   0.414   3.793
 2308SOL    MW4 9264   2.662   0.360   3.814
 2309SOL     OW 9265   2.911   0.496   3.750
 2309SOL    HW2 9266   2.985   0.438   3.767
 2309SOL    HW3 9267   2.835   0.449   3.785
 2309SOL    MW4 9268   2.911   0.482   3.757
 2310SOL     OW 9269   2.911   0.759   3.863
 2310SOL    HW2 9270   2.988   0.803   3.827
 2310SOL    HW3 9271   2.916   0.670   3.826
 2310SOL    MW4 9272   2.922   0.753   3.853
 2311SOL     OW 9273   2.672   0.892   3.784
 2311SOL    HW2 9274   2.754   0.846   3.802
 2311SOL    HW3 9275   2.603   0.833   3.813
 2311SOL    MW4 9276   2.674   0.878   3.790
 2312SOL     OW 9277   2.652   1.153   3.849
 2312SOL    HW2 9278   2.666   1.060   3.831
 2312SOL    HW3 9279   2.574   1.176   3.798
 2312SOL    MW4 9280   2.644   1.144   3.840
 2313SOL     OW 9281   2.877   1.279   3.768
 2313SOL    HW2 9282   2.886   1.370   3.797
 2313SOL    HW3 9283   2.809   1.243   3.824
 2313SOL    MW4 9284   2.869   1.287   3.779
 2314SOL     OW 9285   2.911   1.547   3.830
 2314SOL    HW2 9286   2.924   1.557   3.924
 2314SOL    HW3 9287   2.997   1.566   3.792
 2314SOL    MW4 9288   2.924   1.551   3.837
 2315SOL     OW 9289   2.674   1.669   3.714
 2315SOL    HW2 9290   2.751   1.627   3.751
 2315SOL    HW3 9291   2.690   1.673   3.620
 2315SOL    MW4 9292   2.686   1.664   3.707
 2316SOL     OW 9293   2.709   1.925   3.824
 2316SOL    HW2 9294   2.709   1.842   3.777
 2316SOL    HW3 9295   2.618   1.956   3.817
 2316SOL    MW4 9296   2.697   1.918   3.817
 2317SOL     OW 9297   2.936   2.049   3.716
 2317SOL    HW2 9298   2.938   2.138   3.749
 2317SOL    HW3 9299   2.860   2.008   3.759
 2317SOL    MW4 9300   2.926   2.055   3.726
 2318SOL     OW 9301   2.932   2.316   3.827
 2318SOL    HW2 9302   2.921   2.335   3.921
 2318SOL    HW3 9303   2.996   2.380   3.797
 2318SOL    MW4 9304   2.939   2.327   3.836
 2319SOL     OW 9305   2.706   2.422   3.707
 2319SOL    HW2 9306   2.695   2.506   3.752
 2319SOL    HW3 9307   2.778   2.380   3.753
 2319SOL    MW4 9308   2.714   2.428   3.719
 2320SOL     OW 9309   2.694   2.668   3.868
 2320SOL    HW2 9310   2.705   2.667   3.963
 2320SOL    HW3 9311   2.627   2.734   3.852
 2320SOL    MW4 9312   2.686   2.676   3.878
 2321SOL     OW 9313   2.920   2.768   3.758
 2321SOL    HW2 9314   2.916   2.863   3.770
 2321SOL    HW3 9315   2.846   2.733   3.807
 2321SOL    MW4 9316   2.910   2.776   3.766
 2322SOL     OW 9317   2.900   3.044   3.783
 2322SOL    HW2 9318   2.975   3.103   3.772
 2322SOL    HW3 9319   2.824   3.100   3.768
 2322SOL    MW4 9320   2.900   3.059   3.780
 2323SOL     OW 9321   2.693   3.204   3.736
 2323SOL    HW2 9322   2.698   3.294   3.768
 2323SOL    HW3 9323   2.616   3.168   3.778
 2323SOL    MW4 9324   2.684   3.211   3.746
 2324SOL     OW 9325   2.771   3.451   3.836
 2324SOL    HW2 9326   2.760   3.465   3.930
 2324SOL    HW3 9327   2.829   3.522   3.808
 2324SOL    MW4 9328   2.777   3.462   3.844
 2325SOL     OW 9329   2.954   3.634   3.754
 2325SOL    HW2 9330   3.026   3.584   3.791
 2325SOL    HW3 9331   2.954   3.611   3.661
 2325SOL    MW4 9332   2.963   3.624   3.747
 2326SOL     OW 9333   2.936   3.887   3.909
 2326SOL    HW2 9334   2.920   3.888   4.004
 2326SOL    HW3 9335   2.966   3.798   3.891
 2326SOL    MW4 9336   2.938   3.875   3.919
 2327SOL     OW 9337   2.740   3.990   3.725
 2327SOL    HW2 9338   2.715   4.076   3.761
 2327SOL    HW3 9339   2.805   3.957   3.787
 2327SOL    MW4 9340   2.745   3.997   3.738
 2328SOL     OW 9341   2.666   4.257   3.843
 2328SOL    HW2 9342   2.728   4.309   3.792
 2328SOL    HW3 9343   2.580   4.277   3.803
 2328SOL    MW4 9344   2.663   4.267   3.831
 2329SOL     OW 9345   2.860   4.399   3.703
 2329SOL    HW2 9346   2.940   4.357   3.732
 2329SOL    HW3 9347   2.859   4.484   3.748
 2329SOL    MW4 9348   2.871   4.405   3.712
 2330SOL     OW 9349   3.349   4.607   3.801
 2330SOL    HW2 9350   3.335   4.620   3.895
 2330SOL    HW3 9351   3.422   4.666   3.780
 2330SOL    MW4 9352   3.357   4.617   3.811
 2331SOL     OW 9353   3.116   0.102   3.729
 2331SOL    HW2 9354   3.181   0.038   3.757
 2331SOL    HW3 9355   3.131   0.112   3.635
 2331SOL    MW4 9356   3.126   0.095   3.720
 2332SOL     OW 9357   3.145   0.373   3.808
 2332SOL    HW2 9358   3.135   0.388   3.902
 2332SOL    HW3 9359   3.142   0.277   3.798
 2332SOL    MW4 9360   3.144   0.362   3.819
 2333SOL     OW 9361   3.371   0.511   3.732
 2333SOL    HW2 9362   3.440   0.455   3.767
 2333SOL    HW3 9363   3.290   0.467   3.755
 2333SOL    MW4 9364   3.370   0.498   3.739
 2334SOL     OW 9365   3.374   0.773   3.811
 2334SOL    HW2 9366   3.352   0.765   3.903
 2334SOL    HW3 9367   3.387   0.683   3.781
 2334SOL    MW4 9368   3.373   0.760   3.819
 2335SOL     OW 9369   3.121   0.876   3.720
 2335SOL    HW2 9370   3.201   0.831   3.748
 2335SOL    HW3 9371   3.116   0.859   3.625
 2335SOL    MW4 9372   3.131   0.868   3.711
 2336SOL     OW 9373   3.118   1.130   3.826
 2336SOL    HW2 9374   3.127   1.054   3.769
 2336SOL    HW3 9375   3.044   1.179   3.790
 2336SOL    MW4 9376   3.109   1.126   3.814
 2337SOL     OW 9377   3.344   1.276   3.771
 2337SOL    HW2 9378   3.265   1.232   3.801
 2337SOL    HW3 9379   3.328   1.297   3.679
 2337SOL    MW4 9380   3.332   1.273   3.763
 2338SOL     OW 9381   3.437   1.539   3.869
 2338SOL    HW2 9382   3.356   1.572   3.830
 2338SOL    HW3 9383   3.438   1.446   3.847
 2338SOL    MW4 9384   3.426   1.531   3.861
 2339SOL     OW 9385   3.177   1.622   3.764
 2339SOL    HW2 9386   3.180   1.712   3.798
 2339SOL    HW3 9387   3.181   1.633   3.669
 2339SOL    MW4 9388   3.178   1.635   3.756
 2340SOL     OW 9389   3.164   1.905   3.813
 2340SOL    HW2 9390   3.161   1.937   3.903
 2340SOL    HW3 9391   3.097   1.955   3.767
 2340SOL    MW4 9392   3.155   1.916   3.819
 2341SOL     OW 9393   3.380   2.061   3.726
 2341SOL    HW2 9394   3.303   2.012   3.754
 2341SOL    HW3 9395   3.382   2.052   3.631
 2341SOL    MW4 9396   3.370   2.054   3.717
 2342SOL     OW 9397   3.395   2.298   3.840
 2342SOL    HW2 9398   3.309   2.334   3.819
 2342SOL    HW3 9399   3.396   2.212   3.799
 2342SOL    MW4 9400   3.384   2.291   3.832
 2343SOL     OW 9401   3.171   2.436   3.768
 2343SOL    HW2 9402   3.172   2.524   3.805
 2343SOL    HW3 9403   3.187   2.449   3.675
 2343SOL    MW4 9404   3.174   2.449   3.761
 2344SOL     OW 9405   3.169   2.710   3.827
 2344SOL    HW2 9406   3.170   2.713   3.923
 2344SOL    HW3 9407   3.077   2.722   3.804
 2344SOL    MW4 9408   3.157   2.712   3.837
 2345SOL     OW 9409   3.369   2.873   3.739
 2345SOL    HW2 9410   3.306   2.806   3.768
 2345SOL    HW3 9411   3.373   2.862   3.644
 2345SOL    MW4 9412   3.361   2.863   3.730
 2346SOL     OW 9413   3.335   3.099   3.877
 2346SOL    HW2 9414   3.416   3.138   3.846
 2346SOL    HW3 9415   3.334   3.011   3.839
 2346SOL    MW4 9416   3.346   3.092   3.868
 2347SOL     OW 9417   3.121   3.212   3.744
 2347SOL    HW2 9418   3.198   3.177   3.789
 2347SOL    HW3 9419   3.146   3.216   3.652
 2347SOL    MW4 9420   3.134   3.208   3.738
 2348SOL     OW 9421   3.152   3.494   3.862
 2348SOL    HW2 9422   3.232   3.533   3.827
 2348SOL    HW3 9423   3.149   3.407   3.822
 2348SOL    MW4 9424   3.162   3.488   3.852
 2349SOL     OW 9425   3.393   3.608   3.765
 2349SOL    HW2 9426   3.366   3.697   3.789
 2349SOL    HW3 9427   3.377   3.603   3.671
 2349SOL    MW4 9428   3.387   3.619   3.756
 2350SOL     OW 9429   3.326   3.874   3.827
 2350SOL    HW2 9430   3.397   3.917   3.780
 2350SOL    HW3 9431   3.248   3.924   3.804
 2350SOL    MW4 9432   3.325   3.886   3.818
 2351SOL     OW 9433   3.100   4.006   3.719
 2351SOL    HW2 9434   3.073   4.097   3.731
 2351SOL    HW3 9435   3.044   3.957   3.779
 2351SOL    MW4 9436   3.089   4.012   3.729
 2352SOL     OW 9437   3.063   4.262   3.822
 2352SOL    HW2 9438   3.072   4.269   3.917
 2352SOL    HW3 9439   3.141   4.306   3.787
 2352SOL    MW4 9440   3.074   4.269   3.830
 2353SOL     OW 9441   3.307   4.341   3.696
 2353SOL    HW2 9442   3.377   4.284   3.726
 2353SOL    HW3 9443   3.331   4.428   3.727
 2353SOL    MW4 9444   3.319   4.345   3.704
 2354SOL     OW 9445   3.771   4.634   3.843
 2354SOL    HW2 9446   3.846   4.677   3.802
 2354SOL    HW3 9447   3.768   4.546   3.804
 2354SOL    MW4 9448   3.780   4.628   3.832
 2355SOL     OW 9449   3.559   0.101   3.737
 2355SOL    HW2 9450   3.630   0.054   3.783
 2355SOL    HW3 9451   3.581   0.091   3.645
 2355SOL    MW4 9452   3.572   0.093   3.731
 2356SOL     OW 9453   3.588   0.385   3.819
 2356SOL    HW2 9454   3.667   0.423   3.780
 2356SOL    HW3 9455   3.591   0.293   3.793
 2356SOL    MW4 9456   3.599   0.378   3.811
 2357SOL     OW 9457   3.805   0.552   3.733
 2357SOL    HW2 9458   3.891   0.515   3.753
 2357SOL    HW3 9459   3.804   0.637   3.776
 2357SOL    MW4 9460   3.816   0.558   3.741
 2358SOL     OW 9461   3.792   0.824   3.865
 2358SOL    HW2 9462   3.864   0.874   3.828
 2358SOL    HW3 9463   3.714   0.855   3.818
 2358SOL    MW4 9464   3.791   0.835   3.854
 2359SOL     OW 9465   3.578   0.924   3.718
 2359SOL    HW2 9466   3.559   1.002   3.771
 2359SOL    HW3 9467   3.513   0.860   3.746
 2359SOL    MW4 9468   3.567   0.926   3.729
 2360SOL     OW 9469   3.564   1.141   3.893
 2360SOL    HW2 9470   3.641   1.175   3.847
 2360SOL    HW3 9471   3.492   1.198   3.863
 2360SOL    MW4 9472   3.565   1.153   3.883
 2361SOL     OW 9473   3.778   1.260   3.773
 2361SOL    HW2 9474   3.861   1.221   3.801
 2361SOL    HW3 9475   3.786   1.352   3.795
 2361SOL    MW4 9476   3.790   1.267   3.779
 2362SOL     OW 9477   3.818   1.553   3.841
 2362SOL    HW2 9478   3.816   1.568   3.935
 2362SOL    HW3 9479   3.746   1.606   3.807
 2362SOL    MW4 9480   3.808   1.562   3.849
 2363SOL     OW 9481   3.615   1.720   3.773
 2363SOL    HW2 9482   3.561   1.653   3.815
 2363SOL    HW3 9483   3.607   1.701   3.679
 2363SOL    MW4 9484   3.607   1.709   3.766
 2364SOL     OW 9485   3.601   1.967   3.865
 2364SOL    HW2 9486   3.600   1.874   3.842
 2364SOL    HW3 9487   3.525   2.004   3.820
 2364SOL    MW4 9488   3.591   1.960   3.856
 2365SOL     OW 9489   3.815   2.082   3.747
 2365SOL    HW2 9490   3.887   2.033   3.787
 2365SOL    HW3 9491   3.737   2.048   3.790
 2365SOL    MW4 9492   3.814   2.071   3.758
 2366SOL     OW 9493   3.797   2.356   3.861
 2366SOL    HW2 9494   3.723   2.402   3.821
 2366SOL    HW3 9495   3.785   2.265   3.834
 2366SOL    MW4 9496   3.786   2.350   3.852
 2367SOL     OW 9497   3.581   2.491   3.744
 2367SOL    HW2 9498   3.514   2.432   3.781
 2367SOL    HW3 9499   3.567   2.485   3.649
 2367SOL    MW4 9500   3.570   2.482   3.736
 2368SOL     OW 9501   3.625   2.756   3.831
 2368SOL    HW2 9502   3.605   2.666   3.805
 2368SOL    HW3 9503   3.556   2.808   3.789
 2368SOL    MW4 9504   3.613   2.751   3.822
 2369SOL     OW 9505   3.863   2.858   3.705
 2369SOL    HW2 9506   3.937   2.805   3.734
 2369SOL    HW3 9507   3.786   2.814   3.742
 2369SOL    MW4 9508   3.863   2.845   3.714
 2370SOL     OW 9509   3.825   3.091   3.841
 2370SOL    HW2 9510   3.746   3.141   3.820
 2370SOL    HW3 9511   3.811   3.007   3.798
 2370SOL    MW4 9512   3.812   3.087   3.832
 2371SOL     OW 9513   3.585   3.197   3.787
 2371SOL    HW2 9514   3.588   3.288   3.816
 2371SOL    HW3 9515   3.591   3.202   3.692
 2371SOL    MW4 9516   3.586   3.210   3.778
 2372SOL     OW 9517   3.628   3.483   3.843
 2372SOL    HW2 9518   3.636   3.496   3.938
 2372SOL    HW3 9519   3.540   3.515   3.822
 2372SOL    MW4 9520   3.617   3.489   3.853
 2373SOL     OW 9521   3.857   3.605   3.734
 2373SOL    HW2 9522   3.862   3.688   3.782
 2373SOL    HW3 9523   3.783   3.559   3.774
 2373SOL    MW4 9524   3.847   3.610   3.746
 2374SOL     OW 9525   3.789   3.882   3.843
 2374SOL    HW2 9526   3.788   3.886   3.939
 2374SOL    HW3 9527   3.861   3.940   3.817
 2374SOL    MW4 9528   3.798   3.890   3.852
 2375SOL     OW 9529   3.558   4.004   3.737
 2375SOL    HW2 9530   3.557   4.088   3.782
 2375SOL    HW3 9531   3.640   3.962   3.763
 2375SOL    MW4 9532   3.568   4.009   3.746
 2376SOL     OW 9533   3.534   4.259   3.854
 2376SOL    HW2 9534   3.547   4.266   3.949
 2376SOL    HW3 9535   3.595   4.323   3.816
 2376SOL    MW4 9536   3.544   4.268   3.862
 2377SOL     OW 9537   3.757   4.388   3.715
 2377SOL    HW2 9538   3.829   4.336   3.752
 2377SOL    HW3 9539   3.772   4.385   3.621
 2377SOL    MW4 9540   3.769   4.381   3.708
 2378SOL     OW 9541   4.228   4.665   3.816
 2378SOL    HW2 9542   4.236   4.649   3.910
 2378SOL    HW3 9543   4.317   4.685   3.787
 2378SOL    MW4 9544   4.241   4.666   3.825
 2379SOL     OW 9545   3.990   0.106   3.729
 2379SOL    HW2 9546   4.066   0.071   3.776
 2379SOL    HW3 9547   4.011   0.092   3.637
 2379SOL    MW4 9548   4.003   0.099   3.723
 2380SOL     OW 9549   4.027   0.400   3.797
 2380SOL    HW2 9550   4.036   0.406   3.892
 2380SOL    HW3 9551   4.004   0.308   3.782
 2380SOL    MW4 9552   4.025   0.389   3.808
 2381SOL     OW 9553   4.257   0.538   3.747
 2381SOL    HW2 9554   4.178   0.487   3.766
 2381SOL    HW3 9555   4.262   0.539   3.652
 2381SOL    MW4 9556   4.247   0.532   3.737
 2382SOL     OW 9557   4.239   0.777   3.846
 2382SOL    HW2 9558   4.153   0.817   3.834
 2382SOL    HW3 9559   4.235   0.695   3.798
 2382SOL    MW4 9560   4.227   0.771   3.838
 2383SOL     OW 9561   4.013   0.907   3.744
 2383SOL    HW2 9562   4.022   1.001   3.763
 2383SOL    HW3 9563   3.990   0.904   3.651
 2383SOL    MW4 9564   4.011   0.919   3.734
 2384SOL     OW 9565   4.048   1.186   3.814
 2384SOL    HW2 9566   4.050   1.204   3.907
 2384SOL    HW3 9567   4.134   1.215   3.782
 2384SOL    MW4 9568   4.060   1.192   3.822
 2385SOL     OW 9569   4.304   1.281   3.705
 2385SOL    HW2 9570   4.289   1.374   3.723
 2385SOL    HW3 9571   4.300   1.274   3.610
 2385SOL    MW4 9572   4.301   1.293   3.695
 2386SOL     OW 9573   4.250   1.549   3.788
 2386SOL    HW2 9574   4.186   1.619   3.783
 2386SOL    HW3 9575   4.334   1.591   3.769
 2386SOL    MW4 9576   4.253   1.563   3.785
 2387SOL     OW 9577   4.049   1.713   3.774
 2387SOL    HW2 9578   4.054   1.793   3.825
 2387SOL    HW3 9579   3.970   1.669   3.805
 2387SOL    MW4 9580   4.039   1.717   3.785
 2388SOL     OW 9581   4.045   1.969   3.871
 2388SOL    HW2 9582   4.051   1.987   3.965
 2388SOL    HW3 9583   4.121   2.013   3.834
 2388SOL    MW4 9584   4.056   1.977   3.879
 2389SOL     OW 9585   4.245   2.093   3.720
 2389SOL    HW2 9586   4.255   2.183   3.751
 2389SOL    HW3 9587   4.244   2.100   3.624
 2389SOL    MW4 9588   4.246   2.105   3.711
 2390SOL     OW 9589   4.254   2.368   3.771
 2390SOL    HW2 9590   4.243   2.353   3.865
 2390SOL    HW3 9591   4.164   2.379   3.738
 2390SOL    MW4 9592   4.240   2.367   3.779
 2391SOL     OW 9593   4.003   2.468   3.694
 2391SOL    HW2 9594   4.032   2.548   3.739
 2391SOL    HW3 9595   3.935   2.433   3.752
 2391SOL    MW4 9596   3.998   2.474   3.708
 2392SOL     OW 9597   4.062   2.711   3.818
 2392SOL    HW2 9598   4.064   2.731   3.912
 2392SOL    HW3 9599   4.149   2.735   3.787
 2392SOL    MW4 9600   4.074   2.717   3.826
 2393SOL     OW 9601   4.290   2.870   3.710
 2393SOL    HW2 9602   4.287   2.951   3.760
 2393SOL    HW3 9603   4.374   2.830   3.734
 2393SOL    MW4 9604   4.300   2.875   3.720
 2394SOL     OW 9605   4.298   3.107   3.874
 2394SOL    HW2 9606   4.219   3.140   3.832
 2394SOL    HW3 9607   4.369   3.157   3.835
 2394SOL    MW4 9608   4.297   3.118   3.864
 2395SOL     OW 9609   4.064   3.187   3.752
 2395SOL    HW2 9610   3.978   3.155   3.777
 2395SOL    HW3 9611   4.055   3.209   3.659
 2395SOL    MW4 9612   4.052   3.185   3.743
 2396SOL     OW 9613   4.013   3.449   3.891
 2396SOL    HW2 9614   4.020   3.361   3.853
 2396SOL    HW3 9615   3.956   3.497   3.831
 2396SOL    MW4 9616   4.007   3.444   3.878
 2397SOL     OW 9617   4.262   3.628   3.793
 2397SOL    HW2 9618   4.193   3.572   3.828
 2397SOL    HW3 9619   4.342   3.597   3.836
 2397SOL    MW4 9620   4.264   3.616   3.804
 2398SOL     OW 9621   4.273   3.901   3.821
 2398SOL    HW2 9622   4.194   3.939   3.781
 2398SOL    HW3 9623   4.269   3.808   3.797
 2398SOL    MW4 9624   4.262   3.893   3.813
 2399SOL     OW 9625   4.030   4.015   3.743
 2399SOL    HW2 9626   4.004   4.103   3.771
 2399SOL    HW3 9627   4.021   4.017   3.648
 2399SOL    MW4 9628   4.026   4.027   3.734
 2400SOL     OW 9629   3.989   4.269   3.815
 2400SOL    HW2 9630   4.004   4.267   3.910
 2400SOL    HW3 9631   4.067   4.312   3.780
 2400SOL    MW4 9632   4.001   4.274   3.823
 2401SOL     OW 9633   4.221   4.387   3.731
 2401SOL    HW2 9634   4.202   4.479   3.747
 2401SOL    HW3 9635   4.295   4.367   3.788
 2401SOL    MW4 9636   4.228   4.396   3.741
 2402SOL     OW 9637   0.214   0.001   4.126
 2402SOL    HW2 9638   0.285   0.039   4.177
 2402SOL    HW3 9639   0.215  -0.092   4.149
 2402SOL    MW4 9640   0.223  -0.007   4.136
 2403SOL     OW 9641   4.467   0.147   4.157
 2403SOL    HW2 9642   4.473   0.159   4.252
 2403SOL    HW3 9643   4.544   0.093   4.135
 2403SOL    MW4 9644   4.478   0.141   4.167
 2404SOL     OW 9645   4.478   0.407   4.077
 2404SOL    HW2 9646   4.496   0.317   4.104
 2404SOL    HW3 9647   4.461   0.401   3.983
 2404SOL    MW4 9648   4.478   0.394   4.068
 2405SOL     OW 9649   0.190   0.540   4.240
 2405SOL    HW2 9650   0.272   0.500   4.211
 2405SOL    HW3 9651   0.124   0.503   4.182
 2405SOL    MW4 9652   0.192   0.529   4.228
 2406SOL     OW 9653   0.222   0.799   4.098
 2406SOL    HW2 9654   0.140   0.839   4.127
 2406SOL    HW3 9655   0.216   0.708   4.126
 2406SOL    MW4 9656   0.210   0.793   4.105
 2407SOL     OW 9657   4.482   0.924   4.217
 2407SOL    HW2 9658   4.406   0.881   4.178
 2407SOL    HW3 9659   4.473   1.016   4.190
 2407SOL    MW4 9660   4.471   0.931   4.208
 2408SOL     OW 9661   4.476   1.180   4.120
 2408SOL    HW2 9662   4.545   1.231   4.162
 2408SOL    HW3 9663   4.498   1.181   4.027
 2408SOL    MW4 9664   4.488   1.187   4.114
 2409SOL     OW 9665   0.194   1.313   4.245
 2409SOL    HW2 9666   0.207   1.287   4.336
 2409SOL    HW3 9667   0.266   1.273   4.197
 2409SOL    MW4 9668   0.205   1.304   4.251
 2410SOL     OW 9669   0.143   1.431   4.749
 2410SOL    HW2 9670   0.102   1.441   4.835
 2410SOL    HW3 9671   0.070   1.443   4.687
 2410SOL    MW4 9672   0.128   1.434   4.752
 2411SOL     OW 9673   4.426   1.693   4.212
 2411SOL    HW2 9674   4.361   1.653   4.153
 2411SOL    HW3 9675   4.438   1.781   4.178
 2411SOL    MW4 9676   4.419   1.699   4.200
 2412SOL     OW 9677   0.186   1.935   4.545
 2412SOL    HW2 9678   0.106   1.885   4.524
 2412SOL    HW3 9679   0.189   2.004   4.479
 2412SOL    MW4 9680   0.176   1.937   4.534
 2413SOL     OW 9681   0.402   1.407   4.686
 2413SOL    HW2 9682   0.403   1.477   4.620
 2413SOL    HW3 9683   0.312   1.403   4.716
 2413SOL    MW4 9684   0.391   1.416   4.681
 2414SOL     OW 9685   0.188   2.315   4.124
 2414SOL    HW2 9686   0.264   2.369   4.147
 2414SOL    HW3 9687   0.189   2.243   4.187
 2414SOL    MW4 9688   0.198   2.313   4.135
 2415SOL     OW 9689   4.453   2.494   4.163
 2415SOL    HW2 9690   4.382   2.438   4.132
 2415SOL    HW3 9691   4.533   2.457   4.124
 2415SOL    MW4 9692   4.454   2.482   4.154
 2416SOL     OW 9693   4.470   2.756   4.083
 2416SOL    HW2 9694   4.541   2.786   4.141
 2416SOL    HW3 9695   4.452   2.667   4.112
 2416SOL    MW4 9696   4.477   2.748   4.095
 2417SOL     OW 9697   0.204   2.869   4.213
 2417SOL    HW2 9698   0.277   2.822   4.171
 2417SOL    HW3 9699   0.209   2.957   4.176
 2417SOL    MW4 9700   0.215   2.875   4.203
 2418SOL     OW 9701   0.219   3.104   4.086
 2418SOL    HW2 9702   0.311   3.124   4.100
 2418SOL    HW3 9703   0.172   3.173   4.131
 2418SOL    MW4 9704   0.225   3.115   4.094
 2419SOL     OW 9705   0.055   3.296   4.216
 2419SOL    HW2 9706  -0.029   3.250   4.206
 2419SOL    HW3 9707   0.036   3.386   4.188
 2419SOL    MW4 9708   0.041   3.302   4.211
 2420SOL     OW 9709   0.020   3.555   4.131
 2420SOL    HW2 9710  -0.056   3.607   4.159
 2420SOL    HW3 9711   0.007   3.543   4.037
 2420SOL    MW4 9712   0.008   3.561   4.122
 2421SOL     OW 9713   0.252   3.622   4.257
 2421SOL    HW2 9714   0.317   3.572   4.208
 2421SOL    HW3 9715   0.170   3.605   4.212
 2421SOL    MW4 9716   0.250   3.613   4.245
 2422SOL     OW 9717   0.018   4.007   4.190
 2422SOL    HW2 9718  -0.071   3.983   4.161
 2422SOL    HW3 9719   0.012   4.010   4.285
 2422SOL    MW4 9720   0.005   4.004   4.199
 2423SOL     OW 9721   4.365   3.696   4.524
 2423SOL    HW2 9722   4.375   3.602   4.532
 2423SOL    HW3 9723   4.317   3.708   4.442
 2423SOL    MW4 9724   4.360   3.686   4.514
 2424SOL     OW 9725   4.459   4.285   4.117
 2424SOL    HW2 9726   4.474   4.197   4.151
 2424SOL    HW3 9727   4.470   4.277   4.022
 2424SOL    MW4 9728   4.462   4.273   4.109
 2425SOL     OW 9729   0.207   4.418   4.225
 2425SOL    HW2 9730   0.187   4.405   4.318
 2425SOL    HW3 9731   0.129   4.385   4.180
 2425SOL    MW4 9732   0.194   4.412   4.232
 2426SOL     OW 9733   0.664   4.667   4.167
 2426SOL    HW2 9734   0.584   4.714   4.192
 2426SOL    HW3 9735   0.667   4.674   4.072
 2426SOL    MW4 9736   0.654   4.674   4.158
 2427SOL     OW 9737   0.435   0.142   4.243
 2427SOL    HW2 9738   0.455   0.142   4.336
 2427SOL    HW3 9739   0.434   0.235   4.219
 2427SOL    MW4 9740   0.438   0.155   4.252
 2428SOL     OW 9741   0.423   0.400   4.162
 2428SOL    HW2 9742   0.505   0.444   4.185
 2428SOL    HW3 9743   0.426   0.391   4.066
 2428SOL    MW4 9744   0.434   0.405   4.152
 2429SOL     OW 9745   0.651   0.536   4.227
 2429SOL    HW2 9746   0.722   0.476   4.206
 2429SOL    HW3 9747   0.674   0.617   4.183
 2429SOL    MW4 9748   0.663   0.539   4.219
 2430SOL     OW 9749   0.642   0.804   4.105
 2430SOL    HW2 9750   0.570   0.849   4.149
 2430SOL    HW3 9751   0.622   0.812   4.012
 2430SOL    MW4 9752   0.630   0.811   4.098
 2431SOL     OW 9753   0.442   0.930   4.237
 2431SOL    HW2 9754   0.450   1.019   4.202
 2431SOL    HW3 9755   0.369   0.892   4.188
 2431SOL    MW4 9756   0.434   0.937   4.226
 2432SOL     OW 9757   0.433   1.200   4.133
 2432SOL    HW2 9758   0.506   1.256   4.160
 2432SOL    HW3 9759   0.449   1.182   4.041
 2432SOL    MW4 9760   0.445   1.205   4.125
 2433SOL     OW 9761   0.673   1.317   4.212
 2433SOL    HW2 9762   0.710   1.310   4.300
 2433SOL    HW3 9763   0.681   1.410   4.190
 2433SOL    MW4 9764   0.679   1.328   4.220
 2434SOL     OW 9765   0.660   1.585   4.126
 2434SOL    HW2 9766   0.733   1.640   4.156
 2434SOL    HW3 9767   0.681   1.564   4.035
 2434SOL    MW4 9768   0.673   1.589   4.118
 2435SOL     OW 9769   0.172   1.559   4.106
 2435SOL    HW2 9770   0.178   1.477   4.154
 2435SOL    HW3 9771   0.102   1.608   4.150
 2435SOL    MW4 9772   0.164   1.555   4.118
 2436SOL     OW 9773   0.324   1.922   4.138
 2436SOL    HW2 9774   0.352   1.835   4.168
 2436SOL    HW3 9775   0.334   1.919   4.043
 2436SOL    MW4 9776   0.329   1.910   4.129
 2437SOL     OW 9777   0.568   2.017   4.200
 2437SOL    HW2 9778   0.563   2.024   4.295
 2437SOL    HW3 9779   0.482   1.983   4.174
 2437SOL    MW4 9780   0.556   2.013   4.209
 2438SOL     OW 9781   0.607   2.290   4.135
 2438SOL    HW2 9782   0.599   2.197   4.154
 2438SOL    HW3 9783   0.618   2.294   4.040
 2438SOL    MW4 9784   0.608   2.279   4.125
 2439SOL     OW 9785   0.398   2.465   4.205
 2439SOL    HW2 9786   0.409   2.557   4.181
 2439SOL    HW3 9787   0.476   2.421   4.169
 2439SOL    MW4 9788   0.410   2.471   4.197
 2440SOL     OW 9789   0.429   2.720   4.140
 2440SOL    HW2 9790   0.497   2.774   4.180
 2440SOL    HW3 9791   0.458   2.709   4.049
 2440SOL    MW4 9792   0.442   2.725   4.133
 2441SOL     OW 9793   0.611   2.904   4.245
 2441SOL    HW2 9794   0.578   2.925   4.333
 2441SOL    HW3 9795   0.625   2.989   4.203
 2441SOL    MW4 9796   0.609   2.918   4.251
 2442SOL     OW 9797   0.710   3.127   4.111
 2442SOL    HW2 9798   0.779   3.182   4.146
 2442SOL    HW3 9799   0.630   3.180   4.119
 2442SOL    MW4 9800   0.708   3.141   4.116
 2443SOL     OW 9801   0.458   3.230   4.151
 2443SOL    HW2 9802   0.453   3.237   4.246
 2443SOL    HW3 9803   0.459   3.320   4.120
 2443SOL    MW4 9804   0.458   3.243   4.159
 2444SOL     OW 9805   0.437   3.485   4.096
 2444SOL    HW2 9806   0.514   3.513   4.147
 2444SOL    HW3 9807   0.453   3.521   4.009
 2444SOL    MW4 9808   0.450   3.493   4.092
 2445SOL     OW 9809   0.911   3.500   4.503
 2445SOL    HW2 9810   0.824   3.460   4.507
 2445SOL    HW3 9811   0.894   3.592   4.486
 2445SOL    MW4 9812   0.897   3.507   4.501
 2446SOL     OW 9813   0.681   3.519   4.231
 2446SOL    HW2 9814   0.669   3.495   4.323
 2446SOL    HW3 9815   0.774   3.543   4.225
 2446SOL    MW4 9816   0.692   3.519   4.243
 2447SOL     OW 9817   0.518   3.999   4.220
 2447SOL    HW2 9818   0.495   4.091   4.202
 2447SOL    HW3 9819   0.439   3.950   4.198
 2447SOL    MW4 9820   0.504   4.005   4.214
 2448SOL     OW 9821   0.482   4.279   4.145
 2448SOL    HW2 9822   0.404   4.327   4.174
 2448SOL    HW3 9823   0.464   4.258   4.053
 2448SOL    MW4 9824   0.469   4.283   4.137
 2449SOL     OW 9825   0.688   4.415   4.263
 2449SOL    HW2 9826   0.628   4.362   4.211
 2449SOL    HW3 9827   0.673   4.505   4.234
 2449SOL    MW4 9828   0.678   4.420   4.252
 2450SOL     OW 9829   1.092   4.664   4.137
 2450SOL    HW2 9830   1.107   4.572   4.161
 2450SOL    HW3 9831   1.094   4.664   4.041
 2450SOL    MW4 9832   1.095   4.652   4.127
 2451SOL     OW 9833   0.888   0.147   4.243
 2451SOL    HW2 9834   0.965   0.098   4.215
 2451SOL    HW3 9835   0.813   0.094   4.214
 2451SOL    MW4 9836   0.888   0.134   4.235
 2452SOL     OW 9837   0.852   0.375   4.113
 2452SOL    HW2 9838   0.929   0.420   4.148
 2452SOL    HW3 9839   0.855   0.288   4.153
 2452SOL    MW4 9840   0.862   0.369   4.123
 2453SOL     OW 9841   1.074   0.526   4.209
 2453SOL    HW2 9842   1.081   0.552   4.301
 2453SOL    HW3 9843   1.156   0.479   4.191
 2453SOL    MW4 9844   1.086   0.523   4.219
 2454SOL     OW 9845   1.118   0.779   4.099
 2454SOL    HW2 9846   1.183   0.832   4.146
 2454SOL    HW3 9847   1.110   0.700   4.152
 2454SOL    MW4 9848   1.126   0.776   4.113
 2455SOL     OW 9849   0.896   0.904   4.193
 2455SOL    HW2 9850   0.972   0.863   4.152
 2455SOL    HW3 9851   0.821   0.864   4.150
 2455SOL    MW4 9852   0.896   0.894   4.182
 2456SOL     OW 9853   0.911   1.182   4.092
 2456SOL    HW2 9854   0.913   1.087   4.105
 2456SOL    HW3 9855   0.823   1.208   4.116
 2456SOL    MW4 9856   0.900   1.173   4.097
 2457SOL     OW 9857   1.123   1.342   4.171
 2457SOL    HW2 9858   1.131   1.361   4.264
 2457SOL    HW3 9859   1.035   1.306   4.161
 2457SOL    MW4 9860   1.112   1.340   4.182
 2458SOL     OW 9861   1.080   1.599   4.074
 2458SOL    HW2 9862   1.007   1.625   4.130
 2458SOL    HW3 9863   1.106   1.513   4.106
 2458SOL    MW4 9864   1.074   1.592   4.086
 2459SOL     OW 9865   0.885   1.707   4.243
 2459SOL    HW2 9866   0.896   1.716   4.337
 2459SOL    HW3 9867   0.874   1.797   4.212
 2459SOL    MW4 9868   0.885   1.720   4.251
 2460SOL     OW 9869   0.817   1.956   4.111
 2460SOL    HW2 9870   0.724   1.963   4.133
 2460SOL    HW3 9871   0.819   1.951   4.016
 2460SOL    MW4 9872   0.805   1.956   4.101
 2461SOL     OW 9873   1.098   2.026   4.216
 2461SOL    HW2 9874   1.108   2.004   4.308
 2461SOL    HW3 9875   1.007   2.004   4.196
 2461SOL    MW4 9876   1.087   2.021   4.226
 2462SOL     OW 9877   1.098   2.283   4.094
 2462SOL    HW2 9878   1.186   2.321   4.097
 2462SOL    HW3 9879   1.108   2.196   4.133
 2462SOL    MW4 9880   1.111   2.276   4.099
 2463SOL     OW 9881   0.857   2.307   4.248
 2463SOL    HW2 9882   0.916   2.288   4.176
 2463SOL    HW3 9883   0.770   2.314   4.208
 2463SOL    MW4 9884   0.853   2.305   4.233
 2464SOL     OW 9885   0.853   2.751   4.188
 2464SOL    HW2 9886   0.845   2.679   4.251
 2464SOL    HW3 9887   0.797   2.820   4.224
 2464SOL    MW4 9888   0.845   2.750   4.201
 2465SOL     OW 9889   1.118   2.823   4.199
 2465SOL    HW2 9890   1.133   2.908   4.158
 2465SOL    HW3 9891   1.026   2.804   4.180
 2465SOL    MW4 9892   1.107   2.832   4.191
 2466SOL     OW 9893   1.150   3.082   4.107
 2466SOL    HW2 9894   1.224   3.127   4.147
 2466SOL    HW3 9895   1.155   3.106   4.014
 2466SOL    MW4 9896   1.160   3.091   4.100
 2467SOL     OW 9897   0.949   3.244   4.217
 2467SOL    HW2 9898   0.957   3.230   4.312
 2467SOL    HW3 9899   1.007   3.179   4.178
 2467SOL    MW4 9900   0.957   3.234   4.225
 2468SOL     OW 9901   0.965   3.506   4.156
 2468SOL    HW2 9902   0.965   3.417   4.190
 2468SOL    HW3 9903   0.947   3.496   4.063
 2468SOL    MW4 9904   0.963   3.493   4.148
 2469SOL     OW 9905   1.188   3.631   4.247
 2469SOL    HW2 9906   1.100   3.594   4.244
 2469SOL    HW3 9907   1.207   3.641   4.340
 2469SOL    MW4 9908   1.179   3.628   4.259
 2470SOL     OW 9909   1.101   3.871   4.110
 2470SOL    HW2 9910   1.185   3.915   4.122
 2470SOL    HW3 9911   1.109   3.791   4.164
 2470SOL    MW4 9912   1.113   3.866   4.119
 2471SOL     OW 9913   0.775   3.855   4.122
 2471SOL    HW2 9914   0.857   3.902   4.108
 2471SOL    HW3 9915   0.714   3.921   4.155
 2471SOL    MW4 9916   0.778   3.870   4.125
 2472SOL     OW 9917   1.150   4.401   4.233
 2472SOL    HW2 9918   1.233   4.372   4.195
 2472SOL    HW3 9919   1.170   4.419   4.325
 2472SOL    MW4 9920   1.163   4.400   4.240
 2473SOL     OW 9921   0.887   4.520   4.527
 2473SOL    HW2 9922   0.977   4.489   4.518
 2473SOL    HW3 9923   0.849   4.510   4.440
 2473SOL    MW4 9924   0.894   4.514   4.514
 2474SOL     OW 9925   1.541   4.624   4.127
 2474SOL    HW2 9926   1.624   4.666   4.151
 2474SOL    HW3 9927   1.474   4.684   4.160
 2474SOL    MW4 9928   1.543   4.637   4.135
 2475SOL     OW 9929   1.321   0.090   4.250
 2475SOL    HW2 9930   1.315   0.099   4.345
 2475SOL    HW3 9931   1.241   0.044   4.225
 2475SOL    MW4 9932   1.310   0.085   4.259
 2476SOL     OW 9933   1.305   0.368   4.189
 2476SOL    HW2 9934   1.382   0.416   4.221
 2476SOL    HW3 9935   1.318   0.279   4.221
 2476SOL    MW4 9936   1.317   0.363   4.197
 2477SOL     OW 9937   1.528   0.495   4.274
 2477SOL    HW2 9938   1.541   0.510   4.368
 2477SOL    HW3 9939   1.526   0.582   4.235
 2477SOL    MW4 9940   1.529   0.508   4.281
 2478SOL     OW 9941   1.552   0.751   4.156
 2478SOL    HW2 9942   1.634   0.788   4.188
 2478SOL    HW3 9943   1.552   0.768   4.062
 2478SOL    MW4 9944   1.562   0.758   4.148
 2479SOL     OW 9945   1.349   0.935   4.229
 2479SOL    HW2 9946   1.329   1.009   4.173
 2479SOL    HW3 9947   1.426   0.894   4.190
 2479SOL    MW4 9948   1.356   0.939   4.217
 2480SOL     OW 9949   1.310   1.153   4.076
 2480SOL    HW2 9950   1.248   1.221   4.101
 2480SOL    HW3 9951   1.324   1.166   3.982
 2480SOL    MW4 9952   1.304   1.164   4.067
 2481SOL     OW 9953   1.532   1.268   4.220
 2481SOL    HW2 9954   1.534   1.248   4.313
 2481SOL    HW3 9955   1.452   1.226   4.188
 2481SOL    MW4 9956   1.522   1.260   4.228
 2482SOL     OW 9957   1.546   1.537   4.142
 2482SOL    HW2 9958   1.462   1.580   4.160
 2482SOL    HW3 9959   1.533   1.447   4.171
 2482SOL    MW4 9960   1.533   1.531   4.148
 2483SOL     OW 9961   1.315   1.681   4.203
 2483SOL    HW2 9962   1.318   1.772   4.173
 2483SOL    HW3 9963   1.243   1.641   4.154
 2483SOL    MW4 9964   1.306   1.688   4.192
 2484SOL     OW 9965   1.324   1.925   4.106
 2484SOL    HW2 9966   1.398   1.982   4.126
 2484SOL    HW3 9967   1.248   1.968   4.145
 2484SOL    MW4 9968   1.324   1.938   4.113
 2485SOL     OW 9969   1.528   2.072   4.183
 2485SOL    HW2 9970   1.616   2.036   4.190
 2485SOL    HW3 9971   1.541   2.165   4.167
 2485SOL    MW4 9972   1.541   2.079   4.182
 2486SOL     OW 9973   1.597   2.322   4.090
 2486SOL    HW2 9974   1.671   2.357   4.140
 2486SOL    HW3 9975   1.613   2.353   4.000
 2486SOL    MW4 9976   1.609   2.331   4.084
 2487SOL     OW 9977   1.599   2.765   4.159
 2487SOL    HW2 9978   1.610   2.762   4.254
 2487SOL    HW3 9979   1.688   2.775   4.125
 2487SOL    MW4 9980   1.612   2.766   4.167
 2488SOL     OW 9981   1.333   2.687   4.091
 2488SOL    HW2 9982   1.405   2.744   4.119
 2488SOL    HW3 9983   1.257   2.720   4.138
 2488SOL    MW4 9984   1.333   2.699   4.101
 2489SOL     OW 9985   1.596   2.261   4.745
 2489SOL    HW2 9986   1.669   2.245   4.685
 2489SOL    HW3 9987   1.584   2.356   4.745
 2489SOL    MW4 9988   1.604   2.271   4.737
 2490SOL     OW 9989   1.565   3.048   4.151
 2490SOL    HW2 9990   1.626   3.089   4.212
 2490SOL    HW3 9991   1.563   2.956   4.178
 2490SOL    MW4 9992   1.573   3.041   4.163
 2491SOL     OW 9993   1.376   3.215   4.242
 2491SOL    HW2 9994   1.449   3.169   4.202
 2491SOL    HW3 9995   1.373   3.300   4.197
 2491SOL    MW4 9996   1.385   3.220   4.231
 2492SOL     OW 9997   1.358   3.455   4.116
 2492SOL    HW2 9998   1.297   3.519   4.154
 2492SOL    HW3 9999   1.352   3.471   4.021
 2492SOL    MW410000   1.349   3.466   4.108
 2493SOL     OW10001   1.568   3.629   4.212
 2493SOL    HW210002   1.535   3.632   4.302
 2493SOL    HW310003   1.498   3.588   4.162
 2493SOL    MW410004   1.555   3.624   4.217
 2494SOL     OW10005   1.557   3.879   4.103
 2494SOL    HW210006   1.485   3.924   4.146
 2494SOL    HW310007   1.560   3.793   4.143
 2494SOL    MW410008   1.548   3.874   4.114
 2495SOL     OW10009   1.336   3.981   4.226
 2495SOL    HW210010   1.313   3.972   4.318
 2495SOL    HW310011   1.357   4.073   4.214
 2495SOL    MW410012   1.336   3.992   4.236
 2496SOL     OW10013   1.364   4.260   4.152
 2496SOL    HW210014   1.442   4.309   4.177
 2496SOL    HW310015   1.353   4.278   4.058
 2496SOL    MW410016   1.373   4.269   4.143
 2497SOL     OW10017   1.589   4.374   4.263
 2497SOL    HW210018   1.572   4.453   4.212
 2497SOL    HW310019   1.663   4.332   4.218
 2497SOL    MW410020   1.596   4.379   4.250
 2498SOL     OW10021   2.006   4.652   4.105
 2498SOL    HW210022   1.926   4.701   4.127
 2498SOL    HW310023   2.005   4.646   4.009
 2498SOL    MW410024   1.995   4.657   4.095
 2499SOL     OW10025   1.776   0.102   4.198
 2499SOL    HW210026   1.778   0.101   4.294
 2499SOL    HW310027   1.755   0.193   4.176
 2499SOL    MW410028   1.774   0.114   4.208
 2500SOL     OW10029   1.756   0.364   4.147
 2500SOL    HW210030   1.821   0.395   4.211
 2500SOL    HW310031   1.673   0.398   4.180
 2500SOL    MW410032   1.754   0.373   4.160
 2501SOL     OW10033   1.961   0.505   4.297
 2501SOL    HW210034   1.952   0.507   4.392
 2501SOL    HW310035   2.036   0.448   4.282
 2501SOL    MW410036   1.970   0.498   4.308
 2502SOL     OW10037   2.031   0.717   4.120
 2502SOL    HW210038   2.106   0.770   4.150
 2502SOL    HW310039   2.017   0.655   4.191
 2502SOL    MW410040   2.039   0.716   4.134
 2503SOL     OW10041   1.804   0.905   4.209
 2503SOL    HW210042   1.806   0.987   4.159
 2503SOL    HW310043   1.884   0.859   4.183
 2503SOL    MW410044   1.815   0.910   4.199
 2504SOL     OW10045   1.770   1.167   4.116
 2504SOL    HW210046   1.835   1.200   4.178
 2504SOL    HW310047   1.686   1.189   4.156
 2504SOL    MW410048   1.767   1.175   4.130
 2505SOL     OW10049   1.991   1.254   4.273
 2505SOL    HW210050   2.042   1.205   4.208
 2505SOL    HW310051   2.023   1.344   4.266
 2505SOL    MW410052   2.002   1.259   4.263
 2506SOL     OW10053   2.027   1.531   4.227
 2506SOL    HW210054   2.106   1.584   4.241
 2506SOL    HW310055   2.020   1.523   4.132
 2506SOL    MW410056   2.036   1.537   4.216
 2507SOL     OW10057   1.785   1.676   4.201
 2507SOL    HW210058   1.860   1.620   4.218
 2507SOL    HW310059   1.714   1.616   4.177
 2507SOL    MW410060   1.785   1.661   4.200
 2508SOL     OW10061   1.813   1.949   4.124
 2508SOL    HW210062   1.819   1.854   4.128
 2508SOL    HW310063   1.896   1.980   4.161
 2508SOL    MW410064   1.825   1.941   4.129
 2509SOL     OW10065   1.781   2.408   4.283
 2509SOL    HW210066   1.724   2.437   4.354
 2509SOL    HW310067   1.845   2.479   4.274
 2509SOL    MW410068   1.782   2.422   4.291
 2510SOL     OW10069   2.444   2.344   4.105
 2510SOL    HW210070   2.411   2.255   4.116
 2510SOL    HW310071   2.446   2.358   4.011
 2510SOL    MW410072   2.440   2.334   4.094
 2511SOL     OW10073   1.739   3.025   4.463
 2511SOL    HW210074   1.666   2.963   4.473
 2511SOL    HW310075   1.805   2.976   4.414
 2511SOL    MW410076   1.738   3.010   4.458
 2512SOL     OW10077   1.862   2.802   4.040
 2512SOL    HW210078   1.890   2.732   4.099
 2512SOL    HW310079   1.895   2.882   4.080
 2512SOL    MW410080   1.870   2.803   4.053
 2513SOL     OW10081   1.928   2.956   4.254
 2513SOL    HW210082   1.996   2.904   4.296
 2513SOL    HW310083   1.949   3.047   4.277
 2513SOL    MW410084   1.940   2.961   4.263
 2514SOL     OW10085   2.222   2.998   4.147
 2514SOL    HW210086   2.317   3.011   4.149
 2514SOL    HW310087   2.205   2.936   4.218
 2514SOL    MW410088   2.232   2.992   4.156
 2515SOL     OW10089   1.720   3.251   4.275
 2515SOL    HW210090   1.757   3.311   4.210
 2515SOL    HW310091   1.795   3.218   4.323
 2515SOL    MW410092   1.734   3.255   4.272
 2516SOL     OW10093   1.806   3.465   4.139
 2516SOL    HW210094   1.735   3.522   4.168
 2516SOL    HW310095   1.817   3.485   4.046
 2516SOL    MW410096   1.798   3.475   4.130
 2517SOL     OW10097   2.030   3.595   4.251
 2517SOL    HW210098   2.027   3.676   4.200
 2517SOL    HW310099   1.949   3.550   4.229
 2517SOL    MW410100   2.019   3.600   4.241
 2518SOL     OW10101   2.024   3.822   4.091
 2518SOL    HW210102   1.947   3.875   4.112
 2518SOL    HW310103   2.019   3.808   3.997
 2518SOL    MW410104   2.013   3.827   4.081
 2519SOL     OW10105   1.808   3.980   4.164
 2519SOL    HW210106   1.800   4.072   4.138
 2519SOL    HW310107   1.724   3.942   4.139
 2519SOL    MW410108   1.795   3.987   4.157
 2520SOL     OW10109   1.789   4.261   4.101
 2520SOL    HW210110   1.865   4.295   4.148
 2520SOL    HW310111   1.808   4.280   4.009
 2520SOL    MW410112   1.802   4.268   4.095
 2521SOL     OW10113   1.997   4.389   4.235
 2521SOL    HW210114   1.965   4.404   4.324
 2521SOL    HW310115   1.987   4.473   4.191
 2521SOL    MW410116   1.991   4.402   4.241
 2522SOL     OW10117   2.449   4.626   4.087
 2522SOL    HW210118   2.519   4.681   4.122
 2522SOL    HW310119   2.459   4.542   4.132
 2522SOL    MW410120   2.459   4.622   4.097
 2523SOL     OW10121   2.237   0.087   4.224
 2523SOL    HW210122   2.317   0.046   4.190
 2523SOL    HW310123   2.167   0.051   4.170
 2523SOL    MW410124   2.239   0.077   4.212
 2524SOL     OW10125   2.182   0.369   4.171
 2524SOL    HW210126   2.181   0.278   4.200
 2524SOL    HW310127   2.169   0.365   4.076
 2524SOL    MW410128   2.180   0.357   4.162
 2525SOL     OW10129   2.432   0.492   4.220
 2525SOL    HW210130   2.494   0.432   4.179
 2525SOL    HW310131   2.346   0.454   4.202
 2525SOL    MW410132   2.429   0.479   4.213
 2526SOL     OW10133   2.489   0.756   4.151
 2526SOL    HW210134   2.472   0.665   4.175
 2526SOL    HW310135   2.467   0.760   4.058
 2526SOL    MW410136   2.484   0.744   4.142
 2527SOL     OW10137   2.219   0.867   4.228
 2527SOL    HW210138   2.196   0.864   4.321
 2527SOL    HW310139   2.312   0.848   4.226
 2527SOL    MW410140   2.228   0.864   4.240
 2528SOL     OW10141   2.180   1.128   4.118
 2528SOL    HW210142   2.247   1.185   4.156
 2528SOL    HW310143   2.203   1.041   4.150
 2528SOL    MW410144   2.192   1.124   4.127
 2529SOL     OW10145   2.385   1.284   4.227
 2529SOL    HW210146   2.381   1.285   4.322
 2529SOL    HW310147   2.460   1.228   4.206
 2529SOL    MW410148   2.394   1.277   4.237
 2530SOL     OW10149   2.438   1.533   4.121
 2530SOL    HW210150   2.429   1.443   4.152
 2530SOL    HW310151   2.440   1.525   4.025
 2530SOL    MW410152   2.437   1.520   4.112
 2531SOL     OW10153   2.272   1.703   4.256
 2531SOL    HW210154   2.349   1.661   4.220
 2531SOL    HW310155   2.260   1.782   4.204
 2531SOL    MW410156   2.280   1.708   4.245
 2532SOL     OW10157   2.268   1.953   4.148
 2532SOL    HW210158   2.356   1.988   4.164
 2532SOL    HW310159   2.213   1.994   4.214
 2532SOL    MW410160   2.273   1.963   4.159
 2533SOL     OW10161   2.516   2.076   4.207
 2533SOL    HW210162   2.591   2.025   4.177
 2533SOL    HW310163   2.528   2.082   4.302
 2533SOL    MW410164   2.527   2.070   4.216
 2534SOL     OW10165   2.702   2.691   4.149
 2534SOL    HW210166   2.640   2.752   4.189
 2534SOL    HW310167   2.788   2.728   4.168
 2534SOL    MW410168   2.706   2.704   4.157
 2535SOL     OW10169   2.407   2.547   4.429
 2535SOL    HW210170   2.363   2.630   4.449
 2535SOL    HW310171   2.403   2.540   4.334
 2535SOL    MW410172   2.401   2.557   4.419
 2536SOL     OW10173   1.984   2.616   4.235
 2536SOL    HW210174   2.042   2.682   4.273
 2536SOL    HW310175   2.043   2.550   4.198
 2536SOL    MW410176   1.999   2.616   4.235
 2537SOL     OW10177   2.496   2.834   4.238
 2537SOL    HW210178   2.435   2.783   4.184
 2537SOL    HW310179   2.454   2.837   4.324
 2537SOL    MW410180   2.482   2.828   4.242
 2538SOL     OW10181   2.006   3.187   4.387
 2538SOL    HW210182   2.038   3.226   4.306
 2538SOL    HW310183   2.077   3.131   4.417
 2538SOL    MW410184   2.019   3.185   4.380
 2539SOL     OW10185   2.077   3.220   4.123
 2539SOL    HW210186   2.023   3.206   4.045
 2539SOL    HW310187   2.128   3.139   4.130
 2539SOL    MW410188   2.077   3.207   4.113
 2540SOL     OW10189   2.228   3.452   4.108
 2540SOL    HW210190   2.178   3.371   4.111
 2540SOL    HW310191   2.176   3.514   4.161
 2540SOL    MW410192   2.215   3.450   4.116
 2541SOL     OW10193   2.459   3.556   4.211
 2541SOL    HW210194   2.381   3.515   4.172
 2541SOL    HW310195   2.456   3.647   4.179
 2541SOL    MW410196   2.448   3.563   4.202
 2542SOL     OW10197   2.458   3.811   4.106
 2542SOL    HW210198   2.515   3.873   4.151
 2542SOL    HW310199   2.487   3.812   4.015
 2542SOL    MW410200   2.469   3.819   4.100
 2543SOL     OW10201   2.256   4.014   4.140
 2543SOL    HW210202   2.330   3.953   4.142
 2543SOL    HW310203   2.183   3.960   4.110
 2543SOL    MW410204   2.256   3.998   4.136
 2544SOL     OW10205   2.237   4.314   4.124
 2544SOL    HW210206   2.238   4.220   4.141
 2544SOL    HW310207   2.156   4.345   4.164
 2544SOL    MW410208   2.227   4.306   4.132
 2545SOL     OW10209   2.450   4.392   4.267
 2545SOL    HW210210   2.372   4.363   4.219
 2545SOL    HW310211   2.520   4.334   4.237
 2545SOL    MW410212   2.449   4.381   4.256
 2546SOL     OW10213   2.847   0.004   4.077
 2546SOL    HW210214   2.921   0.052   4.115
 2546SOL    HW310215   2.861  -0.087   4.104
 2546SOL    MW410216   2.858  -0.002   4.086
 2547SOL     OW10217   2.626   0.108   4.215
 2547SOL    HW210218   2.615   0.195   4.175
 2547SOL    HW310219   2.702   0.071   4.172
 2547SOL    MW410220   2.634   0.115   4.204
 2548SOL     OW10221   2.636   0.355   4.110
 2548SOL    HW210222   2.628   0.380   4.017
 2548SOL    HW310223   2.729   0.363   4.129
 2548SOL    MW410224   2.647   0.360   4.100
 2549SOL     OW10225   3.254   0.730   4.078
 2549SOL    HW210226   3.284   0.804   4.131
 2549SOL    HW310227   3.161   0.722   4.098
 2549SOL    MW410228   3.245   0.739   4.087
 2550SOL     OW10229   2.973   0.822   4.132
 2550SOL    HW210230   3.005   0.909   4.108
 2550SOL    HW310231   2.941   0.784   4.050
 2550SOL    MW410232   2.973   0.828   4.118
 2551SOL     OW10233   2.705   0.911   4.218
 2551SOL    HW210234   2.780   0.870   4.176
 2551SOL    HW310235   2.631   0.854   4.197
 2551SOL    MW410236   2.705   0.898   4.210
 2552SOL     OW10237   2.617   1.160   4.141
 2552SOL    HW210238   2.644   1.072   4.168
 2552SOL    HW310239   2.617   1.158   4.046
 2552SOL    MW410240   2.621   1.148   4.132
 2553SOL     OW10241   2.852   1.280   4.180
 2553SOL    HW210242   2.918   1.221   4.143
 2553SOL    HW310243   2.768   1.241   4.155
 2553SOL    MW410244   2.849   1.267   4.172
 2554SOL     OW10245   2.927   1.546   4.110
 2554SOL    HW210246   3.014   1.580   4.132
 2554SOL    HW310247   2.929   1.455   4.140
 2554SOL    MW410248   2.939   1.539   4.117
 2555SOL     OW10249   2.697   1.661   4.209
 2555SOL    HW210250   2.770   1.608   4.176
 2555SOL    HW310251   2.619   1.617   4.176
 2555SOL    MW410252   2.697   1.648   4.200
 2556SOL     OW10253   2.720   1.921   4.105
 2556SOL    HW210254   2.724   1.829   4.132
 2556SOL    HW310255   2.717   1.917   4.009
 2556SOL    MW410256   2.720   1.908   4.096
 2557SOL     OW10257   2.952   2.055   4.175
 2557SOL    HW210258   2.934   2.140   4.135
 2557SOL    HW310259   2.877   2.001   4.151
 2557SOL    MW410260   2.940   2.059   4.167
 2558SOL     OW10261   2.904   2.368   4.100
 2558SOL    HW210262   2.975   2.402   4.154
 2558SOL    HW310263   2.825   2.382   4.152
 2558SOL    MW410264   2.903   2.374   4.114
 2559SOL     OW10265   2.794   3.275   4.434
 2559SOL    HW210266   2.798   3.363   4.472
 2559SOL    HW310267   2.712   3.239   4.468
 2559SOL    MW410268   2.783   3.282   4.444
 2560SOL     OW10269   2.514   3.100   4.167
 2560SOL    HW210270   2.521   3.006   4.183
 2560SOL    HW310271   2.456   3.132   4.236
 2560SOL    MW410272   2.507   3.092   4.179
 2561SOL     OW10273   2.946   3.029   4.064
 2561SOL    HW210274   2.893   3.093   4.111
 2561SOL    HW310275   2.941   3.056   3.972
 2561SOL    MW410276   2.938   3.041   4.058
 2562SOL     OW10277   3.051   3.159   4.482
 2562SOL    HW210278   3.054   3.063   4.478
 2562SOL    HW310279   2.958   3.180   4.484
 2562SOL    MW410280   3.039   3.149   4.482
 2563SOL     OW10281   2.788   3.199   4.174
 2563SOL    HW210282   2.804   3.223   4.266
 2563SOL    HW310283   2.702   3.157   4.175
 2563SOL    MW410284   2.779   3.197   4.186
 2564SOL     OW10285   2.726   3.479   4.108
 2564SOL    HW210286   2.740   3.385   4.121
 2564SOL    HW310287   2.639   3.496   4.143
 2564SOL    MW410288   2.717   3.469   4.114
 2565SOL     OW10289   2.957   3.601   4.237
 2565SOL    HW210290   2.938   3.624   4.328
 2565SOL    HW310291   2.872   3.574   4.202
 2565SOL    MW410292   2.943   3.600   4.244
 2566SOL     OW10293   2.913   3.869   4.179
 2566SOL    HW210294   2.991   3.919   4.203
 2566SOL    HW310295   2.930   3.781   4.211
 2566SOL    MW410296   2.925   3.864   4.186
 2567SOL     OW10297   2.652   3.971   4.200
 2567SOL    HW210298   2.661   4.063   4.178
 2567SOL    HW310299   2.742   3.940   4.211
 2567SOL    MW410300   2.665   3.979   4.199
 2568SOL     OW10301   2.663   4.253   4.134
 2568SOL    HW210302   2.725   4.320   4.161
 2568SOL    HW310303   2.668   4.252   4.038
 2568SOL    MW410304   2.672   4.261   4.125
 2569SOL     OW10305   2.879   4.422   4.199
 2569SOL    HW210306   2.869   4.446   4.291
 2569SOL    HW310307   2.960   4.371   4.196
 2569SOL    MW410308   2.888   4.418   4.211
 2570SOL     OW10309   3.294   0.002   4.100
 2570SOL    HW210310   3.371   0.052   4.127
 2570SOL    HW310311   3.301  -0.081   4.146
 2570SOL    MW410312   3.305  -0.002   4.110
 2571SOL     OW10313   3.051   0.114   4.200
 2571SOL    HW210314   3.049   0.128   4.295
 2571SOL    HW310315   3.136   0.072   4.184
 2571SOL    MW410316   3.062   0.110   4.210
 2572SOL     OW10317   3.094   0.365   4.079
 2572SOL    HW210318   3.179   0.400   4.105
 2572SOL    HW310319   3.094   0.275   4.111
 2572SOL    MW410320   3.105   0.358   4.086
 2573SOL     OW10321   3.346   0.461   4.152
 2573SOL    HW210322   3.435   0.440   4.123
 2573SOL    HW310323   3.328   0.547   4.115
 2573SOL    MW410324   3.355   0.469   4.144
 2574SOL     OW10325   3.332   0.956   4.249
 2574SOL    HW210326   3.419   0.972   4.211
 2574SOL    HW310327   3.350   0.903   4.327
 2574SOL    MW410328   3.346   0.951   4.254
 2575SOL     OW10329   3.231   0.980   4.703
 2575SOL    HW210330   3.203   1.072   4.709
 2575SOL    HW310331   3.149   0.931   4.699
 2575SOL    MW410332   3.216   0.986   4.703
 2576SOL     OW10333   3.025   1.082   4.089
 2576SOL    HW210334   3.078   1.124   4.157
 2576SOL    HW310335   3.062   1.114   4.007
 2576SOL    MW410336   3.037   1.092   4.088
 2577SOL     OW10337   3.663   1.163   4.333
 2577SOL    HW210338   3.671   1.104   4.407
 2577SOL    HW310339   3.576   1.202   4.342
 2577SOL    MW410340   3.652   1.161   4.344
 2578SOL     OW10341   3.450   1.331   4.365
 2578SOL    HW210342   3.455   1.412   4.315
 2578SOL    HW310343   3.431   1.359   4.455
 2578SOL    MW410344   3.448   1.345   4.371
 2579SOL     OW10345   3.172   1.662   4.188
 2579SOL    HW210346   3.161   1.658   4.283
 2579SOL    HW310347   3.188   1.754   4.169
 2579SOL    MW410348   3.172   1.673   4.198
 2580SOL     OW10349   3.189   1.934   4.105
 2580SOL    HW210350   3.249   1.961   4.175
 2580SOL    HW310351   3.106   1.977   4.126
 2580SOL    MW410352   3.186   1.943   4.117
 2581SOL     OW10353   3.366   2.056   4.261
 2581SOL    HW210354   3.455   2.038   4.229
 2581SOL    HW310355   3.349   2.146   4.235
 2581SOL    MW410356   3.376   2.065   4.253
 2582SOL     OW10357   3.359   2.308   4.113
 2582SOL    HW210358   3.435   2.360   4.143
 2582SOL    HW310359   3.378   2.289   4.021
 2582SOL    MW410360   3.372   2.312   4.105
 2583SOL     OW10361   3.141   2.424   4.238
 2583SOL    HW210362   3.149   2.512   4.202
 2583SOL    HW310363   3.201   2.371   4.185
 2583SOL    MW410364   3.150   2.429   4.226
 2584SOL     OW10365   3.190   2.671   4.118
 2584SOL    HW210366   3.271   2.715   4.143
 2584SOL    HW310367   3.121   2.731   4.146
 2584SOL    MW410368   3.191   2.685   4.125
 2585SOL     OW10369   3.521   2.749   4.465
 2585SOL    HW210370   3.443   2.753   4.520
 2585SOL    HW310371   3.490   2.774   4.378
 2585SOL    MW410372   3.506   2.753   4.461
 2586SOL     OW10373   3.426   3.129   4.150
 2586SOL    HW210374   3.355   3.172   4.200
 2586SOL    HW310375   3.395   3.131   4.060
 2586SOL    MW410376   3.412   3.135   4.145
 2587SOL     OW10377   3.259   3.259   4.315
 2587SOL    HW210378   3.221   3.338   4.276
 2587SOL    HW310379   3.192   3.228   4.377
 2587SOL    MW410380   3.245   3.265   4.318
 2588SOL     OW10381   3.165   3.463   4.129
 2588SOL    HW210382   3.094   3.517   4.164
 2588SOL    HW310383   3.148   3.460   4.035
 2588SOL    MW410384   3.153   3.470   4.121
 2589SOL     OW10385   3.387   3.631   4.201
 2589SOL    HW210386   3.388   3.629   4.297
 2589SOL    HW310387   3.313   3.575   4.177
 2589SOL    MW410388   3.377   3.624   4.211
 2590SOL     OW10389   3.329   3.886   4.112
 2590SOL    HW210390   3.346   3.794   4.133
 2590SOL    HW310391   3.335   3.890   4.017
 2590SOL    MW410392   3.332   3.874   4.102
 2591SOL     OW10393   3.132   4.048   4.224
 2591SOL    HW210394   3.141   4.038   4.318
 2591SOL    HW310395   3.203   3.995   4.188
 2591SOL    MW410396   3.143   4.040   4.231
 2592SOL     OW10397   3.111   4.298   4.095
 2592SOL    HW210398   3.190   4.346   4.119
 2592SOL    HW310399   3.115   4.218   4.147
 2592SOL    MW410400   3.122   4.294   4.105
 2593SOL     OW10401   3.355   4.418   4.210
 2593SOL    HW210402   3.336   4.395   4.301
 2593SOL    HW310403   3.432   4.366   4.188
 2593SOL    MW410404   3.362   4.408   4.219
 2594SOL     OW10405   3.837   0.003   4.130
 2594SOL    HW210406   3.924   0.041   4.144
 2594SOL    HW310407   3.829  -0.002   4.034
 2594SOL    MW410408   3.847   0.008   4.119
 2595SOL     OW10409   3.519   0.133   4.200
 2595SOL    HW210410   3.547   0.224   4.203
 2595SOL    HW310411   3.600   0.083   4.198
 2595SOL    MW410412   3.533   0.138   4.200
 2596SOL     OW10413   3.605   0.400   4.092
 2596SOL    HW210414   3.687   0.433   4.129
 2596SOL    HW310415   3.618   0.402   3.998
 2596SOL    MW410416   3.618   0.405   4.085
 2597SOL     OW10417   3.826   0.510   4.214
 2597SOL    HW210418   3.823   0.492   4.307
 2597SOL    HW310419   3.813   0.605   4.207
 2597SOL    MW410420   3.824   0.520   4.225
 2598SOL     OW10421   3.782   0.782   4.137
 2598SOL    HW210422   3.710   0.842   4.157
 2598SOL    HW310423   3.787   0.783   4.041
 2598SOL    MW410424   3.773   0.790   4.127
 2599SOL     OW10425   3.642   0.716   4.601
 2599SOL    HW210426   3.629   0.695   4.693
 2599SOL    HW310427   3.555   0.734   4.567
 2599SOL    MW410428   3.629   0.715   4.608
 2600SOL     OW10429   3.573   0.984   4.142
 2600SOL    HW210430   3.614   1.056   4.190
 2600SOL    HW310431   3.573   1.012   4.051
 2600SOL    MW410432   3.578   0.997   4.136
 2601SOL     OW10433   3.839   1.347   4.255
 2601SOL    HW210434   3.775   1.278   4.274
 2601SOL    HW310435   3.888   1.357   4.337
 2601SOL    MW410436   3.837   1.339   4.268
 2602SOL     OW10437   3.820   1.583   4.113
 2602SOL    HW210438   3.825   1.504   4.166
 2602SOL    HW310439   3.879   1.645   4.157
 2602SOL    MW410440   3.829   1.581   4.126
 2603SOL     OW10441   3.616   1.979   4.168
 2603SOL    HW210442   3.596   1.971   4.074
 2603SOL    HW310443   3.619   1.889   4.200
 2603SOL    MW410444   3.614   1.966   4.160
 2604SOL     OW10445   3.419   1.532   4.160
 2604SOL    HW210446   3.437   1.518   4.067
 2604SOL    HW310447   3.331   1.569   4.162
 2604SOL    MW410448   3.410   1.535   4.148
 2605SOL     OW10449   3.842   2.088   4.235
 2605SOL    HW210450   3.837   2.084   4.330
 2605SOL    HW310451   3.759   2.050   4.205
 2605SOL    MW410452   3.830   2.082   4.243
 2606SOL     OW10453   3.799   2.362   4.144
 2606SOL    HW210454   3.820   2.274   4.174
 2606SOL    HW310455   3.811   2.359   4.049
 2606SOL    MW410456   3.804   2.350   4.135
 2607SOL     OW10457   3.565   2.467   4.186
 2607SOL    HW210458   3.550   2.461   4.280
 2607SOL    HW310459   3.656   2.440   4.175
 2607SOL    MW410460   3.575   2.462   4.197
 2608SOL     OW10461   3.642   2.725   4.097
 2608SOL    HW210462   3.621   2.633   4.116
 2608SOL    HW310463   3.625   2.735   4.004
 2608SOL    MW410464   3.637   2.714   4.087
 2609SOL     OW10465   3.847   2.862   4.231
 2609SOL    HW210466   3.825   2.863   4.324
 2609SOL    HW310467   3.769   2.826   4.189
 2609SOL    MW410468   3.833   2.858   4.237
 2610SOL     OW10469   3.887   3.110   4.117
 2610SOL    HW210470   3.871   3.022   4.151
 2610SOL    HW310471   3.865   3.104   4.024
 2610SOL    MW410472   3.882   3.097   4.109
 2611SOL     OW10473   3.665   3.257   4.206
 2611SOL    HW210474   3.741   3.219   4.162
 2611SOL    HW310475   3.591   3.209   4.170
 2611SOL    MW410476   3.665   3.245   4.196
 2612SOL     OW10477   3.627   3.522   4.123
 2612SOL    HW210478   3.639   3.436   4.164
 2612SOL    HW310479   3.534   3.542   4.137
 2612SOL    MW410480   3.616   3.513   4.130
 2613SOL     OW10481   3.818   3.634   4.285
 2613SOL    HW210482   3.895   3.600   4.239
 2613SOL    HW310483   3.744   3.608   4.230
 2613SOL    MW410484   3.818   3.626   4.272
 2614SOL     OW10485   3.795   3.856   4.127
 2614SOL    HW210486   3.723   3.913   4.151
 2614SOL    HW310487   3.791   3.784   4.190
 2614SOL    MW410488   3.785   3.854   4.139
 2615SOL     OW10489   3.585   3.990   4.234
 2615SOL    HW210490   3.585   3.979   4.329
 2615SOL    HW310491   3.494   3.979   4.208
 2615SOL    MW410492   3.573   3.987   4.243
 2616SOL     OW10493   3.575   4.267   4.131
 2616SOL    HW210494   3.642   4.316   4.178
 2616SOL    HW310495   3.583   4.178   4.163
 2616SOL    MW410496   3.585   4.262   4.141
 2617SOL     OW10497   3.797   4.403   4.226
 2617SOL    HW210498   3.864   4.363   4.171
 2617SOL    HW310499   3.789   4.492   4.193
 2617SOL    MW410500   3.805   4.409   4.214
 2618SOL     OW10501   4.258   4.634   4.081
 2618SOL    HW210502   4.267   4.544   4.113
 2618SOL    HW310503   4.337   4.678   4.111
 2618SOL    MW410504   4.270   4.628   4.089
 2619SOL     OW10505   4.073   0.143   4.199
 2619SOL    HW210506   4.077   0.228   4.154
 2619SOL    HW310507   4.141   0.091   4.158
 2619SOL    MW410508   4.082   0.147   4.188
 2620SOL     OW10509   4.049   0.394   4.078
 2620SOL    HW210510   4.118   0.442   4.124
 2620SOL    HW310511   3.968   0.425   4.117
 2620SOL    MW410512   4.048   0.404   4.089
 2621SOL     OW10513   4.269   0.516   4.229
 2621SOL    HW210514   4.267   0.612   4.219
 2621SOL    HW310515   4.351   0.489   4.187
 2621SOL    MW410516   4.280   0.525   4.222
 2622SOL     OW10517   4.271   0.778   4.140
 2622SOL    HW210518   4.187   0.816   4.165
 2622SOL    HW310519   4.270   0.779   4.044
 2622SOL    MW410520   4.260   0.783   4.131
 2623SOL     OW10521   4.021   0.912   4.205
 2623SOL    HW210522   4.011   0.996   4.161
 2623SOL    HW310523   3.936   0.869   4.197
 2623SOL    MW410524   4.009   0.917   4.198
 2624SOL     OW10525   4.031   1.178   4.093
 2624SOL    HW210526   4.112   1.225   4.115
 2624SOL    HW310527   3.965   1.216   4.151
 2624SOL    MW410528   4.033   1.189   4.104
 2625SOL     OW10529   4.241   1.323   4.174
 2625SOL    HW210530   4.236   1.321   4.269
 2625SOL    HW310531   4.312   1.263   4.153
 2625SOL    MW410532   4.250   1.315   4.184
 2626SOL     OW10533   4.219   1.574   4.065
 2626SOL    HW210534   4.236   1.486   4.098
 2626SOL    HW310535   4.221   1.564   3.970
 2626SOL    MW410536   4.222   1.561   4.057
 2627SOL     OW10537   4.114   1.660   4.692
 2627SOL    HW210538   4.038   1.602   4.696
 2627SOL    HW310539   4.087   1.740   4.738
 2627SOL    MW410540   4.101   1.663   4.699
 2628SOL     OW10541   4.089   2.024   4.133
 2628SOL    HW210542   4.087   1.932   4.160
 2628SOL    HW310543   4.007   2.061   4.165
 2628SOL    MW410544   4.078   2.017   4.141
 2629SOL     OW10545   0.029   1.927   4.106
 2629SOL    HW210546   0.118   1.931   4.141
 2629SOL    HW310547  -0.019   1.995   4.152
 2629SOL    MW410548   0.035   1.936   4.116
 2630SOL     OW10549   4.227   2.348   4.048
 2630SOL    HW210550   4.176   2.398   4.112
 2630SOL    HW310551   4.259   2.272   4.096
 2630SOL    MW410552   4.225   2.345   4.062
 2631SOL     OW10553   4.059   2.479   4.217
 2631SOL    HW210554   4.073   2.472   4.311
 2631SOL    HW310555   3.971   2.443   4.203
 2631SOL    MW410556   4.049   2.473   4.227
 2632SOL     OW10557   4.046   2.729   4.097
 2632SOL    HW210558   4.041   2.644   4.142
 2632SOL    HW310559   3.985   2.785   4.144
 2632SOL    MW410560   4.037   2.725   4.109
 2633SOL     OW10561   4.259   2.890   4.213
 2633SOL    HW210562   4.196   2.818   4.206
 2633SOL    HW310563   4.338   2.857   4.169
 2633SOL    MW410564   4.261   2.876   4.206
 2634SOL     OW10565   4.309   3.163   4.152
 2634SOL    HW210566   4.295   3.075   4.186
 2634SOL    HW310567   4.303   3.153   4.057
 2634SOL    MW410568   4.306   3.150   4.144
 2635SOL     OW10569   4.060   3.282   4.268
 2635SOL    HW210570   4.142   3.261   4.223
 2635SOL    HW310571   3.994   3.228   4.224
 2635SOL    MW410572   4.062   3.272   4.256
 2636SOL     OW10573   4.061   3.534   4.168
 2636SOL    HW210574   4.066   3.442   4.195
 2636SOL    HW310575   4.056   3.531   4.073
 2636SOL    MW410576   4.061   3.521   4.159
 2637SOL     OW10577   4.287   3.675   4.246
 2637SOL    HW210578   4.278   3.760   4.204
 2637SOL    HW310579   4.206   3.629   4.223
 2637SOL    MW410580   4.275   3.680   4.237
 2638SOL     OW10581   4.259   3.917   4.109
 2638SOL    HW210582   4.177   3.961   4.134
 2638SOL    HW310583   4.259   3.919   4.014
 2638SOL    MW410584   4.248   3.923   4.100
 2639SOL     OW10585   4.013   4.004   4.212
 2639SOL    HW210586   4.033   3.997   4.305
 2639SOL    HW310587   3.956   3.929   4.194
 2639SOL    MW410588   4.008   3.993   4.222
 2640SOL     OW10589   4.002   4.269   4.090
 2640SOL    HW210590   4.080   4.312   4.126
 2640SOL    HW310591   3.987   4.195   4.149
 2640SOL    MW410592   4.010   4.265   4.103
 2641SOL     OW10593   4.459   4.214   4.607
 2641SOL    HW210594   4.436   4.196   4.698
 2641SOL    HW310595   4.437   4.134   4.560
 2641SOL    MW410596   4.453   4.201   4.613
 2642SOL     OW10597   4.025   4.411   4.610
 2642SOL    HW210598   4.004   4.318   4.613
 2642SOL    HW310599   3.946   4.452   4.572
 2642SOL    MW410600   4.011   4.404   4.605
 2643SOL     OW10601   4.144   4.658   4.642
 2643SOL    HW210602   4.232   4.671   4.677
 2643SOL    HW310603   4.123   4.567   4.664
 2643SOL    MW410604   4.153   4.648   4.650
 2644SOL     OW10605   3.772   0.104   4.450
 2644SOL    HW210606   3.846   0.154   4.484
 2644SOL    HW310607   3.695   0.152   4.478
 2644SOL    MW410608   3.772   0.117   4.458
 2645SOL     OW10609   3.845   1.521   4.660
 2645SOL    HW210610   3.783   1.577   4.612
 2645SOL    HW310611   3.802   1.436   4.664
 2645SOL    MW410612   3.831   1.517   4.654
 2646SOL     OW10613   0.520   0.148   4.515
 2646SOL    HW210614   0.484   0.061   4.533
 2646SOL    HW310615   0.615   0.138   4.524
 2646SOL    MW410616   0.528   0.135   4.519
 2647SOL     OW10617   0.191   0.721   4.477
 2647SOL    HW210618   0.205   0.649   4.539
 2647SOL    HW310619   0.190   0.679   4.391
 2647SOL    MW410620   0.193   0.706   4.474
 2648SOL     OW10621   4.431   0.560   4.628
 2648SOL    HW210622   4.360   0.521   4.576
 2648SOL    HW310623   4.416   0.526   4.716
 2648SOL    MW410624   4.419   0.550   4.633
 2649SOL     OW10625   0.658   1.332   4.771
 2649SOL    HW210626   0.565   1.334   4.749
 2649SOL    HW310627   0.691   1.416   4.740
 2649SOL    MW410628   0.650   1.343   4.764
 2650SOL     OW10629   1.129   1.981   4.522
 2650SOL    HW210630   1.215   1.976   4.563
 2650SOL    HW310631   1.080   2.041   4.577
 2650SOL    MW410632   1.134   1.989   4.534
 2651SOL     OW10633   3.972   1.250   4.522
 2651SOL    HW210634   3.990   1.158   4.504
 2651SOL    HW310635   3.887   1.250   4.565
 2651SOL    MW410636   3.963   1.238   4.526
 2652SOL     OW10637   4.444   1.740   4.483
 2652SOL    HW210638   4.447   1.712   4.391
 2652SOL    HW310639   4.418   1.662   4.531
 2652SOL    MW410640   4.441   1.726   4.477
 2653SOL     OW10641   0.414   1.682   4.226
 2653SOL    HW210642   0.336   1.642   4.189
 2653SOL    HW310643   0.487   1.634   4.186
 2653SOL    MW410644   0.414   1.670   4.216
 2654SOL     OW10645   4.160   1.788   4.457
 2654SOL    HW210646   4.134   1.733   4.532
 2654SOL    HW310647   4.254   1.801   4.469
 2654SOL    MW410648   4.169   1.782   4.469
 2655SOL     OW10649   4.224   2.280   4.489
 2655SOL    HW210650   4.186   2.204   4.534
 2655SOL    HW310651   4.162   2.351   4.503
 2655SOL    MW410652   4.211   2.279   4.497
 2656SOL     OW10653   0.817   2.946   4.586
 2656SOL    HW210654   0.844   2.855   4.575
 2656SOL    HW310655   0.849   2.971   4.673
 2656SOL    MW410656   0.825   2.937   4.596
 2657SOL     OW10657   0.548   2.973   4.508
 2657SOL    HW210658   0.509   2.911   4.569
 2657SOL    HW310659   0.640   2.979   4.535
 2657SOL    MW410660   0.555   2.966   4.519
 2658SOL     OW10661   0.195   2.509   4.507
 2658SOL    HW210662   0.115   2.465   4.479
 2658SOL    HW310663   0.265   2.449   4.483
 2658SOL    MW410664   0.194   2.496   4.500
 2659SOL     OW10665   3.605   3.726   4.609
 2659SOL    HW210666   3.689   3.685   4.629
 2659SOL    HW310667   3.560   3.664   4.552
 2659SOL    MW410668   3.610   3.712   4.604
 2660SOL     OW10669   0.428   3.212   4.435
 2660SOL    HW210670   0.476   3.141   4.479
 2660SOL    HW310671   0.349   3.223   4.488
 2660SOL    MW410672   0.424   3.204   4.448
 2661SOL     OW10673   4.146   3.974   4.468
 2661SOL    HW210674   4.132   3.891   4.513
 2661SOL    HW310675   4.106   4.039   4.525
 2661SOL    MW410676   4.139   3.972   4.481
 2662SOL     OW10677   4.449   4.589   4.534
 2662SOL    HW210678   4.377   4.544   4.489
 2662SOL    HW310679   4.436   4.681   4.512
 2662SOL    MW410680   4.438   4.595   4.525
 2663SOL     OW10681   3.304   0.404   4.421
 2663SOL    HW210682   3.314   0.412   4.326
 2663SOL    HW310683   3.245   0.330   4.433
 2663SOL    MW410684   3.298   0.396   4.410
 2664SOL     OW10685   4.004   4.136   4.647
 2664SOL    HW210686   4.026   4.142   4.740
 2664SOL    HW310687   3.914   4.103   4.646
 2664SOL    MW410688   3.995   4.132   4.660
 2665SOL     OW10689   3.731   4.082   4.680
 2665SOL    HW210690   3.706   4.038   4.762
 2665SOL    HW310691   3.677   4.039   4.613
 2665SOL    MW410692   3.720   4.071   4.682
 2666SOL     OW10693   0.429   4.542   4.512
 2666SOL    HW210694   0.493   4.472   4.522
 2666SOL    HW310695   0.344   4.498   4.519
 2666SOL    MW410696   0.426   4.527   4.514
 2667SOL     OW10697   4.187   0.813   4.637
 2667SOL    HW210698   4.276   0.807   4.603
 2667SOL    HW310699   4.196   0.804   4.732
 2667SOL    MW410700   4.200   0.811   4.645
 2668SOL     OW10701   1.042   0.581   4.486
 2668SOL    HW210702   0.979   0.653   4.484
 2668SOL    HW310703   0.989   0.503   4.500
 2668SOL    MW410704   1.027   0.580   4.488
 2669SOL     OW10705   0.899   0.349   4.561
 2669SOL    HW210706   0.861   0.262   4.551
 2669SOL    HW310707   0.825   0.408   4.569
 2669SOL    MW410708   0.884   0.345   4.561
 2670SOL     OW10709   0.897   0.836   4.449
 2670SOL    HW210710   0.880   0.853   4.356
 2670SOL    HW310711   0.819   0.870   4.494
 2670SOL    MW410712   0.884   0.843   4.443
 2671SOL     OW10713   0.383   0.936   4.504
 2671SOL    HW210714   0.408   0.937   4.412
 2671SOL    HW310715   0.315   0.868   4.510
 2671SOL    MW410716   0.378   0.927   4.493
 2672SOL     OW10717   2.102   1.165   4.507
 2672SOL    HW210718   2.074   1.202   4.423
 2672SOL    HW310719   2.188   1.204   4.522
 2672SOL    MW410720   2.110   1.175   4.498
 2673SOL     OW10721   0.456   1.684   4.527
 2673SOL    HW210722   0.429   1.769   4.561
 2673SOL    HW310723   0.429   1.686   4.435
 2673SOL    MW410724   0.449   1.695   4.519
 2674SOL     OW10725   1.377   1.012   4.492
 2674SOL    HW210726   1.292   1.016   4.536
 2674SOL    HW310727   1.356   0.986   4.402
 2674SOL    MW410728   1.363   1.009   4.486
 2675SOL     OW10729   0.707   1.565   4.612
 2675SOL    HW210730   0.628   1.611   4.586
 2675SOL    HW310731   0.776   1.631   4.610
 2675SOL    MW410732   0.706   1.580   4.608
 2676SOL     OW10733   0.566   2.126   4.471
 2676SOL    HW210734   0.649   2.156   4.508
 2676SOL    HW310735   0.527   2.073   4.541
 2676SOL    MW410736   0.571   2.123   4.485
 2677SOL     OW10737   0.945   1.750   4.517
 2677SOL    HW210738   1.017   1.689   4.535
 2677SOL    HW310739   0.981   1.836   4.537
 2677SOL    MW410740   0.959   1.753   4.522
 2678SOL     OW10741   0.413   2.352   4.453
 2678SOL    HW210742   0.475   2.281   4.442
 2678SOL    HW310743   0.419   2.403   4.372
 2678SOL    MW410744   0.422   2.350   4.441
 2679SOL     OW10745   1.143   2.519   4.602
 2679SOL    HW210746   1.206   2.558   4.662
 2679SOL    HW310747   1.078   2.588   4.586
 2679SOL    MW410748   1.142   2.533   4.608
 2680SOL     OW10749   0.841   2.555   4.376
 2680SOL    HW210750   0.759   2.544   4.423
 2680SOL    HW310751   0.847   2.479   4.319
 2680SOL    MW410752   0.831   2.544   4.374
 2681SOL     OW10753   0.969   3.154   4.482
 2681SOL    HW210754   1.013   3.193   4.558
 2681SOL    HW310755   0.900   3.100   4.520
 2681SOL    MW410756   0.966   3.152   4.497
 2682SOL     OW10757   1.122   3.230   4.785
 2682SOL    HW210758   1.212   3.198   4.784
 2682SOL    HW310759   1.128   3.320   4.755
 2682SOL    MW410760   1.134   3.237   4.781
 2683SOL     OW10761   1.159   4.452   4.501
 2683SOL    HW210762   1.213   4.529   4.517
 2683SOL    HW310763   1.208   4.379   4.539
 2683SOL    MW410764   1.172   4.453   4.508
 2684SOL     OW10765   0.412   2.765   4.628
 2684SOL    HW210766   0.349   2.787   4.559
 2684SOL    HW310767   0.359   2.723   4.696
 2684SOL    MW410768   0.397   2.762   4.627
 2685SOL     OW10769   0.155   3.267   4.481
 2685SOL    HW210770   0.181   3.356   4.503
 2685SOL    HW310771   0.146   3.267   4.386
 2685SOL    MW410772   0.157   3.278   4.472
 2686SOL     OW10773   1.521   3.638   4.483
 2686SOL    HW210774   1.560   3.553   4.503
 2686SOL    HW310775   1.589   3.701   4.508
 2686SOL    MW410776   1.535   3.635   4.489
 2687SOL     OW10777   4.423   3.975   4.453
 2687SOL    HW210778   4.327   3.970   4.450
 2687SOL    HW310779   4.449   3.895   4.498
 2687SOL    MW410780   4.413   3.964   4.459
 2688SOL     OW10781   0.264   3.846   4.112
 2688SOL    HW210782   0.244   3.774   4.171
 2688SOL    HW310783   0.207   3.918   4.142
 2688SOL    MW410784   0.254   3.846   4.124
 2689SOL     OW10785   0.180   4.416   4.520
 2689SOL    HW210786   0.131   4.340   4.551
 2689SOL    HW310787   0.124   4.491   4.542
 2689SOL    MW410788   0.166   4.416   4.527
 2690SOL     OW10789   0.654   0.560   4.517
 2690SOL    HW210790   0.644   0.557   4.421
 2690SOL    HW310791   0.571   0.526   4.550
 2690SOL    MW410792   0.642   0.555   4.508
 2691SOL     OW10793   0.866   3.760   4.380
 2691SOL    HW210794   0.848   3.769   4.287
 2691SOL    HW310795   0.913   3.840   4.403
 2691SOL    MW410796   0.870   3.772   4.371
 2692SOL     OW10797   0.146   0.419   4.514
 2692SOL    HW210798   0.081   0.474   4.557
 2692SOL    HW310799   0.160   0.459   4.429
 2692SOL    MW410800   0.139   0.432   4.509
 2693SOL     OW10801   1.070   1.028   4.551
 2693SOL    HW210802   1.005   1.054   4.617
 2693SOL    HW310803   1.027   0.960   4.500
 2693SOL    MW410804   1.056   1.023   4.553
 2694SOL     OW10805   1.747   0.942   4.488
 2694SOL    HW210806   1.796   1.021   4.512
 2694SOL    HW310807   1.759   0.936   4.393
 2694SOL    MW410808   1.755   0.952   4.479
 2695SOL     OW10809   0.285   1.191   4.506
 2695SOL    HW210810   0.346   1.118   4.517
 2695SOL    HW310811   0.332   1.266   4.542
 2695SOL    MW410812   0.300   1.191   4.512
 2696SOL     OW10813   1.395   1.933   4.643
 2696SOL    HW210814   1.434   2.000   4.588
 2696SOL    HW310815   1.415   1.850   4.600
 2696SOL    MW410816   1.403   1.931   4.630
 2697SOL     OW10817   0.787   1.332   4.478
 2697SOL    HW210818   0.752   1.402   4.533
 2697SOL    HW310819   0.776   1.253   4.530
 2697SOL    MW410820   0.781   1.331   4.492
 2698SOL     OW10821   1.836   1.164   4.598
 2698SOL    HW210822   1.838   1.194   4.689
 2698SOL    HW310823   1.926   1.177   4.567
 2698SOL    MW410824   1.848   1.170   4.606
 2699SOL     OW10825   1.072   1.325   4.448
 2699SOL    HW210826   1.077   1.235   4.481
 2699SOL    HW310827   0.979   1.347   4.451
 2699SOL    MW410828   1.061   1.316   4.453
 2700SOL     OW10829   1.096   2.231   4.656
 2700SOL    HW210830   1.165   2.219   4.721
 2700SOL    HW310831   1.093   2.325   4.640
 2700SOL    MW410832   1.104   2.241   4.662
 2701SOL     OW10833   1.591   2.544   4.735
 2701SOL    HW210834   1.659   2.599   4.776
 2701SOL    HW310835   1.509   2.590   4.753
 2701SOL    MW410836   1.589   2.558   4.743
 2702SOL     OW10837   1.403   3.158   4.742
 2702SOL    HW210838   1.401   3.223   4.672
 2702SOL    HW310839   1.497   3.145   4.760
 2702SOL    MW410840   1.415   3.165   4.735
 2703SOL     OW10841   1.643   3.381   4.497
 2703SOL    HW210842   1.661   3.312   4.561
 2703SOL    HW310843   1.664   3.342   4.413
 2703SOL    MW410844   1.648   3.367   4.495
 2704SOL     OW10845   0.976   2.732   4.547
 2704SOL    HW210846   1.037   2.786   4.496
 2704SOL    HW310847   0.946   2.666   4.485
 2704SOL    MW410848   0.980   2.730   4.532
 2705SOL     OW10849   0.763   4.097   4.610
 2705SOL    HW210850   0.709   4.173   4.588
 2705SOL    HW310851   0.709   4.022   4.585
 2705SOL    MW410852   0.749   4.097   4.604
 2706SOL     OW10853   1.325   2.887   4.648
 2706SOL    HW210854   1.263   2.921   4.584
 2706SOL    HW310855   1.360   2.965   4.691
 2706SOL    MW410856   1.321   2.902   4.645
 2707SOL     OW10857   1.149   2.939   4.443
 2707SOL    HW210858   1.083   3.008   4.445
 2707SOL    HW310859   1.144   2.903   4.355
 2707SOL    MW410860   1.140   2.943   4.432
 2708SOL     OW10861   2.005   3.641   4.527
 2708SOL    HW210862   2.023   3.631   4.434
 2708SOL    HW310863   2.004   3.552   4.561
 2708SOL    MW410864   2.007   3.628   4.519
 2709SOL     OW10865   0.637   3.878   4.469
 2709SOL    HW210866   0.595   3.908   4.388
 2709SOL    HW310867   0.707   3.819   4.439
 2709SOL    MW410868   0.641   3.874   4.455
 2710SOL     OW10869   0.252   3.528   4.523
 2710SOL    HW210870   0.245   3.551   4.430
 2710SOL    HW310871   0.328   3.577   4.554
 2710SOL    MW410872   0.262   3.537   4.515
 2711SOL     OW10873   0.657   4.358   4.552
 2711SOL    HW210874   0.654   4.346   4.457
 2711SOL    HW310875   0.737   4.408   4.568
 2711SOL    MW410876   0.667   4.363   4.541
 2712SOL     OW10877   0.923   4.284   4.133
 2712SOL    HW210878   1.006   4.325   4.155
 2712SOL    HW310879   0.857   4.342   4.171
 2712SOL    MW410880   0.925   4.297   4.141
 2713SOL     OW10881   2.145   3.864   4.645
 2713SOL    HW210882   2.094   3.786   4.622
 2713SOL    HW310883   2.079   3.931   4.666
 2713SOL    MW410884   2.130   3.863   4.645
 2714SOL     OW10885   1.556   4.380   4.541
 2714SOL    HW210886   1.566   4.388   4.446
 2714SOL    HW310887   1.479   4.324   4.553
 2714SOL    MW410888   1.547   4.373   4.530
 2715SOL     OW10889   1.310   4.236   4.602
 2715SOL    HW210890   1.267   4.165   4.555
 2715SOL    HW310891   1.316   4.205   4.692
 2715SOL    MW410892   1.305   4.223   4.608
 2716SOL     OW10893   0.657   0.852   4.583
 2716SOL    HW210894   0.567   0.864   4.553
 2716SOL    HW310895   0.676   0.760   4.566
 2716SOL    MW410896   0.648   0.842   4.577
 2717SOL     OW10897   1.537   4.653   4.617
 2717SOL    HW210898   1.539   4.559   4.601
 2717SOL    HW310899   1.618   4.685   4.577
 2717SOL    MW410900   1.548   4.645   4.610
 2718SOL     OW10901   1.161   0.261   4.639
 2718SOL    HW210902   1.210   0.343   4.643
 2718SOL    HW310903   1.069   0.288   4.638
 2718SOL    MW410904   1.155   0.275   4.639
 2719SOL     OW10905   1.707   1.751   4.471
 2719SOL    HW210906   1.625   1.703   4.478
 2719SOL    HW310907   1.747   1.720   4.390
 2719SOL    MW410908   1.702   1.741   4.461
 2720SOL     OW10909   0.796   1.100   4.667
 2720SOL    HW210910   0.747   1.161   4.723
 2720SOL    HW310911   0.744   1.020   4.668
 2720SOL    MW410912   0.783   1.098   4.675
 2721SOL     OW10913   1.559   0.527   4.548
 2721SOL    HW210914   1.473   0.502   4.581
 2721SOL    HW310915   1.565   0.621   4.564
 2721SOL    MW410916   1.549   0.536   4.555
 2722SOL     OW10917   1.580   1.204   4.484
 2722SOL    HW210918   1.527   1.128   4.509
 2722SOL    HW310919   1.670   1.175   4.497
 2722SOL    MW410920   1.585   1.190   4.489
 2723SOL     OW10921   1.137   1.560   4.621
 2723SOL    HW210922   1.233   1.570   4.617
 2723SOL    HW310923   1.120   1.476   4.579
 2723SOL    MW410924   1.148   1.550   4.615
 2724SOL     OW10925   1.337   2.649   4.786
 2724SOL    HW210926   1.322   2.733   4.744
 2724SOL    HW310927   1.317   2.664   4.878
 2724SOL    MW410928   1.332   2.662   4.793
 2725SOL     OW10929   2.295   2.659   4.143
 2725SOL    HW210930   2.267   2.569   4.126
 2725SOL    HW310931   2.239   2.689   4.214
 2725SOL    MW410932   2.284   2.651   4.150
 2726SOL     OW10933   0.814   2.221   4.550
 2726SOL    HW210934   0.887   2.232   4.612
 2726SOL    HW310935   0.855   2.230   4.464
 2726SOL    MW410936   0.829   2.224   4.547
 2727SOL     OW10937   1.216   4.004   4.490
 2727SOL    HW210938   1.133   4.020   4.444
 2727SOL    HW310939   1.214   3.910   4.510
 2727SOL    MW410940   1.205   3.994   4.486
 2728SOL     OW10941   1.340   2.428   4.151
 2728SOL    HW210942   1.343   2.521   4.130
 2728SOL    HW310943   1.425   2.394   4.124
 2728SOL    MW410944   1.352   2.435   4.145
 2729SOL     OW10945   1.345   2.367   4.427
 2729SOL    HW210946   1.266   2.385   4.479
 2729SOL    HW310947   1.317   2.381   4.337
 2729SOL    MW410948   1.331   2.371   4.422
 2730SOL     OW10949   1.369   3.312   4.507
 2730SOL    HW210950   1.456   3.344   4.482
 2730SOL    HW310951   1.341   3.257   4.434
 2730SOL    MW410952   1.377   3.309   4.494
 2731SOL     OW10953   0.924   3.019   4.848
 2731SOL    HW210954   0.972   2.938   4.865
 2731SOL    HW310955   0.989   3.089   4.857
 2731SOL    MW410956   0.939   3.018   4.852
 2732SOL     OW10957   0.616   3.431   4.473
 2732SOL    HW210958   0.546   3.366   4.468
 2732SOL    HW310959   0.574   3.508   4.512
 2732SOL    MW410960   0.601   3.433   4.478
 2733SOL     OW10961   2.310   3.392   4.550
 2733SOL    HW210962   2.305   3.327   4.480
 2733SOL    HW310963   2.219   3.403   4.579
 2733SOL    MW410964   2.297   3.385   4.545
 2734SOL     OW10965   2.016   3.360   4.594
 2734SOL    HW210966   2.010   3.292   4.527
 2734SOL    HW310967   2.000   3.314   4.676
 2734SOL    MW410968   2.013   3.345   4.596
 2735SOL     OW10969   2.367   3.164   4.391
 2735SOL    HW210970   2.307   3.091   4.407
 2735SOL    HW310971   2.437   3.153   4.455
 2735SOL    MW410972   2.368   3.153   4.401
 2736SOL     OW10973   1.151   3.463   4.627
 2736SOL    HW210974   1.068   3.477   4.581
 2736SOL    HW310975   1.206   3.415   4.564
 2736SOL    MW410976   1.148   3.458   4.613
 2737SOL     OW10977   1.873   4.024   4.423
 2737SOL    HW210978   1.846   4.000   4.334
 2737SOL    HW310979   1.969   4.019   4.421
 2737SOL    MW410980   1.882   4.020   4.411
 2738SOL     OW10981   1.832   0.486   4.591
 2738SOL    HW210982   1.738   0.482   4.574
 2738SOL    HW310983   1.853   0.401   4.631
 2738SOL    MW410984   1.822   0.474   4.594
 2739SOL     OW10985   0.776   0.104   4.514
 2739SOL    HW210986   0.822   0.106   4.430
 2739SOL    HW310987   0.814   0.029   4.560
 2739SOL    MW410988   0.787   0.094   4.509
 2740SOL     OW10989   1.298   0.045   4.525
 2740SOL    HW210990   1.384   0.045   4.567
 2740SOL    HW310991   1.250   0.114   4.570
 2740SOL    MW410992   1.303   0.054   4.536
 2741SOL     OW10993   2.147   4.288   4.549
 2741SOL    HW210994   2.136   4.207   4.500
 2741SOL    HW310995   2.138   4.261   4.641
 2741SOL    MW410996   2.144   4.274   4.555
 2742SOL     OW10997   1.952   0.724   4.538
 2742SOL    HW210998   1.912   0.647   4.577
 2742SOL    HW310999   1.880   0.787   4.530
 2742SOL    MW411000   1.937   0.722   4.542
 2743SOL     OW11001   1.260   0.524   4.640
 2743SOL    HW211002   1.207   0.569   4.575
 2743SOL    HW311003   1.270   0.588   4.711
 2743SOL    MW411004   1.255   0.539   4.641
 2744SOL     OW11005   2.404   1.749   4.503
 2744SOL    HW211006   2.359   1.739   4.420
 2744SOL    HW311007   2.366   1.680   4.559
 2744SOL    MW411008   2.393   1.738   4.500
 2745SOL     OW11009   0.437   1.946   4.644
 2745SOL    HW211010   0.455   1.911   4.731
 2745SOL    HW311011   0.342   1.936   4.633
 2745SOL    MW411012   0.427   1.940   4.654
 2746SOL     OW11013   1.425   1.662   4.506
 2746SOL    HW211014   1.372   1.650   4.427
 2746SOL    HW311015   1.434   1.574   4.543
 2746SOL    MW411016   1.420   1.649   4.501
 2747SOL     OW11017   1.595   2.509   4.459
 2747SOL    HW211018   1.601   2.509   4.555
 2747SOL    HW311019   1.516   2.458   4.440
 2747SOL    MW411020   1.585   2.502   4.469
 2748SOL     OW11021   1.489   2.134   4.475
 2748SOL    HW211022   1.517   2.116   4.385
 2748SOL    HW311023   1.434   2.212   4.467
 2748SOL    MW411024   1.486   2.142   4.462
 2749SOL     OW11025   2.138   2.416   4.124
 2749SOL    HW211026   2.103   2.376   4.044
 2749SOL    HW311027   2.125   2.349   4.191
 2749SOL    MW411028   2.132   2.402   4.122
 2750SOL     OW11029   1.326   2.160   4.791
 2750SOL    HW211030   1.335   2.069   4.760
 2750SOL    HW311031   1.415   2.195   4.788
 2750SOL    MW411032   1.339   2.152   4.786
 2751SOL     OW11033   2.763   3.112   4.798
 2751SOL    HW211034   2.801   3.027   4.821
 2751SOL    HW311035   2.741   3.104   4.705
 2751SOL    MW411036   2.765   3.099   4.789
 2752SOL     OW11037   1.711   3.139   4.698
 2752SOL    HW211038   1.730   3.103   4.612
 2752SOL    HW311039   1.795   3.135   4.745
 2752SOL    MW411040   1.724   3.134   4.693
 2753SOL     OW11041   1.757   3.779   4.530
 2753SOL    HW211042   1.805   3.857   4.502
 2753SOL    HW311043   1.824   3.713   4.544
 2753SOL    MW411044   1.772   3.781   4.528
 2754SOL     OW11045   2.376   3.214   4.764
 2754SOL    HW211046   2.327   3.262   4.697
 2754SOL    HW311047   2.342   3.125   4.760
 2754SOL    MW411048   2.365   3.209   4.755
 2755SOL     OW11049   2.373   2.462   4.683
 2755SOL    HW211050   2.363   2.496   4.594
 2755SOL    HW311051   2.352   2.369   4.675
 2755SOL    MW411052   2.369   2.454   4.670
 2756SOL     OW11053   2.870   3.964   4.589
 2756SOL    HW211054   2.863   3.989   4.681
 2756SOL    HW311055   2.796   4.008   4.546
 2756SOL    MW411056   2.859   3.973   4.595
 2757SOL     OW11057   2.623   4.053   4.460
 2757SOL    HW211058   2.626   4.032   4.366
 2757SOL    HW311059   2.570   3.983   4.498
 2757SOL    MW411060   2.616   4.041   4.452
 2758SOL     OW11061   2.483   3.602   4.481
 2758SOL    HW211062   2.417   3.549   4.525
 2758SOL    HW311063   2.482   3.571   4.390
 2758SOL    MW411064   2.474   3.591   4.475
 2759SOL     OW11065   2.409   3.860   4.533
 2759SOL    HW211066   2.425   3.768   4.511
 2759SOL    HW311067   2.326   3.861   4.580
 2759SOL    MW411068   2.400   3.848   4.536
 2760SOL     OW11069   1.788   4.200   4.604
 2760SOL    HW211070   1.804   4.143   4.529
 2760SOL    HW311071   1.699   4.233   4.591
 2760SOL    MW411072   1.778   4.197   4.592
 2761SOL     OW11073   1.251   3.713   4.532
 2761SOL    HW211074   1.337   3.693   4.495
 2761SOL    HW311075   1.226   3.633   4.579
 2761SOL    MW411076   1.259   3.699   4.533
 2762SOL     OW11077   1.970   0.229   4.673
 2762SOL    HW211078   1.996   0.205   4.762
 2762SOL    HW311079   2.044   0.280   4.639
 2762SOL    MW411080   1.983   0.233   4.680
 2763SOL     OW11081   1.799   0.044   4.498
 2763SOL    HW211082   1.824  -0.044   4.528
 2763SOL    HW311083   1.847   0.104   4.554
 2763SOL    MW411084   1.808   0.040   4.509
 2764SOL     OW11085   1.408   1.392   4.589
 2764SOL    HW211086   1.479   1.340   4.551
 2764SOL    HW311087   1.355   1.328   4.637
 2764SOL    MW411088   1.411   1.377   4.590
 2765SOL     OW11089   2.743   0.701   4.556
 2765SOL    HW211090   2.651   0.724   4.568
 2765SOL    HW311091   2.741   0.611   4.524
 2765SOL    MW411092   2.731   0.692   4.554
 2766SOL     OW11093   2.966   0.669   4.356
 2766SOL    HW211094   2.898   0.700   4.415
 2766SOL    HW311095   2.968   0.734   4.286
 2766SOL    MW411096   2.957   0.682   4.354
 2767SOL     OW11097   3.207   1.229   4.262
 2767SOL    HW211098   3.245   1.141   4.271
 2767SOL    HW311099   3.278   1.288   4.288
 2767SOL    MW411100   3.222   1.225   4.266
 2768SOL     OW11101   2.177   0.878   4.505
 2768SOL    HW211102   2.141   0.966   4.504
 2768SOL    HW311103   2.104   0.822   4.533
 2768SOL    MW411104   2.163   0.882   4.509
 2769SOL     OW11105   2.577   1.411   4.505
 2769SOL    HW211106   2.610   1.501   4.507
 2769SOL    HW311107   2.656   1.357   4.508
 2769SOL    MW411108   2.592   1.416   4.505
 2770SOL     OW11109   2.661   1.662   4.481
 2770SOL    HW211110   2.683   1.648   4.389
 2770SOL    HW311111   2.577   1.707   4.480
 2770SOL    MW411112   2.653   1.666   4.469
 2771SOL     OW11113   2.277   2.217   4.638
 2771SOL    HW211114   2.348   2.172   4.592
 2771SOL    HW311115   2.217   2.245   4.568
 2771SOL    MW411116   2.278   2.215   4.622
 2772SOL     OW11117   2.484   2.090   4.485
 2772SOL    HW211118   2.573   2.126   4.491
 2772SOL    HW311119   2.494   1.998   4.509
 2772SOL    MW411120   2.497   2.082   4.489
 2773SOL     OW11121   2.057   2.211   4.849
 2773SOL    HW211122   1.988   2.184   4.788
 2773SOL    HW311123   2.134   2.161   4.822
 2773SOL    MW411124   2.058   2.201   4.838
 2774SOL     OW11125   2.573   2.852   4.578
 2774SOL    HW211126   2.500   2.827   4.522
 2774SOL    HW311127   2.547   2.821   4.665
 2774SOL    MW411128   2.560   2.844   4.582
 2775SOL     OW11129   1.546   2.798   4.464
 2775SOL    HW211130   1.464   2.808   4.512
 2775SOL    HW311131   1.560   2.704   4.458
 2775SOL    MW411132   1.537   2.787   4.469
 2776SOL     OW11133   2.222   2.989   4.738
 2776SOL    HW211134   2.248   2.899   4.755
 2776SOL    HW311135   2.212   2.994   4.643
 2776SOL    MW411136   2.224   2.978   4.728
 2777SOL     OW11137   2.721   3.509   4.591
 2777SOL    HW211138   2.692   3.471   4.673
 2777SOL    HW311139   2.642   3.546   4.552
 2777SOL    MW411140   2.707   3.509   4.597
 2778SOL     OW11141   2.575   3.128   4.556
 2778SOL    HW211142   2.573   3.032   4.553
 2778SOL    HW311143   2.522   3.151   4.632
 2778SOL    MW411144   2.568   3.118   4.565
 2779SOL     OW11145   0.953   4.056   4.394
 2779SOL    HW211146   0.940   4.123   4.328
 2779SOL    HW311147   0.893   4.080   4.465
 2779SOL    MW411148   0.943   4.068   4.395
 2780SOL     OW11149   3.118   4.074   4.503
 2780SOL    HW211150   3.035   4.038   4.535
 2780SOL    HW311151   3.179   4.062   4.576
 2780SOL    MW411152   3.115   4.068   4.517
 2781SOL     OW11153   1.990   3.135   4.814
 2781SOL    HW211154   1.976   3.123   4.907
 2781SOL    HW311155   2.063   3.076   4.793
 2781SOL    MW411156   1.998   3.126   4.823
 2782SOL     OW11157   3.332   4.022   4.681
 2782SOL    HW211158   3.343   4.090   4.748
 2782SOL    HW311159   3.340   3.940   4.729
 2782SOL    MW411160   3.334   4.020   4.697
 2783SOL     OW11161   2.859   0.092   4.517
 2783SOL    HW211162   2.767   0.104   4.495
 2783SOL    HW311163   2.873  -0.002   4.512
 2783SOL    MW411164   2.849   0.081   4.513
 2784SOL     OW11165   2.146   4.036   4.415
 2784SOL    HW211166   2.165   3.970   4.482
 2784SOL    HW311167   2.208   4.017   4.345
 2784SOL    MW411168   2.157   4.025   4.415
 2785SOL     OW11169   2.404   4.466   4.524
 2785SOL    HW211170   2.327   4.412   4.539
 2785SOL    HW311171   2.436   4.437   4.438
 2785SOL    MW411172   2.398   4.455   4.514
 2786SOL     OW11173   2.867   0.440   4.234
 2786SOL    HW211174   2.897   0.521   4.276
 2786SOL    HW311175   2.945   0.408   4.188
 2786SOL    MW411176   2.881   0.447   4.234
 2787SOL     OW11177   2.878   4.494   4.461
 2787SOL    HW211178   2.961   4.447   4.474
 2787SOL    HW311179   2.815   4.446   4.515
 2787SOL    MW411180   2.881   4.481   4.470
 2788SOL     OW11181   2.653   4.323   4.545
 2788SOL    HW211182   2.569   4.366   4.533
 2788SOL    HW311183   2.637   4.232   4.520
 2788SOL    MW411184   2.640   4.316   4.540
 2789SOL     OW11185   2.858   1.062   4.593
 2789SOL    HW211186   2.902   1.001   4.651
 2789SOL    HW311187   2.770   1.025   4.581
 2789SOL    MW411188   2.852   1.049   4.599
 2790SOL     OW11189   2.581   0.182   4.486
 2790SOL    HW211190   2.497   0.146   4.513
 2790SOL    HW311191   2.581   0.174   4.391
 2790SOL    MW411192   2.570   0.176   4.477
 2791SOL     OW11193   1.517   0.793   4.589
 2791SOL    HW211194   1.450   0.861   4.584
 2791SOL    HW311195   1.598   0.836   4.561
 2791SOL    MW411196   1.519   0.807   4.585
 2792SOL     OW11197   2.617   0.987   4.475
 2792SOL    HW211198   2.561   0.920   4.514
 2792SOL    HW311199   2.634   0.955   4.386
 2792SOL    MW411200   2.612   0.974   4.468
 2793SOL     OW11201   3.080   1.368   4.479
 2793SOL    HW211202   2.988   1.340   4.478
 2793SOL    HW311203   3.117   1.331   4.399
 2793SOL    MW411204   3.073   1.359   4.468
 2794SOL     OW11205   3.143   1.635   4.466
 2794SOL    HW211206   3.073   1.694   4.493
 2794SOL    HW311207   3.109   1.547   4.486
 2794SOL    MW411208   3.129   1.631   4.472
 2795SOL     OW11209   2.928   1.798   4.549
 2795SOL    HW211210   2.918   1.889   4.520
 2795SOL    HW311211   2.852   1.753   4.511
 2795SOL    MW411212   2.916   1.804   4.540
 2796SOL     OW11213   2.680   2.417   4.241
 2796SOL    HW211214   2.675   2.511   4.225
 2796SOL    HW311215   2.596   2.383   4.211
 2796SOL    MW411216   2.668   2.425   4.235
 2797SOL     OW11217   2.652   2.504   4.585
 2797SOL    HW211218   2.612   2.543   4.508
 2797SOL    HW311219   2.581   2.500   4.650
 2797SOL    MW411220   2.637   2.509   4.584
 2798SOL     OW11221   2.958   2.083   4.440
 2798SOL    HW211222   2.948   2.057   4.349
 2798SOL    HW311223   2.892   2.152   4.453
 2798SOL    MW411224   2.948   2.089   4.430
 2799SOL     OW11225   2.358   2.731   4.756
 2799SOL    HW211226   2.342   2.640   4.781
 2799SOL    HW311227   2.347   2.732   4.661
 2799SOL    MW411228   2.355   2.719   4.746
 2800SOL     OW11229   3.613   4.002   4.919
 2800SOL    HW211230   3.542   4.066   4.915
 2800SOL    HW311231   3.569   3.917   4.923
 2800SOL    MW411232   3.598   3.999   4.919
 2801SOL     OW11233   2.965   2.796   4.196
 2801SOL    HW211234   2.970   2.883   4.157
 2801SOL    HW311235   2.991   2.810   4.287
 2801SOL    MW411236   2.969   2.810   4.203
 2802SOL     OW11237   2.617   3.368   4.797
 2802SOL    HW211238   2.526   3.340   4.803
 2802SOL    HW311239   2.667   3.291   4.825
 2802SOL    MW411240   2.612   3.354   4.801
 2803SOL     OW11241   3.064   2.855   4.461
 2803SOL    HW211242   3.135   2.796   4.487
 2803SOL    HW311243   2.985   2.811   4.493
 2803SOL    MW411244   3.063   2.841   4.469
 2804SOL     OW11245   2.214   0.310   4.512
 2804SOL    HW211246   2.288   0.371   4.505
 2804SOL    HW311247   2.250   0.226   4.483
 2804SOL    MW411248   2.229   0.307   4.507
 2805SOL     OW11249   3.431   4.221   4.872
 2805SOL    HW211250   3.427   4.278   4.949
 2805SOL    HW311251   3.471   4.275   4.804
 2805SOL    MW411252   3.435   4.236   4.873
 2806SOL     OW11253   3.899   3.591   4.564
 2806SOL    HW211254   3.872   3.618   4.476
 2806SOL    HW311255   3.899   3.495   4.560
 2806SOL    MW411256   3.895   3.582   4.552
 2807SOL     OW11257   2.955   3.687   4.524
 2807SOL    HW211258   2.897   3.624   4.565
 2807SOL    HW311259   2.918   3.772   4.547
 2807SOL    MW411260   2.943   3.690   4.533
 2808SOL     OW11261   3.118   4.365   4.504
 2808SOL    HW211262   3.109   4.271   4.488
 2808SOL    HW311263   3.212   4.380   4.508
 2808SOL    MW411264   3.129   4.355   4.503
 2809SOL     OW11265   2.747   0.429   4.480
 2809SOL    HW211266   2.717   0.341   4.503
 2809SOL    HW311267   2.796   0.418   4.399
 2809SOL    MW411268   2.749   0.416   4.472
 2810SOL     OW11269   2.985   0.816   4.696
 2810SOL    HW211270   3.054   0.756   4.668
 2810SOL    HW311271   2.904   0.773   4.670
 2810SOL    MW411272   2.984   0.802   4.689
 2811SOL     OW11273   2.450   0.749   4.536
 2811SOL    HW211274   2.357   0.774   4.529
 2811SOL    HW311275   2.450   0.654   4.528
 2811SOL    MW411276   2.437   0.740   4.534
 2812SOL     OW11277   2.401   1.216   4.510
 2812SOL    HW211278   2.456   1.140   4.489
 2812SOL    HW311279   2.463   1.287   4.525
 2812SOL    MW411280   2.416   1.215   4.509
 2813SOL     OW11281   1.995   4.083   4.737
 2813SOL    HW211282   1.918   4.118   4.693
 2813SOL    HW311283   1.963   4.047   4.819
 2813SOL    MW411284   1.981   4.082   4.742
 2814SOL     OW11285   2.341   0.061   4.479
 2814SOL    HW211286   2.374  -0.028   4.496
 2814SOL    HW311287   2.295   0.054   4.396
 2814SOL    MW411288   2.339   0.048   4.470
 2815SOL     OW11289   3.181   1.250   4.725
 2815SOL    HW211290   3.113   1.269   4.790
 2815SOL    HW311291   3.140   1.271   4.641
 2815SOL    MW411292   3.166   1.255   4.723
 2816SOL     OW11293   2.822   1.293   4.465
 2816SOL    HW211294   2.836   1.204   4.498
 2816SOL    HW311295   2.814   1.282   4.370
 2816SOL    MW411296   2.823   1.280   4.456
 2817SOL     OW11297   3.993   0.959   4.482
 2817SOL    HW211298   4.016   0.931   4.393
 2817SOL    HW311299   4.061   0.919   4.537
 2817SOL    MW411300   4.005   0.950   4.478
 2818SOL     OW11301   3.400   1.655   4.626
 2818SOL    HW211302   3.385   1.740   4.665
 2818SOL    HW311303   3.321   1.636   4.576
 2818SOL    MW411304   3.388   1.663   4.624
 2819SOL     OW11305   3.381   1.922   4.725
 2819SOL    HW211306   3.296   1.906   4.767
 2819SOL    HW311307   3.365   1.998   4.668
 2819SOL    MW411308   3.367   1.930   4.723
 2820SOL     OW11309   3.249   2.117   4.532
 2820SOL    HW211310   3.155   2.102   4.523
 2820SOL    HW311311   3.287   2.078   4.453
 2820SOL    MW411312   3.241   2.110   4.520
 2821SOL     OW11313   3.640   1.661   4.520
 2821SOL    HW211314   3.640   1.665   4.424
 2821SOL    HW311315   3.548   1.654   4.543
 2821SOL    MW411316   3.628   1.661   4.510
 2822SOL     OW11317   2.822   2.736   4.551
 2822SOL    HW211318   2.809   2.641   4.549
 2822SOL    HW311319   2.735   2.773   4.566
 2822SOL    MW411320   2.809   2.729   4.553
 2823SOL     OW11321   3.251   2.405   4.504
 2823SOL    HW211322   3.265   2.312   4.522
 2823SOL    HW311323   3.202   2.406   4.422
 2823SOL    MW411324   3.246   2.393   4.496
 2824SOL     OW11325   2.721   2.232   4.467
 2824SOL    HW211326   2.705   2.277   4.384
 2824SOL    HW311327   2.702   2.298   4.534
 2824SOL    MW411328   2.717   2.247   4.465
 2825SOL     OW11329   3.408   2.843   4.205
 2825SOL    HW211330   3.482   2.809   4.155
 2825SOL    HW311331   3.412   2.938   4.191
 2825SOL    MW411332   3.418   2.851   4.196
 2826SOL     OW11333   3.423   3.549   4.477
 2826SOL    HW211334   3.373   3.561   4.558
 2826SOL    HW311335   3.442   3.455   4.474
 2826SOL    MW411336   3.419   3.538   4.487
 2827SOL     OW11337   3.456   3.280   4.515
 2827SOL    HW211338   3.411   3.247   4.437
 2827SOL    HW311339   3.541   3.236   4.515
 2827SOL    MW411340   3.461   3.270   4.505
 2828SOL     OW11341   3.774   2.864   4.490
 2828SOL    HW211342   3.686   2.827   4.495
 2828SOL    HW311343   3.763   2.956   4.512
 2828SOL    MW411344   3.761   2.871   4.493
 2829SOL     OW11345   3.722   3.169   4.465
 2829SOL    HW211346   3.800   3.210   4.501
 2829SOL    HW311347   3.697   3.226   4.392
 2829SOL    MW411348   3.729   3.182   4.460
 2830SOL     OW11349   3.595   4.344   4.665
 2830SOL    HW211350   3.663   4.403   4.632
 2830SOL    HW311351   3.636   4.257   4.666
 2830SOL    MW411352   3.609   4.340   4.661
 2831SOL     OW11353   3.129   0.185   4.479
 2831SOL    HW211354   3.045   0.164   4.520
 2831SOL    HW311355   3.187   0.112   4.505
 2831SOL    MW411356   3.126   0.172   4.488
 2832SOL     OW11357   3.748   0.484   4.490
 2832SOL    HW211358   3.697   0.562   4.512
 2832SOL    HW311359   3.839   0.512   4.501
 2832SOL    MW411360   3.753   0.498   4.494
 2833SOL     OW11361   3.400   4.412   4.495
 2833SOL    HW211362   3.476   4.377   4.542
 2833SOL    HW311363   3.408   4.507   4.503
 2833SOL    MW411364   3.411   4.420   4.502
 2834SOL     OW11365   3.551   3.976   4.507
 2834SOL    HW211366   3.570   3.889   4.544
 2834SOL    HW311367   3.473   4.005   4.554
 2834SOL    MW411368   3.543   3.968   4.519
 2835SOL     OW11369   3.390   0.024   4.451
 2835SOL    HW211370   3.432   0.090   4.506
 2835SOL    HW311371   3.429   0.036   4.365
 2835SOL    MW411372   3.400   0.034   4.447
 2836SOL     OW11373   3.388   0.839   4.504
 2836SOL    HW211374   3.366   0.911   4.564
 2836SOL    HW311375   3.321   0.773   4.521
 2836SOL    MW411376   3.376   0.840   4.514
 2837SOL     OW11377   1.914   4.432   4.491
 2837SOL    HW211378   2.000   4.390   4.498
 2837SOL    HW311379   1.852   4.365   4.517
 2837SOL    MW411380   1.917   4.418   4.495
 2838SOL     OW11381   4.381   1.514   4.615
 2838SOL    HW211382   4.343   1.451   4.554
 2838SOL    HW311383   4.311   1.533   4.677
 2838SOL    MW411384   4.367   1.508   4.615
 2839SOL     OW11385   3.733   0.990   4.547
 2839SOL    HW211386   3.705   0.902   4.574
 2839SOL    HW311387   3.824   0.979   4.519
 2839SOL    MW411388   3.741   0.977   4.547
 2840SOL     OW11389   4.447   0.897   4.502
 2840SOL    HW211390   4.444   0.912   4.407
 2840SOL    HW311391   4.525   0.842   4.515
 2840SOL    MW411392   4.457   0.892   4.491
 2841SOL     OW11393   4.235   0.404   4.477
 2841SOL    HW211394   4.243   0.440   4.389
 2841SOL    HW311395   4.170   0.334   4.468
 2841SOL    MW411396   4.227   0.399   4.464
 2842SOL     OW11397   3.603   1.702   4.249
 2842SOL    HW211398   3.678   1.667   4.202
 2842SOL    HW311399   3.531   1.644   4.226
 2842SOL    MW411400   3.603   1.690   4.240
 2843SOL     OW11401   4.052   1.747   4.196
 2843SOL    HW211402   4.108   1.682   4.155
 2843SOL    HW311403   4.081   1.751   4.287
 2843SOL    MW411404   4.063   1.739   4.203
 2844SOL     OW11405   3.787   2.350   4.535
 2844SOL    HW211406   3.702   2.392   4.523
 2844SOL    HW311407   3.771   2.258   4.513
 2844SOL    MW411408   3.774   2.343   4.530
 2845SOL     OW11409   3.687   1.888   4.678
 2845SOL    HW211410   3.601   1.914   4.710
 2845SOL    HW311411   3.668   1.816   4.617
 2845SOL    MW411412   3.673   1.882   4.674
 2846SOL     OW11413   0.204   2.174   4.377
 2846SOL    HW211414   0.287   2.219   4.391
 2846SOL    HW311415   0.138   2.232   4.414
 2846SOL    MW411416   0.206   2.188   4.383
 2847SOL     OW11417   3.804   2.071   4.513
 2847SOL    HW211418   3.895   2.054   4.539
 2847SOL    HW311419   3.751   2.026   4.579
 2847SOL    MW411420   3.809   2.063   4.525
 2848SOL     OW11421   4.049   2.791   4.533
 2848SOL    HW211422   3.957   2.816   4.528
 2848SOL    HW311423   4.097   2.873   4.526
 2848SOL    MW411424   4.043   2.805   4.531
 2849SOL     OW11425   4.038   2.484   4.505
 2849SOL    HW211426   3.946   2.460   4.514
 2849SOL    HW311427   4.044   2.573   4.540
 2849SOL    MW411428   4.027   2.493   4.511
 2850SOL     OW11429   4.255   3.014   4.474
 2850SOL    HW211430   4.272   2.971   4.390
 2850SOL    HW311431   4.337   3.008   4.521
 2850SOL    MW411432   4.268   3.008   4.469
 2851SOL     OW11433   3.213   3.316   4.653
 2851SOL    HW211434   3.160   3.250   4.608
 2851SOL    HW311435   3.303   3.296   4.627
 2851SOL    MW411436   3.218   3.305   4.643
 2852SOL     OW11437   3.393   3.788   4.810
 2852SOL    HW211438   3.323   3.725   4.793
 2852SOL    HW311439   3.465   3.759   4.753
 2852SOL    MW411440   3.393   3.776   4.800
 2853SOL     OW11441   3.188   3.593   4.672
 2853SOL    HW211442   3.113   3.621   4.619
 2853SOL    HW311443   3.181   3.497   4.674
 2853SOL    MW411444   3.177   3.584   4.665
 2854SOL     OW11445   4.396   3.433   4.570
 2854SOL    HW211446   4.326   3.386   4.617
 2854SOL    HW311447   4.451   3.363   4.534
 2854SOL    MW411448   4.394   3.417   4.572
 2855SOL     OW11449   0.173   2.787   4.467
 2855SOL    HW211450   0.184   2.692   4.466
 2855SOL    HW311451   0.186   2.813   4.375
 2855SOL    MW411452   0.176   2.778   4.454
 2856SOL     OW11453   4.118   3.761   4.643
 2856SOL    HW211454   4.062   3.693   4.605
 2856SOL    HW311455   4.207   3.729   4.627
 2856SOL    MW411456   4.123   3.748   4.635
 2857SOL     OW11457   3.773   4.506   4.511
 2857SOL    HW211458   3.766   4.456   4.430
 2857SOL    HW311459   3.771   4.597   4.484
 2857SOL    MW411460   3.772   4.511   4.497
 2858SOL     OW11461   3.561   0.282   4.491
 2858SOL    HW211462   3.491   0.343   4.470
 2858SOL    HW311463   3.636   0.338   4.510
 2858SOL    MW411464   3.562   0.297   4.490
 2859SOL     OW11465   3.709   1.265   4.640
 2859SOL    HW211466   3.620   1.297   4.654
 2859SOL    HW311467   3.699   1.171   4.627
 2859SOL    MW411468   3.696   1.257   4.640
 2860SOL     OW11469   3.181   0.650   4.548
 2860SOL    HW211470   3.109   0.633   4.487
 2860SOL    HW311471   3.244   0.580   4.531
 2860SOL    MW411472   3.180   0.639   4.538
 2861SOL     OW11473   4.453   0.209   4.442
 2861SOL    HW211474   4.536   0.255   4.453
 2861SOL    HW311475   4.386   0.276   4.453
 2861SOL    MW411476   4.455   0.224   4.445
 2862SOL     OW11477   0.425   0.399   4.584
 2862SOL    HW211478   0.452   0.309   4.570
 2862SOL    HW311479   0.329   0.396   4.586
 2862SOL    MW411480   0.416   0.387   4.583
 2863SOL     OW11481   4.037   0.220   4.463
 2863SOL    HW211482   4.067   0.153   4.525
 2863SOL    HW311483   4.045   0.178   4.377
 2863SOL    MW411484   4.042   0.205   4.460
 2864SOL     OW11485   3.438   1.354   4.654
 2864SOL    HW211486   3.432   1.448   4.669
 2864SOL    HW311487   3.370   1.316   4.710
 2864SOL    MW411488   3.428   1.361   4.663
 2865SOL     OW11489   0.004   1.167   4.550
 2865SOL    HW211490   0.098   1.178   4.536
 2865SOL    HW311491  -0.010   1.073   4.546
 2865SOL    MW411492   0.014   1.156   4.547
 2866SOL     OW11493   4.262   1.301   4.460
 2866SOL    HW211494   4.189   1.265   4.511
 2866SOL    HW311495   4.338   1.252   4.489
 2866SOL    MW411496   4.262   1.290   4.470
 2867SOL     OW11497   3.954   1.904   4.779
 2867SOL    HW211498   3.874   1.889   4.728
 2867SOL    HW311499   3.925   1.956   4.854
 2867SOL    MW411500   3.939   1.909   4.782
 2868SOL     OW11501   3.272   2.689   4.580
 2868SOL    HW211502   3.262   2.599   4.549
 2868SOL    HW311503   3.262   2.683   4.675
 2868SOL    MW411504   3.269   2.676   4.588
 2869SOL     OW11505   4.335   2.156   4.207
 2869SOL    HW211506   4.247   2.119   4.193
 2869SOL    HW311507   4.335   2.181   4.300
 2869SOL    MW411508   4.323   2.154   4.218
 2870SOL     OW11509   4.485   2.358   4.400
 2870SOL    HW211510   4.400   2.337   4.438
 2870SOL    HW311511   4.465   2.393   4.313
 2870SOL    MW411512   4.471   2.360   4.393
 2871SOL     OW11513   4.087   2.028   4.574
 2871SOL    HW211514   4.119   1.951   4.527
 2871SOL    HW311515   4.049   1.993   4.655
 2871SOL    MW411516   4.086   2.013   4.579
 2872SOL     OW11517   3.516   2.477   4.468
 2872SOL    HW211518   3.524   2.571   4.454
 2872SOL    HW311519   3.422   2.461   4.478
 2872SOL    MW411520   3.505   2.487   4.467
 2873SOL     OW11521   0.612   2.545   4.532
 2873SOL    HW211522   0.550   2.616   4.548
 2873SOL    HW311523   0.559   2.465   4.544
 2873SOL    MW411524   0.597   2.544   4.536
 2874SOL     OW11525   4.206   3.220   4.682
 2874SOL    HW211526   4.225   3.153   4.616
 2874SOL    HW311527   4.239   3.182   4.764
 2874SOL    MW411528   4.213   3.206   4.684
 2875SOL     OW11529   0.031   3.013   4.588
 2875SOL    HW211530   0.079   2.938   4.552
 2875SOL    HW311531   0.076   3.089   4.553
 2875SOL    MW411532   0.043   3.013   4.579
 2876SOL     OW11533   0.500   3.662   4.579
 2876SOL    HW211534   0.534   3.734   4.525
 2876SOL    HW311535   0.499   3.699   4.668
 2876SOL    MW411536   0.504   3.677   4.584
 2877SOL     OW11537   4.037   0.592   4.515
 2877SOL    HW211538   4.106   0.528   4.496
 2877SOL    HW311539   4.084   0.670   4.544
 2877SOL    MW411540   4.052   0.594   4.516
 2878SOL     OW11541   4.262   4.396   4.464
 2878SOL    HW211542   4.180   4.385   4.512
 2878SOL    HW311543   4.323   4.334   4.504
 2878SOL    MW411544   4.259   4.386   4.475
 2879SOL     OW11545   3.980   3.302   4.551
 2879SOL    HW211546   4.051   3.271   4.607
 2879SOL    HW311547   4.018   3.309   4.464
 2879SOL    MW411548   3.994   3.299   4.547
 2880SOL     OW11549   2.447   0.483   4.504
 2880SOL    HW211550   2.528   0.432   4.514
 2880SOL    HW311551   2.438   0.495   4.409
 2880SOL    MW411552   2.456   0.478   4.493
 2881SOL     OW11553   4.228   4.389   4.198
 2881SOL    HW211554   4.318   4.361   4.180
 2881SOL    HW311555   4.224   4.400   4.293
 2881SOL    MW411556   4.239   4.387   4.208
 2882NA      NA11557   2.700   4.269   0.655
 2883NA      NA11558   0.913   1.800   0.346
   4.49070   4.66690  10.00000
