Gromacs Runs On Most of All Computer Systems in water t= 360.00000 step= 360000
11558
    1RG35     P    1   2.150   2.813   4.527
    1RG35   O1P    2   2.164   2.725   4.411
    1RG35   O2P    3   2.047   2.914   4.520
    1RG35   O5'    4   2.110   2.718   4.644
    1RG35   C5'    5   1.993   2.747   4.728
    1RG35  H5'1    6   1.903   2.764   4.670
    1RG35  H5'2    7   2.016   2.838   4.782
    1RG35   C4'    8   1.966   2.636   4.837
    1RG35   H4'    9   1.881   2.657   4.901
    1RG35   O4'   10   1.934   2.517   4.775
    1RG35   C1'   11   2.032   2.417   4.797
    1RG35   H1'   12   1.992   2.357   4.878
    1RG35    N9   13   2.057   2.342   4.676
    1RG35    C8   14   2.124   2.385   4.571
    1RG35    H8   15   2.172   2.482   4.567
    1RG35    N7   16   2.138   2.294   4.477
    1RG35    C5   17   2.059   2.186   4.524
    1RG35    C6   18   2.012   2.065   4.463
    1RG35    O6   19   2.046   2.028   4.351
    1RG35    N1   20   1.917   1.991   4.534
    1RG35    H1   21   1.886   1.902   4.499
    1RG35    C2   22   1.881   2.026   4.658
    1RG35    N2   23   1.780   1.961   4.716
    1RG35   H21   24   1.731   1.889   4.665
    1RG35   H22   25   1.740   2.012   4.793
    1RG35    N3   26   1.917   2.138   4.718
    1RG35    C4   27   2.003   2.217   4.646
    1RG35   C3'   28   2.088   2.600   4.918
    1RG35   H3'   29   2.144   2.691   4.943
    1RG35   C2'   30   2.153   2.490   4.844
    1RG35  H2'1   31   2.226   2.524   4.770
    1RG35   O2'   32   2.218   2.399   4.933
    1RG35  HO'2   33   2.243   2.319   4.887
    1RG35   O3'   34   2.042   2.548   5.045
    1RG35   H3T   35   2.115   2.492   5.073
    1RG35   O3P   36   2.279   2.870   4.571
    2SOL     OW   37   0.455   0.121   0.446
    2SOL    HW2   38   0.466   0.030   0.420
    2SOL    HW3   39   0.525   0.168   0.401
    2SOL    MW4   40   0.465   0.115   0.437
    3SOL     OW   41   3.972   0.048   0.421
    3SOL    HW2   42   4.053   0.025   0.376
    3SOL    HW3   43   3.936  -0.036   0.449
    3SOL    MW4   44   3.978   0.034   0.418
    4SOL     OW   45   3.847   0.508   0.471
    4SOL    HW2   46   3.788   0.574   0.434
    4SOL    HW3   47   3.833   0.512   0.565
    4SOL    MW4   48   3.838   0.517   0.478
    5SOL     OW   49   0.389   1.474   0.442
    5SOL    HW2   50   0.422   1.385   0.436
    5SOL    HW3   51   0.296   1.467   0.424
    5SOL    MW4   52   0.381   1.461   0.439
    6SOL     OW   53   1.844   0.871   0.249
    6SOL    HW2   54   1.818   0.936   0.314
    6SOL    HW3   55   1.792   0.893   0.171
    6SOL    MW4   56   1.834   0.883   0.247
    7SOL     OW   57   0.255   0.566   0.426
    7SOL    HW2   58   0.239   0.578   0.520
    7SOL    HW3   59   0.254   0.471   0.414
    7SOL    MW4   60   0.252   0.555   0.437
    8SOL     OW   61   0.514   0.915   0.449
    8SOL    HW2   62   0.500   0.897   0.541
    8SOL    HW3   63   0.518   0.829   0.407
    8SOL    MW4   64   0.513   0.901   0.455
    9SOL     OW   65   0.993   0.919   0.440
    9SOL    HW2   66   0.983   0.916   0.535
    9SOL    HW3   67   0.914   0.965   0.409
    9SOL    MW4   68   0.981   0.925   0.449
   10SOL     OW   69   0.750   1.046   0.346
   10SOL    HW2   70   0.727   1.067   0.256
   10SOL    HW3   71   0.671   1.006   0.383
   10SOL    MW4   72   0.737   1.043   0.339
   11SOL     OW   73   0.487   1.991   0.218
   11SOL    HW2   74   0.569   1.999   0.269
   11SOL    HW3   75   0.457   1.902   0.235
   11SOL    MW4   76   0.494   1.981   0.227
   12SOL     OW   77   4.089   1.998   0.491
   12SOL    HW2   78   4.042   1.974   0.411
   12SOL    HW3   79   4.022   2.030   0.550
   12SOL    MW4   80   4.074   1.999   0.488
   13SOL     OW   81   0.211   1.808   0.522
   13SOL    HW2   82   0.126   1.770   0.502
   13SOL    HW3   83   0.197   1.903   0.516
   13SOL    MW4   84   0.198   1.815   0.519
   14SOL     OW   85   0.398   2.227   0.327
   14SOL    HW2   86   0.416   2.152   0.270
   14SOL    HW3   87   0.331   2.277   0.281
   14SOL    MW4   88   0.391   2.223   0.314
   15SOL     OW   89   0.141   2.779   0.422
   15SOL    HW2   90   0.221   2.748   0.380
   15SOL    HW3   91   0.123   2.863   0.380
   15SOL    MW4   92   0.149   2.786   0.411
   16SOL     OW   93   4.132   3.285   0.425
   16SOL    HW2   94   4.102   3.275   0.516
   16SOL    HW3   95   4.205   3.224   0.417
   16SOL    MW4   96   4.138   3.276   0.436
   17SOL     OW   97   0.089   3.049   0.353
   17SOL    HW2   98   0.007   3.098   0.343
   17SOL    HW3   99   0.155   3.117   0.369
   17SOL    MW4  100   0.087   3.065   0.354
   18SOL     OW  101   0.343   3.474   0.368
   18SOL    HW2  102   0.353   3.486   0.273
   18SOL    HW3  103   0.414   3.526   0.406
   18SOL    MW4  104   0.354   3.483   0.360
   19SOL     OW  105   0.764   3.815   0.333
   19SOL    HW2  106   0.844   3.838   0.285
   19SOL    HW3  107   0.718   3.898   0.343
   19SOL    MW4  108   0.769   3.829   0.328
   20SOL     OW  109   4.287   3.963   0.322
   20SOL    HW2  110   4.301   3.967   0.417
   20SOL    HW3  111   4.314   3.875   0.297
   20SOL    MW4  112   4.292   3.952   0.332
   21SOL     OW  113   0.175   3.814   0.160
   21SOL    HW2  114   0.206   3.804   0.250
   21SOL    HW3  115   0.250   3.850   0.113
   21SOL    MW4  116   0.189   3.818   0.166
   22SOL     OW  117   4.451   4.407   0.343
   22SOL    HW2  118   4.410   4.343   0.284
   22SOL    HW3  119   4.380   4.434   0.401
   22SOL    MW4  120   4.436   4.402   0.343
   23SOL     OW  121   4.283   4.225   0.212
   23SOL    HW2  122   4.301   4.135   0.238
   23SOL    HW3  123   4.200   4.247   0.254
   23SOL    MW4  124   4.275   4.216   0.221
   24SOL     OW  125   0.130   4.090   0.230
   24SOL    HW2  126   0.055   4.140   0.199
   24SOL    HW3  127   0.119   4.003   0.192
   24SOL    MW4  128   0.119   4.085   0.221
   25SOL     OW  129   0.551   3.156   0.488
   25SOL    HW2  130   0.528   3.183   0.577
   25SOL    HW3  131   0.638   3.192   0.473
   25SOL    MW4  132   0.559   3.164   0.497
   26SOL     OW  133   0.500   4.501   0.394
   26SOL    HW2  134   0.418   4.469   0.431
   26SOL    HW3  135   0.494   4.481   0.301
   26SOL    MW4  136   0.488   4.494   0.387
   27SOL     OW  137   0.227   0.303   0.399
   27SOL    HW2  138   0.136   0.276   0.410
   27SOL    HW3  139   0.278   0.227   0.426
   27SOL    MW4  140   0.222   0.289   0.404
   28SOL     OW  141   0.009   0.674   0.344
   28SOL    HW2  142  -0.007   0.682   0.250
   28SOL    HW3  143   0.099   0.645   0.351
   28SOL    MW4  144   0.018   0.671   0.333
   29SOL     OW  145   0.958   4.458   0.448
   29SOL    HW2  146   1.003   4.431   0.528
   29SOL    HW3  147   0.876   4.410   0.450
   29SOL    MW4  148   0.953   4.448   0.459
   30SOL     OW  149   1.265   0.996   0.440
   30SOL    HW2  150   1.170   0.980   0.433
   30SOL    HW3  151   1.291   0.952   0.521
   30SOL    MW4  152   1.256   0.988   0.449
   31SOL     OW  153   0.719   0.515   0.487
   31SOL    HW2  154   0.812   0.537   0.498
   31SOL    HW3  155   0.720   0.428   0.447
   31SOL    MW4  156   0.732   0.506   0.483
   32SOL     OW  157   0.467   1.209   0.482
   32SOL    HW2  158   0.463   1.117   0.457
   32SOL    HW3  159   0.539   1.214   0.544
   32SOL    MW4  160   0.476   1.197   0.487
   33SOL     OW  161   0.181   2.095   0.485
   33SOL    HW2  162   0.111   2.122   0.425
   33SOL    HW3  163   0.257   2.145   0.456
   33SOL    MW4  164   0.181   2.105   0.473
   34SOL     OW  165   0.722   2.068   0.350
   34SOL    HW2  166   0.770   2.112   0.280
   34SOL    HW3  167   0.772   1.989   0.368
   34SOL    MW4  168   0.735   2.064   0.343
   35SOL     OW  169   0.695   2.661   0.326
   35SOL    HW2  170   0.782   2.659   0.366
   35SOL    HW3  171   0.656   2.742   0.359
   35SOL    MW4  172   0.701   2.672   0.336
   36SOL     OW  173   0.389   2.496   0.127
   36SOL    HW2  174   0.456   2.431   0.150
   36SOL    HW3  175   0.391   2.499   0.032
   36SOL    MW4  176   0.399   2.488   0.118
   37SOL     OW  177   3.948   2.225   0.217
   37SOL    HW2  178   3.958   2.277   0.137
   37SOL    HW3  179   4.032   2.234   0.262
   37SOL    MW4  180   3.960   2.233   0.212
   38SOL     OW  181   1.282   2.359   0.473
   38SOL    HW2  182   1.366   2.321   0.447
   38SOL    HW3  183   1.287   2.450   0.442
   38SOL    MW4  184   1.294   2.366   0.465
   39SOL     OW  185   0.514   2.512   0.520
   39SOL    HW2  186   0.446   2.565   0.478
   39SOL    HW3  187   0.596   2.549   0.489
   39SOL    MW4  188   0.516   2.524   0.510
   40SOL     OW  189   4.304   3.059   0.445
   40SOL    HW2  190   4.362   3.077   0.518
   40SOL    HW3  191   4.283   2.966   0.453
   40SOL    MW4  192   4.309   3.049   0.455
   41SOL     OW  193   0.383   2.683   0.346
   41SOL    HW2  194   0.384   2.650   0.256
   41SOL    HW3  195   0.451   2.751   0.347
   41SOL    MW4  196   0.392   2.688   0.334
   42SOL     OW  197   0.914   0.437   0.226
   42SOL    HW2  198   0.883   0.452   0.137
   42SOL    HW3  199   0.897   0.519   0.272
   42SOL    MW4  200   0.908   0.449   0.220
   43SOL     OW  201   0.128   3.632   0.476
   43SOL    HW2  202   0.171   3.718   0.478
   43SOL    HW3  203   0.188   3.576   0.426
   43SOL    MW4  204   0.141   3.636   0.470
   44SOL     OW  205   0.529   3.683   0.431
   44SOL    HW2  206   0.609   3.722   0.394
   44SOL    HW3  207   0.555   3.653   0.518
   44SOL    MW4  208   0.543   3.684   0.438
   45SOL     OW  209   1.138   3.583   0.503
   45SOL    HW2  210   1.043   3.576   0.490
   45SOL    HW3  211   1.171   3.495   0.483
   45SOL    MW4  212   1.129   3.570   0.498
   46SOL     OW  213   0.249   4.401   0.467
   46SOL    HW2  214   0.169   4.424   0.420
   46SOL    HW3  215   0.259   4.307   0.452
   46SOL    MW4  216   0.240   4.391   0.459
   47SOL     OW  217   0.871   3.582   0.469
   47SOL    HW2  218   0.846   3.639   0.396
   47SOL    HW3  219   0.824   3.618   0.545
   47SOL    MW4  220   0.861   3.594   0.470
   48SOL     OW  221   0.711   4.318   0.496
   48SOL    HW2  222   0.639   4.358   0.447
   48SOL    HW3  223   0.695   4.341   0.587
   48SOL    MW4  224   0.699   4.326   0.501
   49SOL     OW  225   0.738   0.255   0.360
   49SOL    HW2  226   0.784   0.174   0.382
   49SOL    HW3  227   0.799   0.302   0.303
   49SOL    MW4  228   0.753   0.250   0.355
   50SOL     OW  229   0.961   0.638   0.444
   50SOL    HW2  230   0.984   0.730   0.458
   50SOL    HW3  231   1.045   0.593   0.435
   50SOL    MW4  232   0.975   0.644   0.445
   51SOL     OW  233   0.509   0.646   0.375
   51SOL    HW2  234   0.419   0.625   0.397
   51SOL    HW3  235   0.562   0.596   0.437
   51SOL    MW4  236   0.504   0.637   0.386
   52SOL     OW  237   1.545   0.433   0.476
   52SOL    HW2  238   1.605   0.359   0.465
   52SOL    HW3  239   1.549   0.453   0.570
   52SOL    MW4  240   1.554   0.426   0.487
   53SOL     OW  241   2.076   0.803   0.438
   53SOL    HW2  242   2.005   0.824   0.378
   53SOL    HW3  243   2.055   0.852   0.518
   53SOL    MW4  244   2.064   0.812   0.441
   54SOL     OW  245   1.767   0.591   0.273
   54SOL    HW2  246   1.784   0.678   0.237
   54SOL    HW3  247   1.714   0.608   0.351
   54SOL    MW4  248   1.762   0.605   0.278
   55SOL     OW  249   0.934   1.548   0.458
   55SOL    HW2  250   0.921   1.453   0.461
   55SOL    HW3  251   0.930   1.576   0.549
   55SOL    MW4  252   0.932   1.539   0.470
   56SOL     OW  253   0.882   1.280   0.437
   56SOL    HW2  254   0.844   1.201   0.398
   56SOL    HW3  255   0.976   1.264   0.437
   56SOL    MW4  256   0.889   1.267   0.432
   57SOL     OW  257   1.463   1.401   0.335
   57SOL    HW2  258   1.538   1.460   0.322
   57SOL    HW3  259   1.388   1.460   0.344
   57SOL    MW4  260   1.463   1.417   0.334
   58SOL     OW  261   1.166   1.259   0.459
   58SOL    HW2  262   1.209   1.182   0.422
   58SOL    HW3  263   1.229   1.330   0.446
   58SOL    MW4  264   1.180   1.258   0.452
   59SOL     OW  265   1.227   1.543   0.376
   59SOL    HW2  266   1.260   1.632   0.383
   59SOL    HW3  267   1.133   1.553   0.359
   59SOL    MW4  268   1.219   1.556   0.375
   60SOL     OW  269   4.484   2.164   0.282
   60SOL    HW2  270   4.400   2.206   0.264
   60SOL    HW3  271   4.548   2.236   0.276
   60SOL    MW4  272   4.481   2.179   0.279
   61SOL     OW  273   0.591   1.851   0.585
   61SOL    HW2  274   0.530   1.812   0.523
   61SOL    HW3  275   0.678   1.836   0.547
   61SOL    MW4  276   0.594   1.844   0.572
   62SOL     OW  277   0.802   2.346   0.548
   62SOL    HW2  278   0.884   2.313   0.511
   62SOL    HW3  279   0.822   2.364   0.640
   62SOL    MW4  280   0.816   2.344   0.555
   63SOL     OW  281   0.489   2.121   0.601
   63SOL    HW2  282   0.430   2.110   0.676
   63SOL    HW3  283   0.528   2.035   0.588
   63SOL    MW4  284   0.486   2.109   0.609
   64SOL     OW  285   0.890   2.625   0.523
   64SOL    HW2  286   0.877   2.530   0.523
   64SOL    HW3  287   0.872   2.652   0.613
   64SOL    MW4  288   0.886   2.616   0.535
   65SOL     OW  289   0.641   2.388   0.251
   65SOL    HW2  290   0.655   2.481   0.265
   65SOL    HW3  291   0.724   2.356   0.215
   65SOL    MW4  292   0.654   2.396   0.248
   66SOL     OW  293   0.581   2.875   0.422
   66SOL    HW2  294   0.563   2.969   0.430
   66SOL    HW3  295   0.586   2.844   0.512
   66SOL    MW4  296   0.579   2.883   0.435
   67SOL     OW  297   0.828   3.284   0.482
   67SOL    HW2  298   0.841   3.272   0.576
   67SOL    HW3  299   0.851   3.376   0.467
   67SOL    MW4  300   0.833   3.295   0.493
   68SOL     OW  301   2.085   3.577   0.488
   68SOL    HW2  302   2.053   3.560   0.576
   68SOL    HW3  303   2.042   3.511   0.434
   68SOL    MW4  304   2.075   3.566   0.492
   69SOL     OW  305   0.952   4.043   0.491
   69SOL    HW2  306   0.866   4.042   0.450
   69SOL    HW3  307   0.935   4.057   0.584
   69SOL    MW4  308   0.939   4.044   0.498
   70SOL     OW  309   0.645   4.046   0.486
   70SOL    HW2  310   0.573   4.029   0.546
   70SOL    HW3  311   0.663   4.140   0.496
   70SOL    MW4  312   0.638   4.057   0.495
   71SOL     OW  313   1.109   4.228   0.339
   71SOL    HW2  314   1.049   4.176   0.392
   71SOL    HW3  315   1.068   4.315   0.334
   71SOL    MW4  316   1.096   4.233   0.345
   72SOL     OW  317   1.207   0.506   0.465
   72SOL    HW2  318   1.185   0.429   0.413
   72SOL    HW3  319   1.280   0.546   0.419
   72SOL    MW4  320   1.214   0.501   0.452
   73SOL     OW  321   0.918   0.067   0.466
   73SOL    HW2  322   0.935  -0.026   0.450
   73SOL    HW3  323   0.905   0.073   0.561
   73SOL    MW4  324   0.918   0.056   0.477
   74SOL     OW  325   1.362   0.215   0.477
   74SOL    HW2  326   1.279   0.224   0.431
   74SOL    HW3  327   1.409   0.296   0.459
   74SOL    MW4  328   1.357   0.227   0.469
   75SOL     OW  329   2.065   4.651   0.389
   75SOL    HW2  330   2.099   4.736   0.362
   75SOL    HW3  331   1.984   4.640   0.340
   75SOL    MW4  332   2.059   4.660   0.379
   76SOL     OW  333   1.098   0.260   0.352
   76SOL    HW2  334   1.033   0.204   0.393
   76SOL    HW3  335   1.050   0.305   0.283
   76SOL    MW4  336   1.083   0.259   0.348
   77SOL     OW  337   2.414   0.470   0.509
   77SOL    HW2  338   2.326   0.505   0.492
   77SOL    HW3  339   2.411   0.381   0.473
   77SOL    MW4  340   2.402   0.463   0.502
   78SOL     OW  341   2.575   0.928   0.491
   78SOL    HW2  342   2.627   0.985   0.435
   78SOL    HW3  343   2.484   0.945   0.465
   78SOL    MW4  344   2.570   0.938   0.480
   79SOL     OW  345   1.969   1.281   0.474
   79SOL    HW2  346   1.888   1.232   0.457
   79SOL    HW3  347   1.940   1.371   0.484
   79SOL    MW4  348   1.954   1.286   0.473
   80SOL     OW  349   1.773   1.064   0.438
   80SOL    HW2  350   1.792   1.029   0.525
   80SOL    HW3  351   1.685   1.101   0.445
   80SOL    MW4  352   1.764   1.064   0.450
   81SOL     OW  353   1.490   1.169   0.482
   81SOL    HW2  354   1.410   1.118   0.464
   81SOL    HW3  355   1.483   1.245   0.424
   81SOL    MW4  356   1.478   1.172   0.472
   82SOL     OW  357   1.661   1.602   0.402
   82SOL    HW2  358   1.676   1.694   0.382
   82SOL    HW3  359   1.607   1.604   0.482
   82SOL    MW4  360   1.656   1.614   0.410
   83SOL     OW  361   0.878   2.225   0.168
   83SOL    HW2  362   0.951   2.253   0.224
   83SOL    HW3  363   0.918   2.165   0.105
   83SOL    MW4  364   0.893   2.221   0.167
   84SOL     OW  365   1.306   2.632   0.463
   84SOL    HW2  366   1.235   2.697   0.464
   84SOL    HW3  367   1.386   2.684   0.461
   84SOL    MW4  368   1.307   2.647   0.463
   85SOL     OW  369   1.770   2.145   0.247
   85SOL    HW2  370   1.835   2.196   0.295
   85SOL    HW3  371   1.800   2.147   0.156
   85SOL    MW4  372   1.782   2.152   0.241
   86SOL     OW  373   1.523   1.961   0.493
   86SOL    HW2  374   1.516   2.051   0.462
   86SOL    HW3  375   1.608   1.931   0.460
   86SOL    MW4  376   1.533   1.969   0.484
   87SOL     OW  377   0.841   1.830   0.447
   87SOL    HW2  378   0.929   1.867   0.452
   87SOL    HW3  379   0.853   1.736   0.456
   87SOL    MW4  380   0.854   1.823   0.449
   88SOL     OW  381   1.014   3.036   0.379
   88SOL    HW2  382   0.979   3.122   0.403
   88SOL    HW3  383   0.959   3.008   0.305
   88SOL    MW4  384   1.002   3.044   0.373
   89SOL     OW  385   2.012   2.249   0.397
   89SOL    HW2  386   2.044   2.158   0.399
   89SOL    HW3  387   2.073   2.296   0.454
   89SOL    MW4  388   2.024   2.243   0.405
   90SOL     OW  389   2.155   0.546   0.483
   90SOL    HW2  390   2.133   0.640   0.484
   90SOL    HW3  391   2.079   0.504   0.444
   90SOL    MW4  392   2.142   0.553   0.478
   91SOL     OW  393   1.165   3.844   0.400
   91SOL    HW2  394   1.144   3.750   0.407
   91SOL    HW3  395   1.103   3.887   0.459
   91SOL    MW4  396   1.154   3.837   0.409
   92SOL     OW  397   1.816   2.673   0.523
   92SOL    HW2  398   1.867   2.746   0.489
   92SOL    HW3  399   1.816   2.685   0.618
   92SOL    MW4  400   1.823   2.684   0.531
   93SOL     OW  401   1.411   3.923   0.500
   93SOL    HW2  402   1.328   3.898   0.460
   93SOL    HW3  403   1.432   4.008   0.460
   93SOL    MW4  404   1.403   3.931   0.490
   94SOL     OW  405   1.696   3.035   0.469
   94SOL    HW2  406   1.776   2.991   0.498
   94SOL    HW3  407   1.626   2.974   0.492
   94SOL    MW4  408   1.697   3.021   0.476
   95SOL     OW  409   2.222   3.813   0.465
   95SOL    HW2  410   2.157   3.745   0.474
   95SOL    HW3  411   2.291   3.774   0.411
   95SOL    MW4  412   2.223   3.799   0.459
   96SOL     OW  413   0.976   3.953   0.191
   96SOL    HW2  414   0.983   4.048   0.183
   96SOL    HW3  415   1.042   3.929   0.256
   96SOL    MW4  416   0.985   3.962   0.198
   97SOL     OW  417   1.830   4.602   0.255
   97SOL    HW2  418   1.741   4.634   0.271
   97SOL    HW3  419   1.823   4.507   0.265
   97SOL    MW4  420   1.817   4.593   0.258
   98SOL     OW  421   2.031   0.017   0.665
   98SOL    HW2  422   2.024  -0.077   0.686
   98SOL    HW3  423   2.034   0.020   0.570
   98SOL    MW4  424   2.031   0.005   0.656
   99SOL     OW  425   2.127   0.220   0.260
   99SOL    HW2  426   2.065   0.284   0.296
   99SOL    HW3  427   2.120   0.229   0.165
   99SOL    MW4  428   2.118   0.230   0.252
  100SOL     OW  429   1.404   4.177   0.356
  100SOL    HW2  430   1.312   4.195   0.341
  100SOL    HW3  431   1.441   4.261   0.383
  100SOL    MW4  432   1.397   4.190   0.358
  101SOL     OW  433   2.663   0.642   0.529
  101SOL    HW2  434   2.591   0.579   0.531
  101SOL    HW3  435   2.621   0.727   0.520
  101SOL    MW4  436   2.648   0.645   0.528
  102SOL     OW  437   1.752   1.893   0.379
  102SOL    HW2  438   1.828   1.894   0.437
  102SOL    HW3  439   1.767   1.966   0.319
  102SOL    MW4  440   1.764   1.903   0.379
  103SOL     OW  441   2.239   1.211   0.449
  103SOL    HW2  442   2.291   1.291   0.437
  103SOL    HW3  443   2.149   1.239   0.439
  103SOL    MW4  444   2.234   1.225   0.446
  104SOL     OW  445   2.606   1.322   0.456
  104SOL    HW2  446   2.677   1.383   0.478
  104SOL    HW3  447   2.647   1.257   0.399
  104SOL    MW4  448   2.621   1.322   0.452
  105SOL     OW  449   2.226   1.964   0.461
  105SOL    HW2  450   2.302   2.020   0.480
  105SOL    HW3  451   2.263   1.876   0.453
  105SOL    MW4  452   2.241   1.960   0.462
  106SOL     OW  453   1.913   1.557   0.505
  106SOL    HW2  454   1.947   1.639   0.540
  106SOL    HW3  455   1.831   1.581   0.461
  106SOL    MW4  456   1.906   1.571   0.504
  107SOL     OW  457   1.313   1.784   0.478
  107SOL    HW2  458   1.384   1.848   0.489
  107SOL    HW3  459   1.306   1.742   0.564
  107SOL    MW4  460   1.322   1.787   0.491
  108SOL     OW  461   2.267   2.353   0.501
  108SOL    HW2  462   2.340   2.414   0.487
  108SOL    HW3  463   2.236   2.371   0.590
  108SOL    MW4  464   2.272   2.364   0.511
  109SOL     OW  465   1.742   3.310   0.501
  109SOL    HW2  466   1.725   3.221   0.469
  109SOL    HW3  467   1.822   3.336   0.457
  109SOL    MW4  468   1.750   3.302   0.491
  110SOL     OW  469   1.102   2.824   0.531
  110SOL    HW2  470   1.077   2.903   0.483
  110SOL    HW3  471   1.028   2.764   0.519
  110SOL    MW4  472   1.089   2.826   0.523
  111SOL     OW  473   1.543   3.516   0.521
  111SOL    HW2  474   1.612   3.452   0.502
  111SOL    HW3  475   1.571   3.596   0.476
  111SOL    MW4  476   1.556   3.518   0.513
  112SOL     OW  477   1.094   1.976   0.500
  112SOL    HW2  478   1.101   1.990   0.594
  112SOL    HW3  479   1.160   1.908   0.481
  112SOL    MW4  480   1.104   1.969   0.510
  113SOL     OW  481   4.003   1.666   0.265
  113SOL    HW2  482   3.964   1.752   0.252
  113SOL    HW3  483   3.943   1.605   0.222
  113SOL    MW4  484   3.990   1.669   0.258
  114SOL     OW  485   1.777   2.373   0.480
  114SOL    HW2  486   1.865   2.339   0.462
  114SOL    HW3  487   1.788   2.468   0.487
  114SOL    MW4  488   1.790   2.381   0.478
  115SOL     OW  489   1.043   2.237   0.410
  115SOL    HW2  490   1.122   2.285   0.434
  115SOL    HW3  491   1.065   2.145   0.429
  115SOL    MW4  492   1.056   2.231   0.416
  116SOL     OW  493   1.314   3.369   0.477
  116SOL    HW2  494   1.392   3.421   0.495
  116SOL    HW3  495   1.337   3.318   0.399
  116SOL    MW4  496   1.327   3.369   0.469
  117SOL     OW  497   2.364   3.467   0.503
  117SOL    HW2  498   2.274   3.500   0.498
  117SOL    HW3  499   2.402   3.511   0.579
  117SOL    MW4  500   2.357   3.477   0.513
  118SOL     OW  501   1.783   4.338   0.327
  118SOL    HW2  502   1.756   4.252   0.293
  118SOL    HW3  503   1.862   4.319   0.378
  118SOL    MW4  504   1.790   4.324   0.329
  119SOL     OW  505   1.636   3.760   0.437
  119SOL    HW2  506   1.557   3.813   0.440
  119SOL    HW3  507   1.706   3.820   0.464
  119SOL    MW4  508   1.635   3.775   0.441
  120SOL     OW  509   1.529   4.415   0.418
  120SOL    HW2  510   1.526   4.390   0.511
  120SOL    HW3  511   1.619   4.396   0.391
  120SOL    MW4  512   1.541   4.409   0.427
  121SOL     OW  513   1.574   0.014   0.371
  121SOL    HW2  514   1.501   0.074   0.352
  121SOL    HW3  515   1.531  -0.067   0.399
  121SOL    MW4  516   1.559   0.011   0.372
  122SOL     OW  517   2.385   4.448   0.711
  122SOL    HW2  518   2.399   4.523   0.769
  122SOL    HW3  519   2.350   4.380   0.769
  122SOL    MW4  520   2.382   4.449   0.727
  123SOL     OW  521   2.373   0.216   0.429
  123SOL    HW2  522   2.333   0.198   0.514
  123SOL    HW3  523   2.301   0.212   0.367
  123SOL    MW4  524   2.358   0.213   0.432
  124SOL     OW  525   2.853   1.731   0.412
  124SOL    HW2  526   2.772   1.754   0.457
  124SOL    HW3  527   2.857   1.635   0.417
  124SOL    MW4  528   2.843   1.721   0.418
  125SOL     OW  529   2.918   0.538   0.488
  125SOL    HW2  530   2.833   0.580   0.496
  125SOL    HW3  531   2.982   0.609   0.490
  125SOL    MW4  532   2.915   0.553   0.489
  126SOL     OW  533   2.327   0.953   0.414
  126SOL    HW2  534   2.299   1.044   0.425
  126SOL    HW3  535   2.247   0.906   0.392
  126SOL    MW4  536   2.313   0.959   0.412
  127SOL     OW  537   2.865   1.465   0.477
  127SOL    HW2  538   2.914   1.387   0.452
  127SOL    HW3  539   2.871   1.469   0.572
  127SOL    MW4  540   2.872   1.455   0.486
  128SOL     OW  541   2.623   1.799   0.549
  128SOL    HW2  542   2.625   1.895   0.552
  128SOL    HW3  543   2.638   1.772   0.639
  128SOL    MW4  544   2.625   1.808   0.561
  129SOL     OW  545   3.223   1.980   0.380
  129SOL    HW2  546   3.189   2.019   0.460
  129SOL    HW3  547   3.315   1.962   0.399
  129SOL    MW4  548   3.231   1.983   0.393
  130SOL     OW  549   2.956   4.492   0.451
  130SOL    HW2  550   2.990   4.581   0.443
  130SOL    HW3  551   2.952   4.476   0.545
  130SOL    MW4  552   2.960   4.502   0.462
  131SOL     OW  553   1.978   1.875   0.548
  131SOL    HW2  554   1.969   1.908   0.637
  131SOL    HW3  555   2.067   1.899   0.523
  131SOL    MW4  556   1.989   1.882   0.557
  132SOL     OW  557   1.559   1.580   0.656
  132SOL    HW2  558   1.633   1.614   0.706
  132SOL    HW3  559   1.482   1.623   0.696
  132SOL    MW4  560   1.558   1.590   0.668
  133SOL     OW  561   2.447   2.126   0.522
  133SOL    HW2  562   2.410   2.207   0.487
  133SOL    HW3  563   2.538   2.127   0.494
  133SOL    MW4  564   2.454   2.137   0.514
  134SOL     OW  565   2.721   2.126   0.460
  134SOL    HW2  566   2.788   2.084   0.407
  134SOL    HW3  567   2.760   2.135   0.546
  134SOL    MW4  568   2.735   2.122   0.464
  135SOL     OW  569   2.504   2.502   0.515
  135SOL    HW2  570   2.592   2.494   0.478
  135SOL    HW3  571   2.485   2.596   0.514
  135SOL    MW4  572   2.513   2.513   0.510
  136SOL     OW  573   1.535   2.243   0.409
  136SOL    HW2  574   1.570   2.219   0.323
  136SOL    HW3  575   1.610   2.279   0.456
  136SOL    MW4  576   1.550   2.244   0.404
  137SOL     OW  577   1.540   2.779   0.518
  137SOL    HW2  578   1.526   2.766   0.612
  137SOL    HW3  579   1.629   2.746   0.503
  137SOL    MW4  580   1.550   2.773   0.529
  138SOL     OW  581   2.100   4.041   0.333
  138SOL    HW2  582   2.151   4.091   0.269
  138SOL    HW3  583   2.154   3.965   0.354
  138SOL    MW4  584   2.114   4.038   0.328
  139SOL     OW  585   2.372   4.215   0.280
  139SOL    HW2  586   2.467   4.226   0.276
  139SOL    HW3  587   2.341   4.295   0.323
  139SOL    MW4  588   2.381   4.227   0.285
  140SOL     OW  589   1.831   4.000   0.432
  140SOL    HW2  590   1.776   4.045   0.369
  140SOL    HW3  591   1.920   4.011   0.400
  140SOL    MW4  592   1.836   4.007   0.420
  141SOL     OW  593   1.984   3.327   0.355
  141SOL    HW2  594   2.028   3.249   0.387
  141SOL    HW3  595   1.971   3.312   0.261
  141SOL    MW4  596   1.988   3.315   0.347
  142SOL     OW  597   2.262   4.445   0.431
  142SOL    HW2  598   2.309   4.461   0.513
  142SOL    HW3  599   2.224   4.530   0.408
  142SOL    MW4  600   2.263   4.459   0.439
  143SOL     OW  601   2.033   4.293   0.480
  143SOL    HW2  602   2.051   4.199   0.473
  143SOL    HW3  603   2.117   4.335   0.464
  143SOL    MW4  604   2.046   4.286   0.477
  144SOL     OW  605   3.019   0.093   0.477
  144SOL    HW2  606   3.070   0.128   0.404
  144SOL    HW3  607   3.081   0.091   0.550
  144SOL    MW4  608   3.034   0.098   0.477
  145SOL     OW  609   2.455   3.668   0.339
  145SOL    HW2  610   2.446   3.604   0.409
  145SOL    HW3  611   2.412   3.628   0.263
  145SOL    MW4  612   2.449   3.654   0.338
  146SOL     OW  613   2.423   4.110   0.568
  146SOL    HW2  614   2.350   4.063   0.608
  146SOL    HW3  615   2.405   4.109   0.474
  146SOL    MW4  616   2.411   4.104   0.561
  147SOL     OW  617   2.642   0.117   0.466
  147SOL    HW2  618   2.702   0.186   0.440
  147SOL    HW3  619   2.555   0.149   0.440
  147SOL    MW4  620   2.638   0.130   0.459
  148SOL     OW  621   1.933   0.397   0.356
  148SOL    HW2  622   1.867   0.340   0.396
  148SOL    HW3  623   1.885   0.446   0.289
  148SOL    MW4  624   1.918   0.396   0.353
  149SOL     OW  625   3.134   0.751   0.481
  149SOL    HW2  626   3.138   0.786   0.570
  149SOL    HW3  627   3.221   0.713   0.466
  149SOL    MW4  628   3.146   0.750   0.491
  150SOL     OW  629   2.350   1.708   0.495
  150SOL    HW2  630   2.444   1.728   0.500
  150SOL    HW3  631   2.345   1.634   0.435
  150SOL    MW4  632   2.362   1.701   0.488
  151SOL     OW  633   2.718   1.105   0.341
  151SOL    HW2  634   2.807   1.133   0.362
  151SOL    HW3  635   2.728   1.050   0.263
  151SOL    MW4  636   2.731   1.101   0.334
  152SOL     OW  637   3.144   1.711   0.437
  152SOL    HW2  638   3.059   1.709   0.392
  152SOL    HW3  639   3.177   1.799   0.422
  152SOL    MW4  640   3.137   1.722   0.429
  153SOL     OW  641   3.502   1.365   0.292
  153SOL    HW2  642   3.482   1.283   0.337
  153SOL    HW3  643   3.478   1.349   0.201
  153SOL    MW4  644   3.496   1.352   0.286
  154SOL     OW  645   3.795   1.445   0.365
  154SOL    HW2  646   3.718   1.411   0.322
  154SOL    HW3  647   3.762   1.513   0.424
  154SOL    MW4  648   3.781   1.449   0.367
  155SOL     OW  649   2.702   0.099   0.752
  155SOL    HW2  650   2.688   0.189   0.779
  155SOL    HW3  651   2.692   0.101   0.656
  155SOL    MW4  652   2.699   0.111   0.743
  156SOL     OW  653   3.122   2.098   0.630
  156SOL    HW2  654   3.028   2.107   0.646
  156SOL    HW3  655   3.154   2.044   0.702
  156SOL    MW4  656   3.114   2.092   0.642
  157SOL     OW  657   2.756   2.424   0.456
  157SOL    HW2  658   2.837   2.471   0.435
  157SOL    HW3  659   2.777   2.332   0.439
  157SOL    MW4  660   2.769   2.418   0.451
  158SOL     OW  661   2.928   1.975   0.313
  158SOL    HW2  662   2.902   1.890   0.349
  158SOL    HW3  663   3.024   1.973   0.313
  158SOL    MW4  664   2.937   1.963   0.318
  159SOL     OW  665   2.464   2.785   0.492
  159SOL    HW2  666   2.422   2.849   0.433
  159SOL    HW3  667   2.449   2.821   0.579
  159SOL    MW4  668   2.456   2.798   0.495
  160SOL     OW  669   2.685   2.965   0.436
  160SOL    HW2  670   2.654   3.049   0.402
  160SOL    HW3  671   2.612   2.904   0.421
  160SOL    MW4  672   2.671   2.968   0.430
  161SOL     OW  673   3.027   3.375   0.395
  161SOL    HW2  674   3.075   3.296   0.418
  161SOL    HW3  675   3.090   3.430   0.348
  161SOL    MW4  676   3.041   3.372   0.392
  162SOL     OW  677   3.189   3.181   0.473
  162SOL    HW2  678   3.190   3.088   0.449
  162SOL    HW3  679   3.154   3.182   0.562
  162SOL    MW4  680   3.184   3.169   0.482
  163SOL     OW  681   2.132   3.117   0.461
  163SOL    HW2  682   2.177   3.154   0.537
  163SOL    HW3  683   2.202   3.074   0.411
  163SOL    MW4  684   2.148   3.117   0.464
  164SOL     OW  685   1.658   4.095   0.224
  164SOL    HW2  686   1.653   4.114   0.130
  164SOL    HW3  687   1.567   4.101   0.255
  164SOL    MW4  688   1.645   4.099   0.216
  165SOL     OW  689   3.084   3.721   0.400
  165SOL    HW2  690   3.112   3.800   0.353
  165SOL    HW3  691   3.147   3.654   0.376
  165SOL    MW4  692   3.096   3.723   0.391
  166SOL     OW  693   2.760   3.345   0.474
  166SOL    HW2  694   2.752   3.308   0.562
  166SOL    HW3  695   2.850   3.327   0.448
  166SOL    MW4  696   2.771   3.338   0.482
  167SOL     OW  697   2.505   3.243   0.413
  167SOL    HW2  698   2.594   3.279   0.423
  167SOL    HW3  699   2.448   3.307   0.454
  167SOL    MW4  700   2.510   3.256   0.420
  168SOL     OW  701   3.237   3.540   0.280
  168SOL    HW2  702   3.310   3.505   0.332
  168SOL    HW3  703   3.279   3.578   0.203
  168SOL    MW4  704   3.253   3.541   0.277
  169SOL     OW  705   3.134   4.286   0.358
  169SOL    HW2  706   3.093   4.200   0.368
  169SOL    HW3  707   3.073   4.347   0.399
  169SOL    MW4  708   3.121   4.282   0.365
  170SOL     OW  709   3.344   0.322   0.413
  170SOL    HW2  710   3.261   0.297   0.374
  170SOL    HW3  711   3.380   0.241   0.449
  170SOL    MW4  712   3.338   0.308   0.413
  171SOL     OW  713   2.671   4.509   0.397
  171SOL    HW2  714   2.643   4.599   0.415
  171SOL    HW3  715   2.766   4.513   0.401
  171SOL    MW4  716   2.680   4.521   0.400
  172SOL     OW  717   2.748   4.106   0.452
  172SOL    HW2  718   2.718   4.016   0.445
  172SOL    HW3  719   2.709   4.151   0.377
  172SOL    MW4  720   2.739   4.100   0.441
  173SOL     OW  721   2.823   0.296   0.385
  173SOL    HW2  722   2.837   0.388   0.407
  173SOL    HW3  723   2.892   0.249   0.431
  173SOL    MW4  724   2.834   0.302   0.394
  174SOL     OW  725   3.154   1.010   0.401
  174SOL    HW2  726   3.151   0.919   0.433
  174SOL    HW3  727   3.238   1.043   0.433
  174SOL    MW4  728   3.164   1.002   0.410
  175SOL     OW  729   3.386   0.573   0.514
  175SOL    HW2  730   3.368   0.490   0.471
  175SOL    HW3  731   3.463   0.608   0.468
  175SOL    MW4  732   3.394   0.567   0.502
  176SOL     OW  733   3.606   0.914   0.475
  176SOL    HW2  734   3.609   0.829   0.432
  176SOL    HW3  735   3.620   0.896   0.568
  176SOL    MW4  736   3.608   0.901   0.481
  177SOL     OW  737   3.565   0.394   0.256
  177SOL    HW2  738   3.498   0.347   0.306
  177SOL    HW3  739   3.643   0.340   0.263
  177SOL    MW4  740   3.566   0.381   0.264
  178SOL     OW  741   3.474   1.817   0.748
  178SOL    HW2  742   3.481   1.850   0.658
  178SOL    HW3  743   3.390   1.851   0.779
  178SOL    MW4  744   3.464   1.826   0.740
  179SOL     OW  745   3.484   1.891   0.455
  179SOL    HW2  746   3.470   1.799   0.433
  179SOL    HW3  747   3.578   1.904   0.442
  179SOL    MW4  748   3.495   1.880   0.451
  180SOL     OW  749   3.406   1.132   0.439
  180SOL    HW2  750   3.408   1.170   0.527
  180SOL    HW3  751   3.478   1.070   0.437
  180SOL    MW4  752   3.415   1.129   0.450
  181SOL     OW  753   3.931   1.939   0.260
  181SOL    HW2  754   3.860   1.934   0.323
  181SOL    HW3  755   3.925   2.028   0.224
  181SOL    MW4  756   3.921   1.950   0.263
  182SOL     OW  757   3.315   2.300   0.634
  182SOL    HW2  758   3.248   2.233   0.626
  182SOL    HW3  759   3.371   2.270   0.705
  182SOL    MW4  760   3.314   2.287   0.642
  183SOL     OW  761   3.533   2.687   0.571
  183SOL    HW2  762   3.578   2.662   0.652
  183SOL    HW3  763   3.489   2.606   0.543
  183SOL    MW4  764   3.533   2.673   0.578
  184SOL     OW  765   1.955   2.920   0.513
  184SOL    HW2  766   1.978   2.896   0.603
  184SOL    HW3  767   2.013   2.993   0.492
  184SOL    MW4  768   1.966   2.926   0.522
  185SOL     OW  769   3.270   2.649   0.318
  185SOL    HW2  770   3.330   2.585   0.355
  185SOL    HW3  771   3.275   2.634   0.223
  185SOL    MW4  772   3.278   2.638   0.310
  186SOL     OW  773   2.881   2.807   0.781
  186SOL    HW2  774   2.890   2.817   0.686
  186SOL    HW3  775   2.966   2.774   0.811
  186SOL    MW4  776   2.893   2.804   0.772
  187SOL     OW  777   3.122   0.265   0.258
  187SOL    HW2  778   3.166   0.232   0.179
  187SOL    HW3  779   3.039   0.301   0.227
  187SOL    MW4  780   3.117   0.265   0.244
  188SOL     OW  781   3.013   4.046   0.441
  188SOL    HW2  782   2.918   4.060   0.444
  188SOL    HW3  783   3.038   4.027   0.531
  188SOL    MW4  784   3.003   4.045   0.453
  189SOL     OW  785   3.355   3.532   0.698
  189SOL    HW2  786   3.345   3.477   0.620
  189SOL    HW3  787   3.287   3.502   0.757
  189SOL    MW4  788   3.345   3.521   0.695
  190SOL     OW  789   3.678   3.279   0.483
  190SOL    HW2  790   3.740   3.349   0.506
  190SOL    HW3  791   3.734   3.204   0.464
  190SOL    MW4  792   3.694   3.278   0.484
  191SOL     OW  793   3.388   3.388   0.458
  191SOL    HW2  794   3.473   3.345   0.452
  191SOL    HW3  795   3.324   3.317   0.456
  191SOL    MW4  796   3.390   3.373   0.457
  192SOL     OW  797   2.670   3.835   0.440
  192SOL    HW2  798   2.725   3.757   0.446
  192SOL    HW3  799   2.593   3.807   0.391
  192SOL    MW4  800   2.667   3.821   0.434
  193SOL     OW  801   2.373   3.017   0.364
  193SOL    HW2  802   2.378   3.011   0.269
  193SOL    HW3  803   2.422   3.096   0.386
  193SOL    MW4  804   2.380   3.027   0.355
  194SOL     OW  805   4.269   4.653   0.394
  194SOL    HW2  806   4.334   4.615   0.334
  194SOL    HW3  807   4.273   4.597   0.472
  194SOL    MW4  808   4.278   4.641   0.397
  195SOL     OW  809   3.756   0.250   0.403
  195SOL    HW2  810   3.792   0.333   0.434
  195SOL    HW3  811   3.832   0.192   0.399
  195SOL    MW4  812   3.771   0.253   0.407
  196SOL     OW  813   3.629   0.643   0.360
  196SOL    HW2  814   3.592   0.566   0.317
  196SOL    HW3  815   3.698   0.673   0.300
  196SOL    MW4  816   3.633   0.637   0.346
  197SOL     OW  817   3.854   0.745   0.237
  197SOL    HW2  818   3.849   0.839   0.259
  197SOL    HW3  819   3.947   0.723   0.249
  197SOL    MW4  820   3.866   0.755   0.241
  198SOL     OW  821   4.077   0.651   0.395
  198SOL    HW2  822   4.141   0.580   0.393
  198SOL    HW3  823   3.994   0.608   0.417
  198SOL    MW4  824   4.074   0.636   0.397
  199SOL     OW  825   4.423   0.935   0.488
  199SOL    HW2  826   4.334   0.960   0.462
  199SOL    HW3  827   4.446   0.863   0.429
  199SOL    MW4  828   4.414   0.929   0.477
  200SOL     OW  829   3.857   1.025   0.395
  200SOL    HW2  830   3.887   1.111   0.421
  200SOL    HW3  831   3.766   1.021   0.425
  200SOL    MW4  832   3.849   1.036   0.402
  201SOL     OW  833   4.153   1.608   0.492
  201SOL    HW2  834   4.099   1.638   0.419
  201SOL    HW3  835   4.239   1.649   0.477
  201SOL    MW4  836   4.157   1.617   0.481
  202SOL     OW  837   3.920   1.273   0.519
  202SOL    HW2  838   4.015   1.290   0.524
  202SOL    HW3  839   3.887   1.339   0.458
  202SOL    MW4  840   3.929   1.284   0.512
  203SOL     OW  841   3.423   1.607   0.422
  203SOL    HW2  842   3.331   1.631   0.418
  203SOL    HW3  843   3.433   1.536   0.359
  203SOL    MW4  844   3.412   1.601   0.413
  204SOL     OW  845   2.951   1.215   0.424
  204SOL    HW2  846   2.945   1.194   0.517
  204SOL    HW3  847   3.013   1.151   0.388
  204SOL    MW4  848   2.958   1.204   0.431
  205SOL     OW  849   3.725   2.361   0.393
  205SOL    HW2  850   3.786   2.318   0.332
  205SOL    HW3  851   3.752   2.329   0.479
  205SOL    MW4  852   3.737   2.351   0.396
  206SOL     OW  853   4.198   2.785   0.482
  206SOL    HW2  854   4.195   2.695   0.448
  206SOL    HW3  855   4.107   2.813   0.484
  206SOL    MW4  856   4.186   2.777   0.478
  207SOL     OW  857   2.993   2.571   0.437
  207SOL    HW2  858   3.030   2.546   0.521
  207SOL    HW3  859   3.068   2.570   0.377
  207SOL    MW4  860   3.008   2.568   0.440
  208SOL     OW  861   2.843   3.621   0.499
  208SOL    HW2  862   2.920   3.647   0.448
  208SOL    HW3  863   2.820   3.535   0.465
  208SOL    MW4  864   2.850   3.613   0.488
  209SOL     OW  865   3.172   2.897   0.445
  209SOL    HW2  866   3.213   2.823   0.399
  209SOL    HW3  867   3.084   2.867   0.465
  209SOL    MW4  868   3.166   2.883   0.442
  210SOL     OW  869   3.917   2.858   0.437
  210SOL    HW2  870   3.846   2.801   0.408
  210SOL    HW3  871   3.918   2.929   0.374
  210SOL    MW4  872   3.908   2.860   0.425
  211SOL     OW  873   3.732   2.651   0.363
  211SOL    HW2  874   3.734   2.556   0.369
  211SOL    HW3  875   3.662   2.678   0.423
  211SOL    MW4  876   3.723   2.642   0.372
  212SOL     OW  877   4.008   3.970   0.353
  212SOL    HW2  878   3.984   3.897   0.410
  212SOL    HW3  879   4.092   3.945   0.315
  212SOL    MW4  880   4.016   3.957   0.355
  213SOL     OW  881   3.429   2.451   0.441
  213SOL    HW2  882   3.384   2.387   0.498
  213SOL    HW3  883   3.490   2.398   0.390
  213SOL    MW4  884   3.431   2.436   0.442
  214SOL     OW  885   3.275   3.764   0.593
  214SOL    HW2  886   3.297   3.688   0.646
  214SOL    HW3  887   3.196   3.738   0.545
  214SOL    MW4  888   3.267   3.751   0.594
  215SOL     OW  889   4.324   4.014   0.605
  215SOL    HW2  890   4.284   3.954   0.669
  215SOL    HW3  891   4.263   4.087   0.600
  215SOL    MW4  892   4.310   4.016   0.613
  216SOL     OW  893   3.381   4.314   0.484
  216SOL    HW2  894   3.297   4.315   0.438
  216SOL    HW3  895   3.405   4.221   0.489
  216SOL    MW4  896   3.373   4.302   0.479
  217SOL     OW  897   3.543   4.522   0.429
  217SOL    HW2  898   3.482   4.458   0.466
  217SOL    HW3  899   3.529   4.516   0.335
  217SOL    MW4  900   3.533   4.512   0.421
  218SOL     OW  901   4.415   0.223   0.461
  218SOL    HW2  902   4.362   0.151   0.427
  218SOL    HW3  903   4.446   0.193   0.546
  218SOL    MW4  904   4.412   0.210   0.467
  219SOL     OW  905   4.121   0.925   0.478
  219SOL    HW2  906   4.036   0.962   0.456
  219SOL    HW3  907   4.114   0.832   0.454
  219SOL    MW4  908   4.109   0.917   0.472
  220SOL     OW  909   0.441   1.737   0.375
  220SOL    HW2  910   0.437   1.643   0.360
  220SOL    HW3  911   0.361   1.757   0.424
  220SOL    MW4  912   0.430   1.727   0.379
  221SOL     OW  913   4.335   0.488   0.456
  221SOL    HW2  914   4.365   0.398   0.468
  221SOL    HW3  915   4.415   0.538   0.439
  221SOL    MW4  916   4.350   0.483   0.455
  222SOL     OW  917   4.464   1.215   0.492
  222SOL    HW2  918   4.465   1.120   0.506
  222SOL    HW3  919   4.372   1.239   0.504
  222SOL    MW4  920   4.452   1.206   0.496
  223SOL     OW  921   3.517   0.114   0.492
  223SOL    HW2  922   3.526   0.019   0.484
  223SOL    HW3  923   3.601   0.148   0.460
  223SOL    MW4  924   3.530   0.106   0.487
  224SOL     OW  925   4.201   1.335   0.530
  224SOL    HW2  926   4.198   1.430   0.519
  224SOL    HW3  927   4.198   1.322   0.625
  224SOL    MW4  928   4.200   1.346   0.541
  225SOL     OW  929   0.099   1.473   0.419
  225SOL    HW2  930   0.037   1.543   0.436
  225SOL    HW3  931   0.045   1.394   0.416
  225SOL    MW4  932   0.084   1.471   0.421
  226SOL     OW  933   4.188   2.262   0.339
  226SOL    HW2  934   4.187   2.202   0.413
  226SOL    HW3  935   4.200   2.349   0.377
  226SOL    MW4  936   4.189   2.266   0.354
  227SOL     OW  937   4.437   1.681   0.506
  227SOL    HW2  938   4.409   1.768   0.479
  227SOL    HW3  939   4.430   1.682   0.601
  227SOL    MW4  940   4.432   1.693   0.515
  228SOL     OW  941   0.155   2.402   0.280
  228SOL    HW2  942   0.096   2.461   0.326
  228SOL    HW3  943   0.237   2.451   0.271
  228SOL    MW4  944   0.158   2.416   0.285
  229SOL     OW  945   4.348   1.935   0.438
  229SOL    HW2  946   4.257   1.962   0.448
  229SOL    HW3  947   4.381   1.985   0.363
  229SOL    MW4  948   4.341   1.945   0.429
  230SOL     OW  949   0.004   2.539   0.453
  230SOL    HW2  950   0.045   2.626   0.450
  230SOL    HW3  951   0.028   2.505   0.539
  230SOL    MW4  952   0.013   2.546   0.464
  231SOL     OW  953   4.176   3.576   0.438
  231SOL    HW2  954   4.239   3.602   0.371
  231SOL    HW3  955   4.154   3.486   0.416
  231SOL    MW4  956   4.181   3.568   0.426
  232SOL     OW  957   4.213   2.528   0.442
  232SOL    HW2  958   4.208   2.486   0.528
  232SOL    HW3  959   4.307   2.543   0.428
  232SOL    MW4  960   4.225   2.524   0.452
  233SOL     OW  961   0.300   3.841   0.399
  233SOL    HW2  962   0.304   3.934   0.424
  233SOL    HW3  963   0.387   3.807   0.420
  233SOL    MW4  964   0.312   3.849   0.405
  234SOL     OW  965   4.411   3.685   0.286
  234SOL    HW2  966   4.471   3.704   0.214
  234SOL    HW3  967   4.469   3.660   0.359
  234SOL    MW4  968   4.427   3.684   0.287
  235SOL     OW  969   0.271   3.227   0.453
  235SOL    HW2  970   0.359   3.188   0.453
  235SOL    HW3  971   0.283   3.314   0.416
  235SOL    MW4  972   0.284   3.233   0.448
  236SOL     OW  973   3.938   3.718   0.505
  236SOL    HW2  974   3.873   3.653   0.532
  236SOL    HW3  975   4.014   3.667   0.477
  236SOL    MW4  976   3.940   3.703   0.505
  237SOL     OW  977   3.878   3.136   0.357
  237SOL    HW2  978   3.867   3.177   0.271
  237SOL    HW3  979   3.963   3.167   0.388
  237SOL    MW4  980   3.888   3.145   0.350
  238SOL     OW  981   0.270   4.110   0.465
  238SOL    HW2  982   0.208   4.121   0.538
  238SOL    HW3  983   0.215   4.105   0.387
  238SOL    MW4  984   0.255   4.111   0.465
  239SOL     OW  985   4.046   4.238   0.332
  239SOL    HW2  986   4.024   4.145   0.343
  239SOL    HW3  987   3.961   4.282   0.323
  239SOL    MW4  988   4.032   4.232   0.332
  240SOL     OW  989   4.154   4.261   0.598
  240SOL    HW2  990   4.212   4.335   0.612
  240SOL    HW3  991   4.114   4.276   0.512
  240SOL    MW4  992   4.156   4.272   0.588
  241SOL     OW  993   3.824   4.476   0.495
  241SOL    HW2  994   3.838   4.434   0.580
  241SOL    HW3  995   3.729   4.481   0.486
  241SOL    MW4  996   3.813   4.471   0.505
  242SOL     OW  997   0.245   0.006   0.820
  242SOL    HW2  998   0.251  -0.086   0.795
  242SOL    HW3  999   0.157   0.032   0.791
  242SOL    MW4 1000   0.234  -0.003   0.813
  243SOL     OW 1001   0.008   0.101   0.725
  243SOL    HW2 1002  -0.086   0.085   0.735
  243SOL    HW3 1003   0.022   0.189   0.761
  243SOL    MW4 1004  -0.003   0.110   0.731
  244SOL     OW 1005   0.057   0.376   0.779
  244SOL    HW2 1006   0.065   0.377   0.874
  244SOL    HW3 1007   0.111   0.449   0.749
  244SOL    MW4 1008   0.065   0.386   0.787
  245SOL     OW 1009   0.210   0.576   0.703
  245SOL    HW2 1010   0.285   0.538   0.749
  245SOL    HW3 1011   0.205   0.666   0.735
  245SOL    MW4 1012   0.219   0.582   0.713
  246SOL     OW 1013   0.230   0.835   0.796
  246SOL    HW2 1014   0.226   0.813   0.890
  246SOL    HW3 1015   0.157   0.895   0.782
  246SOL    MW4 1016   0.220   0.840   0.807
  247SOL     OW 1017   4.441   0.970   0.762
  247SOL    HW2 1018   4.412   0.886   0.797
  247SOL    HW3 1019   4.444   0.956   0.667
  247SOL    MW4 1020   4.438   0.957   0.754
  248SOL     OW 1021   0.034   1.214   0.884
  248SOL    HW2 1022   0.006   1.188   0.972
  248SOL    HW3 1023   0.023   1.134   0.831
  248SOL    MW4 1024   0.029   1.200   0.888
  249SOL     OW 1025   0.217   1.155   0.631
  249SOL    HW2 1026   0.130   1.181   0.599
  249SOL    HW3 1027   0.278   1.190   0.566
  249SOL    MW4 1028   0.213   1.163   0.618
  250SOL     OW 1029   0.158   1.465   0.831
  250SOL    HW2 1030   0.222   1.472   0.760
  250SOL    HW3 1031   0.138   1.371   0.836
  250SOL    MW4 1032   0.164   1.453   0.822
  251SOL     OW 1033   4.465   1.665   0.791
  251SOL    HW2 1034   4.384   1.638   0.834
  251SOL    HW3 1035   4.529   1.598   0.816
  251SOL    MW4 1036   4.463   1.653   0.800
  252SOL     OW 1037   0.041   1.932   0.871
  252SOL    HW2 1038   0.121   1.957   0.825
  252SOL    HW3 1039   0.021   1.844   0.837
  252SOL    MW4 1040   0.049   1.924   0.860
  253SOL     OW 1041   0.261   2.054   0.750
  253SOL    HW2 1042   0.264   2.134   0.803
  253SOL    HW3 1043   0.227   2.082   0.665
  253SOL    MW4 1044   0.257   2.068   0.746
  254SOL     OW 1045   0.240   2.305   0.870
  254SOL    HW2 1046   0.240   2.325   0.964
  254SOL    HW3 1047   0.310   2.359   0.834
  254SOL    MW4 1048   0.249   2.315   0.878
  255SOL     OW 1049   0.037   2.449   0.741
  255SOL    HW2 1050  -0.032   2.422   0.801
  255SOL    HW3 1051   0.115   2.401   0.771
  255SOL    MW4 1052   0.038   2.439   0.753
  256SOL     OW 1053   0.019   2.725   0.860
  256SOL    HW2 1054   0.028   2.721   0.955
  256SOL    HW3 1055   0.003   2.634   0.833
  256SOL    MW4 1056   0.018   2.712   0.869
  257SOL     OW 1057   0.193   2.864   0.701
  257SOL    HW2 1058   0.137   2.817   0.763
  257SOL    HW3 1059   0.158   2.840   0.615
  257SOL    MW4 1060   0.181   2.855   0.698
  258SOL     OW 1061   0.217   3.108   0.859
  258SOL    HW2 1062   0.206   3.095   0.954
  258SOL    HW3 1063   0.224   3.020   0.824
  258SOL    MW4 1064   0.216   3.095   0.867
  259SOL     OW 1065   0.042   3.219   0.668
  259SOL    HW2 1066   0.099   3.183   0.737
  259SOL    HW3 1067   0.099   3.224   0.591
  259SOL    MW4 1068   0.057   3.215   0.667
  260SOL     OW 1069   4.479   3.430   0.820
  260SOL    HW2 1070   4.414   3.484   0.776
  260SOL    HW3 1071   4.503   3.363   0.756
  260SOL    MW4 1072   4.473   3.429   0.806
  261SOL     OW 1073   0.214   3.619   0.733
  261SOL    HW2 1074   0.142   3.586   0.787
  261SOL    HW3 1075   0.173   3.638   0.649
  261SOL    MW4 1076   0.199   3.617   0.729
  262SOL     OW 1077   0.226   3.900   0.843
  262SOL    HW2 1078   0.237   3.902   0.938
  262SOL    HW3 1079   0.220   3.807   0.821
  262SOL    MW4 1080   0.227   3.888   0.852
  263SOL     OW 1081   0.073   4.101   0.684
  263SOL    HW2 1082  -0.015   4.071   0.661
  263SOL    HW3 1083   0.110   4.029   0.735
  263SOL    MW4 1084   0.066   4.088   0.688
  264SOL     OW 1085   4.465   4.331   0.835
  264SOL    HW2 1086   4.453   4.331   0.931
  264SOL    HW3 1087   4.497   4.243   0.816
  264SOL    MW4 1088   4.467   4.319   0.845
  265SOL     OW 1089   0.231   4.404   0.749
  265SOL    HW2 1090   0.144   4.374   0.777
  265SOL    HW3 1091   0.226   4.409   0.654
  265SOL    MW4 1092   0.219   4.401   0.740
  266SOL     OW 1093   0.651   0.003   0.801
  266SOL    HW2 1094   0.646  -0.002   0.896
  266SOL    HW3 1095   0.589   0.071   0.777
  266SOL    MW4 1096   0.642   0.011   0.810
  267SOL     OW 1097   0.468   0.184   0.718
  267SOL    HW2 1098   0.391   0.143   0.758
  267SOL    HW3 1099   0.455   0.171   0.624
  267SOL    MW4 1100   0.456   0.177   0.711
  268SOL     OW 1101   0.434   0.425   0.837
  268SOL    HW2 1102   0.504   0.480   0.803
  268SOL    HW3 1103   0.449   0.339   0.797
  268SOL    MW4 1104   0.445   0.421   0.827
  269SOL     OW 1105   0.665   0.562   0.751
  269SOL    HW2 1106   0.725   0.489   0.762
  269SOL    HW3 1107   0.674   0.587   0.659
  269SOL    MW4 1108   0.674   0.556   0.740
  270SOL     OW 1109   0.695   0.826   0.843
  270SOL    HW2 1110   0.612   0.856   0.805
  270SOL    HW3 1111   0.693   0.731   0.834
  270SOL    MW4 1112   0.683   0.818   0.836
  271SOL     OW 1113   0.481   0.963   0.743
  271SOL    HW2 1114   0.482   1.054   0.773
  271SOL    HW3 1115   0.392   0.932   0.765
  271SOL    MW4 1116   0.469   0.971   0.750
  272SOL     OW 1117   0.403   1.227   0.845
  272SOL    HW2 1118   0.408   1.321   0.824
  272SOL    HW3 1119   0.342   1.192   0.781
  272SOL    MW4 1120   0.395   1.235   0.834
  273SOL     OW 1121   0.692   1.228   0.663
  273SOL    HW2 1122   0.690   1.292   0.734
  273SOL    HW3 1123   0.756   1.262   0.601
  273SOL    MW4 1124   0.700   1.241   0.664
  274SOL     OW 1125   0.675   1.446   0.836
  274SOL    HW2 1126   0.675   1.466   0.929
  274SOL    HW3 1127   0.593   1.482   0.803
  274SOL    MW4 1128   0.664   1.453   0.844
  275SOL     OW 1129   0.426   1.495   0.713
  275SOL    HW2 1130   0.406   1.586   0.738
  275SOL    HW3 1131   0.418   1.495   0.617
  275SOL    MW4 1132   0.422   1.507   0.703
  276SOL     OW 1133   0.352   1.766   0.763
  276SOL    HW2 1134   0.338   1.846   0.814
  276SOL    HW3 1135   0.301   1.779   0.683
  276SOL    MW4 1136   0.343   1.778   0.759
  277SOL     OW 1137   0.614   2.008   0.860
  277SOL    HW2 1138   0.572   1.973   0.939
  277SOL    HW3 1139   0.578   1.956   0.789
  277SOL    MW4 1140   0.603   1.997   0.861
  278SOL     OW 1141   0.612   2.281   0.882
  278SOL    HW2 1142   0.638   2.288   0.974
  278SOL    HW3 1143   0.620   2.187   0.862
  278SOL    MW4 1144   0.616   2.269   0.892
  279SOL     OW 1145   0.442   2.478   0.791
  279SOL    HW2 1146   0.500   2.407   0.819
  279SOL    HW3 1147   0.465   2.492   0.699
  279SOL    MW4 1148   0.453   2.471   0.783
  280SOL     OW 1149   0.423   2.748   0.845
  280SOL    HW2 1150   0.430   2.653   0.844
  280SOL    HW3 1151   0.344   2.767   0.794
  280SOL    MW4 1152   0.413   2.738   0.838
  281SOL     OW 1153   0.634   2.845   0.693
  281SOL    HW2 1154   0.702   2.787   0.725
  281SOL    HW3 1155   0.557   2.824   0.746
  281SOL    MW4 1156   0.633   2.834   0.704
  282SOL     OW 1157   0.657   3.096   0.831
  282SOL    HW2 1158   0.580   3.153   0.823
  282SOL    HW3 1159   0.642   3.026   0.768
  282SOL    MW4 1160   0.645   3.094   0.821
  283SOL     OW 1161   0.445   3.232   0.746
  283SOL    HW2 1162   0.428   3.321   0.777
  283SOL    HW3 1163   0.375   3.180   0.784
  283SOL    MW4 1164   0.434   3.237   0.755
  284SOL     OW 1165   0.477   3.529   0.807
  284SOL    HW2 1166   0.489   3.517   0.901
  284SOL    HW3 1167   0.387   3.559   0.797
  284SOL    MW4 1168   0.466   3.531   0.818
  285SOL     OW 1169   0.716   3.636   0.691
  285SOL    HW2 1170   0.631   3.607   0.724
  285SOL    HW3 1171   0.722   3.727   0.719
  285SOL    MW4 1172   0.705   3.644   0.699
  286SOL     OW 1173   0.682   3.876   0.818
  286SOL    HW2 1174   0.749   3.943   0.803
  286SOL    HW3 1175   0.601   3.915   0.787
  286SOL    MW4 1176   0.680   3.890   0.812
  287SOL     OW 1177   0.455   3.978   0.688
  287SOL    HW2 1178   0.450   4.069   0.716
  287SOL    HW3 1179   0.374   3.938   0.719
  287SOL    MW4 1180   0.444   3.985   0.696
  288SOL     OW 1181   0.446   4.240   0.818
  288SOL    HW2 1182   0.447   4.231   0.913
  288SOL    HW3 1183   0.368   4.292   0.800
  288SOL    MW4 1184   0.436   4.246   0.828
  289SOL     OW 1185   0.699   4.385   0.772
  289SOL    HW2 1186   0.618   4.336   0.788
  289SOL    HW3 1187   0.677   4.475   0.796
  289SOL    MW4 1188   0.685   4.390   0.778
  290SOL     OW 1189   1.096   4.640   0.843
  290SOL    HW2 1190   1.178   4.674   0.809
  290SOL    HW3 1191   1.029   4.696   0.805
  290SOL    MW4 1192   1.098   4.652   0.834
  291SOL     OW 1193   0.899   0.110   0.732
  291SOL    HW2 1194   0.903   0.205   0.748
  291SOL    HW3 1195   0.812   0.084   0.763
  291SOL    MW4 1196   0.888   0.119   0.738
  292SOL     OW 1197   0.897   0.378   0.815
  292SOL    HW2 1198   0.913   0.379   0.910
  292SOL    HW3 1199   0.965   0.435   0.779
  292SOL    MW4 1200   0.908   0.386   0.823
  293SOL     OW 1201   1.125   0.525   0.748
  293SOL    HW2 1202   1.204   0.476   0.770
  293SOL    HW3 1203   1.120   0.521   0.652
  293SOL    MW4 1204   1.135   0.518   0.738
  294SOL     OW 1205   1.145   0.794   0.861
  294SOL    HW2 1206   1.168   0.783   0.954
  294SOL    HW3 1207   1.137   0.704   0.828
  294SOL    MW4 1208   1.147   0.781   0.869
  295SOL     OW 1209   0.933   0.877   0.702
  295SOL    HW2 1210   1.000   0.833   0.754
  295SOL    HW3 1211   0.852   0.865   0.752
  295SOL    MW4 1212   0.931   0.870   0.715
  296SOL     OW 1213   0.920   1.133   0.798
  296SOL    HW2 1214   0.932   1.040   0.776
  296SOL    HW3 1215   0.833   1.154   0.765
  296SOL    MW4 1216   0.910   1.123   0.791
  297SOL     OW 1217   1.171   1.270   0.740
  297SOL    HW2 1218   1.096   1.216   0.764
  297SOL    HW3 1219   1.174   1.265   0.645
  297SOL    MW4 1220   1.162   1.262   0.731
  298SOL     OW 1221   1.114   1.514   0.836
  298SOL    HW2 1222   1.030   1.541   0.799
  298SOL    HW3 1223   1.134   1.431   0.794
  298SOL    MW4 1224   1.106   1.507   0.826
  299SOL     OW 1225   0.876   1.614   0.727
  299SOL    HW2 1226   0.852   1.697   0.768
  299SOL    HW3 1227   0.809   1.552   0.756
  299SOL    MW4 1228   0.864   1.616   0.737
  300SOL     OW 1229   0.874   1.865   0.892
  300SOL    HW2 1230   0.881   1.858   0.987
  300SOL    HW3 1231   0.799   1.922   0.877
  300SOL    MW4 1232   0.865   1.872   0.902
  301SOL     OW 1233   1.068   2.007   0.779
  301SOL    HW2 1234   1.056   2.094   0.816
  301SOL    HW3 1235   0.992   1.957   0.810
  301SOL    MW4 1236   1.057   2.012   0.788
  302SOL     OW 1237   1.092   2.265   0.869
  302SOL    HW2 1238   1.112   2.255   0.962
  302SOL    HW3 1239   1.168   2.312   0.833
  302SOL    MW4 1240   1.105   2.270   0.876
  303SOL     OW 1241   0.854   2.408   0.812
  303SOL    HW2 1242   0.927   2.365   0.856
  303SOL    HW3 1243   0.776   2.364   0.847
  303SOL    MW4 1244   0.853   2.397   0.822
  304SOL     OW 1245   0.844   2.677   0.804
  304SOL    HW2 1246   0.827   2.694   0.896
  304SOL    HW3 1247   0.849   2.581   0.797
  304SOL    MW4 1248   0.842   2.666   0.815
  305SOL     OW 1249   1.087   2.837   0.808
  305SOL    HW2 1250   1.011   2.782   0.827
  305SOL    HW3 1251   1.085   2.849   0.713
  305SOL    MW4 1252   1.077   2.831   0.798
  306SOL     OW 1253   1.122   3.098   0.832
  306SOL    HW2 1254   1.046   3.145   0.796
  306SOL    HW3 1255   1.096   3.006   0.829
  306SOL    MW4 1256   1.108   3.092   0.827
  307SOL     OW 1257   0.886   3.238   0.752
  307SOL    HW2 1258   0.881   3.323   0.796
  307SOL    HW3 1259   0.812   3.188   0.786
  307SOL    MW4 1260   0.876   3.243   0.762
  308SOL     OW 1261   0.860   3.491   0.869
  308SOL    HW2 1262   0.946   3.529   0.850
  308SOL    HW3 1263   0.799   3.542   0.816
  308SOL    MW4 1264   0.863   3.502   0.860
  309SOL     OW 1265   1.111   3.591   0.777
  309SOL    HW2 1266   1.187   3.539   0.804
  309SOL    HW3 1267   1.114   3.591   0.682
  309SOL    MW4 1268   1.121   3.584   0.768
  310SOL     OW 1269   1.076   3.860   0.865
  310SOL    HW2 1270   1.104   3.870   0.956
  310SOL    HW3 1271   1.087   3.767   0.847
  310SOL    MW4 1272   1.081   3.849   0.875
  311SOL     OW 1273   0.895   4.054   0.780
  311SOL    HW2 1274   0.920   4.132   0.830
  311SOL    HW3 1275   0.960   3.989   0.804
  311SOL    MW4 1276   0.907   4.056   0.790
  312SOL     OW 1277   0.926   4.316   0.902
  312SOL    HW2 1278   0.983   4.343   0.830
  312SOL    HW3 1279   0.837   4.335   0.871
  312SOL    MW4 1280   0.922   4.322   0.888
  313SOL     OW 1281   1.073   4.397   0.693
  313SOL    HW2 1282   1.149   4.342   0.714
  313SOL    HW3 1283   1.090   4.480   0.737
  313SOL    MW4 1284   1.085   4.401   0.702
  314SOL     OW 1285   1.588   4.628   0.802
  314SOL    HW2 1286   1.580   4.608   0.895
  314SOL    HW3 1287   1.510   4.679   0.781
  314SOL    MW4 1288   1.577   4.632   0.811
  315SOL     OW 1289   1.350   0.094   0.738
  315SOL    HW2 1290   1.341   0.175   0.788
  315SOL    HW3 1291   1.356   0.123   0.647
  315SOL    MW4 1292   1.349   0.108   0.732
  316SOL     OW 1293   1.355   0.359   0.824
  316SOL    HW2 1294   1.351   0.370   0.919
  316SOL    HW3 1295   1.425   0.418   0.797
  316SOL    MW4 1296   1.364   0.368   0.833
  317SOL     OW 1297   1.567   0.510   0.752
  317SOL    HW2 1298   1.582   0.601   0.776
  317SOL    HW3 1299   1.641   0.462   0.789
  317SOL    MW4 1300   1.579   0.515   0.760
  318SOL     OW 1301   1.588   0.800   0.802
  318SOL    HW2 1302   1.660   0.840   0.754
  318SOL    HW3 1303   1.510   0.842   0.769
  318SOL    MW4 1304   1.587   0.811   0.792
  319SOL     OW 1305   1.336   0.925   0.727
  319SOL    HW2 1306   1.352   1.002   0.781
  319SOL    HW3 1307   1.263   0.880   0.770
  319SOL    MW4 1308   1.329   0.929   0.740
  320SOL     OW 1309   1.402   1.160   0.872
  320SOL    HW2 1310   1.473   1.208   0.828
  320SOL    HW3 1311   1.322   1.204   0.844
  320SOL    MW4 1312   1.401   1.172   0.863
  321SOL     OW 1313   1.597   1.293   0.718
  321SOL    HW2 1314   1.572   1.381   0.690
  321SOL    HW3 1315   1.559   1.234   0.653
  321SOL    MW4 1316   1.588   1.297   0.706
  322SOL     OW 1317   1.751   1.639   0.863
  322SOL    HW2 1318   1.694   1.601   0.930
  322SOL    HW3 1319   1.835   1.596   0.875
  322SOL    MW4 1320   1.755   1.629   0.873
  323SOL     OW 1321   1.330   1.690   0.750
  323SOL    HW2 1322   1.305   1.765   0.804
  323SOL    HW3 1323   1.260   1.627   0.762
  323SOL    MW4 1324   1.317   1.692   0.759
  324SOL     OW 1325   1.309   1.930   0.891
  324SOL    HW2 1326   1.321   1.947   0.984
  324SOL    HW3 1327   1.226   1.972   0.868
  324SOL    MW4 1328   1.299   1.938   0.900
  325SOL     OW 1329   1.528   2.018   0.754
  325SOL    HW2 1330   1.448   1.981   0.790
  325SOL    HW3 1331   1.526   1.994   0.661
  325SOL    MW4 1332   1.517   2.010   0.746
  326SOL     OW 1333   1.526   2.280   0.856
  326SOL    HW2 1334   1.454   2.320   0.806
  326SOL    HW3 1335   1.531   2.191   0.823
  326SOL    MW4 1336   1.517   2.274   0.845
  327SOL     OW 1337   1.293   2.412   0.749
  327SOL    HW2 1338   1.294   2.500   0.786
  327SOL    HW3 1339   1.276   2.426   0.655
  327SOL    MW4 1340   1.291   2.425   0.741
  328SOL     OW 1341   1.295   2.664   0.885
  328SOL    HW2 1342   1.318   2.706   0.968
  328SOL    HW3 1343   1.229   2.722   0.846
  328SOL    MW4 1344   1.289   2.677   0.890
  329SOL     OW 1345   1.532   2.772   0.794
  329SOL    HW2 1346   1.518   2.865   0.811
  329SOL    HW3 1347   1.452   2.729   0.825
  329SOL    MW4 1348   1.519   2.778   0.800
  330SOL     OW 1349   1.514   3.048   0.837
  330SOL    HW2 1350   1.523   3.066   0.931
  330SOL    HW3 1351   1.434   3.094   0.811
  330SOL    MW4 1352   1.505   3.056   0.846
  331SOL     OW 1353   1.337   3.251   0.737
  331SOL    HW2 1354   1.264   3.193   0.760
  331SOL    HW3 1355   1.311   3.289   0.652
  331SOL    MW4 1356   1.324   3.248   0.728
  332SOL     OW 1357   1.349   3.475   0.881
  332SOL    HW2 1358   1.419   3.530   0.844
  332SOL    HW3 1359   1.351   3.396   0.828
  332SOL    MW4 1360   1.359   3.472   0.869
  333SOL     OW 1361   1.564   3.616   0.768
  333SOL    HW2 1362   1.638   3.562   0.798
  333SOL    HW3 1363   1.550   3.589   0.678
  333SOL    MW4 1364   1.572   3.605   0.760
  334SOL     OW 1365   1.574   3.882   0.847
  334SOL    HW2 1366   1.488   3.914   0.822
  334SOL    HW3 1367   1.576   3.792   0.814
  334SOL    MW4 1368   1.563   3.874   0.839
  335SOL     OW 1369   1.308   3.985   0.765
  335SOL    HW2 1370   1.232   3.929   0.781
  335SOL    HW3 1371   1.336   3.962   0.676
  335SOL    MW4 1372   1.302   3.975   0.755
  336SOL     OW 1373   1.307   4.254   0.797
  336SOL    HW2 1374   1.386   4.302   0.772
  336SOL    HW3 1375   1.326   4.163   0.774
  336SOL    MW4 1376   1.320   4.248   0.790
  337SOL     OW 1377   1.555   4.355   0.691
  337SOL    HW2 1378   1.636   4.308   0.715
  337SOL    HW3 1379   1.571   4.445   0.718
  337SOL    MW4 1380   1.568   4.360   0.698
  338SOL     OW 1381   1.789   0.149   0.754
  338SOL    HW2 1382   1.868   0.095   0.744
  338SOL    HW3 1383   1.718   0.086   0.762
  338SOL    MW4 1384   1.790   0.134   0.754
  339SOL     OW 1385   1.739   0.229   0.471
  339SOL    HW2 1386   1.690   0.151   0.445
  339SOL    HW3 1387   1.765   0.212   0.562
  339SOL    MW4 1388   1.736   0.217   0.480
  340SOL     OW 1389   1.803   0.391   0.853
  340SOL    HW2 1390   1.792   0.301   0.820
  340SOL    HW3 1391   1.885   0.421   0.815
  340SOL    MW4 1392   1.812   0.383   0.844
  341SOL     OW 1393   2.045   0.505   0.743
  341SOL    HW2 1394   2.084   0.524   0.657
  341SOL    HW3 1395   2.112   0.455   0.789
  341SOL    MW4 1396   2.059   0.501   0.738
  342SOL     OW 1397   2.010   0.763   0.823
  342SOL    HW2 1398   2.093   0.807   0.804
  342SOL    HW3 1399   2.027   0.671   0.807
  342SOL    MW4 1400   2.023   0.757   0.818
  343SOL     OW 1401   1.806   0.921   0.716
  343SOL    HW2 1402   1.814   0.999   0.770
  343SOL    HW3 1403   1.880   0.866   0.741
  343SOL    MW4 1404   1.816   0.924   0.726
  344SOL     OW 1405   1.810   1.154   0.854
  344SOL    HW2 1406   1.888   1.208   0.846
  344SOL    HW3 1407   1.739   1.206   0.816
  344SOL    MW4 1408   1.811   1.168   0.848
  345SOL     OW 1409   2.041   1.268   0.766
  345SOL    HW2 1410   2.127   1.226   0.768
  345SOL    HW3 1411   2.014   1.263   0.674
  345SOL    MW4 1412   2.049   1.262   0.754
  346SOL     OW 1413   2.014   1.525   0.880
  346SOL    HW2 1414   2.071   1.571   0.818
  346SOL    HW3 1415   2.019   1.433   0.853
  346SOL    MW4 1416   2.022   1.519   0.868
  347SOL     OW 1417   2.392   1.456   0.313
  347SOL    HW2 1418   2.394   1.447   0.218
  347SOL    HW3 1419   2.473   1.414   0.343
  347SOL    MW4 1420   2.403   1.449   0.305
  348SOL     OW 1421   1.731   1.903   0.909
  348SOL    HW2 1422   1.743   1.811   0.886
  348SOL    HW3 1423   1.653   1.931   0.861
  348SOL    MW4 1424   1.722   1.895   0.900
  349SOL     OW 1425   1.959   1.988   0.798
  349SOL    HW2 1426   1.963   2.080   0.824
  349SOL    HW3 1427   1.875   1.957   0.833
  349SOL    MW4 1428   1.948   1.996   0.806
  350SOL     OW 1429   1.996   2.267   0.892
  350SOL    HW2 1430   1.993   2.299   0.982
  350SOL    HW3 1431   1.917   2.303   0.851
  350SOL    MW4 1432   1.985   2.276   0.898
  351SOL     OW 1433   1.767   2.359   0.758
  351SOL    HW2 1434   1.681   2.335   0.794
  351SOL    HW3 1435   1.755   2.354   0.663
  351SOL    MW4 1436   1.754   2.355   0.751
  352SOL     OW 1437   1.783   2.642   0.816
  352SOL    HW2 1438   1.784   2.546   0.812
  352SOL    HW3 1439   1.691   2.664   0.825
  352SOL    MW4 1440   1.771   2.632   0.817
  353SOL     OW 1441   1.989   2.846   0.782
  353SOL    HW2 1442   2.066   2.791   0.796
  353SOL    HW3 1443   1.915   2.790   0.803
  353SOL    MW4 1444   1.989   2.832   0.787
  354SOL     OW 1445   2.011   3.120   0.846
  354SOL    HW2 1446   1.926   3.151   0.815
  354SOL    HW3 1447   2.010   3.026   0.829
  354SOL    MW4 1448   1.999   3.112   0.840
  355SOL     OW 1449   1.741   3.207   0.775
  355SOL    HW2 1450   1.663   3.154   0.787
  355SOL    HW3 1451   1.741   3.229   0.682
  355SOL    MW4 1452   1.731   3.203   0.765
  356SOL     OW 1453   1.770   3.476   0.858
  356SOL    HW2 1454   1.787   3.477   0.952
  356SOL    HW3 1455   1.770   3.383   0.835
  356SOL    MW4 1456   1.772   3.464   0.868
  357SOL     OW 1457   1.992   3.575   0.742
  357SOL    HW2 1458   1.991   3.668   0.762
  357SOL    HW3 1459   1.909   3.542   0.778
  357SOL    MW4 1460   1.981   3.583   0.749
  358SOL     OW 1461   2.023   3.856   0.809
  358SOL    HW2 1462   2.017   3.867   0.904
  358SOL    HW3 1463   1.951   3.908   0.774
  358SOL    MW4 1464   2.013   3.865   0.817
  359SOL     OW 1465   1.805   4.024   0.713
  359SOL    HW2 1466   1.728   3.992   0.761
  359SOL    HW3 1467   1.787   4.002   0.622
  359SOL    MW4 1468   1.792   4.017   0.708
  360SOL     OW 1469   1.809   4.280   0.830
  360SOL    HW2 1470   1.805   4.280   0.926
  360SOL    HW3 1471   1.811   4.187   0.807
  360SOL    MW4 1472   1.809   4.268   0.840
  361SOL     OW 1473   2.030   4.413   0.733
  361SOL    HW2 1474   1.952   4.368   0.764
  361SOL    HW3 1475   2.043   4.381   0.644
  361SOL    MW4 1476   2.021   4.403   0.725
  362SOL     OW 1477   2.423   0.003   0.864
  362SOL    HW2 1478   2.420   0.008   0.960
  362SOL    HW3 1479   2.514   0.022   0.843
  362SOL    MW4 1480   2.435   0.006   0.874
  363SOL     OW 1481   2.262   0.141   0.694
  363SOL    HW2 1482   2.314   0.097   0.761
  363SOL    HW3 1483   2.178   0.094   0.694
  363SOL    MW4 1484   2.258   0.129   0.703
  364SOL     OW 1485   2.247   0.355   0.856
  364SOL    HW2 1486   2.329   0.403   0.851
  364SOL    HW3 1487   2.256   0.285   0.792
  364SOL    MW4 1488   2.259   0.352   0.847
  365SOL     OW 1489   2.466   0.517   0.780
  365SOL    HW2 1490   2.449   0.494   0.689
  365SOL    HW3 1491   2.554   0.483   0.797
  365SOL    MW4 1492   2.476   0.510   0.770
  366SOL     OW 1493   2.427   0.784   0.870
  366SOL    HW2 1494   2.514   0.823   0.857
  366SOL    HW3 1495   2.440   0.691   0.852
  366SOL    MW4 1496   2.441   0.777   0.866
  367SOL     OW 1497   2.238   0.889   0.693
  367SOL    HW2 1498   2.306   0.839   0.738
  367SOL    HW3 1499   2.276   0.910   0.608
  367SOL    MW4 1500   2.252   0.885   0.688
  368SOL     OW 1501   2.281   1.141   0.807
  368SOL    HW2 1502   2.275   1.127   0.902
  368SOL    HW3 1503   2.280   1.053   0.770
  368SOL    MW4 1504   2.280   1.127   0.815
  369SOL     OW 1505   2.495   1.306   0.727
  369SOL    HW2 1506   2.413   1.267   0.758
  369SOL    HW3 1507   2.497   1.285   0.633
  369SOL    MW4 1508   2.485   1.298   0.719
  370SOL     OW 1509   2.460   1.568   0.868
  370SOL    HW2 1510   2.545   1.610   0.854
  370SOL    HW3 1511   2.455   1.500   0.802
  370SOL    MW4 1512   2.470   1.565   0.858
  371SOL     OW 1513   2.245   1.680   0.750
  371SOL    HW2 1514   2.319   1.639   0.794
  371SOL    HW3 1515   2.275   1.693   0.660
  371SOL    MW4 1516   2.259   1.677   0.744
  372SOL     OW 1517   2.213   1.909   0.880
  372SOL    HW2 1518   2.217   1.827   0.832
  372SOL    HW3 1519   2.124   1.941   0.865
  372SOL    MW4 1520   2.202   1.903   0.871
  373SOL     OW 1521   2.443   2.029   0.786
  373SOL    HW2 1522   2.360   1.998   0.823
  373SOL    HW3 1523   2.421   2.057   0.698
  373SOL    MW4 1524   2.429   2.029   0.779
  374SOL     OW 1525   2.435   2.284   0.877
  374SOL    HW2 1526   2.499   2.332   0.823
  374SOL    HW3 1527   2.444   2.193   0.849
  374SOL    MW4 1528   2.445   2.279   0.866
  375SOL     OW 1529   2.211   2.393   0.778
  375SOL    HW2 1530   2.287   2.353   0.820
  375SOL    HW3 1531   2.136   2.348   0.818
  375SOL    MW4 1532   2.211   2.382   0.789
  376SOL     OW 1533   2.229   2.691   0.849
  376SOL    HW2 1534   2.256   2.692   0.941
  376SOL    HW3 1535   2.238   2.600   0.822
  376SOL    MW4 1536   2.234   2.680   0.858
  377SOL     OW 1537   2.422   2.870   0.749
  377SOL    HW2 1538   2.502   2.831   0.785
  377SOL    HW3 1539   2.352   2.811   0.777
  377SOL    MW4 1540   2.424   2.857   0.758
  378SOL     OW 1541   2.459   3.121   0.821
  378SOL    HW2 1542   2.448   3.120   0.917
  378SOL    HW3 1543   2.451   3.029   0.795
  378SOL    MW4 1544   2.457   3.109   0.830
  379SOL     OW 1545   2.226   3.218   0.717
  379SOL    HW2 1546   2.158   3.183   0.774
  379SOL    HW3 1547   2.308   3.203   0.764
  379SOL    MW4 1548   2.228   3.211   0.730
  380SOL     OW 1549   2.194   3.456   0.849
  380SOL    HW2 1550   2.205   3.381   0.791
  380SOL    HW3 1551   2.109   3.493   0.825
  380SOL    MW4 1552   2.184   3.451   0.838
  381SOL     OW 1553   2.410   3.580   0.739
  381SOL    HW2 1554   2.480   3.527   0.776
  381SOL    HW3 1555   2.330   3.539   0.772
  381SOL    MW4 1556   2.408   3.567   0.748
  382SOL     OW 1557   2.430   3.839   0.840
  382SOL    HW2 1558   2.358   3.883   0.795
  382SOL    HW3 1559   2.433   3.751   0.801
  382SOL    MW4 1560   2.421   3.833   0.829
  383SOL     OW 1561   2.240   3.969   0.693
  383SOL    HW2 1562   2.167   3.931   0.743
  383SOL    HW3 1563   2.250   3.912   0.618
  383SOL    MW4 1564   2.232   3.957   0.690
  384SOL     OW 1565   2.217   4.257   0.853
  384SOL    HW2 1566   2.204   4.169   0.818
  384SOL    HW3 1567   2.146   4.309   0.816
  384SOL    MW4 1568   2.206   4.252   0.844
  385SOL     OW 1569   2.560   4.156   0.902
  385SOL    HW2 1570   2.616   4.209   0.958
  385SOL    HW3 1571   2.526   4.088   0.961
  385SOL    MW4 1572   2.563   4.154   0.918
  386SOL     OW 1573   2.950   4.652   0.849
  386SOL    HW2 1574   2.951   4.563   0.815
  386SOL    HW3 1575   2.880   4.696   0.800
  386SOL    MW4 1576   2.941   4.646   0.838
  387SOL     OW 1577   2.647   4.362   0.655
  387SOL    HW2 1578   2.561   4.392   0.683
  387SOL    HW3 1579   2.660   4.405   0.570
  387SOL    MW4 1580   2.637   4.372   0.647
  388SOL     OW 1581   2.690   0.369   0.823
  388SOL    HW2 1582   2.683   0.372   0.918
  388SOL    HW3 1583   2.773   0.413   0.803
  388SOL    MW4 1584   2.700   0.375   0.833
  389SOL     OW 1585   2.930   0.518   0.766
  389SOL    HW2 1586   3.013   0.475   0.789
  389SOL    HW3 1587   2.924   0.508   0.671
  389SOL    MW4 1588   2.940   0.511   0.756
  390SOL     OW 1589   2.875   0.778   0.861
  390SOL    HW2 1590   2.879   0.765   0.956
  390SOL    HW3 1591   2.892   0.691   0.825
  390SOL    MW4 1592   2.877   0.764   0.869
  391SOL     OW 1593   2.651   0.908   0.782
  391SOL    HW2 1594   2.733   0.866   0.807
  391SOL    HW3 1595   2.641   0.886   0.689
  391SOL    MW4 1596   2.660   0.899   0.773
  392SOL     OW 1597   2.696   1.158   0.870
  392SOL    HW2 1598   2.685   1.065   0.852
  392SOL    HW3 1599   2.619   1.199   0.831
  392SOL    MW4 1600   2.685   1.151   0.863
  393SOL     OW 1601   2.897   1.264   0.720
  393SOL    HW2 1602   2.969   1.214   0.757
  393SOL    HW3 1603   2.819   1.231   0.765
  393SOL    MW4 1604   2.896   1.253   0.731
  394SOL     OW 1605   2.911   1.515   0.827
  394SOL    HW2 1606   2.989   1.561   0.795
  394SOL    HW3 1607   2.917   1.428   0.788
  394SOL    MW4 1608   2.922   1.510   0.818
  395SOL     OW 1609   2.692   1.689   0.806
  395SOL    HW2 1610   2.717   1.773   0.845
  395SOL    HW3 1611   2.762   1.629   0.832
  395SOL    MW4 1612   2.705   1.692   0.814
  396SOL     OW 1613   2.697   1.954   0.864
  396SOL    HW2 1614   2.700   1.969   0.959
  396SOL    HW3 1615   2.609   1.982   0.838
  396SOL    MW4 1616   2.686   1.959   0.873
  397SOL     OW 1617   2.856   2.126   0.695
  397SOL    HW2 1618   2.861   2.206   0.749
  397SOL    HW3 1619   2.798   2.068   0.744
  397SOL    MW4 1620   2.849   2.129   0.709
  398SOL     OW 1621   2.904   2.371   0.846
  398SOL    HW2 1622   2.913   2.372   0.941
  398SOL    HW3 1623   2.813   2.397   0.830
  398SOL    MW4 1624   2.893   2.375   0.856
  399SOL     OW 1625   2.654   2.449   0.762
  399SOL    HW2 1626   2.626   2.462   0.672
  399SOL    HW3 1627   2.621   2.527   0.808
  399SOL    MW4 1628   2.646   2.461   0.756
  400SOL     OW 1629   2.617   2.716   0.849
  400SOL    HW2 1630   2.630   2.715   0.944
  400SOL    HW3 1631   2.701   2.746   0.814
  400SOL    MW4 1632   2.630   2.720   0.857
  401SOL     OW 1633   2.916   2.825   0.511
  401SOL    HW2 1634   2.918   2.733   0.486
  401SOL    HW3 1635   2.834   2.859   0.476
  401SOL    MW4 1636   2.906   2.818   0.503
  402SOL     OW 1637   2.930   3.077   0.837
  402SOL    HW2 1638   2.860   3.129   0.798
  402SOL    HW3 1639   2.903   2.986   0.825
  402SOL    MW4 1640   2.917   3.072   0.830
  403SOL     OW 1641   2.709   3.214   0.740
  403SOL    HW2 1642   2.700   3.298   0.784
  403SOL    HW3 1643   2.630   3.166   0.763
  403SOL    MW4 1644   2.698   3.218   0.749
  404SOL     OW 1645   2.649   3.468   0.835
  404SOL    HW2 1646   2.650   3.450   0.929
  404SOL    HW3 1647   2.734   3.506   0.817
  404SOL    MW4 1648   2.660   3.471   0.845
  405SOL     OW 1649   2.891   3.575   0.775
  405SOL    HW2 1650   2.897   3.665   0.806
  405SOL    HW3 1651   2.876   3.583   0.680
  405SOL    MW4 1652   2.890   3.588   0.766
  406SOL     OW 1653   2.921   3.839   0.817
  406SOL    HW2 1654   2.923   3.866   0.908
  406SOL    HW3 1655   2.829   3.853   0.790
  406SOL    MW4 1656   2.909   3.844   0.825
  407SOL     OW 1657   2.662   3.897   0.705
  407SOL    HW2 1658   2.586   3.857   0.748
  407SOL    HW3 1659   2.664   3.856   0.618
  407SOL    MW4 1660   2.652   3.886   0.699
  408SOL     OW 1661   2.850   4.158   0.803
  408SOL    HW2 1662   2.826   4.203   0.884
  408SOL    HW3 1663   2.944   4.143   0.810
  408SOL    MW4 1664   2.859   4.162   0.814
  409SOL     OW 1665   2.971   4.416   0.711
  409SOL    HW2 1666   3.034   4.363   0.759
  409SOL    HW3 1667   2.886   4.375   0.729
  409SOL    MW4 1668   2.968   4.404   0.720
  410SOL     OW 1669   3.395   4.616   0.823
  410SOL    HW2 1670   3.378   4.641   0.914
  410SOL    HW3 1671   3.324   4.656   0.773
  410SOL    MW4 1672   3.383   4.625   0.828
  411SOL     OW 1673   3.175   0.093   0.719
  411SOL    HW2 1674   3.175   0.184   0.750
  411SOL    HW3 1675   3.103   0.051   0.766
  411SOL    MW4 1676   3.165   0.100   0.729
  412SOL     OW 1677   3.158   0.358   0.837
  412SOL    HW2 1678   3.156   0.355   0.933
  412SOL    HW3 1679   3.244   0.395   0.816
  412SOL    MW4 1680   3.169   0.362   0.847
  413SOL     OW 1681   3.393   0.498   0.789
  413SOL    HW2 1682   3.479   0.458   0.805
  413SOL    HW3 1683   3.398   0.531   0.700
  413SOL    MW4 1684   3.405   0.497   0.780
  414SOL     OW 1685   3.384   0.765   0.848
  414SOL    HW2 1686   3.294   0.792   0.832
  414SOL    HW3 1687   3.383   0.670   0.838
  414SOL    MW4 1688   3.372   0.756   0.845
  415SOL     OW 1689   3.119   0.853   0.755
  415SOL    HW2 1690   3.113   0.947   0.774
  415SOL    HW3 1691   3.049   0.814   0.807
  415SOL    MW4 1692   3.109   0.860   0.765
  416SOL     OW 1693   3.126   1.123   0.807
  416SOL    HW2 1694   3.128   1.134   0.902
  416SOL    HW3 1695   3.200   1.174   0.775
  416SOL    MW4 1696   3.136   1.131   0.815
  417SOL     OW 1697   3.371   1.240   0.723
  417SOL    HW2 1698   3.454   1.212   0.760
  417SOL    HW3 1699   3.369   1.335   0.737
  417SOL    MW4 1700   3.382   1.249   0.730
  418SOL     OW 1701   3.378   1.539   0.816
  418SOL    HW2 1702   3.374   1.559   0.910
  418SOL    HW3 1703   3.436   1.606   0.780
  418SOL    MW4 1704   3.385   1.550   0.824
  419SOL     OW 1705   3.131   1.662   0.717
  419SOL    HW2 1706   3.196   1.599   0.748
  419SOL    HW3 1707   3.145   1.667   0.622
  419SOL    MW4 1708   3.141   1.654   0.708
  420SOL     OW 1709   3.201   1.905   0.814
  420SOL    HW2 1710   3.185   1.921   0.908
  420SOL    HW3 1711   3.155   1.824   0.795
  420SOL    MW4 1712   3.193   1.897   0.824
  421SOL     OW 1713   3.657   1.997   0.838
  421SOL    HW2 1714   3.593   2.068   0.836
  421SOL    HW3 1715   3.611   1.922   0.801
  421SOL    MW4 1716   3.643   1.996   0.833
  422SOL     OW 1717   3.476   2.223   0.847
  422SOL    HW2 1718   3.446   2.220   0.938
  422SOL    HW3 1719   3.542   2.292   0.845
  422SOL    MW4 1720   3.481   2.231   0.859
  423SOL     OW 1721   3.111   2.491   0.673
  423SOL    HW2 1722   3.180   2.425   0.680
  423SOL    HW3 1723   3.045   2.463   0.737
  423SOL    MW4 1724   3.111   2.478   0.682
  424SOL     OW 1725   3.147   2.717   0.822
  424SOL    HW2 1726   3.155   2.638   0.769
  424SOL    HW3 1727   3.209   2.778   0.783
  424SOL    MW4 1728   3.156   2.715   0.810
  425SOL     OW 1729   3.344   2.887   0.679
  425SOL    HW2 1730   3.294   2.899   0.598
  425SOL    HW3 1731   3.408   2.819   0.656
  425SOL    MW4 1732   3.346   2.879   0.665
  426SOL     OW 1733   3.394   3.118   0.824
  426SOL    HW2 1734   3.388   3.097   0.917
  426SOL    HW3 1735   3.376   3.035   0.780
  426SOL    MW4 1736   3.391   3.104   0.830
  427SOL     OW 1737   3.150   3.214   0.743
  427SOL    HW2 1738   3.236   3.187   0.776
  427SOL    HW3 1739   3.089   3.153   0.782
  427SOL    MW4 1740   3.154   3.203   0.753
  428SOL     OW 1741   3.143   3.454   0.860
  428SOL    HW2 1742   3.133   3.365   0.826
  428SOL    HW3 1743   3.068   3.502   0.825
  428SOL    MW4 1744   3.132   3.448   0.851
  429SOL     OW 1745   3.398   4.039   0.577
  429SOL    HW2 1746   3.443   4.021   0.660
  429SOL    HW3 1747   3.349   3.959   0.559
  429SOL    MW4 1748   3.398   4.026   0.586
  430SOL     OW 1749   3.497   3.971   0.829
  430SOL    HW2 1750   3.534   4.059   0.823
  430SOL    HW3 1751   3.471   3.961   0.920
  430SOL    MW4 1752   3.498   3.981   0.840
  431SOL     OW 1753   3.105   3.979   0.681
  431SOL    HW2 1754   3.185   3.928   0.694
  431SOL    HW3 1755   3.036   3.926   0.722
  431SOL    MW4 1756   3.106   3.965   0.688
  432SOL     OW 1757   3.150   4.223   0.832
  432SOL    HW2 1758   3.227   4.269   0.801
  432SOL    HW3 1759   3.147   4.142   0.782
  432SOL    MW4 1760   3.159   4.218   0.821
  433SOL     OW 1761   3.382   4.351   0.753
  433SOL    HW2 1762   3.381   4.440   0.788
  433SOL    HW3 1763   3.373   4.362   0.658
  433SOL    MW4 1764   3.381   4.364   0.745
  434SOL     OW 1765   3.829   4.642   0.836
  434SOL    HW2 1766   3.902   4.699   0.807
  434SOL    HW3 1767   3.753   4.677   0.790
  434SOL    MW4 1768   3.829   4.654   0.826
  435SOL     OW 1769   3.601   0.108   0.753
  435SOL    HW2 1770   3.533   0.052   0.790
  435SOL    HW3 1771   3.575   0.120   0.662
  435SOL    MW4 1772   3.589   0.102   0.746
  436SOL     OW 1773   3.640   0.376   0.869
  436SOL    HW2 1774   3.611   0.377   0.960
  436SOL    HW3 1775   3.623   0.287   0.839
  436SOL    MW4 1776   3.634   0.365   0.877
  437SOL     OW 1777   3.822   0.537   0.747
  437SOL    HW2 1778   3.816   0.618   0.797
  437SOL    HW3 1779   3.769   0.474   0.795
  437SOL    MW4 1780   3.814   0.539   0.760
  438SOL     OW 1781   3.834   0.778   0.914
  438SOL    HW2 1782   3.843   0.761   1.007
  438SOL    HW3 1783   3.916   0.820   0.888
  438SOL    MW4 1784   3.846   0.781   0.923
  439SOL     OW 1785   3.622   0.864   0.748
  439SOL    HW2 1786   3.688   0.826   0.805
  439SOL    HW3 1787   3.539   0.827   0.779
  439SOL    MW4 1788   3.620   0.854   0.760
  440SOL     OW 1789   3.629   1.156   0.817
  440SOL    HW2 1790   3.605   1.148   0.910
  440SOL    HW3 1791   3.638   1.065   0.787
  440SOL    MW4 1792   3.627   1.143   0.826
  441SOL     OW 1793   3.851   1.295   0.787
  441SOL    HW2 1794   3.765   1.256   0.802
  441SOL    HW3 1795   3.867   1.284   0.693
  441SOL    MW4 1796   3.842   1.288   0.777
  442SOL     OW 1797   3.823   1.574   0.811
  442SOL    HW2 1798   3.909   1.604   0.780
  442SOL    HW3 1799   3.831   1.478   0.814
  442SOL    MW4 1800   3.836   1.565   0.807
  443SOL     OW 1801   3.689   1.638   0.538
  443SOL    HW2 1802   3.597   1.615   0.522
  443SOL    HW3 1803   3.704   1.615   0.630
  443SOL    MW4 1804   3.679   1.632   0.548
  444SOL     OW 1805   3.886   2.041   0.694
  444SOL    HW2 1806   3.944   1.999   0.757
  444SOL    HW3 1807   3.802   2.050   0.741
  444SOL    MW4 1808   3.882   2.037   0.708
  445SOL     OW 1809   3.872   2.321   0.642
  445SOL    HW2 1810   3.810   2.344   0.712
  445SOL    HW3 1811   3.886   2.226   0.653
  445SOL    MW4 1812   3.866   2.311   0.653
  446SOL     OW 1813   3.774   1.904   0.476
  446SOL    HW2 1814   3.801   1.928   0.564
  446SOL    HW3 1815   3.765   1.808   0.478
  446SOL    MW4 1816   3.776   1.894   0.488
  447SOL     OW 1817   3.716   2.390   0.853
  447SOL    HW2 1818   3.691   2.483   0.857
  447SOL    HW3 1819   3.775   2.379   0.928
  447SOL    MW4 1820   3.721   2.401   0.864
  448SOL     OW 1821   3.634   2.656   0.835
  448SOL    HW2 1822   3.630   2.676   0.929
  448SOL    HW3 1823   3.699   2.717   0.800
  448SOL    MW4 1824   3.642   2.666   0.843
  449SOL     OW 1825   3.849   2.829   0.727
  449SOL    HW2 1826   3.830   2.918   0.756
  449SOL    HW3 1827   3.870   2.838   0.634
  449SOL    MW4 1828   3.849   2.842   0.718
  450SOL     OW 1829   3.837   3.090   0.837
  450SOL    HW2 1830   3.918   3.131   0.806
  450SOL    HW3 1831   3.768   3.153   0.814
  450SOL    MW4 1832   3.838   3.104   0.830
  451SOL     OW 1833   3.628   3.246   0.762
  451SOL    HW2 1834   3.555   3.197   0.800
  451SOL    HW3 1835   3.621   3.230   0.668
  451SOL    MW4 1836   3.618   3.237   0.755
  452SOL     OW 1837   3.613   3.535   0.818
  452SOL    HW2 1838   3.627   3.441   0.827
  452SOL    HW3 1839   3.527   3.543   0.776
  452SOL    MW4 1840   3.603   3.523   0.814
  453SOL     OW 1841   3.829   3.505   0.622
  453SOL    HW2 1842   3.755   3.520   0.681
  453SOL    HW3 1843   3.904   3.496   0.679
  453SOL    MW4 1844   3.829   3.506   0.637
  454SOL     OW 1845   3.687   3.788   0.866
  454SOL    HW2 1846   3.612   3.841   0.839
  454SOL    HW3 1847   3.669   3.701   0.831
  454SOL    MW4 1848   3.675   3.784   0.858
  455SOL     OW 1849   2.660   4.267   0.241
  455SOL    HW2 1850   2.666   4.350   0.287
  455SOL    HW3 1851   2.671   4.289   0.148
  455SOL    MW4 1852   2.662   4.281   0.235
  456SOL     OW 1853   3.613   4.226   0.844
  456SOL    HW2 1854   3.686   4.283   0.818
  456SOL    HW3 1855   3.535   4.274   0.817
  456SOL    MW4 1856   3.613   4.240   0.837
  457SOL     OW 1857   3.829   4.368   0.769
  457SOL    HW2 1858   3.906   4.320   0.799
  457SOL    HW3 1859   3.846   4.459   0.793
  457SOL    MW4 1860   3.841   4.374   0.776
  458SOL     OW 1861   4.248   4.657   0.799
  458SOL    HW2 1862   4.238   4.667   0.894
  458SOL    HW3 1863   4.184   4.718   0.762
  458SOL    MW4 1864   4.238   4.667   0.807
  459SOL     OW 1865   4.051   0.142   0.670
  459SOL    HW2 1866   4.040   0.233   0.695
  459SOL    HW3 1867   4.006   0.134   0.586
  459SOL    MW4 1868   4.044   0.153   0.662
  460SOL     OW 1869   4.047   0.394   0.804
  460SOL    HW2 1870   4.128   0.445   0.796
  460SOL    HW3 1871   3.977   0.455   0.780
  460SOL    MW4 1872   4.048   0.408   0.800
  461SOL     OW 1873   4.302   0.520   0.733
  461SOL    HW2 1874   4.387   0.484   0.755
  461SOL    HW3 1875   4.302   0.527   0.637
  461SOL    MW4 1876   4.313   0.516   0.723
  462SOL     OW 1877   4.288   0.761   0.846
  462SOL    HW2 1878   4.209   0.801   0.809
  462SOL    HW3 1879   4.287   0.672   0.812
  462SOL    MW4 1880   4.277   0.755   0.836
  463SOL     OW 1881   4.056   0.894   0.758
  463SOL    HW2 1882   4.056   0.984   0.790
  463SOL    HW3 1883   4.087   0.901   0.668
  463SOL    MW4 1884   4.060   0.907   0.750
  464SOL     OW 1885   4.070   1.136   0.864
  464SOL    HW2 1886   4.081   1.139   0.959
  464SOL    HW3 1887   3.994   1.191   0.847
  464SOL    MW4 1888   4.062   1.144   0.874
  465SOL     OW 1889   4.280   1.322   0.830
  465SOL    HW2 1890   4.216   1.253   0.848
  465SOL    HW3 1891   4.365   1.280   0.846
  465SOL    MW4 1892   4.283   1.307   0.835
  466SOL     OW 1893   4.236   1.583   0.905
  466SOL    HW2 1894   4.257   1.575   0.998
  466SOL    HW3 1895   4.250   1.495   0.869
  466SOL    MW4 1896   4.240   1.570   0.912
  467SOL     OW 1897   4.057   1.706   0.740
  467SOL    HW2 1898   4.119   1.659   0.796
  467SOL    HW3 1899   4.090   1.693   0.651
  467SOL    MW4 1900   4.069   1.698   0.736
  468SOL     OW 1901   4.101   1.962   0.859
  468SOL    HW2 1902   4.099   1.867   0.846
  468SOL    HW3 1903   4.177   1.992   0.810
  468SOL    MW4 1904   4.111   1.953   0.851
  469SOL     OW 1905   4.332   2.052   0.710
  469SOL    HW2 1906   4.416   2.022   0.746
  469SOL    HW3 1907   4.346   2.056   0.616
  469SOL    MW4 1908   4.345   2.048   0.702
  470SOL     OW 1909   4.295   2.335   0.862
  470SOL    HW2 1910   4.233   2.382   0.806
  470SOL    HW3 1911   4.310   2.252   0.816
  470SOL    MW4 1912   4.289   2.330   0.848
  471SOL     OW 1913   4.108   2.446   0.694
  471SOL    HW2 1914   4.089   2.524   0.746
  471SOL    HW3 1915   4.022   2.407   0.676
  471SOL    MW4 1916   4.094   2.451   0.699
  472SOL     OW 1917   4.058   2.698   0.822
  472SOL    HW2 1918   4.133   2.757   0.812
  472SOL    HW3 1919   3.983   2.748   0.791
  472SOL    MW4 1920   4.058   2.712   0.817
  473SOL     OW 1921   4.280   2.855   0.756
  473SOL    HW2 1922   4.357   2.803   0.778
  473SOL    HW3 1923   4.252   2.822   0.670
  473SOL    MW4 1924   4.286   2.844   0.748
  474SOL     OW 1925   4.281   3.137   0.801
  474SOL    HW2 1926   4.291   3.043   0.785
  474SOL    HW3 1927   4.360   3.176   0.764
  474SOL    MW4 1928   4.293   3.129   0.794
  475SOL     OW 1929   4.052   3.249   0.702
  475SOL    HW2 1930   4.054   3.337   0.740
  475SOL    HW3 1931   4.133   3.208   0.732
  475SOL    MW4 1932   4.063   3.255   0.711
  476SOL     OW 1933   4.059   3.512   0.806
  476SOL    HW2 1934   4.060   3.525   0.901
  476SOL    HW3 1935   4.148   3.533   0.778
  476SOL    MW4 1936   4.071   3.517   0.815
  477SOL     OW 1937   4.303   3.594   0.705
  477SOL    HW2 1938   4.293   3.685   0.735
  477SOL    HW3 1939   4.290   3.599   0.610
  477SOL    MW4 1940   4.300   3.607   0.696
  478SOL     OW 1941   4.227   3.846   0.805
  478SOL    HW2 1942   4.248   3.851   0.898
  478SOL    HW3 1943   4.132   3.841   0.802
  478SOL    MW4 1944   4.217   3.846   0.816
  479SOL     OW 1945   3.929   3.894   0.730
  479SOL    HW2 1946   3.841   3.873   0.760
  479SOL    HW3 1947   3.940   3.845   0.649
  479SOL    MW4 1948   3.919   3.885   0.724
  480SOL     OW 1949   4.011   4.161   0.828
  480SOL    HW2 1950   4.062   4.193   0.754
  480SOL    HW3 1951   3.971   4.080   0.797
  480SOL    MW4 1952   4.013   4.155   0.814
  481SOL     OW 1953   4.348   4.454   0.616
  481SOL    HW2 1954   4.314   4.522   0.673
  481SOL    HW3 1955   4.410   4.405   0.671
  481SOL    MW4 1956   4.352   4.456   0.630
  482SOL     OW 1957   0.200   4.649   1.088
  482SOL    HW2 1958   0.278   4.687   1.128
  482SOL    HW3 1959   0.215   4.658   0.993
  482SOL    MW4 1960   0.212   4.655   1.081
  483SOL     OW 1961   4.472   0.123   1.187
  483SOL    HW2 1962   4.386   0.088   1.161
  483SOL    HW3 1963   4.535   0.063   1.147
  483SOL    MW4 1964   4.469   0.110   1.178
  484SOL     OW 1965   0.029   0.375   1.054
  484SOL    HW2 1966  -0.027   0.440   1.097
  484SOL    HW3 1967   0.015   0.295   1.104
  484SOL    MW4 1968   0.020   0.373   1.066
  485SOL     OW 1969   0.232   0.518   1.211
  485SOL    HW2 1970   0.216   0.604   1.172
  485SOL    HW3 1971   0.168   0.461   1.168
  485SOL    MW4 1972   0.222   0.522   1.200
  486SOL     OW 1973   0.191   0.776   1.071
  486SOL    HW2 1974   0.267   0.802   1.122
  486SOL    HW3 1975   0.116   0.810   1.119
  486SOL    MW4 1976   0.191   0.784   1.084
  487SOL     OW 1977   4.466   0.884   1.225
  487SOL    HW2 1978   4.478   0.862   1.317
  487SOL    HW3 1979   4.388   0.837   1.198
  487SOL    MW4 1980   4.458   0.875   1.234
  488SOL     OW 1981   4.442   1.150   1.131
  488SOL    HW2 1982   4.376   1.196   1.184
  488SOL    HW3 1983   4.420   1.057   1.143
  488SOL    MW4 1984   4.430   1.144   1.140
  489SOL     OW 1985   0.197   1.244   1.243
  489SOL    HW2 1986   0.265   1.195   1.197
  489SOL    HW3 1987   0.115   1.205   1.213
  489SOL    MW4 1988   0.195   1.232   1.233
  490SOL     OW 1989   0.216   1.487   1.127
  490SOL    HW2 1990   0.210   1.404   1.173
  490SOL    HW3 1991   0.183   1.468   1.039
  490SOL    MW4 1992   0.211   1.473   1.121
  491SOL     OW 1993   0.009   1.652   1.249
  491SOL    HW2 1994   0.020   1.739   1.211
  491SOL    HW3 1995   0.088   1.605   1.224
  491SOL    MW4 1996   0.021   1.657   1.241
  492SOL     OW 1997   0.070   1.908   1.150
  492SOL    HW2 1998  -0.004   1.959   1.184
  492SOL    HW3 1999   0.050   1.896   1.057
  492SOL    MW4 2000   0.058   1.913   1.142
  493SOL     OW 2001   0.260   2.081   1.229
  493SOL    HW2 2002   0.235   2.165   1.190
  493SOL    HW3 2003   0.196   2.019   1.195
  493SOL    MW4 2004   0.248   2.084   1.219
  494SOL     OW 2005   0.214   2.336   1.135
  494SOL    HW2 2006   0.301   2.356   1.168
  494SOL    HW3 2007   0.156   2.395   1.182
  494SOL    MW4 2008   0.218   2.346   1.145
  495SOL     OW 2009   0.019   2.507   1.241
  495SOL    HW2 2010   0.030   2.471   1.329
  495SOL    HW3 2011  -0.064   2.469   1.210
  495SOL    MW4 2012   0.009   2.498   1.249
  496SOL     OW 2013   0.040   2.742   1.127
  496SOL    HW2 2014  -0.039   2.789   1.157
  496SOL    HW3 2015   0.029   2.653   1.160
  496SOL    MW4 2016   0.028   2.737   1.135
  497SOL     OW 2017   0.273   2.856   1.265
  497SOL    HW2 2018   0.255   2.870   1.358
  497SOL    HW3 2019   0.198   2.805   1.233
  497SOL    MW4 2020   0.260   2.851   1.273
  498SOL     OW 2021   0.214   3.101   1.142
  498SOL    HW2 2022   0.295   3.151   1.155
  498SOL    HW3 2023   0.233   3.014   1.177
  498SOL    MW4 2024   0.227   3.096   1.148
  499SOL     OW 2025   4.464   3.203   1.225
  499SOL    HW2 2026   4.408   3.176   1.152
  499SOL    HW3 2027   4.545   3.154   1.212
  499SOL    MW4 2028   4.467   3.193   1.214
  500SOL     OW 2029   4.489   3.453   1.105
  500SOL    HW2 2030   4.490   3.369   1.150
  500SOL    HW3 2031   4.472   3.431   1.013
  500SOL    MW4 2032   4.487   3.439   1.099
  501SOL     OW 2033   0.218   3.601   1.228
  501SOL    HW2 2034   0.237   3.580   1.319
  501SOL    HW3 2035   0.131   3.564   1.212
  501SOL    MW4 2036   0.209   3.593   1.238
  502SOL     OW 2037   0.232   3.878   1.154
  502SOL    HW2 2038   0.149   3.922   1.171
  502SOL    HW3 2039   0.226   3.795   1.202
  502SOL    MW4 2040   0.220   3.873   1.163
  503SOL     OW 2041   4.484   3.987   1.209
  503SOL    HW2 2042   4.475   3.991   1.304
  503SOL    HW3 2043   4.411   3.933   1.179
  503SOL    MW4 2044   4.473   3.981   1.217
  504SOL     OW 2045   4.463   4.267   1.111
  504SOL    HW2 2046   4.550   4.304   1.131
  504SOL    HW3 2047   4.464   4.180   1.151
  504SOL    MW4 2048   4.475   4.261   1.119
  505SOL     OW 2049   0.227   4.396   1.176
  505SOL    HW2 2050   0.242   4.405   1.271
  505SOL    HW3 2051   0.238   4.485   1.142
  505SOL    MW4 2052   0.231   4.409   1.184
  506SOL     OW 2053   0.649   0.004   1.094
  506SOL    HW2 2054   0.726   0.056   1.116
  506SOL    HW3 2055   0.661  -0.078   1.141
  506SOL    MW4 2056   0.660   0.000   1.103
  507SOL     OW 2057   0.412   0.122   1.190
  507SOL    HW2 2058   0.432   0.216   1.184
  507SOL    HW3 2059   0.488   0.079   1.151
  507SOL    MW4 2060   0.425   0.129   1.184
  508SOL     OW 2061   0.445   0.384   1.124
  508SOL    HW2 2062   0.373   0.445   1.142
  508SOL    HW3 2063   0.457   0.388   1.030
  508SOL    MW4 2064   0.437   0.392   1.114
  509SOL     OW 2065   0.663   0.520   1.208
  509SOL    HW2 2066   0.650   0.609   1.176
  509SOL    HW3 2067   0.589   0.471   1.173
  509SOL    MW4 2068   0.652   0.525   1.199
  510SOL     OW 2069   0.649   0.794   1.115
  510SOL    HW2 2070   0.560   0.814   1.145
  510SOL    HW3 2071   0.651   0.827   1.025
  510SOL    MW4 2072   0.637   0.801   1.107
  511SOL     OW 2073   0.408   0.875   1.224
  511SOL    HW2 2074   0.413   0.880   1.319
  511SOL    HW3 2075   0.418   0.966   1.195
  511SOL    MW4 2076   0.410   0.888   1.232
  512SOL     OW 2077   0.422   1.141   1.115
  512SOL    HW2 2078   0.511   1.168   1.140
  512SOL    HW3 2079   0.414   1.169   1.024
  512SOL    MW4 2080   0.433   1.148   1.106
  513SOL     OW 2081   0.675   1.243   1.180
  513SOL    HW2 2082   0.756   1.205   1.147
  513SOL    HW3 2083   0.677   1.334   1.152
  513SOL    MW4 2084   0.686   1.250   1.172
  514SOL     OW 2085   0.661   1.511   1.115
  514SOL    HW2 2086   0.730   1.564   1.155
  514SOL    HW3 2087   0.581   1.562   1.126
  514SOL    MW4 2088   0.660   1.525   1.122
  515SOL     OW 2089   0.428   1.639   1.169
  515SOL    HW2 2090   0.432   1.656   1.263
  515SOL    HW3 2091   0.349   1.585   1.159
  515SOL    MW4 2092   0.418   1.634   1.180
  516SOL     OW 2093   0.441   1.904   1.077
  516SOL    HW2 2094   0.427   1.809   1.080
  516SOL    HW3 2095   0.363   1.942   1.116
  516SOL    MW4 2096   0.429   1.896   1.083
  517SOL     OW 2097   0.640   2.024   1.220
  517SOL    HW2 2098   0.649   2.021   1.315
  517SOL    HW3 2099   0.560   1.976   1.201
  517SOL    MW4 2100   0.631   2.018   1.230
  518SOL     OW 2101   0.696   2.293   1.149
  518SOL    HW2 2102   0.613   2.329   1.180
  518SOL    HW3 2103   0.695   2.202   1.181
  518SOL    MW4 2104   0.685   2.286   1.158
  519SOL     OW 2105   0.451   2.426   1.225
  519SOL    HW2 2106   0.451   2.430   1.321
  519SOL    HW3 2107   0.446   2.517   1.197
  519SOL    MW4 2108   0.450   2.438   1.234
  520SOL     OW 2109   0.481   2.686   1.127
  520SOL    HW2 2110   0.424   2.745   1.177
  520SOL    HW3 2111   0.490   2.728   1.041
  520SOL    MW4 2112   0.475   2.700   1.122
  521SOL     OW 2113   0.686   2.830   1.230
  521SOL    HW2 2114   0.666   2.915   1.191
  521SOL    HW3 2115   0.615   2.773   1.202
  521SOL    MW4 2116   0.674   2.834   1.221
  522SOL     OW 2117   0.654   3.080   1.117
  522SOL    HW2 2118   0.727   3.132   1.149
  522SOL    HW3 2119   0.657   3.091   1.022
  522SOL    MW4 2120   0.664   3.088   1.109
  523SOL     OW 2121   0.452   3.240   1.231
  523SOL    HW2 2122   0.454   3.328   1.192
  523SOL    HW3 2123   0.526   3.195   1.191
  523SOL    MW4 2124   0.462   3.246   1.220
  524SOL     OW 2125   0.468   3.494   1.098
  524SOL    HW2 2126   0.537   3.545   1.140
  524SOL    HW3 2127   0.386   3.532   1.130
  524SOL    MW4 2128   0.466   3.506   1.108
  525SOL     OW 2129   0.682   3.600   1.260
  525SOL    HW2 2130   0.673   3.602   1.355
  525SOL    HW3 2131   0.684   3.693   1.234
  525SOL    MW4 2132   0.681   3.613   1.269
  526SOL     OW 2133   0.686   3.839   1.135
  526SOL    HW2 2134   0.615   3.901   1.153
  526SOL    HW3 2135   0.689   3.832   1.040
  526SOL    MW4 2136   0.677   3.846   1.125
  527SOL     OW 2137   0.478   4.014   1.219
  527SOL    HW2 2138   0.471   4.100   1.178
  527SOL    HW3 2139   0.403   3.965   1.187
  527SOL    MW4 2140   0.467   4.019   1.209
  528SOL     OW 2141   0.458   4.259   1.100
  528SOL    HW2 2142   0.524   4.323   1.124
  528SOL    HW3 2143   0.375   4.297   1.131
  528SOL    MW4 2144   0.456   4.273   1.108
  529SOL     OW 2145   0.645   4.418   1.230
  529SOL    HW2 2146   0.628   4.394   1.321
  529SOL    HW3 2147   0.724   4.369   1.206
  529SOL    MW4 2148   0.653   4.408   1.239
  530SOL     OW 2149   1.109   4.647   1.138
  530SOL    HW2 2150   1.121   4.559   1.172
  530SOL    HW3 2151   1.102   4.636   1.044
  530SOL    MW4 2152   1.110   4.634   1.130
  531SOL     OW 2153   0.881   0.131   1.186
  531SOL    HW2 2154   0.876   0.126   1.281
  531SOL    HW3 2155   0.956   0.077   1.163
  531SOL    MW4 2156   0.890   0.123   1.196
  532SOL     OW 2157   0.900   0.396   1.088
  532SOL    HW2 2158   0.895   0.302   1.104
  532SOL    HW3 2159   0.824   0.432   1.135
  532SOL    MW4 2160   0.889   0.388   1.097
  533SOL     OW 2161   1.134   0.496   1.185
  533SOL    HW2 2162   1.122   0.498   1.280
  533SOL    HW3 2163   1.057   0.449   1.153
  533SOL    MW4 2164   1.122   0.490   1.194
  534SOL     OW 2165   1.135   0.771   1.148
  534SOL    HW2 2166   1.046   0.806   1.157
  534SOL    HW3 2167   1.125   0.676   1.159
  534SOL    MW4 2168   1.122   0.763   1.151
  535SOL     OW 2169   0.915   0.923   1.190
  535SOL    HW2 2170   0.910   1.013   1.159
  535SOL    HW3 2171   0.831   0.884   1.164
  535SOL    MW4 2172   0.903   0.930   1.183
  536SOL     OW 2173   0.902   1.174   1.063
  536SOL    HW2 2174   0.973   1.237   1.076
  536SOL    HW3 2175   0.911   1.146   0.972
  536SOL    MW4 2176   0.913   1.178   1.053
  537SOL     OW 2177   1.134   1.293   1.186
  537SOL    HW2 2178   1.119   1.286   1.280
  537SOL    HW3 2179   1.201   1.228   1.167
  537SOL    MW4 2180   1.141   1.284   1.196
  538SOL     OW 2181   1.139   1.548   1.112
  538SOL    HW2 2182   1.140   1.454   1.129
  538SOL    HW3 2183   1.127   1.555   1.017
  538SOL    MW4 2184   1.138   1.537   1.102
  539SOL     OW 2185   0.904   1.616   1.256
  539SOL    HW2 2186   0.911   1.710   1.235
  539SOL    HW3 2187   0.985   1.578   1.222
  539SOL    MW4 2188   0.916   1.624   1.249
  540SOL     OW 2189   0.902   1.883   1.166
  540SOL    HW2 2190   0.984   1.914   1.204
  540SOL    HW3 2191   0.834   1.929   1.214
  540SOL    MW4 2192   0.904   1.893   1.177
  541SOL     OW 2193   1.143   2.014   1.281
  541SOL    HW2 2194   1.128   2.009   1.376
  541SOL    HW3 2195   1.144   2.107   1.261
  541SOL    MW4 2196   1.141   2.025   1.291
  542SOL     OW 2197   1.137   2.278   1.171
  542SOL    HW2 2198   1.217   2.331   1.179
  542SOL    HW3 2199   1.066   2.338   1.197
  542SOL    MW4 2200   1.138   2.293   1.176
  543SOL     OW 2201   0.925   2.467   1.219
  543SOL    HW2 2202   0.926   2.464   1.315
  543SOL    HW3 2203   0.849   2.415   1.195
  543SOL    MW4 2204   0.915   2.460   1.229
  544SOL     OW 2205   0.877   2.704   1.080
  544SOL    HW2 2206   0.898   2.629   1.135
  544SOL    HW3 2207   0.811   2.753   1.129
  544SOL    MW4 2208   0.871   2.701   1.094
  545SOL     OW 2209   1.127   2.829   1.192
  545SOL    HW2 2210   1.114   2.827   1.286
  545SOL    HW3 2211   1.057   2.773   1.157
  545SOL    MW4 2212   1.116   2.821   1.199
  546SOL     OW 2213   1.110   3.100   1.115
  546SOL    HW2 2214   1.130   3.009   1.135
  546SOL    HW3 2215   1.130   3.110   1.022
  546SOL    MW4 2216   1.115   3.089   1.105
  547SOL     OW 2217   0.877   3.218   1.221
  547SOL    HW2 2218   0.883   3.312   1.201
  547SOL    HW3 2219   0.959   3.181   1.187
  547SOL    MW4 2220   0.889   3.226   1.214
  548SOL     OW 2221   0.910   3.495   1.154
  548SOL    HW2 2222   0.832   3.535   1.193
  548SOL    HW3 2223   0.899   3.507   1.060
  548SOL    MW4 2224   0.898   3.502   1.147
  549SOL     OW 2225   1.147   3.611   1.277
  549SOL    HW2 2226   1.216   3.554   1.244
  549SOL    HW3 2227   1.066   3.565   1.257
  549SOL    MW4 2228   1.146   3.598   1.270
  550SOL     OW 2229   1.149   3.874   1.139
  550SOL    HW2 2230   1.081   3.931   1.175
  550SOL    HW3 2231   1.140   3.792   1.187
  550SOL    MW4 2232   1.138   3.871   1.150
  551SOL     OW 2233   0.905   3.996   1.234
  551SOL    HW2 2234   0.907   3.997   1.330
  551SOL    HW3 2235   0.828   3.944   1.213
  551SOL    MW4 2236   0.895   3.990   1.244
  552SOL     OW 2237   0.864   4.262   1.165
  552SOL    HW2 2238   0.870   4.167   1.177
  552SOL    HW3 2239   0.902   4.277   1.078
  552SOL    MW4 2240   0.869   4.251   1.155
  553SOL     OW 2241   1.129   4.389   1.237
  553SOL    HW2 2242   1.132   4.396   1.333
  553SOL    HW3 2243   1.045   4.348   1.219
  553SOL    MW4 2244   1.118   4.385   1.248
  554SOL     OW 2245   1.583   4.619   1.084
  554SOL    HW2 2246   1.661   4.670   1.106
  554SOL    HW3 2247   1.598   4.534   1.125
  554SOL    MW4 2248   1.595   4.615   1.092
  555SOL     OW 2249   1.367   0.105   1.196
  555SOL    HW2 2250   1.434   0.048   1.159
  555SOL    HW3 2251   1.285   0.060   1.176
  555SOL    MW4 2252   1.365   0.091   1.188
  556SOL     OW 2253   1.363   0.371   1.109
  556SOL    HW2 2254   1.359   0.276   1.125
  556SOL    HW3 2255   1.281   0.404   1.145
  556SOL    MW4 2256   1.352   0.363   1.116
  557SOL     OW 2257   1.580   0.493   1.245
  557SOL    HW2 2258   1.592   0.578   1.202
  557SOL    HW3 2259   1.498   0.459   1.209
  557SOL    MW4 2260   1.571   0.500   1.234
  558SOL     OW 2261   1.598   0.729   1.076
  558SOL    HW2 2262   1.656   0.788   1.124
  558SOL    HW3 2263   1.602   0.760   0.985
  558SOL    MW4 2264   1.606   0.741   1.070
  559SOL     OW 2265   1.398   0.857   1.240
  559SOL    HW2 2266   1.465   0.816   1.186
  559SOL    HW3 2267   1.316   0.818   1.210
  559SOL    MW4 2268   1.396   0.846   1.228
  560SOL     OW 2269   1.352   1.114   1.140
  560SOL    HW2 2270   1.359   1.023   1.169
  560SOL    HW3 2271   1.364   1.110   1.045
  560SOL    MW4 2272   1.355   1.101   1.131
  561SOL     OW 2273   1.581   1.301   1.228
  561SOL    HW2 2274   1.657   1.252   1.195
  561SOL    HW3 2275   1.506   1.243   1.209
  561SOL    MW4 2276   1.581   1.287   1.221
  562SOL     OW 2277   1.601   1.546   1.099
  562SOL    HW2 2278   1.664   1.592   1.154
  562SOL    HW3 2279   1.596   1.458   1.137
  562SOL    MW4 2280   1.608   1.540   1.112
  563SOL     OW 2281   1.373   1.672   1.173
  563SOL    HW2 2282   1.444   1.614   1.144
  563SOL    HW3 2283   1.293   1.624   1.151
  563SOL    MW4 2284   1.372   1.658   1.166
  564SOL     OW 2285   1.367   1.941   1.162
  564SOL    HW2 2286   1.385   1.847   1.164
  564SOL    HW3 2287   1.284   1.951   1.208
  564SOL    MW4 2288   1.359   1.930   1.168
  565SOL     OW 2289   1.564   2.108   1.264
  565SOL    HW2 2290   1.572   2.182   1.204
  565SOL    HW3 2291   1.507   2.046   1.218
  565SOL    MW4 2292   1.557   2.110   1.250
  566SOL     OW 2293   1.575   2.341   1.126
  566SOL    HW2 2294   1.494   2.383   1.157
  566SOL    HW3 2295   1.559   2.325   1.033
  566SOL    MW4 2296   1.562   2.345   1.118
  567SOL     OW 2297   1.349   2.453   1.231
  567SOL    HW2 2298   1.348   2.468   1.326
  567SOL    HW3 2299   1.345   2.541   1.193
  567SOL    MW4 2300   1.348   2.467   1.239
  568SOL     OW 2301   1.377   2.705   1.142
  568SOL    HW2 2302   1.452   2.760   1.164
  568SOL    HW3 2303   1.301   2.755   1.172
  568SOL    MW4 2304   1.377   2.718   1.149
  569SOL     OW 2305   1.606   2.836   1.237
  569SOL    HW2 2306   1.679   2.802   1.185
  569SOL    HW3 2307   1.596   2.926   1.206
  569SOL    MW4 2308   1.615   2.843   1.226
  570SOL     OW 2309   1.548   3.077   1.105
  570SOL    HW2 2310   1.619   3.135   1.132
  570SOL    HW3 2311   1.468   3.122   1.132
  570SOL    MW4 2312   1.547   3.091   1.112
  571SOL     OW 2313   1.340   3.214   1.210
  571SOL    HW2 2314   1.347   3.204   1.305
  571SOL    HW3 2315   1.253   3.182   1.188
  571SOL    MW4 2316   1.330   3.209   1.219
  572SOL     OW 2317   1.364   3.477   1.160
  572SOL    HW2 2318   1.369   3.387   1.191
  572SOL    HW3 2319   1.354   3.469   1.065
  572SOL    MW4 2320   1.364   3.464   1.151
  573SOL     OW 2321   1.582   3.631   1.252
  573SOL    HW2 2322   1.565   3.719   1.216
  573SOL    HW3 2323   1.502   3.582   1.232
  573SOL    MW4 2324   1.569   3.636   1.245
  574SOL     OW 2325   1.594   3.896   1.126
  574SOL    HW2 2326   1.512   3.937   1.154
  574SOL    HW3 2327   1.598   3.912   1.032
  574SOL    MW4 2328   1.584   3.903   1.117
  575SOL     OW 2329   1.375   4.033   1.189
  575SOL    HW2 2330   1.390   4.106   1.131
  575SOL    HW3 2331   1.302   3.985   1.149
  575SOL    MW4 2332   1.367   4.036   1.176
  576SOL     OW 2333   1.343   4.280   1.079
  576SOL    HW2 2334   1.269   4.315   1.129
  576SOL    HW3 2335   1.321   4.296   0.988
  576SOL    MW4 2336   1.331   4.287   1.074
  577SOL     OW 2337   1.583   4.369   1.194
  577SOL    HW2 2338   1.566   4.345   1.285
  577SOL    HW3 2339   1.502   4.346   1.148
  577SOL    MW4 2340   1.570   4.363   1.200
  578SOL     OW 2341   2.045   0.019   1.087
  578SOL    HW2 2342   2.040  -0.073   1.115
  578SOL    HW3 2343   2.083   0.015   0.999
  578SOL    MW4 2344   2.050   0.006   1.079
  579SOL     OW 2345   1.799   0.101   1.186
  579SOL    HW2 2346   1.803   0.196   1.172
  579SOL    HW3 2347   1.882   0.068   1.152
  579SOL    MW4 2348   1.810   0.109   1.180
  580SOL     OW 2349   1.828   0.384   1.140
  580SOL    HW2 2350   1.744   0.409   1.179
  580SOL    HW3 2351   1.813   0.391   1.045
  580SOL    MW4 2352   1.815   0.388   1.132
  581SOL     OW 2353   2.040   0.537   1.241
  581SOL    HW2 2354   2.035   0.523   1.336
  581SOL    HW3 2355   1.972   0.480   1.205
  581SOL    MW4 2356   2.030   0.528   1.249
  582SOL     OW 2357   2.007   0.786   1.115
  582SOL    HW2 2358   2.026   0.700   1.152
  582SOL    HW3 2359   1.999   0.770   1.020
  582SOL    MW4 2360   2.008   0.772   1.107
  583SOL     OW 2361   1.776   0.892   1.209
  583SOL    HW2 2362   1.791   0.893   1.304
  583SOL    HW3 2363   1.854   0.851   1.173
  583SOL    MW4 2364   1.788   0.887   1.217
  584SOL     OW 2365   1.806   1.161   1.132
  584SOL    HW2 2366   1.798   1.071   1.163
  584SOL    HW3 2367   1.805   1.153   1.036
  584SOL    MW4 2368   1.804   1.148   1.123
  585SOL     OW 2369   2.042   1.258   1.198
  585SOL    HW2 2370   2.112   1.216   1.148
  585SOL    HW3 2371   1.961   1.217   1.166
  585SOL    MW4 2372   2.040   1.247   1.187
  586SOL     OW 2373   2.037   1.557   1.157
  586SOL    HW2 2374   2.026   1.468   1.192
  586SOL    HW3 2375   2.039   1.545   1.062
  586SOL    MW4 2376   2.036   1.544   1.149
  587SOL     OW 2377   1.802   1.673   1.263
  587SOL    HW2 2378   1.800   1.761   1.225
  587SOL    HW3 2379   1.893   1.645   1.252
  587SOL    MW4 2380   1.814   1.681   1.257
  588SOL     OW 2381   1.794   1.940   1.186
  588SOL    HW2 2382   1.724   1.995   1.221
  588SOL    HW3 2383   1.774   1.934   1.092
  588SOL    MW4 2384   1.782   1.946   1.178
  589SOL     OW 2385   2.006   2.089   1.279
  589SOL    HW2 2386   2.003   2.087   1.375
  589SOL    HW3 2387   1.925   2.046   1.252
  589SOL    MW4 2388   1.995   2.083   1.288
  590SOL     OW 2389   2.006   2.330   1.171
  590SOL    HW2 2390   2.091   2.373   1.179
  590SOL    HW3 2391   2.014   2.251   1.224
  590SOL    MW4 2392   2.018   2.325   1.179
  591SOL     OW 2393   1.799   2.477   1.265
  591SOL    HW2 2394   1.871   2.423   1.233
  591SOL    HW3 2395   1.720   2.435   1.232
  591SOL    MW4 2396   1.798   2.464   1.257
  592SOL     OW 2397   1.803   2.711   1.102
  592SOL    HW2 2398   1.798   2.630   1.153
  592SOL    HW3 2399   1.781   2.684   1.012
  592SOL    MW4 2400   1.800   2.697   1.097
  593SOL     OW 2401   2.030   2.824   1.197
  593SOL    HW2 2402   2.021   2.912   1.159
  593SOL    HW3 2403   1.955   2.775   1.162
  593SOL    MW4 2404   2.019   2.829   1.187
  594SOL     OW 2405   1.969   3.085   1.118
  594SOL    HW2 2406   1.898   3.141   1.150
  594SOL    HW3 2407   1.968   3.097   1.023
  594SOL    MW4 2408   1.959   3.094   1.110
  595SOL     OW 2409   1.745   3.225   1.217
  595SOL    HW2 2410   1.774   3.207   1.307
  595SOL    HW3 2411   1.763   3.318   1.205
  595SOL    MW4 2412   1.751   3.235   1.228
  596SOL     OW 2413   1.809   3.501   1.151
  596SOL    HW2 2414   1.878   3.560   1.180
  596SOL    HW3 2415   1.728   3.546   1.176
  596SOL    MW4 2416   1.807   3.515   1.158
  597SOL     OW 2417   2.048   3.635   1.229
  597SOL    HW2 2418   2.041   3.631   1.324
  597SOL    HW3 2419   2.113   3.567   1.207
  597SOL    MW4 2420   2.056   3.625   1.239
  598SOL     OW 2421   2.030   3.862   1.079
  598SOL    HW2 2422   1.960   3.910   1.123
  598SOL    HW3 2423   2.033   3.778   1.124
  598SOL    MW4 2424   2.021   3.857   1.091
  599SOL     OW 2425   1.829   4.011   1.214
  599SOL    HW2 2426   1.833   4.001   1.309
  599SOL    HW3 2427   1.741   3.982   1.190
  599SOL    MW4 2428   1.818   4.006   1.223
  600SOL     OW 2429   1.833   4.267   1.107
  600SOL    HW2 2430   1.859   4.180   1.138
  600SOL    HW3 2431   1.756   4.289   1.161
  600SOL    MW4 2432   1.826   4.259   1.118
  601SOL     OW 2433   2.028   4.423   1.190
  601SOL    HW2 2434   2.034   4.413   1.285
  601SOL    HW3 2435   1.949   4.376   1.166
  601SOL    MW4 2436   2.019   4.416   1.200
  602SOL     OW 2437   2.481   4.662   1.146
  602SOL    HW2 2438   2.560   4.704   1.181
  602SOL    HW3 2439   2.410   4.717   1.179
  602SOL    MW4 2440   2.482   4.675   1.155
  603SOL     OW 2441   2.263   0.137   1.222
  603SOL    HW2 2442   2.260   0.228   1.193
  603SOL    HW3 2443   2.179   0.101   1.195
  603SOL    MW4 2444   2.251   0.144   1.215
  604SOL     OW 2445   2.247   0.399   1.142
  604SOL    HW2 2446   2.168   0.440   1.175
  604SOL    HW3 2447   2.229   0.382   1.049
  604SOL    MW4 2448   2.234   0.402   1.134
  605SOL     OW 2449   2.479   0.530   1.207
  605SOL    HW2 2450   2.484   0.512   1.301
  605SOL    HW3 2451   2.395   0.492   1.181
  605SOL    MW4 2452   2.468   0.523   1.216
  606SOL     OW 2453   2.402   0.792   1.141
  606SOL    HW2 2454   2.421   0.700   1.161
  606SOL    HW3 2455   2.417   0.799   1.046
  606SOL    MW4 2456   2.407   0.781   1.131
  607SOL     OW 2457   2.201   0.914   1.276
  607SOL    HW2 2458   2.263   0.872   1.216
  607SOL    HW3 2459   2.117   0.871   1.258
  607SOL    MW4 2460   2.198   0.903   1.265
  608SOL     OW 2461   2.243   1.105   1.080
  608SOL    HW2 2462   2.318   1.148   1.121
  608SOL    HW3 2463   2.221   1.033   1.138
  608SOL    MW4 2464   2.250   1.101   1.093
  609SOL     OW 2465   2.433   1.254   1.214
  609SOL    HW2 2466   2.523   1.222   1.206
  609SOL    HW3 2467   2.438   1.347   1.189
  609SOL    MW4 2468   2.446   1.262   1.209
  610SOL     OW 2469   2.465   1.519   1.158
  610SOL    HW2 2470   2.399   1.579   1.194
  610SOL    HW3 2471   2.461   1.532   1.063
  610SOL    MW4 2472   2.456   1.528   1.150
  611SOL     OW 2473   2.257   1.681   1.242
  611SOL    HW2 2474   2.257   1.771   1.209
  611SOL    HW3 2475   2.170   1.648   1.220
  611SOL    MW4 2476   2.246   1.689   1.234
  612SOL     OW 2477   2.236   1.951   1.162
  612SOL    HW2 2478   2.154   1.988   1.194
  612SOL    HW3 2479   2.226   1.949   1.067
  612SOL    MW4 2480   2.224   1.956   1.154
  613SOL     OW 2481   2.460   2.073   1.249
  613SOL    HW2 2482   2.535   2.026   1.211
  613SOL    HW3 2483   2.384   2.027   1.214
  613SOL    MW4 2484   2.460   2.060   1.240
  614SOL     OW 2485   2.520   2.336   1.132
  614SOL    HW2 2486   2.519   2.243   1.157
  614SOL    HW3 2487   2.492   2.337   1.041
  614SOL    MW4 2488   2.516   2.324   1.123
  615SOL     OW 2489   2.244   2.442   1.222
  615SOL    HW2 2490   2.241   2.432   1.317
  615SOL    HW3 2491   2.323   2.395   1.196
  615SOL    MW4 2492   2.254   2.434   1.231
  616SOL     OW 2493   2.276   2.690   1.122
  616SOL    HW2 2494   2.257   2.601   1.154
  616SOL    HW3 2495   2.210   2.745   1.165
  616SOL    MW4 2496   2.264   2.685   1.132
  617SOL     OW 2497   2.481   2.851   1.255
  617SOL    HW2 2498   2.465   2.843   1.349
  617SOL    HW3 2499   2.433   2.778   1.215
  617SOL    MW4 2500   2.472   2.841   1.262
  618SOL     OW 2501   2.463   3.094   1.099
  618SOL    HW2 2502   2.380   3.129   1.134
  618SOL    HW3 2503   2.484   3.021   1.157
  618SOL    MW4 2504   2.455   3.089   1.111
  619SOL     OW 2505   2.231   3.195   1.209
  619SOL    HW2 2506   2.225   3.289   1.191
  619SOL    HW3 2507   2.155   3.157   1.165
  619SOL    MW4 2508   2.220   3.203   1.201
  620SOL     OW 2509   2.244   3.463   1.117
  620SOL    HW2 2510   2.324   3.515   1.116
  620SOL    HW3 2511   2.229   3.440   1.026
  620SOL    MW4 2512   2.252   3.467   1.105
  621SOL     OW 2513   2.483   3.625   1.175
  621SOL    HW2 2514   2.475   3.607   1.269
  621SOL    HW3 2515   2.507   3.717   1.171
  621SOL    MW4 2516   2.485   3.635   1.187
  622SOL     OW 2517   2.508   3.887   1.096
  622SOL    HW2 2518   2.430   3.907   1.146
  622SOL    HW3 2519   2.475   3.852   1.013
  622SOL    MW4 2520   2.494   3.885   1.091
  623SOL     OW 2521   2.240   3.993   1.226
  623SOL    HW2 2522   2.240   4.085   1.200
  623SOL    HW3 2523   2.160   3.956   1.188
  623SOL    MW4 2524   2.230   4.000   1.218
  624SOL     OW 2525   2.259   4.261   1.126
  624SOL    HW2 2526   2.186   4.319   1.150
  624SOL    HW3 2527   2.253   4.254   1.030
  624SOL    MW4 2528   2.249   4.268   1.116
  625SOL     OW 2529   2.491   4.385   1.187
  625SOL    HW2 2530   2.404   4.345   1.190
  625SOL    HW3 2531   2.474   4.478   1.170
  625SOL    MW4 2532   2.477   4.392   1.185
  626SOL     OW 2533   2.878   4.629   1.116
  626SOL    HW2 2534   2.911   4.540   1.134
  626SOL    HW3 2535   2.911   4.649   1.029
  626SOL    MW4 2536   2.887   4.620   1.107
  627SOL     OW 2537   2.695   0.136   1.255
  627SOL    HW2 2538   2.697   0.111   1.347
  627SOL    HW3 2539   2.766   0.084   1.216
  627SOL    MW4 2540   2.705   0.126   1.262
  628SOL     OW 2541   2.683   0.378   1.114
  628SOL    HW2 2542   2.684   0.299   1.168
  628SOL    HW3 2543   2.614   0.432   1.151
  628SOL    MW4 2544   2.674   0.374   1.126
  629SOL     OW 2545   2.940   0.487   1.196
  629SOL    HW2 2546   2.934   0.579   1.170
  629SOL    HW3 2547   2.859   0.448   1.165
  629SOL    MW4 2548   2.929   0.494   1.189
  630SOL     OW 2549   2.885   0.752   1.132
  630SOL    HW2 2550   2.954   0.802   1.175
  630SOL    HW3 2551   2.804   0.799   1.152
  630SOL    MW4 2552   2.884   0.765   1.141
  631SOL     OW 2553   2.656   0.889   1.215
  631SOL    HW2 2554   2.675   0.978   1.186
  631SOL    HW3 2555   2.563   0.876   1.194
  631SOL    MW4 2556   2.646   0.899   1.209
  632SOL     OW 2557   2.689   1.159   1.146
  632SOL    HW2 2558   2.773   1.197   1.171
  632SOL    HW3 2559   2.687   1.168   1.050
  632SOL    MW4 2560   2.700   1.165   1.136
  633SOL     OW 2561   2.939   1.290   1.200
  633SOL    HW2 2562   2.938   1.320   1.291
  633SOL    HW3 2563   2.923   1.369   1.149
  633SOL    MW4 2564   2.937   1.305   1.206
  634SOL     OW 2565   2.894   1.550   1.097
  634SOL    HW2 2566   2.977   1.594   1.118
  634SOL    HW3 2567   2.905   1.522   1.006
  634SOL    MW4 2568   2.907   1.552   1.087
  635SOL     OW 2569   2.692   1.695   1.214
  635SOL    HW2 2570   2.773   1.650   1.189
  635SOL    HW3 2571   2.623   1.630   1.200
  635SOL    MW4 2572   2.693   1.681   1.209
  636SOL     OW 2573   2.689   1.956   1.136
  636SOL    HW2 2574   2.769   1.990   1.176
  636SOL    HW3 2575   2.688   1.863   1.159
  636SOL    MW4 2576   2.700   1.948   1.144
  637SOL     OW 2577   2.953   2.090   1.217
  637SOL    HW2 2578   2.963   2.092   1.312
  637SOL    HW3 2579   2.964   2.180   1.189
  637SOL    MW4 2580   2.956   2.102   1.226
  638SOL     OW 2581   2.944   2.369   1.116
  638SOL    HW2 2582   3.014   2.417   1.160
  638SOL    HW3 2583   2.864   2.395   1.162
  638SOL    MW4 2584   2.942   2.379   1.128
  639SOL     OW 2585   2.728   2.479   1.236
  639SOL    HW2 2586   2.729   2.459   1.329
  639SOL    HW3 2587   2.656   2.428   1.200
  639SOL    MW4 2588   2.719   2.470   1.243
  640SOL     OW 2589   2.702   2.737   1.112
  640SOL    HW2 2590   2.716   2.658   1.164
  640SOL    HW3 2591   2.639   2.788   1.163
  640SOL    MW4 2592   2.695   2.733   1.126
  641SOL     OW 2593   2.948   2.818   1.201
  641SOL    HW2 2594   2.925   2.839   1.292
  641SOL    HW3 2595   2.866   2.784   1.164
  641SOL    MW4 2596   2.934   2.816   1.208
  642SOL     OW 2597   2.907   3.103   1.107
  642SOL    HW2 2598   2.922   3.013   1.137
  642SOL    HW3 2599   2.914   3.098   1.012
  642SOL    MW4 2600   2.910   3.090   1.099
  643SOL     OW 2601   2.674   3.221   1.237
  643SOL    HW2 2602   2.757   3.185   1.206
  643SOL    HW3 2603   2.608   3.182   1.180
  643SOL    MW4 2604   2.676   3.211   1.226
  644SOL     OW 2605   2.713   3.467   1.099
  644SOL    HW2 2606   2.710   3.392   1.158
  644SOL    HW3 2607   2.634   3.517   1.118
  644SOL    MW4 2608   2.702   3.464   1.109
  645SOL     OW 2609   2.904   3.644   1.205
  645SOL    HW2 2610   2.984   3.597   1.181
  645SOL    HW3 2611   2.833   3.586   1.177
  645SOL    MW4 2612   2.906   3.630   1.198
  646SOL     OW 2613   2.918   3.903   1.097
  646SOL    HW2 2614   3.001   3.934   1.133
  646SOL    HW3 2615   2.912   3.812   1.125
  646SOL    MW4 2616   2.928   3.895   1.105
  647SOL     OW 2617   2.714   4.039   1.232
  647SOL    HW2 2618   2.787   3.992   1.194
  647SOL    HW3 2619   2.641   3.976   1.231
  647SOL    MW4 2620   2.714   4.024   1.227
  648SOL     OW 2621   2.729   4.283   1.074
  648SOL    HW2 2622   2.743   4.206   1.129
  648SOL    HW3 2623   2.651   4.325   1.111
  648SOL    MW4 2624   2.720   4.278   1.086
  649SOL     OW 2625   2.946   4.377   1.216
  649SOL    HW2 2626   3.018   4.322   1.184
  649SOL    HW3 2627   2.870   4.349   1.165
  649SOL    MW4 2628   2.945   4.366   1.205
  650SOL     OW 2629   3.382   4.656   1.095
  650SOL    HW2 2630   3.454   4.683   1.153
  650SOL    HW3 2631   3.305   4.702   1.129
  650SOL    MW4 2632   3.381   4.665   1.107
  651SOL     OW 2633   3.145   0.098   1.210
  651SOL    HW2 2634   3.159   0.094   1.305
  651SOL    HW3 2635   3.064   0.049   1.196
  651SOL    MW4 2636   3.136   0.091   1.221
  652SOL     OW 2637   3.181   0.355   1.118
  652SOL    HW2 2638   3.178   0.262   1.137
  652SOL    HW3 2639   3.098   0.390   1.151
  652SOL    MW4 2640   3.170   0.347   1.125
  653SOL     OW 2641   3.368   0.513   1.241
  653SOL    HW2 2642   3.342   0.601   1.216
  653SOL    HW3 2643   3.299   0.456   1.204
  653SOL    MW4 2644   3.355   0.517   1.233
  654SOL     OW 2645   3.361   0.776   1.127
  654SOL    HW2 2646   3.276   0.818   1.140
  654SOL    HW3 2647   3.369   0.768   1.032
  654SOL    MW4 2648   3.351   0.780   1.116
  655SOL     OW 2649   3.120   0.889   1.198
  655SOL    HW2 2650   3.128   0.891   1.293
  655SOL    HW3 2651   3.112   0.981   1.173
  655SOL    MW4 2652   3.120   0.902   1.207
  656SOL     OW 2653   3.141   1.133   1.082
  656SOL    HW2 2654   3.216   1.182   1.116
  656SOL    HW3 2655   3.064   1.175   1.122
  656SOL    MW4 2656   3.140   1.145   1.092
  657SOL     OW 2657   3.380   1.256   1.172
  657SOL    HW2 2658   3.368   1.252   1.267
  657SOL    HW3 2659   3.380   1.349   1.151
  657SOL    MW4 2660   3.378   1.267   1.182
  658SOL     OW 2661   3.366   1.535   1.106
  658SOL    HW2 2662   3.440   1.574   1.153
  658SOL    HW3 2663   3.290   1.587   1.134
  658SOL    MW4 2664   3.366   1.547   1.116
  659SOL     OW 2665   3.133   1.678   1.188
  659SOL    HW2 2666   3.125   1.677   1.283
  659SOL    HW3 2667   3.151   1.769   1.166
  659SOL    MW4 2668   3.134   1.690   1.198
  660SOL     OW 2669   3.167   1.941   1.092
  660SOL    HW2 2670   3.244   1.975   1.137
  660SOL    HW3 2671   3.098   2.004   1.112
  660SOL    MW4 2672   3.168   1.954   1.100
  661SOL     OW 2673   3.387   2.027   1.231
  661SOL    HW2 2674   3.463   1.972   1.214
  661SOL    HW3 2675   3.416   2.115   1.206
  661SOL    MW4 2676   3.401   2.032   1.226
  662SOL     OW 2677   3.409   2.273   1.119
  662SOL    HW2 2678   3.476   2.333   1.151
  662SOL    HW3 2679   3.326   2.315   1.143
  662SOL    MW4 2680   3.407   2.287   1.126
  663SOL     OW 2681   3.195   2.435   1.232
  663SOL    HW2 2682   3.173   2.441   1.325
  663SOL    HW3 2683   3.192   2.525   1.201
  663SOL    MW4 2684   3.191   2.448   1.241
  664SOL     OW 2685   3.174   2.686   1.110
  664SOL    HW2 2686   3.093   2.725   1.143
  664SOL    HW3 2687   3.175   2.706   1.017
  664SOL    MW4 2688   3.163   2.694   1.102
  665SOL     OW 2689   3.408   2.828   1.212
  665SOL    HW2 2690   3.391   2.911   1.167
  665SOL    HW3 2691   3.333   2.773   1.191
  665SOL    MW4 2692   3.396   2.831   1.203
  666SOL     OW 2693   3.381   3.086   1.100
  666SOL    HW2 2694   3.456   3.125   1.144
  666SOL    HW3 2695   3.304   3.118   1.148
  666SOL    MW4 2696   3.380   3.095   1.112
  667SOL     OW 2697   3.145   3.215   1.220
  667SOL    HW2 2698   3.160   3.307   1.199
  667SOL    HW3 2699   3.056   3.197   1.188
  667SOL    MW4 2700   3.135   3.225   1.213
  668SOL     OW 2701   3.162   3.542   1.123
  668SOL    HW2 2702   3.248   3.578   1.143
  668SOL    HW3 2703   3.170   3.511   1.032
  668SOL    MW4 2704   3.175   3.542   1.114
  669SOL     OW 2705   3.428   3.618   1.180
  669SOL    HW2 2706   3.420   3.599   1.273
  669SOL    HW3 2707   3.507   3.571   1.153
  669SOL    MW4 2708   3.437   3.609   1.188
  670SOL     OW 2709   3.419   3.895   1.093
  670SOL    HW2 2710   3.330   3.909   1.127
  670SOL    HW3 2711   3.426   3.800   1.083
  670SOL    MW4 2712   3.408   3.884   1.096
  671SOL     OW 2713   3.167   3.973   1.204
  671SOL    HW2 2714   3.169   3.968   1.299
  671SOL    HW3 2715   3.157   4.067   1.185
  671SOL    MW4 2716   3.166   3.985   1.214
  672SOL     OW 2717   3.146   4.233   1.120
  672SOL    HW2 2718   3.213   4.298   1.141
  672SOL    HW3 2719   3.145   4.230   1.024
  672SOL    MW4 2720   3.155   4.241   1.110
  673SOL     OW 2721   3.348   4.402   1.189
  673SOL    HW2 2722   3.432   4.366   1.163
  673SOL    HW3 2723   3.345   4.488   1.147
  673SOL    MW4 2724   3.359   4.409   1.180
  674SOL     OW 2725   3.797   4.660   1.141
  674SOL    HW2 2726   3.830   4.577   1.175
  674SOL    HW3 2727   3.808   4.652   1.046
  674SOL    MW4 2728   3.802   4.648   1.133
  675SOL     OW 2729   3.584   0.107   1.238
  675SOL    HW2 2730   3.585   0.197   1.205
  675SOL    HW3 2731   3.661   0.066   1.198
  675SOL    MW4 2732   3.594   0.113   1.228
  676SOL     OW 2733   3.597   0.376   1.140
  676SOL    HW2 2734   3.675   0.392   1.194
  676SOL    HW3 2735   3.535   0.443   1.167
  676SOL    MW4 2736   3.599   0.387   1.151
  677SOL     OW 2737   3.837   0.448   1.248
  677SOL    HW2 2738   3.909   0.407   1.200
  677SOL    HW3 2739   3.855   0.542   1.242
  677SOL    MW4 2740   3.849   0.455   1.241
  678SOL     OW 2741   3.832   0.727   1.184
  678SOL    HW2 2742   3.901   0.774   1.230
  678SOL    HW3 2743   3.753   0.777   1.200
  678SOL    MW4 2744   3.831   0.740   1.192
  679SOL     OW 2745   3.600   0.875   1.214
  679SOL    HW2 2746   3.598   0.962   1.176
  679SOL    HW3 2747   3.519   0.834   1.184
  679SOL    MW4 2748   3.589   0.881   1.205
  680SOL     OW 2749   3.612   1.132   1.086
  680SOL    HW2 2750   3.684   1.189   1.112
  680SOL    HW3 2751   3.533   1.184   1.103
  680SOL    MW4 2752   3.611   1.147   1.091
  681SOL     OW 2753   3.840   1.291   1.204
  681SOL    HW2 2754   3.811   1.308   1.294
  681SOL    HW3 2755   3.828   1.374   1.159
  681SOL    MW4 2756   3.834   1.304   1.210
  682SOL     OW 2757   3.827   1.553   1.075
  682SOL    HW2 2758   3.904   1.605   1.098
  682SOL    HW3 2759   3.824   1.556   0.979
  682SOL    MW4 2760   3.836   1.560   1.065
  683SOL     OW 2761   3.605   1.656   1.218
  683SOL    HW2 2762   3.614   1.747   1.193
  683SOL    HW3 2763   3.684   1.613   1.185
  683SOL    MW4 2764   3.616   1.662   1.211
  684SOL     OW 2765   3.616   1.936   1.118
  684SOL    HW2 2766   3.695   1.986   1.139
  684SOL    HW3 2767   3.617   1.928   1.023
  684SOL    MW4 2768   3.626   1.942   1.108
  685SOL     OW 2769   3.849   2.085   1.203
  685SOL    HW2 2770   3.843   2.094   1.298
  685SOL    HW3 2771   3.935   2.046   1.188
  685SOL    MW4 2772   3.860   2.081   1.213
  686SOL     OW 2773   3.844   2.351   1.092
  686SOL    HW2 2774   3.927   2.372   1.135
  686SOL    HW3 2775   3.834   2.256   1.104
  686SOL    MW4 2776   3.854   2.341   1.099
  687SOL     OW 2777   3.622   2.440   1.225
  687SOL    HW2 2778   3.632   2.422   1.319
  687SOL    HW3 2779   3.704   2.410   1.186
  687SOL    MW4 2780   3.634   2.434   1.232
  688SOL     OW 2781   3.625   2.685   1.104
  688SOL    HW2 2782   3.630   2.601   1.151
  688SOL    HW3 2783   3.550   2.730   1.143
  688SOL    MW4 2784   3.616   2.680   1.115
  689SOL     OW 2785   3.847   2.817   1.192
  689SOL    HW2 2786   3.850   2.795   1.285
  689SOL    HW3 2787   3.774   2.765   1.157
  689SOL    MW4 2788   3.838   2.807   1.200
  690SOL     OW 2789   3.832   3.078   1.121
  690SOL    HW2 2790   3.844   2.985   1.141
  690SOL    HW3 2791   3.829   3.082   1.025
  690SOL    MW4 2792   3.833   3.066   1.111
  691SOL     OW 2793   3.609   3.217   1.230
  691SOL    HW2 2794   3.625   3.304   1.195
  691SOL    HW3 2795   3.679   3.163   1.193
  691SOL    MW4 2796   3.620   3.221   1.221
  692SOL     OW 2797   3.657   3.478   1.084
  692SOL    HW2 2798   3.728   3.529   1.121
  692SOL    HW3 2799   3.658   3.499   0.990
  692SOL    MW4 2800   3.667   3.487   1.076
  693SOL     OW 2801   3.836   3.649   1.200
  693SOL    HW2 2802   3.810   3.651   1.292
  693SOL    HW3 2803   3.804   3.733   1.164
  693SOL    MW4 2804   3.828   3.661   1.207
  694SOL     OW 2805   3.765   3.892   1.120
  694SOL    HW2 2806   3.709   3.960   1.157
  694SOL    HW3 2807   3.725   3.871   1.036
  694SOL    MW4 2808   3.752   3.898   1.114
  695SOL     OW 2809   3.554   4.069   1.247
  695SOL    HW2 2810   3.572   4.030   1.333
  695SOL    HW3 2811   3.488   4.013   1.208
  695SOL    MW4 2812   3.548   4.057   1.253
  696SOL     OW 2813   3.590   4.306   1.114
  696SOL    HW2 2814   3.587   4.225   1.166
  696SOL    HW3 2815   3.600   4.276   1.024
  696SOL    MW4 2816   3.591   4.291   1.109
  697SOL     OW 2817   3.844   4.389   1.199
  697SOL    HW2 2818   3.843   4.355   1.288
  697SOL    HW3 2819   3.753   4.381   1.169
  697SOL    MW4 2820   3.832   4.384   1.207
  698SOL     OW 2821   4.244   4.646   1.091
  698SOL    HW2 2822   4.232   4.564   1.139
  698SOL    HW3 2823   4.174   4.703   1.123
  698SOL    MW4 2824   4.233   4.643   1.102
  699SOL     OW 2825   4.028   0.136   1.191
  699SOL    HW2 2826   4.053   0.113   1.280
  699SOL    HW3 2827   3.934   0.117   1.187
  699SOL    MW4 2828   4.019   0.131   1.202
  700SOL     OW 2829   4.082   0.376   1.072
  700SOL    HW2 2830   4.057   0.288   1.100
  700SOL    HW3 2831   4.060   0.379   0.979
  700SOL    MW4 2832   4.076   0.365   1.063
  701SOL     OW 2833   4.319   0.517   1.186
  701SOL    HW2 2834   4.316   0.522   1.282
  701SOL    HW3 2835   4.241   0.467   1.162
  701SOL    MW4 2836   4.309   0.511   1.195
  702SOL     OW 2837   4.246   0.761   1.108
  702SOL    HW2 2838   4.283   0.675   1.126
  702SOL    HW3 2839   4.261   0.775   1.014
  702SOL    MW4 2840   4.253   0.752   1.098
  703SOL     OW 2841   4.044   0.888   1.255
  703SOL    HW2 2842   4.048   0.886   1.350
  703SOL    HW3 2843   4.116   0.832   1.226
  703SOL    MW4 2844   4.054   0.880   1.264
  704SOL     OW 2845   4.070   1.135   1.137
  704SOL    HW2 2846   4.059   1.054   1.186
  704SOL    HW3 2847   3.990   1.185   1.154
  704SOL    MW4 2848   4.058   1.131   1.146
  705SOL     OW 2849   4.241   1.285   1.262
  705SOL    HW2 2850   4.250   1.258   1.354
  705SOL    HW3 2851   4.173   1.227   1.227
  705SOL    MW4 2852   4.233   1.274   1.270
  706SOL     OW 2853   4.261   1.537   1.157
  706SOL    HW2 2854   4.264   1.446   1.185
  706SOL    HW3 2855   4.344   1.574   1.187
  706SOL    MW4 2856   4.272   1.530   1.164
  707SOL     OW 2857   4.047   1.688   1.223
  707SOL    HW2 2858   4.023   1.691   1.315
  707SOL    HW3 2859   4.119   1.626   1.218
  707SOL    MW4 2860   4.053   1.680   1.234
  708SOL     OW 2861   4.098   1.966   1.157
  708SOL    HW2 2862   4.093   1.878   1.194
  708SOL    HW3 2863   4.085   1.954   1.063
  708SOL    MW4 2864   4.095   1.953   1.150
  709SOL     OW 2865   4.340   2.076   1.245
  709SOL    HW2 2866   4.355   2.164   1.210
  709SOL    HW3 2867   4.252   2.053   1.215
  709SOL    MW4 2868   4.330   2.085   1.237
  710SOL     OW 2869   4.308   2.357   1.134
  710SOL    HW2 2870   4.218   2.377   1.159
  710SOL    HW3 2871   4.302   2.326   1.044
  710SOL    MW4 2872   4.295   2.355   1.125
  711SOL     OW 2873   4.063   2.436   1.217
  711SOL    HW2 2874   4.051   2.434   1.312
  711SOL    HW3 2875   4.070   2.529   1.196
  711SOL    MW4 2876   4.062   2.448   1.227
  712SOL     OW 2877   4.082   2.681   1.114
  712SOL    HW2 2878   4.007   2.731   1.147
  712SOL    HW3 2879   4.059   2.662   1.023
  712SOL    MW4 2880   4.069   2.685   1.106
  713SOL     OW 2881   4.284   2.879   1.203
  713SOL    HW2 2882   4.262   2.960   1.158
  713SOL    HW3 2883   4.204   2.826   1.197
  713SOL    MW4 2884   4.271   2.883   1.197
  714SOL     OW 2885   4.253   3.115   1.068
  714SOL    HW2 2886   4.176   3.162   1.101
  714SOL    HW3 2887   4.250   3.128   0.973
  714SOL    MW4 2888   4.242   3.123   1.060
  715SOL     OW 2889   4.035   3.252   1.174
  715SOL    HW2 2890   4.037   3.228   1.267
  715SOL    HW3 2891   3.956   3.208   1.141
  715SOL    MW4 2892   4.025   3.243   1.182
  716SOL     OW 2893   4.043   3.503   1.080
  716SOL    HW2 2894   4.041   3.415   1.117
  716SOL    HW3 2895   3.979   3.552   1.131
  716SOL    MW4 2896   4.034   3.498   1.091
  717SOL     OW 2897   4.277   3.590   1.203
  717SOL    HW2 2898   4.199   3.562   1.156
  717SOL    HW3 2899   4.350   3.551   1.154
  717SOL    MW4 2900   4.276   3.581   1.190
  718SOL     OW 2901   4.266   3.840   1.086
  718SOL    HW2 2902   4.183   3.881   1.110
  718SOL    HW3 2903   4.258   3.750   1.117
  718SOL    MW4 2904   4.254   3.834   1.094
  719SOL     OW 2905   4.020   3.980   1.163
  719SOL    HW2 2906   4.038   4.067   1.128
  719SOL    HW3 2907   3.932   3.959   1.133
  719SOL    MW4 2908   4.011   3.989   1.155
  720SOL     OW 2909   4.073   4.249   1.094
  720SOL    HW2 2910   3.996   4.300   1.120
  720SOL    HW3 2911   4.057   4.224   1.003
  720SOL    MW4 2912   4.061   4.252   1.086
  721SOL     OW 2913   4.233   4.422   1.239
  721SOL    HW2 2914   4.167   4.370   1.193
  721SOL    HW3 2915   4.316   4.394   1.202
  721SOL    MW4 2916   4.235   4.411   1.228
  722SOL     OW 2917   0.228   0.012   1.603
  722SOL    HW2 2918   0.309   0.047   1.566
  722SOL    HW3 2919   0.159   0.042   1.544
  722SOL    MW4 2920   0.229   0.021   1.591
  723SOL     OW 2921   0.013   0.137   1.480
  723SOL    HW2 2922  -0.061   0.091   1.519
  723SOL    HW3 2923  -0.003   0.132   1.386
  723SOL    MW4 2924   0.001   0.130   1.473
  724SOL     OW 2925   0.062   0.377   1.571
  724SOL    HW2 2926   0.048   0.352   1.662
  724SOL    HW3 2927   0.052   0.295   1.522
  724SOL    MW4 2928   0.059   0.363   1.577
  725SOL     OW 2929   0.285   0.510   1.502
  725SOL    HW2 2930   0.217   0.451   1.535
  725SOL    HW3 2931   0.269   0.516   1.408
  725SOL    MW4 2932   0.274   0.503   1.494
  726SOL     OW 2933   0.260   0.766   1.622
  726SOL    HW2 2934   0.331   0.827   1.599
  726SOL    HW3 2935   0.278   0.688   1.569
  726SOL    MW4 2936   0.272   0.764   1.612
  727SOL     OW 2937   0.019   0.874   1.521
  727SOL    HW2 2938   0.013   0.962   1.561
  727SOL    HW3 2939   0.107   0.844   1.545
  727SOL    MW4 2940   0.030   0.882   1.530
  728SOL     OW 2941   0.007   1.131   1.639
  728SOL    HW2 2942   0.016   1.133   1.734
  728SOL    HW3 2943   0.076   1.188   1.607
  728SOL    MW4 2944   0.017   1.139   1.647
  729SOL     OW 2945   0.226   1.248   1.509
  729SOL    HW2 2946   0.230   1.342   1.523
  729SOL    HW3 2947   0.215   1.238   1.414
  729SOL    MW4 2948   0.225   1.259   1.498
  730SOL     OW 2949   0.237   1.530   1.593
  730SOL    HW2 2950   0.245   1.516   1.687
  730SOL    HW3 2951   0.145   1.554   1.580
  730SOL    MW4 2952   0.226   1.532   1.604
  731SOL     OW 2953   4.481   1.656   1.548
  731SOL    HW2 2954   4.502   1.747   1.570
  731SOL    HW3 2955   4.475   1.655   1.452
  731SOL    MW4 2956   4.483   1.668   1.538
  732SOL     OW 2957   0.049   1.926   1.602
  732SOL    HW2 2958   0.030   1.924   1.695
  732SOL    HW3 2959  -0.026   1.972   1.563
  732SOL    MW4 2960   0.037   1.932   1.609
  733SOL     OW 2961   0.259   2.074   1.507
  733SOL    HW2 2962   0.199   2.005   1.533
  733SOL    HW3 2963   0.259   2.073   1.411
  733SOL    MW4 2964   0.251   2.065   1.498
  734SOL     OW 2965   0.257   2.343   1.642
  734SOL    HW2 2966   0.272   2.322   1.734
  734SOL    HW3 2967   0.238   2.259   1.601
  734SOL    MW4 2968   0.257   2.329   1.649
  735SOL     OW 2969   0.023   2.477   1.520
  735SOL    HW2 2970  -0.048   2.419   1.546
  735SOL    HW3 2971   0.101   2.442   1.563
  735SOL    MW4 2972   0.024   2.465   1.529
  736SOL     OW 2973   4.478   2.735   1.631
  736SOL    HW2 2974   4.415   2.771   1.568
  736SOL    HW3 2975   4.505   2.651   1.593
  736SOL    MW4 2976   4.473   2.728   1.618
  737SOL     OW 2977   0.201   2.881   1.521
  737SOL    HW2 2978   0.282   2.836   1.546
  737SOL    HW3 2979   0.131   2.827   1.559
  737SOL    MW4 2980   0.202   2.868   1.529
  738SOL     OW 2981   0.229   3.137   1.643
  738SOL    HW2 2982   0.161   3.184   1.595
  738SOL    HW3 2983   0.212   3.045   1.624
  738SOL    MW4 2984   0.218   3.131   1.634
  739SOL     OW 2985   4.481   3.227   1.508
  739SOL    HW2 2986   4.503   3.320   1.516
  739SOL    HW3 2987   4.459   3.216   1.415
  739SOL    MW4 2988   4.481   3.238   1.497
  740SOL     OW 2989   0.046   3.479   1.599
  740SOL    HW2 2990   0.039   3.489   1.694
  740SOL    HW3 2991  -0.036   3.516   1.565
  740SOL    MW4 2992   0.034   3.485   1.607
  741SOL     OW 2993   0.276   3.616   1.517
  741SOL    HW2 2994   0.260   3.710   1.523
  741SOL    HW3 2995   0.194   3.576   1.549
  741SOL    MW4 2996   0.263   3.623   1.522
  742SOL     OW 2997   0.225   3.885   1.584
  742SOL    HW2 2998   0.223   3.866   1.678
  742SOL    HW3 2999   0.307   3.932   1.571
  742SOL    MW4 3000   0.236   3.889   1.595
  743SOL     OW 3001   0.009   4.015   1.483
  743SOL    HW2 3002   0.013   4.108   1.507
  743SOL    HW3 3003   0.086   3.976   1.525
  743SOL    MW4 3004   0.020   4.022   1.491
  744SOL     OW 3005   0.019   4.269   1.559
  744SOL    HW2 3006   0.015   4.235   1.649
  744SOL    HW3 3007  -0.062   4.319   1.548
  744SOL    MW4 3008   0.008   4.271   1.570
  745SOL     OW 3009   0.254   4.416   1.469
  745SOL    HW2 3010   0.171   4.382   1.505
  745SOL    HW3 3011   0.262   4.503   1.506
  745SOL    MW4 3012   0.244   4.423   1.479
  746SOL     OW 3013   0.674   0.017   1.609
  746SOL    HW2 3014   0.745   0.038   1.548
  746SOL    HW3 3015   0.597   0.058   1.572
  746SOL    MW4 3016   0.673   0.025   1.596
  747SOL     OW 3017   0.458   0.121   1.482
  747SOL    HW2 3018   0.466   0.212   1.507
  747SOL    HW3 3019   0.441   0.124   1.387
  747SOL    MW4 3020   0.457   0.133   1.473
  748SOL     OW 3021   0.499   0.362   1.600
  748SOL    HW2 3022   0.570   0.403   1.550
  748SOL    HW3 3023   0.425   0.421   1.588
  748SOL    MW4 3024   0.499   0.375   1.592
  749SOL     OW 3025   0.722   0.523   1.474
  749SOL    HW2 3026   0.711   0.613   1.505
  749SOL    HW3 3027   0.696   0.526   1.382
  749SOL    MW4 3028   0.717   0.535   1.466
  750SOL     OW 3029   0.683   0.773   1.566
  750SOL    HW2 3030   0.689   0.758   1.660
  750SOL    HW3 3031   0.751   0.837   1.547
  750SOL    MW4 3032   0.692   0.780   1.576
  751SOL     OW 3033   0.462   0.933   1.509
  751SOL    HW2 3034   0.484   1.014   1.555
  751SOL    HW3 3035   0.535   0.874   1.527
  751SOL    MW4 3036   0.474   0.936   1.518
  752SOL     OW 3037   0.470   1.183   1.623
  752SOL    HW2 3038   0.540   1.209   1.563
  752SOL    HW3 3039   0.389   1.205   1.576
  752SOL    MW4 3040   0.469   1.189   1.609
  753SOL     OW 3041   0.687   1.279   1.453
  753SOL    HW2 3042   0.671   1.373   1.464
  753SOL    HW3 3043   0.685   1.265   1.358
  753SOL    MW4 3044   0.685   1.289   1.442
  754SOL     OW 3045   0.636   1.541   1.571
  754SOL    HW2 3046   0.714   1.592   1.550
  754SOL    HW3 3047   0.567   1.578   1.517
  754SOL    MW4 3048   0.637   1.552   1.561
  755SOL     OW 3049   0.416   1.672   1.440
  755SOL    HW2 3050   0.445   1.738   1.504
  755SOL    HW3 3051   0.337   1.635   1.478
  755SOL    MW4 3052   0.410   1.676   1.453
  756SOL     OW 3053   0.453   1.913   1.596
  756SOL    HW2 3054   0.467   1.929   1.690
  756SOL    HW3 3055   0.384   1.974   1.571
  756SOL    MW4 3056   0.446   1.923   1.605
  757SOL     OW 3057   0.679   2.057   1.509
  757SOL    HW2 3058   0.745   2.005   1.555
  757SOL    HW3 3059   0.595   2.028   1.546
  757SOL    MW4 3060   0.676   2.046   1.520
  758SOL     OW 3061   0.688   2.331   1.556
  758SOL    HW2 3062   0.611   2.379   1.527
  758SOL    HW3 3063   0.677   2.243   1.520
  758SOL    MW4 3064   0.676   2.325   1.548
  759SOL     OW 3065   0.466   2.477   1.489
  759SOL    HW2 3066   0.464   2.568   1.519
  759SOL    HW3 3067   0.403   2.432   1.546
  759SOL    MW4 3068   0.457   2.483   1.501
  760SOL     OW 3069   0.424   2.724   1.585
  760SOL    HW2 3070   0.422   2.719   1.681
  760SOL    HW3 3071   0.510   2.764   1.566
  760SOL    MW4 3072   0.435   2.729   1.595
  761SOL     OW 3073   0.657   2.851   1.526
  761SOL    HW2 3074   0.656   2.939   1.563
  761SOL    HW3 3075   0.674   2.864   1.432
  761SOL    MW4 3076   0.659   2.864   1.518
  762SOL     OW 3077   0.652   3.113   1.622
  762SOL    HW2 3078   0.730   3.154   1.584
  762SOL    HW3 3079   0.581   3.139   1.564
  762SOL    MW4 3080   0.653   3.122   1.610
  763SOL     OW 3081   0.441   3.254   1.498
  763SOL    HW2 3082   0.380   3.190   1.535
  763SOL    HW3 3083   0.435   3.241   1.404
  763SOL    MW4 3084   0.432   3.244   1.491
  764SOL     OW 3085   0.471   3.461   1.676
  764SOL    HW2 3086   0.469   3.384   1.621
  764SOL    HW3 3087   0.396   3.513   1.647
  764SOL    MW4 3088   0.461   3.458   1.665
  765SOL     OW 3089   0.685   3.576   1.536
  765SOL    HW2 3090   0.770   3.540   1.561
  765SOL    HW3 3091   0.622   3.533   1.594
  765SOL    MW4 3092   0.688   3.565   1.547
  766SOL     OW 3093   0.663   3.859   1.600
  766SOL    HW2 3094   0.737   3.907   1.564
  766SOL    HW3 3095   0.681   3.767   1.578
  766SOL    MW4 3096   0.675   3.853   1.593
  767SOL     OW 3097   0.450   4.009   1.483
  767SOL    HW2 3098   0.516   3.952   1.523
  767SOL    HW3 3099   0.471   4.006   1.389
  767SOL    MW4 3100   0.462   4.001   1.476
  768SOL     OW 3101   0.401   4.245   1.616
  768SOL    HW2 3102   0.410   4.166   1.562
  768SOL    HW3 3103   0.337   4.299   1.568
  768SOL    MW4 3104   0.393   4.242   1.602
  769SOL     OW 3105   0.638   4.393   1.518
  769SOL    HW2 3106   0.553   4.361   1.548
  769SOL    HW3 3107   0.651   4.475   1.565
  769SOL    MW4 3108   0.629   4.400   1.528
  770SOL     OW 3109   1.094   4.649   1.599
  770SOL    HW2 3110   1.118   4.644   1.691
  770SOL    HW3 3111   1.172   4.684   1.555
  770SOL    MW4 3112   1.108   4.653   1.605
  771SOL     OW 3113   0.885   0.121   1.467
  771SOL    HW2 3114   0.883   0.207   1.509
  771SOL    HW3 3115   0.961   0.078   1.505
  771SOL    MW4 3116   0.895   0.127   1.477
  772SOL     OW 3117   0.921   0.367   1.615
  772SOL    HW2 3118   0.912   0.359   1.710
  772SOL    HW3 3119   0.845   0.418   1.588
  772SOL    MW4 3120   0.909   0.373   1.624
  773SOL     OW 3121   1.113   0.505   1.465
  773SOL    HW2 3122   1.122   0.592   1.505
  773SOL    HW3 3123   1.043   0.463   1.514
  773SOL    MW4 3124   1.105   0.511   1.477
  774SOL     OW 3125   1.138   0.757   1.579
  774SOL    HW2 3126   1.117   0.777   1.670
  774SOL    HW3 3127   1.224   0.796   1.565
  774SOL    MW4 3128   1.146   0.764   1.589
  775SOL     OW 3129   0.892   0.925   1.466
  775SOL    HW2 3130   0.977   0.894   1.495
  775SOL    HW3 3131   0.893   0.913   1.371
  775SOL    MW4 3132   0.903   0.919   1.457
  776SOL     OW 3133   0.903   1.188   1.585
  776SOL    HW2 3134   0.919   1.101   1.548
  776SOL    HW3 3135   0.818   1.214   1.550
  776SOL    MW4 3136   0.894   1.180   1.576
  777SOL     OW 3137   1.144   1.286   1.470
  777SOL    HW2 3138   1.222   1.237   1.496
  777SOL    HW3 3139   1.074   1.249   1.523
  777SOL    MW4 3140   1.145   1.275   1.480
  778SOL     OW 3141   1.147   1.533   1.598
  778SOL    HW2 3142   1.217   1.585   1.560
  778SOL    HW3 3143   1.150   1.450   1.551
  778SOL    MW4 3144   1.157   1.529   1.587
  779SOL     OW 3145   0.910   1.641   1.531
  779SOL    HW2 3146   0.990   1.608   1.573
  779SOL    HW3 3147   0.928   1.635   1.437
  779SOL    MW4 3148   0.923   1.636   1.524
  780SOL     OW 3149   0.872   1.880   1.657
  780SOL    HW2 3150   0.941   1.944   1.639
  780SOL    HW3 3151   0.913   1.795   1.637
  780SOL    MW4 3152   0.887   1.877   1.652
  781SOL     OW 3153   1.089   2.029   1.553
  781SOL    HW2 3154   1.171   1.981   1.562
  781SOL    HW3 3155   1.110   2.118   1.581
  781SOL    MW4 3156   1.102   2.034   1.558
  782SOL     OW 3157   1.127   2.310   1.606
  782SOL    HW2 3158   1.211   2.342   1.573
  782SOL    HW3 3159   1.062   2.367   1.564
  782SOL    MW4 3160   1.130   2.322   1.596
  783SOL     OW 3161   0.916   2.461   1.501
  783SOL    HW2 3162   0.915   2.547   1.542
  783SOL    HW3 3163   0.834   2.420   1.529
  783SOL    MW4 3164   0.905   2.467   1.510
  784SOL     OW 3165   0.897   2.717   1.609
  784SOL    HW2 3166   0.909   2.733   1.703
  784SOL    HW3 3167   0.812   2.756   1.588
  784SOL    MW4 3168   0.888   2.725   1.619
  785SOL     OW 3169   1.108   2.824   1.473
  785SOL    HW2 3170   1.115   2.914   1.504
  785SOL    HW3 3171   1.027   2.792   1.512
  785SOL    MW4 3172   1.098   2.832   1.483
  786SOL     OW 3173   1.142   3.075   1.574
  786SOL    HW2 3174   1.140   3.070   1.670
  786SOL    HW3 3175   1.218   3.130   1.555
  786SOL    MW4 3176   1.152   3.081   1.584
  787SOL     OW 3177   0.895   3.215   1.495
  787SOL    HW2 3178   0.982   3.178   1.510
  787SOL    HW3 3179   0.886   3.216   1.400
  787SOL    MW4 3180   0.906   3.210   1.485
  788SOL     OW 3181   0.917   3.453   1.618
  788SOL    HW2 3182   1.007   3.484   1.606
  788SOL    HW3 3183   0.918   3.363   1.585
  788SOL    MW4 3184   0.929   3.445   1.612
  789SOL     OW 3185   1.151   3.599   1.562
  789SOL    HW2 3186   1.232   3.560   1.597
  789SOL    HW3 3187   1.169   3.609   1.468
  789SOL    MW4 3188   1.164   3.595   1.554
  790SOL     OW 3189   1.131   3.872   1.595
  790SOL    HW2 3190   1.211   3.904   1.552
  790SOL    HW3 3191   1.137   3.776   1.588
  790SOL    MW4 3192   1.143   3.863   1.588
  791SOL     OW 3193   0.889   3.992   1.508
  791SOL    HW2 3194   0.877   4.083   1.534
  791SOL    HW3 3195   0.974   3.967   1.546
  791SOL    MW4 3196   0.899   4.000   1.516
  792SOL     OW 3197   0.854   4.264   1.602
  792SOL    HW2 3198   0.858   4.264   1.698
  792SOL    HW3 3199   0.774   4.312   1.581
  792SOL    MW4 3200   0.844   4.271   1.612
  793SOL     OW 3201   1.119   4.380   1.513
  793SOL    HW2 3202   1.036   4.347   1.547
  793SOL    HW3 3203   1.119   4.473   1.533
  793SOL    MW4 3204   1.108   4.388   1.520
  794SOL     OW 3205   1.568   4.650   1.546
  794SOL    HW2 3206   1.582   4.637   1.640
  794SOL    HW3 3207   1.481   4.689   1.540
  794SOL    MW4 3208   1.559   4.653   1.558
  795SOL     OW 3209   1.304   0.098   1.485
  795SOL    HW2 3210   1.320   0.184   1.525
  795SOL    HW3 3211   1.311   0.113   1.391
  795SOL    MW4 3212   1.307   0.112   1.478
  796SOL     OW 3213   1.317   0.364   1.586
  796SOL    HW2 3214   1.385   0.430   1.576
  796SOL    HW3 3215   1.236   0.407   1.559
  796SOL    MW4 3216   1.315   0.378   1.581
  797SOL     OW 3217   1.579   0.487   1.529
  797SOL    HW2 3218   1.662   0.441   1.544
  797SOL    HW3 3219   1.574   0.497   1.434
  797SOL    MW4 3220   1.589   0.482   1.519
  798SOL     OW 3221   1.605   0.742   1.610
  798SOL    HW2 3222   1.600   0.741   1.706
  798SOL    HW3 3223   1.596   0.651   1.584
  798SOL    MW4 3224   1.604   0.730   1.619
  799SOL     OW 3225   1.388   0.876   1.501
  799SOL    HW2 3226   1.461   0.826   1.539
  799SOL    HW3 3227   1.394   0.859   1.407
  799SOL    MW4 3228   1.399   0.867   1.494
  800SOL     OW 3229   1.360   1.131   1.555
  800SOL    HW2 3230   1.357   1.137   1.651
  800SOL    HW3 3231   1.369   1.037   1.537
  800SOL    MW4 3232   1.361   1.119   1.566
  801SOL     OW 3233   1.593   1.285   1.504
  801SOL    HW2 3234   1.521   1.223   1.514
  801SOL    HW3 3235   1.590   1.311   1.412
  801SOL    MW4 3236   1.583   1.281   1.493
  802SOL     OW 3237   1.534   1.561   1.583
  802SOL    HW2 3238   1.541   1.557   1.678
  802SOL    HW3 3239   1.551   1.472   1.553
  802SOL    MW4 3240   1.537   1.549   1.591
  803SOL     OW 3241   1.326   1.664   1.450
  803SOL    HW2 3242   1.409   1.628   1.482
  803SOL    HW3 3243   1.342   1.679   1.357
  803SOL    MW4 3244   1.339   1.662   1.442
  804SOL     OW 3245   1.320   1.911   1.589
  804SOL    HW2 3246   1.329   1.919   1.684
  804SOL    HW3 3247   1.321   1.817   1.573
  804SOL    MW4 3248   1.321   1.900   1.599
  805SOL     OW 3249   1.544   2.061   1.527
  805SOL    HW2 3250   1.464   2.012   1.546
  805SOL    HW3 3251   1.535   2.087   1.436
  805SOL    MW4 3252   1.532   2.058   1.518
  806SOL     OW 3253   1.556   2.316   1.632
  806SOL    HW2 3254   1.648   2.332   1.613
  806SOL    HW3 3255   1.541   2.225   1.604
  806SOL    MW4 3256   1.566   2.306   1.626
  807SOL     OW 3257   1.341   2.452   1.516
  807SOL    HW2 3258   1.341   2.542   1.547
  807SOL    HW3 3259   1.417   2.412   1.558
  807SOL    MW4 3260   1.351   2.459   1.526
  808SOL     OW 3261   1.321   2.699   1.620
  808SOL    HW2 3262   1.396   2.742   1.579
  808SOL    HW3 3263   1.244   2.744   1.583
  808SOL    MW4 3264   1.320   2.711   1.610
  809SOL     OW 3265   1.549   2.832   1.520
  809SOL    HW2 3266   1.612   2.769   1.556
  809SOL    HW3 3267   1.580   2.848   1.431
  809SOL    MW4 3268   1.562   2.826   1.513
  810SOL     OW 3269   1.583   3.083   1.633
  810SOL    HW2 3270   1.648   3.135   1.586
  810SOL    HW3 3271   1.581   2.999   1.588
  810SOL    MW4 3272   1.591   3.079   1.621
  811SOL     OW 3273   1.371   3.215   1.489
  811SOL    HW2 3274   1.374   3.303   1.528
  811SOL    HW3 3275   1.445   3.169   1.529
  811SOL    MW4 3276   1.381   3.221   1.499
  812SOL     OW 3277   1.385   3.454   1.628
  812SOL    HW2 3278   1.393   3.439   1.722
  812SOL    HW3 3279   1.465   3.501   1.604
  812SOL    MW4 3280   1.396   3.458   1.638
  813SOL     OW 3281   1.616   3.615   1.524
  813SOL    HW2 3282   1.618   3.705   1.558
  813SOL    HW3 3283   1.594   3.625   1.431
  813SOL    MW4 3284   1.614   3.628   1.516
  814SOL     OW 3285   1.592   3.882   1.609
  814SOL    HW2 3286   1.569   3.859   1.699
  814SOL    HW3 3287   1.508   3.906   1.569
  814SOL    MW4 3288   1.578   3.882   1.616
  815SOL     OW 3289   1.369   4.000   1.485
  815SOL    HW2 3290   1.349   4.084   1.526
  815SOL    HW3 3291   1.357   4.015   1.391
  815SOL    MW4 3292   1.365   4.013   1.478
  816SOL     OW 3293   1.358   4.240   1.608
  816SOL    HW2 3294   1.421   4.285   1.552
  816SOL    HW3 3295   1.273   4.275   1.581
  816SOL    MW4 3296   1.355   4.250   1.597
  817SOL     OW 3297   1.587   4.373   1.478
  817SOL    HW2 3298   1.650   4.331   1.536
  817SOL    HW3 3299   1.583   4.464   1.507
  817SOL    MW4 3300   1.595   4.380   1.489
  818SOL     OW 3301   2.024   4.637   1.566
  818SOL    HW2 3302   2.023   4.648   1.661
  818SOL    HW3 3303   1.954   4.693   1.534
  818SOL    MW4 3304   2.015   4.646   1.574
  819SOL     OW 3305   1.796   0.102   1.456
  819SOL    HW2 3306   1.718   0.056   1.486
  819SOL    HW3 3307   1.790   0.100   1.360
  819SOL    MW4 3308   1.785   0.096   1.447
  820SOL     OW 3309   1.825   0.352   1.596
  820SOL    HW2 3310   1.911   0.385   1.571
  820SOL    HW3 3311   1.822   0.263   1.561
  820SOL    MW4 3312   1.836   0.344   1.588
  821SOL     OW 3313   2.050   0.506   1.530
  821SOL    HW2 3314   2.128   0.465   1.568
  821SOL    HW3 3315   2.048   0.593   1.569
  821SOL    MW4 3316   2.060   0.512   1.540
  822SOL     OW 3317   2.033   0.770   1.603
  822SOL    HW2 3318   2.106   0.825   1.576
  822SOL    HW3 3319   1.957   0.805   1.556
  822SOL    MW4 3320   2.033   0.782   1.593
  823SOL     OW 3321   1.811   0.893   1.499
  823SOL    HW2 3322   1.800   0.984   1.525
  823SOL    HW3 3323   1.737   0.847   1.538
  823SOL    MW4 3324   1.800   0.899   1.507
  824SOL     OW 3325   1.802   1.147   1.603
  824SOL    HW2 3326   1.884   1.176   1.563
  824SOL    HW3 3327   1.735   1.203   1.565
  824SOL    MW4 3328   1.804   1.158   1.593
  825SOL     OW 3329   2.036   1.252   1.487
  825SOL    HW2 3330   2.030   1.346   1.502
  825SOL    HW3 3331   2.048   1.242   1.393
  825SOL    MW4 3332   2.037   1.263   1.477
  826SOL     OW 3333   2.024   1.511   1.583
  826SOL    HW2 3334   2.098   1.568   1.561
  826SOL    HW3 3335   1.947   1.559   1.554
  826SOL    MW4 3336   2.024   1.525   1.576
  827SOL     OW 3337   1.792   1.644   1.527
  827SOL    HW2 3338   1.705   1.610   1.549
  827SOL    HW3 3339   1.793   1.647   1.431
  827SOL    MW4 3340   1.781   1.640   1.517
  828SOL     OW 3341   1.790   1.923   1.583
  828SOL    HW2 3342   1.783   1.830   1.561
  828SOL    HW3 3343   1.701   1.956   1.574
  828SOL    MW4 3344   1.777   1.915   1.579
  829SOL     OW 3345   2.020   2.092   1.558
  829SOL    HW2 3346   2.093   2.037   1.587
  829SOL    HW3 3347   1.942   2.044   1.584
  829SOL    MW4 3348   2.020   2.078   1.565
  830SOL     OW 3349   2.062   2.345   1.659
  830SOL    HW2 3350   2.076   2.351   1.753
  830SOL    HW3 3351   2.037   2.254   1.644
  830SOL    MW4 3352   2.060   2.334   1.669
  831SOL     OW 3353   1.813   2.395   1.556
  831SOL    HW2 3354   1.897   2.370   1.593
  831SOL    HW3 3355   1.829   2.401   1.461
  831SOL    MW4 3356   1.826   2.392   1.548
  832SOL     OW 3357   1.752   2.666   1.618
  832SOL    HW2 3358   1.831   2.699   1.575
  832SOL    HW3 3359   1.738   2.580   1.579
  832SOL    MW4 3360   1.761   2.659   1.607
  833SOL     OW 3361   1.974   2.787   1.480
  833SOL    HW2 3362   1.981   2.880   1.503
  833SOL    HW3 3363   1.978   2.786   1.384
  833SOL    MW4 3364   1.975   2.800   1.470
  834SOL     OW 3365   2.009   3.052   1.619
  834SOL    HW2 3366   2.020   3.053   1.714
  834SOL    HW3 3367   2.081   3.106   1.586
  834SOL    MW4 3368   2.020   3.059   1.627
  835SOL     OW 3369   1.811   3.196   1.496
  835SOL    HW2 3370   1.826   3.285   1.527
  835SOL    HW3 3371   1.887   3.147   1.528
  835SOL    MW4 3372   1.823   3.201   1.504
  836SOL     OW 3373   1.852   3.473   1.594
  836SOL    HW2 3374   1.830   3.434   1.679
  836SOL    HW3 3375   1.777   3.530   1.574
  836SOL    MW4 3376   1.839   3.475   1.603
  837SOL     OW 3377   2.072   3.603   1.497
  837SOL    HW2 3378   2.152   3.562   1.530
  837SOL    HW3 3379   2.001   3.549   1.534
  837SOL    MW4 3380   2.073   3.590   1.506
  838SOL     OW 3381   2.034   3.868   1.593
  838SOL    HW2 3382   2.107   3.927   1.577
  838SOL    HW3 3383   2.057   3.788   1.545
  838SOL    MW4 3384   2.047   3.865   1.585
  839SOL     OW 3385   1.828   4.016   1.491
  839SOL    HW2 3386   1.895   3.971   1.542
  839SOL    HW3 3387   1.746   3.975   1.519
  839SOL    MW4 3388   1.826   4.005   1.501
  840SOL     OW 3389   1.793   4.274   1.617
  840SOL    HW2 3390   1.869   4.323   1.587
  840SOL    HW3 3391   1.808   4.184   1.586
  840SOL    MW4 3392   1.805   4.268   1.609
  841SOL     OW 3393   2.009   4.391   1.459
  841SOL    HW2 3394   2.087   4.352   1.499
  841SOL    HW3 3395   2.002   4.478   1.497
  841SOL    MW4 3396   2.018   4.397   1.469
  842SOL     OW 3397   2.487   4.626   1.601
  842SOL    HW2 3398   2.499   4.641   1.695
  842SOL    HW3 3399   2.424   4.692   1.574
  842SOL    MW4 3400   2.480   4.637   1.610
  843SOL     OW 3401   2.271   0.097   1.500
  843SOL    HW2 3402   2.193   0.044   1.518
  843SOL    HW3 3403   2.266   0.116   1.407
  843SOL    MW4 3404   2.260   0.093   1.490
  844SOL     OW 3405   2.289   0.368   1.633
  844SOL    HW2 3406   2.287   0.359   1.729
  844SOL    HW3 3407   2.299   0.278   1.602
  844SOL    MW4 3408   2.290   0.355   1.642
  845SOL     OW 3409   2.489   0.521   1.499
  845SOL    HW2 3410   2.559   0.470   1.539
  845SOL    HW3 3411   2.409   0.487   1.539
  845SOL    MW4 3412   2.487   0.510   1.509
  846SOL     OW 3413   2.517   0.804   1.618
  846SOL    HW2 3414   2.431   0.827   1.583
  846SOL    HW3 3415   2.529   0.712   1.595
  846SOL    MW4 3416   2.507   0.795   1.610
  847SOL     OW 3417   2.268   0.900   1.529
  847SOL    HW2 3418   2.262   0.991   1.558
  847SOL    HW3 3419   2.261   0.905   1.434
  847SOL    MW4 3420   2.266   0.913   1.520
  848SOL     OW 3421   2.268   1.167   1.628
  848SOL    HW2 3422   2.243   1.162   1.720
  848SOL    HW3 3423   2.189   1.201   1.584
  848SOL    MW4 3424   2.254   1.171   1.634
  849SOL     OW 3425   2.484   1.278   1.489
  849SOL    HW2 3426   2.417   1.241   1.547
  849SOL    HW3 3427   2.445   1.276   1.402
  849SOL    MW4 3428   2.470   1.273   1.485
  850SOL     OW 3429   2.476   1.548   1.613
  850SOL    HW2 3430   2.555   1.586   1.574
  850SOL    HW3 3431   2.468   1.462   1.571
  850SOL    MW4 3432   2.485   1.542   1.602
  851SOL     OW 3433   2.236   1.676   1.525
  851SOL    HW2 3434   2.315   1.633   1.560
  851SOL    HW3 3435   2.246   1.670   1.430
  851SOL    MW4 3436   2.248   1.669   1.517
  852SOL     OW 3437   2.231   1.930   1.616
  852SOL    HW2 3438   2.261   1.924   1.707
  852SOL    HW3 3439   2.233   1.840   1.584
  852SOL    MW4 3440   2.235   1.917   1.624
  853SOL     OW 3441   2.455   2.057   1.514
  853SOL    HW2 3442   2.366   2.032   1.540
  853SOL    HW3 3443   2.452   2.057   1.418
  853SOL    MW4 3444   2.443   2.053   1.505
  854SOL     OW 3445   2.471   2.308   1.620
  854SOL    HW2 3446   2.505   2.289   1.708
  854SOL    HW3 3447   2.473   2.224   1.575
  854SOL    MW4 3448   2.476   2.295   1.626
  855SOL     OW 3449   2.263   2.429   1.495
  855SOL    HW2 3450   2.342   2.390   1.531
  855SOL    HW3 3451   2.192   2.396   1.550
  855SOL    MW4 3452   2.264   2.420   1.507
  856SOL     OW 3453   2.204   2.681   1.582
  856SOL    HW2 3454   2.209   2.593   1.546
  856SOL    HW3 3455   2.124   2.718   1.543
  856SOL    MW4 3456   2.194   2.675   1.572
  857SOL     OW 3457   2.435   2.792   1.521
  857SOL    HW2 3458   2.419   2.883   1.543
  857SOL    HW3 3459   2.351   2.748   1.531
  857SOL    MW4 3460   2.422   2.798   1.525
  858SOL     OW 3461   2.444   3.071   1.598
  858SOL    HW2 3462   2.507   3.131   1.558
  858SOL    HW3 3463   2.360   3.116   1.589
  858SOL    MW4 3464   2.441   3.085   1.591
  859SOL     OW 3465   2.213   3.207   1.520
  859SOL    HW2 3466   2.236   3.299   1.527
  859SOL    HW3 3467   2.237   3.183   1.431
  859SOL    MW4 3468   2.219   3.216   1.509
  860SOL     OW 3469   2.284   3.470   1.574
  860SOL    HW2 3470   2.283   3.487   1.668
  860SOL    HW3 3471   2.369   3.504   1.544
  860SOL    MW4 3472   2.295   3.477   1.582
  861SOL     OW 3473   2.495   3.639   1.460
  861SOL    HW2 3474   2.582   3.603   1.477
  861SOL    HW3 3475   2.496   3.725   1.503
  861SOL    MW4 3476   2.507   3.646   1.468
  862SOL     OW 3477   2.507   3.885   1.572
  862SOL    HW2 3478   2.506   3.878   1.667
  862SOL    HW3 3479   2.590   3.928   1.552
  862SOL    MW4 3480   2.518   3.889   1.582
  863SOL     OW 3481   2.281   4.018   1.506
  863SOL    HW2 3482   2.356   3.967   1.535
  863SOL    HW3 3483   2.267   3.989   1.416
  863SOL    MW4 3484   2.289   4.007   1.498
  864SOL     OW 3485   2.244   4.289   1.583
  864SOL    HW2 3486   2.324   4.334   1.557
  864SOL    HW3 3487   2.258   4.198   1.557
  864SOL    MW4 3488   2.256   4.283   1.576
  865SOL     OW 3489   2.510   4.373   1.502
  865SOL    HW2 3490   2.513   4.465   1.529
  865SOL    HW3 3491   2.520   4.376   1.406
  865SOL    MW4 3492   2.511   4.385   1.493
  866SOL     OW 3493   2.932   4.605   1.591
  866SOL    HW2 3494   2.942   4.598   1.686
  866SOL    HW3 3495   2.846   4.645   1.579
  866SOL    MW4 3496   2.922   4.610   1.602
  867SOL     OW 3497   2.718   0.090   1.519
  867SOL    HW2 3498   2.707   0.183   1.538
  867SOL    HW3 3499   2.637   0.050   1.549
  867SOL    MW4 3500   2.706   0.097   1.525
  868SOL     OW 3501   2.702   0.363   1.568
  868SOL    HW2 3502   2.712   0.356   1.663
  868SOL    HW3 3503   2.788   0.391   1.537
  868SOL    MW4 3504   2.715   0.366   1.576
  869SOL     OW 3505   2.921   0.470   1.465
  869SOL    HW2 3506   2.925   0.562   1.491
  869SOL    HW3 3507   2.939   0.471   1.371
  869SOL    MW4 3508   2.924   0.483   1.456
  870SOL     OW 3509   2.929   0.742   1.559
  870SOL    HW2 3510   2.932   0.754   1.654
  870SOL    HW3 3511   2.851   0.791   1.531
  870SOL    MW4 3512   2.919   0.750   1.567
  871SOL     OW 3513   2.733   0.903   1.472
  871SOL    HW2 3514   2.660   0.878   1.528
  871SOL    HW3 3515   2.699   0.893   1.383
  871SOL    MW4 3516   2.719   0.898   1.468
  872SOL     OW 3517   2.731   1.177   1.543
  872SOL    HW2 3518   2.747   1.087   1.514
  872SOL    HW3 3519   2.641   1.194   1.515
  872SOL    MW4 3520   2.721   1.167   1.536
  873SOL     OW 3521   2.953   1.324   1.472
  873SOL    HW2 3522   3.022   1.284   1.525
  873SOL    HW3 3523   2.874   1.275   1.495
  873SOL    MW4 3524   2.951   1.312   1.482
  874SOL     OW 3525   2.910   1.564   1.599
  874SOL    HW2 3526   2.828   1.598   1.565
  874SOL    HW3 3527   2.928   1.486   1.548
  874SOL    MW4 3528   2.902   1.559   1.588
  875SOL     OW 3529   2.683   1.693   1.505
  875SOL    HW2 3530   2.687   1.782   1.538
  875SOL    HW3 3531   2.675   1.702   1.410
  875SOL    MW4 3532   2.682   1.706   1.496
  876SOL     OW 3533   2.690   1.950   1.592
  876SOL    HW2 3534   2.707   1.943   1.686
  876SOL    HW3 3535   2.606   1.994   1.586
  876SOL    MW4 3536   2.681   1.955   1.604
  877SOL     OW 3537   2.921   2.091   1.474
  877SOL    HW2 3538   2.914   2.171   1.526
  877SOL    HW3 3539   2.846   2.038   1.500
  877SOL    MW4 3540   2.910   2.094   1.484
  878SOL     OW 3541   2.920   2.320   1.614
  878SOL    HW2 3542   2.925   2.333   1.709
  878SOL    HW3 3543   2.846   2.373   1.587
  878SOL    MW4 3544   2.911   2.329   1.623
  879SOL     OW 3545   2.688   2.442   1.509
  879SOL    HW2 3546   2.695   2.525   1.558
  879SOL    HW3 3547   2.617   2.395   1.552
  879SOL    MW4 3548   2.679   2.447   1.521
  880SOL     OW 3549   2.694   2.696   1.607
  880SOL    HW2 3550   2.756   2.733   1.545
  880SOL    HW3 3551   2.609   2.734   1.583
  880SOL    MW4 3552   2.691   2.706   1.596
  881SOL     OW 3553   2.908   2.851   1.481
  881SOL    HW2 3554   2.973   2.792   1.518
  881SOL    HW3 3555   2.924   2.935   1.525
  881SOL    MW4 3556   2.918   2.855   1.491
  882SOL     OW 3557   2.901   3.101   1.606
  882SOL    HW2 3558   2.902   3.095   1.701
  882SOL    HW3 3559   2.984   3.143   1.583
  882SOL    MW4 3560   2.912   3.106   1.615
  883SOL     OW 3561   2.655   3.228   1.515
  883SOL    HW2 3562   2.739   3.196   1.548
  883SOL    HW3 3563   2.655   3.204   1.422
  883SOL    MW4 3564   2.666   3.221   1.507
  884SOL     OW 3565   2.703   3.493   1.566
  884SOL    HW2 3566   2.712   3.485   1.661
  884SOL    HW3 3567   2.682   3.404   1.537
  884SOL    MW4 3568   2.702   3.480   1.575
  885SOL     OW 3569   2.961   3.606   1.479
  885SOL    HW2 3570   2.883   3.557   1.504
  885SOL    HW3 3571   2.946   3.629   1.387
  885SOL    MW4 3572   2.949   3.603   1.470
  886SOL     OW 3573   2.980   3.836   1.614
  886SOL    HW2 3574   2.895   3.872   1.588
  886SOL    HW3 3575   2.983   3.751   1.570
  886SOL    MW4 3576   2.969   3.829   1.605
  887SOL     OW 3577   2.754   3.989   1.507
  887SOL    HW2 3578   2.740   4.076   1.545
  887SOL    HW3 3579   2.752   4.004   1.412
  887SOL    MW4 3580   2.752   4.002   1.499
  888SOL     OW 3581   2.726   4.241   1.639
  888SOL    HW2 3582   2.789   4.305   1.607
  888SOL    HW3 3583   2.641   4.275   1.613
  888SOL    MW4 3584   2.723   4.254   1.631
  889SOL     OW 3585   2.945   4.354   1.499
  889SOL    HW2 3586   2.941   4.443   1.533
  889SOL    HW3 3587   2.943   4.365   1.404
  889SOL    MW4 3588   2.945   4.367   1.491
  890SOL     OW 3589   3.387   4.629   1.629
  890SOL    HW2 3590   3.469   4.669   1.601
  890SOL    HW3 3591   3.385   4.544   1.584
  890SOL    MW4 3592   3.397   4.623   1.619
  891SOL     OW 3593   3.161   0.080   1.496
  891SOL    HW2 3594   3.227   0.033   1.547
  891SOL    HW3 3595   3.077   0.049   1.531
  891SOL    MW4 3596   3.159   0.069   1.507
  892SOL     OW 3597   3.123   0.336   1.597
  892SOL    HW2 3598   3.100   0.246   1.571
  892SOL    HW3 3599   3.057   0.391   1.555
  892SOL    MW4 3600   3.111   0.331   1.588
  893SOL     OW 3601   3.361   0.453   1.520
  893SOL    HW2 3602   3.279   0.410   1.543
  893SOL    HW3 3603   3.364   0.452   1.425
  893SOL    MW4 3604   3.351   0.447   1.511
  894SOL     OW 3605   3.373   0.727   1.574
  894SOL    HW2 3606   3.382   0.745   1.668
  894SOL    HW3 3607   3.382   0.632   1.567
  894SOL    MW4 3608   3.375   0.717   1.586
  895SOL     OW 3609   3.144   0.888   1.485
  895SOL    HW2 3610   3.226   0.845   1.511
  895SOL    HW3 3611   3.075   0.832   1.519
  895SOL    MW4 3612   3.146   0.875   1.493
  896SOL     OW 3613   3.140   1.167   1.596
  896SOL    HW2 3614   3.145   1.167   1.691
  896SOL    HW3 3615   3.134   1.074   1.572
  896SOL    MW4 3616   3.140   1.154   1.605
  897SOL     OW 3617   3.373   1.272   1.449
  897SOL    HW2 3618   3.449   1.238   1.497
  897SOL    HW3 3619   3.298   1.228   1.489
  897SOL    MW4 3620   3.373   1.262   1.461
  898SOL     OW 3621   3.331   1.534   1.555
  898SOL    HW2 3622   3.336   1.529   1.651
  898SOL    HW3 3623   3.366   1.449   1.525
  898SOL    MW4 3624   3.337   1.522   1.564
  899SOL     OW 3625   3.134   1.695   1.456
  899SOL    HW2 3626   3.206   1.640   1.488
  899SOL    HW3 3627   3.059   1.669   1.511
  899SOL    MW4 3628   3.133   1.684   1.468
  900SOL     OW 3629   3.143   1.935   1.579
  900SOL    HW2 3630   3.144   1.853   1.530
  900SOL    HW3 3631   3.063   1.979   1.551
  900SOL    MW4 3632   3.133   1.930   1.569
  901SOL     OW 3633   3.371   2.060   1.499
  901SOL    HW2 3634   3.292   2.013   1.526
  901SOL    HW3 3635   3.379   2.042   1.406
  901SOL    MW4 3636   3.362   2.051   1.491
  902SOL     OW 3637   3.358   2.310   1.593
  902SOL    HW2 3638   3.444   2.343   1.568
  902SOL    HW3 3639   3.351   2.224   1.550
  902SOL    MW4 3640   3.368   2.303   1.584
  903SOL     OW 3641   3.135   2.426   1.488
  903SOL    HW2 3642   3.212   2.391   1.533
  903SOL    HW3 3643   3.061   2.384   1.530
  903SOL    MW4 3644   3.136   2.416   1.499
  904SOL     OW 3645   3.098   2.696   1.581
  904SOL    HW2 3646   3.166   2.750   1.540
  904SOL    HW3 3647   3.126   2.606   1.565
  904SOL    MW4 3648   3.111   2.692   1.573
  905SOL     OW 3649   3.318   2.842   1.481
  905SOL    HW2 3650   3.328   2.923   1.532
  905SOL    HW3 3651   3.374   2.854   1.405
  905SOL    MW4 3652   3.327   2.855   1.478
  906SOL     OW 3653   3.359   3.092   1.618
  906SOL    HW2 3654   3.367   3.099   1.714
  906SOL    HW3 3655   3.430   3.147   1.584
  906SOL    MW4 3656   3.369   3.100   1.626
  907SOL     OW 3657   3.133   3.211   1.525
  907SOL    HW2 3658   3.204   3.156   1.559
  907SOL    HW3 3659   3.152   3.218   1.431
  907SOL    MW4 3660   3.145   3.205   1.517
  908SOL     OW 3661   3.171   3.472   1.581
  908SOL    HW2 3662   3.162   3.377   1.570
  908SOL    HW3 3663   3.095   3.509   1.536
  908SOL    MW4 3664   3.160   3.464   1.574
  909SOL     OW 3665   3.392   3.564   1.456
  909SOL    HW2 3666   3.464   3.523   1.504
  909SOL    HW3 3667   3.314   3.542   1.507
  909SOL    MW4 3668   3.391   3.556   1.469
  910SOL     OW 3669   3.394   3.831   1.574
  910SOL    HW2 3670   3.315   3.873   1.541
  910SOL    HW3 3671   3.392   3.743   1.535
  910SOL    MW4 3672   3.383   3.825   1.564
  911SOL     OW 3673   3.178   3.973   1.479
  911SOL    HW2 3674   3.189   4.062   1.515
  911SOL    HW3 3675   3.101   3.939   1.524
  911SOL    MW4 3676   3.170   3.981   1.490
  912SOL     OW 3677   3.171   4.217   1.584
  912SOL    HW2 3678   3.175   4.233   1.678
  912SOL    HW3 3679   3.092   4.263   1.555
  912SOL    MW4 3680   3.161   4.226   1.592
  913SOL     OW 3681   3.380   4.386   1.468
  913SOL    HW2 3682   3.297   4.345   1.493
  913SOL    HW3 3683   3.373   4.399   1.374
  913SOL    MW4 3684   3.369   4.382   1.459
  914SOL     OW 3685   3.844   4.585   1.558
  914SOL    HW2 3686   3.845   4.589   1.653
  914SOL    HW3 3687   3.909   4.649   1.531
  914SOL    MW4 3688   3.853   4.594   1.567
  915SOL     OW 3689   3.648   0.103   1.522
  915SOL    HW2 3690   3.724   0.045   1.516
  915SOL    HW3 3691   3.612   0.103   1.433
  915SOL    MW4 3692   3.653   0.096   1.509
  916SOL     OW 3693   3.610   0.377   1.621
  916SOL    HW2 3694   3.623   0.286   1.593
  916SOL    HW3 3695   3.523   0.400   1.589
  916SOL    MW4 3696   3.600   0.368   1.613
  917SOL     OW 3697   3.825   0.494   1.500
  917SOL    HW2 3698   3.754   0.451   1.548
  917SOL    HW3 3699   3.820   0.457   1.412
  917SOL    MW4 3700   3.815   0.484   1.495
  918SOL     OW 3701   3.804   0.755   1.592
  918SOL    HW2 3702   3.722   0.799   1.569
  918SOL    HW3 3703   3.792   0.665   1.559
  918SOL    MW4 3704   3.791   0.749   1.585
  919SOL     OW 3705   3.580   0.896   1.494
  919SOL    HW2 3706   3.503   0.844   1.518
  919SOL    HW3 3707   3.585   0.889   1.399
  919SOL    MW4 3708   3.571   0.888   1.485
  920SOL     OW 3709   3.587   1.175   1.573
  920SOL    HW2 3710   3.673   1.212   1.552
  920SOL    HW3 3711   3.591   1.084   1.542
  920SOL    MW4 3712   3.599   1.168   1.566
  921SOL     OW 3713   3.840   1.268   1.500
  921SOL    HW2 3714   3.922   1.237   1.537
  921SOL    HW3 3715   3.829   1.356   1.536
  921SOL    MW4 3716   3.849   1.276   1.510
  922SOL     OW 3717   3.816   1.520   1.591
  922SOL    HW2 3718   3.840   1.530   1.684
  922SOL    HW3 3719   3.742   1.578   1.579
  922SOL    MW4 3720   3.810   1.529   1.602
  923SOL     OW 3721   3.566   1.684   1.494
  923SOL    HW2 3722   3.476   1.652   1.503
  923SOL    HW3 3723   3.588   1.669   1.402
  923SOL    MW4 3724   3.557   1.677   1.483
  924SOL     OW 3725   3.621   1.960   1.551
  924SOL    HW2 3726   3.602   1.870   1.522
  924SOL    HW3 3727   3.541   2.008   1.534
  924SOL    MW4 3728   3.608   1.954   1.545
  925SOL     OW 3729   3.853   2.083   1.481
  925SOL    HW2 3730   3.853   2.164   1.532
  925SOL    HW3 3731   3.773   2.038   1.507
  925SOL    MW4 3732   3.843   2.087   1.491
  926SOL     OW 3733   3.854   2.320   1.613
  926SOL    HW2 3734   3.857   2.337   1.707
  926SOL    HW3 3735   3.938   2.351   1.580
  926SOL    MW4 3736   3.865   2.326   1.621
  927SOL     OW 3737   3.605   2.408   1.502
  927SOL    HW2 3738   3.606   2.499   1.530
  927SOL    HW3 3739   3.674   2.366   1.553
  927SOL    MW4 3740   3.614   2.414   1.512
  928SOL     OW 3741   3.590   2.692   1.543
  928SOL    HW2 3742   3.576   2.692   1.638
  928SOL    HW3 3743   3.516   2.740   1.508
  928SOL    MW4 3744   3.579   2.698   1.551
  929SOL     OW 3745   3.831   2.797   1.470
  929SOL    HW2 3746   3.893   2.745   1.522
  929SOL    HW3 3747   3.745   2.770   1.501
  929SOL    MW4 3748   3.828   2.786   1.481
  930SOL     OW 3749   3.829   3.056   1.582
  930SOL    HW2 3750   3.889   3.118   1.540
  930SOL    HW3 3751   3.849   2.972   1.541
  930SOL    MW4 3752   3.840   3.053   1.571
  931SOL     OW 3753   3.599   3.180   1.502
  931SOL    HW2 3754   3.679   3.132   1.523
  931SOL    HW3 3755   3.602   3.191   1.407
  931SOL    MW4 3756   3.610   3.175   1.492
  932SOL     OW 3757   3.611   3.435   1.578
  932SOL    HW2 3758   3.684   3.483   1.539
  932SOL    HW3 3759   3.627   3.344   1.555
  932SOL    MW4 3760   3.623   3.430   1.570
  933SOL     OW 3761   3.824   3.583   1.485
  933SOL    HW2 3762   3.900   3.536   1.518
  933SOL    HW3 3763   3.828   3.668   1.528
  933SOL    MW4 3764   3.835   3.588   1.495
  934SOL     OW 3765   3.843   3.869   1.596
  934SOL    HW2 3766   3.917   3.901   1.545
  934SOL    HW3 3767   3.767   3.909   1.555
  934SOL    MW4 3768   3.843   3.879   1.584
  935SOL     OW 3769   3.619   3.982   1.499
  935SOL    HW2 3770   3.604   4.068   1.539
  935SOL    HW3 3771   3.543   3.929   1.525
  935SOL    MW4 3772   3.607   3.986   1.508
  936SOL     OW 3773   3.591   4.252   1.601
  936SOL    HW2 3774   3.578   4.274   1.693
  936SOL    HW3 3775   3.512   4.283   1.557
  936SOL    MW4 3776   3.579   4.259   1.607
  937SOL     OW 3777   3.833   4.323   1.486
  937SOL    HW2 3778   3.743   4.307   1.514
  937SOL    HW3 3779   3.847   4.416   1.503
  937SOL    MW4 3780   3.823   4.333   1.492
  938SOL     OW 3781   4.310   4.664   1.598
  938SOL    HW2 3782   4.294   4.677   1.692
  938SOL    HW3 3783   4.318   4.569   1.589
  938SOL    MW4 3784   4.309   4.653   1.609
  939SOL     OW 3785   4.090   0.091   1.465
  939SOL    HW2 3786   4.079   0.184   1.486
  939SOL    HW3 3787   4.172   0.066   1.508
  939SOL    MW4 3788   4.099   0.100   1.473
  940SOL     OW 3789   4.055   0.367   1.566
  940SOL    HW2 3790   4.058   0.357   1.661
  940SOL    HW3 3791   3.977   0.420   1.551
  940SOL    MW4 3792   4.045   0.373   1.577
  941SOL     OW 3793   4.309   0.506   1.471
  941SOL    HW2 3794   4.232   0.452   1.490
  941SOL    HW3 3795   4.384   0.448   1.489
  941SOL    MW4 3796   4.309   0.491   1.476
  942SOL     OW 3797   4.288   0.738   1.615
  942SOL    HW2 3798   4.295   0.654   1.569
  942SOL    HW3 3799   4.372   0.782   1.598
  942SOL    MW4 3800   4.300   0.733   1.607
  943SOL     OW 3801   4.054   0.879   1.534
  943SOL    HW2 3802   4.125   0.819   1.557
  943SOL    HW3 3803   3.974   0.829   1.552
  943SOL    MW4 3804   4.053   0.864   1.539
  944SOL     OW 3805   4.072   1.134   1.602
  944SOL    HW2 3806   4.051   1.145   1.695
  944SOL    HW3 3807   4.058   1.040   1.585
  944SOL    MW4 3808   4.067   1.123   1.612
  945SOL     OW 3809   4.291   1.289   1.524
  945SOL    HW2 3810   4.215   1.240   1.553
  945SOL    HW3 3811   4.363   1.258   1.580
  945SOL    MW4 3812   4.291   1.279   1.536
  946SOL     OW 3813   4.242   1.545   1.633
  946SOL    HW2 3814   4.244   1.459   1.589
  946SOL    HW3 3815   4.325   1.586   1.609
  946SOL    MW4 3816   4.253   1.539   1.624
  947SOL     OW 3817   4.023   1.675   1.503
  947SOL    HW2 3818   4.103   1.638   1.540
  947SOL    HW3 3819   3.953   1.618   1.537
  947SOL    MW4 3820   4.024   1.663   1.513
  948SOL     OW 3821   4.061   1.934   1.599
  948SOL    HW2 3822   4.041   1.847   1.565
  948SOL    HW3 3823   3.999   1.993   1.555
  948SOL    MW4 3824   4.050   1.931   1.589
  949SOL     OW 3825   4.316   2.043   1.517
  949SOL    HW2 3826   4.235   1.997   1.539
  949SOL    HW3 3827   4.319   2.043   1.422
  949SOL    MW4 3828   4.305   2.037   1.508
  950SOL     OW 3829   4.311   2.318   1.591
  950SOL    HW2 3830   4.320   2.324   1.686
  950SOL    HW3 3831   4.331   2.226   1.571
  950SOL    MW4 3832   4.315   2.307   1.601
  951SOL     OW 3833   4.075   2.420   1.493
  951SOL    HW2 3834   4.083   2.513   1.513
  951SOL    HW3 3835   4.158   2.382   1.522
  951SOL    MW4 3836   4.087   2.427   1.500
  952SOL     OW 3837   4.062   2.688   1.568
  952SOL    HW2 3838   4.077   2.678   1.662
  952SOL    HW3 3839   4.131   2.748   1.539
  952SOL    MW4 3840   4.073   2.695   1.577
  953SOL     OW 3841   4.254   2.858   1.482
  953SOL    HW2 3842   4.268   2.945   1.518
  953SOL    HW3 3843   4.265   2.868   1.387
  953SOL    MW4 3844   4.257   2.871   1.474
  954SOL     OW 3845   4.238   3.106   1.606
  954SOL    HW2 3846   4.245   3.097   1.701
  954SOL    HW3 3847   4.307   3.168   1.583
  954SOL    MW4 3848   4.248   3.113   1.615
  955SOL     OW 3849   4.033   3.210   1.462
  955SOL    HW2 3850   4.042   3.295   1.504
  955SOL    HW3 3851   4.095   3.153   1.508
  955SOL    MW4 3852   4.043   3.213   1.473
  956SOL     OW 3853   4.058   3.446   1.595
  956SOL    HW2 3854   4.035   3.466   1.686
  956SOL    HW3 3855   4.146   3.482   1.585
  956SOL    MW4 3856   4.067   3.453   1.606
  957SOL     OW 3857   4.295   3.575   1.497
  957SOL    HW2 3858   4.281   3.667   1.520
  957SOL    HW3 3859   4.292   3.572   1.401
  957SOL    MW4 3860   4.293   3.586   1.487
  958SOL     OW 3861   4.285   3.842   1.572
  958SOL    HW2 3862   4.203   3.871   1.532
  958SOL    HW3 3863   4.353   3.893   1.528
  958SOL    MW4 3864   4.284   3.852   1.561
  959SOL     OW 3865   4.054   3.956   1.438
  959SOL    HW2 3866   4.060   4.047   1.467
  959SOL    HW3 3867   4.033   3.961   1.345
  959SOL    MW4 3868   4.052   3.968   1.429
  960SOL     OW 3869   4.074   4.215   1.571
  960SOL    HW2 3870   4.073   4.215   1.667
  960SOL    HW3 3871   3.987   4.246   1.546
  960SOL    MW4 3872   4.063   4.219   1.581
  961SOL     OW 3873   4.273   4.384   1.517
  961SOL    HW2 3874   4.199   4.325   1.529
  961SOL    HW3 3875   4.262   4.420   1.430
  961SOL    MW4 3876   4.262   4.381   1.507
  962SOL     OW 3877   0.230   4.665   1.908
  962SOL    HW2 3878   0.314   4.689   1.946
  962SOL    HW3 3879   0.234   4.696   1.817
  962SOL    MW4 3880   0.241   4.673   1.901
  963SOL     OW 3881   4.470   0.088   2.026
  963SOL    HW2 3882   4.460   0.172   1.981
  963SOL    HW3 3883   4.556   0.055   1.997
  963SOL    MW4 3884   4.480   0.094   2.016
  964SOL     OW 3885   4.489   0.334   1.854
  964SOL    HW2 3886   4.419   0.380   1.900
  964SOL    HW3 3887   4.570   0.371   1.890
  964SOL    MW4 3888   4.490   0.345   1.865
  965SOL     OW 3889   0.229   0.450   1.976
  965SOL    HW2 3890   0.320   0.428   1.956
  965SOL    HW3 3891   0.221   0.542   1.951
  965SOL    MW4 3892   0.240   0.459   1.970
  966SOL     OW 3893   0.236   0.706   1.909
  966SOL    HW2 3894   0.307   0.763   1.938
  966SOL    HW3 3895   0.243   0.708   1.813
  966SOL    MW4 3896   0.246   0.714   1.900
  967SOL     OW 3897   4.488   0.853   2.000
  967SOL    HW2 3898   4.404   0.815   1.974
  967SOL    HW3 3899   4.554   0.794   1.965
  967SOL    MW4 3900   4.486   0.840   1.992
  968SOL     OW 3901   0.037   1.128   1.911
  968SOL    HW2 3902  -0.048   1.167   1.934
  968SOL    HW3 3903   0.033   1.039   1.945
  968SOL    MW4 3904   0.025   1.121   1.919
  969SOL     OW 3905   0.242   1.313   1.978
  969SOL    HW2 3906   0.238   1.404   1.950
  969SOL    HW3 3907   0.166   1.272   1.937
  969SOL    MW4 3908   0.231   1.319   1.969
  970SOL     OW 3909   0.214   1.570   1.875
  970SOL    HW2 3910   0.294   1.618   1.893
  970SOL    HW3 3911   0.144   1.627   1.910
  970SOL    MW4 3912   0.215   1.584   1.882
  971SOL     OW 3913   0.005   1.713   2.020
  971SOL    HW2 3914  -0.005   1.709   2.115
  971SOL    HW3 3915  -0.066   1.659   1.986
  971SOL    MW4 3916  -0.006   1.706   2.028
  972SOL     OW 3917   4.467   1.932   1.865
  972SOL    HW2 3918   4.390   1.982   1.892
  972SOL    HW3 3919   4.473   1.861   1.928
  972SOL    MW4 3920   4.458   1.929   1.877
  973SOL     OW 3921   0.213   2.054   1.990
  973SOL    HW2 3922   0.223   2.144   1.960
  973SOL    HW3 3923   0.138   2.020   1.941
  973SOL    MW4 3924   0.205   2.061   1.980
  974SOL     OW 3925   0.242   2.301   1.919
  974SOL    HW2 3926   0.307   2.364   1.950
  974SOL    HW3 3927   0.158   2.340   1.941
  974SOL    MW4 3928   0.239   2.314   1.926
  975SOL     OW 3929   0.030   2.449   1.974
  975SOL    HW2 3930   0.030   2.446   2.070
  975SOL    HW3 3931   0.019   2.542   1.954
  975SOL    MW4 3932   0.028   2.461   1.984
  976SOL     OW 3933   4.481   2.727   1.911
  976SOL    HW2 3934   4.400   2.771   1.938
  976SOL    HW3 3935   4.478   2.729   1.815
  976SOL    MW4 3936   4.470   2.733   1.902
  977SOL     OW 3937   0.231   2.844   1.954
  977SOL    HW2 3938   0.218   2.938   1.945
  977SOL    HW3 3939   0.145   2.806   1.935
  977SOL    MW4 3940   0.218   2.851   1.950
  978SOL     OW 3941   0.216   3.132   1.934
  978SOL    HW2 3942   0.293   3.174   1.972
  978SOL    HW3 3943   0.217   3.158   1.842
  978SOL    MW4 3944   0.226   3.141   1.927
  979SOL     OW 3945   4.462   3.260   2.027
  979SOL    HW2 3946   4.387   3.219   1.983
  979SOL    HW3 3947   4.536   3.200   2.009
  979SOL    MW4 3948   4.462   3.246   2.019
  980SOL     OW 3949   0.028   3.464   1.876
  980SOL    HW2 3950   0.112   3.495   1.909
  980SOL    HW3 3951   0.006   3.390   1.932
  980SOL    MW4 3952   0.036   3.458   1.888
  981SOL     OW 3953   0.261   3.580   2.003
  981SOL    HW2 3954   0.249   3.593   2.097
  981SOL    HW3 3955   0.352   3.550   1.995
  981SOL    MW4 3956   0.271   3.578   2.015
  982SOL     OW 3957   0.250   3.841   1.863
  982SOL    HW2 3958   0.305   3.902   1.913
  982SOL    HW3 3959   0.278   3.754   1.892
  982SOL    MW4 3960   0.261   3.838   1.874
  983SOL     OW 3961   0.020   3.950   1.961
  983SOL    HW2 3962   0.022   4.029   1.907
  983SOL    HW3 3963   0.092   3.896   1.928
  983SOL    MW4 3964   0.030   3.953   1.950
  984SOL     OW 3965   0.003   4.210   1.831
  984SOL    HW2 3966  -0.070   4.245   1.883
  984SOL    HW3 3967   0.081   4.247   1.873
  984SOL    MW4 3968   0.004   4.220   1.844
  985SOL     OW 3969   0.190   4.352   1.976
  985SOL    HW2 3970   0.192   4.362   2.072
  985SOL    HW3 3971   0.205   4.441   1.943
  985SOL    MW4 3972   0.192   4.365   1.985
  986SOL     OW 3973   0.677   4.657   1.902
  986SOL    HW2 3974   0.665   4.565   1.925
  986SOL    HW3 3975   0.670   4.660   1.807
  986SOL    MW4 3976   0.674   4.645   1.893
  987SOL     OW 3977   0.456   0.104   2.031
  987SOL    HW2 3978   0.453   0.192   1.993
  987SOL    HW3 3979   0.538   0.066   1.998
  987SOL    MW4 3980   0.467   0.110   2.021
  988SOL     OW 3981   0.478   0.359   1.884
  988SOL    HW2 3982   0.558   0.403   1.911
  988SOL    HW3 3983   0.486   0.350   1.789
  988SOL    MW4 3984   0.489   0.364   1.875
  989SOL     OW 3985   0.701   0.492   1.965
  989SOL    HW2 3986   0.688   0.489   2.060
  989SOL    HW3 3987   0.767   0.426   1.948
  989SOL    MW4 3988   0.708   0.483   1.975
  990SOL     OW 3989   0.674   0.758   1.866
  990SOL    HW2 3990   0.748   0.799   1.913
  990SOL    HW3 3991   0.679   0.666   1.891
  990SOL    MW4 3992   0.684   0.751   1.876
  991SOL     OW 3993   0.439   0.871   1.975
  991SOL    HW2 3994   0.443   0.966   1.963
  991SOL    HW3 3995   0.513   0.837   1.925
  991SOL    MW4 3996   0.449   0.879   1.967
  992SOL     OW 3997   0.458   1.131   1.907
  992SOL    HW2 3998   0.405   1.206   1.936
  992SOL    HW3 3999   0.456   1.136   1.811
  992SOL    MW4 4000   0.451   1.142   1.898
  993SOL     OW 4001   0.652   1.331   1.966
  993SOL    HW2 4002   0.669   1.312   2.058
  993SOL    HW3 4003   0.601   1.256   1.935
  993SOL    MW4 4004   0.647   1.318   1.974
  994SOL     OW 4005   0.682   1.574   1.856
  994SOL    HW2 4006   0.665   1.485   1.886
  994SOL    HW3 4007   0.692   1.566   1.762
  994SOL    MW4 4008   0.681   1.561   1.848
  995SOL     OW 4009   0.460   1.697   1.990
  995SOL    HW2 4010   0.480   1.709   2.082
  995SOL    HW3 4011   0.543   1.668   1.951
  995SOL    MW4 4012   0.474   1.695   1.997
  996SOL     OW 4013   0.449   1.952   1.871
  996SOL    HW2 4014   0.448   1.879   1.933
  996SOL    HW3 4015   0.382   2.012   1.904
  996SOL    MW4 4016   0.440   1.950   1.884
  997SOL     OW 4017   0.655   2.117   1.979
  997SOL    HW2 4018   0.654   2.118   2.075
  997SOL    HW3 4019   0.606   2.038   1.956
  997SOL    MW4 4020   0.648   2.106   1.988
  998SOL     OW 4021   0.647   2.354   1.830
  998SOL    HW2 4022   0.656   2.271   1.877
  998SOL    HW3 4023   0.673   2.333   1.740
  998SOL    MW4 4024   0.652   2.340   1.824
  999SOL     OW 4025   0.431   2.482   1.963
  999SOL    HW2 4026   0.443   2.461   2.056
  999SOL    HW3 4027   0.511   2.449   1.921
  999SOL    MW4 4028   0.443   2.475   1.970
 1000SOL     OW 4029   0.454   2.736   1.857
 1000SOL    HW2 4030   0.451   2.649   1.897
 1000SOL    HW3 4031   0.373   2.778   1.886
 1000SOL    MW4 4032   0.443   2.730   1.866
 1001SOL     OW 4033   0.696   2.852   1.997
 1001SOL    HW2 4034   0.682   2.856   2.092
 1001SOL    HW3 4035   0.618   2.809   1.963
 1001SOL    MW4 4036   0.684   2.847   2.005
 1002SOL     OW 4037   0.659   3.109   1.899
 1002SOL    HW2 4038   0.667   3.023   1.939
 1002SOL    HW3 4039   0.648   3.090   1.805
 1002SOL    MW4 4040   0.659   3.095   1.892
 1003SOL     OW 4041   0.463   3.242   2.038
 1003SOL    HW2 4042   0.480   3.336   2.032
 1003SOL    HW3 4043   0.532   3.201   1.986
 1003SOL    MW4 4044   0.474   3.249   2.030
 1004SOL     OW 4045   0.512   3.505   1.951
 1004SOL    HW2 4046   0.570   3.580   1.960
 1004SOL    HW3 4047   0.502   3.493   1.856
 1004SOL    MW4 4048   0.518   3.513   1.940
 1005SOL     OW 4049   0.729   3.641   2.041
 1005SOL    HW2 4050   0.780   3.586   1.981
 1005SOL    HW3 4051   0.726   3.726   1.998
 1005SOL    MW4 4052   0.736   3.645   2.028
 1006SOL     OW 4053   0.679   3.865   1.881
 1006SOL    HW2 4054   0.764   3.907   1.892
 1006SOL    HW3 4055   0.656   3.881   1.789
 1006SOL    MW4 4056   0.687   3.873   1.870
 1007SOL     OW 4057   0.480   3.991   2.004
 1007SOL    HW2 4058   0.466   4.076   1.963
 1007SOL    HW3 4059   0.553   3.953   1.957
 1007SOL    MW4 4060   0.488   3.997   1.993
 1008SOL     OW 4061   0.443   4.252   1.888
 1008SOL    HW2 4062   0.353   4.276   1.911
 1008SOL    HW3 4063   0.444   4.250   1.792
 1008SOL    MW4 4064   0.431   4.255   1.879
 1009SOL     OW 4065   0.677   4.386   1.976
 1009SOL    HW2 4066   0.762   4.345   1.956
 1009SOL    HW3 4067   0.612   4.324   1.943
 1009SOL    MW4 4068   0.680   4.372   1.969
 1010SOL     OW 4069   1.157   4.642   1.868
 1010SOL    HW2 4070   1.221   4.691   1.919
 1010SOL    HW3 4071   1.144   4.560   1.915
 1010SOL    MW4 4072   1.164   4.638   1.881
 1011SOL     OW 4073   0.928   0.071   2.014
 1011SOL    HW2 4074   0.996   0.026   1.965
 1011SOL    HW3 4075   0.846   0.035   1.980
 1011SOL    MW4 4076   0.926   0.060   2.003
 1012SOL     OW 4077   0.922   0.319   1.901
 1012SOL    HW2 4078   0.995   0.365   1.943
 1012SOL    HW3 4079   0.933   0.228   1.928
 1012SOL    MW4 4080   0.933   0.313   1.910
 1013SOL     OW 4081   1.130   0.509   1.975
 1013SOL    HW2 4082   1.210   0.472   1.936
 1013SOL    HW3 4083   1.115   0.589   1.926
 1013SOL    MW4 4084   1.139   0.514   1.963
 1014SOL     OW 4085   1.108   0.760   1.848
 1014SOL    HW2 4086   1.188   0.792   1.889
 1014SOL    HW3 4087   1.040   0.819   1.879
 1014SOL    MW4 4088   1.109   0.772   1.857
 1015SOL     OW 4089   0.897   0.890   1.975
 1015SOL    HW2 4090   0.894   0.880   2.070
 1015SOL    HW3 4091   0.890   0.985   1.961
 1015SOL    MW4 4092   0.896   0.902   1.986
 1016SOL     OW 4093   0.876   1.170   1.879
 1016SOL    HW2 4094   0.798   1.207   1.921
 1016SOL    HW3 4095   0.865   1.190   1.786
 1016SOL    MW4 4096   0.864   1.178   1.872
 1017SOL     OW 4097   1.124   1.230   1.983
 1017SOL    HW2 4098   1.140   1.320   1.953
 1017SOL    HW3 4099   1.037   1.209   1.951
 1017SOL    MW4 4100   1.115   1.239   1.975
 1018SOL     OW 4101   1.125   1.515   1.880
 1018SOL    HW2 4102   1.047   1.567   1.896
 1018SOL    HW3 4103   1.130   1.507   1.785
 1018SOL    MW4 4104   1.115   1.520   1.869
 1019SOL     OW 4105   0.916   1.664   1.957
 1019SOL    HW2 4106   0.911   1.756   1.933
 1019SOL    HW3 4107   0.830   1.628   1.935
 1019SOL    MW4 4108   0.904   1.671   1.951
 1020SOL     OW 4109   0.879   1.952   1.923
 1020SOL    HW2 4110   0.811   2.013   1.951
 1020SOL    HW3 4111   0.854   1.927   1.834
 1020SOL    MW4 4112   0.867   1.957   1.915
 1021SOL     OW 4113   1.140   2.044   2.017
 1021SOL    HW2 4114   1.131   2.139   2.009
 1021SOL    HW3 4115   1.053   2.010   1.998
 1021SOL    MW4 4116   1.128   2.052   2.013
 1022SOL     OW 4117   1.107   2.316   1.895
 1022SOL    HW2 4118   1.185   2.353   1.937
 1022SOL    HW3 4119   1.130   2.314   1.802
 1022SOL    MW4 4120   1.120   2.320   1.888
 1023SOL     OW 4121   0.887   2.454   1.964
 1023SOL    HW2 4122   0.953   2.393   1.933
 1023SOL    HW3 4123   0.807   2.428   1.918
 1023SOL    MW4 4124   0.885   2.443   1.954
 1024SOL     OW 4125   0.925   2.719   1.888
 1024SOL    HW2 4126   0.924   2.625   1.907
 1024SOL    HW3 4127   0.858   2.755   1.946
 1024SOL    MW4 4128   0.916   2.711   1.898
 1025SOL     OW 4129   1.152   2.830   1.996
 1025SOL    HW2 4130   1.157   2.853   2.088
 1025SOL    HW3 4131   1.065   2.792   1.985
 1025SOL    MW4 4132   1.141   2.828   2.007
 1026SOL     OW 4133   1.139   3.082   1.851
 1026SOL    HW2 4134   1.070   3.124   1.902
 1026SOL    HW3 4135   1.166   3.007   1.903
 1026SOL    MW4 4136   1.134   3.078   1.864
 1027SOL     OW 4137   0.898   3.204   1.993
 1027SOL    HW2 4138   0.897   3.201   2.089
 1027SOL    HW3 4139   0.809   3.180   1.968
 1027SOL    MW4 4140   0.886   3.200   2.002
 1028SOL     OW 4141   0.881   3.469   1.893
 1028SOL    HW2 4142   0.886   3.378   1.924
 1028SOL    HW3 4143   0.882   3.461   1.797
 1028SOL    MW4 4144   0.882   3.456   1.884
 1029SOL     OW 4145   1.138   3.580   1.967
 1029SOL    HW2 4146   1.141   3.570   2.062
 1029SOL    HW3 4147   1.056   3.537   1.941
 1029SOL    MW4 4148   1.128   3.573   1.976
 1030SOL     OW 4149   1.159   3.870   1.881
 1030SOL    HW2 4150   1.148   3.778   1.903
 1030SOL    HW3 4151   1.142   3.875   1.787
 1030SOL    MW4 4152   1.155   3.859   1.871
 1031SOL     OW 4153   0.912   3.977   1.968
 1031SOL    HW2 4154   0.898   3.977   2.062
 1031SOL    HW3 4155   0.994   3.930   1.955
 1031SOL    MW4 4156   0.921   3.971   1.978
 1032SOL     OW 4157   0.900   4.263   1.893
 1032SOL    HW2 4158   0.976   4.305   1.932
 1032SOL    HW3 4159   0.889   4.182   1.943
 1032SOL    MW4 4160   0.909   4.258   1.905
 1033SOL     OW 4161   1.102   4.401   1.991
 1033SOL    HW2 4162   1.114   4.414   2.085
 1033SOL    HW3 4163   1.181   4.356   1.962
 1033SOL    MW4 4164   1.114   4.397   1.999
 1034SOL     OW 4165   1.548   4.653   1.870
 1034SOL    HW2 4166   1.629   4.694   1.901
 1034SOL    HW3 4167   1.560   4.560   1.890
 1034SOL    MW4 4168   1.561   4.646   1.877
 1035SOL     OW 4169   1.342   0.137   1.995
 1035SOL    HW2 4170   1.352   0.145   2.090
 1035SOL    HW3 4171   1.412   0.077   1.969
 1035SOL    MW4 4172   1.353   0.130   2.004
 1036SOL     OW 4173   1.344   0.375   1.861
 1036SOL    HW2 4174   1.339   0.284   1.890
 1036SOL    HW3 4175   1.330   0.371   1.767
 1036SOL    MW4 4176   1.342   0.363   1.852
 1037SOL     OW 4177   1.584   0.498   1.982
 1037SOL    HW2 4178   1.663   0.450   1.957
 1037SOL    HW3 4179   1.514   0.457   1.932
 1037SOL    MW4 4180   1.585   0.486   1.972
 1038SOL     OW 4181   1.602   0.751   1.881
 1038SOL    HW2 4182   1.669   0.801   1.926
 1038SOL    HW3 4183   1.594   0.669   1.931
 1038SOL    MW4 4184   1.610   0.746   1.893
 1039SOL     OW 4185   1.340   0.853   1.942
 1039SOL    HW2 4186   1.349   0.847   2.037
 1039SOL    HW3 4187   1.430   0.845   1.909
 1039SOL    MW4 4188   1.353   0.851   1.950
 1040SOL     OW 4189   1.344   1.120   1.840
 1040SOL    HW2 4190   1.342   1.029   1.869
 1040SOL    HW3 4191   1.274   1.162   1.890
 1040SOL    MW4 4192   1.334   1.113   1.851
 1041SOL     OW 4193   1.573   1.239   1.948
 1041SOL    HW2 4194   1.564   1.327   1.912
 1041SOL    HW3 4195   1.502   1.189   1.908
 1041SOL    MW4 4196   1.563   1.244   1.938
 1042SOL     OW 4197   1.584   1.511   1.877
 1042SOL    HW2 4198   1.658   1.571   1.885
 1042SOL    HW3 4199   1.508   1.563   1.905
 1042SOL    MW4 4200   1.584   1.526   1.882
 1043SOL     OW 4201   1.365   1.654   1.965
 1043SOL    HW2 4202   1.373   1.647   2.061
 1043SOL    HW3 4203   1.285   1.607   1.944
 1043SOL    MW4 4204   1.355   1.647   1.975
 1044SOL     OW 4205   1.370   1.931   1.880
 1044SOL    HW2 4206   1.375   1.839   1.906
 1044SOL    HW3 4207   1.310   1.971   1.943
 1044SOL    MW4 4208   1.363   1.924   1.892
 1045SOL     OW 4209   1.599   2.051   1.987
 1045SOL    HW2 4210   1.587   2.146   1.985
 1045SOL    HW3 4211   1.527   2.017   1.933
 1045SOL    MW4 4212   1.588   2.059   1.979
 1046SOL     OW 4213   1.587   2.318   1.921
 1046SOL    HW2 4214   1.659   2.378   1.942
 1046SOL    HW3 4215   1.573   2.329   1.827
 1046SOL    MW4 4216   1.595   2.327   1.912
 1047SOL     OW 4217   1.354   2.413   2.021
 1047SOL    HW2 4218   1.336   2.494   1.975
 1047SOL    HW3 4219   1.440   2.385   1.988
 1047SOL    MW4 4220   1.363   2.420   2.011
 1048SOL     OW 4221   1.332   2.643   1.886
 1048SOL    HW2 4222   1.271   2.708   1.922
 1048SOL    HW3 4223   1.320   2.649   1.792
 1048SOL    MW4 4224   1.322   2.653   1.879
 1049SOL     OW 4225   1.541   2.779   2.005
 1049SOL    HW2 4226   1.623   2.756   1.962
 1049SOL    HW3 4227   1.475   2.726   1.960
 1049SOL    MW4 4228   1.543   2.769   1.994
 1050SOL     OW 4229   1.548   3.049   1.930
 1050SOL    HW2 4230   1.554   2.960   1.964
 1050SOL    HW3 4231   1.577   3.042   1.839
 1050SOL    MW4 4232   1.553   3.037   1.922
 1051SOL     OW 4233   1.334   3.207   1.991
 1051SOL    HW2 4234   1.414   3.158   1.972
 1051SOL    HW3 4235   1.266   3.165   1.938
 1051SOL    MW4 4236   1.336   3.195   1.982
 1052SOL     OW 4237   1.373   3.461   1.906
 1052SOL    HW2 4238   1.360   3.380   1.955
 1052SOL    HW3 4239   1.293   3.511   1.921
 1052SOL    MW4 4240   1.361   3.457   1.914
 1053SOL     OW 4241   1.605   3.600   1.984
 1053SOL    HW2 4242   1.614   3.606   2.079
 1053SOL    HW3 4243   1.518   3.563   1.970
 1053SOL    MW4 4244   1.595   3.596   1.995
 1054SOL     OW 4245   1.557   3.852   1.878
 1054SOL    HW2 4246   1.636   3.902   1.898
 1054SOL    HW3 4247   1.575   3.764   1.911
 1054SOL    MW4 4248   1.570   3.847   1.885
 1055SOL     OW 4249   1.355   4.018   1.983
 1055SOL    HW2 4250   1.429   3.974   1.942
 1055SOL    HW3 4251   1.279   3.964   1.959
 1055SOL    MW4 4252   1.355   4.005   1.975
 1056SOL     OW 4253   1.347   4.272   1.899
 1056SOL    HW2 4254   1.345   4.184   1.937
 1056SOL    HW3 4255   1.363   4.258   1.806
 1056SOL    MW4 4256   1.349   4.259   1.892
 1057SOL     OW 4257   1.586   4.397   1.967
 1057SOL    HW2 4258   1.570   4.382   2.061
 1057SOL    HW3 4259   1.515   4.350   1.923
 1057SOL    MW4 4260   1.575   4.388   1.974
 1058SOL     OW 4261   2.028   4.633   1.835
 1058SOL    HW2 4262   2.106   4.675   1.870
 1058SOL    HW3 4263   2.024   4.549   1.880
 1058SOL    MW4 4264   2.037   4.627   1.846
 1059SOL     OW 4265   1.807   0.112   1.941
 1059SOL    HW2 4266   1.814   0.094   2.035
 1059SOL    HW3 4267   1.878   0.063   1.901
 1059SOL    MW4 4268   1.817   0.103   1.948
 1060SOL     OW 4269   1.807   0.383   1.902
 1060SOL    HW2 4270   1.788   0.292   1.928
 1060SOL    HW3 4271   1.826   0.378   1.809
 1060SOL    MW4 4272   1.807   0.370   1.893
 1061SOL     OW 4273   2.051   0.504   1.998
 1061SOL    HW2 4274   2.035   0.590   1.959
 1061SOL    HW3 4275   1.978   0.450   1.967
 1061SOL    MW4 4276   2.039   0.508   1.989
 1062SOL     OW 4277   2.017   0.749   1.886
 1062SOL    HW2 4278   2.103   0.780   1.916
 1062SOL    HW3 4279   2.016   0.769   1.793
 1062SOL    MW4 4280   2.028   0.756   1.878
 1063SOL     OW 4281   1.802   0.897   1.989
 1063SOL    HW2 4282   1.822   0.982   1.951
 1063SOL    HW3 4283   1.880   0.844   1.973
 1063SOL    MW4 4284   1.815   0.901   1.982
 1064SOL     OW 4285   1.827   1.150   1.889
 1064SOL    HW2 4286   1.738   1.171   1.918
 1064SOL    HW3 4287   1.820   1.136   1.795
 1064SOL    MW4 4288   1.815   1.151   1.881
 1065SOL     OW 4289   2.051   1.281   1.996
 1065SOL    HW2 4290   2.119   1.222   1.963
 1065SOL    HW3 4291   1.970   1.248   1.958
 1065SOL    MW4 4292   2.049   1.269   1.987
 1066SOL     OW 4293   2.038   1.549   1.870
 1066SOL    HW2 4294   2.033   1.472   1.926
 1066SOL    HW3 4295   2.035   1.514   1.781
 1066SOL    MW4 4296   2.037   1.534   1.866
 1067SOL     OW 4297   1.793   1.675   1.924
 1067SOL    HW2 4298   1.801   1.768   1.899
 1067SOL    HW3 4299   1.878   1.637   1.901
 1067SOL    MW4 4300   1.806   1.682   1.917
 1068SOL     OW 4301   1.836   1.929   1.855
 1068SOL    HW2 4302   1.761   1.973   1.895
 1068SOL    HW3 4303   1.814   1.925   1.762
 1068SOL    MW4 4304   1.823   1.935   1.848
 1069SOL     OW 4305   2.054   2.026   2.002
 1069SOL    HW2 4306   2.131   1.977   1.973
 1069SOL    HW3 4307   1.983   1.994   1.947
 1069SOL    MW4 4308   2.055   2.016   1.991
 1070SOL     OW 4309   2.048   2.311   1.941
 1070SOL    HW2 4310   2.141   2.330   1.944
 1070SOL    HW3 4311   2.041   2.220   1.972
 1070SOL    MW4 4312   2.059   2.301   1.946
 1071SOL     OW 4313   1.830   2.461   2.014
 1071SOL    HW2 4314   1.837   2.437   2.106
 1071SOL    HW3 4315   1.900   2.411   1.971
 1071SOL    MW4 4316   1.840   2.451   2.020
 1072SOL     OW 4317   1.777   2.712   1.898
 1072SOL    HW2 4318   1.790   2.628   1.941
 1072SOL    HW3 4319   1.772   2.691   1.805
 1072SOL    MW4 4320   1.778   2.698   1.891
 1073SOL     OW 4321   2.032   2.795   1.975
 1073SOL    HW2 4322   2.021   2.788   2.070
 1073SOL    HW3 4323   1.950   2.762   1.938
 1073SOL    MW4 4324   2.020   2.790   1.982
 1074SOL     OW 4325   2.040   3.053   1.886
 1074SOL    HW2 4326   1.962   3.087   1.930
 1074SOL    HW3 4327   2.042   2.960   1.910
 1074SOL    MW4 4328   2.030   3.045   1.895
 1075SOL     OW 4329   1.805   3.159   1.967
 1075SOL    HW2 4330   1.808   3.165   2.062
 1075SOL    HW3 4331   1.721   3.118   1.948
 1075SOL    MW4 4332   1.795   3.155   1.977
 1076SOL     OW 4333   1.788   3.424   1.870
 1076SOL    HW2 4334   1.797   3.340   1.915
 1076SOL    HW3 4335   1.716   3.468   1.915
 1076SOL    MW4 4336   1.780   3.418   1.882
 1077SOL     OW 4337   1.997   3.574   1.955
 1077SOL    HW2 4338   1.959   3.662   1.952
 1077SOL    HW3 4339   1.931   3.518   1.916
 1077SOL    MW4 4340   1.984   3.578   1.949
 1078SOL     OW 4341   2.016   3.871   1.878
 1078SOL    HW2 4342   2.098   3.914   1.905
 1078SOL    HW3 4343   2.010   3.888   1.784
 1078SOL    MW4 4344   2.026   3.879   1.869
 1079SOL     OW 4345   1.779   3.985   1.958
 1079SOL    HW2 4346   1.795   4.075   1.928
 1079SOL    HW3 4347   1.857   3.937   1.930
 1079SOL    MW4 4348   1.792   3.991   1.950
 1080SOL     OW 4349   1.803   4.237   1.890
 1080SOL    HW2 4350   1.725   4.281   1.925
 1080SOL    HW3 4351   1.800   4.254   1.796
 1080SOL    MW4 4352   1.792   4.245   1.882
 1081SOL     OW 4353   2.016   4.400   1.976
 1081SOL    HW2 4354   2.091   4.352   1.941
 1081SOL    HW3 4355   1.941   4.344   1.956
 1081SOL    MW4 4356   2.016   4.386   1.968
 1082SOL     OW 4357   2.506   4.659   1.878
 1082SOL    HW2 4358   2.586   4.696   1.916
 1082SOL    HW3 4359   2.502   4.570   1.913
 1082SOL    MW4 4360   2.516   4.652   1.887
 1083SOL     OW 4361   2.248   0.073   1.957
 1083SOL    HW2 4362   2.247   0.078   2.053
 1083SOL    HW3 4363   2.338   0.049   1.936
 1083SOL    MW4 4364   2.260   0.071   1.967
 1084SOL     OW 4365   2.274   0.344   1.908
 1084SOL    HW2 4366   2.253   0.254   1.933
 1084SOL    HW3 4367   2.198   0.395   1.937
 1084SOL    MW4 4368   2.261   0.339   1.915
 1085SOL     OW 4369   2.526   0.469   1.972
 1085SOL    HW2 4370   2.597   0.431   1.920
 1085SOL    HW3 4371   2.449   0.420   1.946
 1085SOL    MW4 4372   2.525   0.458   1.962
 1086SOL     OW 4373   2.508   0.750   1.898
 1086SOL    HW2 4374   2.514   0.655   1.912
 1086SOL    HW3 4375   2.510   0.760   1.803
 1086SOL    MW4 4376   2.509   0.739   1.887
 1087SOL     OW 4377   2.271   0.857   2.004
 1087SOL    HW2 4378   2.255   0.873   2.097
 1087SOL    HW3 4379   2.358   0.818   2.000
 1087SOL    MW4 4380   2.280   0.854   2.015
 1088SOL     OW 4381   2.252   1.117   1.896
 1088SOL    HW2 4382   2.332   1.166   1.916
 1088SOL    HW3 4383   2.266   1.031   1.937
 1088SOL    MW4 4384   2.265   1.112   1.904
 1089SOL     OW 4385   2.490   1.251   1.922
 1089SOL    HW2 4386   2.499   1.256   2.017
 1089SOL    HW3 4387   2.479   1.342   1.894
 1089SOL    MW4 4388   2.489   1.264   1.931
 1090SOL     OW 4389   2.474   1.529   1.895
 1090SOL    HW2 4390   2.406   1.572   1.947
 1090SOL    HW3 4391   2.449   1.548   1.804
 1090SOL    MW4 4392   2.462   1.537   1.890
 1091SOL     OW 4393   2.256   1.674   1.997
 1091SOL    HW2 4394   2.263   1.659   2.092
 1091SOL    HW3 4395   2.168   1.645   1.975
 1091SOL    MW4 4396   2.246   1.668   2.007
 1092SOL     OW 4397   2.285   1.922   1.894
 1092SOL    HW2 4398   2.369   1.956   1.925
 1092SOL    HW3 4399   2.284   1.831   1.925
 1092SOL    MW4 4400   2.296   1.914   1.902
 1093SOL     OW 4401   2.524   2.042   1.975
 1093SOL    HW2 4402   2.607   2.009   1.939
 1093SOL    HW3 4403   2.519   2.133   1.944
 1093SOL    MW4 4404   2.534   2.050   1.966
 1094SOL     OW 4405   2.536   2.292   1.901
 1094SOL    HW2 4406   2.589   2.356   1.948
 1094SOL    HW3 4407   2.446   2.316   1.921
 1094SOL    MW4 4408   2.531   2.304   1.909
 1095SOL     OW 4409   2.294   2.438   1.987
 1095SOL    HW2 4410   2.269   2.446   2.079
 1095SOL    HW3 4411   2.279   2.525   1.950
 1095SOL    MW4 4412   2.289   2.451   1.994
 1096SOL     OW 4413   2.257   2.694   1.856
 1096SOL    HW2 4414   2.172   2.724   1.890
 1096SOL    HW3 4415   2.241   2.675   1.764
 1096SOL    MW4 4416   2.244   2.696   1.849
 1097SOL     OW 4417   2.460   2.837   1.972
 1097SOL    HW2 4418   2.450   2.929   1.944
 1097SOL    HW3 4419   2.393   2.790   1.923
 1097SOL    MW4 4420   2.450   2.843   1.962
 1098SOL     OW 4421   2.481   3.088   1.871
 1098SOL    HW2 4422   2.401   3.135   1.895
 1098SOL    HW3 4423   2.476   3.081   1.776
 1098SOL    MW4 4424   2.469   3.093   1.862
 1099SOL     OW 4425   2.266   3.232   1.955
 1099SOL    HW2 4426   2.259   3.235   2.051
 1099SOL    HW3 4427   2.195   3.175   1.928
 1099SOL    MW4 4428   2.256   3.225   1.964
 1100SOL     OW 4429   2.246   3.493   1.849
 1100SOL    HW2 4430   2.226   3.422   1.910
 1100SOL    HW3 4431   2.186   3.564   1.874
 1100SOL    MW4 4432   2.235   3.493   1.861
 1101SOL     OW 4433   2.473   3.595   1.963
 1101SOL    HW2 4434   2.449   3.599   2.056
 1101SOL    HW3 4435   2.411   3.533   1.925
 1101SOL    MW4 4436   2.462   3.587   1.970
 1102SOL     OW 4437   2.482   3.847   1.832
 1102SOL    HW2 4438   2.408   3.895   1.868
 1102SOL    HW3 4439   2.476   3.760   1.873
 1102SOL    MW4 4440   2.472   3.842   1.842
 1103SOL     OW 4441   2.265   3.974   1.921
 1103SOL    HW2 4442   2.279   3.955   2.014
 1103SOL    HW3 4443   2.271   4.070   1.915
 1103SOL    MW4 4444   2.268   3.984   1.933
 1104SOL     OW 4445   2.235   4.255   1.863
 1104SOL    HW2 4446   2.320   4.286   1.894
 1104SOL    HW3 4447   2.238   4.268   1.768
 1104SOL    MW4 4448   2.246   4.261   1.855
 1105SOL     OW 4449   2.467   4.376   1.959
 1105SOL    HW2 4450   2.456   4.376   2.054
 1105SOL    HW3 4451   2.542   4.319   1.943
 1105SOL    MW4 4452   2.476   4.369   1.970
 1106SOL     OW 4453   2.963   4.595   1.887
 1106SOL    HW2 4454   3.041   4.644   1.916
 1106SOL    HW3 4455   2.977   4.506   1.918
 1106SOL    MW4 4456   2.976   4.590   1.895
 1107SOL     OW 4457   2.744   0.094   1.981
 1107SOL    HW2 4458   2.733   0.109   2.075
 1107SOL    HW3 4459   2.800   0.016   1.976
 1107SOL    MW4 4460   2.750   0.086   1.993
 1108SOL     OW 4461   2.738   0.350   1.841
 1108SOL    HW2 4462   2.807   0.407   1.873
 1108SOL    HW3 4463   2.751   0.267   1.887
 1108SOL    MW4 4464   2.749   0.346   1.852
 1109SOL     OW 4465   2.936   0.511   1.929
 1109SOL    HW2 4466   3.028   0.484   1.928
 1109SOL    HW3 4467   2.938   0.605   1.916
 1109SOL    MW4 4468   2.948   0.520   1.927
 1110SOL     OW 4469   2.936   0.776   1.860
 1110SOL    HW2 4470   3.014   0.814   1.899
 1110SOL    HW3 4471   2.864   0.831   1.892
 1110SOL    MW4 4472   2.937   0.788   1.869
 1111SOL     OW 4473   2.714   0.909   1.968
 1111SOL    HW2 4474   2.721   0.988   1.915
 1111SOL    HW3 4475   2.639   0.862   1.932
 1111SOL    MW4 4476   2.705   0.913   1.956
 1112SOL     OW 4477   2.723   1.147   1.811
 1112SOL    HW2 4478   2.639   1.184   1.841
 1112SOL    HW3 4479   2.724   1.163   1.717
 1112SOL    MW4 4480   2.712   1.154   1.803
 1113SOL     OW 4481   2.937   1.270   1.947
 1113SOL    HW2 4482   2.928   1.361   1.917
 1113SOL    HW3 4483   2.865   1.224   1.904
 1113SOL    MW4 4484   2.926   1.276   1.938
 1114SOL     OW 4485   2.919   1.542   1.893
 1114SOL    HW2 4486   3.002   1.584   1.915
 1114SOL    HW3 4487   2.908   1.557   1.799
 1114SOL    MW4 4488   2.928   1.550   1.884
 1115SOL     OW 4489   2.697   1.681   1.983
 1115SOL    HW2 4490   2.762   1.614   1.964
 1115SOL    HW3 4491   2.614   1.641   1.956
 1115SOL    MW4 4492   2.694   1.667   1.977
 1116SOL     OW 4493   2.746   1.945   1.858
 1116SOL    HW2 4494   2.812   1.986   1.914
 1116SOL    HW3 4495   2.730   1.859   1.897
 1116SOL    MW4 4496   2.752   1.939   1.870
 1117SOL     OW 4497   2.925   2.077   2.005
 1117SOL    HW2 4498   2.924   2.061   2.099
 1117SOL    HW3 4499   3.009   2.042   1.976
 1117SOL    MW4 4500   2.936   2.071   2.014
 1118SOL     OW 4501   2.939   2.333   1.882
 1118SOL    HW2 4502   3.026   2.371   1.896
 1118SOL    HW3 4503   2.938   2.254   1.936
 1118SOL    MW4 4504   2.950   2.327   1.891
 1119SOL     OW 4505   2.723   2.475   1.983
 1119SOL    HW2 4506   2.720   2.565   1.951
 1119SOL    HW3 4507   2.801   2.437   1.941
 1119SOL    MW4 4508   2.733   2.482   1.973
 1120SOL     OW 4509   2.698   2.739   1.872
 1120SOL    HW2 4510   2.614   2.777   1.897
 1120SOL    HW3 4511   2.698   2.740   1.777
 1120SOL    MW4 4512   2.687   2.744   1.863
 1121SOL     OW 4513   2.927   2.860   1.957
 1121SOL    HW2 4514   2.923   2.952   1.931
 1121SOL    HW3 4515   2.841   2.825   1.933
 1121SOL    MW4 4516   2.915   2.868   1.950
 1122SOL     OW 4517   2.892   3.136   1.873
 1122SOL    HW2 4518   2.970   3.176   1.912
 1122SOL    HW3 4519   2.819   3.180   1.917
 1122SOL    MW4 4520   2.893   3.147   1.884
 1123SOL     OW 4521   2.677   3.254   1.980
 1123SOL    HW2 4522   2.660   3.331   1.927
 1123SOL    HW3 4523   2.610   3.191   1.953
 1123SOL    MW4 4524   2.666   3.256   1.969
 1124SOL     OW 4525   2.691   3.481   1.841
 1124SOL    HW2 4526   2.762   3.527   1.886
 1124SOL    HW3 4527   2.611   3.521   1.875
 1124SOL    MW4 4528   2.690   3.492   1.852
 1125SOL     OW 4529   2.917   3.582   1.957
 1125SOL    HW2 4530   2.904   3.578   2.052
 1125SOL    HW3 4531   2.987   3.519   1.940
 1125SOL    MW4 4532   2.924   3.573   1.967
 1126SOL     OW 4533   3.001   3.836   1.884
 1126SOL    HW2 4534   2.991   3.745   1.912
 1126SOL    HW3 4535   2.973   3.837   1.793
 1126SOL    MW4 4536   2.996   3.824   1.876
 1127SOL     OW 4537   2.726   3.920   1.976
 1127SOL    HW2 4538   2.808   3.880   1.947
 1127SOL    HW3 4539   2.659   3.874   1.927
 1127SOL    MW4 4540   2.728   3.909   1.966
 1128SOL     OW 4541   2.708   4.207   1.915
 1128SOL    HW2 4542   2.718   4.113   1.927
 1128SOL    HW3 4543   2.729   4.222   1.823
 1128SOL    MW4 4544   2.712   4.197   1.904
 1129SOL     OW 4545   2.945   4.342   1.994
 1129SOL    HW2 4546   2.952   4.340   2.090
 1129SOL    HW3 4547   2.855   4.315   1.976
 1129SOL    MW4 4548   2.934   4.338   2.005
 1130SOL     OW 4549   3.415   0.003   1.894
 1130SOL    HW2 4550   3.381  -0.083   1.916
 1130SOL    HW3 4551   3.409   0.008   1.799
 1130SOL    MW4 4552   3.410  -0.008   1.884
 1131SOL     OW 4553   3.163   0.090   1.998
 1131SOL    HW2 4554   3.174   0.089   2.093
 1131SOL    HW3 4555   3.250   0.068   1.965
 1131SOL    MW4 4556   3.176   0.087   2.006
 1132SOL     OW 4557   3.175   0.369   1.891
 1132SOL    HW2 4558   3.165   0.286   1.938
 1132SOL    HW3 4559   3.165   0.346   1.799
 1132SOL    MW4 4560   3.172   0.355   1.885
 1133SOL     OW 4561   3.392   0.502   2.011
 1133SOL    HW2 4562   3.466   0.449   1.982
 1133SOL    HW3 4563   3.315   0.457   1.976
 1133SOL    MW4 4564   3.392   0.489   2.003
 1134SOL     OW 4565   3.388   0.730   1.860
 1134SOL    HW2 4566   3.312   0.778   1.893
 1134SOL    HW3 4567   3.390   0.649   1.911
 1134SOL    MW4 4568   3.378   0.726   1.871
 1135SOL     OW 4569   3.178   0.876   1.980
 1135SOL    HW2 4570   3.186   0.881   2.075
 1135SOL    HW3 4571   3.171   0.967   1.952
 1135SOL    MW4 4572   3.179   0.889   1.989
 1136SOL     OW 4573   3.154   1.137   1.876
 1136SOL    HW2 4574   3.229   1.184   1.911
 1136SOL    HW3 4575   3.078   1.185   1.909
 1136SOL    MW4 4576   3.154   1.149   1.885
 1137SOL     OW 4577   3.350   1.294   1.943
 1137SOL    HW2 4578   3.365   1.309   2.036
 1137SOL    HW3 4579   3.370   1.378   1.902
 1137SOL    MW4 4580   3.355   1.307   1.950
 1138SOL     OW 4581   3.383   1.533   1.840
 1138SOL    HW2 4582   3.467   1.577   1.849
 1138SOL    HW3 4583   3.318   1.599   1.865
 1138SOL    MW4 4584   3.385   1.547   1.844
 1139SOL     OW 4585   3.177   1.666   1.925
 1139SOL    HW2 4586   3.186   1.658   2.020
 1139SOL    HW3 4587   3.149   1.756   1.911
 1139SOL    MW4 4588   3.175   1.676   1.936
 1140SOL     OW 4589   3.130   1.947   1.855
 1140SOL    HW2 4590   3.212   1.992   1.873
 1140SOL    HW3 4591   3.126   1.941   1.760
 1140SOL    MW4 4592   3.140   1.952   1.845
 1141SOL     OW 4593   3.384   2.030   1.947
 1141SOL    HW2 4594   3.466   1.995   1.911
 1141SOL    HW3 4595   3.379   2.119   1.914
 1141SOL    MW4 4596   3.394   2.037   1.938
 1142SOL     OW 4597   3.413   2.290   1.868
 1142SOL    HW2 4598   3.337   2.332   1.908
 1142SOL    HW3 4599   3.397   2.297   1.774
 1142SOL    MW4 4600   3.401   2.296   1.861
 1143SOL     OW 4601   3.182   2.426   1.944
 1143SOL    HW2 4602   3.158   2.424   2.037
 1143SOL    HW3 4603   3.181   2.519   1.921
 1143SOL    MW4 4604   3.178   2.438   1.954
 1144SOL     OW 4605   3.128   2.689   1.855
 1144SOL    HW2 4606   3.050   2.730   1.891
 1144SOL    HW3 4607   3.127   2.712   1.762
 1144SOL    MW4 4608   3.118   2.698   1.847
 1145SOL     OW 4609   3.376   2.790   1.962
 1145SOL    HW2 4610   3.378   2.782   2.057
 1145SOL    HW3 4611   3.290   2.755   1.937
 1145SOL    MW4 4612   3.365   2.785   1.971
 1146SOL     OW 4613   3.354   3.059   1.883
 1146SOL    HW2 4614   3.436   3.107   1.897
 1146SOL    HW3 4615   3.376   2.967   1.900
 1146SOL    MW4 4616   3.368   3.053   1.887
 1147SOL     OW 4617   3.152   3.213   1.996
 1147SOL    HW2 4618   3.156   3.300   1.957
 1147SOL    HW3 4619   3.224   3.165   1.955
 1147SOL    MW4 4620   3.162   3.218   1.986
 1148SOL     OW 4621   3.173   3.461   1.873
 1148SOL    HW2 4622   3.251   3.510   1.901
 1148SOL    HW3 4623   3.185   3.450   1.778
 1148SOL    MW4 4624   3.185   3.466   1.864
 1149SOL     OW 4625   3.408   3.599   1.975
 1149SOL    HW2 4626   3.492   3.556   1.956
 1149SOL    HW3 4627   3.417   3.687   1.936
 1149SOL    MW4 4628   3.420   3.605   1.967
 1150SOL     OW 4629   3.425   3.869   1.845
 1150SOL    HW2 4630   3.355   3.922   1.883
 1150SOL    HW3 4631   3.394   3.849   1.757
 1150SOL    MW4 4632   3.412   3.874   1.838
 1151SOL     OW 4633   3.201   3.996   1.936
 1151SOL    HW2 4634   3.205   4.002   2.032
 1151SOL    HW3 4635   3.118   3.953   1.919
 1151SOL    MW4 4636   3.191   3.991   1.947
 1152SOL     OW 4637   3.168   4.256   1.851
 1152SOL    HW2 4638   3.183   4.165   1.877
 1152SOL    HW3 4639   3.092   4.284   1.903
 1152SOL    MW4 4640   3.160   4.248   1.861
 1153SOL     OW 4641   3.343   4.430   1.965
 1153SOL    HW2 4642   3.423   4.388   1.932
 1153SOL    HW3 4643   3.272   4.378   1.928
 1153SOL    MW4 4644   3.344   4.418   1.956
 1154SOL     OW 4645   3.848   4.638   1.828
 1154SOL    HW2 4646   3.854   4.554   1.874
 1154SOL    HW3 4647   3.783   4.687   1.878
 1154SOL    MW4 4648   3.840   4.633   1.841
 1155SOL     OW 4649   3.646   0.112   1.984
 1155SOL    HW2 4650   3.647   0.119   2.079
 1155SOL    HW3 4651   3.562   0.070   1.963
 1155SOL    MW4 4652   3.635   0.107   1.993
 1156SOL     OW 4653   3.600   0.380   1.900
 1156SOL    HW2 4654   3.621   0.293   1.935
 1156SOL    HW3 4655   3.609   0.371   1.805
 1156SOL    MW4 4656   3.604   0.367   1.892
 1157SOL     OW 4657   3.858   0.501   1.976
 1157SOL    HW2 4658   3.855   0.592   1.945
 1157SOL    HW3 4659   3.773   0.465   1.953
 1157SOL    MW4 4660   3.846   0.508   1.969
 1158SOL     OW 4661   3.829   0.760   1.862
 1158SOL    HW2 4662   3.749   0.797   1.899
 1158SOL    HW3 4663   3.815   0.761   1.767
 1158SOL    MW4 4664   3.816   0.765   1.854
 1159SOL     OW 4665   3.601   0.911   1.962
 1159SOL    HW2 4666   3.587   0.994   1.917
 1159SOL    HW3 4667   3.533   0.853   1.928
 1159SOL    MW4 4668   3.591   0.914   1.952
 1160SOL     OW 4669   3.584   1.177   1.866
 1160SOL    HW2 4670   3.498   1.210   1.892
 1160SOL    HW3 4671   3.576   1.162   1.771
 1160SOL    MW4 4672   3.571   1.179   1.857
 1161SOL     OW 4673   3.833   1.242   1.958
 1161SOL    HW2 4674   3.824   1.259   2.051
 1161SOL    HW3 4675   3.757   1.189   1.935
 1161SOL    MW4 4676   3.822   1.237   1.967
 1162SOL     OW 4677   3.851   1.522   1.855
 1162SOL    HW2 4678   3.920   1.561   1.908
 1162SOL    HW3 4679   3.828   1.441   1.901
 1162SOL    MW4 4680   3.857   1.516   1.868
 1163SOL     OW 4681   3.604   1.682   1.891
 1163SOL    HW2 4682   3.603   1.776   1.876
 1163SOL    HW3 4683   3.688   1.652   1.856
 1163SOL    MW4 4684   3.615   1.690   1.884
 1164SOL     OW 4685   3.646   1.956   1.857
 1164SOL    HW2 4686   3.702   2.006   1.916
 1164SOL    HW3 4687   3.681   1.974   1.769
 1164SOL    MW4 4688   3.658   1.965   1.853
 1165SOL     OW 4689   3.838   2.095   1.990
 1165SOL    HW2 4690   3.906   2.041   1.951
 1165SOL    HW3 4691   3.853   2.183   1.955
 1165SOL    MW4 4692   3.849   2.099   1.980
 1166SOL     OW 4693   3.859   2.356   1.893
 1166SOL    HW2 4694   3.918   2.419   1.934
 1166SOL    HW3 4695   3.773   2.379   1.929
 1166SOL    MW4 4696   3.855   2.367   1.904
 1167SOL     OW 4697   3.610   2.432   1.989
 1167SOL    HW2 4698   3.587   2.509   1.938
 1167SOL    HW3 4699   3.548   2.365   1.960
 1167SOL    MW4 4700   3.599   2.433   1.978
 1168SOL     OW 4701   3.580   2.658   1.831
 1168SOL    HW2 4702   3.660   2.689   1.873
 1168SOL    HW3 4703   3.509   2.695   1.885
 1168SOL    MW4 4704   3.581   2.667   1.844
 1169SOL     OW 4705   3.805   2.770   1.952
 1169SOL    HW2 4706   3.797   2.773   2.047
 1169SOL    HW3 4707   3.802   2.861   1.924
 1169SOL    MW4 4708   3.804   2.782   1.961
 1170SOL     OW 4709   3.809   3.040   1.871
 1170SOL    HW2 4710   3.730   3.084   1.902
 1170SOL    HW3 4711   3.799   3.038   1.776
 1170SOL    MW4 4712   3.797   3.045   1.863
 1171SOL     OW 4713   3.580   3.192   1.926
 1171SOL    HW2 4714   3.580   3.198   2.022
 1171SOL    HW3 4715   3.603   3.281   1.897
 1171SOL    MW4 4716   3.583   3.205   1.935
 1172SOL     OW 4717   3.604   3.454   1.861
 1172SOL    HW2 4718   3.682   3.505   1.880
 1172SOL    HW3 4719   3.601   3.450   1.765
 1172SOL    MW4 4720   3.614   3.460   1.851
 1173SOL     OW 4721   3.801   3.630   1.986
 1173SOL    HW2 4722   3.879   3.600   1.939
 1173SOL    HW3 4723   3.788   3.720   1.956
 1173SOL    MW4 4724   3.810   3.638   1.975
 1174SOL     OW 4725   3.840   3.889   1.868
 1174SOL    HW2 4726   3.778   3.960   1.885
 1174SOL    HW3 4727   3.827   3.866   1.776
 1174SOL    MW4 4728   3.830   3.895   1.858
 1175SOL     OW 4729   3.612   4.031   1.960
 1175SOL    HW2 4730   3.615   4.005   2.052
 1175SOL    HW3 4731   3.553   3.968   1.919
 1175SOL    MW4 4732   3.605   4.019   1.967
 1176SOL     OW 4733   3.594   4.293   1.882
 1176SOL    HW2 4734   3.687   4.315   1.889
 1176SOL    HW3 4735   3.588   4.202   1.913
 1176SOL    MW4 4736   3.606   4.284   1.887
 1177SOL     OW 4737   3.852   4.395   1.961
 1177SOL    HW2 4738   3.849   4.380   2.055
 1177SOL    HW3 4739   3.908   4.326   1.927
 1177SOL    MW4 4740   3.859   4.384   1.969
 1178SOL     OW 4741   4.280   4.602   1.887
 1178SOL    HW2 4742   4.196   4.626   1.927
 1178SOL    HW3 4743   4.343   4.661   1.928
 1178SOL    MW4 4744   4.277   4.613   1.898
 1179SOL     OW 4745   4.060   0.082   1.973
 1179SOL    HW2 4746   4.035   0.067   2.064
 1179SOL    HW3 4747   3.990   0.043   1.922
 1179SOL    MW4 4748   4.048   0.075   1.978
 1180SOL     OW 4749   4.068   0.335   1.859
 1180SOL    HW2 4750   4.055   0.256   1.910
 1180SOL    HW3 4751   3.995   0.392   1.885
 1180SOL    MW4 4752   4.056   0.332   1.869
 1181SOL     OW 4753   4.279   0.469   1.976
 1181SOL    HW2 4754   4.280   0.471   2.072
 1181SOL    HW3 4755   4.225   0.393   1.954
 1181SOL    MW4 4756   4.272   0.459   1.986
 1182SOL     OW 4757   4.247   0.726   1.891
 1182SOL    HW2 4758   4.256   0.632   1.911
 1182SOL    HW3 4759   4.259   0.732   1.797
 1182SOL    MW4 4760   4.250   0.714   1.881
 1183SOL     OW 4761   4.039   0.888   2.009
 1183SOL    HW2 4762   4.115   0.853   1.963
 1183SOL    HW3 4763   3.964   0.850   1.963
 1183SOL    MW4 4764   4.039   0.878   1.997
 1184SOL     OW 4765   4.069   1.136   1.875
 1184SOL    HW2 4766   4.082   1.053   1.922
 1184SOL    HW3 4767   3.990   1.173   1.914
 1184SOL    MW4 4768   4.060   1.130   1.887
 1185SOL     OW 4769   4.290   1.280   1.958
 1185SOL    HW2 4770   4.292   1.283   2.054
 1185SOL    HW3 4771   4.211   1.230   1.937
 1185SOL    MW4 4772   4.280   1.274   1.968
 1186SOL     OW 4773   4.310   1.546   1.904
 1186SOL    HW2 4774   4.319   1.452   1.919
 1186SOL    HW3 4775   4.280   1.553   1.813
 1186SOL    MW4 4776   4.307   1.535   1.894
 1187SOL     OW 4777   4.074   1.676   1.957
 1187SOL    HW2 4778   4.076   1.678   2.053
 1187SOL    HW3 4779   4.161   1.644   1.932
 1187SOL    MW4 4780   4.086   1.672   1.966
 1188SOL     OW 4781   4.040   1.937   1.868
 1188SOL    HW2 4782   4.035   1.845   1.893
 1188SOL    HW3 4783   4.052   1.936   1.773
 1188SOL    MW4 4784   4.041   1.925   1.859
 1189SOL     OW 4785   4.258   2.062   2.024
 1189SOL    HW2 4786   4.259   2.064   2.120
 1189SOL    HW3 4787   4.178   2.016   2.001
 1189SOL    MW4 4788   4.248   2.056   2.033
 1190SOL     OW 4789   4.292   2.305   1.896
 1190SOL    HW2 4790   4.280   2.226   1.948
 1190SOL    HW3 4791   4.370   2.347   1.933
 1190SOL    MW4 4792   4.301   2.300   1.908
 1191SOL     OW 4793   4.122   2.481   2.007
 1191SOL    HW2 4794   4.097   2.443   2.091
 1191SOL    HW3 4795   4.182   2.417   1.968
 1191SOL    MW4 4796   4.127   2.468   2.013
 1192SOL     OW 4797   4.060   2.693   1.855
 1192SOL    HW2 4798   4.088   2.614   1.900
 1192SOL    HW3 4799   3.979   2.719   1.900
 1192SOL    MW4 4800   4.053   2.686   1.867
 1193SOL     OW 4801   4.260   2.876   1.984
 1193SOL    HW2 4802   4.261   2.859   2.078
 1193SOL    HW3 4803   4.186   2.826   1.951
 1193SOL    MW4 4804   4.251   2.867   1.992
 1194SOL     OW 4805   4.255   3.141   1.888
 1194SOL    HW2 4806   4.171   3.177   1.914
 1194SOL    HW3 4807   4.252   3.049   1.915
 1194SOL    MW4 4808   4.244   3.134   1.895
 1195SOL     OW 4809   4.004   3.249   1.954
 1195SOL    HW2 4810   4.015   3.253   2.049
 1195SOL    HW3 4811   3.932   3.188   1.941
 1195SOL    MW4 4812   3.996   3.241   1.965
 1196SOL     OW 4813   4.020   3.499   1.856
 1196SOL    HW2 4814   4.098   3.519   1.908
 1196SOL    HW3 4815   4.002   3.407   1.875
 1196SOL    MW4 4816   4.028   3.490   1.865
 1197SOL     OW 4817   4.285   3.564   1.987
 1197SOL    HW2 4818   4.302   3.648   1.943
 1197SOL    HW3 4819   4.351   3.504   1.950
 1197SOL    MW4 4820   4.296   3.567   1.976
 1198SOL     OW 4821   4.279   3.813   1.878
 1198SOL    HW2 4822   4.362   3.851   1.908
 1198SOL    HW3 4823   4.273   3.836   1.786
 1198SOL    MW4 4824   4.289   3.821   1.870
 1199SOL     OW 4825   4.074   3.991   1.975
 1199SOL    HW2 4826   4.152   3.936   1.969
 1199SOL    HW3 4827   4.006   3.942   1.927
 1199SOL    MW4 4828   4.075   3.977   1.968
 1200SOL     OW 4829   4.044   4.238   1.837
 1200SOL    HW2 4830   4.117   4.290   1.871
 1200SOL    HW3 4831   4.051   4.153   1.881
 1200SOL    MW4 4832   4.054   4.234   1.847
 1201SOL     OW 4833   4.285   4.336   1.970
 1201SOL    HW2 4834   4.270   4.353   2.063
 1201SOL    HW3 4835   4.309   4.421   1.934
 1201SOL    MW4 4836   4.286   4.349   1.978
 1202SOL     OW 4837   0.226   4.631   2.391
 1202SOL    HW2 4838   0.227   4.610   2.485
 1202SOL    HW3 4839   0.317   4.655   2.371
 1202SOL    MW4 4840   0.238   4.631   2.401
 1203SOL     OW 4841   4.474   0.061   2.302
 1203SOL    HW2 4842   4.560   0.023   2.316
 1203SOL    HW3 4843   4.463   0.060   2.206
 1203SOL    MW4 4844   4.484   0.056   2.291
 1204SOL     OW 4845   4.473   0.327   2.362
 1204SOL    HW2 4846   4.546   0.360   2.309
 1204SOL    HW3 4847   4.471   0.233   2.345
 1204SOL    MW4 4848   4.482   0.319   2.353
 1205SOL     OW 4849   0.187   0.466   2.251
 1205SOL    HW2 4850   0.271   0.426   2.272
 1205SOL    HW3 4851   0.183   0.465   2.155
 1205SOL    MW4 4852   0.197   0.460   2.241
 1206SOL     OW 4853   0.222   0.737   2.374
 1206SOL    HW2 4854   0.259   0.754   2.461
 1206SOL    HW3 4855   0.214   0.641   2.370
 1206SOL    MW4 4856   0.226   0.727   2.385
 1207SOL     OW 4857   4.472   0.843   2.289
 1207SOL    HW2 4858   4.554   0.806   2.321
 1207SOL    HW3 4859   4.485   0.850   2.194
 1207SOL    MW4 4860   4.485   0.839   2.280
 1208SOL     OW 4861   4.479   1.132   2.364
 1208SOL    HW2 4862   4.479   1.141   2.460
 1208SOL    HW3 4863   4.475   1.038   2.349
 1208SOL    MW4 4864   4.478   1.121   2.375
 1209SOL     OW 4865   0.227   1.277   2.282
 1209SOL    HW2 4866   0.153   1.223   2.309
 1209SOL    HW3 4867   0.219   1.284   2.187
 1209SOL    MW4 4868   0.216   1.271   2.273
 1210SOL     OW 4869   0.240   1.535   2.382
 1210SOL    HW2 4870   0.263   1.525   2.474
 1210SOL    HW3 4871   0.228   1.445   2.351
 1210SOL    MW4 4872   0.242   1.522   2.390
 1211SOL     OW 4873   4.487   1.684   2.297
 1211SOL    HW2 4874   4.511   1.771   2.328
 1211SOL    HW3 4875   4.567   1.632   2.306
 1211SOL    MW4 4876   4.501   1.688   2.302
 1212SOL     OW 4877   0.009   1.934   2.376
 1212SOL    HW2 4878  -0.062   1.996   2.354
 1212SOL    HW3 4879   0.089   1.980   2.351
 1212SOL    MW4 4880   0.010   1.948   2.370
 1213SOL     OW 4881   0.230   2.050   2.287
 1213SOL    HW2 4882   0.320   2.021   2.302
 1213SOL    HW3 4883   0.219   2.043   2.192
 1213SOL    MW4 4884   0.241   2.045   2.276
 1214SOL     OW 4885   0.252   2.318   2.370
 1214SOL    HW2 4886   0.239   2.340   2.462
 1214SOL    HW3 4887   0.242   2.223   2.366
 1214SOL    MW4 4888   0.249   2.309   2.382
 1215SOL     OW 4889   0.006   2.421   2.258
 1215SOL    HW2 4890   0.002   2.511   2.290
 1215SOL    HW3 4891   0.089   2.387   2.291
 1215SOL    MW4 4892   0.017   2.429   2.266
 1216SOL     OW 4893   4.465   2.705   2.390
 1216SOL    HW2 4894   4.500   2.688   2.478
 1216SOL    HW3 4895   4.541   2.732   2.339
 1216SOL    MW4 4896   4.480   2.706   2.395
 1217SOL     OW 4897   0.190   2.776   2.224
 1217SOL    HW2 4898   0.281   2.757   2.247
 1217SOL    HW3 4899   0.194   2.804   2.132
 1217SOL    MW4 4900   0.202   2.777   2.215
 1218SOL     OW 4901   0.226   3.039   2.326
 1218SOL    HW2 4902   0.141   3.081   2.313
 1218SOL    HW3 4903   0.210   2.947   2.309
 1218SOL    MW4 4904   0.213   3.033   2.322
 1219SOL     OW 4905   4.471   3.174   2.301
 1219SOL    HW2 4906   4.465   3.255   2.351
 1219SOL    HW3 4907   4.462   3.201   2.210
 1219SOL    MW4 4908   4.469   3.188   2.296
 1220SOL     OW 4909   0.016   3.445   2.382
 1220SOL    HW2 4910   0.001   3.456   2.476
 1220SOL    HW3 4911  -0.047   3.505   2.341
 1220SOL    MW4 4912   0.006   3.455   2.389
 1221SOL     OW 4913   0.203   3.634   2.265
 1221SOL    HW2 4914   0.292   3.614   2.294
 1221SOL    HW3 4915   0.151   3.558   2.291
 1221SOL    MW4 4916   0.208   3.621   2.272
 1222SOL     OW 4917   0.198   3.887   2.357
 1222SOL    HW2 4918   0.118   3.930   2.327
 1222SOL    HW3 4919   0.189   3.796   2.328
 1222SOL    MW4 4920   0.186   3.881   2.349
 1223SOL     OW 4921   4.463   4.008   2.262
 1223SOL    HW2 4922   4.452   4.101   2.284
 1223SOL    HW3 4923   4.483   4.008   2.168
 1223SOL    MW4 4924   4.464   4.021   2.252
 1224SOL     OW 4925   4.442   4.265   2.346
 1224SOL    HW2 4926   4.450   4.271   2.441
 1224SOL    HW3 4927   4.522   4.305   2.312
 1224SOL    MW4 4928   4.453   4.271   2.354
 1225SOL     OW 4929   0.189   4.377   2.261
 1225SOL    HW2 4930   0.263   4.326   2.293
 1225SOL    HW3 4931   0.203   4.464   2.298
 1225SOL    MW4 4932   0.201   4.382   2.270
 1226SOL     OW 4933   0.711   4.614   2.397
 1226SOL    HW2 4934   0.704   4.615   2.492
 1226SOL    HW3 4935   0.791   4.663   2.378
 1226SOL    MW4 4936   0.721   4.620   2.407
 1227SOL     OW 4937   0.466   0.042   2.301
 1227SOL    HW2 4938   0.558   0.014   2.302
 1227SOL    HW3 4939   0.447   0.059   2.208
 1227SOL    MW4 4940   0.476   0.041   2.289
 1228SOL     OW 4941   0.464   0.336   2.326
 1228SOL    HW2 4942   0.467   0.364   2.417
 1228SOL    HW3 4943   0.477   0.241   2.329
 1228SOL    MW4 4944   0.466   0.327   2.338
 1229SOL     OW 4945   0.680   0.475   2.240
 1229SOL    HW2 4946   0.688   0.563   2.279
 1229SOL    HW3 4947   0.607   0.435   2.287
 1229SOL    MW4 4948   0.671   0.482   2.251
 1230SOL     OW 4949   0.653   0.726   2.351
 1230SOL    HW2 4950   0.657   0.740   2.445
 1230SOL    HW3 4951   0.573   0.770   2.323
 1230SOL    MW4 4952   0.643   0.734   2.360
 1231SOL     OW 4953   0.415   0.881   2.240
 1231SOL    HW2 4954   0.338   0.828   2.261
 1231SOL    HW3 4955   0.428   0.867   2.146
 1231SOL    MW4 4956   0.407   0.872   2.230
 1232SOL     OW 4957   0.470   1.139   2.333
 1232SOL    HW2 4958   0.460   1.052   2.295
 1232SOL    HW3 4959   0.383   1.178   2.327
 1232SOL    MW4 4960   0.457   1.133   2.327
 1233SOL     OW 4961   0.706   1.256   2.231
 1233SOL    HW2 4962   0.721   1.345   2.265
 1233SOL    HW3 4963   0.620   1.231   2.264
 1233SOL    MW4 4964   0.697   1.265   2.240
 1234SOL     OW 4965   0.688   1.513   2.321
 1234SOL    HW2 4966   0.679   1.537   2.413
 1234SOL    HW3 4967   0.768   1.558   2.293
 1234SOL    MW4 4968   0.697   1.522   2.329
 1235SOL     OW 4969   0.461   1.675   2.275
 1235SOL    HW2 4970   0.524   1.612   2.309
 1235SOL    HW3 4971   0.376   1.631   2.280
 1235SOL    MW4 4972   0.458   1.661   2.280
 1236SOL     OW 4973   0.461   1.930   2.360
 1236SOL    HW2 4974   0.539   1.958   2.313
 1236SOL    HW3 4975   0.450   1.838   2.334
 1236SOL    MW4 4976   0.470   1.921   2.350
 1237SOL     OW 4977   0.684   2.055   2.239
 1237SOL    HW2 4978   0.753   2.010   2.286
 1237SOL    HW3 4979   0.674   2.139   2.283
 1237SOL    MW4 4980   0.692   2.060   2.251
 1238SOL     OW 4981   0.674   2.311   2.332
 1238SOL    HW2 4982   0.674   2.304   2.428
 1238SOL    HW3 4983   0.752   2.362   2.311
 1238SOL    MW4 4984   0.684   2.317   2.342
 1239SOL     OW 4985   0.457   2.437   2.220
 1239SOL    HW2 4986   0.535   2.403   2.263
 1239SOL    HW3 4987   0.385   2.390   2.261
 1239SOL    MW4 4988   0.458   2.426   2.231
 1240SOL     OW 4989   0.451   2.701   2.308
 1240SOL    HW2 4990   0.439   2.714   2.402
 1240SOL    HW3 4991   0.459   2.606   2.298
 1240SOL    MW4 4992   0.450   2.690   2.319
 1241SOL     OW 4993   0.658   2.886   2.273
 1241SOL    HW2 4994   0.727   2.832   2.312
 1241SOL    HW3 4995   0.582   2.828   2.270
 1241SOL    MW4 4996   0.657   2.871   2.278
 1242SOL     OW 4997   0.663   3.110   2.420
 1242SOL    HW2 4998   0.587   3.154   2.382
 1242SOL    HW3 4999   0.667   3.026   2.374
 1242SOL    MW4 5000   0.653   3.104   2.409
 1243SOL     OW 5001   0.425   3.220   2.306
 1243SOL    HW2 5002   0.352   3.160   2.321
 1243SOL    HW3 5003   0.431   3.226   2.210
 1243SOL    MW4 5004   0.416   3.213   2.295
 1244SOL     OW 5005   0.405   3.495   2.374
 1244SOL    HW2 5006   0.491   3.521   2.341
 1244SOL    HW3 5007   0.402   3.401   2.362
 1244SOL    MW4 5008   0.416   3.486   2.368
 1245SOL     OW 5009   0.656   3.593   2.305
 1245SOL    HW2 5010   0.661   3.683   2.337
 1245SOL    HW3 5011   0.664   3.600   2.210
 1245SOL    MW4 5012   0.657   3.606   2.297
 1246SOL     OW 5013   0.678   3.856   2.396
 1246SOL    HW2 5014   0.683   3.860   2.491
 1246SOL    HW3 5015   0.601   3.908   2.373
 1246SOL    MW4 5016   0.669   3.863   2.405
 1247SOL     OW 5017   0.440   3.987   2.271
 1247SOL    HW2 5018   0.349   3.959   2.280
 1247SOL    HW3 5019   0.454   3.993   2.176
 1247SOL    MW4 5020   0.430   3.984   2.259
 1248SOL     OW 5021   0.423   4.255   2.337
 1248SOL    HW2 5022   0.506   4.288   2.301
 1248SOL    HW3 5023   0.423   4.162   2.318
 1248SOL    MW4 5024   0.434   4.247   2.330
 1249SOL     OW 5025   0.666   4.371   2.276
 1249SOL    HW2 5026   0.668   4.456   2.319
 1249SOL    HW3 5027   0.678   4.390   2.183
 1249SOL    MW4 5028   0.668   4.384   2.269
 1250SOL     OW 5029   1.153   4.653   2.400
 1250SOL    HW2 5030   1.137   4.652   2.494
 1250SOL    HW3 5031   1.079   4.703   2.364
 1250SOL    MW4 5032   1.141   4.660   2.407
 1251SOL     OW 5033   0.934   0.103   2.293
 1251SOL    HW2 5034   0.925   0.194   2.321
 1251SOL    HW3 5035   0.925   0.107   2.197
 1251SOL    MW4 5036   0.931   0.115   2.284
 1252SOL     OW 5037   0.888   0.368   2.382
 1252SOL    HW2 5038   0.960   0.415   2.340
 1252SOL    HW3 5039   0.813   0.383   2.325
 1252SOL    MW4 5040   0.888   0.376   2.369
 1253SOL     OW 5041   1.112   0.489   2.254
 1253SOL    HW2 5042   1.199   0.461   2.283
 1253SOL    HW3 5043   1.118   0.491   2.158
 1253SOL    MW4 5044   1.124   0.485   2.245
 1254SOL     OW 5045   1.129   0.749   2.373
 1254SOL    HW2 5046   1.055   0.788   2.327
 1254SOL    HW3 5047   1.144   0.665   2.328
 1254SOL    MW4 5048   1.121   0.743   2.361
 1255SOL     OW 5049   0.891   0.851   2.258
 1255SOL    HW2 5050   0.914   0.926   2.314
 1255SOL    HW3 5051   0.805   0.823   2.290
 1255SOL    MW4 5052   0.883   0.857   2.270
 1256SOL     OW 5053   0.909   1.092   2.404
 1256SOL    HW2 5054   0.974   1.144   2.355
 1256SOL    HW3 5055   0.825   1.121   2.370
 1256SOL    MW4 5056   0.907   1.103   2.393
 1257SOL     OW 5057   1.101   1.233   2.254
 1257SOL    HW2 5058   1.187   1.205   2.284
 1257SOL    HW3 5059   1.105   1.226   2.159
 1257SOL    MW4 5060   1.113   1.228   2.245
 1258SOL     OW 5061   1.120   1.516   2.339
 1258SOL    HW2 5062   1.045   1.569   2.311
 1258SOL    HW3 5063   1.100   1.428   2.307
 1258SOL    MW4 5064   1.107   1.511   2.331
 1259SOL     OW 5065   0.913   1.659   2.252
 1259SOL    HW2 5066   0.917   1.747   2.290
 1259SOL    HW3 5067   0.928   1.672   2.159
 1259SOL    MW4 5068   0.916   1.673   2.245
 1260SOL     OW 5069   0.905   1.925   2.342
 1260SOL    HW2 5070   0.899   1.910   2.436
 1260SOL    HW3 5071   0.983   1.978   2.331
 1260SOL    MW4 5072   0.914   1.930   2.353
 1261SOL     OW 5073   1.154   2.055   2.304
 1261SOL    HW2 5074   1.232   2.009   2.337
 1261SOL    HW3 5075   1.157   2.043   2.210
 1261SOL    MW4 5076   1.165   2.047   2.296
 1262SOL     OW 5077   1.099   2.320   2.321
 1262SOL    HW2 5078   1.189   2.345   2.302
 1262SOL    HW3 5079   1.100   2.224   2.324
 1262SOL    MW4 5080   1.111   2.311   2.319
 1263SOL     OW 5081   0.879   2.470   2.249
 1263SOL    HW2 5082   0.955   2.418   2.277
 1263SOL    HW3 5083   0.875   2.457   2.154
 1263SOL    MW4 5084   0.889   2.461   2.240
 1264SOL     OW 5085   0.875   2.736   2.366
 1264SOL    HW2 5086   0.864   2.727   2.460
 1264SOL    HW3 5087   0.876   2.646   2.333
 1264SOL    MW4 5088   0.874   2.723   2.374
 1265SOL     OW 5089   1.109   2.852   2.276
 1265SOL    HW2 5090   1.173   2.796   2.320
 1265SOL    HW3 5091   1.024   2.817   2.301
 1265SOL    MW4 5092   1.107   2.840   2.285
 1266SOL     OW 5093   1.092   3.099   2.407
 1266SOL    HW2 5094   1.011   3.136   2.370
 1266SOL    HW3 5095   1.102   3.015   2.362
 1266SOL    MW4 5096   1.083   3.093   2.396
 1267SOL     OW 5097   0.883   3.220   2.268
 1267SOL    HW2 5098   0.885   3.311   2.295
 1267SOL    HW3 5099   0.802   3.185   2.304
 1267SOL    MW4 5100   0.873   3.227   2.276
 1268SOL     OW 5101   0.922   3.486   2.368
 1268SOL    HW2 5102   0.933   3.496   2.462
 1268SOL    HW3 5103   0.837   3.527   2.349
 1268SOL    MW4 5104   0.912   3.493   2.378
 1269SOL     OW 5105   1.153   3.588   2.255
 1269SOL    HW2 5106   1.218   3.542   2.309
 1269SOL    HW3 5107   1.070   3.549   2.282
 1269SOL    MW4 5108   1.151   3.577   2.266
 1270SOL     OW 5109   1.125   3.855   2.332
 1270SOL    HW2 5110   1.208   3.897   2.312
 1270SOL    HW3 5111   1.142   3.761   2.321
 1270SOL    MW4 5112   1.138   3.848   2.328
 1271SOL     OW 5113   0.889   3.983   2.270
 1271SOL    HW2 5114   0.970   3.943   2.298
 1271SOL    HW3 5115   0.820   3.930   2.310
 1271SOL    MW4 5116   0.890   3.971   2.279
 1272SOL     OW 5117   0.897   4.263   2.375
 1272SOL    HW2 5118   0.898   4.170   2.352
 1272SOL    HW3 5119   0.807   4.291   2.360
 1272SOL    MW4 5120   0.886   4.254   2.370
 1273SOL     OW 5121   1.107   4.406   2.272
 1273SOL    HW2 5122   1.037   4.368   2.326
 1273SOL    HW3 5123   1.125   4.491   2.313
 1273SOL    MW4 5124   1.100   4.412   2.285
 1274SOL     OW 5125   1.583   4.630   2.347
 1274SOL    HW2 5126   1.660   4.667   2.304
 1274SOL    HW3 5127   1.510   4.681   2.313
 1274SOL    MW4 5128   1.584   4.641   2.337
 1275SOL     OW 5129   1.368   0.129   2.270
 1275SOL    HW2 5130   1.352   0.221   2.292
 1275SOL    HW3 5131   1.311   0.079   2.328
 1275SOL    MW4 5132   1.358   0.135   2.280
 1276SOL     OW 5133   1.350   0.389   2.385
 1276SOL    HW2 5134   1.365   0.374   2.479
 1276SOL    HW3 5135   1.432   0.425   2.353
 1276SOL    MW4 5136   1.363   0.392   2.393
 1277SOL     OW 5137   1.581   0.500   2.263
 1277SOL    HW2 5138   1.667   0.460   2.277
 1277SOL    HW3 5139   1.574   0.508   2.168
 1277SOL    MW4 5140   1.591   0.496   2.252
 1278SOL     OW 5141   1.573   0.753   2.364
 1278SOL    HW2 5142   1.650   0.804   2.336
 1278SOL    HW3 5143   1.585   0.668   2.322
 1278SOL    MW4 5144   1.585   0.749   2.354
 1279SOL     OW 5145   1.341   0.863   2.240
 1279SOL    HW2 5146   1.416   0.829   2.290
 1279SOL    HW3 5147   1.265   0.827   2.285
 1279SOL    MW4 5148   1.341   0.853   2.253
 1280SOL     OW 5149   1.344   1.124   2.320
 1280SOL    HW2 5150   1.346   1.123   2.415
 1280SOL    HW3 5151   1.350   1.032   2.294
 1280SOL    MW4 5152   1.345   1.112   2.329
 1281SOL     OW 5153   1.577   1.233   2.223
 1281SOL    HW2 5154   1.492   1.199   2.251
 1281SOL    HW3 5155   1.574   1.229   2.128
 1281SOL    MW4 5156   1.565   1.228   2.214
 1282SOL     OW 5157   1.583   1.504   2.351
 1282SOL    HW2 5158   1.655   1.559   2.318
 1282SOL    HW3 5159   1.583   1.429   2.292
 1282SOL    MW4 5160   1.593   1.502   2.339
 1283SOL     OW 5161   1.344   1.634   2.246
 1283SOL    HW2 5162   1.411   1.581   2.291
 1283SOL    HW3 5163   1.261   1.594   2.271
 1283SOL    MW4 5164   1.342   1.622   2.255
 1284SOL     OW 5165   1.380   1.892   2.377
 1284SOL    HW2 5166   1.457   1.936   2.340
 1284SOL    HW3 5167   1.374   1.810   2.328
 1284SOL    MW4 5168   1.390   1.887   2.365
 1285SOL     OW 5169   1.574   2.038   2.266
 1285SOL    HW2 5170   1.662   2.010   2.291
 1285SOL    HW3 5171   1.577   2.043   2.170
 1285SOL    MW4 5172   1.586   2.035   2.257
 1286SOL     OW 5173   1.594   2.293   2.372
 1286SOL    HW2 5174   1.588   2.285   2.468
 1286SOL    HW3 5175   1.582   2.203   2.341
 1286SOL    MW4 5176   1.591   2.280   2.381
 1287SOL     OW 5177   1.362   2.416   2.295
 1287SOL    HW2 5178   1.446   2.389   2.333
 1287SOL    HW3 5179   1.378   2.421   2.201
 1287SOL    MW4 5180   1.375   2.413   2.288
 1288SOL     OW 5181   1.312   2.673   2.386
 1288SOL    HW2 5182   1.398   2.708   2.363
 1288SOL    HW3 5183   1.314   2.583   2.353
 1288SOL    MW4 5184   1.324   2.665   2.379
 1289SOL     OW 5185   1.556   2.796   2.305
 1289SOL    HW2 5186   1.549   2.891   2.305
 1289SOL    HW3 5187   1.557   2.773   2.212
 1289SOL    MW4 5188   1.555   2.805   2.292
 1290SOL     OW 5189   1.577   3.061   2.340
 1290SOL    HW2 5190   1.582   3.084   2.433
 1290SOL    HW3 5191   1.492   3.093   2.312
 1290SOL    MW4 5192   1.567   3.068   2.349
 1291SOL     OW 5193   1.339   3.182   2.290
 1291SOL    HW2 5194   1.258   3.150   2.329
 1291SOL    HW3 5195   1.314   3.203   2.199
 1291SOL    MW4 5196   1.325   3.181   2.283
 1292SOL     OW 5197   1.357   3.443   2.400
 1292SOL    HW2 5198   1.362   3.455   2.495
 1292SOL    HW3 5199   1.349   3.348   2.388
 1292SOL    MW4 5200   1.357   3.432   2.411
 1293SOL     OW 5201   1.544   3.591   2.269
 1293SOL    HW2 5202   1.538   3.680   2.304
 1293SOL    HW3 5203   1.474   3.543   2.314
 1293SOL    MW4 5204   1.534   3.597   2.280
 1294SOL     OW 5205   1.566   3.845   2.363
 1294SOL    HW2 5206   1.563   3.854   2.458
 1294SOL    HW3 5207   1.654   3.872   2.339
 1294SOL    MW4 5208   1.577   3.850   2.372
 1295SOL     OW 5209   1.350   4.015   2.288
 1295SOL    HW2 5210   1.428   3.968   2.318
 1295SOL    HW3 5211   1.354   4.011   2.193
 1295SOL    MW4 5212   1.361   4.009   2.280
 1296SOL     OW 5213   1.322   4.268   2.395
 1296SOL    HW2 5214   1.325   4.176   2.372
 1296SOL    HW3 5215   1.245   4.302   2.348
 1296SOL    MW4 5216   1.312   4.261   2.386
 1297SOL     OW 5217   1.537   4.359   2.254
 1297SOL    HW2 5218   1.460   4.315   2.292
 1297SOL    HW3 5219   1.526   4.451   2.277
 1297SOL    MW4 5220   1.526   4.365   2.262
 1298SOL     OW 5221   2.018   4.612   2.348
 1298SOL    HW2 5222   2.098   4.650   2.314
 1298SOL    HW3 5223   2.014   4.525   2.308
 1298SOL    MW4 5224   2.028   4.605   2.338
 1299SOL     OW 5225   1.806   0.079   2.236
 1299SOL    HW2 5226   1.808   0.170   2.265
 1299SOL    HW3 5227   1.881   0.038   2.278
 1299SOL    MW4 5228   1.816   0.085   2.245
 1300SOL     OW 5229   1.797   0.348   2.343
 1300SOL    HW2 5230   1.794   0.357   2.438
 1300SOL    HW3 5231   1.879   0.391   2.318
 1300SOL    MW4 5232   1.807   0.355   2.352
 1301SOL     OW 5233   2.013   0.484   2.267
 1301SOL    HW2 5234   2.005   0.571   2.307
 1301SOL    HW3 5235   2.016   0.500   2.173
 1301SOL    MW4 5236   2.012   0.497   2.260
 1302SOL     OW 5237   2.021   0.739   2.395
 1302SOL    HW2 5238   2.098   0.780   2.355
 1302SOL    HW3 5239   1.946   0.789   2.360
 1302SOL    MW4 5240   2.021   0.751   2.385
 1303SOL     OW 5241   1.813   0.881   2.275
 1303SOL    HW2 5242   1.800   0.969   2.310
 1303SOL    HW3 5243   1.811   0.893   2.180
 1303SOL    MW4 5244   1.811   0.894   2.267
 1304SOL     OW 5245   1.776   1.130   2.387
 1304SOL    HW2 5246   1.851   1.172   2.344
 1304SOL    HW3 5247   1.700   1.163   2.340
 1304SOL    MW4 5248   1.776   1.140   2.375
 1305SOL     OW 5249   2.000   1.253   2.264
 1305SOL    HW2 5250   2.022   1.340   2.297
 1305SOL    HW3 5251   2.004   1.261   2.169
 1305SOL    MW4 5252   2.003   1.265   2.256
 1306SOL     OW 5253   2.030   1.523   2.308
 1306SOL    HW2 5254   2.014   1.524   2.403
 1306SOL    HW3 5255   1.949   1.556   2.270
 1306SOL    MW4 5256   2.017   1.527   2.316
 1307SOL     OW 5257   1.814   1.658   2.226
 1307SOL    HW2 5258   1.803   1.746   2.261
 1307SOL    HW3 5259   1.801   1.668   2.132
 1307SOL    MW4 5260   1.811   1.671   2.218
 1308SOL     OW 5261   1.807   1.902   2.349
 1308SOL    HW2 5262   1.825   1.884   2.442
 1308SOL    HW3 5263   1.882   1.953   2.320
 1308SOL    MW4 5264   1.819   1.906   2.358
 1309SOL     OW 5265   2.023   2.053   2.272
 1309SOL    HW2 5266   2.097   2.026   2.326
 1309SOL    HW3 5267   2.057   2.053   2.183
 1309SOL    MW4 5268   2.037   2.049   2.268
 1310SOL     OW 5269   2.033   2.305   2.385
 1310SOL    HW2 5270   2.112   2.348   2.353
 1310SOL    HW3 5271   2.036   2.218   2.346
 1310SOL    MW4 5272   2.044   2.299   2.376
 1311SOL     OW 5273   1.824   2.417   2.285
 1311SOL    HW2 5274   1.898   2.376   2.329
 1311SOL    HW3 5275   1.747   2.371   2.320
 1311SOL    MW4 5276   1.824   2.405   2.295
 1312SOL     OW 5277   1.808   2.686   2.410
 1312SOL    HW2 5278   1.822   2.602   2.365
 1312SOL    HW3 5279   1.726   2.719   2.373
 1312SOL    MW4 5280   1.799   2.679   2.399
 1313SOL     OW 5281   2.025   2.797   2.259
 1313SOL    HW2 5282   2.103   2.759   2.300
 1313SOL    HW3 5283   1.952   2.764   2.311
 1313SOL    MW4 5284   2.026   2.787   2.271
 1314SOL     OW 5285   2.020   3.079   2.377
 1314SOL    HW2 5286   2.087   3.133   2.335
 1314SOL    HW3 5287   2.035   2.991   2.343
 1314SOL    MW4 5288   2.031   3.075   2.367
 1315SOL     OW 5289   1.794   3.188   2.255
 1315SOL    HW2 5290   1.868   3.144   2.296
 1315SOL    HW3 5291   1.717   3.139   2.283
 1315SOL    MW4 5292   1.794   3.176   2.264
 1316SOL     OW 5293   1.797   3.453   2.356
 1316SOL    HW2 5294   1.796   3.361   2.330
 1316SOL    HW3 5295   1.713   3.487   2.325
 1316SOL    MW4 5296   1.786   3.445   2.349
 1317SOL     OW 5297   1.998   3.598   2.232
 1317SOL    HW2 5298   1.923   3.553   2.271
 1317SOL    HW3 5299   1.991   3.579   2.139
 1317SOL    MW4 5300   1.987   3.589   2.225
 1318SOL     OW 5301   2.032   3.878   2.303
 1318SOL    HW2 5302   2.044   3.874   2.398
 1318SOL    HW3 5303   2.015   3.787   2.277
 1318SOL    MW4 5304   2.031   3.866   2.312
 1319SOL     OW 5305   1.776   3.978   2.230
 1319SOL    HW2 5306   1.866   3.959   2.255
 1319SOL    HW3 5307   1.776   3.973   2.134
 1319SOL    MW4 5308   1.788   3.975   2.220
 1320SOL     OW 5309   1.766   4.246   2.337
 1320SOL    HW2 5310   1.753   4.161   2.294
 1320SOL    HW3 5311   1.690   4.298   2.311
 1320SOL    MW4 5312   1.755   4.241   2.328
 1321SOL     OW 5313   2.008   4.342   2.254
 1321SOL    HW2 5314   1.925   4.303   2.281
 1321SOL    HW3 5315   1.996   4.361   2.161
 1321SOL    MW4 5316   1.996   4.340   2.245
 1322SOL     OW 5317   2.505   4.623   2.336
 1322SOL    HW2 5318   2.587   4.670   2.320
 1322SOL    HW3 5319   2.516   4.539   2.290
 1322SOL    MW4 5320   2.517   4.618   2.328
 1323SOL     OW 5321   2.246   0.052   2.246
 1323SOL    HW2 5322   2.239   0.145   2.265
 1323SOL    HW3 5323   2.333   0.027   2.278
 1323SOL    MW4 5324   2.257   0.061   2.252
 1324SOL     OW 5325   2.239   0.325   2.318
 1324SOL    HW2 5326   2.307   0.381   2.280
 1324SOL    HW3 5327   2.160   0.379   2.319
 1324SOL    MW4 5328   2.238   0.339   2.313
 1325SOL     OW 5329   2.429   0.491   2.225
 1325SOL    HW2 5330   2.506   0.467   2.277
 1325SOL    HW3 5331   2.459   0.484   2.134
 1325SOL    MW4 5332   2.443   0.487   2.220
 1326SOL     OW 5333   2.446   0.755   2.328
 1326SOL    HW2 5334   2.533   0.781   2.297
 1326SOL    HW3 5335   2.436   0.665   2.296
 1326SOL    MW4 5336   2.457   0.747   2.320
 1327SOL     OW 5337   2.211   0.894   2.261
 1327SOL    HW2 5338   2.226   0.986   2.284
 1327SOL    HW3 5339   2.295   0.851   2.278
 1327SOL    MW4 5340   2.224   0.900   2.266
 1328SOL     OW 5341   2.256   1.142   2.314
 1328SOL    HW2 5342   2.333   1.185   2.276
 1328SOL    HW3 5343   2.182   1.177   2.265
 1328SOL    MW4 5344   2.257   1.152   2.303
 1329SOL     OW 5345   2.497   1.238   2.205
 1329SOL    HW2 5346   2.583   1.211   2.235
 1329SOL    HW3 5347   2.478   1.318   2.255
 1329SOL    MW4 5348   2.506   1.245   2.216
 1330SOL     OW 5349   2.461   1.468   2.355
 1330SOL    HW2 5350   2.479   1.478   2.448
 1330SOL    HW3 5351   2.517   1.534   2.313
 1330SOL    MW4 5352   2.471   1.478   2.362
 1331SOL     OW 5353   2.267   1.639   2.269
 1331SOL    HW2 5354   2.322   1.582   2.322
 1331SOL    HW3 5355   2.179   1.605   2.280
 1331SOL    MW4 5356   2.263   1.627   2.277
 1332SOL     OW 5357   2.240   1.913   2.353
 1332SOL    HW2 5358   2.319   1.953   2.318
 1332SOL    HW3 5359   2.240   1.824   2.317
 1332SOL    MW4 5360   2.250   1.906   2.344
 1333SOL     OW 5361   2.471   2.032   2.259
 1333SOL    HW2 5362   2.548   1.984   2.287
 1333SOL    HW3 5363   2.474   2.030   2.164
 1333SOL    MW4 5364   2.482   2.026   2.250
 1334SOL     OW 5365   2.491   2.289   2.354
 1334SOL    HW2 5366   2.567   2.342   2.330
 1334SOL    HW3 5367   2.504   2.207   2.306
 1334SOL    MW4 5368   2.503   2.285   2.344
 1335SOL     OW 5369   2.263   2.409   2.267
 1335SOL    HW2 5370   2.261   2.493   2.313
 1335SOL    HW3 5371   2.348   2.371   2.289
 1335SOL    MW4 5372   2.274   2.415   2.276
 1336SOL     OW 5373   2.252   2.675   2.371
 1336SOL    HW2 5374   2.240   2.687   2.465
 1336SOL    HW3 5375   2.333   2.721   2.351
 1336SOL    MW4 5376   2.261   2.682   2.381
 1337SOL     OW 5377   2.476   2.817   2.262
 1337SOL    HW2 5378   2.553   2.764   2.281
 1337SOL    HW3 5379   2.471   2.818   2.166
 1337SOL    MW4 5380   2.485   2.810   2.252
 1338SOL     OW 5381   2.470   3.095   2.314
 1338SOL    HW2 5382   2.558   3.130   2.302
 1338SOL    HW3 5383   2.478   3.002   2.295
 1338SOL    MW4 5384   2.483   3.087   2.310
 1339SOL     OW 5385   2.221   3.218   2.238
 1339SOL    HW2 5386   2.224   3.299   2.289
 1339SOL    HW3 5387   2.306   3.177   2.254
 1339SOL    MW4 5388   2.233   3.223   2.247
 1340SOL     OW 5389   2.205   3.448   2.374
 1340SOL    HW2 5390   2.197   3.454   2.469
 1340SOL    HW3 5391   2.137   3.506   2.340
 1340SOL    MW4 5392   2.195   3.456   2.382
 1341SOL     OW 5393   2.430   3.568   2.261
 1341SOL    HW2 5394   2.448   3.655   2.297
 1341SOL    HW3 5395   2.365   3.530   2.320
 1341SOL    MW4 5396   2.424   3.574   2.273
 1342SOL     OW 5397   2.471   3.845   2.339
 1342SOL    HW2 5398   2.442   3.855   2.430
 1342SOL    HW3 5399   2.411   3.900   2.289
 1342SOL    MW4 5400   2.459   3.853   2.344
 1343SOL     OW 5401   2.265   3.985   2.199
 1343SOL    HW2 5402   2.273   4.074   2.232
 1343SOL    HW3 5403   2.192   3.947   2.247
 1343SOL    MW4 5404   2.256   3.992   2.209
 1344SOL     OW 5405   2.252   4.249   2.334
 1344SOL    HW2 5406   2.261   4.254   2.430
 1344SOL    HW3 5407   2.169   4.294   2.316
 1344SOL    MW4 5408   2.242   4.256   2.345
 1345SOL     OW 5409   2.475   4.357   2.229
 1345SOL    HW2 5410   2.549   4.308   2.265
 1345SOL    HW3 5411   2.397   4.314   2.263
 1345SOL    MW4 5412   2.475   4.345   2.238
 1346SOL     OW 5413   2.948   4.664   2.379
 1346SOL    HW2 5414   3.022   4.710   2.340
 1346SOL    HW3 5415   2.959   4.573   2.351
 1346SOL    MW4 5416   2.959   4.658   2.370
 1347SOL     OW 5417   2.719   0.114   2.261
 1347SOL    HW2 5418   2.718   0.200   2.303
 1347SOL    HW3 5419   2.798   0.072   2.294
 1347SOL    MW4 5420   2.729   0.120   2.271
 1348SOL     OW 5421   2.654   0.378   2.341
 1348SOL    HW2 5422   2.662   0.367   2.436
 1348SOL    HW3 5423   2.724   0.438   2.318
 1348SOL    MW4 5424   2.664   0.384   2.351
 1349SOL     OW 5425   2.888   0.504   2.221
 1349SOL    HW2 5426   2.918   0.584   2.263
 1349SOL    HW3 5427   2.907   0.518   2.128
 1349SOL    MW4 5428   2.894   0.517   2.214
 1350SOL     OW 5429   2.956   0.764   2.286
 1350SOL    HW2 5430   2.956   0.758   2.382
 1350SOL    HW3 5431   2.872   0.803   2.265
 1350SOL    MW4 5432   2.945   0.768   2.296
 1351SOL     OW 5433   2.715   0.874   2.248
 1351SOL    HW2 5434   2.722   0.963   2.281
 1351SOL    HW3 5435   2.713   0.883   2.153
 1351SOL    MW4 5436   2.716   0.887   2.240
 1352SOL     OW 5437   2.721   1.140   2.325
 1352SOL    HW2 5438   2.720   1.148   2.420
 1352SOL    HW3 5439   2.791   1.199   2.297
 1352SOL    MW4 5440   2.730   1.149   2.334
 1353SOL     OW 5441   2.951   1.288   2.242
 1353SOL    HW2 5442   3.011   1.225   2.282
 1353SOL    HW3 5443   2.959   1.272   2.148
 1353SOL    MW4 5444   2.960   1.278   2.235
 1354SOL     OW 5445   2.922   1.545   2.355
 1354SOL    HW2 5446   2.924   1.543   2.451
 1354SOL    HW3 5447   2.923   1.453   2.329
 1354SOL    MW4 5448   2.922   1.533   2.365
 1355SOL     OW 5449   2.668   1.658   2.258
 1355SOL    HW2 5450   2.749   1.615   2.285
 1355SOL    HW3 5451   2.674   1.662   2.162
 1355SOL    MW4 5452   2.679   1.653   2.249
 1356SOL     OW 5453   2.733   1.927   2.337
 1356SOL    HW2 5454   2.720   1.937   2.431
 1356SOL    HW3 5455   2.709   1.836   2.319
 1356SOL    MW4 5456   2.728   1.916   2.347
 1357SOL     OW 5457   2.942   2.093   2.285
 1357SOL    HW2 5458   3.022   2.043   2.302
 1357SOL    HW3 5459   2.872   2.034   2.311
 1357SOL    MW4 5460   2.944   2.079   2.291
 1358SOL     OW 5461   2.925   2.354   2.337
 1358SOL    HW2 5462   2.921   2.355   2.432
 1358SOL    HW3 5463   2.925   2.261   2.313
 1358SOL    MW4 5464   2.925   2.342   2.346
 1359SOL     OW 5465   2.690   2.456   2.247
 1359SOL    HW2 5466   2.775   2.411   2.253
 1359SOL    HW3 5467   2.685   2.486   2.156
 1359SOL    MW4 5468   2.701   2.454   2.236
 1360SOL     OW 5469   2.721   2.696   2.348
 1360SOL    HW2 5470   2.804   2.733   2.320
 1360SOL    HW3 5471   2.724   2.605   2.319
 1360SOL    MW4 5472   2.732   2.689   2.340
 1361SOL     OW 5473   2.943   2.840   2.242
 1361SOL    HW2 5474   2.923   2.924   2.281
 1361SOL    HW3 5475   2.939   2.855   2.147
 1361SOL    MW4 5476   2.940   2.853   2.234
 1362SOL     OW 5477   2.914   3.078   2.385
 1362SOL    HW2 5478   2.995   3.113   2.348
 1362SOL    HW3 5479   2.844   3.130   2.345
 1362SOL    MW4 5480   2.915   3.089   2.374
 1363SOL     OW 5481   2.720   3.223   2.247
 1363SOL    HW2 5482   2.707   3.305   2.295
 1363SOL    HW3 5483   2.714   3.248   2.155
 1363SOL    MW4 5484   2.718   3.237   2.241
 1364SOL     OW 5485   2.688   3.486   2.341
 1364SOL    HW2 5486   2.759   3.527   2.292
 1364SOL    HW3 5487   2.608   3.528   2.308
 1364SOL    MW4 5488   2.686   3.497   2.330
 1365SOL     OW 5489   2.924   3.584   2.241
 1365SOL    HW2 5490   2.995   3.537   2.285
 1365SOL    HW3 5491   2.938   3.676   2.263
 1365SOL    MW4 5492   2.935   3.590   2.250
 1366SOL     OW 5493   2.965   3.852   2.317
 1366SOL    HW2 5494   2.956   3.843   2.412
 1366SOL    HW3 5495   2.889   3.903   2.290
 1366SOL    MW4 5496   2.954   3.858   2.326
 1367SOL     OW 5497   2.727   3.953   2.251
 1367SOL    HW2 5498   2.643   3.913   2.275
 1367SOL    HW3 5499   2.723   3.960   2.156
 1367SOL    MW4 5500   2.715   3.949   2.242
 1368SOL     OW 5501   2.718   4.208   2.343
 1368SOL    HW2 5502   2.712   4.212   2.438
 1368SOL    HW3 5503   2.730   4.115   2.323
 1368SOL    MW4 5504   2.719   4.196   2.353
 1369SOL     OW 5505   2.933   4.380   2.272
 1369SOL    HW2 5506   3.004   4.325   2.306
 1369SOL    HW3 5507   2.854   4.344   2.311
 1369SOL    MW4 5508   2.932   4.368   2.281
 1370SOL     OW 5509   3.393   4.625   2.325
 1370SOL    HW2 5510   3.407   4.617   2.419
 1370SOL    HW3 5511   3.474   4.664   2.292
 1370SOL    MW4 5512   3.406   4.629   2.333
 1371SOL     OW 5513   3.158   0.132   2.273
 1371SOL    HW2 5514   3.146   0.222   2.303
 1371SOL    HW3 5515   3.239   0.103   2.316
 1371SOL    MW4 5516   3.167   0.140   2.283
 1372SOL     OW 5517   3.097   0.371   2.404
 1372SOL    HW2 5518   3.174   0.420   2.375
 1372SOL    HW3 5519   3.024   0.411   2.357
 1372SOL    MW4 5520   3.098   0.383   2.394
 1373SOL     OW 5521   3.328   0.484   2.276
 1373SOL    HW2 5522   3.414   0.448   2.296
 1373SOL    HW3 5523   3.338   0.524   2.190
 1373SOL    MW4 5524   3.340   0.484   2.267
 1374SOL     OW 5525   3.412   0.743   2.370
 1374SOL    HW2 5526   3.471   0.787   2.309
 1374SOL    HW3 5527   3.406   0.653   2.338
 1374SOL    MW4 5528   3.419   0.737   2.358
 1375SOL     OW 5529   3.202   0.887   2.252
 1375SOL    HW2 5530   3.269   0.845   2.307
 1375SOL    HW3 5531   3.126   0.828   2.260
 1375SOL    MW4 5532   3.200   0.873   2.261
 1376SOL     OW 5533   3.179   1.147   2.367
 1376SOL    HW2 5534   3.258   1.197   2.343
 1376SOL    HW3 5535   3.193   1.061   2.326
 1376SOL    MW4 5536   3.191   1.142   2.358
 1377SOL     OW 5537   3.381   1.297   2.233
 1377SOL    HW2 5538   3.466   1.261   2.259
 1377SOL    HW3 5539   3.385   1.389   2.258
 1377SOL    MW4 5540   3.393   1.304   2.239
 1378SOL     OW 5541   3.380   1.560   2.299
 1378SOL    HW2 5542   3.379   1.568   2.394
 1378SOL    HW3 5543   3.289   1.575   2.272
 1378SOL    MW4 5544   3.368   1.563   2.308
 1379SOL     OW 5545   3.130   1.663   2.207
 1379SOL    HW2 5546   3.139   1.757   2.226
 1379SOL    HW3 5547   3.055   1.635   2.260
 1379SOL    MW4 5548   3.121   1.672   2.217
 1380SOL     OW 5549   3.146   1.909   2.346
 1380SOL    HW2 5550   3.142   1.914   2.442
 1380SOL    HW3 5551   3.231   1.946   2.324
 1380SOL    MW4 5552   3.156   1.915   2.356
 1381SOL     OW 5553   3.381   2.022   2.236
 1381SOL    HW2 5554   3.458   1.988   2.282
 1381SOL    HW3 5555   3.397   2.001   2.144
 1381SOL    MW4 5556   3.393   2.015   2.230
 1382SOL     OW 5557   3.383   2.279   2.335
 1382SOL    HW2 5558   3.317   2.333   2.292
 1382SOL    HW3 5559   3.362   2.190   2.308
 1382SOL    MW4 5560   3.371   2.274   2.326
 1383SOL     OW 5561   3.175   2.431   2.222
 1383SOL    HW2 5562   3.176   2.519   2.259
 1383SOL    HW3 5563   3.106   2.385   2.271
 1383SOL    MW4 5564   3.166   2.437   2.233
 1384SOL     OW 5565   3.158   2.700   2.332
 1384SOL    HW2 5566   3.156   2.690   2.428
 1384SOL    HW3 5567   3.082   2.755   2.313
 1384SOL    MW4 5568   3.148   2.706   2.342
 1385SOL     OW 5569   3.396   2.806   2.250
 1385SOL    HW2 5570   3.412   2.895   2.281
 1385SOL    HW3 5571   3.313   2.781   2.290
 1385SOL    MW4 5572   3.387   2.815   2.259
 1386SOL     OW 5573   3.419   3.072   2.329
 1386SOL    HW2 5574   3.487   3.134   2.302
 1386SOL    HW3 5575   3.337   3.109   2.294
 1386SOL    MW4 5576   3.417   3.085   2.321
 1387SOL     OW 5577   3.154   3.169   2.281
 1387SOL    HW2 5578   3.160   3.263   2.301
 1387SOL    HW3 5579   3.162   3.164   2.186
 1387SOL    MW4 5580   3.156   3.181   2.271
 1388SOL     OW 5581   3.152   3.449   2.336
 1388SOL    HW2 5582   3.144   3.455   2.432
 1388SOL    HW3 5583   3.228   3.504   2.315
 1388SOL    MW4 5584   3.161   3.457   2.346
 1389SOL     OW 5585   3.398   3.571   2.248
 1389SOL    HW2 5586   3.480   3.531   2.278
 1389SOL    HW3 5587   3.409   3.582   2.154
 1389SOL    MW4 5588   3.410   3.567   2.239
 1390SOL     OW 5589   3.425   3.823   2.370
 1390SOL    HW2 5590   3.505   3.862   2.334
 1390SOL    HW3 5591   3.423   3.735   2.334
 1390SOL    MW4 5592   3.436   3.816   2.361
 1391SOL     OW 5593   3.215   3.985   2.226
 1391SOL    HW2 5594   3.281   3.947   2.284
 1391SOL    HW3 5595   3.135   3.935   2.244
 1391SOL    MW4 5596   3.213   3.973   2.236
 1392SOL     OW 5597   3.156   4.228   2.343
 1392SOL    HW2 5598   3.230   4.281   2.314
 1392SOL    HW3 5599   3.180   4.138   2.323
 1392SOL    MW4 5600   3.169   4.223   2.337
 1393SOL     OW 5601   3.356   4.364   2.241
 1393SOL    HW2 5602   3.356   4.456   2.266
 1393SOL    HW3 5603   3.345   4.365   2.146
 1393SOL    MW4 5604   3.355   4.376   2.231
 1394SOL     OW 5605   3.811   4.604   2.353
 1394SOL    HW2 5606   3.828   4.594   2.447
 1394SOL    HW3 5607   3.894   4.635   2.317
 1394SOL    MW4 5608   3.824   4.607   2.361
 1395SOL     OW 5609   3.608   0.125   2.254
 1395SOL    HW2 5610   3.603   0.215   2.286
 1395SOL    HW3 5611   3.684   0.087   2.299
 1395SOL    MW4 5612   3.617   0.132   2.264
 1396SOL     OW 5613   3.571   0.389   2.361
 1396SOL    HW2 5614   3.562   0.405   2.454
 1396SOL    HW3 5615   3.651   0.437   2.336
 1396SOL    MW4 5616   3.581   0.398   2.370
 1397SOL     OW 5617   3.807   0.509   2.269
 1397SOL    HW2 5618   3.815   0.596   2.309
 1397SOL    HW3 5619   3.842   0.520   2.180
 1397SOL    MW4 5620   3.813   0.522   2.263
 1398SOL     OW 5621   3.840   0.768   2.368
 1398SOL    HW2 5622   3.836   0.765   2.464
 1398SOL    HW3 5623   3.927   0.803   2.349
 1398SOL    MW4 5624   3.851   0.772   2.378
 1399SOL     OW 5625   3.605   0.895   2.247
 1399SOL    HW2 5626   3.691   0.876   2.283
 1399SOL    HW3 5627   3.619   0.900   2.153
 1399SOL    MW4 5628   3.618   0.893   2.240
 1400SOL     OW 5629   3.610   1.169   2.338
 1400SOL    HW2 5630   3.605   1.165   2.433
 1400SOL    HW3 5631   3.609   1.078   2.310
 1400SOL    MW4 5632   3.610   1.157   2.347
 1401SOL     OW 5633   3.857   1.257   2.242
 1401SOL    HW2 5634   3.843   1.350   2.258
 1401SOL    HW3 5635   3.782   1.214   2.282
 1401SOL    MW4 5636   3.845   1.264   2.249
 1402SOL     OW 5637   3.825   1.540   2.303
 1402SOL    HW2 5638   3.823   1.557   2.398
 1402SOL    HW3 5639   3.747   1.583   2.269
 1402SOL    MW4 5640   3.815   1.548   2.311
 1403SOL     OW 5641   3.623   1.689   2.172
 1403SOL    HW2 5642   3.550   1.637   2.206
 1403SOL    HW3 5643   3.605   1.696   2.078
 1403SOL    MW4 5644   3.611   1.683   2.164
 1404SOL     OW 5645   3.608   1.918   2.344
 1404SOL    HW2 5646   3.691   1.961   2.324
 1404SOL    HW3 5647   3.613   1.835   2.296
 1404SOL    MW4 5648   3.620   1.912   2.335
 1405SOL     OW 5649   3.825   2.053   2.255
 1405SOL    HW2 5650   3.909   2.013   2.277
 1405SOL    HW3 5651   3.827   2.062   2.159
 1405SOL    MW4 5652   3.836   2.049   2.245
 1406SOL     OW 5653   3.825   2.290   2.389
 1406SOL    HW2 5654   3.761   2.340   2.338
 1406SOL    HW3 5655   3.824   2.203   2.350
 1406SOL    MW4 5656   3.817   2.285   2.377
 1407SOL     OW 5657   3.615   2.430   2.262
 1407SOL    HW2 5658   3.537   2.386   2.296
 1407SOL    HW3 5659   3.607   2.424   2.167
 1407SOL    MW4 5660   3.604   2.424   2.254
 1408SOL     OW 5661   3.585   2.659   2.381
 1408SOL    HW2 5662   3.592   2.585   2.321
 1408SOL    HW3 5663   3.522   2.718   2.339
 1408SOL    MW4 5664   3.577   2.657   2.368
 1409SOL     OW 5665   3.794   2.772   2.215
 1409SOL    HW2 5666   3.813   2.855   2.259
 1409SOL    HW3 5667   3.715   2.739   2.258
 1409SOL    MW4 5668   3.786   2.779   2.227
 1410SOL     OW 5669   3.833   3.038   2.292
 1410SOL    HW2 5670   3.833   3.041   2.388
 1410SOL    HW3 5671   3.903   3.097   2.266
 1410SOL    MW4 5672   3.842   3.046   2.301
 1411SOL     OW 5673   3.623   3.216   2.201
 1411SOL    HW2 5674   3.634   3.304   2.237
 1411SOL    HW3 5675   3.703   3.170   2.223
 1411SOL    MW4 5676   3.635   3.222   2.208
 1412SOL     OW 5677   3.637   3.464   2.336
 1412SOL    HW2 5678   3.640   3.476   2.431
 1412SOL    HW3 5679   3.713   3.512   2.303
 1412SOL    MW4 5680   3.648   3.472   2.344
 1413SOL     OW 5681   3.875   3.581   2.244
 1413SOL    HW2 5682   3.865   3.665   2.289
 1413SOL    HW3 5683   3.867   3.603   2.151
 1413SOL    MW4 5684   3.873   3.595   2.237
 1414SOL     OW 5685   3.840   3.822   2.372
 1414SOL    HW2 5686   3.847   3.844   2.464
 1414SOL    HW3 5687   3.903   3.879   2.328
 1414SOL    MW4 5688   3.849   3.832   2.378
 1415SOL     OW 5689   3.634   3.950   2.231
 1415SOL    HW2 5690   3.626   4.034   2.275
 1415SOL    HW3 5691   3.710   3.909   2.273
 1415SOL    MW4 5692   3.643   3.955   2.243
 1416SOL     OW 5693   3.576   4.217   2.318
 1416SOL    HW2 5694   3.647   4.275   2.291
 1416SOL    HW3 5695   3.496   4.261   2.290
 1416SOL    MW4 5696   3.575   4.230   2.311
 1417SOL     OW 5697   3.801   4.366   2.233
 1417SOL    HW2 5698   3.864   4.310   2.279
 1417SOL    HW3 5699   3.814   4.453   2.270
 1417SOL    MW4 5700   3.811   4.370   2.244
 1418SOL     OW 5701   4.252   4.614   2.399
 1418SOL    HW2 5702   4.252   4.632   2.493
 1418SOL    HW3 5703   4.330   4.659   2.367
 1418SOL    MW4 5704   4.262   4.622   2.407
 1419SOL     OW 5705   4.041   0.062   2.252
 1419SOL    HW2 5706   4.018   0.149   2.286
 1419SOL    HW3 5707   4.119   0.037   2.302
 1419SOL    MW4 5708   4.048   0.070   2.263
 1420SOL     OW 5709   4.025   0.338   2.339
 1420SOL    HW2 5710   4.098   0.393   2.311
 1420SOL    HW3 5711   3.947   0.387   2.315
 1420SOL    MW4 5712   4.025   0.352   2.332
 1421SOL     OW 5713   4.258   0.473   2.260
 1421SOL    HW2 5714   4.242   0.557   2.304
 1421SOL    HW3 5715   4.338   0.440   2.300
 1421SOL    MW4 5716   4.267   0.480   2.271
 1422SOL     OW 5717   4.259   0.718   2.410
 1422SOL    HW2 5718   4.189   0.768   2.369
 1422SOL    HW3 5719   4.339   0.760   2.379
 1422SOL    MW4 5720   4.260   0.730   2.401
 1423SOL     OW 5721   4.080   0.880   2.270
 1423SOL    HW2 5722   4.080   0.971   2.298
 1423SOL    HW3 5723   4.066   0.884   2.175
 1423SOL    MW4 5724   4.078   0.892   2.261
 1424SOL     OW 5725   4.076   1.146   2.336
 1424SOL    HW2 5726   4.062   1.157   2.430
 1424SOL    HW3 5727   3.998   1.183   2.295
 1424SOL    MW4 5728   4.064   1.152   2.343
 1425SOL     OW 5729   4.287   1.291   2.242
 1425SOL    HW2 5730   4.215   1.231   2.265
 1425SOL    HW3 5731   4.364   1.253   2.284
 1425SOL    MW4 5732   4.287   1.278   2.250
 1426SOL     OW 5733   4.252   1.536   2.364
 1426SOL    HW2 5734   4.254   1.446   2.330
 1426SOL    HW3 5735   4.332   1.576   2.330
 1426SOL    MW4 5736   4.262   1.529   2.355
 1427SOL     OW 5737   4.039   1.685   2.235
 1427SOL    HW2 5738   4.118   1.646   2.273
 1427SOL    HW3 5739   3.969   1.625   2.261
 1427SOL    MW4 5740   4.040   1.672   2.243
 1428SOL     OW 5741   4.052   1.928   2.360
 1428SOL    HW2 5742   4.048   1.911   2.454
 1428SOL    HW3 5743   4.067   1.842   2.320
 1428SOL    MW4 5744   4.054   1.914   2.367
 1429SOL     OW 5745   4.280   2.076   2.294
 1429SOL    HW2 5746   4.271   2.161   2.337
 1429SOL    HW3 5747   4.206   2.025   2.326
 1429SOL    MW4 5748   4.269   2.081   2.304
 1430SOL     OW 5749   4.286   2.331   2.420
 1430SOL    HW2 5750   4.214   2.359   2.363
 1430SOL    HW3 5751   4.366   2.354   2.371
 1430SOL    MW4 5752   4.287   2.338   2.406
 1431SOL     OW 5753   4.049   2.379   2.257
 1431SOL    HW2 5754   4.046   2.473   2.276
 1431SOL    HW3 5755   3.972   2.343   2.300
 1431SOL    MW4 5756   4.039   2.387   2.265
 1432SOL     OW 5757   4.038   2.643   2.311
 1432SOL    HW2 5758   4.035   2.660   2.405
 1432SOL    HW3 5759   3.965   2.694   2.275
 1432SOL    MW4 5760   4.028   2.652   2.319
 1433SOL     OW 5761   4.234   2.807   2.247
 1433SOL    HW2 5762   4.153   2.762   2.269
 1433SOL    HW3 5763   4.302   2.758   2.292
 1433SOL    MW4 5764   4.232   2.795   2.256
 1434SOL     OW 5765   4.234   3.060   2.352
 1434SOL    HW2 5766   4.237   2.969   2.322
 1434SOL    HW3 5767   4.317   3.097   2.324
 1434SOL    MW4 5768   4.245   3.053   2.344
 1435SOL     OW 5769   4.056   3.240   2.223
 1435SOL    HW2 5770   4.076   3.320   2.272
 1435SOL    HW3 5771   4.127   3.180   2.246
 1435SOL    MW4 5772   4.068   3.243   2.232
 1436SOL     OW 5773   4.100   3.463   2.385
 1436SOL    HW2 5774   4.187   3.490   2.357
 1436SOL    HW3 5775   4.040   3.513   2.329
 1436SOL    MW4 5776   4.103   3.473   2.374
 1437SOL     OW 5777   4.301   3.597   2.265
 1437SOL    HW2 5778   4.273   3.684   2.294
 1437SOL    HW3 5779   4.297   3.600   2.170
 1437SOL    MW4 5780   4.296   3.609   2.256
 1438SOL     OW 5781   4.245   3.853   2.344
 1438SOL    HW2 5782   4.246   3.855   2.439
 1438SOL    HW3 5783   4.305   3.923   2.318
 1438SOL    MW4 5784   4.253   3.862   2.353
 1439SOL     OW 5785   4.021   3.975   2.249
 1439SOL    HW2 5786   4.095   3.922   2.279
 1439SOL    HW3 5787   4.035   3.982   2.154
 1439SOL    MW4 5788   4.033   3.969   2.240
 1440SOL     OW 5789   4.005   4.240   2.366
 1440SOL    HW2 5790   4.085   4.281   2.331
 1440SOL    HW3 5791   3.996   4.159   2.316
 1440SOL    MW4 5792   4.015   4.235   2.355
 1441SOL     OW 5793   4.220   4.380   2.238
 1441SOL    HW2 5794   4.210   4.470   2.270
 1441SOL    HW3 5795   4.298   4.347   2.284
 1441SOL    MW4 5796   4.229   4.388   2.248
 1442SOL     OW 5797   0.258   4.577   2.669
 1442SOL    HW2 5798   0.247   4.492   2.712
 1442SOL    HW3 5799   0.194   4.634   2.712
 1442SOL    MW4 5800   0.248   4.574   2.681
 1443SOL     OW 5801   0.049   0.101   2.759
 1443SOL    HW2 5802   0.010   0.095   2.847
 1443SOL    HW3 5803   0.040   0.194   2.735
 1443SOL    MW4 5804   0.043   0.113   2.768
 1444SOL     OW 5805   0.005   0.364   2.647
 1444SOL    HW2 5806   0.081   0.415   2.675
 1444SOL    HW3 5807   0.016   0.353   2.552
 1444SOL    MW4 5808   0.016   0.370   2.638
 1445SOL     OW 5809   0.218   0.530   2.737
 1445SOL    HW2 5810   0.213   0.530   2.833
 1445SOL    HW3 5811   0.298   0.481   2.718
 1445SOL    MW4 5812   0.228   0.524   2.748
 1446SOL     OW 5813   0.225   0.773   2.651
 1446SOL    HW2 5814   0.302   0.808   2.696
 1446SOL    HW3 5815   0.214   0.686   2.688
 1446SOL    MW4 5816   0.234   0.766   2.662
 1447SOL     OW 5817   4.477   0.902   2.716
 1447SOL    HW2 5818   4.409   0.836   2.703
 1447SOL    HW3 5819   4.559   0.856   2.695
 1447SOL    MW4 5820   4.479   0.887   2.712
 1448SOL     OW 5821   4.467   1.158   2.631
 1448SOL    HW2 5822   4.549   1.193   2.666
 1448SOL    HW3 5823   4.468   1.066   2.656
 1448SOL    MW4 5824   4.478   1.150   2.639
 1449SOL     OW 5825   0.239   1.238   2.738
 1449SOL    HW2 5826   0.317   1.205   2.693
 1449SOL    HW3 5827   0.246   1.333   2.728
 1449SOL    MW4 5828   0.250   1.247   2.731
 1450SOL     OW 5829   0.256   1.501   2.684
 1450SOL    HW2 5830   0.326   1.563   2.699
 1450SOL    HW3 5831   0.176   1.549   2.705
 1450SOL    MW4 5832   0.255   1.515   2.688
 1451SOL     OW 5833   0.012   1.641   2.753
 1451SOL    HW2 5834   0.020   1.641   2.849
 1451SOL    HW3 5835   0.015   1.734   2.729
 1451SOL    MW4 5836   0.014   1.653   2.763
 1452SOL     OW 5837   0.012   1.937   2.646
 1452SOL    HW2 5838   0.085   1.995   2.670
 1452SOL    HW3 5839   0.011   1.939   2.550
 1452SOL    MW4 5840   0.022   1.945   2.636
 1453SOL     OW 5841   0.243   2.075   2.756
 1453SOL    HW2 5842   0.313   2.037   2.703
 1453SOL    HW3 5843   0.230   2.162   2.720
 1453SOL    MW4 5844   0.251   2.081   2.745
 1454SOL     OW 5845   0.238   2.322   2.632
 1454SOL    HW2 5846   0.321   2.354   2.667
 1454SOL    HW3 5847   0.171   2.361   2.689
 1454SOL    MW4 5848   0.240   2.332   2.644
 1455SOL     OW 5849   0.020   2.406   2.764
 1455SOL    HW2 5850   0.000   2.421   2.857
 1455SOL    HW3 5851  -0.066   2.396   2.723
 1455SOL    MW4 5852   0.006   2.406   2.771
 1456SOL     OW 5853   0.022   2.662   2.658
 1456SOL    HW2 5854  -0.068   2.693   2.669
 1456SOL    HW3 5855   0.029   2.588   2.717
 1456SOL    MW4 5856   0.011   2.657   2.667
 1457SOL     OW 5857   0.237   2.802   2.752
 1457SOL    HW2 5858   0.233   2.887   2.709
 1457SOL    HW3 5859   0.163   2.754   2.716
 1457SOL    MW4 5860   0.227   2.806   2.741
 1458SOL     OW 5861   0.206   3.049   2.611
 1458SOL    HW2 5862   0.282   3.104   2.630
 1458SOL    HW3 5863   0.198   3.053   2.515
 1458SOL    MW4 5864   0.215   3.057   2.601
 1459SOL     OW 5865   4.474   3.171   2.748
 1459SOL    HW2 5866   4.391   3.132   2.720
 1459SOL    HW3 5867   4.541   3.118   2.704
 1459SOL    MW4 5868   4.472   3.159   2.738
 1460SOL     OW 5869   4.455   3.449   2.684
 1460SOL    HW2 5870   4.544   3.480   2.704
 1460SOL    HW3 5871   4.457   3.356   2.709
 1460SOL    MW4 5872   4.467   3.441   2.690
 1461SOL     OW 5873   0.214   3.606   2.756
 1461SOL    HW2 5874   0.219   3.624   2.850
 1461SOL    HW3 5875   0.298   3.565   2.735
 1461SOL    MW4 5876   0.226   3.603   2.766
 1462SOL     OW 5877   0.195   3.862   2.633
 1462SOL    HW2 5878   0.203   3.772   2.662
 1462SOL    HW3 5879   0.183   3.856   2.538
 1462SOL    MW4 5880   0.194   3.850   2.624
 1463SOL     OW 5881   4.471   4.003   2.738
 1463SOL    HW2 5882   4.472   4.091   2.702
 1463SOL    HW3 5883   4.555   3.965   2.711
 1463SOL    MW4 5884   4.482   4.010   2.730
 1464SOL     OW 5885   4.468   4.251   2.631
 1464SOL    HW2 5886   4.401   4.304   2.673
 1464SOL    HW3 5887   4.550   4.280   2.671
 1464SOL    MW4 5888   4.470   4.262   2.642
 1465SOL     OW 5889   0.199   4.329   2.759
 1465SOL    HW2 5890   0.200   4.340   2.854
 1465SOL    HW3 5891   0.286   4.295   2.737
 1465SOL    MW4 5892   0.211   4.326   2.768
 1466SOL     OW 5893   0.666   4.623   2.662
 1466SOL    HW2 5894   0.737   4.665   2.711
 1466SOL    HW3 5895   0.590   4.679   2.680
 1466SOL    MW4 5896   0.665   4.636   2.671
 1467SOL     OW 5897   0.445   0.122   2.711
 1467SOL    HW2 5898   0.461   0.120   2.806
 1467SOL    HW3 5899   0.387   0.048   2.695
 1467SOL    MW4 5900   0.440   0.112   2.722
 1468SOL     OW 5901   0.446   0.383   2.622
 1468SOL    HW2 5902   0.516   0.422   2.675
 1468SOL    HW3 5903   0.438   0.294   2.656
 1468SOL    MW4 5904   0.454   0.376   2.634
 1469SOL     OW 5905   0.666   0.488   2.743
 1469SOL    HW2 5906   0.660   0.471   2.837
 1469SOL    HW3 5907   0.748   0.447   2.717
 1469SOL    MW4 5908   0.676   0.480   2.752
 1470SOL     OW 5909   0.652   0.742   2.645
 1470SOL    HW2 5910   0.715   0.792   2.696
 1470SOL    HW3 5911   0.662   0.652   2.676
 1470SOL    MW4 5912   0.662   0.736   2.656
 1471SOL     OW 5913   0.447   0.907   2.764
 1471SOL    HW2 5914   0.470   0.988   2.719
 1471SOL    HW3 5915   0.506   0.842   2.726
 1471SOL    MW4 5916   0.458   0.909   2.753
 1472SOL     OW 5917   0.493   1.132   2.627
 1472SOL    HW2 5918   0.568   1.179   2.662
 1472SOL    HW3 5919   0.498   1.146   2.532
 1472SOL    MW4 5920   0.503   1.140   2.619
 1473SOL     OW 5921   0.685   1.303   2.737
 1473SOL    HW2 5922   0.686   1.300   2.832
 1473SOL    HW3 5923   0.758   1.246   2.711
 1473SOL    MW4 5924   0.695   1.295   2.746
 1474SOL     OW 5925   0.675   1.535   2.597
 1474SOL    HW2 5926   0.596   1.585   2.618
 1474SOL    HW3 5927   0.664   1.453   2.645
 1474SOL    MW4 5928   0.663   1.531   2.606
 1475SOL     OW 5929   0.472   1.671   2.699
 1475SOL    HW2 5930   0.471   1.678   2.794
 1475SOL    HW3 5931   0.468   1.761   2.668
 1475SOL    MW4 5932   0.472   1.684   2.707
 1476SOL     OW 5933   0.441   1.945   2.622
 1476SOL    HW2 5934   0.522   1.992   2.643
 1476SOL    HW3 5935   0.443   1.935   2.527
 1476SOL    MW4 5936   0.452   1.950   2.612
 1477SOL     OW 5937   0.679   2.044   2.752
 1477SOL    HW2 5938   0.676   2.043   2.848
 1477SOL    HW3 5939   0.754   1.988   2.730
 1477SOL    MW4 5940   0.689   2.037   2.762
 1478SOL     OW 5941   0.694   2.274   2.607
 1478SOL    HW2 5942   0.771   2.313   2.649
 1478SOL    HW3 5943   0.672   2.198   2.662
 1478SOL    MW4 5944   0.701   2.269   2.620
 1479SOL     OW 5945   0.494   2.440   2.730
 1479SOL    HW2 5946   0.489   2.520   2.678
 1479SOL    HW3 5947   0.560   2.386   2.686
 1479SOL    MW4 5948   0.502   2.443   2.717
 1480SOL     OW 5949   0.468   2.712   2.619
 1480SOL    HW2 5950   0.540   2.742   2.676
 1480SOL    HW3 5951   0.389   2.742   2.663
 1480SOL    MW4 5952   0.467   2.720   2.633
 1481SOL     OW 5953   0.665   2.807   2.788
 1481SOL    HW2 5954   0.650   2.808   2.883
 1481SOL    HW3 5955   0.699   2.895   2.769
 1481SOL    MW4 5956   0.667   2.819   2.798
 1482SOL     OW 5957   0.694   3.075   2.692
 1482SOL    HW2 5958   0.777   3.114   2.719
 1482SOL    HW3 5959   0.688   3.093   2.598
 1482SOL    MW4 5960   0.704   3.082   2.683
 1483SOL     OW 5961   0.440   3.197   2.711
 1483SOL    HW2 5962   0.433   3.221   2.803
 1483SOL    HW3 5963   0.533   3.178   2.698
 1483SOL    MW4 5964   0.451   3.197   2.721
 1484SOL     OW 5965   0.435   3.479   2.662
 1484SOL    HW2 5966   0.436   3.384   2.677
 1484SOL    HW3 5967   0.437   3.488   2.566
 1484SOL    MW4 5968   0.436   3.467   2.651
 1485SOL     OW 5969   0.664   3.601   2.766
 1485SOL    HW2 5970   0.654   3.602   2.861
 1485SOL    HW3 5971   0.587   3.554   2.734
 1485SOL    MW4 5972   0.653   3.595   2.774
 1486SOL     OW 5973   0.668   3.856   2.687
 1486SOL    HW2 5974   0.585   3.895   2.712
 1486SOL    HW3 5975   0.662   3.765   2.717
 1486SOL    MW4 5976   0.657   3.849   2.694
 1487SOL     OW 5977   0.426   3.971   2.764
 1487SOL    HW2 5978   0.429   4.057   2.722
 1487SOL    HW3 5979   0.373   3.917   2.705
 1487SOL    MW4 5980   0.419   3.975   2.751
 1488SOL     OW 5981   0.436   4.221   2.633
 1488SOL    HW2 5982   0.494   4.292   2.662
 1488SOL    HW3 5983   0.426   4.234   2.539
 1488SOL    MW4 5984   0.443   4.232   2.624
 1489SOL     OW 5985   0.637   4.373   2.749
 1489SOL    HW2 5986   0.713   4.326   2.714
 1489SOL    HW3 5987   0.650   4.464   2.719
 1489SOL    MW4 5988   0.649   4.379   2.740
 1490SOL     OW 5989   1.119   4.606   2.670
 1490SOL    HW2 5990   1.203   4.651   2.677
 1490SOL    HW3 5991   1.141   4.513   2.681
 1490SOL    MW4 5992   1.133   4.599   2.673
 1491SOL     OW 5993   0.895   0.080   2.777
 1491SOL    HW2 5994   0.896   0.086   2.872
 1491SOL    HW3 5995   0.979   0.041   2.754
 1491SOL    MW4 5996   0.906   0.076   2.786
 1492SOL     OW 5997   0.880   0.342   2.675
 1492SOL    HW2 5998   0.883   0.251   2.704
 1492SOL    HW3 5999   0.888   0.337   2.580
 1492SOL    MW4 6000   0.882   0.329   2.666
 1493SOL     OW 6001   1.116   0.504   2.760
 1493SOL    HW2 6002   1.114   0.595   2.731
 1493SOL    HW3 6003   1.041   0.463   2.716
 1493SOL    MW4 6004   1.106   0.510   2.750
 1494SOL     OW 6005   1.117   0.754   2.657
 1494SOL    HW2 6006   1.208   0.784   2.665
 1494SOL    HW3 6007   1.106   0.738   2.563
 1494SOL    MW4 6008   1.128   0.756   2.645
 1495SOL     OW 6009   0.868   0.859   2.759
 1495SOL    HW2 6010   0.885   0.849   2.852
 1495SOL    HW3 6011   0.945   0.823   2.715
 1495SOL    MW4 6012   0.880   0.853   2.765
 1496SOL     OW 6013   0.861   1.114   2.672
 1496SOL    HW2 6014   0.859   1.024   2.706
 1496SOL    HW3 6015   0.886   1.104   2.580
 1496SOL    MW4 6016   0.864   1.101   2.664
 1497SOL     OW 6017   1.120   1.206   2.772
 1497SOL    HW2 6018   1.108   1.291   2.731
 1497SOL    HW3 6019   1.038   1.160   2.757
 1497SOL    MW4 6020   1.108   1.211   2.764
 1498SOL     OW 6021   1.078   1.486   2.636
 1498SOL    HW2 6022   0.998   1.538   2.648
 1498SOL    HW3 6023   1.092   1.485   2.541
 1498SOL    MW4 6024   1.069   1.493   2.625
 1499SOL     OW 6025   0.881   1.663   2.736
 1499SOL    HW2 6026   0.893   1.648   2.829
 1499SOL    HW3 6027   0.795   1.627   2.716
 1499SOL    MW4 6028   0.871   1.656   2.745
 1500SOL     OW 6029   0.887   1.916   2.620
 1500SOL    HW2 6030   0.965   1.964   2.651
 1500SOL    HW3 6031   0.899   1.828   2.655
 1500SOL    MW4 6032   0.899   1.911   2.629
 1501SOL     OW 6033   1.121   2.060   2.708
 1501SOL    HW2 6034   1.210   2.038   2.682
 1501SOL    HW3 6035   1.105   2.146   2.669
 1501SOL    MW4 6036   1.131   2.068   2.700
 1502SOL     OW 6037   1.102   2.318   2.627
 1502SOL    HW2 6038   1.182   2.358   2.660
 1502SOL    HW3 6039   1.102   2.338   2.534
 1502SOL    MW4 6040   1.113   2.326   2.619
 1503SOL     OW 6041   0.890   2.402   2.760
 1503SOL    HW2 6042   0.881   2.492   2.727
 1503SOL    HW3 6043   0.971   2.370   2.718
 1503SOL    MW4 6044   0.900   2.410   2.750
 1504SOL     OW 6045   0.866   2.670   2.652
 1504SOL    HW2 6046   0.939   2.724   2.679
 1504SOL    HW3 6047   0.794   2.696   2.709
 1504SOL    MW4 6048   0.866   2.680   2.663
 1505SOL     OW 6049   1.083   2.832   2.773
 1505SOL    HW2 6050   1.106   2.825   2.865
 1505SOL    HW3 6051   1.159   2.795   2.727
 1505SOL    MW4 6052   1.096   2.826   2.779
 1506SOL     OW 6053   1.148   3.096   2.678
 1506SOL    HW2 6054   1.122   3.007   2.701
 1506SOL    HW3 6055   1.136   3.101   2.583
 1506SOL    MW4 6056   1.143   3.085   2.668
 1507SOL     OW 6057   0.919   3.208   2.783
 1507SOL    HW2 6058   0.903   3.286   2.730
 1507SOL    HW3 6059   1.006   3.179   2.755
 1507SOL    MW4 6060   0.928   3.215   2.773
 1508SOL     OW 6061   0.887   3.462   2.660
 1508SOL    HW2 6062   0.961   3.508   2.701
 1508SOL    HW3 6063   0.810   3.512   2.689
 1508SOL    MW4 6064   0.887   3.475   2.669
 1509SOL     OW 6065   1.102   3.599   2.753
 1509SOL    HW2 6066   1.101   3.626   2.845
 1509SOL    HW3 6067   1.100   3.681   2.704
 1509SOL    MW4 6068   1.102   3.613   2.759
 1510SOL     OW 6069   1.098   3.851   2.622
 1510SOL    HW2 6070   1.178   3.889   2.659
 1510SOL    HW3 6071   1.110   3.859   2.527
 1510SOL    MW4 6072   1.110   3.857   2.614
 1511SOL     OW 6073   0.893   4.008   2.764
 1511SOL    HW2 6074   0.958   3.963   2.709
 1511SOL    HW3 6075   0.809   3.970   2.737
 1511SOL    MW4 6076   0.890   3.997   2.753
 1512SOL     OW 6077   0.888   4.266   2.659
 1512SOL    HW2 6078   0.892   4.174   2.684
 1512SOL    HW3 6079   0.884   4.265   2.564
 1512SOL    MW4 6080   0.888   4.254   2.650
 1513SOL     OW 6081   1.144   4.351   2.738
 1513SOL    HW2 6082   1.137   4.378   2.830
 1513SOL    HW3 6083   1.055   4.327   2.713
 1513SOL    MW4 6084   1.131   4.351   2.747
 1514SOL     OW 6085   1.592   4.644   2.617
 1514SOL    HW2 6086   1.595   4.553   2.646
 1514SOL    HW3 6087   1.586   4.638   2.521
 1514SOL    MW4 6088   1.592   4.631   2.608
 1515SOL     OW 6089   1.345   0.086   2.705
 1515SOL    HW2 6090   1.350   0.178   2.679
 1515SOL    HW3 6091   1.427   0.048   2.672
 1515SOL    MW4 6092   1.357   0.093   2.697
 1516SOL     OW 6093   1.341   0.368   2.665
 1516SOL    HW2 6094   1.419   0.397   2.714
 1516SOL    HW3 6095   1.269   0.417   2.704
 1516SOL    MW4 6096   1.342   0.378   2.677
 1517SOL     OW 6097   1.579   0.503   2.756
 1517SOL    HW2 6098   1.660   0.462   2.726
 1517SOL    HW3 6099   1.584   0.593   2.723
 1517SOL    MW4 6100   1.590   0.510   2.748
 1518SOL     OW 6101   1.614   0.767   2.655
 1518SOL    HW2 6102   1.533   0.804   2.689
 1518SOL    HW3 6103   1.597   0.752   2.562
 1518SOL    MW4 6104   1.601   0.770   2.647
 1519SOL     OW 6105   1.353   0.867   2.710
 1519SOL    HW2 6106   1.330   0.863   2.803
 1519SOL    HW3 6107   1.346   0.960   2.687
 1519SOL    MW4 6108   1.349   0.878   2.719
 1520SOL     OW 6109   1.337   1.120   2.612
 1520SOL    HW2 6110   1.400   1.175   2.660
 1520SOL    HW3 6111   1.254   1.134   2.658
 1520SOL    MW4 6112   1.334   1.129   2.625
 1521SOL     OW 6113   1.535   1.296   2.738
 1521SOL    HW2 6114   1.538   1.283   2.833
 1521SOL    HW3 6115   1.620   1.265   2.707
 1521SOL    MW4 6116   1.546   1.290   2.747
 1522SOL     OW 6117   1.562   1.557   2.614
 1522SOL    HW2 6118   1.558   1.472   2.660
 1522SOL    HW3 6119   1.566   1.533   2.521
 1522SOL    MW4 6120   1.562   1.542   2.608
 1523SOL     OW 6121   1.326   1.625   2.746
 1523SOL    HW2 6122   1.401   1.570   2.726
 1523SOL    HW3 6123   1.250   1.574   2.718
 1523SOL    MW4 6124   1.326   1.611   2.740
 1524SOL     OW 6125   1.349   1.890   2.663
 1524SOL    HW2 6126   1.336   1.801   2.695
 1524SOL    HW3 6127   1.354   1.880   2.568
 1524SOL    MW4 6128   1.348   1.877   2.655
 1525SOL     OW 6129   1.591   2.014   2.783
 1525SOL    HW2 6130   1.674   1.988   2.742
 1525SOL    HW3 6131   1.524   1.978   2.725
 1525SOL    MW4 6132   1.593   2.006   2.770
 1526SOL     OW 6133   1.543   2.273   2.652
 1526SOL    HW2 6134   1.603   2.330   2.700
 1526SOL    HW3 6135   1.543   2.191   2.703
 1526SOL    MW4 6136   1.551   2.270   2.665
 1527SOL     OW 6137   1.319   2.450   2.731
 1527SOL    HW2 6138   1.325   2.543   2.711
 1527SOL    HW3 6139   1.395   2.411   2.688
 1527SOL    MW4 6140   1.330   2.457   2.723
 1528SOL     OW 6141   1.345   2.736   2.656
 1528SOL    HW2 6142   1.427   2.760   2.699
 1528SOL    HW3 6143   1.370   2.718   2.565
 1528SOL    MW4 6144   1.359   2.737   2.650
 1529SOL     OW 6145   1.593   2.819   2.769
 1529SOL    HW2 6146   1.587   2.828   2.864
 1529SOL    HW3 6147   1.673   2.768   2.755
 1529SOL    MW4 6148   1.603   2.814   2.779
 1530SOL     OW 6149   1.592   3.090   2.638
 1530SOL    HW2 6150   1.663   3.133   2.686
 1530SOL    HW3 6151   1.583   3.004   2.681
 1530SOL    MW4 6152   1.600   3.084   2.650
 1531SOL     OW 6153   1.378   3.199   2.761
 1531SOL    HW2 6154   1.450   3.163   2.709
 1531SOL    HW3 6155   1.300   3.156   2.727
 1531SOL    MW4 6156   1.377   3.189   2.750
 1532SOL     OW 6157   1.330   3.468   2.674
 1532SOL    HW2 6158   1.344   3.383   2.717
 1532SOL    HW3 6159   1.246   3.498   2.706
 1532SOL    MW4 6160   1.321   3.460   2.684
 1533SOL     OW 6161   1.539   3.605   2.732
 1533SOL    HW2 6162   1.612   3.553   2.699
 1533SOL    HW3 6163   1.461   3.563   2.697
 1533SOL    MW4 6164   1.539   3.593   2.723
 1534SOL     OW 6165   1.562   3.868   2.641
 1534SOL    HW2 6166   1.497   3.906   2.700
 1534SOL    HW3 6167   1.571   3.777   2.670
 1534SOL    MW4 6168   1.555   3.861   2.652
 1535SOL     OW 6169   1.325   3.966   2.759
 1535SOL    HW2 6170   1.320   3.984   2.853
 1535SOL    HW3 6171   1.338   4.052   2.718
 1535SOL    MW4 6172   1.326   3.980   2.766
 1536SOL     OW 6173   1.365   4.219   2.663
 1536SOL    HW2 6174   1.290   4.263   2.703
 1536SOL    HW3 6175   1.359   4.241   2.570
 1536SOL    MW4 6176   1.354   4.227   2.656
 1537SOL     OW 6177   1.595   4.384   2.703
 1537SOL    HW2 6178   1.622   4.383   2.794
 1537SOL    HW3 6179   1.515   4.332   2.701
 1537SOL    MW4 6180   1.588   4.377   2.715
 1538SOL     OW 6181   2.012   4.649   2.625
 1538SOL    HW2 6182   2.101   4.681   2.641
 1538SOL    HW3 6183   2.007   4.639   2.530
 1538SOL    MW4 6184   2.023   4.652   2.615
 1539SOL     OW 6185   1.805   0.120   2.748
 1539SOL    HW2 6186   1.885   0.093   2.705
 1539SOL    HW3 6187   1.736   0.070   2.704
 1539SOL    MW4 6188   1.806   0.110   2.737
 1540SOL     OW 6189   1.796   0.378   2.634
 1540SOL    HW2 6190   1.881   0.410   2.663
 1540SOL    HW3 6191   1.785   0.295   2.681
 1540SOL    MW4 6192   1.806   0.371   2.644
 1541SOL     OW 6193   2.045   0.437   2.743
 1541SOL    HW2 6194   2.130   0.409   2.707
 1541SOL    HW3 6195   2.042   0.531   2.727
 1541SOL    MW4 6196   2.056   0.446   2.736
 1542SOL     OW 6197   2.009   0.705   2.672
 1542SOL    HW2 6198   1.959   0.781   2.702
 1542SOL    HW3 6199   2.003   0.709   2.577
 1542SOL    MW4 6200   2.002   0.715   2.663
 1543SOL     OW 6201   1.828   0.917   2.737
 1543SOL    HW2 6202   1.812   1.004   2.700
 1543SOL    HW3 6203   1.751   0.865   2.711
 1543SOL    MW4 6204   1.815   0.921   2.728
 1544SOL     OW 6205   1.769   1.181   2.647
 1544SOL    HW2 6206   1.850   1.211   2.688
 1544SOL    HW3 6207   1.787   1.181   2.553
 1544SOL    MW4 6208   1.782   1.185   2.640
 1545SOL     OW 6209   2.024   1.286   2.726
 1545SOL    HW2 6210   2.040   1.304   2.818
 1545SOL    HW3 6211   2.106   1.249   2.693
 1545SOL    MW4 6212   2.037   1.283   2.733
 1546SOL     OW 6213   2.024   1.534   2.588
 1546SOL    HW2 6214   1.961   1.590   2.635
 1546SOL    HW3 6215   2.007   1.446   2.622
 1546SOL    MW4 6216   2.013   1.530   2.599
 1547SOL     OW 6217   1.807   1.658   2.741
 1547SOL    HW2 6218   1.792   1.669   2.835
 1547SOL    HW3 6219   1.729   1.613   2.710
 1547SOL    MW4 6220   1.794   1.654   2.750
 1548SOL     OW 6221   1.810   1.906   2.634
 1548SOL    HW2 6222   1.893   1.948   2.654
 1548SOL    HW3 6223   1.817   1.819   2.673
 1548SOL    MW4 6224   1.822   1.900   2.642
 1549SOL     OW 6225   2.048   2.019   2.746
 1549SOL    HW2 6226   2.060   2.022   2.841
 1549SOL    HW3 6227   2.027   2.110   2.722
 1549SOL    MW4 6228   2.047   2.032   2.755
 1550SOL     OW 6229   1.999   2.300   2.674
 1550SOL    HW2 6230   2.077   2.346   2.707
 1550SOL    HW3 6231   2.006   2.307   2.579
 1550SOL    MW4 6232   2.010   2.307   2.666
 1551SOL     OW 6233   1.755   2.430   2.757
 1551SOL    HW2 6234   1.758   2.431   2.853
 1551SOL    HW3 6235   1.836   2.385   2.732
 1551SOL    MW4 6236   1.766   2.424   2.767
 1552SOL     OW 6237   1.826   2.679   2.696
 1552SOL    HW2 6238   1.795   2.590   2.709
 1552SOL    HW3 6239   1.825   2.692   2.601
 1552SOL    MW4 6240   1.822   2.669   2.685
 1553SOL     OW 6241   2.020   2.868   2.747
 1553SOL    HW2 6242   2.099   2.820   2.722
 1553SOL    HW3 6243   1.950   2.803   2.745
 1553SOL    MW4 6244   2.021   2.853   2.743
 1554SOL     OW 6245   2.037   3.121   2.650
 1554SOL    HW2 6246   2.025   3.030   2.677
 1554SOL    HW3 6247   2.023   3.119   2.555
 1554SOL    MW4 6248   2.033   3.108   2.641
 1555SOL     OW 6249   1.784   3.223   2.778
 1555SOL    HW2 6250   1.776   3.316   2.758
 1555SOL    HW3 6251   1.871   3.199   2.745
 1555SOL    MW4 6252   1.795   3.232   2.771
 1556SOL     OW 6253   1.755   3.458   2.642
 1556SOL    HW2 6254   1.828   3.516   2.662
 1556SOL    HW3 6255   1.751   3.457   2.546
 1556SOL    MW4 6256   1.764   3.465   2.632
 1557SOL     OW 6257   2.004   3.602   2.721
 1557SOL    HW2 6258   2.014   3.602   2.816
 1557SOL    HW3 6259   2.078   3.550   2.689
 1557SOL    MW4 6260   2.015   3.595   2.729
 1558SOL     OW 6261   2.040   3.854   2.606
 1558SOL    HW2 6262   1.964   3.901   2.639
 1558SOL    HW3 6263   2.031   3.766   2.643
 1558SOL    MW4 6264   2.029   3.848   2.615
 1559SOL     OW 6265   1.801   3.979   2.735
 1559SOL    HW2 6266   1.811   4.064   2.692
 1559SOL    HW3 6267   1.715   3.947   2.709
 1559SOL    MW4 6268   1.791   3.986   2.726
 1560SOL     OW 6269   1.804   4.220   2.602
 1560SOL    HW2 6270   1.731   4.277   2.625
 1560SOL    HW3 6271   1.806   4.222   2.506
 1560SOL    MW4 6272   1.794   4.228   2.592
 1561SOL     OW 6273   2.014   4.379   2.714
 1561SOL    HW2 6274   1.944   4.337   2.663
 1561SOL    HW3 6275   2.004   4.472   2.696
 1561SOL    MW4 6276   2.003   4.385   2.705
 1562SOL     OW 6277   2.487   4.643   2.611
 1562SOL    HW2 6278   2.577   4.650   2.642
 1562SOL    HW3 6279   2.495   4.651   2.515
 1562SOL    MW4 6280   2.500   4.645   2.602
 1563SOL     OW 6281   2.245   0.091   2.706
 1563SOL    HW2 6282   2.256   0.097   2.801
 1563SOL    HW3 6283   2.327   0.054   2.674
 1563SOL    MW4 6284   2.257   0.087   2.714
 1564SOL     OW 6285   2.295   0.337   2.604
 1564SOL    HW2 6286   2.287   0.250   2.642
 1564SOL    HW3 6287   2.282   0.323   2.510
 1564SOL    MW4 6288   2.292   0.324   2.596
 1565SOL     OW 6289   2.489   0.501   2.721
 1565SOL    HW2 6290   2.489   0.593   2.693
 1565SOL    HW3 6291   2.426   0.458   2.664
 1565SOL    MW4 6292   2.481   0.507   2.710
 1566SOL     OW 6293   2.470   0.743   2.616
 1566SOL    HW2 6294   2.384   0.771   2.648
 1566SOL    HW3 6295   2.462   0.745   2.520
 1566SOL    MW4 6296   2.458   0.747   2.607
 1567SOL     OW 6297   2.234   0.868   2.702
 1567SOL    HW2 6298   2.243   0.883   2.796
 1567SOL    HW3 6299   2.161   0.807   2.694
 1567SOL    MW4 6300   2.226   0.862   2.713
 1568SOL     OW 6301   2.238   1.139   2.626
 1568SOL    HW2 6302   2.249   1.048   2.653
 1568SOL    HW3 6303   2.243   1.136   2.530
 1568SOL    MW4 6304   2.240   1.127   2.617
 1569SOL     OW 6305   2.462   1.241   2.724
 1569SOL    HW2 6306   2.533   1.190   2.685
 1569SOL    HW3 6307   2.382   1.197   2.697
 1569SOL    MW4 6308   2.461   1.228   2.715
 1570SOL     OW 6309   2.472   1.502   2.635
 1570SOL    HW2 6310   2.388   1.531   2.671
 1570SOL    HW3 6311   2.477   1.409   2.658
 1570SOL    MW4 6312   2.461   1.493   2.643
 1571SOL     OW 6313   2.241   1.631   2.764
 1571SOL    HW2 6314   2.258   1.721   2.736
 1571SOL    HW3 6315   2.168   1.602   2.710
 1571SOL    MW4 6316   2.234   1.639   2.754
 1572SOL     OW 6317   2.260   1.883   2.636
 1572SOL    HW2 6318   2.180   1.925   2.666
 1572SOL    HW3 6319   2.250   1.874   2.542
 1572SOL    MW4 6320   2.248   1.888   2.628
 1573SOL     OW 6321   2.446   2.069   2.725
 1573SOL    HW2 6322   2.435   2.151   2.677
 1573SOL    HW3 6323   2.375   2.013   2.692
 1573SOL    MW4 6324   2.435   2.072   2.714
 1574SOL     OW 6325   2.429   2.310   2.608
 1574SOL    HW2 6326   2.506   2.352   2.645
 1574SOL    HW3 6327   2.448   2.302   2.514
 1574SOL    MW4 6328   2.441   2.314   2.600
 1575SOL     OW 6329   2.222   2.438   2.747
 1575SOL    HW2 6330   2.256   2.431   2.836
 1575SOL    HW3 6331   2.280   2.383   2.694
 1575SOL    MW4 6332   2.234   2.430   2.751
 1576SOL     OW 6333   2.237   2.716   2.665
 1576SOL    HW2 6334   2.320   2.753   2.694
 1576SOL    HW3 6335   2.242   2.624   2.692
 1576SOL    MW4 6336   2.249   2.709   2.673
 1577SOL     OW 6337   2.477   2.826   2.738
 1577SOL    HW2 6338   2.556   2.786   2.701
 1577SOL    HW3 6339   2.479   2.917   2.709
 1577SOL    MW4 6340   2.487   2.833   2.729
 1578SOL     OW 6341   2.490   3.086   2.602
 1578SOL    HW2 6342   2.410   3.119   2.644
 1578SOL    HW3 6343   2.468   3.085   2.508
 1578SOL    MW4 6344   2.477   3.090   2.595
 1579SOL     OW 6345   2.270   3.209   2.724
 1579SOL    HW2 6346   2.275   3.202   2.820
 1579SOL    HW3 6347   2.186   3.172   2.701
 1579SOL    MW4 6348   2.260   3.204   2.734
 1580SOL     OW 6349   2.231   3.475   2.648
 1580SOL    HW2 6350   2.308   3.530   2.659
 1580SOL    HW3 6351   2.256   3.390   2.683
 1580SOL    MW4 6352   2.244   3.471   2.654
 1581SOL     OW 6353   2.482   3.593   2.682
 1581SOL    HW2 6354   2.479   3.589   2.777
 1581SOL    HW3 6355   2.461   3.684   2.661
 1581SOL    MW4 6356   2.479   3.604   2.692
 1582SOL     OW 6357   2.432   3.857   2.609
 1582SOL    HW2 6358   2.515   3.893   2.640
 1582SOL    HW3 6359   2.365   3.910   2.652
 1582SOL    MW4 6360   2.434   3.869   2.619
 1583SOL     OW 6361   2.227   4.040   2.705
 1583SOL    HW2 6362   2.209   4.027   2.798
 1583SOL    HW3 6363   2.167   3.982   2.659
 1583SOL    MW4 6364   2.217   4.031   2.711
 1584SOL     OW 6365   2.250   4.290   2.606
 1584SOL    HW2 6366   2.267   4.210   2.656
 1584SOL    HW3 6367   2.166   4.322   2.638
 1584SOL    MW4 6368   2.241   4.284   2.617
 1585SOL     OW 6369   2.486   4.390   2.697
 1585SOL    HW2 6370   2.401   4.355   2.673
 1585SOL    HW3 6371   2.489   4.477   2.657
 1585SOL    MW4 6372   2.475   4.397   2.689
 1586SOL     OW 6373   2.989   4.555   2.654
 1586SOL    HW2 6374   3.032   4.623   2.706
 1586SOL    HW3 6375   2.987   4.590   2.565
 1586SOL    MW4 6376   2.995   4.569   2.649
 1587SOL     OW 6377   2.749   0.023   2.711
 1587SOL    HW2 6378   2.745   0.027   2.806
 1587SOL    HW3 6379   2.826  -0.031   2.692
 1587SOL    MW4 6380   2.758   0.017   2.721
 1588SOL     OW 6381   2.682   0.325   2.618
 1588SOL    HW2 6382   2.700   0.235   2.646
 1588SOL    HW3 6383   2.604   0.351   2.666
 1588SOL    MW4 6384   2.674   0.317   2.628
 1589SOL     OW 6385   2.900   0.492   2.714
 1589SOL    HW2 6386   2.916   0.573   2.666
 1589SOL    HW3 6387   2.824   0.453   2.670
 1589SOL    MW4 6388   2.892   0.497   2.702
 1590SOL     OW 6389   2.954   0.741   2.588
 1590SOL    HW2 6390   3.023   0.777   2.643
 1590SOL    HW3 6391   2.872   0.767   2.631
 1590SOL    MW4 6392   2.952   0.749   2.601
 1591SOL     OW 6393   2.723   0.863   2.696
 1591SOL    HW2 6394   2.712   0.866   2.791
 1591SOL    HW3 6395   2.643   0.822   2.664
 1591SOL    MW4 6396   2.711   0.858   2.704
 1592SOL     OW 6397   2.690   1.127   2.609
 1592SOL    HW2 6398   2.750   1.192   2.645
 1592SOL    HW3 6399   2.727   1.043   2.635
 1592SOL    MW4 6400   2.703   1.124   2.617
 1593SOL     OW 6401   2.895   1.281   2.720
 1593SOL    HW2 6402   2.925   1.291   2.811
 1593SOL    HW3 6403   2.972   1.254   2.672
 1593SOL    MW4 6404   2.909   1.279   2.726
 1594SOL     OW 6405   2.886   1.559   2.634
 1594SOL    HW2 6406   2.814   1.613   2.665
 1594SOL    HW3 6407   2.880   1.479   2.686
 1594SOL    MW4 6408   2.876   1.555   2.645
 1595SOL     OW 6409   2.657   1.668   2.770
 1595SOL    HW2 6410   2.651   1.674   2.865
 1595SOL    HW3 6411   2.591   1.603   2.745
 1595SOL    MW4 6412   2.647   1.660   2.779
 1596SOL     OW 6413   2.669   1.915   2.603
 1596SOL    HW2 6414   2.660   1.825   2.634
 1596SOL    HW3 6415   2.602   1.963   2.651
 1596SOL    MW4 6416   2.659   1.909   2.614
 1597SOL     OW 6417   2.885   2.040   2.729
 1597SOL    HW2 6418   2.887   2.134   2.708
 1597SOL    HW3 6419   2.805   2.008   2.687
 1597SOL    MW4 6420   2.875   2.048   2.721
 1598SOL     OW 6421   2.913   2.308   2.612
 1598SOL    HW2 6422   2.972   2.348   2.677
 1598SOL    HW3 6423   2.828   2.348   2.631
 1598SOL    MW4 6424   2.910   2.319   2.623
 1599SOL     OW 6425   2.668   2.418   2.720
 1599SOL    HW2 6426   2.697   2.408   2.810
 1599SOL    HW3 6427   2.662   2.512   2.707
 1599SOL    MW4 6428   2.671   2.429   2.730
 1600SOL     OW 6429   2.682   2.688   2.626
 1600SOL    HW2 6430   2.759   2.729   2.665
 1600SOL    HW3 6431   2.698   2.693   2.531
 1600SOL    MW4 6432   2.694   2.694   2.618
 1601SOL     OW 6433   2.929   2.820   2.726
 1601SOL    HW2 6434   2.921   2.823   2.821
 1601SOL    HW3 6435   2.925   2.911   2.698
 1601SOL    MW4 6436   2.927   2.832   2.735
 1602SOL     OW 6437   2.924   3.079   2.663
 1602SOL    HW2 6438   2.849   3.130   2.694
 1602SOL    HW3 6439   2.904   3.059   2.572
 1602SOL    MW4 6440   2.911   3.083   2.655
 1603SOL     OW 6441   2.698   3.216   2.736
 1603SOL    HW2 6442   2.690   3.308   2.710
 1603SOL    HW3 6443   2.635   3.170   2.680
 1603SOL    MW4 6444   2.688   3.222   2.725
 1604SOL     OW 6445   2.713   3.472   2.612
 1604SOL    HW2 6446   2.629   3.511   2.638
 1604SOL    HW3 6447   2.708   3.467   2.516
 1604SOL    MW4 6448   2.701   3.476   2.602
 1605SOL     OW 6449   2.939   3.605   2.701
 1605SOL    HW2 6450   2.938   3.606   2.797
 1605SOL    HW3 6451   2.867   3.546   2.677
 1605SOL    MW4 6452   2.929   3.597   2.710
 1606SOL     OW 6453   2.907   3.858   2.590
 1606SOL    HW2 6454   2.974   3.904   2.640
 1606SOL    HW3 6455   2.912   3.767   2.620
 1606SOL    MW4 6456   2.917   3.852   2.601
 1607SOL     OW 6457   2.678   3.967   2.719
 1607SOL    HW2 6458   2.678   4.053   2.678
 1607SOL    HW3 6459   2.754   3.923   2.682
 1607SOL    MW4 6460   2.688   3.972   2.709
 1608SOL     OW 6461   2.675   4.220   2.613
 1608SOL    HW2 6462   2.755   4.245   2.659
 1608SOL    HW3 6463   2.611   4.287   2.638
 1608SOL    MW4 6464   2.677   4.232   2.623
 1609SOL     OW 6465   2.900   4.301   2.719
 1609SOL    HW2 6466   2.903   4.295   2.814
 1609SOL    HW3 6467   2.932   4.390   2.700
 1609SOL    MW4 6468   2.905   4.312   2.729
 1610SOL     OW 6469   3.336   4.636   2.605
 1610SOL    HW2 6470   3.330   4.557   2.658
 1610SOL    HW3 6471   3.270   4.695   2.641
 1610SOL    MW4 6472   3.327   4.633   2.617
 1611SOL     OW 6473   3.125   0.096   2.754
 1611SOL    HW2 6474   3.132   0.103   2.849
 1611SOL    HW3 6475   3.112   0.186   2.724
 1611SOL    MW4 6476   3.124   0.109   2.763
 1612SOL     OW 6477   3.143   0.372   2.680
 1612SOL    HW2 6478   3.061   0.420   2.692
 1612SOL    HW3 6479   3.151   0.361   2.585
 1612SOL    MW4 6480   3.133   0.377   2.669
 1613SOL     OW 6481   3.372   0.537   2.754
 1613SOL    HW2 6482   3.357   0.626   2.723
 1613SOL    HW3 6483   3.294   0.489   2.729
 1613SOL    MW4 6484   3.360   0.543   2.747
 1614SOL     OW 6485   3.376   0.804   2.647
 1614SOL    HW2 6486   3.452   0.849   2.682
 1614SOL    HW3 6487   3.405   0.770   2.562
 1614SOL    MW4 6488   3.390   0.805   2.640
 1615SOL     OW 6489   3.124   0.899   2.727
 1615SOL    HW2 6490   3.122   0.890   2.822
 1615SOL    HW3 6491   3.210   0.865   2.702
 1615SOL    MW4 6492   3.135   0.893   2.736
 1616SOL     OW 6493   3.138   1.173   2.635
 1616SOL    HW2 6494   3.150   1.085   2.671
 1616SOL    HW3 6495   3.143   1.161   2.540
 1616SOL    MW4 6496   3.140   1.159   2.627
 1617SOL     OW 6497   3.384   1.300   2.681
 1617SOL    HW2 6498   3.387   1.288   2.776
 1617SOL    HW3 6499   3.299   1.263   2.655
 1617SOL    MW4 6500   3.373   1.293   2.690
 1618SOL     OW 6501   3.358   1.553   2.574
 1618SOL    HW2 6502   3.279   1.595   2.608
 1618SOL    HW3 6503   3.358   1.466   2.615
 1618SOL    MW4 6504   3.348   1.547   2.584
 1619SOL     OW 6505   3.132   1.651   2.721
 1619SOL    HW2 6506   3.127   1.746   2.706
 1619SOL    HW3 6507   3.045   1.619   2.698
 1619SOL    MW4 6508   3.120   1.659   2.716
 1620SOL     OW 6509   3.134   1.915   2.624
 1620SOL    HW2 6510   3.209   1.955   2.667
 1620SOL    HW3 6511   3.058   1.961   2.661
 1620SOL    MW4 6512   3.134   1.926   2.635
 1621SOL     OW 6513   3.353   2.022   2.744
 1621SOL    HW2 6514   3.337   2.024   2.838
 1621SOL    HW3 6515   3.363   2.114   2.720
 1621SOL    MW4 6516   3.352   2.035   2.753
 1622SOL     OW 6517   3.347   2.282   2.633
 1622SOL    HW2 6518   3.410   2.338   2.678
 1622SOL    HW3 6519   3.378   2.279   2.542
 1622SOL    MW4 6520   3.359   2.289   2.627
 1623SOL     OW 6521   3.137   2.421   2.728
 1623SOL    HW2 6522   3.153   2.504   2.683
 1623SOL    HW3 6523   3.207   2.364   2.698
 1623SOL    MW4 6524   3.148   2.425   2.718
 1624SOL     OW 6525   3.152   2.680   2.607
 1624SOL    HW2 6526   3.228   2.723   2.647
 1624SOL    HW3 6527   3.076   2.721   2.649
 1624SOL    MW4 6528   3.152   2.691   2.618
 1625SOL     OW 6529   3.365   2.836   2.708
 1625SOL    HW2 6530   3.364   2.826   2.803
 1625SOL    HW3 6531   3.436   2.779   2.679
 1625SOL    MW4 6532   3.374   2.827   2.717
 1626SOL     OW 6533   3.389   3.106   2.607
 1626SOL    HW2 6534   3.377   3.015   2.637
 1626SOL    HW3 6535   3.389   3.099   2.511
 1626SOL    MW4 6536   3.387   3.093   2.598
 1627SOL     OW 6537   3.146   3.231   2.705
 1627SOL    HW2 6538   3.220   3.188   2.662
 1627SOL    HW3 6539   3.070   3.180   2.678
 1627SOL    MW4 6540   3.146   3.218   2.696
 1628SOL     OW 6541   3.155   3.479   2.597
 1628SOL    HW2 6542   3.146   3.388   2.626
 1628SOL    HW3 6543   3.073   3.520   2.623
 1628SOL    MW4 6544   3.143   3.472   2.604
 1629SOL     OW 6545   3.371   3.614   2.715
 1629SOL    HW2 6546   3.369   3.590   2.808
 1629SOL    HW3 6547   3.298   3.566   2.677
 1629SOL    MW4 6548   3.361   3.605   2.723
 1630SOL     OW 6549   3.368   3.866   2.631
 1630SOL    HW2 6550   3.369   3.779   2.670
 1630SOL    HW3 6551   3.377   3.850   2.537
 1630SOL    MW4 6552   3.369   3.852   2.624
 1631SOL     OW 6553   3.122   3.967   2.721
 1631SOL    HW2 6554   3.139   4.056   2.691
 1631SOL    HW3 6555   3.204   3.920   2.706
 1631SOL    MW4 6556   3.135   3.972   2.715
 1632SOL     OW 6557   3.158   4.233   2.631
 1632SOL    HW2 6558   3.072   4.249   2.669
 1632SOL    HW3 6559   3.150   4.263   2.541
 1632SOL    MW4 6560   3.146   4.239   2.625
 1633SOL     OW 6561   3.388   4.371   2.733
 1633SOL    HW2 6562   3.351   4.365   2.821
 1633SOL    HW3 6563   3.323   4.328   2.677
 1633SOL    MW4 6564   3.374   4.364   2.737
 1634SOL     OW 6565   3.830   4.626   2.632
 1634SOL    HW2 6566   3.823   4.541   2.676
 1634SOL    HW3 6567   3.752   4.674   2.660
 1634SOL    MW4 6568   3.819   4.621   2.641
 1635SOL     OW 6569   3.587   0.104   2.670
 1635SOL    HW2 6570   3.568   0.191   2.637
 1635SOL    HW3 6571   3.504   0.056   2.661
 1635SOL    MW4 6572   3.573   0.109   2.665
 1636SOL     OW 6573   3.548   0.371   2.628
 1636SOL    HW2 6574   3.634   0.404   2.656
 1636SOL    HW3 6575   3.485   0.433   2.666
 1636SOL    MW4 6576   3.551   0.384   2.637
 1637SOL     OW 6577   3.785   0.496   2.711
 1637SOL    HW2 6578   3.799   0.507   2.805
 1637SOL    HW3 6579   3.861   0.447   2.681
 1637SOL    MW4 6580   3.797   0.491   2.719
 1638SOL     OW 6581   3.814   0.763   2.625
 1638SOL    HW2 6582   3.758   0.816   2.682
 1638SOL    HW3 6583   3.797   0.673   2.653
 1638SOL    MW4 6584   3.805   0.758   2.637
 1639SOL     OW 6585   3.631   0.904   2.762
 1639SOL    HW2 6586   3.619   0.921   2.855
 1639SOL    HW3 6587   3.628   0.990   2.721
 1639SOL    MW4 6588   3.629   0.918   2.769
 1640SOL     OW 6589   3.602   1.127   2.618
 1640SOL    HW2 6590   3.666   1.186   2.658
 1640SOL    HW3 6591   3.517   1.164   2.640
 1640SOL    MW4 6592   3.599   1.140   2.626
 1641SOL     OW 6593   3.799   1.300   2.712
 1641SOL    HW2 6594   3.860   1.236   2.675
 1641SOL    HW3 6595   3.821   1.382   2.669
 1641SOL    MW4 6596   3.810   1.302   2.701
 1642SOL     OW 6597   3.792   1.602   2.580
 1642SOL    HW2 6598   3.873   1.624   2.625
 1642SOL    HW3 6599   3.724   1.614   2.646
 1642SOL    MW4 6600   3.794   1.606   2.595
 1643SOL     OW 6601   3.567   1.652   2.724
 1643SOL    HW2 6602   3.580   1.742   2.692
 1643SOL    HW3 6603   3.494   1.619   2.671
 1643SOL    MW4 6604   3.559   1.660   2.713
 1644SOL     OW 6605   3.593   1.917   2.632
 1644SOL    HW2 6606   3.506   1.942   2.664
 1644SOL    HW3 6607   3.589   1.932   2.538
 1644SOL    MW4 6608   3.581   1.922   2.624
 1645SOL     OW 6609   3.840   2.036   2.725
 1645SOL    HW2 6610   3.917   1.989   2.693
 1645SOL    HW3 6611   3.766   1.995   2.681
 1645SOL    MW4 6612   3.840   2.024   2.715
 1646SOL     OW 6613   3.789   2.305   2.674
 1646SOL    HW2 6614   3.806   2.212   2.691
 1646SOL    HW3 6615   3.810   2.316   2.581
 1646SOL    MW4 6616   3.794   2.294   2.664
 1647SOL     OW 6617   3.550   2.435   2.760
 1647SOL    HW2 6618   3.543   2.426   2.855
 1647SOL    HW3 6619   3.635   2.397   2.739
 1647SOL    MW4 6620   3.560   2.429   2.770
 1648SOL     OW 6621   3.592   2.675   2.652
 1648SOL    HW2 6622   3.579   2.589   2.693
 1648SOL    HW3 6623   3.602   2.656   2.559
 1648SOL    MW4 6624   3.592   2.661   2.645
 1649SOL     OW 6625   3.808   2.824   2.678
 1649SOL    HW2 6626   3.881   2.764   2.662
 1649SOL    HW3 6627   3.731   2.768   2.684
 1649SOL    MW4 6628   3.808   2.809   2.677
 1650SOL     OW 6629   3.822   3.071   2.568
 1650SOL    HW2 6630   3.749   3.116   2.610
 1650SOL    HW3 6631   3.815   2.980   2.597
 1650SOL    MW4 6632   3.812   3.065   2.578
 1651SOL     OW 6633   3.623   3.239   2.707
 1651SOL    HW2 6634   3.624   3.321   2.658
 1651SOL    HW3 6635   3.541   3.197   2.682
 1651SOL    MW4 6636   3.612   3.244   2.697
 1652SOL     OW 6637   3.607   3.490   2.616
 1652SOL    HW2 6638   3.677   3.542   2.657
 1652SOL    HW3 6639   3.528   3.544   2.627
 1652SOL    MW4 6640   3.606   3.504   2.623
 1653SOL     OW 6641   3.826   3.603   2.737
 1653SOL    HW2 6642   3.896   3.546   2.705
 1653SOL    HW3 6643   3.852   3.691   2.711
 1653SOL    MW4 6644   3.839   3.607   2.730
 1654SOL     OW 6645   3.842   3.881   2.644
 1654SOL    HW2 6646   3.914   3.937   2.673
 1654SOL    HW3 6647   3.764   3.933   2.660
 1654SOL    MW4 6648   3.841   3.895   2.650
 1655SOL     OW 6649   3.594   4.005   2.706
 1655SOL    HW2 6650   3.595   4.088   2.659
 1655SOL    HW3 6651   3.519   3.957   2.671
 1655SOL    MW4 6652   3.584   4.010   2.695
 1656SOL     OW 6653   3.611   4.263   2.600
 1656SOL    HW2 6654   3.526   4.283   2.640
 1656SOL    HW3 6655   3.590   4.245   2.508
 1656SOL    MW4 6656   3.597   4.263   2.593
 1657SOL     OW 6657   3.833   4.364   2.741
 1657SOL    HW2 6658   3.907   4.331   2.690
 1657SOL    HW3 6659   3.755   4.337   2.692
 1657SOL    MW4 6660   3.833   4.356   2.728
 1658SOL     OW 6661   4.288   4.645   2.666
 1658SOL    HW2 6662   4.209   4.692   2.694
 1658SOL    HW3 6663   4.360   4.699   2.698
 1658SOL    MW4 6664   4.287   4.658   2.674
 1659SOL     OW 6665   4.057   0.103   2.726
 1659SOL    HW2 6666   4.052   0.092   2.821
 1659SOL    HW3 6667   3.986   0.049   2.692
 1659SOL    MW4 6668   4.047   0.095   2.734
 1660SOL     OW 6669   4.060   0.367   2.625
 1660SOL    HW2 6670   4.056   0.275   2.653
 1660SOL    HW3 6671   4.061   0.363   2.529
 1660SOL    MW4 6672   4.060   0.354   2.616
 1661SOL     OW 6673   4.285   0.490   2.765
 1661SOL    HW2 6674   4.201   0.465   2.726
 1661SOL    HW3 6675   4.350   0.439   2.717
 1661SOL    MW4 6676   4.283   0.480   2.754
 1662SOL     OW 6677   4.265   0.739   2.686
 1662SOL    HW2 6678   4.280   0.647   2.709
 1662SOL    HW3 6679   4.258   0.739   2.591
 1662SOL    MW4 6680   4.266   0.727   2.676
 1663SOL     OW 6681   4.027   0.892   2.719
 1663SOL    HW2 6682   4.104   0.836   2.722
 1663SOL    HW3 6683   3.956   0.835   2.687
 1663SOL    MW4 6684   4.028   0.877   2.715
 1664SOL     OW 6685   4.020   1.158   2.612
 1664SOL    HW2 6686   4.099   1.198   2.647
 1664SOL    HW3 6687   4.016   1.072   2.654
 1664SOL    MW4 6688   4.030   1.152   2.622
 1665SOL     OW 6689   4.237   1.274   2.729
 1665SOL    HW2 6690   4.240   1.365   2.698
 1665SOL    HW3 6691   4.318   1.235   2.696
 1665SOL    MW4 6692   4.248   1.281   2.721
 1666SOL     OW 6693   4.257   1.536   2.648
 1666SOL    HW2 6694   4.341   1.574   2.673
 1666SOL    HW3 6695   4.260   1.530   2.553
 1666SOL    MW4 6696   4.269   1.540   2.639
 1667SOL     OW 6697   4.029   1.641   2.718
 1667SOL    HW2 6698   4.043   1.659   2.810
 1667SOL    HW3 6699   4.109   1.598   2.689
 1667SOL    MW4 6700   4.041   1.637   2.726
 1668SOL     OW 6701   4.057   1.903   2.628
 1668SOL    HW2 6702   4.124   1.945   2.682
 1668SOL    HW3 6703   4.052   1.814   2.662
 1668SOL    MW4 6704   4.065   1.897   2.640
 1669SOL     OW 6705   4.264   2.030   2.758
 1669SOL    HW2 6706   4.254   2.116   2.717
 1669SOL    HW3 6707   4.343   1.993   2.718
 1669SOL    MW4 6708   4.273   2.036   2.747
 1670SOL     OW 6709   4.257   2.301   2.685
 1670SOL    HW2 6710   4.184   2.360   2.701
 1670SOL    HW3 6711   4.278   2.312   2.593
 1670SOL    MW4 6712   4.250   2.310   2.675
 1671SOL     OW 6713   4.030   2.451   2.746
 1671SOL    HW2 6714   4.048   2.470   2.838
 1671SOL    HW3 6715   3.945   2.406   2.748
 1671SOL    MW4 6716   4.021   2.448   2.759
 1672SOL     OW 6717   4.014   2.674   2.586
 1672SOL    HW2 6718   4.098   2.714   2.610
 1672SOL    HW3 6719   4.011   2.593   2.636
 1672SOL    MW4 6720   4.025   2.669   2.596
 1673SOL     OW 6721   4.243   2.771   2.709
 1673SOL    HW2 6722   4.215   2.774   2.800
 1673SOL    HW3 6723   4.247   2.863   2.682
 1673SOL    MW4 6724   4.240   2.784   2.717
 1674SOL     OW 6725   4.249   3.060   2.632
 1674SOL    HW2 6726   4.167   3.090   2.671
 1674SOL    HW3 6727   4.232   3.059   2.538
 1674SOL    MW4 6728   4.236   3.064   2.625
 1675SOL     OW 6729   4.022   3.168   2.746
 1675SOL    HW2 6730   4.021   3.263   2.740
 1675SOL    HW3 6731   3.940   3.140   2.706
 1675SOL    MW4 6732   4.011   3.177   2.740
 1676SOL     OW 6733   4.040   3.434   2.661
 1676SOL    HW2 6734   4.105   3.491   2.701
 1676SOL    HW3 6735   4.064   3.430   2.569
 1676SOL    MW4 6736   4.052   3.441   2.654
 1677SOL     OW 6737   4.234   3.603   2.749
 1677SOL    HW2 6738   4.245   3.610   2.844
 1677SOL    HW3 6739   4.315   3.564   2.718
 1677SOL    MW4 6740   4.246   3.599   2.757
 1678SOL     OW 6741   4.238   3.849   2.619
 1678SOL    HW2 6742   4.239   3.761   2.657
 1678SOL    HW3 6743   4.321   3.888   2.647
 1678SOL    MW4 6744   4.249   3.842   2.628
 1679SOL     OW 6745   4.057   4.026   2.754
 1679SOL    HW2 6746   4.054   4.012   2.848
 1679SOL    HW3 6747   4.128   3.968   2.724
 1679SOL    MW4 6748   4.066   4.017   2.762
 1680SOL     OW 6749   4.056   4.263   2.620
 1680SOL    HW2 6750   4.060   4.176   2.659
 1680SOL    HW3 6751   4.035   4.247   2.528
 1680SOL    MW4 6752   4.054   4.250   2.613
 1681SOL     OW 6753   4.262   4.395   2.774
 1681SOL    HW2 6754   4.192   4.341   2.737
 1681SOL    HW3 6755   4.253   4.479   2.729
 1681SOL    MW4 6756   4.251   4.399   2.763
 1682SOL     OW 6757   0.264   4.652   3.090
 1682SOL    HW2 6758   0.254   4.639   3.184
 1682SOL    HW3 6759   0.177   4.675   3.059
 1682SOL    MW4 6760   0.251   4.654   3.098
 1683SOL     OW 6761   4.464   0.082   3.021
 1683SOL    HW2 6762   4.406   0.018   3.062
 1683SOL    HW3 6763   4.453   0.162   3.072
 1683SOL    MW4 6764   4.455   0.084   3.033
 1684SOL     OW 6765   4.473   0.332   3.146
 1684SOL    HW2 6766   4.485   0.352   3.239
 1684SOL    HW3 6767   4.401   0.390   3.119
 1684SOL    MW4 6768   4.465   0.342   3.154
 1685SOL     OW 6769   0.193   0.517   3.016
 1685SOL    HW2 6770   0.259   0.460   3.056
 1685SOL    HW3 6771   0.112   0.466   3.022
 1685SOL    MW4 6772   0.191   0.502   3.022
 1686SOL     OW 6773   0.224   0.781   3.121
 1686SOL    HW2 6774   0.224   0.774   3.217
 1686SOL    HW3 6775   0.206   0.692   3.091
 1686SOL    MW4 6776   0.222   0.768   3.130
 1687SOL     OW 6777   4.476   0.910   3.001
 1687SOL    HW2 6778   4.566   0.886   3.027
 1687SOL    HW3 6779   4.481   0.918   2.905
 1687SOL    MW4 6780   4.489   0.908   2.991
 1688SOL     OW 6781   4.446   1.182   3.096
 1688SOL    HW2 6782   4.357   1.205   3.071
 1688SOL    HW3 6783   4.458   1.092   3.063
 1688SOL    MW4 6784   4.436   1.173   3.089
 1689SOL     OW 6785   0.216   1.276   3.013
 1689SOL    HW2 6786   0.128   1.256   3.047
 1689SOL    HW3 6787   0.214   1.243   2.923
 1689SOL    MW4 6788   0.204   1.269   3.005
 1690SOL     OW 6789   0.251   1.542   3.069
 1690SOL    HW2 6790   0.168   1.581   3.042
 1690SOL    HW3 6791   0.247   1.453   3.035
 1690SOL    MW4 6792   0.239   1.535   3.061
 1691SOL     OW 6793   4.489   1.674   3.026
 1691SOL    HW2 6794   4.409   1.630   3.056
 1691SOL    HW3 6795   4.491   1.755   3.076
 1691SOL    MW4 6796   4.479   1.679   3.037
 1692SOL     OW 6797   0.006   1.905   3.151
 1692SOL    HW2 6798  -0.076   1.951   3.133
 1692SOL    HW3 6799   0.070   1.944   3.092
 1692SOL    MW4 6800   0.003   1.916   3.141
 1693SOL     OW 6801   0.209   2.020   3.029
 1693SOL    HW2 6802   0.195   2.114   3.042
 1693SOL    HW3 6803   0.225   2.010   2.936
 1693SOL    MW4 6804   0.209   2.031   3.019
 1694SOL     OW 6805   0.191   2.273   3.070
 1694SOL    HW2 6806   0.216   2.281   3.162
 1694SOL    HW3 6807   0.268   2.303   3.022
 1694SOL    MW4 6808   0.204   2.278   3.076
 1695SOL     OW 6809   4.469   2.464   3.028
 1695SOL    HW2 6810   4.461   2.542   3.082
 1695SOL    HW3 6811   4.544   2.416   3.064
 1695SOL    MW4 6812   4.478   2.468   3.040
 1696SOL     OW 6813   4.454   2.739   3.150
 1696SOL    HW2 6814   4.477   2.736   3.243
 1696SOL    HW3 6815   4.534   2.769   3.107
 1696SOL    MW4 6816   4.468   2.743   3.157
 1697SOL     OW 6817   0.196   2.803   3.020
 1697SOL    HW2 6818   0.270   2.752   3.053
 1697SOL    HW3 6819   0.211   2.808   2.926
 1697SOL    MW4 6820   0.208   2.797   3.012
 1698SOL     OW 6821   0.211   3.085   3.120
 1698SOL    HW2 6822   0.131   3.126   3.088
 1698SOL    HW3 6823   0.198   2.992   3.105
 1698SOL    MW4 6824   0.199   3.078   3.114
 1699SOL     OW 6825   4.468   3.184   3.014
 1699SOL    HW2 6826   4.401   3.118   3.031
 1699SOL    HW3 6827   4.476   3.187   2.919
 1699SOL    MW4 6828   4.461   3.176   3.004
 1700SOL     OW 6829   4.473   3.455   3.114
 1700SOL    HW2 6830   4.395   3.503   3.088
 1700SOL    HW3 6831   4.464   3.370   3.071
 1700SOL    MW4 6832   4.462   3.450   3.105
 1701SOL     OW 6833   0.220   3.596   3.022
 1701SOL    HW2 6834   0.211   3.675   3.076
 1701SOL    HW3 6835   0.148   3.539   3.050
 1701SOL    MW4 6836   0.209   3.599   3.032
 1702SOL     OW 6837   0.222   3.837   3.131
 1702SOL    HW2 6838   0.231   3.843   3.227
 1702SOL    HW3 6839   0.291   3.894   3.097
 1702SOL    MW4 6840   0.232   3.845   3.140
 1703SOL     OW 6841   4.473   3.985   3.030
 1703SOL    HW2 6842   4.552   3.943   3.066
 1703SOL    HW3 6843   4.490   3.991   2.936
 1703SOL    MW4 6844   4.485   3.980   3.023
 1704SOL     OW 6845   0.010   4.246   3.155
 1704SOL    HW2 6846  -0.015   4.246   3.248
 1704SOL    HW3 6847  -0.001   4.154   3.128
 1704SOL    MW4 6848   0.005   4.234   3.164
 1705SOL     OW 6849   0.221   4.383   3.025
 1705SOL    HW2 6850   0.157   4.346   3.086
 1705SOL    HW3 6851   0.233   4.473   3.054
 1705SOL    MW4 6852   0.214   4.390   3.037
 1706SOL     OW 6853   0.656   4.632   3.137
 1706SOL    HW2 6854   0.663   4.547   3.094
 1706SOL    HW3 6855   0.580   4.674   3.095
 1706SOL    MW4 6856   0.647   4.626   3.125
 1707SOL     OW 6857   0.474   0.119   2.992
 1707SOL    HW2 6858   0.481   0.204   3.036
 1707SOL    HW3 6859   0.394   0.080   3.029
 1707SOL    MW4 6860   0.464   0.125   3.003
 1708SOL     OW 6861   0.416   0.355   3.108
 1708SOL    HW2 6862   0.415   0.362   3.204
 1708SOL    HW3 6863   0.493   0.405   3.081
 1708SOL    MW4 6864   0.426   0.362   3.117
 1709SOL     OW 6865   0.646   0.484   3.026
 1709SOL    HW2 6866   0.721   0.435   3.061
 1709SOL    HW3 6867   0.662   0.575   3.053
 1709SOL    MW4 6868   0.658   0.490   3.034
 1710SOL     OW 6869   0.677   0.745   3.101
 1710SOL    HW2 6870   0.682   0.729   3.195
 1710SOL    HW3 6871   0.605   0.807   3.090
 1710SOL    MW4 6872   0.669   0.751   3.112
 1711SOL     OW 6873   0.461   0.915   3.037
 1711SOL    HW2 6874   0.384   0.862   3.058
 1711SOL    HW3 6875   0.459   0.922   2.941
 1711SOL    MW4 6876   0.450   0.909   3.027
 1712SOL     OW 6877   0.446   1.189   3.142
 1712SOL    HW2 6878   0.464   1.098   3.120
 1712SOL    HW3 6879   0.377   1.216   3.081
 1712SOL    MW4 6880   0.440   1.181   3.131
 1713SOL     OW 6881   0.679   1.295   3.022
 1713SOL    HW2 6882   0.739   1.227   3.054
 1713SOL    HW3 6883   0.592   1.263   3.047
 1713SOL    MW4 6884   0.675   1.281   3.030
 1714SOL     OW 6885   0.683   1.562   3.112
 1714SOL    HW2 6886   0.675   1.547   3.206
 1714SOL    HW3 6887   0.684   1.474   3.073
 1714SOL    MW4 6888   0.682   1.549   3.119
 1715SOL     OW 6889   0.472   1.679   2.979
 1715SOL    HW2 6890   0.546   1.631   3.017
 1715SOL    HW3 6891   0.394   1.634   3.012
 1715SOL    MW4 6892   0.472   1.667   2.989
 1716SOL     OW 6893   0.425   1.900   3.139
 1716SOL    HW2 6894   0.441   1.822   3.088
 1716SOL    HW3 6895   0.346   1.938   3.100
 1716SOL    MW4 6896   0.416   1.895   3.127
 1717SOL     OW 6897   0.649   2.037   3.031
 1717SOL    HW2 6898   0.730   2.005   3.072
 1717SOL    HW3 6899   0.579   1.991   3.078
 1717SOL    MW4 6900   0.651   2.027   3.043
 1718SOL     OW 6901   0.674   2.291   3.105
 1718SOL    HW2 6902   0.656   2.295   3.198
 1718SOL    HW3 6903   0.673   2.198   3.084
 1718SOL    MW4 6904   0.672   2.280   3.114
 1719SOL     OW 6905   0.437   2.410   2.994
 1719SOL    HW2 6906   0.517   2.367   3.025
 1719SOL    HW3 6907   0.447   2.413   2.899
 1719SOL    MW4 6908   0.449   2.405   2.986
 1720SOL     OW 6909   0.426   2.674   3.090
 1720SOL    HW2 6910   0.511   2.717   3.079
 1720SOL    HW3 6911   0.442   2.583   3.064
 1720SOL    MW4 6912   0.439   2.668   3.085
 1721SOL     OW 6913   0.670   2.811   3.055
 1721SOL    HW2 6914   0.753   2.770   3.078
 1721SOL    HW3 6915   0.684   2.905   3.070
 1721SOL    MW4 6916   0.682   2.818   3.060
 1722SOL     OW 6917   0.692   3.092   3.103
 1722SOL    HW2 6918   0.690   3.086   3.198
 1722SOL    HW3 6919   0.613   3.141   3.081
 1722SOL    MW4 6920   0.681   3.098   3.113
 1723SOL     OW 6921   0.441   3.211   3.013
 1723SOL    HW2 6922   0.456   3.296   3.053
 1723SOL    HW3 6923   0.351   3.189   3.036
 1723SOL    MW4 6924   0.431   3.219   3.021
 1724SOL     OW 6925   0.452   3.472   3.121
 1724SOL    HW2 6926   0.468   3.482   3.215
 1724SOL    HW3 6927   0.365   3.509   3.107
 1724SOL    MW4 6928   0.443   3.478   3.132
 1725SOL     OW 6929   0.660   3.630   3.046
 1725SOL    HW2 6930   0.725   3.596   3.108
 1725SOL    HW3 6931   0.580   3.580   3.065
 1725SOL    MW4 6932   0.658   3.618   3.057
 1726SOL     OW 6933   0.673   3.885   3.118
 1726SOL    HW2 6934   0.668   3.878   3.213
 1726SOL    HW3 6935   0.675   3.794   3.088
 1726SOL    MW4 6936   0.672   3.872   3.126
 1727SOL     OW 6937   0.428   4.000   3.044
 1727SOL    HW2 6938   0.505   3.944   3.052
 1727SOL    HW3 6939   0.410   4.003   2.950
 1727SOL    MW4 6940   0.436   3.993   3.033
 1728SOL     OW 6941   0.462   4.258   3.154
 1728SOL    HW2 6942   0.475   4.169   3.122
 1728SOL    HW3 6943   0.389   4.292   3.101
 1728SOL    MW4 6944   0.454   4.251   3.143
 1729SOL     OW 6945   0.670   4.378   3.034
 1729SOL    HW2 6946   0.586   4.352   3.072
 1729SOL    HW3 6947   0.660   4.362   2.940
 1729SOL    MW4 6948   0.658   4.373   3.027
 1730SOL     OW 6949   1.115   4.659   3.130
 1730SOL    HW2 6950   1.178   4.720   3.093
 1730SOL    HW3 6951   1.030   4.693   3.103
 1730SOL    MW4 6952   1.112   4.672   3.122
 1731SOL     OW 6953   0.868   0.093   3.048
 1731SOL    HW2 6954   0.879   0.176   3.095
 1731SOL    HW3 6955   0.792   0.052   3.089
 1731SOL    MW4 6956   0.859   0.098   3.060
 1732SOL     OW 6957   0.863   0.351   3.152
 1732SOL    HW2 6958   0.872   0.337   3.247
 1732SOL    HW3 6959   0.931   0.415   3.132
 1732SOL    MW4 6960   0.873   0.357   3.162
 1733SOL     OW 6961   1.096   0.481   3.027
 1733SOL    HW2 6962   1.180   0.444   3.054
 1733SOL    HW3 6963   1.104   0.492   2.932
 1733SOL    MW4 6964   1.108   0.477   3.018
 1734SOL     OW 6965   1.118   0.746   3.138
 1734SOL    HW2 6966   1.108   0.737   3.233
 1734SOL    HW3 6967   1.116   0.656   3.105
 1734SOL    MW4 6968   1.116   0.733   3.146
 1735SOL     OW 6969   0.909   0.876   3.015
 1735SOL    HW2 6970   0.983   0.835   3.060
 1735SOL    HW3 6971   0.833   0.826   3.045
 1735SOL    MW4 6972   0.908   0.864   3.025
 1736SOL     OW 6973   0.883   1.126   3.126
 1736SOL    HW2 6974   0.962   1.173   3.097
 1736SOL    HW3 6975   0.891   1.040   3.084
 1736SOL    MW4 6976   0.895   1.121   3.116
 1737SOL     OW 6977   1.107   1.261   3.037
 1737SOL    HW2 6978   1.189   1.215   3.053
 1737SOL    HW3 6979   1.098   1.261   2.941
 1737SOL    MW4 6980   1.116   1.255   3.026
 1738SOL     OW 6981   1.125   1.531   3.130
 1738SOL    HW2 6982   1.208   1.576   3.113
 1738SOL    HW3 6983   1.131   1.450   3.078
 1738SOL    MW4 6984   1.137   1.526   3.121
 1739SOL     OW 6985   0.911   1.671   3.023
 1739SOL    HW2 6986   0.976   1.614   3.063
 1739SOL    HW3 6987   0.826   1.634   3.048
 1739SOL    MW4 6988   0.908   1.659   3.032
 1740SOL     OW 6989   0.910   1.941   3.091
 1740SOL    HW2 6990   0.898   1.943   3.186
 1740SOL    HW3 6991   0.908   1.848   3.069
 1740SOL    MW4 6992   0.908   1.929   3.101
 1741SOL     OW 6993   1.150   2.069   2.975
 1741SOL    HW2 6994   1.069   2.029   3.009
 1741SOL    HW3 6995   1.142   2.062   2.880
 1741SOL    MW4 6996   1.138   2.062   2.967
 1742SOL     OW 6997   1.169   2.300   3.127
 1742SOL    HW2 6998   1.088   2.345   3.103
 1742SOL    HW3 6999   1.166   2.218   3.077
 1742SOL    MW4 7000   1.158   2.295   3.117
 1743SOL     OW 7001   0.911   2.408   3.048
 1743SOL    HW2 7002   0.826   2.367   3.060
 1743SOL    HW3 7003   0.932   2.393   2.955
 1743SOL    MW4 7004   0.903   2.401   3.037
 1744SOL     OW 7005   0.899   2.686   3.133
 1744SOL    HW2 7006   0.879   2.687   3.226
 1744SOL    HW3 7007   0.897   2.593   3.109
 1744SOL    MW4 7008   0.896   2.674   3.142
 1745SOL     OW 7009   1.148   2.801   3.046
 1745SOL    HW2 7010   1.145   2.896   3.052
 1745SOL    HW3 7011   1.068   2.771   3.091
 1745SOL    MW4 7012   1.137   2.809   3.053
 1746SOL     OW 7013   1.132   3.072   3.120
 1746SOL    HW2 7014   1.211   3.123   3.099
 1746SOL    HW3 7015   1.060   3.132   3.102
 1746SOL    MW4 7016   1.133   3.087   3.115
 1747SOL     OW 7017   0.918   3.250   3.050
 1747SOL    HW2 7018   0.837   3.202   3.069
 1747SOL    HW3 7019   0.927   3.246   2.955
 1747SOL    MW4 7020   0.908   3.243   3.040
 1748SOL     OW 7021   0.900   3.509   3.141
 1748SOL    HW2 7022   0.964   3.556   3.087
 1748SOL    HW3 7023   0.916   3.416   3.121
 1748SOL    MW4 7024   0.911   3.503   3.131
 1749SOL     OW 7025   1.092   3.664   3.017
 1749SOL    HW2 7026   1.162   3.612   3.058
 1749SOL    HW3 7027   1.101   3.751   3.056
 1749SOL    MW4 7028   1.103   3.669   3.028
 1750SOL     OW 7029   1.127   3.905   3.152
 1750SOL    HW2 7030   1.131   3.917   3.247
 1750SOL    HW3 7031   1.050   3.956   3.125
 1750SOL    MW4 7032   1.117   3.913   3.161
 1751SOL     OW 7033   0.902   4.025   3.043
 1751SOL    HW2 7034   0.822   3.978   3.066
 1751SOL    HW3 7035   0.904   4.024   2.948
 1751SOL    MW4 7036   0.892   4.019   3.034
 1752SOL     OW 7037   0.903   4.274   3.149
 1752SOL    HW2 7038   0.896   4.183   3.119
 1752SOL    HW3 7039   0.820   4.314   3.124
 1752SOL    MW4 7040   0.891   4.267   3.142
 1753SOL     OW 7041   1.110   4.405   3.020
 1753SOL    HW2 7042   1.039   4.368   3.073
 1753SOL    HW3 7043   1.107   4.499   3.038
 1753SOL    MW4 7044   1.100   4.412   3.029
 1754SOL     OW 7045   1.564   4.654   3.097
 1754SOL    HW2 7046   1.555   4.623   3.187
 1754SOL    HW3 7047   1.480   4.694   3.076
 1754SOL    MW4 7048   1.552   4.655   3.106
 1755SOL     OW 7049   1.339   0.136   3.029
 1755SOL    HW2 7050   1.341   0.231   3.040
 1755SOL    HW3 7051   1.338   0.124   2.934
 1755SOL    MW4 7052   1.339   0.147   3.018
 1756SOL     OW 7053   1.343   0.390   3.119
 1756SOL    HW2 7054   1.353   0.365   3.211
 1756SOL    HW3 7055   1.414   0.452   3.103
 1756SOL    MW4 7056   1.354   0.395   3.129
 1757SOL     OW 7057   1.578   0.524   3.030
 1757SOL    HW2 7058   1.592   0.616   3.052
 1757SOL    HW3 7059   1.578   0.522   2.934
 1757SOL    MW4 7060   1.580   0.536   3.020
 1758SOL     OW 7061   1.579   0.792   3.099
 1758SOL    HW2 7062   1.560   0.819   3.189
 1758SOL    HW3 7063   1.495   0.798   3.054
 1758SOL    MW4 7064   1.565   0.796   3.105
 1759SOL     OW 7065   1.331   0.838   2.987
 1759SOL    HW2 7066   1.334   0.926   3.025
 1759SOL    HW3 7067   1.268   0.791   3.042
 1759SOL    MW4 7068   1.323   0.844   2.999
 1760SOL     OW 7069   1.352   1.078   3.113
 1760SOL    HW2 7070   1.349   1.080   3.209
 1760SOL    HW3 7071   1.422   1.139   3.090
 1760SOL    MW4 7072   1.361   1.086   3.123
 1761SOL     OW 7073   1.546   1.256   3.044
 1761SOL    HW2 7074   1.634   1.235   3.075
 1761SOL    HW3 7075   1.537   1.350   3.059
 1761SOL    MW4 7076   1.557   1.265   3.050
 1762SOL     OW 7077   1.591   1.515   3.116
 1762SOL    HW2 7078   1.655   1.581   3.089
 1762SOL    HW3 7079   1.507   1.550   3.087
 1762SOL    MW4 7080   1.588   1.528   3.109
 1763SOL     OW 7081   1.374   1.661   3.031
 1763SOL    HW2 7082   1.387   1.747   3.070
 1763SOL    HW3 7083   1.367   1.677   2.937
 1763SOL    MW4 7084   1.375   1.674   3.023
 1764SOL     OW 7085   1.354   1.921   3.121
 1764SOL    HW2 7086   1.364   1.935   3.216
 1764SOL    HW3 7087   1.274   1.968   3.099
 1764SOL    MW4 7088   1.345   1.929   3.131
 1765SOL     OW 7089   1.571   2.049   3.053
 1765SOL    HW2 7090   1.486   2.010   3.073
 1765SOL    HW3 7091   1.582   2.036   2.959
 1765SOL    MW4 7092   1.561   2.042   3.043
 1766SOL     OW 7093   1.597   2.327   3.146
 1766SOL    HW2 7094   1.514   2.356   3.108
 1766SOL    HW3 7095   1.599   2.233   3.128
 1766SOL    MW4 7096   1.586   2.318   3.138
 1767SOL     OW 7097   1.389   2.424   3.001
 1767SOL    HW2 7098   1.317   2.386   3.050
 1767SOL    HW3 7099   1.363   2.416   2.909
 1767SOL    MW4 7100   1.376   2.418   2.995
 1768SOL     OW 7101   1.364   2.666   3.134
 1768SOL    HW2 7102   1.378   2.585   3.085
 1768SOL    HW3 7103   1.284   2.703   3.097
 1768SOL    MW4 7104   1.355   2.660   3.123
 1769SOL     OW 7105   1.541   2.853   3.067
 1769SOL    HW2 7106   1.619   2.808   3.098
 1769SOL    HW3 7107   1.469   2.793   3.088
 1769SOL    MW4 7108   1.542   2.839   3.074
 1770SOL     OW 7109   1.571   3.127   3.148
 1770SOL    HW2 7110   1.574   3.125   3.244
 1770SOL    HW3 7111   1.556   3.036   3.122
 1770SOL    MW4 7112   1.569   3.115   3.157
 1771SOL     OW 7113   1.342   3.228   3.052
 1771SOL    HW2 7114   1.418   3.192   3.098
 1771SOL    HW3 7115   1.368   3.228   2.960
 1771SOL    MW4 7116   1.356   3.224   3.046
 1772SOL     OW 7117   1.303   3.487   3.110
 1772SOL    HW2 7118   1.330   3.479   3.201
 1772SOL    HW3 7119   1.297   3.397   3.078
 1772SOL    MW4 7120   1.306   3.474   3.117
 1773SOL     OW 7121   1.557   3.577   3.012
 1773SOL    HW2 7122   1.476   3.533   3.038
 1773SOL    HW3 7123   1.545   3.597   2.920
 1773SOL    MW4 7124   1.545   3.574   3.004
 1774SOL     OW 7125   1.556   3.842   3.121
 1774SOL    HW2 7126   1.630   3.879   3.072
 1774SOL    HW3 7127   1.561   3.748   3.104
 1774SOL    MW4 7128   1.567   3.834   3.112
 1775SOL     OW 7129   1.350   4.014   3.026
 1775SOL    HW2 7130   1.423   3.960   3.056
 1775SOL    HW3 7131   1.273   3.978   3.069
 1775SOL    MW4 7132   1.350   4.002   3.035
 1776SOL     OW 7133   1.381   4.290   3.050
 1776SOL    HW2 7134   1.369   4.198   3.027
 1776SOL    HW3 7135   1.304   4.335   3.013
 1776SOL    MW4 7136   1.369   4.284   3.042
 1777SOL     OW 7137   1.612   4.417   2.972
 1777SOL    HW2 7138   1.524   4.389   2.996
 1777SOL    HW3 7139   1.618   4.507   3.004
 1777SOL    MW4 7140   1.602   4.425   2.979
 1778SOL     OW 7141   2.029   4.635   3.112
 1778SOL    HW2 7142   2.008   4.639   3.205
 1778SOL    HW3 7143   1.963   4.690   3.071
 1778SOL    MW4 7144   2.017   4.643   3.119
 1779SOL     OW 7145   1.820   0.141   3.029
 1779SOL    HW2 7146   1.733   0.109   3.050
 1779SOL    HW3 7147   1.825   0.136   2.933
 1779SOL    MW4 7148   1.809   0.136   3.019
 1780SOL     OW 7149   1.809   0.398   3.102
 1780SOL    HW2 7150   1.807   0.305   3.079
 1780SOL    HW3 7151   1.725   0.431   3.069
 1780SOL    MW4 7152   1.797   0.390   3.094
 1781SOL     OW 7153   2.038   0.501   3.009
 1781SOL    HW2 7154   1.954   0.467   3.040
 1781SOL    HW3 7155   2.044   0.472   2.918
 1781SOL    MW4 7156   2.027   0.493   3.001
 1782SOL     OW 7157   2.043   0.758   3.101
 1782SOL    HW2 7158   1.971   0.805   3.060
 1782SOL    HW3 7159   2.045   0.673   3.056
 1782SOL    MW4 7160   2.034   0.753   3.090
 1783SOL     OW 7161   1.832   0.910   3.008
 1783SOL    HW2 7162   1.748   0.877   3.040
 1783SOL    HW3 7163   1.819   0.919   2.913
 1783SOL    MW4 7164   1.819   0.907   2.999
 1784SOL     OW 7165   1.806   1.180   3.107
 1784SOL    HW2 7166   1.790   1.184   3.201
 1784SOL    HW3 7167   1.820   1.087   3.089
 1784SOL    MW4 7168   1.806   1.168   3.117
 1785SOL     OW 7169   2.046   1.323   3.000
 1785SOL    HW2 7170   2.119   1.278   3.042
 1785SOL    HW3 7171   1.968   1.275   3.029
 1785SOL    MW4 7172   2.045   1.311   3.009
 1786SOL     OW 7173   2.029   1.590   3.116
 1786SOL    HW2 7174   2.004   1.576   3.207
 1786SOL    HW3 7175   2.041   1.501   3.080
 1786SOL    MW4 7176   2.027   1.576   3.123
 1787SOL     OW 7177   1.775   1.691   3.023
 1787SOL    HW2 7178   1.767   1.774   3.070
 1787SOL    HW3 7179   1.854   1.651   3.058
 1787SOL    MW4 7180   1.784   1.697   3.034
 1788SOL     OW 7181   1.814   1.950   3.158
 1788SOL    HW2 7182   1.895   1.986   3.124
 1788SOL    HW3 7183   1.745   2.004   3.119
 1788SOL    MW4 7184   1.816   1.962   3.148
 1789SOL     OW 7185   2.042   2.066   3.024
 1789SOL    HW2 7186   2.113   2.034   3.079
 1789SOL    HW3 7187   2.048   2.161   3.028
 1789SOL    MW4 7188   2.052   2.074   3.032
 1790SOL     OW 7189   2.017   2.356   3.116
 1790SOL    HW2 7190   2.099   2.386   3.076
 1790SOL    HW3 7191   1.949   2.398   3.064
 1790SOL    MW4 7192   2.019   2.365   3.104
 1791SOL     OW 7193   1.783   2.481   3.017
 1791SOL    HW2 7194   1.791   2.570   3.053
 1791SOL    HW3 7195   1.723   2.437   3.076
 1791SOL    MW4 7196   1.776   2.487   3.030
 1792SOL     OW 7197   1.788   2.734   3.110
 1792SOL    HW2 7198   1.792   2.725   3.206
 1792SOL    HW3 7199   1.875   2.764   3.085
 1792SOL    MW4 7200   1.800   2.737   3.120
 1793SOL     OW 7201   2.080   2.815   3.040
 1793SOL    HW2 7202   2.069   2.903   3.078
 1793SOL    HW3 7203   2.076   2.829   2.946
 1793SOL    MW4 7204   2.078   2.829   3.033
 1794SOL     OW 7205   2.048   3.067   3.142
 1794SOL    HW2 7206   2.045   3.065   3.238
 1794SOL    HW3 7207   1.968   3.114   3.116
 1794SOL    MW4 7208   2.037   3.073   3.151
 1795SOL     OW 7209   1.819   3.187   3.054
 1795SOL    HW2 7210   1.736   3.148   3.081
 1795SOL    HW3 7211   1.813   3.191   2.958
 1795SOL    MW4 7212   1.807   3.183   3.045
 1796SOL     OW 7213   1.789   3.457   3.114
 1796SOL    HW2 7214   1.787   3.363   3.094
 1796SOL    HW3 7215   1.707   3.491   3.079
 1796SOL    MW4 7216   1.778   3.449   3.107
 1797SOL     OW 7217   2.014   3.572   2.982
 1797SOL    HW2 7218   2.012   3.659   3.022
 1797SOL    HW3 7219   1.949   3.522   3.032
 1797SOL    MW4 7220   2.005   3.577   2.994
 1798SOL     OW 7221   1.980   3.837   3.077
 1798SOL    HW2 7222   1.979   3.846   3.172
 1798SOL    HW3 7223   1.902   3.884   3.047
 1798SOL    MW4 7224   1.970   3.844   3.085
 1799SOL     OW 7225   1.767   3.979   3.006
 1799SOL    HW2 7226   1.793   4.065   3.037
 1799SOL    HW3 7227   1.777   3.983   2.911
 1799SOL    MW4 7228   1.772   3.991   2.998
 1800SOL     OW 7229   1.826   4.246   3.070
 1800SOL    HW2 7230   1.905   4.294   3.045
 1800SOL    HW3 7231   1.754   4.294   3.030
 1800SOL    MW4 7232   1.827   4.258   3.062
 1801SOL     OW 7233   2.067   4.392   2.995
 1801SOL    HW2 7234   2.061   4.481   3.028
 1801SOL    HW3 7235   2.078   4.403   2.900
 1801SOL    MW4 7236   2.068   4.405   2.987
 1802SOL     OW 7237   2.463   4.657   3.111
 1802SOL    HW2 7238   2.465   4.567   3.079
 1802SOL    HW3 7239   2.391   4.698   3.063
 1802SOL    MW4 7240   2.454   4.650   3.100
 1803SOL     OW 7241   2.258   0.095   2.977
 1803SOL    HW2 7242   2.266   0.176   3.027
 1803SOL    HW3 7243   2.184   0.049   3.017
 1803SOL    MW4 7244   2.250   0.100   2.989
 1804SOL     OW 7245   2.270   0.351   3.077
 1804SOL    HW2 7246   2.276   0.357   3.172
 1804SOL    HW3 7247   2.184   0.386   3.056
 1804SOL    MW4 7248   2.260   0.356   3.087
 1805SOL     OW 7249   2.526   0.474   2.981
 1805SOL    HW2 7250   2.442   0.441   3.014
 1805SOL    HW3 7251   2.513   0.482   2.886
 1805SOL    MW4 7252   2.513   0.471   2.973
 1806SOL     OW 7253   2.471   0.750   3.031
 1806SOL    HW2 7254   2.555   0.782   3.000
 1806SOL    HW3 7255   2.472   0.656   3.013
 1806SOL    MW4 7256   2.482   0.742   3.025
 1807SOL     OW 7257   2.246   0.903   2.967
 1807SOL    HW2 7258   2.326   0.854   2.988
 1807SOL    HW3 7259   2.177   0.855   3.013
 1807SOL    MW4 7260   2.247   0.890   2.976
 1808SOL     OW 7261   2.267   1.169   3.093
 1808SOL    HW2 7262   2.256   1.153   3.187
 1808SOL    HW3 7263   2.258   1.083   3.052
 1808SOL    MW4 7264   2.264   1.155   3.100
 1809SOL     OW 7265   2.494   1.311   2.993
 1809SOL    HW2 7266   2.427   1.265   3.042
 1809SOL    HW3 7267   2.472   1.295   2.901
 1809SOL    MW4 7268   2.482   1.303   2.987
 1810SOL     OW 7269   2.486   1.544   3.127
 1810SOL    HW2 7270   2.413   1.594   3.089
 1810SOL    HW3 7271   2.483   1.460   3.081
 1810SOL    MW4 7272   2.476   1.540   3.116
 1811SOL     OW 7273   2.279   1.691   3.038
 1811SOL    HW2 7274   2.196   1.668   3.080
 1811SOL    HW3 7275   2.264   1.676   2.945
 1811SOL    MW4 7276   2.266   1.686   3.031
 1812SOL     OW 7277   2.277   1.954   3.132
 1812SOL    HW2 7278   2.342   2.008   3.086
 1812SOL    HW3 7279   2.288   1.866   3.095
 1812SOL    MW4 7280   2.287   1.950   3.121
 1813SOL     OW 7281   2.445   2.113   2.991
 1813SOL    HW2 7282   2.524   2.066   3.017
 1813SOL    HW3 7283   2.444   2.109   2.896
 1813SOL    MW4 7284   2.455   2.106   2.982
 1814SOL     OW 7285   2.551   2.312   3.140
 1814SOL    HW2 7286   2.517   2.326   3.228
 1814SOL    HW3 7287   2.509   2.231   3.111
 1814SOL    MW4 7288   2.541   2.303   3.148
 1815SOL     OW 7289   2.287   2.408   3.016
 1815SOL    HW2 7290   2.303   2.491   3.062
 1815SOL    HW3 7291   2.347   2.346   3.057
 1815SOL    MW4 7292   2.297   2.411   3.027
 1816SOL     OW 7293   2.279   2.652   3.130
 1816SOL    HW2 7294   2.343   2.714   3.095
 1816SOL    HW3 7295   2.194   2.688   3.104
 1816SOL    MW4 7296   2.277   2.665   3.122
 1817SOL     OW 7297   2.454   2.838   3.035
 1817SOL    HW2 7298   2.447   2.928   3.068
 1817SOL    HW3 7299   2.449   2.848   2.939
 1817SOL    MW4 7300   2.452   2.851   3.026
 1818SOL     OW 7301   2.456   3.095   3.147
 1818SOL    HW2 7302   2.529   3.146   3.112
 1818SOL    HW3 7303   2.378   3.135   3.110
 1818SOL    MW4 7304   2.455   3.107   3.137
 1819SOL     OW 7305   2.243   3.197   3.010
 1819SOL    HW2 7306   2.262   3.282   3.048
 1819SOL    HW3 7307   2.173   3.161   3.065
 1819SOL    MW4 7308   2.236   3.203   3.022
 1820SOL     OW 7309   2.239   3.484   3.120
 1820SOL    HW2 7310   2.306   3.532   3.072
 1820SOL    HW3 7311   2.158   3.503   3.073
 1820SOL    MW4 7312   2.237   3.493   3.107
 1821SOL     OW 7313   2.463   3.597   2.975
 1821SOL    HW2 7314   2.529   3.551   3.026
 1821SOL    HW3 7315   2.452   3.681   3.020
 1821SOL    MW4 7316   2.470   3.602   2.988
 1822SOL     OW 7317   2.442   3.847   3.093
 1822SOL    HW2 7318   2.461   3.843   3.186
 1822SOL    HW3 7319   2.518   3.889   3.054
 1822SOL    MW4 7320   2.454   3.852   3.100
 1823SOL     OW 7321   2.194   3.971   2.975
 1823SOL    HW2 7322   2.270   3.927   3.014
 1823SOL    HW3 7323   2.118   3.927   3.013
 1823SOL    MW4 7324   2.194   3.960   2.985
 1824SOL     OW 7325   2.280   4.216   3.058
 1824SOL    HW2 7326   2.246   4.132   3.027
 1824SOL    HW3 7327   2.208   4.278   3.043
 1824SOL    MW4 7328   2.266   4.213   3.052
 1825SOL     OW 7329   2.482   4.404   3.012
 1825SOL    HW2 7330   2.411   4.344   3.036
 1825SOL    HW3 7331   2.491   4.393   2.917
 1825SOL    MW4 7332   2.474   4.394   3.002
 1826SOL     OW 7333   2.914   4.605   3.099
 1826SOL    HW2 7334   2.978   4.656   3.050
 1826SOL    HW3 7335   2.923   4.516   3.066
 1826SOL    MW4 7336   2.923   4.600   3.088
 1827SOL     OW 7337   2.695   0.068   2.991
 1827SOL    HW2 7338   2.757   0.010   3.036
 1827SOL    HW3 7339   2.611   0.052   3.034
 1827SOL    MW4 7340   2.692   0.058   3.003
 1828SOL     OW 7341   2.731   0.339   3.119
 1828SOL    HW2 7342   2.732   0.254   3.075
 1828SOL    HW3 7343   2.659   0.386   3.078
 1828SOL    MW4 7344   2.722   0.334   3.108
 1829SOL     OW 7345   2.944   0.506   2.995
 1829SOL    HW2 7346   2.872   0.451   3.025
 1829SOL    HW3 7347   2.929   0.516   2.901
 1829SOL    MW4 7348   2.932   0.500   2.986
 1830SOL     OW 7349   2.924   0.763   3.096
 1830SOL    HW2 7350   2.894   0.760   3.187
 1830SOL    HW3 7351   2.937   0.671   3.073
 1830SOL    MW4 7352   2.922   0.751   3.105
 1831SOL     OW 7353   2.709   0.873   2.972
 1831SOL    HW2 7354   2.709   0.963   3.004
 1831SOL    HW3 7355   2.784   0.832   3.014
 1831SOL    MW4 7356   2.719   0.879   2.982
 1832SOL     OW 7357   2.725   1.143   3.056
 1832SOL    HW2 7358   2.810   1.187   3.046
 1832SOL    HW3 7359   2.660   1.213   3.049
 1832SOL    MW4 7360   2.728   1.158   3.054
 1833SOL     OW 7361   2.943   1.314   3.000
 1833SOL    HW2 7362   3.020   1.270   3.036
 1833SOL    HW3 7363   2.934   1.393   3.053
 1833SOL    MW4 7364   2.952   1.319   3.012
 1834SOL     OW 7365   2.916   1.557   3.139
 1834SOL    HW2 7366   2.933   1.541   3.232
 1834SOL    HW3 7367   2.993   1.605   3.109
 1834SOL    MW4 7368   2.929   1.561   3.147
 1835SOL     OW 7369   2.700   1.705   3.061
 1835SOL    HW2 7370   2.779   1.658   3.088
 1835SOL    HW3 7371   2.628   1.655   3.098
 1835SOL    MW4 7372   2.701   1.693   3.070
 1836SOL     OW 7373   2.641   1.963   3.133
 1836SOL    HW2 7374   2.728   1.995   3.110
 1836SOL    HW3 7375   2.643   1.870   3.109
 1836SOL    MW4 7376   2.653   1.955   3.127
 1837SOL     OW 7377   2.909   2.021   3.023
 1837SOL    HW2 7378   2.926   2.113   3.043
 1837SOL    HW3 7379   2.885   2.022   2.930
 1837SOL    MW4 7380   2.908   2.034   3.013
 1838SOL     OW 7381   2.944   2.305   3.081
 1838SOL    HW2 7382   3.020   2.362   3.071
 1838SOL    HW3 7383   2.871   2.358   3.049
 1838SOL    MW4 7384   2.944   2.320   3.075
 1839SOL     OW 7385   2.725   2.476   2.983
 1839SOL    HW2 7386   2.729   2.558   3.032
 1839SOL    HW3 7387   2.658   2.425   3.029
 1839SOL    MW4 7388   2.716   2.480   2.996
 1840SOL     OW 7389   2.700   2.723   3.119
 1840SOL    HW2 7390   2.688   2.728   3.214
 1840SOL    HW3 7391   2.617   2.753   3.083
 1840SOL    MW4 7392   2.688   2.728   3.127
 1841SOL     OW 7393   2.907   2.845   2.994
 1841SOL    HW2 7394   2.982   2.801   3.034
 1841SOL    HW3 7395   2.831   2.808   3.037
 1841SOL    MW4 7396   2.907   2.835   3.005
 1842SOL     OW 7397   2.938   3.113   3.081
 1842SOL    HW2 7398   2.850   3.149   3.074
 1842SOL    HW3 7399   2.932   3.027   3.039
 1842SOL    MW4 7400   2.926   3.106   3.074
 1843SOL     OW 7401   2.679   3.226   3.014
 1843SOL    HW2 7402   2.665   3.315   3.047
 1843SOL    HW3 7403   2.682   3.236   2.919
 1843SOL    MW4 7404   2.678   3.239   3.006
 1844SOL     OW 7405   2.671   3.482   3.127
 1844SOL    HW2 7406   2.687   3.482   3.221
 1844SOL    HW3 7407   2.750   3.522   3.089
 1844SOL    MW4 7408   2.684   3.488   3.134
 1845SOL     OW 7409   2.908   3.586   2.990
 1845SOL    HW2 7410   2.973   3.546   3.048
 1845SOL    HW3 7411   2.903   3.677   3.019
 1845SOL    MW4 7412   2.916   3.592   3.002
 1846SOL     OW 7413   2.892   3.854   3.091
 1846SOL    HW2 7414   2.889   3.857   3.186
 1846SOL    HW3 7415   2.801   3.867   3.063
 1846SOL    MW4 7416   2.880   3.856   3.100
 1847SOL     OW 7417   2.660   3.967   2.990
 1847SOL    HW2 7418   2.678   4.055   3.024
 1847SOL    HW3 7419   2.670   3.975   2.895
 1847SOL    MW4 7420   2.663   3.980   2.982
 1848SOL     OW 7421   2.681   4.213   3.115
 1848SOL    HW2 7422   2.693   4.230   3.209
 1848SOL    HW3 7423   2.596   4.253   3.095
 1848SOL    MW4 7424   2.671   4.221   3.125
 1849SOL     OW 7425   2.900   4.336   2.988
 1849SOL    HW2 7426   2.968   4.287   3.035
 1849SOL    HW3 7427   2.818   4.307   3.027
 1849SOL    MW4 7428   2.898   4.326   2.999
 1850SOL     OW 7429   3.369   4.639   3.114
 1850SOL    HW2 7430   3.449   4.675   3.075
 1850SOL    HW3 7431   3.365   4.549   3.081
 1850SOL    MW4 7432   3.379   4.632   3.105
 1851SOL     OW 7433   3.117   0.095   3.025
 1851SOL    HW2 7434   3.129   0.185   3.055
 1851SOL    HW3 7435   3.183   0.045   3.073
 1851SOL    MW4 7436   3.127   0.100   3.035
 1852SOL     OW 7437   3.163   0.363   3.082
 1852SOL    HW2 7438   3.248   0.397   3.056
 1852SOL    HW3 7439   3.100   0.422   3.041
 1852SOL    MW4 7440   3.166   0.375   3.073
 1853SOL     OW 7441   3.393   0.490   3.026
 1853SOL    HW2 7442   3.474   0.440   3.038
 1853SOL    HW3 7443   3.391   0.508   2.932
 1853SOL    MW4 7444   3.404   0.486   3.015
 1854SOL     OW 7445   3.367   0.757   3.128
 1854SOL    HW2 7446   3.338   0.744   3.218
 1854SOL    HW3 7447   3.383   0.669   3.095
 1854SOL    MW4 7448   3.365   0.744   3.136
 1855SOL     OW 7449   3.147   0.904   3.016
 1855SOL    HW2 7450   3.227   0.872   3.060
 1855SOL    HW3 7451   3.078   0.848   3.050
 1855SOL    MW4 7452   3.149   0.892   3.026
 1856SOL     OW 7453   3.169   1.181   3.107
 1856SOL    HW2 7454   3.223   1.224   3.041
 1856SOL    HW3 7455   3.152   1.094   3.071
 1856SOL    MW4 7456   3.174   1.175   3.093
 1857SOL     OW 7457   3.374   1.296   2.951
 1857SOL    HW2 7458   3.434   1.249   3.009
 1857SOL    HW3 7459   3.373   1.385   2.986
 1857SOL    MW4 7460   3.382   1.302   2.963
 1858SOL     OW 7461   3.369   1.522   3.101
 1858SOL    HW2 7462   3.349   1.521   3.195
 1858SOL    HW3 7463   3.446   1.578   3.094
 1858SOL    MW4 7464   3.376   1.529   3.113
 1859SOL     OW 7465   3.146   1.669   2.995
 1859SOL    HW2 7466   3.232   1.632   3.015
 1859SOL    HW3 7467   3.136   1.658   2.900
 1859SOL    MW4 7468   3.156   1.663   2.985
 1860SOL     OW 7469   3.117   1.898   3.149
 1860SOL    HW2 7470   3.134   1.822   3.092
 1860SOL    HW3 7471   3.044   1.943   3.106
 1860SOL    MW4 7472   3.110   1.894   3.135
 1861SOL     OW 7473   3.313   2.059   3.017
 1861SOL    HW2 7474   3.399   2.038   3.052
 1861SOL    HW3 7475   3.252   2.012   3.074
 1861SOL    MW4 7476   3.316   2.050   3.029
 1862SOL     OW 7477   3.340   2.301   3.113
 1862SOL    HW2 7478   3.352   2.291   3.208
 1862SOL    HW3 7479   3.323   2.213   3.081
 1862SOL    MW4 7480   3.339   2.288   3.122
 1863SOL     OW 7481   3.160   2.493   3.016
 1863SOL    HW2 7482   3.222   2.426   3.045
 1863SOL    HW3 7483   3.156   2.482   2.921
 1863SOL    MW4 7484   3.167   2.482   3.007
 1864SOL     OW 7485   3.125   2.733   3.111
 1864SOL    HW2 7486   3.107   2.718   3.204
 1864SOL    HW3 7487   3.145   2.645   3.077
 1864SOL    MW4 7488   3.125   2.719   3.119
 1865SOL     OW 7489   3.357   2.815   2.983
 1865SOL    HW2 7490   3.379   2.905   3.007
 1865SOL    HW3 7491   3.271   2.799   3.022
 1865SOL    MW4 7492   3.349   2.824   2.991
 1866SOL     OW 7493   3.400   3.072   3.088
 1866SOL    HW2 7494   3.397   3.068   3.183
 1866SOL    HW3 7495   3.316   3.111   3.063
 1866SOL    MW4 7496   3.389   3.077   3.097
 1867SOL     OW 7497   3.177   3.216   3.001
 1867SOL    HW2 7498   3.097   3.182   3.041
 1867SOL    HW3 7499   3.160   3.209   2.906
 1867SOL    MW4 7500   3.164   3.211   2.994
 1868SOL     OW 7501   3.133   3.469   3.127
 1868SOL    HW2 7502   3.205   3.521   3.091
 1868SOL    HW3 7503   3.144   3.382   3.088
 1868SOL    MW4 7504   3.144   3.464   3.117
 1869SOL     OW 7505   3.358   3.556   2.981
 1869SOL    HW2 7506   3.425   3.504   3.027
 1869SOL    HW3 7507   3.369   3.645   3.015
 1869SOL    MW4 7508   3.369   3.561   2.992
 1870SOL     OW 7509   3.396   3.812   3.067
 1870SOL    HW2 7510   3.417   3.842   3.155
 1870SOL    HW3 7511   3.317   3.861   3.043
 1870SOL    MW4 7512   3.389   3.823   3.075
 1871SOL     OW 7513   3.155   3.968   2.994
 1871SOL    HW2 7514   3.075   3.931   3.033
 1871SOL    HW3 7515   3.138   3.967   2.900
 1871SOL    MW4 7516   3.142   3.963   2.987
 1872SOL     OW 7517   3.138   4.234   3.109
 1872SOL    HW2 7518   3.130   4.226   3.204
 1872SOL    HW3 7519   3.159   4.145   3.080
 1872SOL    MW4 7520   3.140   4.221   3.118
 1873SOL     OW 7521   3.335   4.391   2.998
 1873SOL    HW2 7522   3.406   4.337   3.033
 1873SOL    HW3 7523   3.255   4.352   3.034
 1873SOL    MW4 7524   3.334   4.379   3.007
 1874SOL     OW 7525   3.798   4.634   3.094
 1874SOL    HW2 7526   3.807   4.541   3.071
 1874SOL    HW3 7527   3.723   4.664   3.044
 1874SOL    MW4 7528   3.790   4.626   3.085
 1875SOL     OW 7529   3.588   0.082   2.978
 1875SOL    HW2 7530   3.591   0.171   3.013
 1875SOL    HW3 7531   3.578   0.093   2.883
 1875SOL    MW4 7532   3.587   0.095   2.970
 1876SOL     OW 7533   3.611   0.345   3.051
 1876SOL    HW2 7534   3.632   0.334   3.143
 1876SOL    HW3 7535   3.683   0.399   3.016
 1876SOL    MW4 7536   3.624   0.351   3.058
 1877SOL     OW 7537   3.841   0.493   2.977
 1877SOL    HW2 7538   3.911   0.449   3.024
 1877SOL    HW3 7539   3.841   0.583   3.010
 1877SOL    MW4 7540   3.850   0.499   2.987
 1878SOL     OW 7541   3.828   0.742   3.060
 1878SOL    HW2 7542   3.821   0.736   3.155
 1878SOL    HW3 7543   3.907   0.794   3.045
 1878SOL    MW4 7544   3.837   0.748   3.070
 1879SOL     OW 7545   3.586   0.895   3.025
 1879SOL    HW2 7546   3.661   0.837   3.043
 1879SOL    HW3 7547   3.511   0.850   3.063
 1879SOL    MW4 7548   3.586   0.882   3.032
 1880SOL     OW 7549   3.561   1.159   3.118
 1880SOL    HW2 7550   3.630   1.206   3.071
 1880SOL    HW3 7551   3.573   1.068   3.093
 1880SOL    MW4 7552   3.571   1.153   3.108
 1881SOL     OW 7553   3.753   1.299   3.009
 1881SOL    HW2 7554   3.778   1.383   3.049
 1881SOL    HW3 7555   3.786   1.304   2.920
 1881SOL    MW4 7556   3.761   1.311   3.003
 1882SOL     OW 7557   3.831   1.544   3.116
 1882SOL    HW2 7558   3.817   1.541   3.211
 1882SOL    HW3 7559   3.754   1.589   3.082
 1882SOL    MW4 7560   3.819   1.549   3.124
 1883SOL     OW 7561   3.600   1.669   3.013
 1883SOL    HW2 7562   3.599   1.761   3.041
 1883SOL    HW3 7563   3.568   1.672   2.923
 1883SOL    MW4 7564   3.596   1.682   3.005
 1884SOL     OW 7565   3.545   1.948   3.099
 1884SOL    HW2 7566   3.540   1.952   3.195
 1884SOL    HW3 7567   3.632   1.981   3.078
 1884SOL    MW4 7568   3.556   1.953   3.109
 1885SOL     OW 7569   3.786   2.059   2.998
 1885SOL    HW2 7570   3.787   2.149   3.032
 1885SOL    HW3 7571   3.805   2.068   2.905
 1885SOL    MW4 7572   3.789   2.072   2.990
 1886SOL     OW 7573   3.794   2.303   3.093
 1886SOL    HW2 7574   3.798   2.307   3.189
 1886SOL    HW3 7575   3.714   2.350   3.070
 1886SOL    MW4 7576   3.784   2.310   3.103
 1887SOL     OW 7577   3.563   2.433   3.030
 1887SOL    HW2 7578   3.566   2.519   3.071
 1887SOL    HW3 7579   3.489   2.389   3.073
 1887SOL    MW4 7580   3.553   2.438   3.041
 1888SOL     OW 7581   3.581   2.707   3.107
 1888SOL    HW2 7582   3.650   2.761   3.069
 1888SOL    HW3 7583   3.501   2.734   3.061
 1888SOL    MW4 7584   3.580   2.717   3.096
 1889SOL     OW 7585   3.793   2.840   2.998
 1889SOL    HW2 7586   3.795   2.928   3.035
 1889SOL    HW3 7587   3.786   2.854   2.903
 1889SOL    MW4 7588   3.792   2.853   2.990
 1890SOL     OW 7589   3.801   3.088   3.119
 1890SOL    HW2 7590   3.879   3.131   3.083
 1890SOL    HW3 7591   3.728   3.138   3.083
 1890SOL    MW4 7592   3.802   3.101   3.110
 1891SOL     OW 7593   3.594   3.236   2.980
 1891SOL    HW2 7594   3.516   3.183   3.000
 1891SOL    HW3 7595   3.600   3.234   2.884
 1891SOL    MW4 7596   3.584   3.229   2.970
 1892SOL     OW 7597   3.591   3.480   3.104
 1892SOL    HW2 7598   3.670   3.525   3.076
 1892SOL    HW3 7599   3.600   3.391   3.069
 1892SOL    MW4 7600   3.603   3.474   3.096
 1893SOL     OW 7601   3.820   3.609   3.021
 1893SOL    HW2 7602   3.825   3.700   3.049
 1893SOL    HW3 7603   3.808   3.614   2.926
 1893SOL    MW4 7604   3.819   3.622   3.012
 1894SOL     OW 7605   3.799   3.886   3.105
 1894SOL    HW2 7606   3.786   3.891   3.199
 1894SOL    HW3 7607   3.723   3.931   3.068
 1894SOL    MW4 7608   3.788   3.893   3.112
 1895SOL     OW 7609   3.584   4.014   2.989
 1895SOL    HW2 7610   3.515   3.950   3.009
 1895SOL    HW3 7611   3.591   4.012   2.893
 1895SOL    MW4 7612   3.576   4.005   2.979
 1896SOL     OW 7613   3.582   4.268   3.088
 1896SOL    HW2 7614   3.663   4.285   3.041
 1896SOL    HW3 7615   3.559   4.178   3.065
 1896SOL    MW4 7616   3.589   4.258   3.079
 1897SOL     OW 7617   3.828   4.367   2.998
 1897SOL    HW2 7618   3.898   4.310   3.029
 1897SOL    HW3 7619   3.847   4.380   2.905
 1897SOL    MW4 7620   3.839   4.362   2.989
 1898SOL     OW 7621   4.243   4.619   3.113
 1898SOL    HW2 7622   4.251   4.618   3.209
 1898SOL    HW3 7623   4.239   4.527   3.088
 1898SOL    MW4 7624   4.244   4.607   3.122
 1899SOL     OW 7625   4.026   0.085   3.006
 1899SOL    HW2 7626   4.092   0.032   3.052
 1899SOL    HW3 7627   3.942   0.051   3.037
 1899SOL    MW4 7628   4.024   0.073   3.016
 1900SOL     OW 7629   4.041   0.367   3.108
 1900SOL    HW2 7630   4.122   0.408   3.080
 1900SOL    HW3 7631   4.034   0.288   3.054
 1900SOL    MW4 7632   4.051   0.362   3.097
 1901SOL     OW 7633   4.277   0.504   3.040
 1901SOL    HW2 7634   4.259   0.598   3.040
 1901SOL    HW3 7635   4.281   0.480   2.947
 1901SOL    MW4 7636   4.275   0.513   3.027
 1902SOL     OW 7637   4.245   0.777   3.079
 1902SOL    HW2 7638   4.170   0.824   3.042
 1902SOL    HW3 7639   4.321   0.820   3.039
 1902SOL    MW4 7640   4.245   0.789   3.069
 1903SOL     OW 7641   4.037   0.922   2.989
 1903SOL    HW2 7642   4.011   1.008   3.022
 1903SOL    HW3 7643   4.016   0.925   2.896
 1903SOL    MW4 7644   4.031   0.934   2.981
 1904SOL     OW 7645   3.968   1.150   3.118
 1904SOL    HW2 7646   3.969   1.141   3.213
 1904SOL    HW3 7647   3.889   1.200   3.099
 1904SOL    MW4 7648   3.958   1.155   3.128
 1905SOL     OW 7649   4.208   1.261   3.003
 1905SOL    HW2 7650   4.120   1.241   3.035
 1905SOL    HW3 7651   4.201   1.257   2.908
 1905SOL    MW4 7652   4.196   1.258   2.995
 1906SOL     OW 7653   4.274   1.540   3.115
 1906SOL    HW2 7654   4.198   1.595   3.097
 1906SOL    HW3 7655   4.259   1.460   3.065
 1906SOL    MW4 7656   4.262   1.537   3.106
 1907SOL     OW 7657   4.045   1.693   3.022
 1907SOL    HW2 7658   4.029   1.776   3.066
 1907SOL    HW3 7659   3.973   1.636   3.049
 1907SOL    MW4 7660   4.034   1.696   3.031
 1908SOL     OW 7661   4.007   1.933   3.120
 1908SOL    HW2 7662   4.093   1.969   3.099
 1908SOL    HW3 7663   3.945   1.987   3.069
 1908SOL    MW4 7664   4.010   1.945   3.110
 1909SOL     OW 7665   4.258   2.032   3.043
 1909SOL    HW2 7666   4.248   2.127   3.047
 1909SOL    HW3 7667   4.280   2.014   2.952
 1909SOL    MW4 7668   4.259   2.042   3.032
 1910SOL     OW 7669   4.249   2.311   3.124
 1910SOL    HW2 7670   4.168   2.353   3.094
 1910SOL    HW3 7671   4.319   2.359   3.078
 1910SOL    MW4 7672   4.248   2.323   3.114
 1911SOL     OW 7673   4.023   2.442   3.034
 1911SOL    HW2 7674   4.028   2.525   3.081
 1911SOL    HW3 7675   3.939   2.405   3.059
 1911SOL    MW4 7676   4.013   2.448   3.044
 1912SOL     OW 7677   4.015   2.701   3.133
 1912SOL    HW2 7678   4.002   2.718   3.226
 1912SOL    HW3 7679   3.943   2.746   3.090
 1912SOL    MW4 7680   4.004   2.709   3.140
 1913SOL     OW 7681   4.231   2.774   2.986
 1913SOL    HW2 7682   4.167   2.742   3.049
 1913SOL    HW3 7683   4.316   2.756   3.026
 1913SOL    MW4 7684   4.234   2.768   2.999
 1914SOL     OW 7685   4.244   3.037   3.110
 1914SOL    HW2 7686   4.169   3.085   3.077
 1914SOL    HW3 7687   4.226   2.946   3.088
 1914SOL    MW4 7688   4.232   3.032   3.103
 1915SOL     OW 7689   4.044   3.195   3.015
 1915SOL    HW2 7690   4.047   3.289   3.030
 1915SOL    HW3 7691   4.024   3.185   2.922
 1915SOL    MW4 7692   4.041   3.206   3.005
 1916SOL     OW 7693   4.035   3.454   3.084
 1916SOL    HW2 7694   4.029   3.444   3.179
 1916SOL    HW3 7695   3.955   3.500   3.059
 1916SOL    MW4 7696   4.024   3.459   3.093
 1917SOL     OW 7697   4.254   3.598   3.017
 1917SOL    HW2 7698   4.239   3.690   3.037
 1917SOL    HW3 7699   4.177   3.553   3.053
 1917SOL    MW4 7700   4.242   3.604   3.025
 1918SOL     OW 7701   4.276   3.850   3.145
 1918SOL    HW2 7702   4.206   3.896   3.100
 1918SOL    HW3 7703   4.357   3.891   3.114
 1918SOL    MW4 7704   4.277   3.861   3.135
 1919SOL     OW 7705   4.055   3.978   3.034
 1919SOL    HW2 7706   4.054   4.061   3.081
 1919SOL    HW3 7707   3.979   3.931   3.067
 1919SOL    MW4 7708   4.045   3.983   3.044
 1920SOL     OW 7709   4.033   4.231   3.129
 1920SOL    HW2 7710   4.022   4.238   3.224
 1920SOL    HW3 7711   4.116   4.273   3.111
 1920SOL    MW4 7712   4.042   4.237   3.139
 1921SOL     OW 7713   4.262   4.351   3.055
 1921SOL    HW2 7714   4.346   4.311   3.077
 1921SOL    HW3 7715   4.265   4.362   2.960
 1921SOL    MW4 7716   4.273   4.347   3.045
 1922SOL     OW 7717   0.233   4.607   3.358
 1922SOL    HW2 7718   0.310   4.655   3.389
 1922SOL    HW3 7719   0.218   4.540   3.424
 1922SOL    MW4 7720   0.241   4.605   3.371
 1923SOL     OW 7721   0.028   0.089   3.465
 1923SOL    HW2 7722   0.044   0.179   3.434
 1923SOL    HW3 7723   0.095   0.037   3.421
 1923SOL    MW4 7724   0.039   0.094   3.455
 1924SOL     OW 7725   0.004   0.370   3.405
 1924SOL    HW2 7726  -0.082   0.402   3.434
 1924SOL    HW3 7727   0.067   0.417   3.459
 1924SOL    MW4 7728   0.001   0.380   3.416
 1925SOL     OW 7729   0.231   0.500   3.512
 1925SOL    HW2 7730   0.307   0.455   3.475
 1925SOL    HW3 7731   0.228   0.584   3.465
 1925SOL    MW4 7732   0.240   0.506   3.501
 1926SOL     OW 7733   0.214   0.753   3.387
 1926SOL    HW2 7734   0.281   0.799   3.437
 1926SOL    HW3 7735   0.131   0.779   3.428
 1926SOL    MW4 7736   0.212   0.762   3.399
 1927SOL     OW 7737   4.469   0.877   3.494
 1927SOL    HW2 7738   4.469   0.887   3.589
 1927SOL    HW3 7739   4.449   0.965   3.461
 1927SOL    MW4 7740   4.467   0.890   3.502
 1928SOL     OW 7741   4.409   1.132   3.373
 1928SOL    HW2 7742   4.493   1.170   3.401
 1928SOL    HW3 7743   4.409   1.140   3.277
 1928SOL    MW4 7744   4.420   1.138   3.364
 1929SOL     OW 7745   0.165   1.236   3.449
 1929SOL    HW2 7746   0.248   1.189   3.442
 1929SOL    HW3 7747   0.185   1.325   3.422
 1929SOL    MW4 7748   0.178   1.242   3.444
 1930SOL     OW 7749   0.210   1.497   3.354
 1930SOL    HW2 7750   0.283   1.528   3.407
 1930SOL    HW3 7751   0.238   1.511   3.264
 1930SOL    MW4 7752   0.223   1.503   3.349
 1931SOL     OW 7753   0.033   1.634   3.503
 1931SOL    HW2 7754  -0.056   1.609   3.476
 1931SOL    HW3 7755   0.091   1.585   3.445
 1931SOL    MW4 7756   0.029   1.625   3.492
 1932SOL     OW 7757   4.465   1.909   3.435
 1932SOL    HW2 7758   4.469   1.823   3.477
 1932SOL    HW3 7759   4.497   1.893   3.346
 1932SOL    MW4 7760   4.470   1.896   3.429
 1933SOL     OW 7761   0.175   2.066   3.522
 1933SOL    HW2 7762   0.207   2.046   3.610
 1933SOL    HW3 7763   0.097   2.011   3.512
 1933SOL    MW4 7764   0.169   2.056   3.532
 1934SOL     OW 7765   0.229   2.302   3.361
 1934SOL    HW2 7766   0.152   2.353   3.388
 1934SOL    HW3 7767   0.214   2.215   3.397
 1934SOL    MW4 7768   0.217   2.297   3.369
 1935SOL     OW 7769   0.025   2.454   3.488
 1935SOL    HW2 7770   0.022   2.441   3.582
 1935SOL    HW3 7771  -0.047   2.401   3.454
 1935SOL    MW4 7772   0.015   2.445   3.496
 1936SOL     OW 7773   0.024   2.723   3.426
 1936SOL    HW2 7774   0.096   2.772   3.465
 1936SOL    HW3 7775   0.030   2.636   3.466
 1936SOL    MW4 7776   0.034   2.718   3.436
 1937SOL     OW 7777   0.242   2.851   3.504
 1937SOL    HW2 7778   0.315   2.821   3.448
 1937SOL    HW3 7779   0.237   2.945   3.488
 1937SOL    MW4 7780   0.251   2.859   3.494
 1938SOL     OW 7781   0.263   3.107   3.408
 1938SOL    HW2 7782   0.178   3.149   3.425
 1938SOL    HW3 7783   0.262   3.090   3.314
 1938SOL    MW4 7784   0.252   3.110   3.398
 1939SOL     OW 7785   0.016   3.204   3.471
 1939SOL    HW2 7786  -0.066   3.172   3.433
 1939SOL    HW3 7787   0.014   3.298   3.457
 1939SOL    MW4 7788   0.005   3.212   3.464
 1940SOL     OW 7789   0.030   3.491   3.395
 1940SOL    HW2 7790  -0.055   3.520   3.431
 1940SOL    HW3 7791   0.012   3.476   3.302
 1940SOL    MW4 7792   0.016   3.493   3.387
 1941SOL     OW 7793   0.246   3.617   3.515
 1941SOL    HW2 7794   0.226   3.629   3.608
 1941SOL    HW3 7795   0.171   3.569   3.480
 1941SOL    MW4 7796   0.233   3.612   3.523
 1942SOL     OW 7797   0.206   3.855   3.415
 1942SOL    HW2 7798   0.132   3.886   3.466
 1942SOL    HW3 7799   0.215   3.763   3.438
 1942SOL    MW4 7800   0.198   3.847   3.425
 1943SOL     OW 7801   4.466   3.982   3.531
 1943SOL    HW2 7802   4.467   3.972   3.626
 1943SOL    HW3 7803   4.463   4.077   3.517
 1943SOL    MW4 7804   4.466   3.993   3.542
 1944SOL     OW 7805   4.449   4.260   3.441
 1944SOL    HW2 7806   4.366   4.305   3.459
 1944SOL    HW3 7807   4.516   4.321   3.472
 1944SOL    MW4 7808   4.447   4.274   3.448
 1945SOL     OW 7809   0.204   4.396   3.541
 1945SOL    HW2 7810   0.211   4.389   3.636
 1945SOL    HW3 7811   0.278   4.347   3.507
 1945SOL    MW4 7812   0.215   4.389   3.549
 1946SOL     OW 7813   0.690   4.650   3.418
 1946SOL    HW2 7814   0.778   4.682   3.439
 1946SOL    HW3 7815   0.696   4.626   3.325
 1946SOL    MW4 7816   0.703   4.651   3.409
 1947SOL     OW 7817   0.432   0.090   3.472
 1947SOL    HW2 7818   0.423   0.089   3.567
 1947SOL    HW3 7819   0.524   0.069   3.456
 1947SOL    MW4 7820   0.443   0.087   3.483
 1948SOL     OW 7821   0.438   0.354   3.396
 1948SOL    HW2 7822   0.515   0.383   3.445
 1948SOL    HW3 7823   0.430   0.261   3.418
 1948SOL    MW4 7824   0.447   0.345   3.405
 1949SOL     OW 7825   0.646   0.503   3.528
 1949SOL    HW2 7826   0.665   0.512   3.622
 1949SOL    HW3 7827   0.723   0.458   3.493
 1949SOL    MW4 7828   0.659   0.498   3.536
 1950SOL     OW 7829   0.659   0.723   3.382
 1950SOL    HW2 7830   0.596   0.791   3.405
 1950SOL    HW3 7831   0.637   0.650   3.440
 1950SOL    MW4 7832   0.648   0.722   3.393
 1951SOL     OW 7833   0.446   0.898   3.481
 1951SOL    HW2 7834   0.445   0.899   3.576
 1951SOL    HW3 7835   0.433   0.990   3.456
 1951SOL    MW4 7836   0.444   0.911   3.490
 1952SOL     OW 7837   0.430   1.165   3.414
 1952SOL    HW2 7838   0.506   1.208   3.453
 1952SOL    HW3 7839   0.438   1.182   3.320
 1952SOL    MW4 7840   0.441   1.173   3.406
 1953SOL     OW 7841   0.667   1.296   3.506
 1953SOL    HW2 7842   0.742   1.260   3.459
 1953SOL    HW3 7843   0.669   1.390   3.485
 1953SOL    MW4 7844   0.677   1.304   3.497
 1954SOL     OW 7845   0.654   1.564   3.404
 1954SOL    HW2 7846   0.722   1.625   3.431
 1954SOL    HW3 7847   0.573   1.602   3.439
 1954SOL    MW4 7848   0.652   1.577   3.412
 1955SOL     OW 7849   0.408   1.667   3.488
 1955SOL    HW2 7850   0.419   1.661   3.583
 1955SOL    HW3 7851   0.402   1.761   3.471
 1955SOL    MW4 7852   0.408   1.678   3.498
 1956SOL     OW 7853   0.406   1.949   3.412
 1956SOL    HW2 7854   0.324   1.994   3.431
 1956SOL    HW3 7855   0.404   1.935   3.318
 1956SOL    MW4 7856   0.395   1.953   3.402
 1957SOL     OW 7857   0.664   2.051   3.478
 1957SOL    HW2 7858   0.668   2.014   3.566
 1957SOL    HW3 7859   0.578   2.023   3.445
 1957SOL    MW4 7860   0.653   2.042   3.485
 1958SOL     OW 7861   0.641   2.316   3.424
 1958SOL    HW2 7862   0.719   2.363   3.452
 1958SOL    HW3 7863   0.654   2.226   3.454
 1958SOL    MW4 7864   0.653   2.311   3.432
 1959SOL     OW 7865   0.423   2.458   3.501
 1959SOL    HW2 7866   0.503   2.408   3.484
 1959SOL    HW3 7867   0.354   2.406   3.460
 1959SOL    MW4 7868   0.425   2.445   3.493
 1960SOL     OW 7869   0.453   2.713   3.383
 1960SOL    HW2 7870   0.434   2.628   3.423
 1960SOL    HW3 7871   0.460   2.695   3.289
 1960SOL    MW4 7872   0.452   2.699   3.376
 1961SOL     OW 7873   0.663   2.832   3.515
 1961SOL    HW2 7874   0.738   2.791   3.472
 1961SOL    HW3 7875   0.587   2.788   3.476
 1961SOL    MW4 7876   0.663   2.821   3.504
 1962SOL     OW 7877   0.707   3.076   3.374
 1962SOL    HW2 7878   0.635   3.134   3.396
 1962SOL    HW3 7879   0.697   3.002   3.434
 1962SOL    MW4 7880   0.696   3.074   3.385
 1963SOL     OW 7881   0.502   3.246   3.484
 1963SOL    HW2 7882   0.523   3.217   3.573
 1963SOL    HW3 7883   0.418   3.203   3.465
 1963SOL    MW4 7884   0.493   3.236   3.493
 1964SOL     OW 7885   0.459   3.505   3.394
 1964SOL    HW2 7886   0.466   3.417   3.431
 1964SOL    HW3 7887   0.387   3.546   3.442
 1964SOL    MW4 7888   0.450   3.499   3.405
 1965SOL     OW 7889   0.695   3.619   3.510
 1965SOL    HW2 7890   0.775   3.567   3.497
 1965SOL    HW3 7891   0.630   3.578   3.454
 1965SOL    MW4 7892   0.697   3.607   3.501
 1966SOL     OW 7893   0.660   3.866   3.391
 1966SOL    HW2 7894   0.591   3.918   3.432
 1966SOL    HW3 7895   0.661   3.784   3.440
 1966SOL    MW4 7896   0.651   3.862   3.403
 1967SOL     OW 7897   0.437   3.985   3.481
 1967SOL    HW2 7898   0.424   4.077   3.456
 1967SOL    HW3 7899   0.361   3.940   3.444
 1967SOL    MW4 7900   0.425   3.991   3.473
 1968SOL     OW 7901   0.411   4.252   3.437
 1968SOL    HW2 7902   0.485   4.290   3.484
 1968SOL    HW3 7903   0.436   4.257   3.345
 1968SOL    MW4 7904   0.424   4.258   3.431
 1969SOL     OW 7905   0.629   4.404   3.530
 1969SOL    HW2 7906   0.697   4.346   3.495
 1969SOL    HW3 7907   0.651   4.490   3.494
 1969SOL    MW4 7908   0.641   4.407   3.520
 1970SOL     OW 7909   1.150   4.623   3.394
 1970SOL    HW2 7910   1.240   4.643   3.419
 1970SOL    HW3 7911   1.146   4.643   3.300
 1970SOL    MW4 7912   1.161   4.629   3.385
 1971SOL     OW 7913   0.942   0.102   3.475
 1971SOL    HW2 7914   0.936   0.099   3.570
 1971SOL    HW3 7915   1.025   0.060   3.454
 1971SOL    MW4 7916   0.952   0.096   3.484
 1972SOL     OW 7917   0.892   0.357   3.436
 1972SOL    HW2 7918   0.977   0.384   3.472
 1972SOL    HW3 7919   0.883   0.265   3.461
 1972SOL    MW4 7920   0.902   0.348   3.444
 1973SOL     OW 7921   1.146   0.462   3.524
 1973SOL    HW2 7922   1.132   0.480   3.617
 1973SOL    HW3 7923   1.142   0.548   3.483
 1973SOL    MW4 7924   1.144   0.476   3.531
 1974SOL     OW 7925   1.144   0.716   3.408
 1974SOL    HW2 7926   1.218   0.775   3.423
 1974SOL    HW3 7927   1.068   0.766   3.437
 1974SOL    MW4 7928   1.144   0.730   3.414
 1975SOL     OW 7929   0.880   0.866   3.488
 1975SOL    HW2 7930   0.875   0.953   3.450
 1975SOL    HW3 7931   0.807   0.818   3.448
 1975SOL    MW4 7932   0.870   0.871   3.477
 1976SOL     OW 7933   0.875   1.147   3.407
 1976SOL    HW2 7934   0.954   1.192   3.436
 1976SOL    HW3 7935   0.884   1.144   3.311
 1976SOL    MW4 7936   0.886   1.152   3.398
 1977SOL     OW 7937   1.103   1.267   3.477
 1977SOL    HW2 7938   1.136   1.256   3.567
 1977SOL    HW3 7939   1.106   1.361   3.462
 1977SOL    MW4 7940   1.108   1.278   3.487
 1978SOL     OW 7941   1.098   1.546   3.411
 1978SOL    HW2 7942   1.171   1.593   3.450
 1978SOL    HW3 7943   1.116   1.547   3.317
 1978SOL    MW4 7944   1.110   1.552   3.403
 1979SOL     OW 7945   0.878   1.697   3.492
 1979SOL    HW2 7946   0.874   1.782   3.448
 1979SOL    HW3 7947   0.950   1.651   3.449
 1979SOL    MW4 7948   0.887   1.702   3.481
 1980SOL     OW 7949   0.876   1.927   3.369
 1980SOL    HW2 7950   0.953   1.956   3.418
 1980SOL    HW3 7951   0.804   1.975   3.408
 1980SOL    MW4 7952   0.877   1.937   3.380
 1981SOL     OW 7953   1.105   2.035   3.510
 1981SOL    HW2 7954   1.184   1.990   3.482
 1981SOL    HW3 7955   1.107   2.119   3.464
 1981SOL    MW4 7956   1.116   2.040   3.500
 1982SOL     OW 7957   1.099   2.289   3.401
 1982SOL    HW2 7958   1.180   2.335   3.423
 1982SOL    HW3 7959   1.116   2.250   3.315
 1982SOL    MW4 7960   1.112   2.290   3.393
 1983SOL     OW 7961   0.869   2.450   3.503
 1983SOL    HW2 7962   0.856   2.428   3.596
 1983SOL    HW3 7963   0.938   2.390   3.474
 1983SOL    MW4 7964   0.876   2.439   3.512
 1984SOL     OW 7965   0.887   2.691   3.406
 1984SOL    HW2 7966   0.970   2.728   3.434
 1984SOL    HW3 7967   0.886   2.603   3.444
 1984SOL    MW4 7968   0.898   2.684   3.415
 1985SOL     OW 7969   1.103   2.835   3.529
 1985SOL    HW2 7970   1.110   2.844   3.624
 1985SOL    HW3 7971   1.176   2.778   3.504
 1985SOL    MW4 7972   1.114   2.828   3.538
 1986SOL     OW 7973   1.159   3.098   3.395
 1986SOL    HW2 7974   1.146   3.016   3.443
 1986SOL    HW3 7975   1.166   3.071   3.303
 1986SOL    MW4 7976   1.158   3.084   3.389
 1987SOL     OW 7977   0.927   3.216   3.494
 1987SOL    HW2 7978   1.001   3.176   3.448
 1987SOL    HW3 7979   0.850   3.168   3.463
 1987SOL    MW4 7980   0.927   3.204   3.484
 1988SOL     OW 7981   0.925   3.479   3.424
 1988SOL    HW2 7982   0.931   3.387   3.451
 1988SOL    HW3 7983   0.924   3.475   3.328
 1988SOL    MW4 7984   0.925   3.466   3.415
 1989SOL     OW 7985   1.149   3.634   3.507
 1989SOL    HW2 7986   1.159   3.638   3.602
 1989SOL    HW3 7987   1.076   3.574   3.493
 1989SOL    MW4 7988   1.141   3.626   3.517
 1990SOL     OW 7989   1.129   3.903   3.424
 1990SOL    HW2 7990   1.212   3.946   3.444
 1990SOL    HW3 7991   1.145   3.810   3.439
 1990SOL    MW4 7992   1.142   3.896   3.429
 1991SOL     OW 7993   0.884   3.993   3.524
 1991SOL    HW2 7994   0.965   3.948   3.499
 1991SOL    HW3 7995   0.815   3.941   3.483
 1991SOL    MW4 7996   0.885   3.980   3.515
 1992SOL     OW 7997   0.822   4.252   3.407
 1992SOL    HW2 7998   0.843   4.166   3.444
 1992SOL    HW3 7999   0.854   4.249   3.317
 1992SOL    MW4 8000   0.829   4.240   3.400
 1993SOL     OW 8001   1.086   4.357   3.416
 1993SOL    HW2 8002   1.000   4.338   3.379
 1993SOL    HW3 8003   1.104   4.448   3.391
 1993SOL    MW4 8004   1.077   4.367   3.408
 1994SOL     OW 8005   1.548   4.589   3.367
 1994SOL    HW2 8006   1.549   4.501   3.402
 1994SOL    HW3 8007   1.489   4.638   3.424
 1994SOL    MW4 8008   1.540   4.584   3.379
 1995SOL     OW 8009   1.385   0.069   3.511
 1995SOL    HW2 8010   1.373   0.085   3.604
 1995SOL    HW3 8011   1.381   0.156   3.471
 1995SOL    MW4 8012   1.383   0.083   3.518
 1996SOL     OW 8013   1.377   0.340   3.409
 1996SOL    HW2 8014   1.456   0.382   3.444
 1996SOL    HW3 8015   1.305   0.390   3.448
 1996SOL    MW4 8016   1.378   0.352   3.419
 1997SOL     OW 8017   1.596   0.528   3.475
 1997SOL    HW2 8018   1.610   0.522   3.569
 1997SOL    HW3 8019   1.672   0.483   3.437
 1997SOL    MW4 8020   1.608   0.521   3.482
 1998SOL     OW 8021   1.591   0.808   3.376
 1998SOL    HW2 8022   1.506   0.833   3.412
 1998SOL    HW3 8023   1.593   0.712   3.383
 1998SOL    MW4 8024   1.580   0.799   3.382
 1999SOL     OW 8025   1.350   0.876   3.479
 1999SOL    HW2 8026   1.339   0.873   3.574
 1999SOL    HW3 8027   1.331   0.967   3.455
 1999SOL    MW4 8028   1.346   0.887   3.488
 2000SOL     OW 8029   1.312   1.122   3.376
 2000SOL    HW2 8030   1.379   1.179   3.414
 2000SOL    HW3 8031   1.229   1.167   3.394
 2000SOL    MW4 8032   1.310   1.136   3.383
 2001SOL     OW 8033   1.527   1.284   3.486
 2001SOL    HW2 8034   1.536   1.291   3.581
 2001SOL    HW3 8035   1.601   1.230   3.458
 2001SOL    MW4 8036   1.538   1.278   3.495
 2002SOL     OW 8037   1.584   1.548   3.407
 2002SOL    HW2 8038   1.576   1.460   3.443
 2002SOL    HW3 8039   1.573   1.536   3.312
 2002SOL    MW4 8040   1.581   1.535   3.399
 2003SOL     OW 8041   1.336   1.690   3.469
 2003SOL    HW2 8042   1.345   1.683   3.564
 2003SOL    HW3 8043   1.413   1.646   3.434
 2003SOL    MW4 8044   1.347   1.684   3.477
 2004SOL     OW 8045   1.343   1.951   3.393
 2004SOL    HW2 8046   1.404   1.991   3.454
 2004SOL    HW3 8047   1.336   1.860   3.421
 2004SOL    MW4 8048   1.350   1.944   3.405
 2005SOL     OW 8049   1.563   2.050   3.535
 2005SOL    HW2 8050   1.634   2.004   3.490
 2005SOL    HW3 8051   1.561   2.137   3.493
 2005SOL    MW4 8052   1.572   2.056   3.523
 2006SOL     OW 8053   1.546   2.302   3.431
 2006SOL    HW2 8054   1.466   2.353   3.442
 2006SOL    HW3 8055   1.554   2.292   3.336
 2006SOL    MW4 8056   1.537   2.308   3.420
 2007SOL     OW 8057   1.319   2.443   3.497
 2007SOL    HW2 8058   1.333   2.447   3.591
 2007SOL    HW3 8059   1.323   2.535   3.469
 2007SOL    MW4 8060   1.322   2.456   3.505
 2008SOL     OW 8061   1.315   2.692   3.418
 2008SOL    HW2 8062   1.377   2.756   3.454
 2008SOL    HW3 8063   1.335   2.688   3.325
 2008SOL    MW4 8064   1.326   2.700   3.410
 2009SOL     OW 8065   1.540   2.846   3.497
 2009SOL    HW2 8066   1.620   2.803   3.468
 2009SOL    HW3 8067   1.548   2.936   3.465
 2009SOL    MW4 8068   1.551   2.852   3.489
 2010SOL     OW 8069   1.559   3.107   3.432
 2010SOL    HW2 8070   1.637   3.149   3.469
 2010SOL    HW3 8071   1.486   3.155   3.470
 2010SOL    MW4 8072   1.559   3.119   3.442
 2011SOL     OW 8073   1.354   3.262   3.509
 2011SOL    HW2 8074   1.350   3.271   3.604
 2011SOL    HW3 8075   1.282   3.203   3.488
 2011SOL    MW4 8076   1.344   3.255   3.519
 2012SOL     OW 8077   1.344   3.495   3.389
 2012SOL    HW2 8078   1.330   3.408   3.426
 2012SOL    HW3 8079   1.269   3.546   3.421
 2012SOL    MW4 8080   1.332   3.490   3.398
 2013SOL     OW 8081   1.591   3.568   3.491
 2013SOL    HW2 8082   1.577   3.584   3.584
 2013SOL    HW3 8083   1.507   3.533   3.460
 2013SOL    MW4 8084   1.578   3.566   3.499
 2014SOL     OW 8085   1.587   3.852   3.395
 2014SOL    HW2 8086   1.576   3.761   3.421
 2014SOL    HW3 8087   1.584   3.850   3.299
 2014SOL    MW4 8088   1.585   3.840   3.385
 2015SOL     OW 8089   1.395   4.023   3.518
 2015SOL    HW2 8090   1.384   4.108   3.475
 2015SOL    HW3 8091   1.463   3.979   3.469
 2015SOL    MW4 8092   1.402   4.029   3.506
 2016SOL     OW 8093   1.340   4.261   3.340
 2016SOL    HW2 8094   1.250   4.282   3.366
 2016SOL    HW3 8095   1.343   4.280   3.246
 2016SOL    MW4 8096   1.329   4.266   3.331
 2017SOL     OW 8097   1.536   4.344   3.484
 2017SOL    HW2 8098   1.616   4.302   3.453
 2017SOL    HW3 8099   1.467   4.306   3.429
 2017SOL    MW4 8100   1.537   4.333   3.472
 2018SOL     OW 8101   1.989   4.635   3.374
 2018SOL    HW2 8102   2.049   4.706   3.400
 2018SOL    HW3 8103   1.902   4.669   3.395
 2018SOL    MW4 8104   1.985   4.649   3.381
 2019SOL     OW 8105   1.754   0.103   3.446
 2019SOL    HW2 8106   1.761   0.105   3.542
 2019SOL    HW3 8107   1.681   0.043   3.429
 2019SOL    MW4 8108   1.745   0.095   3.457
 2020SOL     OW 8109   1.805   0.362   3.370
 2020SOL    HW2 8110   1.775   0.273   3.390
 2020SOL    HW3 8111   1.794   0.369   3.275
 2020SOL    MW4 8112   1.799   0.351   3.360
 2021SOL     OW 8113   2.041   0.492   3.471
 2021SOL    HW2 8114   2.027   0.581   3.438
 2021SOL    HW3 8115   1.968   0.441   3.434
 2021SOL    MW4 8116   2.030   0.497   3.462
 2022SOL     OW 8117   2.017   0.740   3.379
 2022SOL    HW2 8118   2.094   0.782   3.417
 2022SOL    HW3 8119   2.027   0.753   3.284
 2022SOL    MW4 8120   2.029   0.747   3.371
 2023SOL     OW 8121   1.837   0.916   3.471
 2023SOL    HW2 8122   1.913   0.863   3.444
 2023SOL    HW3 8123   1.761   0.864   3.444
 2023SOL    MW4 8124   1.837   0.902   3.463
 2024SOL     OW 8125   1.765   1.170   3.378
 2024SOL    HW2 8126   1.847   1.212   3.404
 2024SOL    HW3 8127   1.777   1.078   3.398
 2024SOL    MW4 8128   1.777   1.164   3.384
 2025SOL     OW 8129   1.996   1.283   3.479
 2025SOL    HW2 8130   2.013   1.275   3.572
 2025SOL    HW3 8131   2.016   1.374   3.458
 2025SOL    MW4 8132   2.001   1.294   3.488
 2026SOL     OW 8133   2.009   1.552   3.382
 2026SOL    HW2 8134   2.076   1.604   3.426
 2026SOL    HW3 8135   1.928   1.601   3.396
 2026SOL    MW4 8136   2.007   1.566   3.390
 2027SOL     OW 8137   1.797   1.691   3.498
 2027SOL    HW2 8138   1.779   1.783   3.479
 2027SOL    HW3 8139   1.721   1.644   3.463
 2027SOL    MW4 8140   1.785   1.697   3.491
 2028SOL     OW 8141   1.776   1.944   3.426
 2028SOL    HW2 8142   1.860   1.985   3.449
 2028SOL    HW3 8143   1.771   1.952   3.331
 2028SOL    MW4 8144   1.786   1.950   3.417
 2029SOL     OW 8145   1.994   2.060   3.517
 2029SOL    HW2 8146   2.075   2.017   3.490
 2029SOL    HW3 8147   1.999   2.147   3.478
 2029SOL    MW4 8148   2.005   2.066   3.508
 2030SOL     OW 8149   1.975   2.310   3.398
 2030SOL    HW2 8150   2.057   2.341   3.438
 2030SOL    HW3 8151   1.990   2.319   3.304
 2030SOL    MW4 8152   1.988   2.316   3.391
 2031SOL     OW 8153   1.769   2.467   3.499
 2031SOL    HW2 8154   1.847   2.413   3.485
 2031SOL    HW3 8155   1.696   2.409   3.477
 2031SOL    MW4 8156   1.770   2.452   3.494
 2032SOL     OW 8157   1.763   2.732   3.402
 2032SOL    HW2 8158   1.852   2.748   3.434
 2032SOL    HW3 8159   1.745   2.641   3.425
 2032SOL    MW4 8160   1.773   2.722   3.409
 2033SOL     OW 8161   2.020   2.796   3.496
 2033SOL    HW2 8162   2.033   2.789   3.590
 2033SOL    HW3 8163   2.045   2.886   3.475
 2033SOL    MW4 8164   2.025   2.807   3.506
 2034SOL     OW 8165   2.038   3.061   3.445
 2034SOL    HW2 8166   2.116   3.110   3.469
 2034SOL    HW3 8167   1.967   3.126   3.448
 2034SOL    MW4 8168   2.039   3.076   3.448
 2035SOL     OW 8169   1.809   3.215   3.483
 2035SOL    HW2 8170   1.805   3.222   3.578
 2035SOL    HW3 8171   1.830   3.304   3.453
 2035SOL    MW4 8172   1.812   3.228   3.491
 2036SOL     OW 8173   1.828   3.479   3.392
 2036SOL    HW2 8174   1.745   3.510   3.429
 2036SOL    HW3 8175   1.814   3.481   3.297
 2036SOL    MW4 8176   1.815   3.484   3.384
 2037SOL     OW 8177   2.045   3.615   3.511
 2037SOL    HW2 8178   2.122   3.579   3.467
 2037SOL    HW3 8179   1.972   3.560   3.480
 2037SOL    MW4 8180   2.045   3.603   3.501
 2038SOL     OW 8181   1.977   3.831   3.353
 2038SOL    HW2 8182   1.917   3.880   3.409
 2038SOL    HW3 8183   2.005   3.757   3.407
 2038SOL    MW4 8184   1.973   3.828   3.368
 2039SOL     OW 8185   1.797   4.010   3.491
 2039SOL    HW2 8186   1.787   4.029   3.584
 2039SOL    HW3 8187   1.722   3.955   3.469
 2039SOL    MW4 8188   1.786   4.005   3.500
 2040SOL     OW 8189   1.772   4.250   3.359
 2040SOL    HW2 8190   1.774   4.160   3.390
 2040SOL    HW3 8191   1.785   4.243   3.265
 2040SOL    MW4 8192   1.774   4.237   3.351
 2041SOL     OW 8193   2.002   4.372   3.439
 2041SOL    HW2 8194   1.927   4.325   3.404
 2041SOL    HW3 8195   1.989   4.462   3.412
 2041SOL    MW4 8196   1.990   4.377   3.431
 2042SOL     OW 8197   2.439   0.002   3.403
 2042SOL    HW2 8198   2.431  -0.091   3.426
 2042SOL    HW3 8199   2.441   0.003   3.308
 2042SOL    MW4 8200   2.438  -0.010   3.394
 2043SOL     OW 8201   2.178   0.141   3.449
 2043SOL    HW2 8202   2.197   0.230   3.420
 2043SOL    HW3 8203   2.262   0.095   3.442
 2043SOL    MW4 8204   2.191   0.147   3.445
 2044SOL     OW 8205   2.263   0.389   3.353
 2044SOL    HW2 8206   2.331   0.422   3.411
 2044SOL    HW3 8207   2.182   0.425   3.388
 2044SOL    MW4 8208   2.261   0.398   3.365
 2045SOL     OW 8209   2.489   0.505   3.493
 2045SOL    HW2 8210   2.560   0.455   3.452
 2045SOL    HW3 8211   2.464   0.570   3.428
 2045SOL    MW4 8212   2.495   0.507   3.479
 2046SOL     OW 8213   2.427   0.754   3.335
 2046SOL    HW2 8214   2.499   0.800   3.380
 2046SOL    HW3 8215   2.452   0.755   3.243
 2046SOL    MW4 8216   2.440   0.760   3.329
 2047SOL     OW 8217   2.232   0.895   3.494
 2047SOL    HW2 8218   2.215   0.977   3.448
 2047SOL    HW3 8219   2.313   0.862   3.457
 2047SOL    MW4 8220   2.240   0.902   3.483
 2048SOL     OW 8221   2.211   1.134   3.360
 2048SOL    HW2 8222   2.280   1.188   3.398
 2048SOL    HW3 8223   2.130   1.178   3.386
 2048SOL    MW4 8224   2.209   1.147   3.369
 2049SOL     OW 8225   2.426   1.277   3.442
 2049SOL    HW2 8226   2.443   1.269   3.537
 2049SOL    HW3 8227   2.504   1.238   3.402
 2049SOL    MW4 8228   2.439   1.271   3.449
 2050SOL     OW 8229   2.468   1.552   3.409
 2050SOL    HW2 8230   2.447   1.461   3.430
 2050SOL    HW3 8231   2.457   1.558   3.314
 2050SOL    MW4 8232   2.463   1.541   3.399
 2051SOL     OW 8233   2.232   1.691   3.481
 2051SOL    HW2 8234   2.235   1.700   3.576
 2051SOL    HW3 8235   2.314   1.646   3.458
 2051SOL    MW4 8236   2.243   1.686   3.490
 2052SOL     OW 8237   2.228   1.954   3.418
 2052SOL    HW2 8238   2.217   1.860   3.428
 2052SOL    HW3 8239   2.233   1.968   3.324
 2052SOL    MW4 8240   2.227   1.944   3.407
 2053SOL     OW 8241   2.466   2.087   3.528
 2053SOL    HW2 8242   2.475   2.105   3.622
 2053SOL    HW3 8243   2.394   2.025   3.522
 2053SOL    MW4 8244   2.457   2.081   3.540
 2054SOL     OW 8245   2.436   2.332   3.410
 2054SOL    HW2 8246   2.500   2.401   3.427
 2054SOL    HW3 8247   2.472   2.254   3.454
 2054SOL    MW4 8248   2.449   2.331   3.418
 2055SOL     OW 8249   2.198   2.424   3.518
 2055SOL    HW2 8250   2.196   2.515   3.491
 2055SOL    HW3 8251   2.281   2.391   3.482
 2055SOL    MW4 8252   2.209   2.431   3.509
 2056SOL     OW 8253   2.264   2.692   3.417
 2056SOL    HW2 8254   2.176   2.725   3.433
 2056SOL    HW3 8255   2.266   2.674   3.323
 2056SOL    MW4 8256   2.253   2.694   3.406
 2057SOL     OW 8257   2.484   2.795   3.554
 2057SOL    HW2 8258   2.480   2.882   3.514
 2057SOL    HW3 8259   2.417   2.745   3.508
 2057SOL    MW4 8260   2.475   2.800   3.542
 2058SOL     OW 8261   2.508   3.020   3.408
 2058SOL    HW2 8262   2.564   3.087   3.445
 2058SOL    HW3 8263   2.483   3.053   3.322
 2058SOL    MW4 8264   2.512   3.033   3.401
 2059SOL     OW 8265   2.286   3.192   3.478
 2059SOL    HW2 8266   2.279   3.198   3.574
 2059SOL    HW3 8267   2.354   3.126   3.464
 2059SOL    MW4 8268   2.294   3.184   3.489
 2060SOL     OW 8269   2.243   3.446   3.394
 2060SOL    HW2 8270   2.269   3.355   3.409
 2060SOL    HW3 8271   2.248   3.457   3.299
 2060SOL    MW4 8272   2.247   3.436   3.384
 2061SOL     OW 8273   2.444   3.592   3.526
 2061SOL    HW2 8274   2.455   3.676   3.481
 2061SOL    HW3 8275   2.367   3.552   3.485
 2061SOL    MW4 8276   2.435   3.598   3.515
 2062SOL     OW 8277   2.459   3.841   3.380
 2062SOL    HW2 8278   2.530   3.890   3.420
 2062SOL    HW3 8279   2.380   3.876   3.419
 2062SOL    MW4 8280   2.458   3.852   3.390
 2063SOL     OW 8281   2.209   3.956   3.445
 2063SOL    HW2 8282   2.231   4.045   3.416
 2063SOL    HW3 8283   2.128   3.935   3.400
 2063SOL    MW4 8284   2.202   3.965   3.435
 2064SOL     OW 8285   2.260   4.205   3.340
 2064SOL    HW2 8286   2.176   4.250   3.337
 2064SOL    HW3 8287   2.283   4.191   3.248
 2064SOL    MW4 8288   2.252   4.209   3.328
 2065SOL     OW 8289   2.440   4.401   3.452
 2065SOL    HW2 8290   2.418   4.385   3.544
 2065SOL    HW3 8291   2.386   4.339   3.403
 2065SOL    MW4 8292   2.430   4.391   3.458
 2066SOL     OW 8293   2.933   4.610   3.379
 2066SOL    HW2 8294   2.853   4.650   3.414
 2066SOL    HW3 8295   2.921   4.612   3.284
 2066SOL    MW4 8296   2.921   4.615   3.372
 2067SOL     OW 8297   2.698   0.083   3.462
 2067SOL    HW2 8298   2.691   0.177   3.444
 2067SOL    HW3 8299   2.615   0.047   3.431
 2067SOL    MW4 8300   2.686   0.090   3.455
 2068SOL     OW 8301   2.701   0.350   3.392
 2068SOL    HW2 8302   2.774   0.412   3.405
 2068SOL    HW3 8303   2.696   0.339   3.297
 2068SOL    MW4 8304   2.710   0.357   3.381
 2069SOL     OW 8305   2.909   0.502   3.457
 2069SOL    HW2 8306   2.914   0.498   3.552
 2069SOL    HW3 8307   2.883   0.593   3.438
 2069SOL    MW4 8308   2.906   0.514   3.467
 2070SOL     OW 8309   2.891   0.766   3.385
 2070SOL    HW2 8310   2.951   0.808   3.446
 2070SOL    HW3 8311   2.805   0.802   3.406
 2070SOL    MW4 8312   2.888   0.776   3.396
 2071SOL     OW 8313   2.640   0.893   3.465
 2071SOL    HW2 8314   2.664   0.897   3.558
 2071SOL    HW3 8315   2.647   0.984   3.435
 2071SOL    MW4 8316   2.644   0.906   3.473
 2072SOL     OW 8317   2.673   1.159   3.341
 2072SOL    HW2 8318   2.752   1.195   3.382
 2072SOL    HW3 8319   2.701   1.137   3.252
 2072SOL    MW4 8320   2.687   1.161   3.335
 2073SOL     OW 8321   2.903   1.277   3.480
 2073SOL    HW2 8322   2.908   1.252   3.572
 2073SOL    HW3 8323   2.963   1.217   3.435
 2073SOL    MW4 8324   2.912   1.266   3.486
 2074SOL     OW 8325   2.945   1.539   3.397
 2074SOL    HW2 8326   2.876   1.600   3.422
 2074SOL    HW3 8327   2.929   1.462   3.450
 2074SOL    MW4 8328   2.934   1.537   3.407
 2075SOL     OW 8329   2.705   1.676   3.514
 2075SOL    HW2 8330   2.674   1.765   3.494
 2075SOL    HW3 8331   2.637   1.619   3.478
 2075SOL    MW4 8332   2.692   1.680   3.507
 2076SOL     OW 8333   2.658   1.921   3.407
 2076SOL    HW2 8334   2.592   1.979   3.446
 2076SOL    HW3 8335   2.649   1.936   3.312
 2076SOL    MW4 8336   2.648   1.931   3.399
 2077SOL     OW 8337   2.891   2.061   3.494
 2077SOL    HW2 8338   2.870   2.071   3.587
 2077SOL    HW3 8339   2.810   2.027   3.455
 2077SOL    MW4 8340   2.877   2.058   3.501
 2078SOL     OW 8341   2.926   2.315   3.378
 2078SOL    HW2 8342   2.920   2.221   3.394
 2078SOL    HW3 8343   2.923   2.324   3.283
 2078SOL    MW4 8344   2.925   2.304   3.367
 2079SOL     OW 8345   2.698   2.435   3.436
 2079SOL    HW2 8346   2.701   2.439   3.531
 2079SOL    HW3 8347   2.781   2.392   3.411
 2079SOL    MW4 8348   2.710   2.430   3.445
 2080SOL     OW 8349   2.675   2.697   3.381
 2080SOL    HW2 8350   2.681   2.604   3.398
 2080SOL    HW3 8351   2.611   2.730   3.444
 2080SOL    MW4 8352   2.667   2.689   3.391
 2081SOL     OW 8353   2.894   2.837   3.471
 2081SOL    HW2 8354   2.897   2.839   3.567
 2081SOL    HW3 8355   2.824   2.776   3.451
 2081SOL    MW4 8356   2.885   2.830   3.481
 2082SOL     OW 8357   2.910   3.110   3.359
 2082SOL    HW2 8358   2.902   3.024   3.400
 2082SOL    HW3 8359   2.914   3.091   3.265
 2082SOL    MW4 8360   2.910   3.096   3.352
 2083SOL     OW 8361   2.681   3.222   3.494
 2083SOL    HW2 8362   2.697   3.229   3.588
 2083SOL    HW3 8363   2.761   3.184   3.459
 2083SOL    MW4 8364   2.693   3.218   3.502
 2084SOL     OW 8365   2.652   3.479   3.399
 2084SOL    HW2 8366   2.653   3.392   3.440
 2084SOL    HW3 8367   2.575   3.523   3.436
 2084SOL    MW4 8368   2.642   3.473   3.409
 2085SOL     OW 8369   2.870   3.620   3.465
 2085SOL    HW2 8370   2.855   3.707   3.427
 2085SOL    HW3 8371   2.799   3.567   3.430
 2085SOL    MW4 8372   2.859   3.625   3.455
 2086SOL     OW 8373   2.851   3.871   3.370
 2086SOL    HW2 8374   2.933   3.884   3.418
 2086SOL    HW3 8375   2.784   3.914   3.423
 2086SOL    MW4 8376   2.853   3.878   3.383
 2087SOL     OW 8377   2.662   4.007   3.501
 2087SOL    HW2 8378   2.661   4.022   3.595
 2087SOL    HW3 8379   2.659   4.095   3.463
 2087SOL    MW4 8380   2.661   4.021   3.508
 2088SOL     OW 8381   2.698   4.258   3.405
 2088SOL    HW2 8382   2.782   4.295   3.431
 2088SOL    HW3 8383   2.633   4.326   3.427
 2088SOL    MW4 8384   2.700   4.272   3.411
 2089SOL     OW 8385   2.945   4.362   3.491
 2089SOL    HW2 8386   2.924   4.374   3.584
 2089SOL    HW3 8387   2.926   4.447   3.451
 2089SOL    MW4 8388   2.940   4.375   3.498
 2090SOL     OW 8389   3.382   4.644   3.389
 2090SOL    HW2 8390   3.295   4.677   3.410
 2090SOL    HW3 8391   3.388   4.650   3.294
 2090SOL    MW4 8392   3.371   4.649   3.379
 2091SOL     OW 8393   3.148   0.086   3.477
 2091SOL    HW2 8394   3.134   0.176   3.446
 2091SOL    HW3 8395   3.080   0.035   3.433
 2091SOL    MW4 8396   3.137   0.091   3.467
 2092SOL     OW 8397   3.129   0.342   3.383
 2092SOL    HW2 8398   3.055   0.397   3.410
 2092SOL    HW3 8399   3.125   0.340   3.288
 2092SOL    MW4 8400   3.119   0.349   3.374
 2093SOL     OW 8401   3.369   0.474   3.460
 2093SOL    HW2 8402   3.372   0.465   3.555
 2093SOL    HW3 8403   3.286   0.433   3.435
 2093SOL    MW4 8404   3.359   0.468   3.469
 2094SOL     OW 8405   3.319   0.747   3.412
 2094SOL    HW2 8406   3.405   0.787   3.424
 2094SOL    HW3 8407   3.332   0.654   3.433
 2094SOL    MW4 8408   3.332   0.740   3.416
 2095SOL     OW 8409   3.100   0.891   3.534
 2095SOL    HW2 8410   3.101   0.979   3.496
 2095SOL    HW3 8411   3.172   0.845   3.490
 2095SOL    MW4 8412   3.109   0.896   3.523
 2096SOL     OW 8413   3.133   1.140   3.403
 2096SOL    HW2 8414   3.200   1.192   3.447
 2096SOL    HW3 8415   3.159   1.141   3.311
 2096SOL    MW4 8416   3.146   1.147   3.397
 2097SOL     OW 8417   3.340   1.274   3.509
 2097SOL    HW2 8418   3.419   1.235   3.472
 2097SOL    HW3 8419   3.326   1.354   3.458
 2097SOL    MW4 8420   3.349   1.280   3.498
 2098SOL     OW 8421   3.340   1.516   3.371
 2098SOL    HW2 8422   3.426   1.548   3.399
 2098SOL    HW3 8423   3.278   1.570   3.420
 2098SOL    MW4 8424   3.343   1.527   3.381
 2099SOL     OW 8425   3.158   1.667   3.519
 2099SOL    HW2 8426   3.151   1.759   3.496
 2099SOL    HW3 8427   3.079   1.627   3.483
 2099SOL    MW4 8428   3.147   1.674   3.511
 2100SOL     OW 8429   3.141   1.920   3.426
 2100SOL    HW2 8430   3.058   1.957   3.455
 2100SOL    HW3 8431   3.135   1.919   3.330
 2100SOL    MW4 8432   3.129   1.925   3.417
 2101SOL     OW 8433   3.355   2.063   3.525
 2101SOL    HW2 8434   3.346   2.145   3.476
 2101SOL    HW3 8435   3.279   2.011   3.500
 2101SOL    MW4 8436   3.344   2.067   3.515
 2102SOL     OW 8437   3.366   2.301   3.396
 2102SOL    HW2 8438   3.441   2.352   3.426
 2102SOL    HW3 8439   3.290   2.355   3.418
 2102SOL    MW4 8440   3.366   2.315   3.402
 2103SOL     OW 8441   3.152   2.472   3.484
 2103SOL    HW2 8442   3.151   2.565   3.461
 2103SOL    HW3 8443   3.063   2.442   3.464
 2103SOL    MW4 8444   3.140   2.480   3.478
 2104SOL     OW 8445   3.145   2.724   3.402
 2104SOL    HW2 8446   3.224   2.775   3.422
 2104SOL    HW3 8447   3.074   2.774   3.441
 2104SOL    MW4 8448   3.146   2.737   3.409
 2105SOL     OW 8449   3.371   2.836   3.518
 2105SOL    HW2 8450   3.446   2.802   3.470
 2105SOL    HW3 8451   3.353   2.921   3.478
 2105SOL    MW4 8452   3.379   2.843   3.507
 2106SOL     OW 8453   3.365   3.073   3.372
 2106SOL    HW2 8454   3.438   3.107   3.423
 2106SOL    HW3 8455   3.290   3.126   3.397
 2106SOL    MW4 8456   3.365   3.084   3.382
 2107SOL     OW 8457   3.151   3.238   3.493
 2107SOL    HW2 8458   3.153   3.332   3.477
 2107SOL    HW3 8459   3.060   3.213   3.477
 2107SOL    MW4 8460   3.139   3.247   3.489
 2108SOL     OW 8461   3.109   3.502   3.402
 2108SOL    HW2 8462   3.020   3.537   3.406
 2108SOL    HW3 8463   3.121   3.477   3.311
 2108SOL    MW4 8464   3.099   3.503   3.391
 2109SOL     OW 8465   3.344   3.641   3.479
 2109SOL    HW2 8466   3.334   3.728   3.439
 2109SOL    HW3 8467   3.259   3.599   3.469
 2109SOL    MW4 8468   3.332   3.647   3.472
 2110SOL     OW 8469   3.344   3.886   3.343
 2110SOL    HW2 8470   3.419   3.933   3.380
 2110SOL    HW3 8471   3.269   3.916   3.394
 2110SOL    MW4 8472   3.344   3.896   3.355
 2111SOL     OW 8473   3.100   3.950   3.476
 2111SOL    HW2 8474   3.091   3.951   3.572
 2111SOL    HW3 8475   3.080   4.040   3.449
 2111SOL    MW4 8476   3.096   3.962   3.485
 2112SOL     OW 8477   3.145   4.218   3.386
 2112SOL    HW2 8478   3.220   4.261   3.428
 2112SOL    HW3 8479   3.069   4.269   3.414
 2112SOL    MW4 8480   3.145   4.231   3.395
 2113SOL     OW 8481   3.360   4.390   3.477
 2113SOL    HW2 8482   3.365   4.400   3.572
 2113SOL    HW3 8483   3.366   4.479   3.443
 2113SOL    MW4 8484   3.362   4.403   3.485
 2114SOL     OW 8485   3.793   4.651   3.371
 2114SOL    HW2 8486   3.726   4.713   3.401
 2114SOL    HW3 8487   3.785   4.651   3.276
 2114SOL    MW4 8488   3.783   4.660   3.362
 2115SOL     OW 8489   3.590   0.127   3.494
 2115SOL    HW2 8490   3.585   0.209   3.444
 2115SOL    HW3 8491   3.524   0.070   3.453
 2115SOL    MW4 8492   3.581   0.130   3.482
 2116SOL     OW 8493   3.597   0.362   3.336
 2116SOL    HW2 8494   3.662   0.421   3.373
 2116SOL    HW3 8495   3.514   0.393   3.371
 2116SOL    MW4 8496   3.595   0.374   3.346
 2117SOL     OW 8497   3.833   0.491   3.441
 2117SOL    HW2 8498   3.823   0.484   3.536
 2117SOL    HW3 8499   3.905   0.432   3.419
 2117SOL    MW4 8500   3.841   0.482   3.450
 2118SOL     OW 8501   3.810   0.755   3.332
 2118SOL    HW2 8502   3.868   0.810   3.385
 2118SOL    HW3 8503   3.818   0.668   3.371
 2118SOL    MW4 8504   3.819   0.751   3.344
 2119SOL     OW 8505   3.559   0.874   3.437
 2119SOL    HW2 8506   3.572   0.877   3.532
 2119SOL    HW3 8507   3.622   0.809   3.406
 2119SOL    MW4 8508   3.569   0.866   3.445
 2120SOL     OW 8509   3.567   1.151   3.402
 2120SOL    HW2 8510   3.555   1.056   3.408
 2120SOL    HW3 8511   3.561   1.170   3.309
 2120SOL    MW4 8512   3.565   1.141   3.391
 2121SOL     OW 8513   3.785   1.320   3.511
 2121SOL    HW2 8514   3.799   1.317   3.606
 2121SOL    HW3 8515   3.710   1.262   3.497
 2121SOL    MW4 8516   3.777   1.312   3.522
 2122SOL     OW 8517   3.813   1.572   3.382
 2122SOL    HW2 8518   3.896   1.613   3.407
 2122SOL    HW3 8519   3.811   1.491   3.432
 2122SOL    MW4 8520   3.824   1.567   3.392
 2123SOL     OW 8521   3.563   1.656   3.460
 2123SOL    HW2 8522   3.547   1.748   3.437
 2123SOL    HW3 8523   3.651   1.638   3.425
 2123SOL    MW4 8524   3.573   1.666   3.452
 2124SOL     OW 8525   3.532   1.921   3.383
 2124SOL    HW2 8526   3.613   1.961   3.415
 2124SOL    HW3 8527   3.463   1.963   3.435
 2124SOL    MW4 8528   3.533   1.932   3.394
 2125SOL     OW 8529   3.767   2.054   3.466
 2125SOL    HW2 8530   3.759   2.064   3.561
 2125SOL    HW3 8531   3.848   2.005   3.454
 2125SOL    MW4 8532   3.777   2.049   3.477
 2126SOL     OW 8533   3.832   2.328   3.366
 2126SOL    HW2 8534   3.913   2.361   3.404
 2126SOL    HW3 8535   3.821   2.241   3.404
 2126SOL    MW4 8536   3.841   2.321   3.376
 2127SOL     OW 8537   3.594   2.426   3.479
 2127SOL    HW2 8538   3.607   2.521   3.471
 2127SOL    HW3 8539   3.673   2.388   3.440
 2127SOL    MW4 8540   3.606   2.434   3.473
 2128SOL     OW 8541   3.575   2.722   3.388
 2128SOL    HW2 8542   3.652   2.766   3.426
 2128SOL    HW3 8543   3.599   2.708   3.296
 2128SOL    MW4 8544   3.588   2.726   3.381
 2129SOL     OW 8545   3.809   2.846   3.487
 2129SOL    HW2 8546   3.808   2.843   3.583
 2129SOL    HW3 8547   3.795   2.938   3.466
 2129SOL    MW4 8548   3.807   2.858   3.497
 2130SOL     OW 8549   3.778   3.115   3.411
 2130SOL    HW2 8550   3.859   3.159   3.436
 2130SOL    HW3 8551   3.778   3.119   3.315
 2130SOL    MW4 8552   3.789   3.121   3.401
 2131SOL     OW 8553   3.558   3.206   3.528
 2131SOL    HW2 8554   3.537   3.288   3.483
 2131SOL    HW3 8555   3.637   3.175   3.484
 2131SOL    MW4 8556   3.566   3.213   3.516
 2132SOL     OW 8557   3.532   3.465   3.374
 2132SOL    HW2 8558   3.481   3.537   3.411
 2132SOL    HW3 8559   3.547   3.490   3.283
 2132SOL    MW4 8560   3.528   3.478   3.367
 2133SOL     OW 8561   3.789   3.575   3.431
 2133SOL    HW2 8562   3.789   3.568   3.527
 2133SOL    HW3 8563   3.708   3.533   3.404
 2133SOL    MW4 8564   3.779   3.569   3.440
 2134SOL     OW 8565   3.811   3.855   3.398
 2134SOL    HW2 8566   3.738   3.893   3.447
 2134SOL    HW3 8567   3.799   3.761   3.406
 2134SOL    MW4 8568   3.800   3.848   3.405
 2135SOL     OW 8569   3.574   3.996   3.475
 2135SOL    HW2 8570   3.583   3.991   3.570
 2135SOL    HW3 8571   3.595   4.088   3.454
 2135SOL    MW4 8572   3.578   4.008   3.484
 2136SOL     OW 8573   3.585   4.265   3.349
 2136SOL    HW2 8574   3.496   4.300   3.357
 2136SOL    HW3 8575   3.600   4.261   3.254
 2136SOL    MW4 8576   3.575   4.269   3.337
 2137SOL     OW 8577   3.797   4.387   3.498
 2137SOL    HW2 8578   3.710   4.361   3.468
 2137SOL    HW3 8579   3.807   4.476   3.464
 2137SOL    MW4 8580   3.787   4.396   3.490
 2138SOL     OW 8581   4.273   4.623   3.377
 2138SOL    HW2 8582   4.261   4.538   3.418
 2138SOL    HW3 8583   4.331   4.670   3.436
 2138SOL    MW4 8584   4.279   4.618   3.390
 2139SOL     OW 8585   4.047   0.061   3.490
 2139SOL    HW2 8586   4.118   0.016   3.444
 2139SOL    HW3 8587   3.967   0.023   3.454
 2139SOL    MW4 8588   4.046   0.050   3.479
 2140SOL     OW 8589   4.083   0.345   3.378
 2140SOL    HW2 8590   4.071   0.252   3.397
 2140SOL    HW3 8591   4.073   0.352   3.283
 2140SOL    MW4 8592   4.080   0.334   3.368
 2141SOL     OW 8593   4.271   0.503   3.508
 2141SOL    HW2 8594   4.261   0.586   3.461
 2141SOL    HW3 8595   4.198   0.450   3.478
 2141SOL    MW4 8596   4.260   0.507   3.498
 2142SOL     OW 8597   4.234   0.758   3.384
 2142SOL    HW2 8598   4.310   0.792   3.432
 2142SOL    HW3 8599   4.251   0.783   3.293
 2142SOL    MW4 8600   4.247   0.766   3.378
 2143SOL     OW 8601   4.025   0.911   3.481
 2143SOL    HW2 8602   4.014   0.998   3.443
 2143SOL    HW3 8603   4.110   0.882   3.450
 2143SOL    MW4 8604   4.035   0.919   3.472
 2144SOL     OW 8605   3.996   1.180   3.388
 2144SOL    HW2 8606   4.078   1.212   3.428
 2144SOL    HW3 8607   3.927   1.218   3.442
 2144SOL    MW4 8608   3.998   1.190   3.401
 2145SOL     OW 8609   4.227   1.296   3.502
 2145SOL    HW2 8610   4.242   1.385   3.471
 2145SOL    HW3 8611   4.291   1.243   3.455
 2145SOL    MW4 8612   4.237   1.301   3.492
 2146SOL     OW 8613   4.296   1.573   3.381
 2146SOL    HW2 8614   4.212   1.614   3.403
 2146SOL    HW3 8615   4.286   1.546   3.290
 2146SOL    MW4 8616   4.284   1.575   3.372
 2147SOL     OW 8617   4.054   1.677   3.461
 2147SOL    HW2 8618   4.031   1.675   3.554
 2147SOL    HW3 8619   4.051   1.770   3.437
 2147SOL    MW4 8620   4.051   1.689   3.470
 2148SOL     OW 8621   4.011   1.950   3.393
 2148SOL    HW2 8622   4.099   1.984   3.409
 2148SOL    HW3 8623   4.001   1.955   3.298
 2148SOL    MW4 8624   4.021   1.955   3.382
 2149SOL     OW 8625   4.247   2.062   3.478
 2149SOL    HW2 8626   4.253   2.149   3.440
 2149SOL    HW3 8627   4.331   2.021   3.459
 2149SOL    MW4 8628   4.259   2.068   3.471
 2150SOL     OW 8629   4.287   2.335   3.391
 2150SOL    HW2 8630   4.206   2.374   3.422
 2150SOL    HW3 8631   4.276   2.328   3.296
 2150SOL    MW4 8632   4.275   2.339   3.383
 2151SOL     OW 8633   4.048   2.448   3.472
 2151SOL    HW2 8634   4.055   2.462   3.567
 2151SOL    HW3 8635   4.051   2.536   3.435
 2151SOL    MW4 8636   4.049   2.462   3.480
 2152SOL     OW 8637   4.030   2.709   3.402
 2152SOL    HW2 8638   4.110   2.759   3.419
 2152SOL    HW3 8639   3.960   2.761   3.440
 2152SOL    MW4 8640   4.031   2.723   3.409
 2153SOL     OW 8641   4.262   2.840   3.484
 2153SOL    HW2 8642   4.259   2.855   3.578
 2153SOL    HW3 8643   4.347   2.799   3.469
 2153SOL    MW4 8644   4.273   2.837   3.494
 2154SOL     OW 8645   4.256   3.096   3.389
 2154SOL    HW2 8646   4.263   3.005   3.419
 2154SOL    HW3 8647   4.249   3.089   3.294
 2154SOL    MW4 8648   4.256   3.083   3.381
 2155SOL     OW 8649   4.025   3.216   3.480
 2155SOL    HW2 8650   4.025   3.301   3.437
 2155SOL    HW3 8651   4.106   3.174   3.450
 2155SOL    MW4 8652   4.036   3.222   3.470
 2156SOL     OW 8653   4.023   3.458   3.353
 2156SOL    HW2 8654   4.097   3.496   3.401
 2156SOL    HW3 8655   3.948   3.509   3.383
 2156SOL    MW4 8656   4.023   3.470   3.363
 2157SOL     OW 8657   4.257   3.560   3.479
 2157SOL    HW2 8658   4.251   3.550   3.574
 2157SOL    HW3 8659   4.256   3.655   3.465
 2157SOL    MW4 8660   4.256   3.571   3.490
 2158SOL     OW 8661   4.240   3.836   3.425
 2158SOL    HW2 8662   4.306   3.899   3.452
 2158SOL    HW3 8663   4.245   3.835   3.329
 2158SOL    MW4 8664   4.249   3.844   3.416
 2159SOL     OW 8665   4.029   3.983   3.506
 2159SOL    HW2 8666   4.111   3.939   3.482
 2159SOL    HW3 8667   3.962   3.939   3.455
 2159SOL    MW4 8668   4.031   3.972   3.496
 2160SOL     OW 8669   3.997   4.231   3.398
 2160SOL    HW2 8670   3.998   4.143   3.437
 2160SOL    HW3 8671   3.927   4.277   3.443
 2160SOL    MW4 8672   3.988   4.225   3.409
 2161SOL     OW 8673   4.228   4.383   3.487
 2161SOL    HW2 8674   4.228   4.389   3.583
 2161SOL    HW3 8675   4.152   4.328   3.467
 2161SOL    MW4 8676   4.218   4.376   3.497
 2162SOL     OW 8677   0.228   4.656   3.892
 2162SOL    HW2 8678   0.222   4.681   3.985
 2162SOL    HW3 8679   0.146   4.686   3.854
 2162SOL    MW4 8680   0.217   4.663   3.900
 2163SOL     OW 8681   0.033   0.087   3.737
 2163SOL    HW2 8682   0.039   0.180   3.758
 2163SOL    HW3 8683   0.026   0.084   3.642
 2163SOL    MW4 8684   0.033   0.099   3.727
 2164SOL     OW 8685   0.001   0.330   3.839
 2164SOL    HW2 8686  -0.062   0.383   3.790
 2164SOL    HW3 8687   0.085   0.375   3.828
 2164SOL    MW4 8688   0.004   0.343   3.831
 2165SOL     OW 8689   0.216   0.497   3.790
 2165SOL    HW2 8690   0.223   0.590   3.812
 2165SOL    HW3 8691   0.229   0.494   3.696
 2165SOL    MW4 8692   0.218   0.509   3.781
 2166SOL     OW 8693   0.209   0.766   3.862
 2166SOL    HW2 8694   0.205   0.778   3.957
 2166SOL    HW3 8695   0.140   0.824   3.828
 2166SOL    MW4 8696   0.199   0.775   3.870
 2167SOL     OW 8697   4.469   0.929   3.771
 2167SOL    HW2 8698   4.394   0.887   3.811
 2167SOL    HW3 8699   4.465   1.020   3.801
 2167SOL    MW4 8700   4.459   0.935   3.780
 2168SOL     OW 8701   4.480   1.202   3.866
 2168SOL    HW2 8702   4.404   1.247   3.831
 2168SOL    HW3 8703   4.554   1.234   3.813
 2168SOL    MW4 8704   4.480   1.212   3.854
 2169SOL     OW 8705   0.238   1.271   3.707
 2169SOL    HW2 8706   0.218   1.357   3.744
 2169SOL    HW3 8707   0.198   1.272   3.620
 2169SOL    MW4 8708   0.230   1.282   3.701
 2170SOL     OW 8709   0.181   1.499   3.853
 2170SOL    HW2 8710   0.217   1.517   3.940
 2170SOL    HW3 8711   0.094   1.538   3.855
 2170SOL    MW4 8712   0.174   1.507   3.865
 2171SOL     OW 8713   4.456   1.657   3.779
 2171SOL    HW2 8714   4.464   1.751   3.797
 2171SOL    HW3 8715   4.483   1.647   3.688
 2171SOL    MW4 8716   4.460   1.668   3.769
 2172SOL     OW 8717   4.475   1.909   3.869
 2172SOL    HW2 8718   4.478   1.924   3.964
 2172SOL    HW3 8719   4.388   1.941   3.843
 2172SOL    MW4 8720   4.464   1.915   3.878
 2173SOL     OW 8721   0.235   2.028   3.790
 2173SOL    HW2 8722   0.232   2.120   3.819
 2173SOL    HW3 8723   0.155   1.990   3.827
 2173SOL    MW4 8724   0.224   2.035   3.798
 2174SOL     OW 8725   0.226   2.303   3.879
 2174SOL    HW2 8726   0.223   2.325   3.972
 2174SOL    HW3 8727   0.156   2.355   3.839
 2174SOL    MW4 8728   0.217   2.313   3.886
 2175SOL     OW 8729   0.002   2.437   3.776
 2175SOL    HW2 8730  -0.084   2.397   3.790
 2175SOL    HW3 8731  -0.003   2.520   3.824
 2175SOL    MW4 8732  -0.010   2.443   3.784
 2176SOL     OW 8733   4.467   2.728   3.838
 2176SOL    HW2 8734   4.462   2.742   3.933
 2176SOL    HW3 8735   4.552   2.766   3.813
 2176SOL    MW4 8736   4.478   2.735   3.847
 2177SOL     OW 8737   0.229   2.865   3.804
 2177SOL    HW2 8738   0.296   2.807   3.839
 2177SOL    HW3 8739   0.248   2.871   3.710
 2177SOL    MW4 8740   0.240   2.858   3.796
 2178SOL     OW 8741   0.280   3.101   3.915
 2178SOL    HW2 8742   0.261   3.103   4.008
 2178SOL    HW3 8743   0.266   3.010   3.890
 2178SOL    MW4 8744   0.275   3.089   3.924
 2179SOL     OW 8745   0.060   3.214   3.775
 2179SOL    HW2 8746   0.128   3.172   3.828
 2179SOL    HW3 8747   0.083   3.193   3.685
 2179SOL    MW4 8748   0.072   3.206   3.770
 2180SOL     OW 8749   0.003   3.479   3.855
 2180SOL    HW2 8750   0.075   3.529   3.817
 2180SOL    HW3 8751   0.025   3.387   3.837
 2180SOL    MW4 8752   0.016   3.473   3.847
 2181SOL     OW 8753   0.225   3.630   3.797
 2181SOL    HW2 8754   0.305   3.582   3.819
 2181SOL    HW3 8755   0.236   3.715   3.840
 2181SOL    MW4 8756   0.237   3.635   3.806
 2182SOL     OW 8757   0.210   3.876   3.910
 2182SOL    HW2 8758   0.222   3.877   4.005
 2182SOL    HW3 8759   0.279   3.933   3.877
 2182SOL    MW4 8760   0.221   3.884   3.919
 2183SOL     OW 8761   4.469   3.980   3.814
 2183SOL    HW2 8762   4.401   3.912   3.810
 2183SOL    HW3 8763   4.546   3.935   3.850
 2183SOL    MW4 8764   4.470   3.965   3.818
 2184SOL     OW 8765   4.444   4.245   3.887
 2184SOL    HW2 8766   4.531   4.277   3.861
 2184SOL    HW3 8767   4.443   4.153   3.862
 2184SOL    MW4 8768   4.456   4.237   3.880
 2185SOL     OW 8769   0.200   4.370   3.808
 2185SOL    HW2 8770   0.275   4.328   3.849
 2185SOL    HW3 8771   0.195   4.456   3.850
 2185SOL    MW4 8772   0.209   4.376   3.819
 2186SOL     OW 8773   0.667   4.652   3.846
 2186SOL    HW2 8774   0.651   4.558   3.841
 2186SOL    HW3 8775   0.592   4.691   3.801
 2186SOL    MW4 8776   0.655   4.645   3.839
 2187SOL     OW 8777   0.441   0.078   3.745
 2187SOL    HW2 8778   0.437   0.170   3.772
 2187SOL    HW3 8779   0.365   0.038   3.787
 2187SOL    MW4 8780   0.430   0.085   3.754
 2188SOL     OW 8781   0.468   0.355   3.842
 2188SOL    HW2 8782   0.544   0.410   3.822
 2188SOL    HW3 8783   0.393   0.407   3.813
 2188SOL    MW4 8784   0.468   0.369   3.835
 2189SOL     OW 8785   0.695   0.527   3.790
 2189SOL    HW2 8786   0.775   0.490   3.825
 2189SOL    HW3 8787   0.689   0.614   3.827
 2189SOL    MW4 8788   0.705   0.533   3.799
 2190SOL     OW 8789   0.671   0.781   3.893
 2190SOL    HW2 8790   0.735   0.837   3.850
 2190SOL    HW3 8791   0.587   0.805   3.854
 2190SOL    MW4 8792   0.668   0.791   3.882
 2191SOL     OW 8793   0.443   0.878   3.757
 2191SOL    HW2 8794   0.440   0.968   3.790
 2191SOL    HW3 8795   0.371   0.833   3.802
 2191SOL    MW4 8796   0.433   0.884   3.767
 2192SOL     OW 8797   0.452   1.139   3.875
 2192SOL    HW2 8798   0.538   1.159   3.838
 2192SOL    HW3 8799   0.392   1.198   3.830
 2192SOL    MW4 8800   0.456   1.149   3.864
 2193SOL     OW 8801   0.683   1.247   3.793
 2193SOL    HW2 8802   0.776   1.251   3.813
 2193SOL    HW3 8803   0.678   1.260   3.698
 2193SOL    MW4 8804   0.694   1.250   3.783
 2194SOL     OW 8805   0.617   1.498   3.891
 2194SOL    HW2 8806   0.682   1.536   3.831
 2194SOL    HW3 8807   0.626   1.404   3.878
 2194SOL    MW4 8808   0.627   1.491   3.881
 2195SOL     OW 8809   0.406   1.657   3.760
 2195SOL    HW2 8810   0.468   1.597   3.802
 2195SOL    HW3 8811   0.320   1.620   3.781
 2195SOL    MW4 8812   0.403   1.644   3.768
 2196SOL     OW 8813   0.440   1.892   3.891
 2196SOL    HW2 8814   0.425   1.801   3.865
 2196SOL    HW3 8815   0.367   1.941   3.852
 2196SOL    MW4 8816   0.428   1.886   3.882
 2197SOL     OW 8817   0.658   1.981   3.747
 2197SOL    HW2 8818   0.670   2.070   3.781
 2197SOL    HW3 8819   0.583   1.947   3.794
 2197SOL    MW4 8820   0.650   1.988   3.757
 2198SOL     OW 8821   0.653   2.238   3.830
 2198SOL    HW2 8822   0.731   2.287   3.804
 2198SOL    HW3 8823   0.580   2.297   3.812
 2198SOL    MW4 8824   0.654   2.252   3.824
 2199SOL     OW 8825   0.449   2.431   3.779
 2199SOL    HW2 8826   0.378   2.372   3.804
 2199SOL    HW3 8827   0.437   2.445   3.685
 2199SOL    MW4 8828   0.438   2.425   3.770
 2200SOL     OW 8829   0.436   2.704   3.899
 2200SOL    HW2 8830   0.510   2.759   3.872
 2200SOL    HW3 8831   0.443   2.626   3.845
 2200SOL    MW4 8832   0.447   2.701   3.889
 2201SOL     OW 8833   0.667   2.842   3.799
 2201SOL    HW2 8834   0.732   2.775   3.818
 2201SOL    HW3 8835   0.665   2.846   3.703
 2201SOL    MW4 8836   0.676   2.834   3.789
 2202SOL     OW 8837   0.716   3.103   3.863
 2202SOL    HW2 8838   0.695   3.112   3.956
 2202SOL    HW3 8839   0.701   3.010   3.844
 2202SOL    MW4 8840   0.711   3.092   3.873
 2203SOL     OW 8841   0.486   3.239   3.773
 2203SOL    HW2 8842   0.562   3.192   3.805
 2203SOL    HW3 8843   0.412   3.202   3.822
 2203SOL    MW4 8844   0.486   3.228   3.784
 2204SOL     OW 8845   0.493   3.478   3.900
 2204SOL    HW2 8846   0.569   3.527   3.868
 2204SOL    HW3 8847   0.502   3.391   3.862
 2204SOL    MW4 8848   0.505   3.473   3.891
 2205SOL     OW 8849   0.697   3.629   3.792
 2205SOL    HW2 8850   0.708   3.724   3.802
 2205SOL    HW3 8851   0.670   3.617   3.701
 2205SOL    MW4 8852   0.695   3.640   3.781
 2206SOL     OW 8853   0.699   3.889   3.855
 2206SOL    HW2 8854   0.692   3.901   3.950
 2206SOL    HW3 8855   0.777   3.937   3.829
 2206SOL    MW4 8856   0.708   3.897   3.864
 2207SOL     OW 8857   0.442   3.989   3.766
 2207SOL    HW2 8858   0.529   3.959   3.792
 2207SOL    HW3 8859   0.436   3.970   3.673
 2207SOL    MW4 8860   0.453   3.983   3.757
 2208SOL     OW 8861   0.420   4.242   3.913
 2208SOL    HW2 8862   0.492   4.302   3.896
 2208SOL    HW3 8863   0.442   4.162   3.866
 2208SOL    MW4 8864   0.432   4.239   3.905
 2209SOL     OW 8865   0.633   4.387   3.816
 2209SOL    HW2 8866   0.724   4.374   3.841
 2209SOL    HW3 8867   0.635   4.395   3.720
 2209SOL    MW4 8868   0.645   4.387   3.807
 2210SOL     OW 8869   1.074   4.643   3.849
 2210SOL    HW2 8870   1.153   4.691   3.827
 2210SOL    HW3 8871   1.077   4.565   3.793
 2210SOL    MW4 8872   1.085   4.639   3.839
 2211SOL     OW 8873   0.877   0.126   3.745
 2211SOL    HW2 8874   0.941   0.074   3.793
 2211SOL    HW3 8875   0.793   0.085   3.763
 2211SOL    MW4 8876   0.874   0.114   3.754
 2212SOL     OW 8877   0.915   0.371   3.879
 2212SOL    HW2 8878   0.921   0.345   3.971
 2212SOL    HW3 8879   0.886   0.292   3.834
 2212SOL    MW4 8880   0.912   0.357   3.885
 2213SOL     OW 8881   1.135   0.508   3.794
 2213SOL    HW2 8882   1.214   0.462   3.825
 2213SOL    HW3 8883   1.063   0.466   3.841
 2213SOL    MW4 8884   1.136   0.496   3.804
 2214SOL     OW 8885   1.074   0.782   3.874
 2214SOL    HW2 8886   1.084   0.773   3.969
 2214SOL    HW3 8887   1.083   0.693   3.840
 2214SOL    MW4 8888   1.077   0.769   3.882
 2215SOL     OW 8889   0.858   0.935   3.779
 2215SOL    HW2 8890   0.939   0.891   3.804
 2215SOL    HW3 8891   0.854   0.928   3.684
 2215SOL    MW4 8892   0.868   0.928   3.770
 2216SOL     OW 8893   0.925   1.185   3.881
 2216SOL    HW2 8894   0.927   1.174   3.976
 2216SOL    HW3 8895   0.903   1.098   3.848
 2216SOL    MW4 8896   0.922   1.172   3.889
 2217SOL     OW 8897   1.149   1.264   3.763
 2217SOL    HW2 8898   1.139   1.359   3.773
 2217SOL    HW3 8899   1.074   1.227   3.809
 2217SOL    MW4 8900   1.138   1.272   3.771
 2218SOL     OW 8901   1.090   1.526   3.819
 2218SOL    HW2 8902   1.082   1.523   3.915
 2218SOL    HW3 8903   1.165   1.582   3.802
 2218SOL    MW4 8904   1.099   1.533   3.830
 2219SOL     OW 8905   0.823   1.611   3.744
 2219SOL    HW2 8906   0.913   1.589   3.767
 2219SOL    HW3 8907   0.829   1.652   3.658
 2219SOL    MW4 8908   0.836   1.613   3.736
 2220SOL     OW 8909   0.880   1.873   3.875
 2220SOL    HW2 8910   0.851   1.783   3.860
 2220SOL    HW3 8911   0.809   1.927   3.841
 2220SOL    MW4 8912   0.867   1.868   3.868
 2221SOL     OW 8913   1.125   2.016   3.794
 2221SOL    HW2 8914   1.048   1.964   3.818
 2221SOL    HW3 8915   1.121   2.022   3.699
 2221SOL    MW4 8916   1.114   2.010   3.785
 2222SOL     OW 8917   1.122   2.283   3.866
 2222SOL    HW2 8918   1.106   2.299   3.959
 2222SOL    HW3 8919   1.116   2.188   3.857
 2222SOL    MW4 8920   1.119   2.273   3.878
 2223SOL     OW 8921   0.875   2.384   3.770
 2223SOL    HW2 8922   0.873   2.477   3.793
 2223SOL    HW3 8923   0.965   2.357   3.789
 2223SOL    MW4 8924   0.887   2.393   3.776
 2224SOL     OW 8925   0.890   2.661   3.833
 2224SOL    HW2 8926   0.897   2.689   3.925
 2224SOL    HW3 8927   0.964   2.703   3.790
 2224SOL    MW4 8928   0.901   2.670   3.839
 2225SOL     OW 8929   1.130   2.791   3.803
 2225SOL    HW2 8930   1.187   2.730   3.849
 2225SOL    HW3 8931   1.145   2.875   3.846
 2225SOL    MW4 8932   1.139   2.794   3.815
 2226SOL     OW 8933   1.173   3.075   3.880
 2226SOL    HW2 8934   1.253   3.121   3.854
 2226SOL    HW3 8935   1.104   3.115   3.827
 2226SOL    MW4 8936   1.175   3.086   3.869
 2227SOL     OW 8937   0.945   3.222   3.769
 2227SOL    HW2 8938   0.865   3.177   3.796
 2227SOL    HW3 8939   0.945   3.216   3.673
 2227SOL    MW4 8940   0.935   3.215   3.760
 2228SOL     OW 8941   0.925   3.479   3.875
 2228SOL    HW2 8942   0.944   3.393   3.837
 2228SOL    HW3 8943   0.842   3.505   3.835
 2228SOL    MW4 8944   0.917   3.471   3.865
 2229SOL     OW 8945   1.146   3.613   3.780
 2229SOL    HW2 8946   1.137   3.695   3.828
 2229SOL    HW3 8947   1.075   3.558   3.813
 2229SOL    MW4 8948   1.135   3.617   3.791
 2230SOL     OW 8949   1.125   3.853   3.913
 2230SOL    HW2 8950   1.146   3.846   4.006
 2230SOL    HW3 8951   1.199   3.901   3.875
 2230SOL    MW4 8952   1.137   3.859   3.920
 2231SOL     OW 8953   0.920   4.049   3.780
 2231SOL    HW2 8954   0.989   3.997   3.821
 2231SOL    HW3 8955   0.935   4.037   3.686
 2231SOL    MW4 8956   0.931   4.041   3.773
 2232SOL     OW 8957   0.891   4.317   3.869
 2232SOL    HW2 8958   0.928   4.328   3.957
 2232SOL    HW3 8959   0.896   4.222   3.853
 2232SOL    MW4 8960   0.896   4.306   3.879
 2233SOL     OW 8961   1.103   4.400   3.710
 2233SOL    HW2 8962   1.021   4.377   3.754
 2233SOL    HW3 8963   1.086   4.383   3.618
 2233SOL    MW4 8964   1.090   4.395   3.704
 2234SOL     OW 8965   1.579   0.028   3.840
 2234SOL    HW2 8966   1.579   0.047   3.933
 2234SOL    HW3 8967   1.577  -0.067   3.835
 2234SOL    MW4 8968   1.579   0.018   3.851
 2235SOL     OW 8969   1.324   0.125   3.780
 2235SOL    HW2 8970   1.329   0.218   3.802
 2235SOL    HW3 8971   1.408   0.089   3.808
 2235SOL    MW4 8972   1.336   0.132   3.786
 2236SOL     OW 8973   1.381   0.386   3.860
 2236SOL    HW2 8974   1.384   0.379   3.956
 2236SOL    HW3 8975   1.464   0.429   3.837
 2236SOL    MW4 8976   1.393   0.391   3.870
 2237SOL     OW 8977   1.594   0.558   3.763
 2237SOL    HW2 8978   1.665   0.522   3.816
 2237SOL    HW3 8979   1.572   0.640   3.805
 2237SOL    MW4 8980   1.600   0.564   3.775
 2238SOL     OW 8981   1.558   0.812   3.862
 2238SOL    HW2 8982   1.628   0.845   3.807
 2238SOL    HW3 8983   1.481   0.863   3.837
 2238SOL    MW4 8984   1.557   0.823   3.852
 2239SOL     OW 8985   1.314   0.909   3.749
 2239SOL    HW2 8986   1.327   0.981   3.811
 2239SOL    HW3 8987   1.249   0.853   3.791
 2239SOL    MW4 8988   1.307   0.911   3.763
 2240SOL     OW 8989   1.377   1.131   3.896
 2240SOL    HW2 8990   1.441   1.173   3.838
 2240SOL    HW3 8991   1.302   1.190   3.896
 2240SOL    MW4 8992   1.376   1.144   3.888
 2241SOL     OW 8993   1.562   1.304   3.763
 2241SOL    HW2 8994   1.641   1.258   3.790
 2241SOL    HW3 8995   1.565   1.387   3.812
 2241SOL    MW4 8996   1.573   1.309   3.773
 2242SOL     OW 8997   1.539   1.546   3.859
 2242SOL    HW2 8998   1.532   1.545   3.954
 2242SOL    HW3 8999   1.620   1.594   3.841
 2242SOL    MW4 9000   1.548   1.552   3.869
 2243SOL     OW 9001   1.318   1.671   3.754
 2243SOL    HW2 9002   1.339   1.748   3.806
 2243SOL    HW3 9003   1.391   1.611   3.770
 2243SOL    MW4 9004   1.331   1.673   3.763
 2244SOL     OW 9005   1.360   1.901   3.890
 2244SOL    HW2 9006   1.347   1.896   3.984
 2244SOL    HW3 9007   1.281   1.943   3.856
 2244SOL    MW4 9008   1.348   1.906   3.898
 2245SOL     OW 9009   1.596   2.041   3.818
 2245SOL    HW2 9010   1.517   1.999   3.851
 2245SOL    HW3 9011   1.587   2.038   3.723
 2245SOL    MW4 9012   1.584   2.035   3.810
 2246SOL     OW 9013   1.551   2.311   3.890
 2246SOL    HW2 9014   1.622   2.359   3.848
 2246SOL    HW3 9015   1.575   2.219   3.882
 2246SOL    MW4 9016   1.563   2.305   3.883
 2247SOL     OW 9017   1.334   2.422   3.763
 2247SOL    HW2 9018   1.409   2.386   3.811
 2247SOL    HW3 9019   1.258   2.382   3.804
 2247SOL    MW4 9020   1.334   2.412   3.775
 2248SOL     OW 9021   1.355   2.654   3.911
 2248SOL    HW2 9022   1.354   2.630   4.004
 2248SOL    HW3 9023   1.357   2.571   3.865
 2248SOL    MW4 9024   1.355   2.640   3.917
 2249SOL     OW 9025   1.516   2.831   3.787
 2249SOL    HW2 9026   1.450   2.788   3.841
 2249SOL    HW3 9027   1.487   2.814   3.697
 2249SOL    MW4 9028   1.503   2.823   3.782
 2250SOL     OW 9029   1.618   3.073   3.854
 2250SOL    HW2 9030   1.611   3.062   3.949
 2250SOL    HW3 9031   1.575   2.996   3.817
 2250SOL    MW4 9032   1.611   3.061   3.862
 2251SOL     OW 9033   1.381   3.220   3.791
 2251SOL    HW2 9034   1.364   3.303   3.834
 2251SOL    HW3 9035   1.459   3.185   3.835
 2251SOL    MW4 9036   1.389   3.226   3.802
 2252SOL     OW 9037   1.338   3.463   3.891
 2252SOL    HW2 9038   1.414   3.501   3.847
 2252SOL    HW3 9039   1.264   3.512   3.856
 2252SOL    MW4 9040   1.338   3.474   3.881
 2253SOL     OW 9041   1.574   3.587   3.770
 2253SOL    HW2 9042   1.661   3.558   3.796
 2253SOL    HW3 9043   1.563   3.672   3.814
 2253SOL    MW4 9044   1.584   3.594   3.780
 2254SOL     OW 9045   1.542   3.841   3.860
 2254SOL    HW2 9046   1.566   3.854   3.951
 2254SOL    HW3 9047   1.474   3.906   3.843
 2254SOL    MW4 9048   1.536   3.851   3.870
 2255SOL     OW 9049   1.309   4.017   3.786
 2255SOL    HW2 9050   1.324   4.104   3.824
 2255SOL    HW3 9051   1.320   4.031   3.692
 2255SOL    MW4 9052   1.312   4.031   3.778
 2256SOL     OW 9053   1.316   4.292   3.853
 2256SOL    HW2 9054   1.393   4.344   3.828
 2256SOL    HW3 9055   1.242   4.338   3.813
 2256SOL    MW4 9056   1.317   4.305   3.844
 2257SOL     OW 9057   1.558   4.415   3.762
 2257SOL    HW2 9058   1.634   4.369   3.796
 2257SOL    HW3 9059   1.565   4.406   3.666
 2257SOL    MW4 9060   1.569   4.408   3.754
 2258SOL     OW 9061   2.007   4.654   3.858
 2258SOL    HW2 9062   2.082   4.693   3.813
 2258SOL    HW3 9063   1.997   4.567   3.819
 2258SOL    MW4 9064   2.015   4.648   3.847
 2259SOL     OW 9065   1.785   0.127   3.723
 2259SOL    HW2 9066   1.855   0.085   3.773
 2259SOL    HW3 9067   1.706   0.082   3.751
 2259SOL    MW4 9068   1.784   0.115   3.733
 2260SOL     OW 9069   1.779   0.380   3.830
 2260SOL    HW2 9070   1.810   0.362   3.919
 2260SOL    HW3 9071   1.786   0.296   3.786
 2260SOL    MW4 9072   1.784   0.367   3.836
 2261SOL     OW 9073   1.982   0.534   3.742
 2261SOL    HW2 9074   1.902   0.491   3.772
 2261SOL    HW3 9075   1.977   0.531   3.647
 2261SOL    MW4 9076   1.971   0.528   3.734
 2262SOL     OW 9077   1.994   0.791   3.861
 2262SOL    HW2 9078   1.988   0.783   3.957
 2262SOL    HW3 9079   1.981   0.702   3.829
 2262SOL    MW4 9080   1.991   0.778   3.870
 2263SOL     OW 9081   1.775   0.915   3.742
 2263SOL    HW2 9082   1.858   0.902   3.787
 2263SOL    HW3 9083   1.798   0.917   3.649
 2263SOL    MW4 9084   1.789   0.913   3.735
 2264SOL     OW 9085   1.808   1.172   3.834
 2264SOL    HW2 9086   1.823   1.164   3.928
 2264SOL    HW3 9087   1.783   1.084   3.806
 2264SOL    MW4 9088   1.807   1.160   3.843
 2265SOL     OW 9089   2.052   1.293   3.756
 2265SOL    HW2 9090   2.117   1.242   3.805
 2265SOL    HW3 9091   1.968   1.252   3.778
 2265SOL    MW4 9092   2.049   1.281   3.766
 2266SOL     OW 9093   2.032   1.555   3.859
 2266SOL    HW2 9094   1.954   1.602   3.830
 2266SOL    HW3 9095   2.028   1.471   3.813
 2266SOL    MW4 9096   2.021   1.550   3.849
 2267SOL     OW 9097   1.774   1.670   3.787
 2267SOL    HW2 9098   1.757   1.755   3.829
 2267SOL    HW3 9099   1.784   1.691   3.694
 2267SOL    MW4 9100   1.773   1.684   3.781
 2268SOL     OW 9101   1.824   1.920   3.918
 2268SOL    HW2 9102   1.844   1.922   4.011
 2268SOL    HW3 9103   1.749   1.978   3.908
 2268SOL    MW4 9104   1.817   1.928   3.929
 2269SOL     OW 9105   1.998   2.094   3.794
 2269SOL    HW2 9106   1.933   2.032   3.827
 2269SOL    HW3 9107   1.994   2.084   3.699
 2269SOL    MW4 9108   1.989   2.084   3.786
 2270SOL     OW 9109   1.999   2.340   3.905
 2270SOL    HW2 9110   1.920   2.373   3.861
 2270SOL    HW3 9111   2.007   2.250   3.873
 2270SOL    MW4 9112   1.989   2.333   3.895
 2271SOL     OW 9113   1.777   2.454   3.782
 2271SOL    HW2 9114   1.786   2.546   3.808
 2271SOL    HW3 9115   1.792   2.454   3.688
 2271SOL    MW4 9116   1.780   2.466   3.773
 2272SOL     OW 9117   1.773   2.723   3.850
 2272SOL    HW2 9118   1.770   2.733   3.946
 2272SOL    HW3 9119   1.688   2.753   3.820
 2272SOL    MW4 9120   1.762   2.728   3.859
 2273SOL     OW 9121   2.029   2.812   3.775
 2273SOL    HW2 9122   2.092   2.753   3.816
 2273SOL    HW3 9123   1.944   2.782   3.807
 2273SOL    MW4 9124   2.026   2.801   3.785
 2274SOL     OW 9125   2.054   3.072   3.855
 2274SOL    HW2 9126   2.043   2.989   3.809
 2274SOL    HW3 9127   2.122   3.118   3.806
 2274SOL    MW4 9128   2.062   3.067   3.843
 2275SOL     OW 9129   1.831   3.209   3.754
 2275SOL    HW2 9130   1.908   3.168   3.792
 2275SOL    HW3 9131   1.758   3.154   3.781
 2275SOL    MW4 9132   1.831   3.197   3.762
 2276SOL     OW 9133   1.819   3.458   3.873
 2276SOL    HW2 9134   1.896   3.511   3.854
 2276SOL    HW3 9135   1.838   3.373   3.834
 2276SOL    MW4 9136   1.832   3.454   3.865
 2277SOL     OW 9137   2.014   3.625   3.784
 2277SOL    HW2 9138   2.087   3.577   3.823
 2277SOL    HW3 9139   2.031   3.622   3.690
 2277SOL    MW4 9140   2.026   3.618   3.776
 2278SOL     OW 9141   1.989   3.880   3.879
 2278SOL    HW2 9142   2.063   3.921   3.835
 2278SOL    HW3 9143   1.993   3.788   3.852
 2278SOL    MW4 9144   2.000   3.873   3.870
 2279SOL     OW 9145   1.752   4.007   3.776
 2279SOL    HW2 9146   1.833   3.978   3.818
 2279SOL    HW3 9147   1.689   3.938   3.796
 2279SOL    MW4 9148   1.755   3.994   3.784
 2280SOL     OW 9149   1.786   4.263   3.865
 2280SOL    HW2 9150   1.854   4.297   3.808
 2280SOL    HW3 9151   1.772   4.173   3.835
 2280SOL    MW4 9152   1.793   4.256   3.854
 2281SOL     OW 9153   1.990   4.382   3.710
 2281SOL    HW2 9154   2.066   4.331   3.739
 2281SOL    HW3 9155   1.993   4.378   3.615
 2281SOL    MW4 9156   2.000   4.375   3.702
 2282SOL     OW 9157   2.405   4.637   3.833
 2282SOL    HW2 9158   2.401   4.658   3.926
 2282SOL    HW3 9159   2.489   4.672   3.804
 2282SOL    MW4 9160   2.415   4.645   3.841
 2283SOL     OW 9161   2.189   0.155   3.732
 2283SOL    HW2 9162   2.269   0.105   3.745
 2283SOL    HW3 9163   2.173   0.151   3.637
 2283SOL    MW4 9164   2.197   0.148   3.721
 2284SOL     OW 9165   2.233   0.412   3.828
 2284SOL    HW2 9166   2.215   0.324   3.794
 2284SOL    HW3 9167   2.153   0.462   3.809
 2284SOL    MW4 9168   2.220   0.407   3.821
 2285SOL     OW 9169   2.484   0.515   3.776
 2285SOL    HW2 9170   2.401   0.471   3.796
 2285SOL    HW3 9171   2.495   0.504   3.681
 2285SOL    MW4 9172   2.474   0.508   3.766
 2286SOL     OW 9173   2.473   0.768   3.849
 2286SOL    HW2 9174   2.389   0.803   3.820
 2286SOL    HW3 9175   2.473   0.677   3.821
 2286SOL    MW4 9176   2.462   0.760   3.842
 2287SOL     OW 9177   2.242   0.876   3.771
 2287SOL    HW2 9178   2.158   0.839   3.800
 2287SOL    HW3 9179   2.230   0.890   3.677
 2287SOL    MW4 9180   2.229   0.873   3.762
 2288SOL     OW 9181   2.250   1.153   3.884
 2288SOL    HW2 9182   2.261   1.159   3.979
 2288SOL    HW3 9183   2.280   1.066   3.861
 2288SOL    MW4 9184   2.255   1.143   3.893
 2289SOL     OW 9185   2.440   1.253   3.727
 2289SOL    HW2 9186   2.447   1.345   3.753
 2289SOL    HW3 9187   2.374   1.217   3.785
 2289SOL    MW4 9188   2.433   1.260   3.738
 2290SOL     OW 9189   2.415   1.521   3.846
 2290SOL    HW2 9190   2.500   1.559   3.823
 2290SOL    HW3 9191   2.351   1.589   3.823
 2290SOL    MW4 9192   2.417   1.535   3.840
 2291SOL     OW 9193   2.226   1.712   3.757
 2291SOL    HW2 9194   2.224   1.790   3.813
 2291SOL    HW3 9195   2.166   1.650   3.800
 2291SOL    MW4 9196   2.218   1.714   3.770
 2292SOL     OW 9197   2.244   1.969   3.873
 2292SOL    HW2 9198   2.239   1.974   3.969
 2292SOL    HW3 9199   2.178   2.032   3.843
 2292SOL    MW4 9200   2.234   1.978   3.882
 2293SOL     OW 9201   2.483   2.076   3.806
 2293SOL    HW2 9202   2.478   2.167   3.835
 2293SOL    HW3 9203   2.399   2.037   3.832
 2293SOL    MW4 9204   2.471   2.083   3.813
 2294SOL     OW 9205   2.498   2.321   3.887
 2294SOL    HW2 9206   2.559   2.367   3.829
 2294SOL    HW3 9207   2.412   2.355   3.864
 2294SOL    MW4 9208   2.495   2.332   3.876
 2295SOL     OW 9209   2.249   2.414   3.811
 2295SOL    HW2 9210   2.172   2.370   3.846
 2295SOL    HW3 9211   2.242   2.404   3.716
 2295SOL    MW4 9212   2.238   2.407   3.803
 2296SOL     OW 9213   2.230   2.674   3.902
 2296SOL    HW2 9214   2.221   2.678   3.997
 2296SOL    HW3 9215   2.231   2.581   3.882
 2296SOL    MW4 9216   2.229   2.663   3.912
 2297SOL     OW 9217   2.435   2.830   3.830
 2297SOL    HW2 9218   2.364   2.772   3.859
 2297SOL    HW3 9219   2.433   2.824   3.735
 2297SOL    MW4 9220   2.425   2.822   3.821
 2298SOL     OW 9221   2.460   3.105   3.915
 2298SOL    HW2 9222   2.471   3.127   4.007
 2298SOL    HW3 9223   2.428   3.015   3.914
 2298SOL    MW4 9224   2.457   3.096   3.927
 2299SOL     OW 9225   2.261   3.227   3.750
 2299SOL    HW2 9226   2.249   3.313   3.790
 2299SOL    HW3 9227   2.339   3.191   3.793
 2299SOL    MW4 9228   2.270   3.233   3.761
 2300SOL     OW 9229   2.225   3.475   3.899
 2300SOL    HW2 9230   2.236   3.459   3.993
 2300SOL    HW3 9231   2.303   3.524   3.875
 2300SOL    MW4 9232   2.237   3.479   3.908
 2301SOL     OW 9233   2.449   3.621   3.800
 2301SOL    HW2 9234   2.527   3.574   3.828
 2301SOL    HW3 9235   2.442   3.602   3.707
 2301SOL    MW4 9236   2.458   3.612   3.791
 2302SOL     OW 9237   2.431   3.897   3.819
 2302SOL    HW2 9238   2.511   3.933   3.783
 2302SOL    HW3 9239   2.442   3.802   3.811
 2302SOL    MW4 9240   2.443   3.889   3.813
 2303SOL     OW 9241   2.187   4.000   3.737
 2303SOL    HW2 9242   2.270   3.961   3.765
 2303SOL    HW3 9243   2.178   3.974   3.645
 2303SOL    MW4 9244   2.197   3.991   3.728
 2304SOL     OW 9245   2.176   4.251   3.841
 2304SOL    HW2 9246   2.166   4.246   3.937
 2304SOL    HW3 9247   2.180   4.159   3.814
 2304SOL    MW4 9248   2.175   4.238   3.850
 2305SOL     OW 9249   2.416   4.377   3.734
 2305SOL    HW2 9250   2.344   4.335   3.781
 2305SOL    HW3 9251   2.411   4.469   3.760
 2305SOL    MW4 9252   2.406   4.384   3.744
 2306SOL     OW 9253   2.881   4.647   3.884
 2306SOL    HW2 9254   2.914   4.654   3.973
 2306SOL    HW3 9255   2.947   4.691   3.830
 2306SOL    MW4 9256   2.894   4.654   3.889
 2307SOL     OW 9257   2.639   0.091   3.749
 2307SOL    HW2 9258   2.716   0.051   3.788
 2307SOL    HW3 9259   2.662   0.103   3.657
 2307SOL    MW4 9260   2.652   0.087   3.742
 2308SOL     OW 9261   2.686   0.353   3.841
 2308SOL    HW2 9262   2.658   0.266   3.813
 2308SOL    HW3 9263   2.616   0.411   3.814
 2308SOL    MW4 9264   2.673   0.349   3.834
 2309SOL     OW 9265   2.915   0.475   3.739
 2309SOL    HW2 9266   2.998   0.443   3.774
 2309SOL    HW3 9267   2.848   0.427   3.788
 2309SOL    MW4 9268   2.917   0.464   3.750
 2310SOL     OW 9269   2.901   0.718   3.859
 2310SOL    HW2 9270   2.989   0.745   3.832
 2310SOL    HW3 9271   2.887   0.635   3.814
 2310SOL    MW4 9272   2.911   0.710   3.850
 2311SOL     OW 9273   2.688   0.885   3.739
 2311SOL    HW2 9274   2.753   0.830   3.782
 2311SOL    HW3 9275   2.604   0.853   3.771
 2311SOL    MW4 9276   2.686   0.874   3.749
 2312SOL     OW 9277   2.714   1.114   3.892
 2312SOL    HW2 9278   2.715   1.038   3.834
 2312SOL    HW3 9279   2.649   1.173   3.853
 2312SOL    MW4 9280   2.705   1.112   3.879
 2313SOL     OW 9281   2.946   1.230   3.767
 2313SOL    HW2 9282   2.946   1.319   3.801
 2313SOL    HW3 9283   2.877   1.186   3.816
 2313SOL    MW4 9284   2.937   1.236   3.778
 2314SOL     OW 9285   2.911   1.508   3.834
 2314SOL    HW2 9286   2.891   1.498   3.927
 2314SOL    HW3 9287   2.986   1.567   3.831
 2314SOL    MW4 9288   2.919   1.514   3.846
 2315SOL     OW 9289   2.672   1.648   3.785
 2315SOL    HW2 9290   2.747   1.603   3.823
 2315SOL    HW3 9291   2.687   1.645   3.690
 2315SOL    MW4 9292   2.684   1.641   3.777
 2316SOL     OW 9293   2.724   1.902   3.901
 2316SOL    HW2 9294   2.708   1.815   3.866
 2316SOL    HW3 9295   2.647   1.953   3.876
 2316SOL    MW4 9296   2.712   1.897   3.893
 2317SOL     OW 9297   2.902   2.073   3.773
 2317SOL    HW2 9298   2.889   2.164   3.800
 2317SOL    HW3 9299   2.837   2.024   3.823
 2317SOL    MW4 9300   2.892   2.079   3.783
 2318SOL     OW 9301   2.913   2.335   3.845
 2318SOL    HW2 9302   2.915   2.340   3.940
 2318SOL    HW3 9303   2.996   2.373   3.816
 2318SOL    MW4 9304   2.924   2.341   3.854
 2319SOL     OW 9305   2.686   2.448   3.720
 2319SOL    HW2 9306   2.672   2.540   3.742
 2319SOL    HW3 9307   2.772   2.428   3.758
 2319SOL    MW4 9308   2.695   2.458   3.728
 2320SOL     OW 9309   2.683   2.686   3.826
 2320SOL    HW2 9310   2.690   2.695   3.921
 2320SOL    HW3 9311   2.609   2.741   3.803
 2320SOL    MW4 9312   2.674   2.695   3.835
 2321SOL     OW 9313   2.912   2.837   3.758
 2321SOL    HW2 9314   2.926   2.919   3.805
 2321SOL    HW3 9315   2.835   2.799   3.801
 2321SOL    MW4 9316   2.904   2.843   3.770
 2322SOL     OW 9317   2.905   3.094   3.880
 2322SOL    HW2 9318   2.971   3.144   3.832
 2322SOL    HW3 9319   2.825   3.145   3.871
 2322SOL    MW4 9320   2.903   3.107   3.872
 2323SOL     OW 9321   2.698   3.242   3.781
 2323SOL    HW2 9322   2.695   3.334   3.807
 2323SOL    HW3 9323   2.618   3.204   3.817
 2323SOL    MW4 9324   2.687   3.249   3.789
 2324SOL     OW 9325   2.677   3.495   3.877
 2324SOL    HW2 9326   2.700   3.493   3.969
 2324SOL    HW3 9327   2.746   3.548   3.836
 2324SOL    MW4 9328   2.689   3.502   3.883
 2325SOL     OW 9329   2.871   3.646   3.757
 2325SOL    HW2 9330   2.939   3.588   3.791
 2325SOL    HW3 9331   2.883   3.643   3.662
 2325SOL    MW4 9332   2.882   3.638   3.749
 2326SOL     OW 9333   2.889   3.888   3.878
 2326SOL    HW2 9334   2.880   3.881   3.973
 2326SOL    HW3 9335   2.889   3.798   3.847
 2326SOL    MW4 9336   2.888   3.875   3.886
 2327SOL     OW 9337   2.668   4.032   3.769
 2327SOL    HW2 9338   2.668   4.124   3.798
 2327SOL    HW3 9339   2.749   3.996   3.804
 2327SOL    MW4 9340   2.679   4.040   3.777
 2328SOL     OW 9341   2.636   4.286   3.884
 2328SOL    HW2 9342   2.712   4.332   3.849
 2328SOL    HW3 9343   2.562   4.320   3.833
 2328SOL    MW4 9344   2.636   4.297   3.873
 2329SOL     OW 9345   2.877   4.396   3.759
 2329SOL    HW2 9346   2.949   4.347   3.798
 2329SOL    HW3 9347   2.873   4.477   3.809
 2329SOL    MW4 9348   2.886   4.400   3.770
 2330SOL     OW 9349   3.360   4.661   3.870
 2330SOL    HW2 9350   3.380   4.639   3.961
 2330SOL    HW3 9351   3.440   4.700   3.836
 2330SOL    MW4 9352   3.373   4.663   3.878
 2331SOL     OW 9353   3.086   0.090   3.741
 2331SOL    HW2 9354   3.172   0.064   3.773
 2331SOL    HW3 9355   3.090   0.078   3.646
 2331SOL    MW4 9356   3.098   0.085   3.733
 2332SOL     OW 9357   3.134   0.340   3.841
 2332SOL    HW2 9358   3.150   0.325   3.934
 2332SOL    HW3 9359   3.103   0.255   3.808
 2332SOL    MW4 9360   3.132   0.327   3.849
 2333SOL     OW 9361   3.360   0.453   3.745
 2333SOL    HW2 9362   3.434   0.420   3.796
 2333SOL    HW3 9363   3.286   0.399   3.772
 2333SOL    MW4 9364   3.360   0.441   3.755
 2334SOL     OW 9365   3.398   0.724   3.835
 2334SOL    HW2 9366   3.405   0.719   3.930
 2334SOL    HW3 9367   3.383   0.634   3.807
 2334SOL    MW4 9368   3.397   0.712   3.844
 2335SOL     OW 9369   3.132   0.819   3.788
 2335SOL    HW2 9370   3.224   0.794   3.794
 2335SOL    HW3 9371   3.120   0.847   3.698
 2335SOL    MW4 9372   3.143   0.820   3.777
 2336SOL     OW 9373   3.182   1.100   3.852
 2336SOL    HW2 9374   3.160   1.007   3.855
 2336SOL    HW3 9375   3.101   1.143   3.826
 2336SOL    MW4 9376   3.168   1.093   3.849
 2337SOL     OW 9377   3.369   1.283   3.785
 2337SOL    HW2 9378   3.319   1.209   3.820
 2337SOL    HW3 9379   3.342   1.290   3.694
 2337SOL    MW4 9380   3.359   1.274   3.778
 2338SOL     OW 9381   3.365   1.538   3.893
 2338SOL    HW2 9382   3.284   1.580   3.864
 2338SOL    HW3 9383   3.361   1.451   3.853
 2338SOL    MW4 9384   3.354   1.532   3.884
 2339SOL     OW 9385   3.137   1.676   3.798
 2339SOL    HW2 9386   3.113   1.767   3.814
 2339SOL    HW3 9387   3.161   1.673   3.706
 2339SOL    MW4 9388   3.137   1.688   3.788
 2340SOL     OW 9389   3.129   1.946   3.866
 2340SOL    HW2 9390   3.118   1.934   3.961
 2340SOL    HW3 9391   3.065   2.014   3.843
 2340SOL    MW4 9392   3.119   1.954   3.876
 2341SOL     OW 9393   3.376   2.045   3.810
 2341SOL    HW2 9394   3.289   2.014   3.834
 2341SOL    HW3 9395   3.381   2.035   3.715
 2341SOL    MW4 9396   3.365   2.040   3.801
 2342SOL     OW 9397   3.375   2.318   3.880
 2342SOL    HW2 9398   3.295   2.365   3.856
 2342SOL    HW3 9399   3.363   2.230   3.845
 2342SOL    MW4 9400   3.363   2.313   3.873
 2343SOL     OW 9401   3.151   2.441   3.760
 2343SOL    HW2 9402   3.153   2.529   3.799
 2343SOL    HW3 9403   3.172   2.456   3.667
 2343SOL    MW4 9404   3.154   2.455   3.753
 2344SOL     OW 9405   3.150   2.706   3.853
 2344SOL    HW2 9406   3.135   2.697   3.947
 2344SOL    HW3 9407   3.071   2.749   3.820
 2344SOL    MW4 9408   3.137   2.710   3.861
 2345SOL     OW 9409   3.401   2.830   3.805
 2345SOL    HW2 9410   3.327   2.789   3.850
 2345SOL    HW3 9411   3.383   2.816   3.712
 2345SOL    MW4 9412   3.389   2.822   3.798
 2346SOL     OW 9413   3.375   3.111   3.858
 2346SOL    HW2 9414   3.454   3.165   3.848
 2346SOL    HW3 9415   3.400   3.025   3.825
 2346SOL    MW4 9416   3.389   3.107   3.853
 2347SOL     OW 9417   3.129   3.219   3.769
 2347SOL    HW2 9418   3.212   3.187   3.804
 2347SOL    HW3 9419   3.144   3.231   3.676
 2347SOL    MW4 9420   3.142   3.216   3.761
 2348SOL     OW 9421   3.083   3.491   3.839
 2348SOL    HW2 9422   3.152   3.543   3.798
 2348SOL    HW3 9423   3.090   3.405   3.796
 2348SOL    MW4 9424   3.093   3.486   3.828
 2349SOL     OW 9425   3.328   3.622   3.749
 2349SOL    HW2 9426   3.320   3.710   3.785
 2349SOL    HW3 9427   3.334   3.634   3.655
 2349SOL    MW4 9428   3.328   3.635   3.742
 2350SOL     OW 9429   3.352   3.877   3.857
 2350SOL    HW2 9430   3.413   3.941   3.819
 2350SOL    HW3 9431   3.265   3.910   3.833
 2350SOL    MW4 9432   3.349   3.890   3.849
 2351SOL     OW 9433   3.110   4.000   3.769
 2351SOL    HW2 9434   3.118   4.091   3.798
 2351SOL    HW3 9435   3.030   3.968   3.810
 2351SOL    MW4 9436   3.101   4.008   3.778
 2352SOL     OW 9437   3.121   4.276   3.841
 2352SOL    HW2 9438   3.120   4.274   3.936
 2352SOL    HW3 9439   3.204   4.317   3.818
 2352SOL    MW4 9440   3.132   4.282   3.850
 2353SOL     OW 9441   3.368   4.394   3.766
 2353SOL    HW2 9442   3.447   4.358   3.808
 2353SOL    HW3 9443   3.359   4.481   3.803
 2353SOL    MW4 9444   3.377   4.401   3.776
 2354SOL     OW 9445   3.839   0.012   3.861
 2354SOL    HW2 9446   3.928   0.044   3.851
 2354SOL    HW3 9447   3.842  -0.080   3.833
 2354SOL    MW4 9448   3.851   0.004   3.856
 2355SOL     OW 9449   3.603   0.100   3.769
 2355SOL    HW2 9450   3.694   0.077   3.789
 2355SOL    HW3 9451   3.598   0.099   3.673
 2355SOL    MW4 9452   3.614   0.097   3.759
 2356SOL     OW 9453   3.588   0.358   3.858
 2356SOL    HW2 9454   3.661   0.401   3.813
 2356SOL    HW3 9455   3.588   0.269   3.822
 2356SOL    MW4 9456   3.598   0.352   3.847
 2357SOL     OW 9457   3.786   0.484   3.727
 2357SOL    HW2 9458   3.866   0.442   3.760
 2357SOL    HW3 9459   3.797   0.577   3.750
 2357SOL    MW4 9460   3.798   0.491   3.735
 2358SOL     OW 9461   3.802   0.734   3.796
 2358SOL    HW2 9462   3.882   0.784   3.784
 2358SOL    HW3 9463   3.732   0.792   3.766
 2358SOL    MW4 9464   3.803   0.748   3.791
 2359SOL     OW 9465   3.591   0.905   3.711
 2359SOL    HW2 9466   3.592   0.981   3.770
 2359SOL    HW3 9467   3.537   0.841   3.756
 2359SOL    MW4 9468   3.584   0.907   3.725
 2360SOL     OW 9469   3.590   1.149   3.881
 2360SOL    HW2 9470   3.662   1.201   3.845
 2360SOL    HW3 9471   3.511   1.189   3.845
 2360SOL    MW4 9472   3.589   1.161   3.872
 2361SOL     OW 9473   3.819   1.284   3.782
 2361SOL    HW2 9474   3.900   1.241   3.808
 2361SOL    HW3 9475   3.815   1.363   3.836
 2361SOL    MW4 9476   3.829   1.289   3.792
 2362SOL     OW 9477   3.773   1.546   3.876
 2362SOL    HW2 9478   3.753   1.556   3.969
 2362SOL    HW3 9479   3.699   1.584   3.830
 2362SOL    MW4 9480   3.761   1.552   3.882
 2363SOL     OW 9481   3.561   1.697   3.747
 2363SOL    HW2 9482   3.494   1.635   3.775
 2363SOL    HW3 9483   3.571   1.681   3.653
 2363SOL    MW4 9484   3.554   1.687   3.738
 2364SOL     OW 9485   3.608   1.934   3.904
 2364SOL    HW2 9486   3.612   1.853   3.853
 2364SOL    HW3 9487   3.525   1.975   3.878
 2364SOL    MW4 9488   3.597   1.929   3.894
 2365SOL     OW 9489   3.795   2.043   3.754
 2365SOL    HW2 9490   3.867   1.988   3.787
 2365SOL    HW3 9491   3.723   2.027   3.816
 2365SOL    MW4 9492   3.795   2.033   3.767
 2366SOL     OW 9493   3.824   2.300   3.865
 2366SOL    HW2 9494   3.743   2.342   3.837
 2366SOL    HW3 9495   3.832   2.223   3.809
 2366SOL    MW4 9496   3.815   2.296   3.854
 2367SOL     OW 9497   3.596   2.432   3.756
 2367SOL    HW2 9498   3.523   2.396   3.806
 2367SOL    HW3 9499   3.574   2.413   3.665
 2367SOL    MW4 9500   3.583   2.424   3.751
 2368SOL     OW 9501   3.611   2.680   3.899
 2368SOL    HW2 9502   3.620   2.595   3.857
 2368SOL    HW3 9503   3.534   2.720   3.859
 2368SOL    MW4 9504   3.602   2.674   3.888
 2369SOL     OW 9505   3.794   2.828   3.777
 2369SOL    HW2 9506   3.867   2.777   3.810
 2369SOL    HW3 9507   3.716   2.781   3.808
 2369SOL    MW4 9508   3.793   2.815   3.786
 2370SOL     OW 9509   3.846   3.088   3.865
 2370SOL    HW2 9510   3.782   3.130   3.807
 2370SOL    HW3 9511   3.840   2.995   3.844
 2370SOL    MW4 9512   3.837   3.082   3.854
 2371SOL     OW 9513   3.620   3.236   3.797
 2371SOL    HW2 9514   3.605   3.327   3.821
 2371SOL    HW3 9515   3.591   3.230   3.706
 2371SOL    MW4 9516   3.614   3.247   3.788
 2372SOL     OW 9517   3.586   3.532   3.816
 2372SOL    HW2 9518   3.582   3.536   3.912
 2372SOL    HW3 9519   3.507   3.577   3.787
 2372SOL    MW4 9520   3.575   3.539   3.825
 2373SOL     OW 9521   3.814   3.589   3.700
 2373SOL    HW2 9522   3.830   3.672   3.745
 2373SOL    HW3 9523   3.735   3.554   3.742
 2373SOL    MW4 9524   3.805   3.595   3.712
 2374SOL     OW 9525   3.807   3.833   3.835
 2374SOL    HW2 9526   3.799   3.846   3.929
 2374SOL    HW3 9527   3.880   3.888   3.808
 2374SOL    MW4 9528   3.815   3.842   3.844
 2375SOL     OW 9529   3.580   3.999   3.748
 2375SOL    HW2 9530   3.602   4.084   3.785
 2375SOL    HW3 9531   3.650   3.941   3.778
 2375SOL    MW4 9532   3.592   4.002   3.757
 2376SOL     OW 9533   3.598   4.279   3.863
 2376SOL    HW2 9534   3.594   4.274   3.958
 2376SOL    HW3 9535   3.676   4.332   3.845
 2376SOL    MW4 9536   3.608   4.285   3.873
 2377SOL     OW 9537   3.828   4.397   3.777
 2377SOL    HW2 9538   3.895   4.329   3.791
 2377SOL    HW3 9539   3.813   4.396   3.683
 2377SOL    MW4 9540   3.835   4.388   3.767
 2378SOL     OW 9541   4.300   4.660   3.870
 2378SOL    HW2 9542   4.307   4.665   3.965
 2378SOL    HW3 9543   4.374   4.713   3.838
 2378SOL    MW4 9544   4.311   4.668   3.878
 2379SOL     OW 9545   4.078   0.119   3.771
 2379SOL    HW2 9546   4.159   0.075   3.797
 2379SOL    HW3 9547   4.064   0.092   3.680
 2379SOL    MW4 9548   4.087   0.110   3.763
 2380SOL     OW 9549   4.016   0.376   3.841
 2380SOL    HW2 9550   4.019   0.373   3.936
 2380SOL    HW3 9551   4.021   0.285   3.814
 2380SOL    MW4 9552   4.017   0.364   3.850
 2381SOL     OW 9553   4.264   0.483   3.777
 2381SOL    HW2 9554   4.181   0.446   3.806
 2381SOL    HW3 9555   4.265   0.472   3.682
 2381SOL    MW4 9556   4.253   0.477   3.769
 2382SOL     OW 9557   4.270   0.754   3.844
 2382SOL    HW2 9558   4.181   0.785   3.828
 2382SOL    HW3 9559   4.267   0.660   3.827
 2382SOL    MW4 9560   4.258   0.746   3.840
 2383SOL     OW 9561   4.040   0.862   3.756
 2383SOL    HW2 9562   4.029   0.953   3.782
 2383SOL    HW3 9563   4.036   0.863   3.660
 2383SOL    MW4 9564   4.038   0.874   3.747
 2384SOL     OW 9565   4.038   1.151   3.861
 2384SOL    HW2 9566   4.022   1.169   3.954
 2384SOL    HW3 9567   4.115   1.202   3.839
 2384SOL    MW4 9568   4.046   1.160   3.871
 2385SOL     OW 9569   4.249   1.316   3.785
 2385SOL    HW2 9570   4.241   1.411   3.799
 2385SOL    HW3 9571   4.249   1.306   3.690
 2385SOL    MW4 9572   4.248   1.327   3.774
 2386SOL     OW 9573   4.208   1.575   3.875
 2386SOL    HW2 9574   4.128   1.601   3.831
 2386SOL    HW3 9575   4.278   1.613   3.823
 2386SOL    MW4 9576   4.207   1.583   3.863
 2387SOL     OW 9577   3.982   1.666   3.745
 2387SOL    HW2 9578   3.998   1.753   3.780
 2387SOL    HW3 9579   3.908   1.632   3.796
 2387SOL    MW4 9580   3.974   1.673   3.756
 2388SOL     OW 9581   4.023   1.924   3.853
 2388SOL    HW2 9582   4.019   1.917   3.948
 2388SOL    HW3 9583   4.097   1.983   3.836
 2388SOL    MW4 9584   4.032   1.931   3.863
 2389SOL     OW 9585   4.258   2.039   3.741
 2389SOL    HW2 9586   4.264   2.131   3.769
 2389SOL    HW3 9587   4.264   2.044   3.645
 2389SOL    MW4 9588   4.260   2.052   3.732
 2390SOL     OW 9589   4.241   2.295   3.814
 2390SOL    HW2 9590   4.249   2.305   3.908
 2390SOL    HW3 9591   4.162   2.344   3.791
 2390SOL    MW4 9592   4.231   2.303   3.823
 2391SOL     OW 9593   4.016   2.465   3.754
 2391SOL    HW2 9594   4.038   2.539   3.810
 2391SOL    HW3 9595   3.942   2.424   3.797
 2391SOL    MW4 9596   4.009   2.470   3.767
 2392SOL     OW 9597   4.057   2.734   3.866
 2392SOL    HW2 9598   4.054   2.735   3.962
 2392SOL    HW3 9599   4.130   2.792   3.844
 2392SOL    MW4 9600   4.066   2.742   3.876
 2393SOL     OW 9601   4.271   2.895   3.753
 2393SOL    HW2 9602   4.297   2.982   3.782
 2393SOL    HW3 9603   4.342   2.837   3.781
 2393SOL    MW4 9604   4.284   2.899   3.760
 2394SOL     OW 9605   4.311   3.138   3.882
 2394SOL    HW2 9606   4.228   3.179   3.862
 2394SOL    HW3 9607   4.374   3.178   3.822
 2394SOL    MW4 9608   4.308   3.148   3.872
 2395SOL     OW 9609   4.065   3.214   3.759
 2395SOL    HW2 9610   3.993   3.163   3.797
 2395SOL    HW3 9611   4.047   3.215   3.665
 2395SOL    MW4 9612   4.053   3.207   3.751
 2396SOL     OW 9613   4.005   3.452   3.858
 2396SOL    HW2 9614   4.025   3.363   3.829
 2396SOL    HW3 9615   3.933   3.481   3.801
 2396SOL    MW4 9616   3.998   3.444   3.847
 2397SOL     OW 9617   4.250   3.556   3.768
 2397SOL    HW2 9618   4.185   3.498   3.807
 2397SOL    HW3 9619   4.334   3.520   3.797
 2397SOL    MW4 9620   4.253   3.543   3.777
 2398SOL     OW 9621   4.222   3.817   3.841
 2398SOL    HW2 9622   4.142   3.867   3.823
 2398SOL    HW3 9623   4.202   3.728   3.812
 2398SOL    MW4 9624   4.208   3.812   3.835
 2399SOL     OW 9625   4.010   3.977   3.783
 2399SOL    HW2 9626   4.033   4.061   3.821
 2399SOL    HW3 9627   4.014   3.991   3.688
 2399SOL    MW4 9628   4.014   3.990   3.776
 2400SOL     OW 9629   4.052   4.230   3.855
 2400SOL    HW2 9630   4.033   4.250   3.947
 2400SOL    HW3 9631   4.122   4.290   3.831
 2400SOL    MW4 9632   4.059   4.240   3.864
 2401SOL     OW 9633   4.260   4.400   3.761
 2401SOL    HW2 9634   4.271   4.479   3.813
 2401SOL    HW3 9635   4.325   4.339   3.797
 2401SOL    MW4 9636   4.270   4.402   3.773
 2402SOL     OW 9637   0.216   0.006   4.174
 2402SOL    HW2 9638   0.298   0.032   4.215
 2402SOL    HW3 9639   0.207  -0.087   4.193
 2402SOL    MW4 9640   0.225  -0.003   4.182
 2403SOL     OW 9641   4.488   0.131   4.287
 2403SOL    HW2 9642   4.496   0.107   4.380
 2403SOL    HW3 9643   4.569   0.098   4.247
 2403SOL    MW4 9644   4.500   0.123   4.294
 2404SOL     OW 9645   4.452   0.359   4.135
 2404SOL    HW2 9646   4.462   0.273   4.175
 2404SOL    HW3 9647   4.484   0.347   4.045
 2404SOL    MW4 9648   4.457   0.346   4.128
 2405SOL     OW 9649   0.199   0.516   4.202
 2405SOL    HW2 9650   0.260   0.444   4.183
 2405SOL    HW3 9651   0.113   0.482   4.178
 2405SOL    MW4 9652   0.196   0.502   4.196
 2406SOL     OW 9653   0.200   0.800   4.129
 2406SOL    HW2 9654   0.145   0.860   4.179
 2406SOL    HW3 9655   0.179   0.713   4.163
 2406SOL    MW4 9656   0.190   0.796   4.140
 2407SOL     OW 9657   0.018   0.918   4.283
 2407SOL    HW2 9658  -0.046   0.863   4.236
 2407SOL    HW3 9659   0.003   1.006   4.249
 2407SOL    MW4 9660   0.008   0.922   4.272
 2408SOL     OW 9661   0.012   1.166   4.151
 2408SOL    HW2 9662   0.074   1.232   4.182
 2408SOL    HW3 9663   0.015   1.173   4.056
 2408SOL    MW4 9664   0.021   1.176   4.143
 2409SOL     OW 9665   0.239   1.290   4.251
 2409SOL    HW2 9666   0.225   1.282   4.345
 2409SOL    HW3 9667   0.314   1.233   4.233
 2409SOL    MW4 9668   0.247   1.282   4.261
 2410SOL     OW 9669   4.327   2.051   4.741
 2410SOL    HW2 9670   4.269   2.049   4.817
 2410SOL    HW3 9671   4.324   2.141   4.710
 2410SOL    MW4 9672   4.319   2.062   4.747
 2411SOL     OW 9673   0.039   1.680   4.216
 2411SOL    HW2 9674  -0.044   1.635   4.203
 2411SOL    HW3 9675   0.023   1.769   4.183
 2411SOL    MW4 9676   0.026   1.686   4.210
 2412SOL     OW 9677   0.230   2.074   4.224
 2412SOL    HW2 9678   0.218   2.119   4.308
 2412SOL    HW3 9679   0.319   2.040   4.228
 2412SOL    MW4 9680   0.240   2.075   4.236
 2413SOL     OW 9681   0.476   1.411   4.611
 2413SOL    HW2 9682   0.442   1.500   4.601
 2413SOL    HW3 9683   0.487   1.400   4.705
 2413SOL    MW4 9684   0.473   1.421   4.622
 2414SOL     OW 9685   0.238   2.332   4.151
 2414SOL    HW2 9686   0.318   2.357   4.197
 2414SOL    HW3 9687   0.232   2.237   4.163
 2414SOL    MW4 9688   0.248   2.323   4.159
 2415SOL     OW 9689   4.471   2.461   4.207
 2415SOL    HW2 9690   4.395   2.409   4.179
 2415SOL    HW3 9691   4.545   2.424   4.158
 2415SOL    MW4 9692   4.471   2.449   4.197
 2416SOL     OW 9693   0.018   2.728   4.122
 2416SOL    HW2 9694   0.104   2.758   4.150
 2416SOL    HW3 9695   0.001   2.651   4.176
 2416SOL    MW4 9696   0.027   2.722   4.133
 2417SOL     OW 9697   0.254   2.830   4.239
 2417SOL    HW2 9698   0.345   2.802   4.234
 2417SOL    HW3 9699   0.256   2.924   4.222
 2417SOL    MW4 9700   0.266   2.839   4.236
 2418SOL     OW 9701   0.241   3.090   4.193
 2418SOL    HW2 9702   0.315   3.133   4.235
 2418SOL    HW3 9703   0.164   3.138   4.224
 2418SOL    MW4 9704   0.241   3.102   4.203
 2419SOL     OW 9705   0.030   3.262   4.244
 2419SOL    HW2 9706  -0.060   3.230   4.232
 2419SOL    HW3 9707   0.031   3.347   4.201
 2419SOL    MW4 9708   0.018   3.269   4.236
 2420SOL     OW 9709   0.047   3.508   4.118
 2420SOL    HW2 9710  -0.034   3.550   4.146
 2420SOL    HW3 9711   0.032   3.485   4.026
 2420SOL    MW4 9712   0.035   3.511   4.110
 2421SOL     OW 9713   0.282   3.620   4.263
 2421SOL    HW2 9714   0.350   3.553   4.255
 2421SOL    HW3 9715   0.210   3.588   4.210
 2421SOL    MW4 9716   0.282   3.607   4.255
 2422SOL     OW 9717   0.271   3.873   4.173
 2422SOL    HW2 9718   0.188   3.910   4.205
 2422SOL    HW3 9719   0.279   3.790   4.220
 2422SOL    MW4 9720   0.261   3.867   4.184
 2423SOL     OW 9721   0.013   3.973   4.221
 2423SOL    HW2 9722  -0.013   3.979   4.313
 2423SOL    HW3 9723  -0.069   3.954   4.175
 2423SOL    MW4 9724  -0.002   3.971   4.227
 2424SOL     OW 9725   4.444   4.244   4.151
 2424SOL    HW2 9726   4.468   4.154   4.173
 2424SOL    HW3 9727   4.452   4.249   4.056
 2424SOL    MW4 9728   4.448   4.233   4.141
 2425SOL     OW 9729   0.176   4.389   4.225
 2425SOL    HW2 9730   0.185   4.377   4.319
 2425SOL    HW3 9731   0.088   4.358   4.205
 2425SOL    MW4 9732   0.166   4.383   4.235
 2426SOL     OW 9733   0.690   4.639   4.125
 2426SOL    HW2 9734   0.613   4.677   4.168
 2426SOL    HW3 9735   0.676   4.656   4.032
 2426SOL    MW4 9736   0.678   4.646   4.119
 2427SOL     OW 9737   0.484   0.109   4.269
 2427SOL    HW2 9738   0.537   0.110   4.348
 2427SOL    HW3 9739   0.468   0.201   4.249
 2427SOL    MW4 9740   0.489   0.121   4.277
 2428SOL     OW 9741   0.433   0.363   4.153
 2428SOL    HW2 9742   0.508   0.413   4.185
 2428SOL    HW3 9743   0.448   0.354   4.059
 2428SOL    MW4 9744   0.445   0.368   4.145
 2429SOL     OW 9745   0.671   0.486   4.231
 2429SOL    HW2 9746   0.750   0.439   4.203
 2429SOL    HW3 9747   0.683   0.575   4.198
 2429SOL    MW4 9748   0.683   0.491   4.223
 2430SOL     OW 9749   0.691   0.760   4.172
 2430SOL    HW2 9750   0.603   0.792   4.193
 2430SOL    HW3 9751   0.697   0.767   4.077
 2430SOL    MW4 9752   0.680   0.765   4.162
 2431SOL     OW 9753   0.450   0.892   4.237
 2431SOL    HW2 9754   0.458   0.980   4.201
 2431SOL    HW3 9755   0.372   0.856   4.196
 2431SOL    MW4 9756   0.441   0.899   4.227
 2432SOL     OW 9757   0.473   1.151   4.158
 2432SOL    HW2 9758   0.563   1.176   4.180
 2432SOL    HW3 9759   0.466   1.167   4.064
 2432SOL    MW4 9760   0.484   1.156   4.149
 2433SOL     OW 9761   0.719   1.254   4.256
 2433SOL    HW2 9762   0.716   1.259   4.352
 2433SOL    HW3 9763   0.670   1.331   4.227
 2433SOL    MW4 9764   0.712   1.265   4.265
 2434SOL     OW 9765   0.631   1.508   4.174
 2434SOL    HW2 9766   0.724   1.529   4.184
 2434SOL    HW3 9767   0.619   1.497   4.080
 2434SOL    MW4 9768   0.642   1.510   4.163
 2435SOL     OW 9769   0.262   1.545   4.113
 2435SOL    HW2 9770   0.255   1.463   4.163
 2435SOL    HW3 9771   0.181   1.592   4.133
 2435SOL    MW4 9772   0.250   1.540   4.122
 2436SOL     OW 9773   0.489   1.955   4.164
 2436SOL    HW2 9774   0.487   1.871   4.210
 2436SOL    HW3 9775   0.475   1.933   4.072
 2436SOL    MW4 9776   0.487   1.941   4.158
 2437SOL     OW 9777   0.694   2.112   4.229
 2437SOL    HW2 9778   0.694   2.125   4.324
 2437SOL    HW3 9779   0.609   2.075   4.209
 2437SOL    MW4 9780   0.683   2.109   4.239
 2438SOL     OW 9781   0.681   2.343   4.085
 2438SOL    HW2 9782   0.708   2.272   4.144
 2438SOL    HW3 9783   0.668   2.300   4.000
 2438SOL    MW4 9784   0.683   2.328   4.081
 2439SOL     OW 9785   0.451   2.412   4.285
 2439SOL    HW2 9786   0.436   2.502   4.254
 2439SOL    HW3 9787   0.521   2.379   4.230
 2439SOL    MW4 9788   0.458   2.420   4.274
 2440SOL     OW 9789   0.476   2.666   4.191
 2440SOL    HW2 9790   0.568   2.686   4.207
 2440SOL    HW3 9791   0.459   2.697   4.102
 2440SOL    MW4 9792   0.486   2.673   4.181
 2441SOL     OW 9793   0.682   2.872   4.210
 2441SOL    HW2 9794   0.704   2.884   4.302
 2441SOL    HW3 9795   0.665   2.961   4.177
 2441SOL    MW4 9796   0.682   2.885   4.217
 2442SOL     OW 9797   0.659   3.134   4.123
 2442SOL    HW2 9798   0.733   3.186   4.155
 2442SOL    HW3 9799   0.588   3.152   4.184
 2442SOL    MW4 9800   0.660   3.143   4.135
 2443SOL     OW 9801   0.472   3.195   4.292
 2443SOL    HW2 9802   0.486   3.196   4.387
 2443SOL    HW3 9803   0.471   3.287   4.267
 2443SOL    MW4 9804   0.474   3.207   4.301
 2444SOL     OW 9805   0.496   3.448   4.178
 2444SOL    HW2 9806   0.581   3.489   4.193
 2444SOL    HW3 9807   0.490   3.440   4.083
 2444SOL    MW4 9808   0.507   3.452   4.167
 2445SOL     OW 9809   0.706   3.646   4.272
 2445SOL    HW2 9810   0.733   3.688   4.354
 2445SOL    HW3 9811   0.783   3.597   4.244
 2445SOL    MW4 9812   0.719   3.645   4.279
 2446SOL     OW 9813   0.738   3.883   4.142
 2446SOL    HW2 9814   0.661   3.932   4.171
 2446SOL    HW3 9815   0.728   3.797   4.182
 2446SOL    MW4 9816   0.726   3.878   4.151
 2447SOL     OW 9817   0.512   3.984   4.261
 2447SOL    HW2 9818   0.500   4.078   4.245
 2447SOL    HW3 9819   0.435   3.943   4.222
 2447SOL    MW4 9820   0.500   3.991   4.254
 2448SOL     OW 9821   0.443   4.248   4.188
 2448SOL    HW2 9822   0.354   4.275   4.212
 2448SOL    HW3 9823   0.438   4.229   4.094
 2448SOL    MW4 9824   0.430   4.249   4.178
 2449SOL     OW 9825   0.667   4.383   4.245
 2449SOL    HW2 9826   0.589   4.332   4.225
 2449SOL    HW3 9827   0.662   4.458   4.184
 2449SOL    MW4 9828   0.656   4.386   4.234
 2450SOL     OW 9829   1.152   0.019   4.111
 2450SOL    HW2 9830   1.149  -0.070   4.146
 2450SOL    HW3 9831   1.120   0.011   4.021
 2450SOL    MW4 9832   1.147   0.006   4.104
 2451SOL     OW 9833   0.903   0.091   4.279
 2451SOL    HW2 9834   0.986   0.068   4.237
 2451SOL    HW3 9835   0.839   0.034   4.237
 2451SOL    MW4 9836   0.906   0.080   4.268
 2452SOL     OW 9837   0.887   0.335   4.146
 2452SOL    HW2 9838   0.971   0.375   4.171
 2452SOL    HW3 9839   0.888   0.249   4.188
 2452SOL    MW4 9840   0.898   0.329   4.155
 2453SOL     OW 9841   1.117   0.464   4.216
 2453SOL    HW2 9842   1.136   0.482   4.308
 2453SOL    HW3 9843   1.198   0.427   4.181
 2453SOL    MW4 9844   1.130   0.461   4.223
 2454SOL     OW 9845   1.137   0.752   4.140
 2454SOL    HW2 9846   1.210   0.814   4.145
 2454SOL    HW3 9847   1.169   0.674   4.186
 2454SOL    MW4 9848   1.151   0.750   4.147
 2455SOL     OW 9849   0.919   0.893   4.260
 2455SOL    HW2 9850   0.996   0.841   4.240
 2455SOL    HW3 9851   0.845   0.837   4.239
 2455SOL    MW4 9852   0.920   0.879   4.255
 2456SOL     OW 9853   0.948   1.161   4.142
 2456SOL    HW2 9854   0.954   1.078   4.189
 2456SOL    HW3 9855   0.875   1.207   4.184
 2456SOL    MW4 9856   0.939   1.156   4.154
 2457SOL     OW 9857   1.179   1.320   4.210
 2457SOL    HW2 9858   1.191   1.315   4.305
 2457SOL    HW3 9859   1.104   1.263   4.192
 2457SOL    MW4 9860   1.171   1.311   4.220
 2458SOL     OW 9861   1.095   1.560   4.109
 2458SOL    HW2 9862   1.013   1.583   4.152
 2458SOL    HW3 9863   1.122   1.478   4.151
 2458SOL    MW4 9864   1.088   1.552   4.120
 2459SOL     OW 9865   0.875   1.633   4.246
 2459SOL    HW2 9866   0.876   1.608   4.338
 2459SOL    HW3 9867   0.861   1.728   4.247
 2459SOL    MW4 9868   0.873   1.642   4.258
 2460SOL     OW 9869   0.867   1.896   4.176
 2460SOL    HW2 9870   0.816   1.975   4.195
 2460SOL    HW3 9871   0.852   1.881   4.083
 2460SOL    MW4 9872   0.858   1.905   4.166
 2461SOL     OW 9873   1.076   2.059   4.224
 2461SOL    HW2 9874   1.099   2.045   4.316
 2461SOL    HW3 9875   1.009   1.993   4.206
 2461SOL    MW4 9876   1.070   2.049   4.234
 2462SOL     OW 9877   1.078   2.329   4.136
 2462SOL    HW2 9878   1.148   2.367   4.190
 2462SOL    HW3 9879   1.081   2.235   4.154
 2462SOL    MW4 9880   1.088   2.322   4.146
 2463SOL     OW 9881   0.871   2.492   4.236
 2463SOL    HW2 9882   0.946   2.443   4.202
 2463SOL    HW3 9883   0.796   2.458   4.187
 2463SOL    MW4 9884   0.871   2.481   4.225
 2464SOL     OW 9885   0.881   2.726   4.097
 2464SOL    HW2 9886   0.868   2.646   4.148
 2464SOL    HW3 9887   0.807   2.782   4.121
 2464SOL    MW4 9888   0.869   2.723   4.107
 2465SOL     OW 9889   1.095   2.805   4.257
 2465SOL    HW2 9890   1.099   2.897   4.233
 2465SOL    HW3 9891   1.034   2.766   4.194
 2465SOL    MW4 9892   1.087   2.812   4.246
 2466SOL     OW 9893   1.129   3.072   4.166
 2466SOL    HW2 9894   1.211   3.104   4.204
 2466SOL    HW3 9895   1.147   3.067   4.072
 2466SOL    MW4 9896   1.142   3.076   4.158
 2467SOL     OW 9897   0.898   3.251   4.238
 2467SOL    HW2 9898   0.907   3.267   4.332
 2467SOL    HW3 9899   0.975   3.197   4.216
 2467SOL    MW4 9900   0.910   3.246   4.247
 2468SOL     OW 9901   0.931   3.509   4.158
 2468SOL    HW2 9902   0.923   3.416   4.178
 2468SOL    HW3 9903   0.938   3.513   4.062
 2468SOL    MW4 9904   0.931   3.497   4.148
 2469SOL     OW 9905   1.157   3.602   4.285
 2469SOL    HW2 9906   1.173   3.678   4.230
 2469SOL    HW3 9907   1.079   3.561   4.248
 2469SOL    MW4 9908   1.149   3.606   4.273
 2470SOL     OW 9909   1.182   3.857   4.179
 2470SOL    HW2 9910   1.262   3.894   4.216
 2470SOL    HW3 9911   1.112   3.913   4.210
 2470SOL    MW4 9912   1.183   3.869   4.188
 2471SOL     OW 9913   0.970   4.007   4.251
 2471SOL    HW2 9914   0.954   4.101   4.238
 2471SOL    HW3 9915   0.890   3.965   4.220
 2471SOL    MW4 9916   0.958   4.014   4.245
 2472SOL     OW 9917   0.916   4.276   4.156
 2472SOL    HW2 9918   0.990   4.321   4.196
 2472SOL    HW3 9919   0.839   4.317   4.196
 2472SOL    MW4 9920   0.915   4.288   4.167
 2473SOL     OW 9921   1.150   4.424   4.226
 2473SOL    HW2 9922   1.162   4.409   4.319
 2473SOL    HW3 9923   1.207   4.360   4.183
 2473SOL    MW4 9924   1.159   4.413   4.232
 2474SOL     OW 9925   1.584   0.036   4.101
 2474SOL    HW2 9926   1.661   0.067   4.150
 2474SOL    HW3 9927   1.509   0.064   4.154
 2474SOL    MW4 9928   1.585   0.044   4.115
 2475SOL     OW 9929   1.355   0.119   4.260
 2475SOL    HW2 9930   1.339   0.095   4.351
 2475SOL    HW3 9931   1.290   0.069   4.210
 2475SOL    MW4 9932   1.344   0.109   4.266
 2476SOL     OW 9933   1.362   0.388   4.137
 2476SOL    HW2 9934   1.450   0.424   4.149
 2476SOL    HW3 9935   1.370   0.296   4.162
 2476SOL    MW4 9936   1.375   0.381   4.142
 2477SOL     OW 9937   1.636   0.485   4.159
 2477SOL    HW2 9938   1.648   0.467   4.252
 2477SOL    HW3 9939   1.611   0.577   4.156
 2477SOL    MW4 9940   1.634   0.495   4.171
 2478SOL     OW 9941   1.568   0.762   4.143
 2478SOL    HW2 9942   1.644   0.816   4.165
 2478SOL    HW3 9943   1.555   0.776   4.049
 2478SOL    MW4 9944   1.577   0.771   4.133
 2479SOL     OW 9945   1.348   0.905   4.249
 2479SOL    HW2 9946   1.363   0.998   4.232
 2479SOL    HW3 9947   1.427   0.862   4.215
 2479SOL    MW4 9948   1.361   0.912   4.242
 2480SOL     OW 9949   1.409   1.178   4.163
 2480SOL    HW2 9950   1.329   1.228   4.182
 2480SOL    HW3 9951   1.398   1.149   4.073
 2480SOL    MW4 9952   1.397   1.181   4.154
 2481SOL     OW 9953   1.615   1.335   4.239
 2481SOL    HW2 9954   1.610   1.329   4.334
 2481SOL    HW3 9955   1.543   1.279   4.208
 2481SOL    MW4 9956   1.605   1.327   4.247
 2482SOL     OW 9957   1.560   1.578   4.125
 2482SOL    HW2 9958   1.483   1.608   4.175
 2482SOL    HW3 9959   1.584   1.495   4.166
 2482SOL    MW4 9960   1.553   1.571   4.137
 2483SOL     OW 9961   1.312   1.664   4.256
 2483SOL    HW2 9962   1.302   1.759   4.255
 2483SOL    HW3 9963   1.236   1.631   4.208
 2483SOL    MW4 9964   1.300   1.672   4.250
 2484SOL     OW 9965   1.304   1.929   4.165
 2484SOL    HW2 9966   1.373   1.982   4.205
 2484SOL    HW3 9967   1.224   1.981   4.175
 2484SOL    MW4 9968   1.303   1.942   4.172
 2485SOL     OW 9969   1.549   2.044   4.265
 2485SOL    HW2 9970   1.631   1.998   4.247
 2485SOL    HW3 9971   1.567   2.135   4.243
 2485SOL    MW4 9972   1.562   2.050   4.260
 2486SOL     OW 9973   1.583   2.313   4.185
 2486SOL    HW2 9974   1.668   2.324   4.228
 2486SOL    HW3 9975   1.602   2.324   4.091
 2486SOL    MW4 9976   1.597   2.316   4.178
 2487SOL     OW 9977   1.541   2.810   4.330
 2487SOL    HW2 9978   1.520   2.833   4.421
 2487SOL    HW3 9979   1.637   2.802   4.329
 2487SOL    MW4 9980   1.551   2.812   4.342
 2488SOL     OW 9981   1.346   2.675   4.193
 2488SOL    HW2 9982   1.422   2.708   4.241
 2488SOL    HW3 9983   1.271   2.720   4.231
 2488SOL    MW4 9984   1.346   2.685   4.204
 2489SOL     OW 9985   1.657   2.299   4.824
 2489SOL    HW2 9986   1.652   2.392   4.844
 2489SOL    HW3 9987   1.748   2.286   4.795
 2489SOL    MW4 9988   1.668   2.310   4.823
 2490SOL     OW 9989   1.562   3.023   4.141
 2490SOL    HW2 9990   1.641   3.068   4.172
 2490SOL    HW3 9991   1.563   2.939   4.187
 2490SOL    MW4 9992   1.573   3.018   4.151
 2491SOL     OW 9993   1.361   3.184   4.262
 2491SOL    HW2 9994   1.430   3.144   4.209
 2491SOL    HW3 9995   1.351   3.272   4.225
 2491SOL    MW4 9996   1.369   3.190   4.250
 2492SOL     OW 9997   1.366   3.441   4.175
 2492SOL    HW2 9998   1.300   3.504   4.205
 2492SOL    HW3 9999   1.346   3.429   4.082
 2492SOL    MW410000   1.354   3.448   4.166
 2493SOL     OW10001   1.593   3.587   4.225
 2493SOL    HW210002   1.587   3.587   4.321
 2493SOL    HW310003   1.525   3.527   4.196
 2493SOL    MW410004   1.583   3.579   4.234
 2494SOL     OW10005   1.619   3.859   4.127
 2494SOL    HW210006   1.550   3.907   4.173
 2494SOL    HW310007   1.619   3.772   4.167
 2494SOL    MW410008   1.610   3.854   4.138
 2495SOL     OW10009   1.409   4.012   4.253
 2495SOL    HW210010   1.438   4.049   4.337
 2495SOL    HW310011   1.389   4.089   4.199
 2495SOL    MW410012   1.410   4.027   4.257
 2496SOL     OW10013   1.340   4.251   4.135
 2496SOL    HW210014   1.408   4.312   4.162
 2496SOL    HW310015   1.331   4.264   4.041
 2496SOL    MW410016   1.347   4.261   4.126
 2497SOL     OW10017   1.560   4.417   4.173
 2497SOL    HW210018   1.575   4.500   4.128
 2497SOL    HW310019   1.645   4.373   4.172
 2497SOL    MW410020   1.573   4.422   4.167
 2498SOL     OW10021   2.039   4.606   4.143
 2498SOL    HW210022   1.958   4.640   4.182
 2498SOL    HW310023   2.031   4.624   4.050
 2498SOL    MW410024   2.027   4.612   4.136
 2499SOL     OW10025   1.825   0.111   4.227
 2499SOL    HW210026   1.814   0.147   4.315
 2499SOL    HW310027   1.833   0.187   4.170
 2499SOL    MW410028   1.825   0.126   4.231
 2500SOL     OW10029   1.866   0.343   4.090
 2500SOL    HW210030   1.938   0.395   4.126
 2500SOL    HW310031   1.787   0.393   4.112
 2500SOL    MW410032   1.865   0.357   4.097
 2501SOL     OW10033   2.043   0.541   4.195
 2501SOL    HW210034   2.054   0.555   4.289
 2501SOL    HW310035   2.124   0.498   4.167
 2501SOL    MW410036   2.055   0.537   4.203
 2502SOL     OW10037   1.997   0.803   4.137
 2502SOL    HW210038   2.078   0.843   4.170
 2502SOL    HW310039   2.008   0.710   4.154
 2502SOL    MW410040   2.009   0.796   4.144
 2503SOL     OW10041   1.760   0.931   4.220
 2503SOL    HW210042   1.781   1.016   4.181
 2503SOL    HW310043   1.840   0.880   4.209
 2503SOL    MW410044   1.773   0.936   4.213
 2504SOL     OW10045   1.813   1.184   4.109
 2504SOL    HW210046   1.893   1.210   4.155
 2504SOL    HW310047   1.747   1.247   4.138
 2504SOL    MW410048   1.815   1.196   4.119
 2505SOL     OW10049   2.042   1.289   4.212
 2505SOL    HW210050   2.128   1.260   4.181
 2505SOL    HW310051   2.032   1.378   4.178
 2505SOL    MW410052   2.052   1.297   4.204
 2506SOL     OW10053   2.004   1.541   4.140
 2506SOL    HW210054   2.073   1.600   4.169
 2506SOL    HW310055   2.012   1.539   4.045
 2506SOL    MW410056   2.014   1.549   4.131
 2507SOL     OW10057   1.794   1.672   4.256
 2507SOL    HW210058   1.865   1.616   4.226
 2507SOL    HW310059   1.721   1.652   4.196
 2507SOL    MW410060   1.794   1.662   4.244
 2508SOL     OW10061   1.826   1.944   4.197
 2508SOL    HW210062   1.810   1.857   4.234
 2508SOL    HW310063   1.901   1.978   4.246
 2508SOL    MW410064   1.834   1.937   4.208
 2509SOL     OW10065   1.799   2.297   4.358
 2509SOL    HW210066   1.797   2.383   4.402
 2509SOL    HW310067   1.884   2.294   4.315
 2509SOL    MW410068   1.810   2.308   4.358
 2510SOL     OW10069   2.326   2.351   4.126
 2510SOL    HW210070   2.343   2.264   4.163
 2510SOL    HW310071   2.383   2.356   4.050
 2510SOL    MW410072   2.336   2.340   4.121
 2511SOL     OW10073   1.813   2.883   4.382
 2511SOL    HW210074   1.829   2.849   4.294
 2511SOL    HW310075   1.898   2.879   4.425
 2511SOL    MW410076   1.826   2.878   4.376
 2512SOL     OW10077   1.821   2.790   4.126
 2512SOL    HW210078   1.872   2.724   4.171
 2512SOL    HW310079   1.880   2.864   4.116
 2512SOL    MW410080   1.835   2.791   4.130
 2513SOL     OW10081   2.059   3.116   4.338
 2513SOL    HW210082   2.066   3.047   4.404
 2513SOL    HW310083   2.067   3.069   4.254
 2513SOL    MW410084   2.061   3.100   4.335
 2514SOL     OW10085   2.244   2.782   4.172
 2514SOL    HW210086   2.328   2.824   4.189
 2514SOL    HW310087   2.211   2.759   4.258
 2514SOL    MW410088   2.251   2.784   4.185
 2515SOL     OW10089   1.781   3.184   4.234
 2515SOL    HW210090   1.807   3.274   4.211
 2515SOL    HW310091   1.856   3.150   4.283
 2515SOL    MW410092   1.795   3.192   4.238
 2516SOL     OW10093   1.832   3.450   4.154
 2516SOL    HW210094   1.755   3.493   4.190
 2516SOL    HW310095   1.807   3.429   4.064
 2516SOL    MW410096   1.818   3.453   4.147
 2517SOL     OW10097   2.037   3.620   4.275
 2517SOL    HW210098   2.071   3.702   4.239
 2517SOL    HW310099   1.979   3.586   4.207
 2517SOL    MW410100   2.034   3.627   4.262
 2518SOL     OW10101   2.047   3.877   4.141
 2518SOL    HW210102   1.981   3.935   4.179
 2518SOL    HW310103   2.022   3.868   4.049
 2518SOL    MW410104   2.035   3.884   4.134
 2519SOL     OW10105   1.822   4.025   4.221
 2519SOL    HW210106   1.811   4.110   4.179
 2519SOL    HW310107   1.760   3.967   4.177
 2519SOL    MW410108   1.813   4.029   4.210
 2520SOL     OW10109   1.803   4.306   4.152
 2520SOL    HW210110   1.884   4.333   4.196
 2520SOL    HW310111   1.823   4.312   4.059
 2520SOL    MW410112   1.816   4.311   4.146
 2521SOL     OW10113   2.060   4.370   4.277
 2521SOL    HW210114   2.087   4.397   4.365
 2521SOL    HW310115   2.058   4.452   4.226
 2521SOL    MW410116   2.063   4.385   4.282
 2522SOL     OW10117   2.462   4.643   4.109
 2522SOL    HW210118   2.544   4.674   4.146
 2522SOL    HW310119   2.457   4.551   4.136
 2522SOL    MW410120   2.472   4.635   4.117
 2523SOL     OW10121   2.258   0.129   4.189
 2523SOL    HW210122   2.324   0.064   4.164
 2523SOL    HW310123   2.175   0.082   4.182
 2523SOL    MW410124   2.256   0.114   4.185
 2524SOL     OW10125   2.259   0.398   4.121
 2524SOL    HW210126   2.267   0.304   4.137
 2524SOL    HW310127   2.255   0.405   4.025
 2524SOL    MW410128   2.260   0.387   4.110
 2525SOL     OW10129   2.475   0.508   4.223
 2525SOL    HW210130   2.490   0.516   4.317
 2525SOL    HW310131   2.400   0.448   4.216
 2525SOL    MW410132   2.467   0.501   4.235
 2526SOL     OW10133   2.460   0.753   4.112
 2526SOL    HW210134   2.447   0.660   4.132
 2526SOL    HW310135   2.457   0.757   4.017
 2526SOL    MW410136   2.458   0.741   4.102
 2527SOL     OW10137   2.245   0.904   4.219
 2527SOL    HW210138   2.241   0.900   4.315
 2527SOL    HW310139   2.318   0.846   4.196
 2527SOL    MW410140   2.254   0.896   4.229
 2528SOL     OW10141   2.285   1.171   4.159
 2528SOL    HW210142   2.355   1.217   4.206
 2528SOL    HW310143   2.288   1.082   4.193
 2528SOL    MW410144   2.295   1.166   4.170
 2529SOL     OW10145   2.506   1.297   4.249
 2529SOL    HW210146   2.531   1.274   4.338
 2529SOL    HW310147   2.563   1.244   4.193
 2529SOL    MW410148   2.517   1.287   4.253
 2530SOL     OW10149   2.435   1.546   4.158
 2530SOL    HW210150   2.459   1.466   4.204
 2530SOL    HW310151   2.450   1.526   4.065
 2530SOL    MW410152   2.440   1.533   4.151
 2531SOL     OW10153   2.227   1.707   4.200
 2531SOL    HW210154   2.314   1.667   4.190
 2531SOL    HW310155   2.240   1.799   4.177
 2531SOL    MW410156   2.240   1.714   4.196
 2532SOL     OW10157   2.234   1.990   4.167
 2532SOL    HW210158   2.314   2.030   4.202
 2532SOL    HW310159   2.168   2.004   4.235
 2532SOL    MW410160   2.236   1.997   4.181
 2533SOL     OW10161   2.454   2.097   4.285
 2533SOL    HW210162   2.436   2.066   4.374
 2533SOL    HW310163   2.523   2.039   4.253
 2533SOL    MW410164   2.461   2.085   4.293
 2534SOL     OW10165   2.737   2.533   4.256
 2534SOL    HW210166   2.684   2.460   4.289
 2534SOL    HW310167   2.768   2.577   4.335
 2534SOL    MW410168   2.734   2.529   4.271
 2535SOL     OW10169   2.465   2.382   4.573
 2535SOL    HW210170   2.405   2.416   4.508
 2535SOL    HW310171   2.495   2.460   4.621
 2535SOL    MW410172   2.461   2.397   4.571
 2536SOL     OW10173   1.951   2.620   4.304
 2536SOL    HW210174   2.029   2.651   4.350
 2536SOL    HW310175   1.971   2.530   4.280
 2536SOL    MW410176   1.964   2.612   4.307
 2537SOL     OW10177   2.498   2.756   4.462
 2537SOL    HW210178   2.459   2.693   4.402
 2537SOL    HW310179   2.423   2.801   4.501
 2537SOL    MW410180   2.483   2.754   4.460
 2538SOL     OW10181   2.481   3.174   4.183
 2538SOL    HW210182   2.405   3.190   4.239
 2538SOL    HW310183   2.556   3.204   4.235
 2538SOL    MW410184   2.481   3.180   4.197
 2539SOL     OW10185   2.046   2.964   4.111
 2539SOL    HW210186   2.063   2.998   4.023
 2539SOL    HW310187   2.120   2.906   4.129
 2539SOL    MW410188   2.058   2.961   4.102
 2540SOL     OW10189   2.236   3.448   4.169
 2540SOL    HW210190   2.256   3.364   4.210
 2540SOL    HW310191   2.170   3.488   4.226
 2540SOL    MW410192   2.230   3.442   4.182
 2541SOL     OW10193   2.472   3.579   4.215
 2541SOL    HW210194   2.395   3.531   4.185
 2541SOL    HW310195   2.474   3.657   4.160
 2541SOL    MW410196   2.462   3.583   4.204
 2542SOL     OW10197   2.486   3.835   4.102
 2542SOL    HW210198   2.547   3.897   4.141
 2542SOL    HW310199   2.468   3.870   4.015
 2542SOL    MW410200   2.491   3.848   4.096
 2543SOL     OW10201   2.290   3.981   4.235
 2543SOL    HW210202   2.351   3.914   4.205
 2543SOL    HW310203   2.205   3.952   4.202
 2543SOL    MW410204   2.287   3.968   4.226
 2544SOL     OW10205   2.228   4.230   4.109
 2544SOL    HW210206   2.264   4.147   4.139
 2544SOL    HW310207   2.181   4.265   4.184
 2544SOL    MW410208   2.227   4.224   4.123
 2545SOL     OW10209   2.436   4.384   4.221
 2545SOL    HW210210   2.514   4.332   4.203
 2545SOL    HW310211   2.368   4.344   4.167
 2545SOL    MW410212   2.437   4.372   4.211
 2546SOL     OW10213   2.922   4.632   4.165
 2546SOL    HW210214   3.014   4.652   4.185
 2546SOL    HW310215   2.909   4.544   4.200
 2546SOL    MW410216   2.932   4.623   4.173
 2547SOL     OW10217   2.686   0.101   4.202
 2547SOL    HW210218   2.705   0.191   4.174
 2547SOL    HW310219   2.770   0.055   4.191
 2547SOL    MW410220   2.700   0.107   4.197
 2548SOL     OW10221   2.689   0.379   4.132
 2548SOL    HW210222   2.630   0.448   4.162
 2548SOL    HW310223   2.672   0.371   4.039
 2548SOL    MW410224   2.679   0.387   4.124
 2549SOL     OW10225   2.925   0.484   4.233
 2549SOL    HW210226   2.911   0.565   4.185
 2549SOL    HW310227   2.852   0.427   4.207
 2549SOL    MW410228   2.914   0.487   4.223
 2550SOL     OW10229   2.900   0.737   4.140
 2550SOL    HW210230   2.984   0.775   4.166
 2550SOL    HW310231   2.903   0.734   4.045
 2550SOL    MW410232   2.911   0.742   4.131
 2551SOL     OW10233   2.671   0.838   4.264
 2551SOL    HW210234   2.749   0.792   4.233
 2551SOL    HW310235   2.601   0.806   4.208
 2551SOL    MW410236   2.672   0.828   4.252
 2552SOL     OW10237   2.664   1.093   4.149
 2552SOL    HW210238   2.670   1.005   4.184
 2552SOL    HW310239   2.686   1.084   4.056
 2552SOL    MW410240   2.668   1.080   4.142
 2553SOL     OW10241   2.890   1.251   4.204
 2553SOL    HW210242   2.974   1.208   4.187
 2553SOL    HW310243   2.824   1.186   4.178
 2553SOL    MW410244   2.892   1.236   4.198
 2554SOL     OW10245   2.851   1.525   4.141
 2554SOL    HW210246   2.926   1.581   4.162
 2554SOL    HW310247   2.880   1.437   4.166
 2554SOL    MW410248   2.865   1.521   4.147
 2555SOL     OW10249   2.658   1.660   4.278
 2555SOL    HW210250   2.726   1.610   4.232
 2555SOL    HW310251   2.576   1.624   4.245
 2555SOL    MW410252   2.657   1.648   4.267
 2556SOL     OW10253   2.649   1.934   4.181
 2556SOL    HW210254   2.653   1.846   4.218
 2556SOL    HW310255   2.677   1.923   4.090
 2556SOL    MW410256   2.653   1.921   4.174
 2557SOL     OW10257   2.881   2.081   4.226
 2557SOL    HW210258   2.876   2.173   4.200
 2557SOL    HW310259   2.792   2.048   4.214
 2557SOL    MW410260   2.868   2.089   4.221
 2558SOL     OW10261   2.911   2.353   4.123
 2558SOL    HW210262   2.994   2.386   4.156
 2558SOL    HW310263   2.845   2.409   4.165
 2558SOL    MW410264   2.913   2.365   4.133
 2559SOL     OW10265   2.707   2.773   4.109
 2559SOL    HW210266   2.627   2.821   4.129
 2559SOL    HW310267   2.700   2.692   4.160
 2559SOL    MW410268   2.696   2.769   4.118
 2560SOL     OW10269   2.489   2.898   4.220
 2560SOL    HW210270   2.488   2.880   4.314
 2560SOL    HW310271   2.492   2.993   4.214
 2560SOL    MW410272   2.489   2.908   4.232
 2561SOL     OW10273   2.945   2.938   4.105
 2561SOL    HW210274   2.865   2.887   4.118
 2561SOL    HW310275   2.927   2.992   4.028
 2561SOL    MW410276   2.932   2.939   4.096
 2562SOL     OW10277   2.941   3.104   4.326
 2562SOL    HW210278   2.921   3.038   4.392
 2562SOL    HW310279   2.947   3.056   4.244
 2562SOL    MW410280   2.939   3.089   4.324
 2563SOL     OW10281   2.687   3.231   4.351
 2563SOL    HW210282   2.688   3.283   4.431
 2563SOL    HW310283   2.772   3.187   4.350
 2563SOL    MW410284   2.699   3.232   4.361
 2564SOL     OW10285   2.711   3.441   4.149
 2564SOL    HW210286   2.723   3.368   4.209
 2564SOL    HW310287   2.628   3.480   4.176
 2564SOL    MW410288   2.702   3.436   4.160
 2565SOL     OW10289   2.953   3.597   4.202
 2565SOL    HW210290   2.946   3.594   4.298
 2565SOL    HW310291   2.883   3.540   4.171
 2565SOL    MW410292   2.943   3.590   4.211
 2566SOL     OW10293   2.905   3.863   4.150
 2566SOL    HW210294   2.989   3.910   4.147
 2566SOL    HW310295   2.927   3.774   4.176
 2566SOL    MW410296   2.919   3.858   4.153
 2567SOL     OW10297   2.659   3.978   4.258
 2567SOL    HW210298   2.662   4.069   4.229
 2567SOL    HW310299   2.741   3.941   4.227
 2567SOL    MW410300   2.670   3.985   4.250
 2568SOL     OW10301   2.651   4.243   4.159
 2568SOL    HW210302   2.735   4.277   4.190
 2568SOL    HW310303   2.648   4.268   4.066
 2568SOL    MW410304   2.662   4.251   4.151
 2569SOL     OW10305   2.890   4.372   4.220
 2569SOL    HW210306   2.917   4.361   4.312
 2569SOL    HW310307   2.961   4.333   4.170
 2569SOL    MW410308   2.903   4.366   4.226
 2570SOL     OW10309   3.390   4.609   4.146
 2570SOL    HW210310   3.464   4.639   4.200
 2570SOL    HW310311   3.360   4.530   4.190
 2570SOL    MW410312   3.396   4.603   4.159
 2571SOL     OW10313   3.162   0.055   4.241
 2571SOL    HW210314   3.172   0.053   4.336
 2571SOL    HW310315   3.246   0.025   4.207
 2571SOL    MW410316   3.174   0.051   4.249
 2572SOL     OW10317   3.140   0.303   4.118
 2572SOL    HW210318   3.146   0.231   4.180
 2572SOL    HW310319   3.075   0.362   4.156
 2572SOL    MW410320   3.133   0.302   4.131
 2573SOL     OW10321   3.355   0.458   4.201
 2573SOL    HW210322   3.433   0.416   4.166
 2573SOL    HW310323   3.285   0.396   4.185
 2573SOL    MW410324   3.356   0.444   4.194
 2574SOL     OW10325   3.365   0.725   4.115
 2574SOL    HW210326   3.286   0.764   4.152
 2574SOL    HW310327   3.363   0.634   4.145
 2574SOL    MW410328   3.354   0.718   4.124
 2575SOL     OW10329   3.119   0.832   4.243
 2575SOL    HW210330   3.140   0.818   4.335
 2575SOL    HW310331   3.127   0.926   4.230
 2575SOL    MW410332   3.123   0.843   4.253
 2576SOL     OW10333   3.140   1.102   4.162
 2576SOL    HW210334   3.223   1.106   4.208
 2576SOL    HW310335   3.163   1.112   4.070
 2576SOL    MW410336   3.154   1.103   4.156
 2577SOL     OW10337   3.372   1.098   4.327
 2577SOL    HW210338   3.359   1.051   4.410
 2577SOL    HW310339   3.363   1.190   4.350
 2577SOL    MW410340   3.369   1.104   4.341
 2578SOL     OW10341   3.290   1.355   4.380
 2578SOL    HW210342   3.288   1.419   4.309
 2578SOL    HW310343   3.360   1.385   4.437
 2578SOL    MW410344   3.299   1.368   4.378
 2579SOL     OW10345   3.093   1.674   4.223
 2579SOL    HW210346   3.071   1.657   4.315
 2579SOL    HW310347   3.098   1.770   4.218
 2579SOL    MW410348   3.091   1.685   4.235
 2580SOL     OW10349   3.103   1.949   4.131
 2580SOL    HW210350   3.172   2.013   4.148
 2580SOL    HW310351   3.022   1.998   4.144
 2580SOL    MW410352   3.101   1.964   4.135
 2581SOL     OW10353   3.305   2.119   4.236
 2581SOL    HW210354   3.377   2.055   4.237
 2581SOL    HW310355   3.348   2.203   4.225
 2581SOL    MW410356   3.320   2.121   4.235
 2582SOL     OW10357   3.402   2.366   4.154
 2582SOL    HW210358   3.483   2.407   4.185
 2582SOL    HW310359   3.422   2.339   4.064
 2582SOL    MW410360   3.416   2.368   4.146
 2583SOL     OW10361   3.157   2.440   4.226
 2583SOL    HW210362   3.155   2.534   4.210
 2583SOL    HW310363   3.245   2.413   4.201
 2583SOL    MW410364   3.168   2.448   4.221
 2584SOL     OW10365   3.122   2.717   4.136
 2584SOL    HW210366   3.210   2.744   4.164
 2584SOL    HW310367   3.068   2.795   4.146
 2584SOL    MW410368   3.127   2.731   4.141
 2585SOL     OW10369   3.368   2.800   4.205
 2585SOL    HW210370   3.462   2.786   4.198
 2585SOL    HW310371   3.354   2.889   4.173
 2585SOL    MW410372   3.378   2.810   4.200
 2586SOL     OW10373   3.389   3.082   4.149
 2586SOL    HW210374   3.316   3.129   4.190
 2586SOL    HW310375   3.371   3.088   4.055
 2586SOL    MW410376   3.377   3.089   4.142
 2587SOL     OW10377   3.189   3.221   4.264
 2587SOL    HW210378   3.176   3.288   4.197
 2587SOL    HW310379   3.101   3.185   4.279
 2587SOL    MW410380   3.176   3.225   4.257
 2588SOL     OW10381   3.150   3.441   4.114
 2588SOL    HW210382   3.076   3.497   4.139
 2588SOL    HW310383   3.150   3.441   4.019
 2588SOL    MW410384   3.140   3.449   4.105
 2589SOL     OW10385   3.357   3.609   4.179
 2589SOL    HW210386   3.374   3.593   4.272
 2589SOL    HW310387   3.291   3.543   4.155
 2589SOL    MW410388   3.350   3.598   4.189
 2590SOL     OW10389   3.358   3.882   4.137
 2590SOL    HW210390   3.340   3.793   4.167
 2590SOL    HW310391   3.367   3.874   4.042
 2590SOL    MW410392   3.357   3.869   4.128
 2591SOL     OW10393   3.126   3.997   4.212
 2591SOL    HW210394   3.135   4.007   4.307
 2591SOL    HW310395   3.205   3.950   4.185
 2591SOL    MW410396   3.138   3.992   4.221
 2592SOL     OW10397   3.144   4.248   4.121
 2592SOL    HW210398   3.222   4.283   4.162
 2592SOL    HW310399   3.146   4.154   4.140
 2592SOL    MW410400   3.154   4.240   4.129
 2593SOL     OW10401   3.345   4.376   4.273
 2593SOL    HW210402   3.346   4.373   4.369
 2593SOL    HW310403   3.432   4.344   4.247
 2593SOL    MW410404   3.357   4.372   4.282
 2594SOL     OW10405   3.822   0.009   4.153
 2594SOL    HW210406   3.904   0.057   4.168
 2594SOL    HW310407   3.824  -0.015   4.061
 2594SOL    MW410408   3.833   0.012   4.143
 2595SOL     OW10409   3.589   0.087   4.304
 2595SOL    HW210410   3.566   0.157   4.242
 2595SOL    HW310411   3.678   0.061   4.278
 2595SOL    MW410412   3.598   0.093   4.292
 2596SOL     OW10413   3.575   0.306   4.130
 2596SOL    HW210414   3.647   0.344   4.181
 2596SOL    HW310415   3.595   0.330   4.040
 2596SOL    MW410416   3.587   0.314   4.125
 2597SOL     OW10417   3.795   0.488   4.247
 2597SOL    HW210418   3.839   0.483   4.331
 2597SOL    HW310419   3.738   0.565   4.253
 2597SOL    MW410420   3.793   0.497   4.259
 2598SOL     OW10421   3.799   0.844   4.064
 2598SOL    HW210422   3.741   0.921   4.060
 2598SOL    HW310423   3.795   0.807   3.976
 2598SOL    MW410424   3.791   0.849   4.052
 2599SOL     OW10425   3.618   0.726   4.235
 2599SOL    HW210426   3.531   0.750   4.201
 2599SOL    HW310427   3.679   0.779   4.184
 2599SOL    MW410428   3.614   0.736   4.223
 2600SOL     OW10429   3.598   1.037   4.133
 2600SOL    HW210430   3.520   1.043   4.189
 2600SOL    HW310431   3.569   1.072   4.049
 2600SOL    MW410432   3.584   1.042   4.129
 2601SOL     OW10433   3.734   1.264   4.251
 2601SOL    HW210434   3.685   1.193   4.209
 2601SOL    HW310435   3.736   1.239   4.344
 2601SOL    MW410436   3.728   1.251   4.258
 2602SOL     OW10437   3.743   1.527   4.149
 2602SOL    HW210438   3.723   1.433   4.154
 2602SOL    HW310439   3.801   1.543   4.223
 2602SOL    MW410440   3.748   1.516   4.159
 2603SOL     OW10441   3.537   1.971   4.190
 2603SOL    HW210442   3.555   1.976   4.096
 2603SOL    HW310443   3.520   1.879   4.207
 2603SOL    MW410444   3.537   1.960   4.180
 2604SOL     OW10445   3.333   1.532   4.183
 2604SOL    HW210446   3.357   1.541   4.091
 2604SOL    HW310447   3.245   1.570   4.189
 2604SOL    MW410448   3.325   1.538   4.172
 2605SOL     OW10449   3.804   2.035   4.238
 2605SOL    HW210450   3.831   2.020   4.329
 2605SOL    HW310451   3.712   2.009   4.236
 2605SOL    MW410452   3.796   2.030   4.250
 2606SOL     OW10453   3.838   2.285   4.145
 2606SOL    HW210454   3.829   2.202   4.191
 2606SOL    HW310455   3.842   2.262   4.052
 2606SOL    MW410456   3.837   2.271   4.139
 2607SOL     OW10457   3.660   2.463   4.247
 2607SOL    HW210458   3.664   2.441   4.340
 2607SOL    HW310459   3.718   2.399   4.205
 2607SOL    MW410460   3.668   2.452   4.254
 2608SOL     OW10461   3.657   2.730   4.166
 2608SOL    HW210462   3.668   2.642   4.202
 2608SOL    HW310463   3.637   2.715   4.073
 2608SOL    MW410464   3.656   2.716   4.159
 2609SOL     OW10465   3.865   2.896   4.266
 2609SOL    HW210466   3.850   2.922   4.357
 2609SOL    HW310467   3.795   2.834   4.246
 2609SOL    MW410468   3.854   2.891   4.276
 2610SOL     OW10469   3.816   3.136   4.143
 2610SOL    HW210470   3.814   3.046   4.175
 2610SOL    HW310471   3.821   3.127   4.048
 2610SOL    MW410472   3.816   3.123   4.135
 2611SOL     OW10473   3.593   3.258   4.256
 2611SOL    HW210474   3.678   3.229   4.223
 2611SOL    HW310475   3.530   3.199   4.214
 2611SOL    MW410476   3.596   3.246   4.246
 2612SOL     OW10477   3.585   3.486   4.100
 2612SOL    HW210478   3.575   3.402   4.145
 2612SOL    HW310479   3.503   3.532   4.117
 2612SOL    MW410480   3.573   3.481   4.109
 2613SOL     OW10481   3.791   3.642   4.246
 2613SOL    HW210482   3.876   3.615   4.211
 2613SOL    HW310483   3.727   3.591   4.195
 2613SOL    MW410484   3.794   3.632   4.234
 2614SOL     OW10485   3.781   3.880   4.102
 2614SOL    HW210486   3.716   3.925   4.156
 2614SOL    HW310487   3.788   3.792   4.141
 2614SOL    MW410488   3.773   3.874   4.114
 2615SOL     OW10489   3.591   4.012   4.246
 2615SOL    HW210490   3.595   4.021   4.341
 2615SOL    HW310491   3.508   3.968   4.229
 2615SOL    MW410492   3.581   4.008   4.256
 2616SOL     OW10493   3.566   4.283   4.152
 2616SOL    HW210494   3.637   4.321   4.203
 2616SOL    HW310495   3.582   4.189   4.155
 2616SOL    MW410496   3.578   4.276   4.159
 2617SOL     OW10497   3.807   4.408   4.280
 2617SOL    HW210498   3.879   4.383   4.223
 2617SOL    HW310499   3.796   4.502   4.265
 2617SOL    MW410500   3.815   4.417   4.270
 2618SOL     OW10501   4.283   0.022   4.157
 2618SOL    HW210502   4.274  -0.067   4.191
 2618SOL    HW310503   4.358   0.059   4.204
 2618SOL    MW410504   4.292   0.015   4.168
 2619SOL     OW10505   4.051   0.146   4.233
 2619SOL    HW210506   4.052   0.228   4.183
 2619SOL    HW310507   4.127   0.097   4.201
 2619SOL    MW410508   4.061   0.150   4.222
 2620SOL     OW10509   4.020   0.385   4.116
 2620SOL    HW210510   4.088   0.442   4.152
 2620SOL    HW310511   3.939   0.421   4.151
 2620SOL    MW410512   4.018   0.397   4.125
 2621SOL     OW10513   4.254   0.538   4.207
 2621SOL    HW210514   4.281   0.625   4.177
 2621SOL    HW310515   4.316   0.478   4.167
 2621SOL    MW410516   4.266   0.542   4.198
 2622SOL     OW10517   4.316   0.792   4.124
 2622SOL    HW210518   4.239   0.845   4.143
 2622SOL    HW310519   4.309   0.774   4.030
 2622SOL    MW410520   4.305   0.797   4.114
 2623SOL     OW10521   4.066   0.932   4.170
 2623SOL    HW210522   4.054   1.024   4.148
 2623SOL    HW310523   3.984   0.890   4.143
 2623SOL    MW410524   4.054   0.938   4.164
 2624SOL     OW10525   3.988   1.211   4.127
 2624SOL    HW210526   4.061   1.241   4.182
 2624SOL    HW310527   3.910   1.236   4.175
 2624SOL    MW410528   3.987   1.219   4.140
 2625SOL     OW10529   4.248   1.273   4.210
 2625SOL    HW210530   4.246   1.270   4.306
 2625SOL    HW310531   4.332   1.235   4.186
 2625SOL    MW410532   4.258   1.267   4.220
 2626SOL     OW10533   4.294   1.551   4.137
 2626SOL    HW210534   4.265   1.464   4.164
 2626SOL    HW310535   4.263   1.561   4.048
 2626SOL    MW410536   4.286   1.541   4.129
 2627SOL     OW10537   4.106   1.721   4.285
 2627SOL    HW210538   4.162   1.756   4.354
 2627SOL    HW310539   4.163   1.661   4.237
 2627SOL    MW410540   4.121   1.718   4.288
 2628SOL     OW10541   4.022   1.940   4.125
 2628SOL    HW210542   4.033   1.867   4.186
 2628SOL    HW310543   3.948   1.989   4.160
 2628SOL    MW410544   4.014   1.937   4.138
 2629SOL     OW10545   0.015   1.938   4.134
 2629SOL    HW210546   0.079   2.002   4.164
 2629SOL    HW310547  -0.070   1.981   4.147
 2629SOL    MW410548   0.012   1.952   4.140
 2630SOL     OW10549   4.229   2.336   4.094
 2630SOL    HW210550   4.154   2.387   4.124
 2630SOL    HW310551   4.229   2.259   4.149
 2630SOL    MW410552   4.219   2.333   4.105
 2631SOL     OW10553   4.037   2.474   4.248
 2631SOL    HW210554   4.045   2.460   4.343
 2631SOL    HW310555   3.959   2.425   4.223
 2631SOL    MW410556   4.028   2.465   4.257
 2632SOL     OW10557   4.054   2.734   4.157
 2632SOL    HW210558   4.038   2.650   4.198
 2632SOL    HW310559   3.987   2.792   4.192
 2632SOL    MW410560   4.043   2.731   4.167
 2633SOL     OW10561   4.293   2.880   4.248
 2633SOL    HW210562   4.206   2.845   4.228
 2633SOL    HW310563   4.352   2.830   4.191
 2633SOL    MW410564   4.289   2.868   4.238
 2634SOL     OW10565   4.274   3.148   4.157
 2634SOL    HW210566   4.278   3.057   4.185
 2634SOL    HW310567   4.310   3.148   4.068
 2634SOL    MW410568   4.280   3.136   4.149
 2635SOL     OW10569   4.038   3.281   4.221
 2635SOL    HW210570   4.122   3.243   4.195
 2635SOL    HW310571   3.973   3.217   4.192
 2635SOL    MW410572   4.041   3.267   4.214
 2636SOL     OW10573   4.011   3.549   4.119
 2636SOL    HW210574   4.013   3.471   4.176
 2636SOL    HW310575   3.996   3.514   4.032
 2636SOL    MW410576   4.009   3.534   4.115
 2637SOL     OW10577   4.287   3.599   4.195
 2637SOL    HW210578   4.293   3.695   4.195
 2637SOL    HW310579   4.198   3.580   4.168
 2637SOL    MW410580   4.276   3.609   4.192
 2638SOL     OW10581   4.254   3.865   4.131
 2638SOL    HW210582   4.173   3.913   4.151
 2638SOL    HW310583   4.243   3.838   4.040
 2638SOL    MW410584   4.242   3.868   4.121
 2639SOL     OW10585   4.008   4.003   4.191
 2639SOL    HW210586   3.993   3.973   4.281
 2639SOL    HW310587   3.930   3.975   4.143
 2639SOL    MW410588   3.995   3.995   4.197
 2640SOL     OW10589   3.993   4.297   4.131
 2640SOL    HW210590   4.066   4.355   4.152
 2640SOL    HW310591   4.008   4.219   4.185
 2640SOL    MW410592   4.004   4.294   4.141
 2641SOL     OW10593   4.041   4.177   4.597
 2641SOL    HW210594   4.071   4.157   4.685
 2641SOL    HW310595   3.970   4.239   4.610
 2641SOL    MW410596   4.036   4.183   4.610
 2642SOL     OW10597   4.095   4.130   4.865
 2642SOL    HW210598   4.173   4.186   4.864
 2642SOL    HW310599   4.029   4.182   4.912
 2642SOL    MW410600   4.097   4.144   4.871
 2643SOL     OW10601   4.250   4.334   4.494
 2643SOL    HW210602   4.248   4.405   4.558
 2643SOL    HW310603   4.179   4.275   4.520
 2643SOL    MW410604   4.240   4.336   4.506
 2644SOL     OW10605   4.176   4.519   4.696
 2644SOL    HW210606   4.222   4.603   4.688
 2644SOL    HW310607   4.083   4.542   4.694
 2644SOL    MW410608   4.170   4.533   4.694
 2645SOL     OW10609   4.266   1.840   4.506
 2645SOL    HW210610   4.355   1.870   4.522
 2645SOL    HW310611   4.242   1.792   4.585
 2645SOL    MW410612   4.275   1.838   4.518
 2646SOL     OW10613   0.777   4.617   4.620
 2646SOL    HW210614   0.850   4.578   4.667
 2646SOL    HW310615   0.735   4.544   4.575
 2646SOL    MW410616   0.781   4.602   4.620
 2647SOL     OW10617   0.204   0.814   4.620
 2647SOL    HW210618   0.241   0.737   4.577
 2647SOL    HW310619   0.239   0.811   4.709
 2647SOL    MW410620   0.214   0.803   4.626
 2648SOL     OW10621   4.211   0.775   4.583
 2648SOL    HW210622   4.241   0.688   4.557
 2648SOL    HW310623   4.292   0.823   4.602
 2648SOL    MW410624   4.226   0.769   4.582
 2649SOL     OW10625   0.721   1.363   4.503
 2649SOL    HW210626   0.780   1.438   4.511
 2649SOL    HW310627   0.640   1.392   4.544
 2649SOL    MW410628   0.718   1.377   4.509
 2650SOL     OW10629   1.138   1.965   4.498
 2650SOL    HW210630   1.232   1.970   4.484
 2650SOL    HW310631   1.122   2.020   4.575
 2650SOL    MW410632   1.148   1.973   4.506
 2651SOL     OW10633   4.184   1.246   4.484
 2651SOL    HW210634   4.159   1.154   4.486
 2651SOL    HW310635   4.265   1.251   4.535
 2651SOL    MW410636   4.191   1.235   4.491
 2652SOL     OW10637   0.065   1.683   4.503
 2652SOL    HW210638   0.070   1.676   4.408
 2652SOL    HW310639   0.042   1.774   4.520
 2652SOL    MW410640   0.063   1.694   4.493
 2653SOL     OW10641   0.463   1.700   4.294
 2653SOL    HW210642   0.387   1.691   4.237
 2653SOL    HW310643   0.524   1.633   4.262
 2653SOL    MW410644   0.461   1.690   4.282
 2654SOL     OW10645   0.039   1.944   4.550
 2654SOL    HW210646   0.097   2.013   4.516
 2654SOL    HW310647  -0.005   1.985   4.625
 2654SOL    MW410648   0.041   1.959   4.555
 2655SOL     OW10649   4.283   2.313   4.630
 2655SOL    HW210650   4.364   2.329   4.583
 2655SOL    HW310651   4.225   2.384   4.604
 2655SOL    MW410652   4.286   2.324   4.621
 2656SOL     OW10653   0.747   3.115   4.620
 2656SOL    HW210654   0.751   3.025   4.587
 2656SOL    HW310655   0.774   3.108   4.712
 2656SOL    MW410656   0.751   3.102   4.628
 2657SOL     OW10657   0.512   3.233   4.555
 2657SOL    HW210658   0.596   3.194   4.580
 2657SOL    HW310659   0.522   3.326   4.575
 2657SOL    MW410660   0.525   3.240   4.561
 2658SOL     OW10661   0.019   2.379   4.479
 2658SOL    HW210662   0.019   2.422   4.393
 2658SOL    HW310663   0.058   2.444   4.538
 2658SOL    MW410664   0.024   2.394   4.475
 2659SOL     OW10665   4.012   3.445   4.551
 2659SOL    HW210666   4.013   3.349   4.543
 2659SOL    HW310667   4.024   3.462   4.644
 2659SOL    MW410668   4.014   3.434   4.562
 2660SOL     OW10669   0.520   3.510   4.582
 2660SOL    HW210670   0.574   3.589   4.572
 2660SOL    HW310671   0.431   3.540   4.563
 2660SOL    MW410672   0.516   3.524   4.578
 2661SOL     OW10673   4.224   3.805   4.609
 2661SOL    HW210674   4.143   3.829   4.562
 2661SOL    HW310675   4.258   3.730   4.560
 2661SOL    MW410676   4.218   3.798   4.596
 2662SOL     OW10677   0.020   0.113   4.556
 2662SOL    HW210678  -0.073   0.099   4.576
 2662SOL    HW310679   0.036   0.204   4.581
 2662SOL    MW410680   0.010   0.123   4.562
 2663SOL     OW10681   3.887   0.418   4.507
 2663SOL    HW210682   3.808   0.367   4.490
 2663SOL    HW310683   3.863   0.476   4.580
 2663SOL    MW410684   3.873   0.419   4.514
 2664SOL     OW10685   4.136   3.557   4.781
 2664SOL    HW210686   4.122   3.593   4.869
 2664SOL    HW310687   4.166   3.631   4.729
 2664SOL    MW410688   4.138   3.571   4.786
 2665SOL     OW10689   3.802   3.806   4.565
 2665SOL    HW210690   3.789   3.713   4.547
 2665SOL    HW310691   3.762   3.819   4.651
 2665SOL    MW410692   3.795   3.796   4.574
 2666SOL     OW10693   0.652   4.367   4.529
 2666SOL    HW210694   0.634   4.373   4.435
 2666SOL    HW310695   0.595   4.296   4.559
 2666SOL    MW410696   0.642   4.358   4.521
 2667SOL     OW10697   3.971   0.776   4.726
 2667SOL    HW210698   4.061   0.775   4.693
 2667SOL    HW310699   3.930   0.851   4.681
 2667SOL    MW410700   3.978   0.786   4.716
 2668SOL     OW10701   1.123   0.805   4.611
 2668SOL    HW210702   1.095   0.714   4.617
 2668SOL    HW310703   1.042   0.854   4.596
 2668SOL    MW410704   1.108   0.800   4.610
 2669SOL     OW10705   0.791   0.373   4.599
 2669SOL    HW210706   0.880   0.339   4.606
 2669SOL    HW310707   0.744   0.306   4.549
 2669SOL    MW410708   0.797   0.360   4.594
 2670SOL     OW10709   0.878   0.932   4.534
 2670SOL    HW210710   0.890   0.920   4.440
 2670SOL    HW310711   0.787   0.908   4.550
 2670SOL    MW410712   0.868   0.928   4.524
 2671SOL     OW10713   0.373   0.999   4.483
 2671SOL    HW210714   0.318   0.928   4.516
 2671SOL    HW310715   0.395   0.973   4.394
 2671SOL    MW410716   0.368   0.986   4.476
 2672SOL     OW10717   2.126   1.208   4.467
 2672SOL    HW210718   2.095   1.237   4.381
 2672SOL    HW310719   2.162   1.287   4.507
 2672SOL    MW410720   2.127   1.222   4.461
 2673SOL     OW10721   0.369   1.674   4.567
 2673SOL    HW210722   0.274   1.689   4.575
 2673SOL    HW310723   0.383   1.659   4.473
 2673SOL    MW410724   0.358   1.674   4.555
 2674SOL     OW10725   1.427   1.130   4.600
 2674SOL    HW210726   1.406   1.040   4.576
 2674SOL    HW310727   1.354   1.182   4.567
 2674SOL    MW410728   1.415   1.125   4.593
 2675SOL     OW10729   0.842   1.608   4.537
 2675SOL    HW210730   0.772   1.672   4.548
 2675SOL    HW310731   0.919   1.649   4.576
 2675SOL    MW410732   0.843   1.622   4.543
 2676SOL     OW10733   0.717   2.168   4.503
 2676SOL    HW210734   0.761   2.251   4.488
 2676SOL    HW310735   0.770   2.124   4.570
 2676SOL    MW410736   0.730   2.173   4.510
 2677SOL     OW10737   1.080   1.717   4.642
 2677SOL    HW210738   1.139   1.654   4.602
 2677SOL    HW310739   1.109   1.802   4.609
 2677SOL    MW410740   1.091   1.720   4.633
 2678SOL     OW10741   0.445   2.279   4.530
 2678SOL    HW210742   0.531   2.237   4.522
 2678SOL    HW310743   0.438   2.332   4.451
 2678SOL    MW410744   0.456   2.281   4.518
 2679SOL     OW10745   0.979   2.662   4.753
 2679SOL    HW210746   1.016   2.716   4.683
 2679SOL    HW310747   0.886   2.654   4.730
 2679SOL    MW410748   0.972   2.668   4.741
 2680SOL     OW10749   0.718   2.645   4.624
 2680SOL    HW210750   0.626   2.620   4.631
 2680SOL    HW310751   0.759   2.572   4.577
 2680SOL    MW410752   0.711   2.632   4.618
 2681SOL     OW10753   0.895   3.317   4.503
 2681SOL    HW210754   0.874   3.398   4.549
 2681SOL    HW310755   0.855   3.248   4.555
 2681SOL    MW410756   0.887   3.319   4.516
 2682SOL     OW10757   0.861   3.545   4.688
 2682SOL    HW210758   0.787   3.596   4.656
 2682SOL    HW310759   0.931   3.609   4.702
 2682SOL    MW410760   0.861   3.560   4.686
 2683SOL     OW10761   1.240   0.034   4.518
 2683SOL    HW210762   1.208  -0.055   4.501
 2683SOL    HW310763   1.323   0.021   4.563
 2683SOL    MW410764   1.247   0.021   4.522
 2684SOL     OW10765   0.182   2.594   4.604
 2684SOL    HW210766   0.173   2.687   4.584
 2684SOL    HW310767   0.275   2.582   4.621
 2684SOL    MW410768   0.193   2.604   4.603
 2685SOL     OW10769   0.016   3.359   4.506
 2685SOL    HW210770  -0.062   3.413   4.513
 2685SOL    HW310771   0.021   3.336   4.413
 2685SOL    MW410772   0.007   3.363   4.495
 2686SOL     OW10773   1.203   3.589   4.550
 2686SOL    HW210774   1.177   3.497   4.562
 2686SOL    HW310775   1.191   3.605   4.457
 2686SOL    MW410776   1.198   3.579   4.540
 2687SOL     OW10777   4.462   4.207   4.606
 2687SOL    HW210778   4.449   4.114   4.586
 2687SOL    HW310779   4.398   4.252   4.551
 2687SOL    MW410780   4.452   4.201   4.596
 2688SOL     OW10781   4.452   3.958   4.493
 2688SOL    HW210782   4.532   3.908   4.509
 2688SOL    HW310783   4.382   3.904   4.532
 2688SOL    MW410784   4.453   3.944   4.500
 2689SOL     OW10785   0.236   4.588   4.584
 2689SOL    HW210786   0.293   4.651   4.628
 2689SOL    HW310787   0.155   4.636   4.568
 2689SOL    MW410788   0.232   4.603   4.588
 2690SOL     OW10789   0.691   0.155   4.453
 2690SOL    HW210790   0.769   0.166   4.398
 2690SOL    HW310791   0.717   0.090   4.519
 2690SOL    MW410792   0.705   0.148   4.454
 2691SOL     OW10793   1.151   4.390   4.485
 2691SOL    HW210794   1.220   4.333   4.520
 2691SOL    HW310795   1.072   4.336   4.487
 2691SOL    MW410796   1.150   4.375   4.490
 2692SOL     OW10797   0.575   0.551   4.507
 2692SOL    HW210798   0.643   0.548   4.438
 2692SOL    HW310799   0.602   0.484   4.570
 2692SOL    MW410800   0.588   0.542   4.506
 2693SOL     OW10801   1.375   0.860   4.510
 2693SOL    HW210802   1.378   0.881   4.417
 2693SOL    HW310803   1.282   0.852   4.530
 2693SOL    MW410804   1.363   0.862   4.500
 2694SOL     OW10805   1.712   0.922   4.497
 2694SOL    HW210806   1.723   0.929   4.402
 2694SOL    HW310807   1.618   0.910   4.510
 2694SOL    MW410808   1.701   0.922   4.486
 2695SOL     OW10809   0.239   1.239   4.534
 2695SOL    HW210810   0.273   1.150   4.530
 2695SOL    HW310811   0.316   1.293   4.552
 2695SOL    MW410812   0.254   1.235   4.536
 2696SOL     OW10813   0.867   2.045   4.722
 2696SOL    HW210814   0.850   1.955   4.695
 2696SOL    HW310815   0.955   2.042   4.759
 2696SOL    MW410816   0.876   2.033   4.723
 2697SOL     OW10817   0.937   1.187   4.583
 2697SOL    HW210818   0.859   1.236   4.558
 2697SOL    HW310819   0.909   1.096   4.589
 2697SOL    MW410820   0.923   1.182   4.581
 2698SOL     OW10821   1.866   1.153   4.574
 2698SOL    HW210822   1.842   1.063   4.552
 2698SOL    HW310823   1.956   1.163   4.544
 2698SOL    MW410824   1.875   1.143   4.567
 2699SOL     OW10825   1.186   1.286   4.482
 2699SOL    HW210826   1.102   1.254   4.516
 2699SOL    HW310827   1.191   1.377   4.512
 2699SOL    MW410828   1.176   1.293   4.490
 2700SOL     OW10829   1.093   2.401   4.655
 2700SOL    HW210830   1.066   2.475   4.709
 2700SOL    HW310831   1.180   2.425   4.623
 2700SOL    MW410832   1.101   2.414   4.658
 2701SOL     OW10833   1.624   2.589   4.842
 2701SOL    HW210834   1.547   2.602   4.898
 2701SOL    HW310835   1.603   2.637   4.762
 2701SOL    MW410836   1.611   2.597   4.839
 2702SOL     OW10837   1.443   2.916   4.616
 2702SOL    HW210838   1.445   2.821   4.619
 2702SOL    HW310839   1.531   2.942   4.645
 2702SOL    MW410840   1.455   2.907   4.620
 2703SOL     OW10841   1.688   3.260   4.495
 2703SOL    HW210842   1.635   3.198   4.546
 2703SOL    HW310843   1.691   3.222   4.407
 2703SOL    MW410844   1.682   3.247   4.490
 2704SOL     OW10845   0.769   2.871   4.482
 2704SOL    HW210846   0.864   2.856   4.489
 2704SOL    HW310847   0.730   2.800   4.532
 2704SOL    MW410848   0.776   2.860   4.489
 2705SOL     OW10849   0.431   4.190   4.586
 2705SOL    HW210850   0.362   4.227   4.531
 2705SOL    HW310851   0.405   4.211   4.675
 2705SOL    MW410852   0.419   4.198   4.590
 2706SOL     OW10853   1.048   2.837   4.528
 2706SOL    HW210854   1.069   2.821   4.436
 2706SOL    HW310855   1.098   2.915   4.551
 2706SOL    MW410856   1.057   2.845   4.519
 2707SOL     OW10857   0.887   3.303   4.840
 2707SOL    HW210858   0.867   3.386   4.797
 2707SOL    HW310859   0.981   3.291   4.828
 2707SOL    MW410860   0.897   3.312   4.833
 2708SOL     OW10861   1.635   3.565   4.505
 2708SOL    HW210862   1.725   3.598   4.512
 2708SOL    HW310863   1.644   3.470   4.510
 2708SOL    MW410864   1.648   3.557   4.507
 2709SOL     OW10865   0.452   3.911   4.528
 2709SOL    HW210866   0.419   3.995   4.560
 2709SOL    HW310867   0.471   3.925   4.435
 2709SOL    MW410868   0.450   3.924   4.520
 2710SOL     OW10869   0.190   3.820   4.552
 2710SOL    HW210870   0.195   3.725   4.566
 2710SOL    HW310871   0.281   3.848   4.542
 2710SOL    MW410872   0.202   3.811   4.552
 2711SOL     OW10873   0.920   4.254   4.566
 2711SOL    HW210874   0.896   4.163   4.583
 2711SOL    HW310875   0.837   4.300   4.556
 2711SOL    MW410876   0.906   4.249   4.567
 2712SOL     OW10877   0.219   4.329   4.494
 2712SOL    HW210878   0.227   4.410   4.544
 2712SOL    HW310879   0.143   4.285   4.532
 2712SOL    MW410880   0.210   4.334   4.505
 2713SOL     OW10881   2.117   3.753   4.629
 2713SOL    HW210882   2.140   3.746   4.722
 2713SOL    HW310883   2.150   3.672   4.590
 2713SOL    MW410884   2.124   3.741   4.636
 2714SOL     OW10885   1.611   4.366   4.462
 2714SOL    HW210886   1.653   4.280   4.468
 2714SOL    HW310887   1.607   4.384   4.368
 2714SOL    MW410888   1.616   4.357   4.450
 2715SOL     OW10889   1.385   4.255   4.581
 2715SOL    HW210890   1.400   4.161   4.581
 2715SOL    HW310891   1.460   4.291   4.534
 2715SOL    MW410892   1.397   4.247   4.575
 2716SOL     OW10893   0.902   0.619   4.515
 2716SOL    HW210894   0.885   0.709   4.542
 2716SOL    HW310895   0.843   0.566   4.568
 2716SOL    MW410896   0.892   0.624   4.526
 2717SOL     OW10897   1.525   0.004   4.587
 2717SOL    HW210898   1.560  -0.075   4.545
 2717SOL    HW310899   1.550  -0.005   4.679
 2717SOL    MW410900   1.533  -0.008   4.594
 2718SOL     OW10901   1.129   0.472   4.500
 2718SOL    HW210902   1.043   0.515   4.503
 2718SOL    HW310903   1.108   0.378   4.504
 2718SOL    MW410904   1.115   0.465   4.501
 2719SOL     OW10905   1.637   1.755   4.586
 2719SOL    HW210906   1.580   1.686   4.617
 2719SOL    HW310907   1.717   1.710   4.559
 2719SOL    MW410908   1.640   1.740   4.587
 2720SOL     OW10909   0.610   0.844   4.557
 2720SOL    HW210910   0.529   0.887   4.528
 2720SOL    HW310911   0.594   0.751   4.540
 2720SOL    MW410912   0.597   0.837   4.551
 2721SOL     OW10913   1.660   0.426   4.423
 2721SOL    HW210914   1.573   0.457   4.449
 2721SOL    HW310915   1.669   0.342   4.467
 2721SOL    MW410916   1.650   0.419   4.432
 2722SOL     OW10917   1.630   1.299   4.525
 2722SOL    HW210918   1.574   1.223   4.545
 2722SOL    HW310919   1.719   1.270   4.546
 2722SOL    MW410920   1.634   1.285   4.530
 2723SOL     OW10921   1.260   1.546   4.517
 2723SOL    HW210922   1.332   1.531   4.578
 2723SOL    HW310923   1.302   1.582   4.439
 2723SOL    MW410924   1.275   1.549   4.514
 2724SOL     OW10925   1.538   2.652   4.588
 2724SOL    HW210926   1.475   2.584   4.564
 2724SOL    HW310927   1.622   2.620   4.557
 2724SOL    MW410928   1.540   2.639   4.581
 2725SOL     OW10929   2.343   2.528   4.375
 2725SOL    HW210930   2.327   2.500   4.285
 2725SOL    HW310931   2.279   2.598   4.391
 2725SOL    MW410932   2.333   2.534   4.365
 2726SOL     OW10933   0.852   2.414   4.511
 2726SOL    HW210934   0.939   2.402   4.550
 2726SOL    HW310935   0.870   2.444   4.422
 2726SOL    MW410936   0.866   2.417   4.505
 2727SOL     OW10937   1.429   3.747   4.586
 2727SOL    HW210938   1.356   3.687   4.584
 2727SOL    HW310939   1.505   3.694   4.563
 2727SOL    MW410940   1.430   3.732   4.583
 2728SOL     OW10941   1.324   2.397   4.256
 2728SOL    HW210942   1.342   2.490   4.252
 2728SOL    HW310943   1.407   2.355   4.234
 2728SOL    MW410944   1.337   2.403   4.253
 2729SOL     OW10945   1.351   2.437   4.541
 2729SOL    HW210946   1.335   2.430   4.447
 2729SOL    HW310947   1.370   2.347   4.568
 2729SOL    MW410948   1.351   2.424   4.532
 2730SOL     OW10949   1.242   3.067   4.495
 2730SOL    HW210950   1.314   3.033   4.548
 2730SOL    HW310951   1.285   3.103   4.417
 2730SOL    MW410952   1.257   3.067   4.492
 2731SOL     OW10953   1.149   3.324   4.558
 2731SOL    HW210954   1.183   3.241   4.526
 2731SOL    HW310955   1.056   3.324   4.532
 2731SOL    MW410956   1.141   3.313   4.550
 2732SOL     OW10957   0.691   3.771   4.581
 2732SOL    HW210958   0.613   3.825   4.566
 2732SOL    HW310959   0.763   3.833   4.580
 2732SOL    MW410960   0.690   3.786   4.579
 2733SOL     OW10961   2.188   3.475   4.605
 2733SOL    HW210962   2.104   3.434   4.587
 2733SOL    HW310963   2.242   3.405   4.640
 2733SOL    MW410964   2.184   3.460   4.608
 2734SOL     OW10965   1.954   3.319   4.535
 2734SOL    HW210966   1.990   3.268   4.462
 2734SOL    HW310967   1.860   3.304   4.531
 2734SOL    MW410968   1.947   3.310   4.525
 2735SOL     OW10969   2.275   3.258   4.352
 2735SOL    HW210970   2.191   3.211   4.355
 2735SOL    HW310971   2.334   3.204   4.405
 2735SOL    MW410972   2.272   3.244   4.359
 2736SOL     OW10973   0.921   3.945   4.564
 2736SOL    HW210974   0.956   3.952   4.475
 2736SOL    HW310975   0.980   3.884   4.609
 2736SOL    MW410976   0.933   3.938   4.558
 2737SOL     OW10977   1.780   4.122   4.510
 2737SOL    HW210978   1.789   4.074   4.428
 2737SOL    HW310979   1.861   4.103   4.558
 2737SOL    MW410980   1.792   4.113   4.506
 2738SOL     OW10981   1.979   0.040   4.535
 2738SOL    HW210982   2.068   0.073   4.528
 2738SOL    HW310983   1.988  -0.044   4.579
 2738SOL    MW410984   1.992   0.033   4.540
 2739SOL     OW10985   1.021   0.224   4.512
 2739SOL    HW210986   0.981   0.203   4.427
 2739SOL    HW310987   1.080   0.150   4.529
 2739SOL    MW410988   1.023   0.211   4.503
 2740SOL     OW10989   1.739   0.182   4.498
 2740SOL    HW210990   1.817   0.150   4.543
 2740SOL    HW310991   1.670   0.121   4.523
 2740SOL    MW410992   1.740   0.170   4.507
 2741SOL     OW10993   2.482   4.611   4.580
 2741SOL    HW210994   2.460   4.518   4.580
 2741SOL    HW310995   2.401   4.656   4.556
 2741SOL    MW410996   2.469   4.605   4.577
 2742SOL     OW10997   1.841   0.624   4.539
 2742SOL    HW210998   1.777   0.565   4.500
 2742SOL    HW310999   1.797   0.709   4.540
 2742SOL    MW411000   1.827   0.627   4.534
 2743SOL     OW11001   1.397   0.558   4.449
 2743SOL    HW211002   1.396   0.647   4.485
 2743SOL    HW311003   1.312   0.522   4.473
 2743SOL    MW411004   1.386   0.565   4.457
 2744SOL     OW11005   1.894   1.701   4.507
 2744SOL    HW211006   1.920   1.628   4.563
 2744SOL    HW311007   1.858   1.659   4.429
 2744SOL    MW411008   1.892   1.686   4.504
 2745SOL     OW11009   0.640   1.800   4.540
 2745SOL    HW211010   0.548   1.778   4.550
 2745SOL    HW311011   0.640   1.889   4.503
 2745SOL    MW411012   0.628   1.809   4.536
 2746SOL     OW11013   1.482   1.511   4.671
 2746SOL    HW211014   1.536   1.449   4.622
 2746SOL    HW311015   1.494   1.486   4.762
 2746SOL    MW411016   1.491   1.500   4.677
 2747SOL     OW11017   1.142   2.122   4.745
 2747SOL    HW211018   1.236   2.126   4.728
 2747SOL    HW311019   1.114   2.214   4.746
 2747SOL    MW411020   1.151   2.135   4.743
 2748SOL     OW11021   1.428   1.966   4.500
 2748SOL    HW211022   1.462   2.005   4.419
 2748SOL    HW311023   1.474   1.882   4.508
 2748SOL    MW411024   1.439   1.960   4.490
 2749SOL     OW11025   2.015   2.373   4.182
 2749SOL    HW211026   2.002   2.394   4.089
 2749SOL    HW311027   2.107   2.347   4.187
 2749SOL    MW411028   2.025   2.373   4.170
 2750SOL     OW11029   1.423   2.176   4.704
 2750SOL    HW211030   1.446   2.094   4.660
 2750SOL    HW311031   1.504   2.204   4.746
 2750SOL    MW411032   1.437   2.169   4.704
 2751SOL     OW11033   2.396   3.100   4.519
 2751SOL    HW211034   2.490   3.085   4.533
 2751SOL    HW311035   2.356   3.014   4.532
 2751SOL    MW411036   2.403   3.087   4.522
 2752SOL     OW11037   1.712   3.011   4.624
 2752SOL    HW211038   1.747   2.980   4.540
 2752SOL    HW311039   1.790   3.026   4.678
 2752SOL    MW411040   1.727   3.009   4.620
 2753SOL     OW11041   2.077   4.058   4.577
 2753SOL    HW211042   2.053   3.967   4.597
 2753SOL    HW311043   2.166   4.052   4.544
 2753SOL    MW411044   2.085   4.045   4.575
 2754SOL     OW11045   2.627   3.026   4.644
 2754SOL    HW211046   2.706   2.978   4.619
 2754SOL    HW311047   2.572   2.960   4.688
 2754SOL    MW411048   2.630   3.011   4.647
 2755SOL     OW11049   2.334   3.254   4.732
 2755SOL    HW211050   2.341   3.210   4.647
 2755SOL    HW311051   2.294   3.190   4.789
 2755SOL    MW411052   2.330   3.240   4.728
 2756SOL     OW11053   2.665   3.976   4.533
 2756SOL    HW211054   2.663   3.966   4.438
 2756SOL    HW311055   2.580   3.944   4.562
 2756SOL    MW411056   2.654   3.970   4.524
 2757SOL     OW11057   2.464   3.815   4.626
 2757SOL    HW211058   2.462   3.730   4.583
 2757SOL    HW311059   2.418   3.802   4.709
 2757SOL    MW411060   2.458   3.802   4.632
 2758SOL     OW11061   2.445   3.566   4.513
 2758SOL    HW211062   2.362   3.524   4.532
 2758SOL    HW311063   2.447   3.573   4.417
 2758SOL    MW411064   2.435   3.561   4.503
 2759SOL     OW11065   1.885   3.677   4.500
 2759SOL    HW211066   1.944   3.657   4.428
 2759SOL    HW311067   1.942   3.708   4.570
 2759SOL    MW411068   1.900   3.678   4.500
 2760SOL     OW11069   2.128   4.362   4.562
 2760SOL    HW211070   2.116   4.272   4.593
 2760SOL    HW311071   2.222   4.372   4.552
 2760SOL    MW411072   2.139   4.351   4.565
 2761SOL     OW11073   1.059   3.750   4.715
 2761SOL    HW211074   1.120   3.699   4.661
 2761SOL    HW311075   1.109   3.771   4.794
 2761SOL    MW411076   1.074   3.746   4.718
 2762SOL     OW11077   2.273   0.112   4.485
 2762SOL    HW211078   2.281   0.113   4.389
 2762SOL    HW311079   2.269   0.204   4.509
 2762SOL    MW411080   2.274   0.124   4.475
 2763SOL     OW11081   2.249   0.407   4.558
 2763SOL    HW211082   2.204   0.485   4.525
 2763SOL    HW311083   2.248   0.418   4.654
 2763SOL    MW411084   2.243   0.419   4.567
 2764SOL     OW11085   1.947   1.442   4.599
 2764SOL    HW211086   1.909   1.354   4.595
 2764SOL    HW311087   2.042   1.427   4.599
 2764SOL    MW411088   1.954   1.428   4.599
 2765SOL     OW11089   2.711   0.082   4.503
 2765SOL    HW211090   2.631   0.036   4.528
 2765SOL    HW311091   2.703   0.094   4.409
 2765SOL    MW411092   2.699   0.078   4.494
 2766SOL     OW11093   2.638   0.781   4.537
 2766SOL    HW211094   2.601   0.693   4.538
 2766SOL    HW311095   2.660   0.797   4.445
 2766SOL    MW411096   2.636   0.772   4.525
 2767SOL     OW11097   3.105   0.762   4.522
 2767SOL    HW211098   3.187   0.753   4.570
 2767SOL    HW311099   3.068   0.674   4.521
 2767SOL    MW411100   3.111   0.749   4.528
 2768SOL     OW11101   2.234   1.464   4.527
 2768SOL    HW211102   2.321   1.474   4.565
 2768SOL    HW311103   2.207   1.553   4.503
 2768SOL    MW411104   2.242   1.477   4.529
 2769SOL     OW11105   2.601   1.248   4.512
 2769SOL    HW211106   2.544   1.317   4.546
 2769SOL    HW311107   2.688   1.271   4.545
 2769SOL    MW411108   2.605   1.260   4.521
 2770SOL     OW11109   2.488   1.467   4.631
 2770SOL    HW211110   2.544   1.544   4.624
 2770SOL    HW311111   2.487   1.446   4.724
 2770SOL    MW411112   2.495   1.475   4.642
 2771SOL     OW11113   2.169   1.727   4.483
 2771SOL    HW211114   2.078   1.757   4.484
 2771SOL    HW311115   2.189   1.715   4.391
 2771SOL    MW411116   2.159   1.729   4.471
 2772SOL     OW11117   2.351   2.206   4.752
 2772SOL    HW211118   2.431   2.158   4.772
 2772SOL    HW311119   2.378   2.273   4.690
 2772SOL    MW411120   2.365   2.208   4.746
 2773SOL     OW11121   2.372   2.021   4.524
 2773SOL    HW211122   2.318   1.942   4.517
 2773SOL    HW311123   2.323   2.077   4.585
 2773SOL    MW411124   2.358   2.018   4.531
 2774SOL     OW11125   2.629   2.307   4.361
 2774SOL    HW211126   2.573   2.331   4.435
 2774SOL    HW311127   2.578   2.243   4.312
 2774SOL    MW411128   2.615   2.302   4.365
 2775SOL     OW11129   1.785   2.545   4.512
 2775SOL    HW211130   1.838   2.596   4.451
 2775SOL    HW311131   1.834   2.548   4.594
 2775SOL    MW411132   1.798   2.552   4.515
 2776SOL     OW11133   2.210   3.019   4.800
 2776SOL    HW211134   2.128   3.062   4.776
 2776SOL    HW311135   2.226   2.957   4.729
 2776SOL    MW411136   2.201   3.016   4.788
 2777SOL     OW11137   2.683   3.432   4.565
 2777SOL    HW211138   2.665   3.374   4.639
 2777SOL    HW311139   2.599   3.474   4.547
 2777SOL    MW411140   2.669   3.430   4.572
 2778SOL     OW11141   2.625   3.278   4.780
 2778SOL    HW211142   2.531   3.291   4.776
 2778SOL    HW311143   2.638   3.186   4.754
 2778SOL    MW411144   2.615   3.267   4.776
 2779SOL     OW11145   1.510   4.018   4.512
 2779SOL    HW211146   1.483   3.932   4.545
 2779SOL    HW311147   1.605   4.020   4.525
 2779SOL    MW411148   1.519   4.007   4.518
 2780SOL     OW11149   2.692   4.265   4.569
 2780SOL    HW211150   2.600   4.273   4.592
 2780SOL    HW311151   2.708   4.170   4.567
 2780SOL    MW411152   2.682   4.253   4.572
 2781SOL     OW11153   1.966   3.092   4.698
 2781SOL    HW211154   1.986   3.023   4.634
 2781SOL    HW311155   1.966   3.173   4.647
 2781SOL    MW411156   1.969   3.094   4.683
 2782SOL     OW11157   3.406   3.822   4.527
 2782SOL    HW211158   3.327   3.862   4.490
 2782SOL    HW311159   3.403   3.731   4.497
 2782SOL    MW411160   3.395   3.815   4.518
 2783SOL     OW11161   3.167   3.964   4.479
 2783SOL    HW211162   3.088   3.917   4.508
 2783SOL    HW311163   3.169   4.043   4.532
 2783SOL    MW411164   3.156   3.968   4.490
 2784SOL     OW11165   2.339   4.059   4.510
 2784SOL    HW211166   2.377   3.986   4.559
 2784SOL    HW311167   2.319   4.022   4.424
 2784SOL    MW411168   2.341   4.044   4.505
 2785SOL     OW11169   2.399   4.327   4.514
 2785SOL    HW211170   2.383   4.232   4.511
 2785SOL    HW311171   2.429   4.348   4.425
 2785SOL    MW411172   2.401   4.317   4.502
 2786SOL     OW11173   2.986   0.522   4.491
 2786SOL    HW211174   2.955   0.518   4.401
 2786SOL    HW311175   2.909   0.502   4.545
 2786SOL    MW411176   2.972   0.519   4.487
 2787SOL     OW11177   2.759   0.355   4.602
 2787SOL    HW211178   2.754   0.279   4.545
 2787SOL    HW311179   2.778   0.319   4.689
 2787SOL    MW411180   2.761   0.341   4.606
 2788SOL     OW11181   3.132   0.335   4.829
 2788SOL    HW211182   3.156   0.353   4.738
 2788SOL    HW311183   3.044   0.298   4.825
 2788SOL    MW411184   3.124   0.333   4.816
 2789SOL     OW11185   2.940   1.004   4.560
 2789SOL    HW211186   2.993   0.925   4.545
 2789SOL    HW311187   2.851   0.977   4.536
 2789SOL    MW411188   2.935   0.990   4.555
 2790SOL     OW11189   3.609   0.344   4.779
 2790SOL    HW211190   3.599   0.344   4.684
 2790SOL    HW311191   3.679   0.408   4.795
 2790SOL    MW411192   3.617   0.353   4.768
 2791SOL     OW11193   2.113   0.639   4.488
 2791SOL    HW211194   2.138   0.729   4.508
 2791SOL    HW311195   2.026   0.629   4.526
 2791SOL    MW411196   2.104   0.649   4.496
 2792SOL     OW11197   2.461   1.001   4.549
 2792SOL    HW211198   2.517   1.076   4.530
 2792SOL    HW311199   2.520   0.926   4.552
 2792SOL    MW411200   2.476   1.001   4.547
 2793SOL     OW11201   3.108   1.403   4.607
 2793SOL    HW211202   3.029   1.352   4.589
 2793SOL    HW311203   3.164   1.388   4.530
 2793SOL    MW411204   3.105   1.394   4.594
 2794SOL     OW11205   2.989   1.633   4.490
 2794SOL    HW211206   2.905   1.669   4.517
 2794SOL    HW311207   2.992   1.546   4.530
 2794SOL    MW411208   2.979   1.626   4.499
 2795SOL     OW11209   2.689   1.666   4.554
 2795SOL    HW211210   2.679   1.760   4.573
 2795SOL    HW311211   2.679   1.660   4.460
 2795SOL    MW411212   2.687   1.678   4.544
 2796SOL     OW11213   2.656   1.957   4.593
 2796SOL    HW211214   2.713   2.030   4.566
 2796SOL    HW311215   2.568   1.987   4.573
 2796SOL    MW411216   2.652   1.971   4.587
 2797SOL     OW11217   2.818   2.154   4.485
 2797SOL    HW211218   2.748   2.206   4.444
 2797SOL    HW311219   2.858   2.108   4.411
 2797SOL    MW411220   2.814   2.155   4.470
 2798SOL     OW11221   3.048   2.211   4.605
 2798SOL    HW211222   3.034   2.225   4.698
 2798SOL    HW311223   2.966   2.172   4.574
 2798SOL    MW411224   3.035   2.207   4.613
 2799SOL     OW11225   2.438   2.837   4.788
 2799SOL    HW211226   2.385   2.901   4.836
 2799SOL    HW311227   2.394   2.827   4.704
 2799SOL    MW411228   2.425   2.844   4.783
 2800SOL     OW11229   3.294   3.213   4.677
 2800SOL    HW211230   3.380   3.226   4.638
 2800SOL    HW311231   3.309   3.219   4.771
 2800SOL    MW411232   3.307   3.216   4.684
 2801SOL     OW11233   2.619   2.611   4.672
 2801SOL    HW211234   2.567   2.663   4.734
 2801SOL    HW311235   2.608   2.656   4.589
 2801SOL    MW411236   2.611   2.624   4.669
 2802SOL     OW11237   2.942   3.561   4.485
 2802SOL    HW211238   3.019   3.506   4.499
 2802SOL    HW311239   2.868   3.505   4.509
 2802SOL    MW411240   2.943   3.546   4.490
 2803SOL     OW11241   2.907   2.923   4.545
 2803SOL    HW211242   2.991   2.926   4.589
 2803SOL    HW311243   2.897   2.831   4.519
 2803SOL    MW411244   2.916   2.911   4.547
 2804SOL     OW11245   2.926   4.614   4.610
 2804SOL    HW211246   2.932   4.530   4.566
 2804SOL    HW311247   2.845   4.653   4.575
 2804SOL    MW411248   2.916   4.608   4.600
 2805SOL     OW11249   4.077   3.850   4.845
 2805SOL    HW211250   4.074   3.938   4.883
 2805SOL    HW311251   4.149   3.853   4.782
 2805SOL    MW411252   4.086   3.862   4.842
 2806SOL     OW11253   3.750   3.542   4.504
 2806SOL    HW211254   3.834   3.505   4.530
 2806SOL    HW311255   3.762   3.565   4.411
 2806SOL    MW411256   3.763   3.540   4.495
 2807SOL     OW11257   2.923   3.850   4.565
 2807SOL    HW211258   2.830   3.874   4.570
 2807SOL    HW311259   2.922   3.755   4.552
 2807SOL    MW411260   2.910   3.841   4.564
 2808SOL     OW11261   2.942   4.355   4.496
 2808SOL    HW211262   2.856   4.328   4.528
 2808SOL    HW311263   3.004   4.296   4.539
 2808SOL    MW411264   2.939   4.344   4.506
 2809SOL     OW11265   3.177   0.334   4.539
 2809SOL    HW211266   3.254   0.384   4.514
 2809SOL    HW311267   3.106   0.398   4.538
 2809SOL    MW411268   3.178   0.349   4.536
 2810SOL     OW11269   3.420   0.490   4.460
 2810SOL    HW211270   3.387   0.475   4.372
 2810SOL    HW311271   3.396   0.580   4.480
 2810SOL    MW411272   3.413   0.500   4.451
 2811SOL     OW11273   2.540   0.510   4.515
 2811SOL    HW211274   2.605   0.450   4.551
 2811SOL    HW311275   2.456   0.470   4.537
 2811SOL    MW411276   2.538   0.497   4.522
 2812SOL     OW11277   2.210   0.917   4.501
 2812SOL    HW211278   2.301   0.938   4.521
 2812SOL    HW311279   2.167   1.002   4.496
 2812SOL    MW411280   2.217   0.931   4.503
 2813SOL     OW11281   2.855   0.209   4.838
 2813SOL    HW211282   2.846   0.135   4.779
 2813SOL    HW311283   2.858   0.171   4.925
 2813SOL    MW411284   2.854   0.194   4.842
 2814SOL     OW11285   3.380   0.724   4.618
 2814SOL    HW211286   3.469   0.751   4.594
 2814SOL    HW311287   3.393   0.650   4.677
 2814SOL    MW411288   3.394   0.718   4.622
 2815SOL     OW11289   3.316   1.278   4.761
 2815SOL    HW211290   3.236   1.325   4.739
 2815SOL    HW311291   3.328   1.293   4.855
 2815SOL    MW411292   3.307   1.286   4.770
 2816SOL     OW11293   2.898   1.263   4.488
 2816SOL    HW211294   2.921   1.171   4.500
 2816SOL    HW311295   2.892   1.274   4.393
 2816SOL    MW411296   2.900   1.253   4.477
 2817SOL     OW11297   4.098   0.981   4.444
 2817SOL    HW211298   4.087   0.958   4.352
 2817SOL    HW311299   4.144   0.907   4.483
 2817SOL    MW411300   4.103   0.968   4.437
 2818SOL     OW11301   3.511   1.411   4.585
 2818SOL    HW211302   3.501   1.506   4.598
 2818SOL    HW311303   3.448   1.372   4.646
 2818SOL    MW411304   3.502   1.419   4.595
 2819SOL     OW11305   3.226   1.784   4.563
 2819SOL    HW211306   3.208   1.877   4.549
 2819SOL    HW311307   3.140   1.742   4.557
 2819SOL    MW411308   3.213   1.791   4.560
 2820SOL     OW11309   3.250   2.057   4.499
 2820SOL    HW211310   3.181   2.110   4.540
 2820SOL    HW311311   3.242   2.074   4.406
 2820SOL    MW411312   3.240   2.066   4.492
 2821SOL     OW11313   3.479   1.692   4.530
 2821SOL    HW211314   3.401   1.741   4.556
 2821SOL    HW311315   3.488   1.710   4.436
 2821SOL    MW411316   3.470   1.701   4.521
 2822SOL     OW11317   2.847   2.655   4.491
 2822SOL    HW211318   2.818   2.646   4.581
 2822SOL    HW311319   2.928   2.605   4.485
 2822SOL    MW411320   2.853   2.648   4.502
 2823SOL     OW11321   3.338   2.542   4.582
 2823SOL    HW211322   3.244   2.529   4.574
 2823SOL    HW311323   3.353   2.632   4.553
 2823SOL    MW411324   3.328   2.552   4.577
 2824SOL     OW11325   3.074   2.493   4.484
 2824SOL    HW211326   3.111   2.494   4.395
 2824SOL    HW311327   3.057   2.400   4.501
 2824SOL    MW411328   3.077   2.481   4.474
 2825SOL     OW11329   3.890   2.941   4.548
 2825SOL    HW211330   3.943   3.011   4.510
 2825SOL    HW311331   3.954   2.877   4.579
 2825SOL    MW411332   3.906   2.942   4.547
 2826SOL     OW11333   3.170   2.956   4.647
 2826SOL    HW211334   3.201   3.046   4.645
 2826SOL    HW311335   3.237   2.907   4.599
 2826SOL    MW411336   3.183   2.961   4.640
 2827SOL     OW11337   3.604   2.967   4.555
 2827SOL    HW211338   3.690   2.941   4.586
 2827SOL    HW311339   3.614   3.059   4.531
 2827SOL    MW411340   3.617   2.976   4.556
 2828SOL     OW11341   4.118   2.757   4.616
 2828SOL    HW211342   4.198   2.793   4.579
 2828SOL    HW311343   4.140   2.740   4.708
 2828SOL    MW411344   4.132   2.759   4.624
 2829SOL     OW11345   3.558   3.310   4.530
 2829SOL    HW211346   3.638   3.362   4.542
 2829SOL    HW311347   3.553   3.296   4.435
 2829SOL    MW411348   3.568   3.315   4.519
 2830SOL     OW11349   3.591   4.233   4.692
 2830SOL    HW211350   3.666   4.285   4.662
 2830SOL    HW311351   3.597   4.153   4.640
 2830SOL    MW411352   3.602   4.229   4.681
 2831SOL     OW11353   3.153   4.197   4.624
 2831SOL    HW211354   3.142   4.194   4.719
 2831SOL    HW311355   3.235   4.246   4.611
 2831SOL    MW411356   3.162   4.203   4.635
 2832SOL     OW11357   3.191   0.055   4.508
 2832SOL    HW211358   3.120   0.021   4.562
 2832SOL    HW311359   3.183   0.150   4.515
 2832SOL    MW411360   3.181   0.063   4.516
 2833SOL     OW11361   3.380   4.351   4.576
 2833SOL    HW211362   3.451   4.308   4.623
 2833SOL    HW311363   3.396   4.444   4.589
 2833SOL    MW411364   3.392   4.358   4.584
 2834SOL     OW11365   3.608   4.008   4.522
 2834SOL    HW211366   3.688   3.957   4.511
 2834SOL    HW311367   3.539   3.943   4.529
 2834SOL    MW411368   3.609   3.993   4.521
 2835SOL     OW11369   3.697   0.073   4.764
 2835SOL    HW211370   3.679   0.163   4.791
 2835SOL    HW311371   3.628   0.052   4.701
 2835SOL    MW411372   3.686   0.082   4.759
 2836SOL     OW11373   3.321   1.050   4.580
 2836SOL    HW211374   3.323   0.970   4.631
 2836SOL    HW311375   3.317   1.120   4.645
 2836SOL    MW411376   3.321   1.049   4.595
 2837SOL     OW11377   3.377   0.498   4.786
 2837SOL    HW211378   3.447   0.438   4.812
 2837SOL    HW311379   3.300   0.465   4.831
 2837SOL    MW411380   3.376   0.486   4.795
 2838SOL     OW11381   4.118   1.623   4.645
 2838SOL    HW211382   4.200   1.574   4.653
 2838SOL    HW311383   4.051   1.555   4.633
 2838SOL    MW411384   4.120   1.607   4.644
 2839SOL     OW11385   3.848   0.961   4.558
 2839SOL    HW211386   3.807   1.047   4.560
 2839SOL    HW311387   3.932   0.975   4.515
 2839SOL    MW411388   3.854   0.974   4.553
 2840SOL     OW11389   4.448   0.949   4.558
 2840SOL    HW211390   4.450   0.947   4.462
 2840SOL    HW311391   4.530   0.908   4.585
 2840SOL    MW411392   4.459   0.943   4.549
 2841SOL     OW11393   4.272   0.505   4.475
 2841SOL    HW211394   4.275   0.497   4.379
 2841SOL    HW311395   4.185   0.474   4.498
 2841SOL    MW411396   4.261   0.500   4.465
 2842SOL     OW11397   3.545   1.687   4.252
 2842SOL    HW211398   3.627   1.643   4.228
 2842SOL    HW311399   3.477   1.623   4.231
 2842SOL    MW411400   3.547   1.673   4.246
 2843SOL     OW11401   3.882   1.604   4.388
 2843SOL    HW211402   3.960   1.656   4.368
 2843SOL    HW311403   3.828   1.663   4.440
 2843SOL    MW411404   3.885   1.619   4.392
 2844SOL     OW11405   3.541   2.119   4.484
 2844SOL    HW211406   3.447   2.101   4.491
 2844SOL    HW311407   3.577   2.039   4.447
 2844SOL    MW411408   3.533   2.106   4.480
 2845SOL     OW11409   3.744   1.808   4.555
 2845SOL    HW211410   3.652   1.783   4.565
 2845SOL    HW311411   3.787   1.774   4.633
 2845SOL    MW411412   3.737   1.801   4.566
 2846SOL     OW11413   3.929   1.784   4.791
 2846SOL    HW211414   3.931   1.738   4.875
 2846SOL    HW311415   3.999   1.744   4.740
 2846SOL    MW411416   3.938   1.773   4.795
 2847SOL     OW11417   3.882   2.049   4.491
 2847SOL    HW211418   3.973   2.045   4.522
 2847SOL    HW311419   3.846   1.964   4.513
 2847SOL    MW411420   3.889   2.038   4.498
 2848SOL     OW11421   3.872   2.338   4.560
 2848SOL    HW211422   3.785   2.376   4.557
 2848SOL    HW311423   3.858   2.244   4.559
 2848SOL    MW411424   3.859   2.331   4.560
 2849SOL     OW11425   4.098   2.494   4.526
 2849SOL    HW211426   4.017   2.456   4.561
 2849SOL    HW311427   4.097   2.585   4.555
 2849SOL    MW411428   4.087   2.501   4.534
 2850SOL     OW11429   4.315   3.154   4.517
 2850SOL    HW211430   4.390   3.213   4.525
 2850SOL    HW311431   4.353   3.066   4.526
 2850SOL    MW411432   4.330   3.150   4.519
 2851SOL     OW11433   3.185   3.377   4.491
 2851SOL    HW211434   3.217   3.325   4.564
 2851SOL    HW311435   3.189   3.318   4.415
 2851SOL    MW411436   3.190   3.363   4.490
 2852SOL     OW11437   4.033   3.182   4.487
 2852SOL    HW211438   4.124   3.164   4.510
 2852SOL    HW311439   4.037   3.214   4.397
 2852SOL    MW411440   4.046   3.184   4.478
 2853SOL     OW11441   3.403   3.542   4.447
 2853SOL    HW211442   3.321   3.493   4.450
 2853SOL    HW311443   3.464   3.490   4.498
 2853SOL    MW411444   3.401   3.529   4.454
 2854SOL     OW11445   4.259   3.547   4.464
 2854SOL    HW211446   4.254   3.562   4.369
 2854SOL    HW311447   4.181   3.495   4.483
 2854SOL    MW411448   4.248   3.542   4.454
 2855SOL     OW11449   0.144   2.845   4.499
 2855SOL    HW211450   0.178   2.844   4.410
 2855SOL    HW311451   0.178   2.926   4.537
 2855SOL    MW411452   0.153   2.856   4.493
 2856SOL     OW11453   4.031   3.925   4.450
 2856SOL    HW211454   4.046   4.001   4.506
 2856SOL    HW311455   3.953   3.883   4.487
 2856SOL    MW411456   4.023   3.930   4.462
 2857SOL     OW11457   3.832   4.358   4.581
 2857SOL    HW211458   3.811   4.354   4.488
 2857SOL    HW311459   3.848   4.450   4.599
 2857SOL    MW411460   3.831   4.369   4.571
 2858SOL     OW11461   3.466   4.646   4.544
 2858SOL    HW211462   3.504   4.658   4.457
 2858SOL    HW311463   3.374   4.670   4.533
 2858SOL    MW411464   3.459   4.651   4.531
 2859SOL     OW11465   3.638   0.765   4.525
 2859SOL    HW211466   3.715   0.822   4.536
 2859SOL    HW311467   3.630   0.754   4.430
 2859SOL    MW411468   3.647   0.771   4.514
 2860SOL     OW11469   3.794   0.569   4.706
 2860SOL    HW211470   3.864   0.634   4.719
 2860SOL    HW311471   3.723   0.618   4.665
 2860SOL    MW411472   3.794   0.584   4.703
 2861SOL     OW11473   0.076   0.391   4.567
 2861SOL    HW211474   0.155   0.445   4.564
 2861SOL    HW311475   0.007   0.448   4.534
 2861SOL    MW411476   0.077   0.406   4.562
 2862SOL     OW11477   0.287   0.580   4.456
 2862SOL    HW211478   0.383   0.578   4.453
 2862SOL    HW311479   0.260   0.561   4.366
 2862SOL    MW411480   0.296   0.577   4.443
 2863SOL     OW11481   4.012   0.178   4.503
 2863SOL    HW211482   3.953   0.253   4.504
 2863SOL    HW311483   4.034   0.165   4.411
 2863SOL    MW411484   4.007   0.186   4.491
 2864SOL     OW11485   3.715   1.241   4.527
 2864SOL    HW211486   3.633   1.290   4.535
 2864SOL    HW311487   3.780   1.295   4.572
 2864SOL    MW411488   3.713   1.255   4.534
 2865SOL     OW11489   4.452   1.234   4.575
 2865SOL    HW211490   4.546   1.240   4.554
 2865SOL    HW311491   4.437   1.140   4.589
 2865SOL    MW411492   4.462   1.222   4.574
 2866SOL     OW11493   4.368   1.498   4.649
 2866SOL    HW211494   4.400   1.408   4.644
 2866SOL    HW311495   4.440   1.551   4.614
 2866SOL    MW411496   4.382   1.493   4.644
 2867SOL     OW11497   3.963   1.386   4.568
 2867SOL    HW211498   4.036   1.325   4.554
 2867SOL    HW311499   3.940   1.416   4.480
 2867SOL    MW411500   3.970   1.382   4.555
 2868SOL     OW11501   3.386   2.811   4.504
 2868SOL    HW211502   3.376   2.833   4.412
 2868SOL    HW311503   3.469   2.851   4.530
 2868SOL    MW411504   3.395   2.819   4.495
 2869SOL     OW11505   4.254   2.082   4.206
 2869SOL    HW211506   4.174   2.049   4.165
 2869SOL    HW311507   4.232   2.089   4.299
 2869SOL    MW411508   4.240   2.079   4.213
 2870SOL     OW11509   0.185   2.170   4.490
 2870SOL    HW211510   0.267   2.218   4.502
 2870SOL    HW311511   0.118   2.238   4.481
 2870SOL    MW411512   0.187   2.185   4.490
 2871SOL     OW11513   4.168   2.109   4.466
 2871SOL    HW211514   4.206   2.030   4.505
 2871SOL    HW311515   4.197   2.180   4.524
 2871SOL    MW411516   4.177   2.108   4.479
 2872SOL     OW11517   3.594   2.396   4.518
 2872SOL    HW211518   3.512   2.442   4.535
 2872SOL    HW311519   3.568   2.305   4.503
 2872SOL    MW411520   3.580   2.390   4.518
 2873SOL     OW11521   0.466   2.523   4.663
 2873SOL    HW211522   0.488   2.516   4.756
 2873SOL    HW311523   0.459   2.433   4.633
 2873SOL    MW411524   0.468   2.510   4.671
 2874SOL     OW11525   4.361   2.883   4.513
 2874SOL    HW211526   4.456   2.869   4.514
 2874SOL    HW311527   4.337   2.878   4.421
 2874SOL    MW411528   4.371   2.880   4.501
 2875SOL     OW11529   0.257   3.098   4.563
 2875SOL    HW211530   0.204   3.175   4.584
 2875SOL    HW311531   0.347   3.130   4.566
 2875SOL    MW411532   0.262   3.113   4.566
 2876SOL     OW11533   0.234   3.542   4.516
 2876SOL    HW211534   0.239   3.576   4.427
 2876SOL    HW311535   0.157   3.484   4.514
 2876SOL    MW411536   0.225   3.539   4.504
 2877SOL     OW11537   4.255   0.113   4.661
 2877SOL    HW211538   4.258   0.175   4.734
 2877SOL    HW311539   4.181   0.142   4.608
 2877SOL    MW411540   4.246   0.125   4.664
 2878SOL     OW11541   3.917   4.618   4.655
 2878SOL    HW211542   3.941   4.686   4.592
 2878SOL    HW311543   3.846   4.658   4.707
 2878SOL    MW411544   3.911   4.632   4.654
 2879SOL     OW11545   4.319   4.291   4.850
 2879SOL    HW211546   4.379   4.270   4.778
 2879SOL    HW311547   4.289   4.380   4.830
 2879SOL    MW411548   4.323   4.300   4.838
 2880SOL     OW11549   3.641   0.315   4.491
 2880SOL    HW211550   3.610   0.228   4.468
 2880SOL    HW311551   3.568   0.373   4.467
 2880SOL    MW411552   3.627   0.311   4.485
 2881SOL     OW11553   4.236   4.428   4.225
 2881SOL    HW211554   4.300   4.369   4.185
 2881SOL    HW311555   4.227   4.396   4.315
 2881SOL    MW411556   4.243   4.416   4.231
 2882NA      NA11557   2.657   4.124   0.666
 2883NA      NA11558   0.586   2.274   0.451
   4.49070   4.66690  10.00000
